Protein in INSANE! Membrane UpperLeaflet>POPC=1.0 LowerLeaflet>POPC=1.0
241526
    1AU     AUC    1   4.388  25.302   7.512
    1AU     AUC    2   4.660  25.285   7.351
    1AU     AUC    3   4.656  25.284   7.679
    1AU     AUC    4   4.122  25.322   7.343
    1AU     AUC    5   4.116  25.316   7.676
    1AU     AUC    6   4.238  25.579   7.513
    1AU     AUC    7   4.571  25.558   7.519
    1AU     AUC    8   4.207  25.046   7.507
    1AU     AUC    9   4.538  25.024   7.506
    1AU     AUC   10   4.373  25.136   7.778
    1AU     AUC   11   4.397  25.463   7.783
    1AU     AUC   12   4.384  25.139   7.241
    1AU     AUC   13   4.400  25.469   7.247
    1AU     AUC   14   4.930  25.276   7.200
    1AU     AUC   15   4.937  25.262   7.514
    1AU     AUC   16   4.915  25.261   7.834
    1AU     AUC   17   3.866  25.342   7.178
    1AU     AUC   18   3.841  25.338   7.504
    1AU     AUC   19   3.854  25.328   7.832
    1AU     AUC   20   4.098  25.845   7.518
    1AU     AUC   21   4.428  25.845   7.519
    1AU     AUC   22   4.741  25.811   7.528
    1AU     AUC   23   4.029  24.802   7.496
    1AU     AUC   24   4.361  24.759   7.495
    1AU     AUC   25   4.680  24.750   7.508
    1AU     AUC   26   4.365  24.974   8.035
    1AU     AUC   27   4.385  25.292   8.063
    1AU     AUC   28   4.401  25.618   8.035
    1AU     AUC   29   4.386  24.984   6.977
    1AU     AUC   30   4.396  25.304   6.972
    1AU     AUC   31   4.415  25.636   6.993
    1AU     AUC   32   4.652  25.115   7.948
    1AU     AUC   33   4.680  25.446   7.963
    1AU     AUC   34   4.663  25.127   7.070
    1AU     AUC   35   4.683  25.472   7.092
    1AU     AUC   36   4.094  25.144   7.960
    1AU     AUC   37   4.115  25.471   7.955
    1AU     AUC   38   4.115  25.152   7.061
    1AU     AUC   39   4.117  25.492   7.072
    1AU     AUC   40   4.852  25.537   7.366
    1AU     AUC   41   4.849  25.547   7.695
    1AU     AUC   42   3.963  25.615   7.338
    1AU     AUC   43   3.959  25.606   7.684
    1AU     AUC   44   4.825  25.000   7.342
    1AU     AUC   45   4.802  24.991   7.673
    1AU     AUC   46   3.936  25.061   7.340
    1AU     AUC   47   3.918  25.051   7.667
    1AU     AUC   48   4.246  25.751   7.785
    1AU     AUC   49   4.588  25.733   7.793
    1AU     AUC   50   4.184  24.877   7.781
    1AU     AUC   51   4.512  24.844   7.770
    1AU     AUC   52   4.246  25.749   7.231
    1AU     AUC   53   4.578  25.743   7.242
    1AU     AUC   54   4.207  24.866   7.232
    1AU     AUC   55   4.545  24.854   7.229
    1AU    AUSL   56   4.892  25.221   8.130
    1AU    AUSL   57   4.629  24.852   8.059
    1AU     AUL   58   4.888  24.862   8.293
    1AU       S   59   4.954  24.351   8.152
    1AU     LIG   60   4.934  23.957   8.404
    1AU     LIG   61   5.041  23.588   8.685
    1AU     LIG   62   5.291  23.457   9.062
    1AU     LIG   63   5.603  23.333   9.386
    1AU     LIG   64   5.678  23.288   9.855
    1AU       S   65   5.239  25.203   8.475
    1AU     LIG   66   5.333  25.391   8.891
    1AU     LIG   67   5.417  25.191   9.314
    1AU     LIG   68   5.710  25.062   9.683
    1AU     LIG   69   6.035  25.018  10.043
    1AU     LIG   70   6.389  25.013  10.381
    1AU    AUSL   71   4.572  25.125   8.270
    1AU    AUSL   72   4.220  25.445   8.281
    1AU     AUL   73   4.469  25.319   8.560
    1AU       S   74   4.925  25.111   8.723
    1AU     LIG   75   4.942  24.865   9.125
    1AU     LIG   76   4.893  24.565   9.496
    1AU     LIG   77   4.891  24.395   9.945
    1AU     LIG   78   5.014  24.326  10.399
    1AU     LIG   79   5.306  24.486  10.734
    1AU       S   80   3.987  25.347   8.755
    1AU     LIG   81   3.750  25.284   9.161
    1AU     LIG   82   3.711  25.101   9.597
    1AU     LIG   83   3.526  25.138  10.031
    1AU     LIG   84   3.442  25.432  10.384
    1AU     LIG   85   3.437  25.794  10.693
    1AU    AUSL   86   4.547  25.500   8.238
    1AU    AUSL   87   4.982  25.539   8.007
    1AU     AUL   88   4.824  25.463   8.365
    1AU       S   89   4.546  25.844   8.599
    1AU     LIG   90   4.824  25.874   8.982
    1AU     LIG   91   4.967  25.959   9.435
    1AU     LIG   92   4.930  26.022   9.923
    1AU     LIG   93   5.033  26.136  10.379
    1AU     LIG   94   5.303  26.199  10.763
    1AU       S   95   5.260  25.720   8.315
    1AU     LIG   96   5.642  25.653   8.535
    1AU     LIG   97   5.945  25.918   8.757
    1AU     LIG   98   6.135  26.210   9.062
    1AU     LIG   99   6.400  26.439   9.363
    1AU     LIG  100   6.758  26.384   9.682
    1AU    AUSL  101   4.842  25.331   6.914
    1AU    AUSL  102   4.739  25.737   6.930
    1AU     AUL  103   4.853  25.569   6.602
    1AU       S  104   4.890  25.084   6.335
    1AU     LIG  105   5.158  24.821   6.080
    1AU     LIG  106   5.378  24.782   5.663
    1AU     LIG  107   5.511  24.910   5.227
    1AU     LIG  108   5.752  24.958   4.818
    1AU     LIG  109   6.115  24.983   4.500
    1AU       S  110   5.167  25.947   6.702
    1AU     LIG  111   5.311  26.168   6.329
    1AU     LIG  112   5.621  26.362   6.050
    1AU     LIG  113   5.835  26.543   5.674
    1AU     LIG  114   5.745  26.693   5.228
    1AU     LIG  115   5.743  27.001   4.869
    1AU    AUSL  116   4.591  25.140   6.759
    1AU    AUSL  117   4.952  25.008   7.022
    1AU     AUL  118   5.063  25.236   6.763
    1AU       S  119   5.157  24.747   6.649
    1AU     LIG  120   5.394  24.431   6.340
    1AU     LIG  121   5.558  23.983   6.249
    1AU     LIG  122   5.838  23.688   6.006
    1AU     LIG  123   6.231  23.670   5.737
    1AU     LIG  124   6.525  23.731   5.366
    1AU       S  125   4.607  24.985   6.376
    1AU     LIG  126   4.675  24.667   6.070
    1AU     LIG  127   4.892  24.608   5.663
    1AU     LIG  128   5.071  24.627   5.226
    1AU     LIG  129   5.051  24.641   4.757
    1AU     LIG  130   5.198  24.590   4.319
    1AU    AUSL  131   4.555  25.483   6.790
    1AU    AUSL  132   4.224  25.132   6.748
    1AU     AUL  133   4.407  25.447   6.531
    1AU       S  134   4.102  25.082   6.317
    1AU     LIG  135   4.255  24.931   5.929
    1AU     LIG  136   3.997  24.763   5.578
    1AU     LIG  137   3.718  24.677   5.205
    1AU     LIG  138   3.488  24.619   4.795
    1AU     LIG  139   3.487  24.365   4.374
    1AU       S  140   4.719  25.220   6.234
    1AU     LIG  141   4.785  25.095   5.810
    1AU     LIG  142   5.041  25.096   5.427
    1AU     LIG  143   5.116  25.116   4.963
    1AU     LIG  144   5.098  25.343   4.545
    1AU     LIG  145   5.210  25.584   4.149
    1AU    AUSL  146   3.908  25.359   8.155
    1AU    AUSL  147   4.123  25.723   8.071
    1AU     AUL  148   4.028  25.699   8.395
    1AU       S  149   3.717  25.353   8.627
    1AU     LIG  150   3.526  24.968   8.806
    1AU     LIG  151   3.411  24.869   9.247
    1AU     LIG  152   3.203  24.981   9.659
    1AU     LIG  153   2.984  24.971  10.077
    1AU     LIG  154   2.580  25.069  10.318
    1AU       S  155   3.655  26.022   8.249
    1AU     LIG  156   3.692  26.119   8.702
    1AU     LIG  157   3.679  26.435   9.025
    1AU     LIG  158   3.386  26.687   9.267
    1AU     LIG  159   3.300  26.887   9.674
    1AU     LIG  160   3.242  27.253   9.960
    1AU    AUSL  161   4.214  25.094   8.267
    1AU    AUSL  162   3.782  25.054   7.963
    1AU     AUL  163   3.865  25.048   8.272
    1AU       S  164   3.450  24.771   8.248
    1AU     LIG  165   3.020  24.593   8.208
    1AU     LIG  166   2.767  24.262   8.421
    1AU     LIG  167   2.595  23.977   8.764
    1AU     LIG  168   2.370  23.756   9.116
    1AU     LIG  169   2.016  23.633   9.407
    1AU       S  170   4.027  25.086   8.735
    1AU     LIG  171   3.931  24.811   9.095
    1AU     LIG  172   3.793  24.601   9.479
    1AU     LIG  173   3.547  24.643   9.861
    1AU     LIG  174   3.421  24.497  10.289
    1AU     LIG  175   3.411  24.343  10.748
    1AU    AUSL  176   3.901  25.316   6.865
    1AU    AUSL  177   4.099  24.854   6.940
    1AU     AUL  178   3.855  24.971   6.740
    1AU       S  179   3.754  25.286   6.372
    1AU     LIG  180   3.630  24.940   6.087
    1AU     LIG  181   3.487  24.872   5.643
    1AU     LIG  182   3.279  24.952   5.213
    1AU     LIG  183   2.877  24.974   4.942
    1AU     LIG  184   2.543  25.068   4.603
    1AU       S  185   3.642  24.513   6.795
    1AU     LIG  186   3.428  24.132   6.676
    1AU     LIG  187   3.067  24.031   6.403
    1AU     LIG  188   2.769  23.863   6.086
    1AU     LIG  189   2.621  23.618   5.709
    1AU     LIG  190   2.674  23.410   5.290
    1AU    AUSL  191   4.208  25.480   6.812
    1AU    AUSL  192   3.830  25.634   7.018
    1AU     AUL  193   3.975  25.648   6.658
    1AU       S  194   3.535  25.883   6.736
    1AU     LIG  195   3.240  26.105   6.462
    1AU     LIG  196   3.158  26.267   6.020
    1AU     LIG  197   2.866  26.302   5.626
    1AU     LIG  198   2.461  26.339   5.342
    1AU     LIG  199   2.065  26.554   5.165
    1AU       S  200   4.002  25.329   6.260
    1AU     LIG  201   3.887  25.260   5.796
    1AU     LIG  202   3.767  25.178   5.346
    1AU     LIG  203   3.669  25.130   4.894
    1AU     LIG  204   3.741  25.384   4.492
    1AU     LIG  205   3.692  25.692   4.131
    1AU    AUSL  206   5.056  25.709   7.498
    1AU    AUSL  207   5.019  25.585   7.125
    1AU     AUL  208   5.093  26.015   7.369
    1AU       S  209   5.308  25.718   6.895
    1AU     LIG  210   5.745  25.776   6.765
    1AU     LIG  211   5.883  25.994   6.357
    1AU     LIG  212   6.119  26.244   6.014
    1AU     LIG  213   6.330  26.318   5.590
    1AU     LIG  214   6.670  26.480   5.293
    1AU       S  215   5.548  25.780   7.328
    1AU     LIG  216   6.002  25.970   7.297
    1AU     LIG  217   6.481  25.979   7.440
    1AU     LIG  218   6.922  26.173   7.547
    1AU     LIG  219   7.291  26.324   7.811
    1AU     LIG  220   7.425  26.767   7.872
    1AU    AUSL  221   5.179  25.383   7.372
    1AU    AUSL  222   5.118  25.098   7.663
    1AU     AUL  223   5.430  25.253   7.722
    1AU       S  224   5.557  25.464   7.244
    1AU     LIG  225   6.022  25.486   7.137
    1AU     LIG  226   6.509  25.500   7.238
    1AU     LIG  227   6.941  25.509   7.004
    1AU     LIG  228   7.362  25.715   6.983
    1AU     LIG  229   7.465  26.187   6.902
    1AU       S  230   5.560  24.766   7.590
    1AU     LIG  231   5.932  24.513   7.750
    1AU     LIG  232   6.328  24.260   7.788
    1AU     LIG  233   6.765  24.090   7.785
    1AU     LIG  234   7.213  24.252   7.897
    1AU     LIG  235   7.684  24.253   7.799
    1AU    AUSL  236   5.134  25.444   7.710
    1AU    AUSL  237   4.904  25.840   7.799
    1AU     AUL  238   5.252  25.760   7.798
    1AU       S  239   5.221  26.021   8.227
    1AU     LIG  240   5.588  26.177   8.474
    1AU     LIG  241   5.885  26.469   8.697
    1AU     LIG  242   6.127  26.820   8.915
    1AU     LIG  243   6.414  27.191   8.919
    1AU     LIG  244   6.399  27.656   8.903
    1AU       S  245   5.655  25.633   7.500
    1AU     LIG  246   6.127  25.594   7.627
    1AU     LIG  247   6.573  25.611   7.794
    1AU     LIG  248   6.944  25.862   7.959
    1AU     LIG  249   7.405  25.840   7.945
    1AU     LIG  250   7.781  26.129   8.033
    1AU    AUSL  251   3.802  25.830   7.539
    1AU    AUSL  252   3.798  25.621   7.950
    1AU     AUL  253   3.494  25.821   7.738
    1AU       S  254   3.513  25.739   8.258
    1AU     LIG  255   3.223  26.017   8.521
    1AU     LIG  256   3.197  26.304   8.897
    1AU     LIG  257   2.959  26.374   9.313
    1AU     LIG  258   2.571  26.306   9.609
    1AU     LIG  259   2.111  26.307   9.757
    1AU       S  260   3.658  26.287   7.535
    1AU     LIG  261   3.289  26.540   7.370
    1AU     LIG  262   2.929  26.859   7.433
    1AU     LIG  263   2.487  27.045   7.457
    1AU     LIG  264   2.045  27.066   7.617
    1AU     LIG  265   1.819  27.435   7.675
    1AU    AUSL  266   3.679  25.542   7.309
    1AU    AUSL  267   3.942  25.916   7.231
    1AU     AUL  268   3.568  25.846   7.260
    1AU       S  269   3.258  25.547   6.957
    1AU     LIG  270   2.891  25.867   6.821
    1AU     LIG  271   2.407  26.049   6.817
    1AU     LIG  272   1.915  26.221   6.837
    1AU     LIG  273   1.422  26.393   6.840
    1AU     LIG  274   0.921  26.380   6.793
    1AU       S  275   3.669  26.285   7.015
    1AU     LIG  276   3.473  26.543   6.657
    1AU     LIG  277   3.439  26.896   6.331
    1AU     LIG  278   3.178  27.282   6.210
    1AU     LIG  279   2.798  27.561   6.200
    1AU     LIG  280   2.366  27.744   6.255
    1AU    AUSL  281   3.647  25.490   7.677
    1AU    AUSL  282   3.610  25.217   7.332
    1AU     AUL  283   3.360  25.525   7.461
    1AU       S  284   3.149  25.033   7.383
    1AU     LIG  285   2.714  24.795   7.365
    1AU     LIG  286   2.238  24.716   7.407
    1AU     LIG  287   1.812  24.910   7.275
    1AU     LIG  288   1.423  24.699   7.117
    1AU     LIG  289   1.106  24.362   7.110
    1AU       S  290   3.257  25.396   7.971
    1AU     LIG  291   2.808  25.613   8.014
    1AU     LIG  292   2.386  25.890   8.071
    1AU     LIG  293   1.943  26.144   8.081
    1AU     LIG  294   1.468  26.324   8.012
    1AU     LIG  295   0.976  26.282   7.986
    1AU    AUSL  296   5.002  24.790   7.558
    1AU    AUSL  297   4.934  24.944   7.920
    1AU     AUL  298   5.252  24.973   7.932
    1AU       S  299   5.380  24.579   7.601
    1AU     LIG  300   5.520  24.197   7.749
    1AU     LIG  301   5.907  23.992   7.623
    1AU     LIG  302   6.332  23.817   7.527
    1AU     LIG  303   6.745  23.653   7.441
    1AU     LIG  304   7.104  23.455   7.600
    1AU       S  305   5.184  24.483   8.053
    1AU     LIG  306   5.409  24.133   8.272
    1AU     LIG  307   5.469  23.885   8.669
    1AU     LIG  308   5.760  23.638   8.967
    1AU     LIG  309   6.088  23.545   9.299
    1AU     LIG  310   6.530  23.563   9.496
    1AU    AUSL  311   5.130  25.048   7.317
    1AU    AUSL  312   4.825  24.730   7.217
    1AU     AUL  313   5.130  24.710   7.190
    1AU       S  314   5.568  24.878   7.356
    1AU     LIG  315   5.770  24.428   7.276
    1AU     LIG  316   6.207  24.257   7.287
    1AU     LIG  317   6.674  24.146   7.278
    1AU     LIG  318   7.096  24.225   7.072
    1AU     LIG  319   7.511  24.053   6.958
    1AU       S  320   5.100  24.490   6.743
    1AU     LIG  321   5.219  24.036   6.644
    1AU     LIG  322   5.324  23.573   6.528
    1AU     LIG  323   5.416  23.119   6.358
    1AU     LIG  324   5.745  22.797   6.265
    1AU     LIG  325   6.141  22.587   6.174
    1AU    AUSL  326   3.708  24.900   7.432
    1AU    AUSL  327   3.831  25.040   7.096
    1AU     AUL  328   3.528  25.096   7.037
    1AU       S  329   3.485  24.606   6.964
    1AU     LIG  330   3.058  24.456   6.832
    1AU     LIG  331   2.662  24.259   6.649
    1AU     LIG  332   2.362  24.051   6.369
    1AU     LIG  333   2.273  23.925   5.925
    1AU     LIG  334   2.123  23.829   5.496
    1AU       S  335   3.240  24.788   7.366
    1AU     LIG  336   3.021  24.530   7.681
    1AU     LIG  337   2.571  24.451   7.760
    1AU     LIG  338   2.107  24.372   7.799
    1AU     LIG  339   1.641  24.250   7.832
    1AU     LIG  340   1.412  23.924   7.569
    1AU    AUSL  341   3.624  25.151   7.674
    1AU    AUSL  342   3.873  24.758   7.780
    1AU     AUL  343   3.567  24.810   7.747
    1AU       S  344   3.561  24.524   8.149
    1AU     LIG  345   3.276  24.194   8.021
    1AU     LIG  346   2.931  23.912   8.086
    1AU     LIG  347   2.701  23.646   8.384
    1AU     LIG  348   2.445  23.442   8.716
    1AU     LIG  349   2.306  23.227   9.113
    1AU       S  350   3.150  25.040   7.590
    1AU     LIG  351   2.724  25.147   7.743
    1AU     LIG  352   2.249  25.077   7.766
    1AU     LIG  353   1.851  24.810   7.778
    1AU     LIG  354   1.422  24.724   7.630
    1AU     LIG  355   1.145  24.375   7.645
    1AU    AUSL  356   4.416  25.936   7.978
    1AU    AUSL  357   3.983  25.923   7.828
    1AU     AUL  358   4.168  26.020   8.214
    1AU       S  359   3.735  26.232   8.022
    1AU     LIG  360   3.479  26.472   8.391
    1AU     LIG  361   3.394  26.779   8.750
    1AU     LIG  362   3.343  27.234   8.921
    1AU     LIG  363   3.051  27.611   9.005
    1AU     LIG  364   2.608  27.727   9.137
    1AU       S  365   4.406  26.444   8.061
    1AU     LIG  366   4.566  26.697   8.394
    1AU     LIG  367   4.592  27.132   8.529
    1AU     LIG  368   4.537  27.513   8.801
    1AU     LIG  369   4.539  27.689   9.254
    1AU     LIG  370   4.626  28.006   9.599
    1AU    AUSL  371   4.256  26.060   7.669
    1AU    AUSL  372   4.595  26.081   7.356
    1AU     AUL  373   4.201  26.314   7.408
    1AU       S  374   4.220  26.471   7.885
    1AU     LIG  375   4.244  26.928   8.050
    1AU     LIG  376   4.348  27.375   8.145
    1AU     LIG  377   4.327  27.786   8.346
    1AU     LIG  378   4.034  28.149   8.372
    1AU     LIG  379   4.080  28.579   8.581
    1AU       S  380   4.672  26.502   7.263
    1AU     LIG  381   4.947  26.788   7.042
    1AU     LIG  382   5.019  27.149   6.769
    1AU     LIG  383   5.375  27.474   6.717
    1AU     LIG  384   5.341  27.892   6.566
    1AU     LIG  385   5.152  28.289   6.666
    1AU    AUSL  386   4.620  26.036   7.695
    1AU    AUSL  387   4.705  25.755   8.083
    1AU     AUL  388   4.767  26.098   8.011
    1AU       S  389   5.020  25.931   8.429
    1AU     LIG  390   5.300  25.918   8.804
    1AU     LIG  391   5.598  26.184   9.029
    1AU     LIG  392   5.794  26.566   9.214
    1AU     LIG  393   5.806  26.930   9.501
    1AU     LIG  394   5.762  27.070   9.956
    1AU       S  395   4.559  26.504   7.773
    1AU     LIG  396   4.749  26.904   7.960
    1AU     LIG  397   4.884  27.326   8.145
    1AU     LIG  398   5.169  27.714   8.216
    1AU     LIG  399   5.230  28.168   8.352
    1AU     LIG  400   5.358  28.638   8.381
    1AU    AUSL  401   4.359  24.654   7.964
    1AU    AUSL  402   4.748  24.668   7.798
    1AU     AUL  403   4.554  24.628   8.248
    1AU       S  404   4.480  24.164   8.037
    1AU     LIG  405   4.493  23.756   8.214
    1AU     LIG  406   4.235  23.405   8.332
    1AU     LIG  407   4.201  22.957   8.419
    1AU     LIG  408   4.241  22.615   8.729
    1AU     LIG  409   4.166  22.404   9.148
    1AU       S  410   4.989  24.358   7.875
    1AU     LIG  411   5.100  23.916   7.918
    1AU     LIG  412   5.282  23.611   8.224
    1AU     LIG  413   5.516  23.389   8.570
    1AU     LIG  414   5.668  23.112   8.910
    1AU     LIG  415   5.893  22.704   8.938
    1AU    AUSL  416   4.160  24.618   7.675
    1AU    AUSL  417   4.074  24.832   8.073
    1AU     AUL  418   4.042  24.474   7.981
    1AU       S  419   4.312  24.049   7.803
    1AU     LIG  420   4.182  23.585   7.821
    1AU     LIG  421   4.093  23.115   7.928
    1AU     LIG  422   3.849  22.713   8.078
    1AU     LIG  423   3.589  22.279   8.051
    1AU     LIG  424   3.547  21.817   8.196
    1AU       S  425   3.721  24.579   8.381
    1AU     LIG  426   3.323  24.320   8.536
    1AU     LIG  427   3.103  23.910   8.591
    1AU     LIG  428   2.912  23.587   8.876
    1AU     LIG  429   2.746  23.439   9.287
    1AU     LIG  430   2.759  23.376   9.760
    1AU    AUSL  431   4.473  24.519   7.650
    1AU    AUSL  432   4.200  24.546   7.335
    1AU     AUL  433   4.004  24.384   7.596
    1AU       S  434   4.255  24.093   7.272
    1AU     LIG  435   3.911  23.818   7.191
    1AU     LIG  436   3.905  23.376   7.058
    1AU     LIG  437   3.959  22.935   6.879
    1AU     LIG  438   3.726  22.510   6.855
    1AU     LIG  439   3.430  22.142   6.982
    1AU       S  440   4.561  24.143   7.777
    1AU     LIG  441   4.679  23.687   7.740
    1AU     LIG  442   4.596  23.290   7.971
    1AU     LIG  443   4.539  22.840   8.047
    1AU     LIG  444   4.785  22.482   8.212
    1AU     LIG  445   5.131  22.136   8.155
    1AU    AUSL  446   4.463  25.943   7.022
    1AU    AUSL  447   4.824  25.826   7.263
    1AU     AUL  448   4.814  26.067   7.049
    1AU       S  449   4.545  26.425   6.843
    1AU     LIG  450   4.798  26.678   6.548
    1AU     LIG  451   4.722  27.075   6.311
    1AU     LIG  452   4.709  27.262   5.860
    1AU     LIG  453   4.758  27.618   5.546
    1AU     LIG  454   4.589  27.960   5.298
    1AU       S  455   5.309  25.991   6.922
    1AU     LIG  456   5.623  26.273   6.720
    1AU     LIG  457   5.920  26.504   6.438
    1AU     LIG  458   5.955  26.832   6.106
    1AU     LIG  459   6.063  27.304   6.058
    1AU     LIG  460   6.425  27.552   5.898
    1AU    AUSL  461   4.270  25.992   7.318
    1AU    AUSL  462   4.142  25.803   6.947
    1AU     AUL  463   4.158  26.148   7.031
    1AU       S  464   4.489  26.540   7.074
    1AU     LIG  465   4.503  26.957   6.849
    1AU     LIG  466   4.459  27.380   6.688
    1AU     LIG  467   4.141  27.738   6.732
    1AU     LIG  468   4.087  28.201   6.751
    1AU     LIG  469   4.009  28.662   6.684
    1AU       S  470   3.756  26.109   6.724
    1AU     LIG  471   3.694  26.264   6.282
    1AU     LIG  472   3.594  26.544   5.923
    1AU     LIG  473   3.589  26.585   5.447
    1AU     LIG  474   3.400  26.760   5.052
    1AU     LIG  475   3.166  27.135   4.897
    1AU    AUSL  476   4.380  24.669   7.052
    1AU    AUSL  477   3.928  24.724   7.232
    1AU     AUL  478   4.112  24.505   6.956
    1AU       S  479   3.618  24.462   7.134
    1AU     LIG  480   3.293  24.155   7.179
    1AU     LIG  481   2.988  23.932   6.906
    1AU     LIG  482   2.695  23.725   6.595
    1AU     LIG  483   2.408  23.541   6.262
    1AU     LIG  484   2.258  23.302   5.888
    1AU       S  485   4.374  24.080   7.040
    1AU     LIG  486   4.246  23.701   6.819
    1AU     LIG  487   4.132  23.326   6.585
    1AU     LIG  488   4.285  22.939   6.386
    1AU     LIG  489   4.402  22.717   5.986
    1AU     LIG  490   4.162  22.488   5.640
    1AU    AUSL  491   4.564  24.540   7.329
    1AU    AUSL  492   4.651  24.838   6.917
    1AU     AUL  493   4.674  24.480   7.000
    1AU       S  494   4.543  24.076   7.298
    1AU     LIG  495   4.388  23.606   7.310
    1AU     LIG  496   4.401  23.218   7.024
    1AU     LIG  497   4.581  22.840   6.794
    1AU     LIG  498   4.913  22.488   6.736
    1AU     LIG  499   5.053  22.081   6.922
    1AU       S  500   4.894  24.648   6.574
    1AU     LIG  501   4.910  24.276   6.299
    1AU     LIG  502   5.068  23.859   6.166
    1AU     LIG  503   5.349  23.508   6.015
    1AU     LIG  504   5.568  23.233   5.700
    1AU     LIG  505   5.596  23.136   5.220
    2AU     AUC  506  15.057  31.356   7.508
    2AU     AUC  507  15.328  31.338   7.346
    2AU     AUC  508  15.326  31.335   7.675
    2AU     AUC  509  14.792  31.377   7.339
    2AU     AUC  510  14.785  31.373   7.671
    2AU     AUC  511  14.908  31.634   7.509
    2AU     AUC  512  15.241  31.611   7.515
    2AU     AUC  513  14.875  31.101   7.503
    2AU     AUC  514  15.206  31.077   7.503
    2AU     AUC  515  15.041  31.191   7.775
    2AU     AUC  516  15.068  31.517   7.779
    2AU     AUC  517  15.052  31.192   7.238
    2AU     AUC  518  15.068  31.524   7.242
    2AU     AUC  519  15.593  31.331   7.195
    2AU     AUC  520  15.606  31.313   7.509
    2AU     AUC  521  15.586  31.308   7.831
    2AU     AUC  522  14.536  31.396   7.174
    2AU     AUC  523  14.511  31.395   7.500
    2AU     AUC  524  14.523  31.387   7.828
    2AU     AUC  525  14.768  31.903   7.514
    2AU     AUC  526  15.097  31.900   7.516
    2AU     AUC  527  15.410  31.861   7.525
    2AU     AUC  528  14.695  30.858   7.494
    2AU     AUC  529  15.027  30.814   7.492
    2AU     AUC  530  15.347  30.800   7.503
    2AU     AUC  531  15.030  31.032   8.031
    2AU     AUC  532  15.053  31.350   8.059
    2AU     AUC  533  15.073  31.673   8.030
    2AU     AUC  534  15.054  31.036   6.974
    2AU     AUC  535  15.066  31.357   6.964
    2AU     AUC  536  15.082  31.691   6.987
    2AU     AUC  537  15.321  31.168   7.946
    2AU     AUC  538  15.351  31.497   7.959
    2AU     AUC  539  15.329  31.182   7.068
    2AU     AUC  540  15.348  31.530   7.083
    2AU     AUC  541  14.761  31.203   7.956
    2AU     AUC  542  14.785  31.531   7.950
    2AU     AUC  543  14.784  31.204   7.057
    2AU     AUC  544  14.787  31.545   7.066
    2AU     AUC  545  15.517  31.590   7.356
    2AU     AUC  546  15.527  31.592   7.687
    2AU     AUC  547  14.633  31.669   7.333
    2AU     AUC  548  14.630  31.664   7.679
    2AU     AUC  549  15.491  31.049   7.340
    2AU     AUC  550  15.465  31.038   7.675
    2AU     AUC  551  14.604  31.116   7.338
    2AU     AUC  552  14.585  31.109   7.663
    2AU     AUC  553  14.919  31.809   7.782
    2AU     AUC  554  15.262  31.783   7.789
    2AU     AUC  555  14.848  30.934   7.777
    2AU     AUC  556  15.175  30.898   7.767
    2AU     AUC  557  14.913  31.805   7.227
    2AU     AUC  558  15.243  31.799   7.239
    2AU     AUC  559  14.875  30.920   7.230
    2AU     AUC  560  15.216  30.906   7.226
    2AU    AUSL  561  15.560  31.272   8.128
    2AU    AUSL  562  15.289  30.910   8.061
    2AU     AUL  563  15.517  30.926   8.321
    2AU       S  564  15.616  30.428   8.173
    2AU     LIG  565  15.576  30.020   8.370
    2AU     LIG  566  15.806  29.797   8.716
    2AU     LIG  567  16.110  29.634   9.039
    2AU     LIG  568  16.440  29.422   9.301
    2AU     LIG  569  16.488  29.295   9.753
    2AU       S  570  15.904  31.251   8.467
    2AU     LIG  571  16.010  31.451   8.882
    2AU     LIG  572  16.051  31.241   9.304
    2AU     LIG  573  16.317  31.025   9.630
    2AU     LIG  574  16.714  31.021   9.893
    2AU     LIG  575  16.963  31.175  10.254
    2AU    AUSL  576  15.238  31.190   8.266
    2AU    AUSL  577  14.886  31.503   8.275
    2AU     AUL  578  15.131  31.378   8.559
    2AU       S  579  15.598  31.200   8.727
    2AU     LIG  580  15.653  30.956   9.118
    2AU     LIG  581  15.637  30.728   9.532
    2AU     LIG  582  15.619  30.565   9.980
    2AU     LIG  583  15.628  30.556  10.458
    2AU     LIG  584  15.749  30.463  10.895
    2AU       S  585  14.646  31.408   8.745
    2AU     LIG  586  14.411  31.337   9.146
    2AU     LIG  587  14.398  31.142   9.572
    2AU     LIG  588  14.258  31.172  10.019
    2AU     LIG  589  14.240  31.441  10.412
    2AU     LIG  590  14.143  31.730  10.782
    2AU    AUSL  591  15.212  31.563   8.240
    2AU    AUSL  592  15.662  31.581   7.989
    2AU     AUL  593  15.497  31.522   8.345
    2AU       S  594  15.229  31.901   8.592
    2AU     LIG  595  15.524  31.864   8.971
    2AU     LIG  596  15.716  32.017   9.394
    2AU     LIG  597  15.692  32.189   9.861
    2AU     LIG  598  15.742  32.214  10.342
    2AU     LIG  599  15.746  32.016  10.781
    2AU       S  600  15.946  31.758   8.304
    2AU     LIG  601  16.322  31.713   8.532
    2AU     LIG  602  16.576  31.975   8.810
    2AU     LIG  603  16.780  32.241   9.131
    2AU     LIG  604  17.053  32.417   9.471
    2AU     LIG  605  17.451  32.371   9.735
    2AU    AUSL  606  15.508  31.387   6.911
    2AU    AUSL  607  15.398  31.801   6.925
    2AU     AUL  608  15.541  31.627   6.613
    2AU       S  609  15.578  31.147   6.342
    2AU     LIG  610  15.873  30.982   6.043
    2AU     LIG  611  15.912  30.923   5.575
    2AU     LIG  612  16.148  30.871   5.163
    2AU     LIG  613  16.596  30.841   4.957
    2AU     LIG  614  16.936  30.923   4.633
    2AU       S  615  15.791  32.057   6.684
    2AU     LIG  616  15.867  32.295   6.300
    2AU     LIG  617  16.223  32.349   6.007
    2AU     LIG  618  16.466  32.618   5.713
    2AU     LIG  619  16.676  32.894   5.392
    2AU     LIG  620  16.611  33.189   5.004
    2AU    AUSL  621  15.263  31.193   6.757
    2AU    AUSL  622  15.615  31.067   7.026
    2AU     AUL  623  15.742  31.293   6.778
    2AU       S  624  15.819  30.803   6.647
    2AU     LIG  625  16.032  30.514   6.320
    2AU     LIG  626  16.281  30.106   6.236
    2AU     LIG  627  16.580  29.799   6.029
    2AU     LIG  628  16.957  29.759   5.740
    2AU     LIG  629  17.305  29.975   5.499
    2AU       S  630  15.300  31.039   6.369
    2AU     LIG  631  15.424  30.739   6.044
    2AU     LIG  632  15.436  30.720   5.570
    2AU     LIG  633  15.579  30.736   5.121
    2AU     LIG  634  15.762  30.610   4.716
    2AU     LIG  635  15.856  30.665   4.260
    2AU    AUSL  636  15.227  31.542   6.774
    2AU    AUSL  637  14.894  31.178   6.743
    2AU     AUL  638  15.067  31.476   6.519
    2AU       S  639  14.756  31.121   6.298
    2AU     LIG  640  14.776  30.914   5.876
    2AU     LIG  641  14.618  30.649   5.522
    2AU     LIG  642  14.343  30.622   5.145
    2AU     LIG  643  14.058  30.530   4.777
    2AU     LIG  644  14.058  30.451   4.293
    2AU       S  645  15.424  31.300   6.233
    2AU     LIG  646  15.463  31.190   5.790
    2AU     LIG  647  15.551  31.207   5.331
    2AU     LIG  648  15.680  31.196   4.876
    2AU     LIG  649  15.791  31.446   4.487
    2AU     LIG  650  15.886  31.635   4.058
    2AU    AUSL  651  14.576  31.423   8.149
    2AU    AUSL  652  14.796  31.785   8.066
    2AU     AUL  653  14.706  31.763   8.392
    2AU       S  654  14.378  31.421   8.614
    2AU     LIG  655  14.187  31.029   8.782
    2AU     LIG  656  14.080  30.919   9.220
    2AU     LIG  657  13.919  30.949   9.662
    2AU     LIG  658  13.552  30.938   9.958
    2AU     LIG  659  13.190  31.144  10.168
    2AU       S  660  14.331  32.085   8.249
    2AU     LIG  661  14.347  32.293   8.677
    2AU     LIG  662  14.302  32.522   9.082
    2AU     LIG  663  14.058  32.695   9.439
    2AU     LIG  664  13.946  32.843   9.880
    2AU     LIG  665  13.774  33.039  10.281
    2AU    AUSL  666  14.883  31.151   8.263
    2AU    AUSL  667  14.448  31.115   7.959
    2AU     AUL  668  14.539  31.116   8.264
    2AU       S  669  14.131  30.834   8.259
    2AU     LIG  670  13.712  30.701   8.264
    2AU     LIG  671  13.487  30.343   8.412
    2AU     LIG  672  13.264  30.004   8.624
    2AU     LIG  673  13.045  29.754   8.948
    2AU     LIG  674  12.898  29.725   9.396
    2AU       S  675  14.688  31.148   8.730
    2AU     LIG  676  14.588  30.861   9.076
    2AU     LIG  677  14.451  30.643   9.454
    2AU     LIG  678  14.302  30.669   9.881
    2AU     LIG  679  14.242  30.487  10.301
    2AU     LIG  680  14.037  30.516  10.720
    2AU    AUSL  681  14.572  31.366   6.861
    2AU    AUSL  682  14.765  30.903   6.938
    2AU     AUL  683  14.526  31.021   6.736
    2AU       S  684  14.407  31.334   6.372
    2AU     LIG  685  14.284  31.023   6.027
    2AU     LIG  686  14.160  30.894   5.574
    2AU     LIG  687  13.860  30.793   5.197
    2AU     LIG  688  13.559  30.814   4.819
    2AU     LIG  689  13.109  30.968   4.678
    2AU       S  690  14.304  30.567   6.797
    2AU     LIG  691  13.994  30.277   6.617
    2AU     LIG  692  13.768  29.992   6.337
    2AU     LIG  693  13.590  29.687   6.029
    2AU     LIG  694  13.499  29.512   5.596
    2AU     LIG  695  13.364  29.420   5.138
    2AU    AUSL  696  14.879  31.529   6.807
    2AU    AUSL  697  14.499  31.684   7.012
    2AU     AUL  698  14.648  31.696   6.653
    2AU       S  699  14.200  31.921   6.721
    2AU     LIG  700  14.073  32.093   6.288
    2AU     LIG  701  13.844  32.328   5.943
    2AU     LIG  702  13.593  32.404   5.540
    2AU     LIG  703  13.179  32.477   5.328
    2AU     LIG  704  12.802  32.627   5.096
    2AU       S  705  14.649  31.375   6.264
    2AU     LIG  706  14.573  31.383   5.812
    2AU     LIG  707  14.584  31.153   5.405
    2AU     LIG  708  14.538  31.221   4.940
    2AU     LIG  709  14.420  31.521   4.576
    2AU     LIG  710  14.243  31.797   4.221
    2AU    AUSL  711  15.725  31.751   7.493
    2AU    AUSL  712  15.681  31.651   7.107
    2AU     AUL  713  15.762  32.062   7.369
    2AU       S  714  15.963  31.819   6.880
    2AU     LIG  715  16.399  31.859   6.751
    2AU     LIG  716  16.546  32.044   6.334
    2AU     LIG  717  16.751  32.268   5.971
    2AU     LIG  718  16.960  32.501   5.623
    2AU     LIG  719  17.282  32.608   5.302
    2AU       S  720  16.222  31.841   7.329
    2AU     LIG  721  16.710  31.995   7.382
    2AU     LIG  722  17.199  32.087   7.464
    2AU     LIG  723  17.668  32.215   7.475
    2AU     LIG  724  18.038  32.481   7.386
    2AU     LIG  725  18.053  32.961   7.328
    2AU    AUSL  726  15.835  31.441   7.337
    2AU    AUSL  727  15.761  31.136   7.668
    2AU     AUL  728  16.086  31.216   7.564
    2AU       S  729  16.220  31.569   7.211
    2AU     LIG  730  16.669  31.554   7.135
    2AU     LIG  731  17.123  31.642   7.226
    2AU     LIG  732  17.571  31.816   7.170
    2AU     LIG  733  18.051  31.937   7.235
    2AU     LIG  734  18.361  32.238   7.048
    2AU       S  735  16.174  30.683   7.683
    2AU     LIG  736  16.646  30.496   7.731
    2AU     LIG  737  17.093  30.263   7.753
    2AU     LIG  738  17.554  30.073   7.799
    2AU     LIG  739  18.006  30.207   7.980
    2AU     LIG  740  18.398  30.519   8.013
    2AU    AUSL  741  15.832  31.476   7.695
    2AU    AUSL  742  15.578  31.887   7.792
    2AU     AUL  743  15.917  31.812   7.789
    2AU       S  744  15.910  32.063   8.224
    2AU     LIG  745  16.270  32.239   8.480
    2AU     LIG  746  16.553  32.521   8.743
    2AU     LIG  747  16.692  32.971   8.841
    2AU     LIG  748  16.901  33.403   8.744
    2AU     LIG  749  17.269  33.614   8.935
    2AU       S  750  16.314  31.661   7.514
    2AU     LIG  751  16.702  31.604   7.716
    2AU     LIG  752  17.146  31.653   7.745
    2AU     LIG  753  17.581  31.756   7.683
    2AU     LIG  754  18.005  31.929   7.765
    2AU     LIG  755  18.417  31.874   8.001
    2AU    AUSL  756  14.470  31.887   7.533
    2AU    AUSL  757  14.470  31.685   7.944
    2AU     AUL  758  14.161  31.878   7.733
    2AU       S  759  14.189  31.803   8.251
    2AU     LIG  760  13.911  32.051   8.539
    2AU     LIG  761  13.854  32.332   8.906
    2AU     LIG  762  13.622  32.448   9.299
    2AU     LIG  763  13.273  32.512   9.617
    2AU     LIG  764  12.898  32.679   9.859
    2AU       S  765  14.321  32.341   7.519
    2AU     LIG  766  13.889  32.534   7.439
    2AU     LIG  767  13.455  32.752   7.461
    2AU     LIG  768  13.008  32.935   7.420
    2AU     LIG  769  12.570  33.138   7.437
    2AU     LIG  770  12.282  33.409   7.692
    2AU    AUSL  771  14.351  31.598   7.306
    2AU    AUSL  772  14.609  31.966   7.223
    2AU     AUL  773  14.235  31.897   7.249
    2AU       S  774  13.919  31.589   6.963
    2AU     LIG  775  13.431  31.700   6.950
    2AU     LIG  776  12.952  31.847   7.008
    2AU     LIG  777  12.561  32.089   6.861
    2AU     LIG  778  12.096  32.158   6.904
    2AU     LIG  779  11.768  32.503   6.900
    2AU       S  780  14.331  32.329   6.994
    2AU     LIG  781  14.053  32.481   6.631
    2AU     LIG  782  14.054  32.727   6.228
    2AU     LIG  783  14.046  33.186   6.080
    2AU     LIG  784  13.812  33.593   6.015
    2AU     LIG  785  13.427  33.838   5.867
    2AU    AUSL  786  14.319  31.548   7.675
    2AU    AUSL  787  14.278  31.274   7.325
    2AU     AUL  788  14.035  31.589   7.462
    2AU       S  789  13.818  31.110   7.359
    2AU     LIG  790  13.391  30.916   7.259
    2AU     LIG  791  13.016  30.658   7.388
    2AU     LIG  792  12.545  30.665   7.386
    2AU     LIG  793  12.161  30.715   7.105
    2AU     LIG  794  11.759  30.458   7.028
    2AU       S  795  13.934  31.451   7.973
    2AU     LIG  796  13.462  31.567   8.034
    2AU     LIG  797  13.072  31.759   8.207
    2AU     LIG  798  12.796  32.129   8.210
    2AU     LIG  799  12.336  32.182   8.239
    2AU     LIG  800  11.902  32.344   8.184
    2AU    AUSL  801  15.664  30.831   7.549
    2AU    AUSL  802  15.605  30.985   7.937
    2AU     AUL  803  15.934  31.053   7.900
    2AU       S  804  15.961  30.542   7.588
    2AU     LIG  805  16.250  30.176   7.640
    2AU     LIG  806  16.678  29.980   7.594
    2AU     LIG  807  17.121  29.808   7.505
    2AU     LIG  808  17.557  29.734   7.379
    2AU     LIG  809  17.862  29.416   7.514
    2AU       S  810  15.844  30.572   8.079
    2AU     LIG  811  16.054  30.260   8.374
    2AU     LIG  812  16.284  29.998   8.689
    2AU     LIG  813  16.605  29.751   8.926
    2AU     LIG  814  16.961  29.530   9.133
    2AU     LIG  815  17.310  29.581   9.451
    2AU    AUSL  816  15.797  31.099   7.327
    2AU    AUSL  817  15.507  30.769   7.209
    2AU     AUL  818  15.835  30.819   7.175
    2AU       S  819  16.235  30.737   7.445
    2AU     LIG  820  16.503  30.407   7.250
    2AU     LIG  821  16.946  30.257   7.254
    2AU     LIG  822  17.407  30.223   7.323
    2AU     LIG  823  17.858  30.202   7.192
    2AU     LIG  824  18.287  30.188   6.975
    2AU       S  825  15.777  30.533   6.770
    2AU     LIG  826  15.943  30.111   6.648
    2AU     LIG  827  16.111  29.691   6.496
    2AU     LIG  828  16.425  29.382   6.315
    2AU     LIG  829  16.784  29.046   6.298
    2AU     LIG  830  17.113  28.888   5.996
    2AU    AUSL  831  14.373  30.957   7.430
    2AU    AUSL  832  14.503  31.093   7.095
    2AU     AUL  833  14.208  31.151   7.027
    2AU       S  834  14.149  30.662   6.971
    2AU     LIG  835  13.697  30.576   6.912
    2AU     LIG  836  13.450  30.335   6.577
    2AU     LIG  837  13.250  30.026   6.257
    2AU     LIG  838  13.111  29.784   5.864
    2AU     LIG  839  13.109  29.793   5.393
    2AU       S  840  13.899  30.858   7.360
    2AU     LIG  841  13.620  30.475   7.415
    2AU     LIG  842  13.224  30.195   7.398
    2AU     LIG  843  12.732  30.169   7.485
    2AU     LIG  844  12.329  29.953   7.666
    2AU     LIG  845  11.863  29.844   7.655
    2AU    AUSL  846  14.291  31.210   7.668
    2AU    AUSL  847  14.532  30.818   7.776
    2AU     AUL  848  14.219  30.874   7.751
    2AU       S  849  14.223  30.583   8.153
    2AU     LIG  850  13.893  30.250   8.081
    2AU     LIG  851  13.574  29.910   8.143
    2AU     LIG  852  13.398  29.563   8.399
    2AU     LIG  853  13.153  29.295   8.702
    2AU     LIG  854  12.794  28.974   8.755
    2AU       S  855  13.811  31.110   7.572
    2AU     LIG  856  13.365  31.215   7.674
    2AU     LIG  857  12.921  31.104   7.591
    2AU     LIG  858  12.575  30.964   7.834
    2AU     LIG  859  12.188  30.703   7.783
    2AU     LIG  860  11.881  30.355   7.871
    2AU    AUSL  861  15.097  31.988   7.978
    2AU    AUSL  862  14.655  31.983   7.820
    2AU     AUL  863  14.841  32.089   8.198
    2AU       S  864  14.402  32.287   8.005
    2AU     LIG  865  14.077  32.513   8.300
    2AU     LIG  866  14.052  32.768   8.694
    2AU     LIG  867  13.991  33.207   8.878
    2AU     LIG  868  13.690  33.555   8.976
    2AU     LIG  869  13.544  34.002   8.975
    2AU       S  870  15.114  32.502   8.071
    2AU     LIG  871  15.340  32.749   8.393
    2AU     LIG  872  15.334  33.135   8.654
    2AU     LIG  873  15.295  33.546   8.867
    2AU     LIG  874  15.341  33.707   9.325
    2AU     LIG  875  15.368  33.965   9.731
    2AU    AUSL  876  14.935  32.117   7.670
    2AU    AUSL  877  15.258  32.137   7.358
    2AU     AUL  878  14.872  32.376   7.413
    2AU       S  879  14.941  32.543   7.884
    2AU     LIG  880  15.050  33.010   8.057
    2AU     LIG  881  15.076  33.427   8.312
    2AU     LIG  882  14.996  33.882   8.427
    2AU     LIG  883  14.739  34.300   8.345
    2AU     LIG  884  14.669  34.787   8.270
    2AU       S  885  15.333  32.570   7.245
    2AU     LIG  886  15.625  32.837   7.008
    2AU     LIG  887  15.674  33.238   6.767
    2AU     LIG  888  15.756  33.694   6.632
    2AU     LIG  889  15.945  34.146   6.582
    2AU     LIG  890  16.247  34.524   6.640
    2AU    AUSL  891  15.298  32.086   7.695
    2AU    AUSL  892  15.386  31.800   8.076
    2AU     AUL  893  15.451  32.139   8.014
    2AU       S  894  15.714  31.973   8.429
    2AU     LIG  895  15.992  31.982   8.815
    2AU     LIG  896  16.248  32.273   9.078
    2AU     LIG  897  16.489  32.644   9.279
    2AU     LIG  898  16.527  32.875   9.708
    2AU     LIG  899  16.564  32.957  10.188
    2AU       S  900  15.259  32.542   7.760
    2AU     LIG  901  15.529  32.853   7.920
    2AU     LIG  902  15.539  33.213   8.194
    2AU     LIG  903  15.558  33.627   8.409
    2AU     LIG  904  15.829  34.024   8.396
    2AU     LIG  905  16.012  34.459   8.316
    2AU    AUSL  906  15.021  30.711   7.958
    2AU    AUSL  907  15.404  30.721   7.801
    2AU     AUL  908  15.196  30.684   8.248
    2AU       S  909  15.137  30.219   8.036
    2AU     LIG  910  15.038  29.826   8.242
    2AU     LIG  911  14.737  29.489   8.302
    2AU     LIG  912  14.695  29.035   8.376
    2AU     LIG  913  14.861  28.604   8.494
    2AU     LIG  914  15.123  28.260   8.715
    2AU       S  915  15.618  30.415   7.918
    2AU     LIG  916  15.860  30.030   7.946
    2AU     LIG  917  16.062  29.751   8.271
    2AU     LIG  918  16.304  29.486   8.588
    2AU     LIG  919  16.628  29.232   8.842
    2AU     LIG  920  16.942  28.869   8.836
    2AU    AUSL  921  14.819  30.674   7.674
    2AU    AUSL  922  14.739  30.892   8.068
    2AU     AUL  923  14.700  30.535   7.978
    2AU       S  924  14.957  30.108   7.806
    2AU     LIG  925  14.782  29.663   7.792
    2AU     LIG  926  14.611  29.210   7.877
    2AU     LIG  927  14.455  28.763   7.993
    2AU     LIG  928  14.139  28.408   8.081
    2AU     LIG  929  13.987  28.021   8.316
    2AU       S  930  14.396  30.649   8.387
    2AU     LIG  931  14.013  30.389   8.568
    2AU     LIG  932  13.785  29.965   8.612
    2AU     LIG  933  13.552  29.646   8.882
    2AU     LIG  934  13.347  29.476   9.270
    2AU     LIG  935  13.218  29.463   9.730
    2AU    AUSL  936  15.132  30.573   7.643
    2AU    AUSL  937  14.870  30.601   7.335
    2AU     AUL  938  14.660  30.444   7.584
    2AU       S  939  14.934  30.143   7.286
    2AU     LIG  940  14.596  29.846   7.330
    2AU     LIG  941  14.488  29.426   7.175
    2AU     LIG  942  14.424  28.991   6.990
    2AU     LIG  943  14.217  28.596   6.805
    2AU     LIG  944  14.231  28.136   6.715
    2AU       S  945  15.206  30.194   7.772
    2AU     LIG  946  15.300  29.726   7.818
    2AU     LIG  947  15.109  29.302   7.988
    2AU     LIG  948  14.998  28.815   8.021
    2AU     LIG  949  15.117  28.342   8.126
    2AU     LIG  950  15.065  27.915   8.332
    2AU    AUSL  951  15.126  32.001   7.023
    2AU    AUSL  952  15.487  31.879   7.266
    2AU     AUL  953  15.478  32.123   7.072
    2AU       S  954  15.216  32.462   6.827
    2AU     LIG  955  15.511  32.668   6.533
    2AU     LIG  956  15.474  33.080   6.317
    2AU     LIG  957  15.296  33.408   6.032
    2AU     LIG  958  15.089  33.729   5.748
    2AU     LIG  959  15.158  34.166   5.607
    2AU       S  960  15.963  32.077   6.913
    2AU     LIG  961  16.247  32.345   6.636
    2AU     LIG  962  16.548  32.573   6.334
    2AU     LIG  963  16.790  32.863   6.035
    2AU     LIG  964  16.922  33.342   6.021
    2AU     LIG  965  17.207  33.733   6.075
    2AU    AUSL  966  14.932  32.051   7.317
    2AU    AUSL  967  14.810  31.855   6.941
    2AU     AUL  968  14.821  32.204   7.032
    2AU       S  969  15.149  32.595   7.057
    2AU     LIG  970  15.194  32.996   6.777
    2AU     LIG  971  15.219  33.448   6.608
    2AU     LIG  972  15.013  33.883   6.656
    2AU     LIG  973  14.884  34.345   6.658
    2AU     LIG  974  14.488  34.615   6.700
    2AU       S  975  14.430  32.152   6.713
    2AU     LIG  976  14.475  32.408   6.332
    2AU     LIG  977  14.343  32.448   5.894
    2AU     LIG  978  14.070  32.610   5.550
    2AU     LIG  979  13.927  32.792   5.134
    2AU     LIG  980  13.838  33.197   4.906
    2AU    AUSL  981  15.045  30.723   7.051
    2AU    AUSL  982  14.594  30.776   7.234
    2AU     AUL  983  14.774  30.550   6.963
    2AU       S  984  14.274  30.518   7.136
    2AU     LIG  985  13.960  30.185   7.126
    2AU     LIG  986  13.646  29.959   6.862
    2AU     LIG  987  13.444  29.654   6.551
    2AU     LIG  988  13.193  29.394   6.238
    2AU     LIG  989  12.962  28.962   6.237
    2AU       S  990  15.039  30.126   7.053
    2AU     LIG  991  14.838  29.739   6.889
    2AU     LIG  992  14.661  29.360   6.685
    2AU     LIG  993  14.693  28.921   6.550
    2AU     LIG  994  14.819  28.620   6.220
    2AU     LIG  995  14.855  28.460   5.777
    2AU    AUSL  996  15.236  30.595   7.324
    2AU    AUSL  997  15.320  30.892   6.917
    2AU     AUL  998  15.324  30.534   6.981
    2AU       S  999  15.231  30.133   7.295
    2AU     LIG 1000  15.080  29.662   7.343
    2AU     LIG 1001  14.971  29.261   7.092
    2AU     LIG 1002  15.108  28.855   6.870
    2AU     LIG 1003  15.444  28.508   6.797
    2AU     LIG 1004  15.780  28.200   6.639
    2AU       S 1005  15.577  30.705   6.581
    2AU     LIG 1006  15.559  30.320   6.341
    2AU     LIG 1007  15.792  29.959   6.174
    2AU     LIG 1008  16.085  29.655   5.968
    2AU     LIG 1009  16.169  29.443   5.544
    2AU     LIG 1010  16.286  29.282   5.102
    3AU     AUC 1011   8.013  39.284   7.512
    3AU     AUC 1012   8.284  39.269   7.350
    3AU     AUC 1013   8.281  39.267   7.679
    3AU     AUC 1014   7.750  39.297   7.340
    3AU     AUC 1015   7.743  39.300   7.674
    3AU     AUC 1016   7.862  39.559   7.505
    3AU     AUC 1017   8.194  39.542   7.515
    3AU     AUC 1018   7.830  39.026   7.511
    3AU     AUC 1019   8.160  39.005   7.510
    3AU     AUC 1020   7.999  39.123   7.782
    3AU     AUC 1021   8.022  39.450   7.779
    3AU     AUC 1022   8.011  39.118   7.244
    3AU     AUC 1023   8.029  39.451   7.241
    3AU     AUC 1024   8.548  39.262   7.202
    3AU     AUC 1025   8.561  39.246   7.513
    3AU     AUC 1026   8.541  39.244   7.835
    3AU     AUC 1027   7.503  39.297   7.163
    3AU     AUC 1028   7.469  39.305   7.498
    3AU     AUC 1029   7.482  39.319   7.830
    3AU     AUC 1030   7.715  39.824   7.499
    3AU     AUC 1031   8.044  39.829   7.510
    3AU     AUC 1032   8.359  39.794   7.525
    3AU     AUC 1033   7.653  38.781   7.512
    3AU     AUC 1034   7.978  38.741   7.501
    3AU     AUC 1035   8.299  38.728   7.511
    3AU     AUC 1036   7.992  38.968   8.044
    3AU     AUC 1037   8.010  39.287   8.065
    3AU     AUC 1038   8.025  39.611   8.028
    3AU     AUC 1039   8.019  38.958   6.991
    3AU     AUC 1040   8.050  39.292   6.968
    3AU     AUC 1041   8.051  39.617   6.977
    3AU     AUC 1042   8.278  39.103   7.953
    3AU     AUC 1043   8.305  39.433   7.960
    3AU     AUC 1044   8.287  39.107   7.078
    3AU     AUC 1045   8.312  39.463   7.080
    3AU     AUC 1046   7.725  39.138   7.968
    3AU     AUC 1047   7.739  39.466   7.949
    3AU     AUC 1048   7.746  39.124   7.071
    3AU     AUC 1049   7.762  39.459   7.055
    3AU     AUC 1050   8.471  39.524   7.358
    3AU     AUC 1051   8.480  39.526   7.690
    3AU     AUC 1052   7.590  39.579   7.321
    3AU     AUC 1053   7.583  39.588   7.669
    3AU     AUC 1054   8.442  38.975   7.347
    3AU     AUC 1055   8.421  38.970   7.681
    3AU     AUC 1056   7.551  39.030   7.340
    3AU     AUC 1057   7.552  39.033   7.684
    3AU     AUC 1058   7.869  39.739   7.773
    3AU     AUC 1059   8.213  39.718   7.787
    3AU     AUC 1060   7.810  38.862   7.794
    3AU     AUC 1061   8.136  38.831   7.776
    3AU     AUC 1062   7.869  39.726   7.221
    3AU     AUC 1063   8.195  39.729   7.238
    3AU     AUC 1064   7.822  38.846   7.235
    3AU     AUC 1065   8.163  38.827   7.234
    3AU    AUSL 1066   8.515  39.211   8.135
    3AU    AUSL 1067   8.253  38.847   8.072
    3AU     AUL 1068   8.482  38.862   8.325
    3AU       S 1069   8.589  38.363   8.189
    3AU     LIG 1070   8.538  37.924   8.353
    3AU     LIG 1071   8.706  37.581   8.653
    3AU     LIG 1072   8.980  37.355   8.977
    3AU     LIG 1073   9.215  37.313   9.385
    3AU     LIG 1074   9.274  37.453   9.839
    3AU       S 1075   8.855  39.187   8.485
    3AU     LIG 1076   9.009  39.163   8.935
    3AU     LIG 1077   9.050  38.929   9.342
    3AU     LIG 1078   9.250  38.707   9.700
    3AU     LIG 1079   9.627  38.756   9.984
    3AU     LIG 1080  10.018  38.841  10.254
    3AU    AUSL 1081   8.194  39.125   8.276
    3AU    AUSL 1082   7.841  39.455   8.277
    3AU     AUL 1083   8.082  39.323   8.560
    3AU       S 1084   8.538  39.133   8.738
    3AU     LIG 1085   8.630  38.801   9.066
    3AU     LIG 1086   8.735  38.527   9.452
    3AU     LIG 1087   8.668  38.346   9.888
    3AU     LIG 1088   8.676  38.434  10.350
    3AU     LIG 1089   8.851  38.748  10.651
    3AU       S 1090   7.601  39.374   8.749
    3AU     LIG 1091   7.376  39.295   9.161
    3AU     LIG 1092   7.336  39.106   9.596
    3AU     LIG 1093   7.180  39.158  10.043
    3AU     LIG 1094   7.163  39.473  10.420
    3AU     LIG 1095   7.116  39.859  10.725
    3AU    AUSL 1096   8.170  39.495   8.236
    3AU    AUSL 1097   8.613  39.519   7.992
    3AU     AUL 1098   8.454  39.463   8.353
    3AU       S 1099   8.174  39.847   8.583
    3AU     LIG 1100   8.474  39.840   8.952
    3AU     LIG 1101   8.637  39.917   9.402
    3AU     LIG 1102   8.636  40.001   9.886
    3AU     LIG 1103   8.624  39.956  10.373
    3AU     LIG 1104   8.741  40.077  10.831
    3AU       S 1105   8.897  39.707   8.303
    3AU     LIG 1106   9.289  39.683   8.506
    3AU     LIG 1107   9.565  39.956   8.750
    3AU     LIG 1108   9.778  40.250   9.043
    3AU     LIG 1109  10.008  40.391   9.423
    3AU     LIG 1110  10.421  40.354   9.669
    3AU    AUSL 1111   8.483  39.318   6.930
    3AU    AUSL 1112   8.352  39.737   6.928
    3AU     AUL 1113   8.581  39.551   6.695
    3AU       S 1114   8.621  39.164   6.362
    3AU     LIG 1115   8.941  38.988   6.106
    3AU     LIG 1116   8.981  38.894   5.652
    3AU     LIG 1117   9.089  38.904   5.188
    3AU     LIG 1118   9.463  38.833   4.886
    3AU     LIG 1119   9.839  38.938   4.603
    3AU       S 1120   8.686  40.039   6.673
    3AU     LIG 1121   8.770  40.245   6.271
    3AU     LIG 1122   9.156  40.283   6.009
    3AU     LIG 1123   9.378  40.493   5.658
    3AU     LIG 1124   9.581  40.669   5.284
    3AU     LIG 1125   9.586  41.015   4.969
    3AU    AUSL 1126   8.264  39.109   6.769
    3AU    AUSL 1127   8.549  38.982   7.036
    3AU     AUL 1128   8.742  39.183   6.842
    3AU       S 1129   8.738  38.712   6.636
    3AU     LIG 1130   8.986  38.377   6.369
    3AU     LIG 1131   9.181  37.931   6.344
    3AU     LIG 1132   9.462  37.636   6.107
    3AU     LIG 1133   9.723  37.629   5.711
    3AU     LIG 1134  10.130  37.731   5.477
    3AU       S 1135   8.429  39.031   6.367
    3AU     LIG 1136   8.531  38.693   6.062
    3AU     LIG 1137   8.525  38.673   5.581
    3AU     LIG 1138   8.623  38.673   5.105
    3AU     LIG 1139   8.717  38.492   4.669
    3AU     LIG 1140   8.904  38.475   4.229
    3AU    AUSL 1141   8.215  39.467   6.743
    3AU    AUSL 1142   7.899  39.120   6.803
    3AU     AUL 1143   8.006  39.266   6.507
    3AU       S 1144   7.494  39.115   6.356
    3AU     LIG 1145   7.474  38.740   6.090
    3AU     LIG 1146   7.429  38.640   5.646
    3AU     LIG 1147   7.159  38.565   5.273
    3AU     LIG 1148   6.912  38.579   4.877
    3AU     LIG 1149   6.945  38.506   4.408
    3AU       S 1150   8.427  39.359   6.250
    3AU     LIG 1151   8.537  39.158   5.825
    3AU     LIG 1152   8.633  39.139   5.353
    3AU     LIG 1153   8.699  39.178   4.882
    3AU     LIG 1154   8.729  39.447   4.474
    3AU     LIG 1155   8.767  39.611   4.016
    3AU    AUSL 1156   7.532  39.362   8.153
    3AU    AUSL 1157   7.741  39.723   8.054
    3AU     AUL 1158   7.647  39.716   8.380
    3AU       S 1159   7.333  39.376   8.616
    3AU     LIG 1160   7.126  39.007   8.801
    3AU     LIG 1161   7.007  38.908   9.239
    3AU     LIG 1162   6.865  38.895   9.688
    3AU     LIG 1163   6.599  38.880  10.075
    3AU     LIG 1164   6.237  38.961  10.379
    3AU       S 1165   7.272  40.042   8.215
    3AU     LIG 1166   7.273  40.260   8.645
    3AU     LIG 1167   7.227  40.484   9.068
    3AU     LIG 1168   7.009  40.751   9.386
    3AU     LIG 1169   6.982  40.914   9.840
    3AU     LIG 1170   6.877  41.145  10.252
    3AU    AUSL 1171   7.836  39.102   8.275
    3AU    AUSL 1172   7.427  39.050   7.975
    3AU     AUL 1173   7.488  39.051   8.278
    3AU       S 1174   7.131  38.713   8.316
    3AU     LIG 1175   6.699  38.644   8.271
    3AU     LIG 1176   6.434  38.296   8.376
    3AU     LIG 1177   6.242  38.041   8.710
    3AU     LIG 1178   6.020  37.752   8.991
    3AU     LIG 1179   5.864  37.611   9.409
    3AU       S 1180   7.636  39.105   8.744
    3AU     LIG 1181   7.506  38.803   9.092
    3AU     LIG 1182   7.339  38.603   9.489
    3AU     LIG 1183   7.231  38.637   9.936
    3AU     LIG 1184   7.136  38.367  10.305
    3AU     LIG 1185   7.052  38.411  10.758
    3AU    AUSL 1186   7.590  39.262   6.839
    3AU    AUSL 1187   7.710  38.848   6.931
    3AU     AUL 1188   7.848  38.899   6.614
    3AU       S 1189   7.319  39.259   6.506
    3AU     LIG 1190   7.036  38.965   6.220
    3AU     LIG 1191   6.963  38.840   5.749
    3AU     LIG 1192   6.783  38.908   5.296
    3AU     LIG 1193   6.558  38.966   4.881
    3AU     LIG 1194   6.282  39.088   4.513
    3AU       S 1195   7.365  38.700   6.601
    3AU     LIG 1196   7.083  38.334   6.371
    3AU     LIG 1197   6.807  37.921   6.292
    3AU     LIG 1198   6.521  37.631   6.025
    3AU     LIG 1199   6.440  37.476   5.576
    3AU     LIG 1200   6.510  37.294   5.126
    3AU    AUSL 1201   7.872  39.470   6.778
    3AU    AUSL 1202   7.473  39.574   6.992
    3AU     AUL 1203   7.658  39.629   6.638
    3AU       S 1204   7.169  39.744   6.699
    3AU     LIG 1205   6.899  39.955   6.400
    3AU     LIG 1206   6.822  40.254   6.052
    3AU     LIG 1207   6.576  40.306   5.644
    3AU     LIG 1208   6.157  40.381   5.419
    3AU     LIG 1209   5.711  40.421   5.232
    3AU       S 1210   7.554  39.332   6.263
    3AU     LIG 1211   7.352  39.180   5.851
    3AU     LIG 1212   7.273  39.069   5.392
    3AU     LIG 1213   7.123  39.113   4.939
    3AU     LIG 1214   7.142  39.430   4.559
    3AU     LIG 1215   7.057  39.725   4.172
    3AU    AUSL 1216   8.676  39.683   7.497
    3AU    AUSL 1217   8.642  39.595   7.113
    3AU     AUL 1218   8.720  39.995   7.377
    3AU       S 1219   8.944  39.825   6.908
    3AU     LIG 1220   9.357  39.802   6.736
    3AU     LIG 1221   9.497  39.967   6.307
    3AU     LIG 1222   9.697  40.228   5.963
    3AU     LIG 1223   9.928  40.370   5.569
    3AU     LIG 1224  10.334  40.366   5.289
    3AU       S 1225   9.183  39.772   7.354
    3AU     LIG 1226   9.660  39.940   7.380
    3AU     LIG 1227  10.153  40.020   7.448
    3AU     LIG 1228  10.625  40.162   7.472
    3AU     LIG 1229  10.919  40.556   7.578
    3AU     LIG 1230  11.145  40.867   7.884
    3AU    AUSL 1231   8.789  39.374   7.339
    3AU    AUSL 1232   8.714  39.069   7.668
    3AU     AUL 1233   9.039  39.141   7.551
    3AU       S 1234   9.173  39.514   7.220
    3AU     LIG 1235   9.611  39.503   7.122
    3AU     LIG 1236  10.056  39.561   7.233
    3AU     LIG 1237  10.512  39.679   7.242
    3AU     LIG 1238  10.922  39.831   7.076
    3AU     LIG 1239  11.381  39.826   7.058
    3AU       S 1240   9.107  38.604   7.677
    3AU     LIG 1241   9.485  38.397   7.858
    3AU     LIG 1242   9.934  38.248   7.806
    3AU     LIG 1243  10.392  38.151   7.723
    3AU     LIG 1244  10.810  38.015   7.916
    3AU     LIG 1245  11.295  38.036   7.894
    3AU    AUSL 1246   8.788  39.408   7.700
    3AU    AUSL 1247   8.528  39.825   7.792
    3AU     AUL 1248   8.867  39.746   7.789
    3AU       S 1249   8.853  40.010   8.215
    3AU     LIG 1250   9.211  40.199   8.442
    3AU     LIG 1251   9.494  40.482   8.681
    3AU     LIG 1252   9.726  40.792   8.948
    3AU     LIG 1253  10.037  41.152   8.974
    3AU     LIG 1254  10.148  41.604   9.044
    3AU       S 1255   9.281  39.582   7.543
    3AU     LIG 1256   9.738  39.510   7.647
    3AU     LIG 1257  10.204  39.591   7.730
    3AU     LIG 1258  10.675  39.690   7.729
    3AU     LIG 1259  11.120  39.664   7.905
    3AU     LIG 1260  11.551  39.828   8.010
    3AU    AUSL 1261   7.417  39.798   7.512
    3AU    AUSL 1262   7.418  39.614   7.936
    3AU     AUL 1263   7.112  39.801   7.715
    3AU       S 1264   7.141  39.747   8.232
    3AU     LIG 1265   6.960  39.848   8.636
    3AU     LIG 1266   6.828  40.191   8.930
    3AU     LIG 1267   6.615  40.375   9.307
    3AU     LIG 1268   6.205  40.353   9.560
    3AU     LIG 1269   5.769  40.408   9.746
    3AU       S 1270   7.236  40.244   7.465
    3AU     LIG 1271   6.788  40.451   7.453
    3AU     LIG 1272   6.331  40.647   7.487
    3AU     LIG 1273   5.872  40.837   7.527
    3AU     LIG 1274   5.517  41.151   7.629
    3AU     LIG 1275   5.227  41.445   7.873
    3AU    AUSL 1276   7.319  39.468   7.280
    3AU    AUSL 1277   7.552  39.871   7.203
    3AU     AUL 1278   7.189  39.767   7.222
    3AU       S 1279   6.967  39.347   6.918
    3AU     LIG 1280   6.664  39.709   6.806
    3AU     LIG 1281   6.267  39.974   6.787
    3AU     LIG 1282   5.793  40.071   6.836
    3AU     LIG 1283   5.329  40.160   6.945
    3AU     LIG 1284   4.902  40.274   6.847
    3AU       S 1285   7.249  40.194   6.952
    3AU     LIG 1286   7.001  40.413   6.613
    3AU     LIG 1287   7.041  40.717   6.257
    3AU     LIG 1288   7.052  41.199   6.187
    3AU     LIG 1289   6.778  41.587   6.195
    3AU     LIG 1290   6.339  41.754   6.152
    3AU    AUSL 1291   7.278  39.477   7.658
    3AU    AUSL 1292   7.234  39.146   7.334
    3AU     AUL 1293   7.002  39.495   7.427
    3AU       S 1294   6.759  39.040   7.388
    3AU     LIG 1295   6.314  38.847   7.356
    3AU     LIG 1296   5.863  38.858   7.347
    3AU     LIG 1297   5.454  38.802   7.211
    3AU     LIG 1298   5.140  38.469   7.235
    3AU     LIG 1299   4.841  38.092   7.209
    3AU       S 1300   6.886  39.399   7.966
    3AU     LIG 1301   6.448  39.605   8.013
    3AU     LIG 1302   6.081  39.930   8.078
    3AU     LIG 1303   5.686  40.231   8.106
    3AU     LIG 1304   5.223  40.366   8.190
    3AU     LIG 1305   4.810  40.144   8.273
    3AU    AUSL 1306   8.617  38.763   7.550
    3AU    AUSL 1307   8.567  38.924   7.944
    3AU     AUL 1308   8.896  38.990   7.894
    3AU       S 1309   8.904  38.466   7.581
    3AU     LIG 1310   9.175  38.089   7.594
    3AU     LIG 1311   9.619  37.915   7.573
    3AU     LIG 1312  10.079  37.763   7.567
    3AU     LIG 1313  10.541  37.662   7.618
    3AU     LIG 1314  10.905  37.491   7.820
    3AU       S 1315   8.815  38.511   8.087
    3AU     LIG 1316   9.033  38.121   8.292
    3AU     LIG 1317   9.178  37.790   8.627
    3AU     LIG 1318   9.398  37.672   9.044
    3AU     LIG 1319   9.677  37.744   9.437
    3AU     LIG 1320  10.115  37.853   9.609
    3AU    AUSL 1321   8.748  39.032   7.325
    3AU    AUSL 1322   8.454  38.684   7.222
    3AU     AUL 1323   8.786  38.752   7.171
    3AU       S 1324   9.183  38.657   7.445
    3AU     LIG 1325   9.557  38.380   7.351
    3AU     LIG 1326  10.000  38.195   7.300
    3AU     LIG 1327  10.424  37.975   7.223
    3AU     LIG 1328  10.821  37.978   6.973
    3AU     LIG 1329  11.237  38.166   7.020
    3AU       S 1330   8.709  38.449   6.781
    3AU     LIG 1331   8.815  38.000   6.715
    3AU     LIG 1332   8.945  37.546   6.623
    3AU     LIG 1333   9.256  37.252   6.449
    3AU     LIG 1334   9.375  36.878   6.199
    3AU     LIG 1335   9.507  36.425   6.178
    3AU    AUSL 1336   7.355  38.845   7.515
    3AU    AUSL 1337   7.421  39.036   7.055
    3AU     AUL 1338   7.179  38.784   7.238
    3AU       S 1339   7.161  38.871   6.735
    3AU     LIG 1340   6.762  38.685   6.570
    3AU     LIG 1341   6.523  38.285   6.507
    3AU     LIG 1342   6.240  37.969   6.292
    3AU     LIG 1343   5.942  37.765   5.976
    3AU     LIG 1344   5.683  37.472   5.710
    3AU       S 1345   6.779  38.808   7.534
    3AU     LIG 1346   6.469  38.607   7.799
    3AU     LIG 1347   6.010  38.553   7.732
    3AU     LIG 1348   5.599  38.411   7.531
    3AU     LIG 1349   5.248  38.104   7.582
    3AU     LIG 1350   4.977  37.745   7.566
    3AU    AUSL 1351   7.255  39.142   7.686
    3AU    AUSL 1352   7.502  38.732   7.819
    3AU     AUL 1353   7.178  38.837   7.828
    3AU       S 1354   7.212  38.472   8.165
    3AU     LIG 1355   6.842  38.202   8.055
    3AU     LIG 1356   6.521  37.868   8.102
    3AU     LIG 1357   6.279  37.622   8.415
    3AU     LIG 1358   6.108  37.309   8.721
    3AU     LIG 1359   6.057  36.867   8.888
    3AU       S 1360   6.768  39.057   7.621
    3AU     LIG 1361   6.352  39.124   7.789
    3AU     LIG 1362   5.883  39.123   7.780
    3AU     LIG 1363   5.492  38.875   7.733
    3AU     LIG 1364   5.147  38.567   7.762
    3AU     LIG 1365   4.805  38.231   7.821
    3AU    AUSL 1366   8.043  39.924   7.970
    3AU    AUSL 1367   7.599  39.909   7.798
    3AU     AUL 1368   7.781  40.025   8.182
    3AU       S 1369   7.370  40.230   7.946
    3AU     LIG 1370   7.290  40.594   8.241
    3AU     LIG 1371   7.145  40.778   8.652
    3AU     LIG 1372   6.956  41.089   8.950
    3AU     LIG 1373   6.636  41.451   8.902
    3AU     LIG 1374   6.299  41.816   8.898
    3AU       S 1375   8.044  40.441   8.048
    3AU     LIG 1376   8.194  40.667   8.402
    3AU     LIG 1377   8.147  41.078   8.583
    3AU     LIG 1378   8.052  41.492   8.771
    3AU     LIG 1379   7.997  41.764   9.141
    3AU     LIG 1380   8.161  42.123   9.411
    3AU    AUSL 1381   7.884  40.044   7.658
    3AU    AUSL 1382   8.190  40.067   7.358
    3AU     AUL 1383   7.799  40.300   7.412
    3AU       S 1384   7.869  40.482   7.876
    3AU     LIG 1385   7.845  40.936   8.122
    3AU     LIG 1386   7.845  41.395   8.315
    3AU     LIG 1387   7.918  41.882   8.316
    3AU     LIG 1388   7.802  42.347   8.457
    3AU     LIG 1389   7.891  42.799   8.632
    3AU       S 1390   8.249  40.508   7.236
    3AU     LIG 1391   8.545  40.757   7.000
    3AU     LIG 1392   8.578  41.140   6.741
    3AU     LIG 1393   8.595  41.612   6.672
    3AU     LIG 1394   8.775  42.069   6.665
    3AU     LIG 1395   8.824  42.552   6.606
    3AU    AUSL 1396   8.247  40.021   7.691
    3AU    AUSL 1397   8.334  39.740   8.074
    3AU     AUL 1398   8.392  40.082   8.010
    3AU       S 1399   8.660  39.922   8.422
    3AU     LIG 1400   8.953  39.943   8.796
    3AU     LIG 1401   9.240  40.221   9.052
    3AU     LIG 1402   9.471  40.487   9.380
    3AU     LIG 1403   9.501  40.667   9.827
    3AU     LIG 1404   9.413  41.035  10.133
    3AU       S 1405   8.198  40.484   7.753
    3AU     LIG 1406   8.333  40.895   7.958
    3AU     LIG 1407   8.338  41.330   8.172
    3AU     LIG 1408   8.425  41.780   8.348
    3AU     LIG 1409   8.611  42.243   8.405
    3AU     LIG 1410   8.790  42.703   8.416
    3AU    AUSL 1411   7.991  38.647   7.967
    3AU    AUSL 1412   8.368  38.656   7.813
    3AU     AUL 1413   8.163  38.614   8.257
    3AU       S 1414   8.126  38.147   8.041
    3AU     LIG 1415   8.042  37.753   8.243
    3AU     LIG 1416   7.745  37.417   8.288
    3AU     LIG 1417   7.728  36.961   8.329
    3AU     LIG 1418   7.788  36.613   8.642
    3AU     LIG 1419   7.832  36.359   9.050
    3AU       S 1420   8.590  38.361   7.938
    3AU     LIG 1421   8.759  37.949   7.891
    3AU     LIG 1422   8.933  37.611   8.184
    3AU     LIG 1423   9.104  37.270   8.483
    3AU     LIG 1424   9.327  36.997   8.813
    3AU     LIG 1425   9.608  36.643   8.947
    3AU    AUSL 1426   7.784  38.601   7.688
    3AU    AUSL 1427   7.713  38.825   8.096
    3AU     AUL 1428   7.692  38.459   8.007
    3AU       S 1429   7.945  38.037   7.812
    3AU     LIG 1430   7.788  37.605   7.790
    3AU     LIG 1431   7.619  37.159   7.853
    3AU     LIG 1432   7.345  36.772   7.991
    3AU     LIG 1433   7.084  36.353   8.039
    3AU     LIG 1434   7.175  35.971   8.287
    3AU       S 1435   7.392  38.566   8.416
    3AU     LIG 1436   6.978  38.292   8.563
    3AU     LIG 1437   6.723  37.902   8.579
    3AU     LIG 1438   6.508  37.608   8.881
    3AU     LIG 1439   6.280  37.353   9.215
    3AU     LIG 1440   6.133  37.239   9.656
    3AU    AUSL 1441   8.097  38.504   7.655
    3AU    AUSL 1442   7.796  38.534   7.344
    3AU     AUL 1443   7.624  38.366   7.616
    3AU       S 1444   7.862  38.065   7.289
    3AU     LIG 1445   7.586  37.704   7.315
    3AU     LIG 1446   7.513  37.284   7.128
    3AU     LIG 1447   7.574  36.837   6.974
    3AU     LIG 1448   7.623  36.368   6.882
    3AU     LIG 1449   7.579  35.913   6.730
    3AU       S 1450   8.193  38.130   7.773
    3AU     LIG 1451   8.313  37.681   7.820
    3AU     LIG 1452   8.136  37.270   7.978
    3AU     LIG 1453   8.170  36.807   8.067
    3AU     LIG 1454   8.355  36.370   8.087
    3AU     LIG 1455   8.432  36.010   8.326
    3AU    AUSL 1456   8.076  39.932   7.019
    3AU    AUSL 1457   8.439  39.816   7.272
    3AU     AUL 1458   8.420  40.061   7.098
    3AU       S 1459   8.161  40.378   6.822
    3AU     LIG 1460   8.425  40.607   6.525
    3AU     LIG 1461   8.369  41.003   6.289
    3AU     LIG 1462   8.428  41.231   5.879
    3AU     LIG 1463   8.279  41.472   5.503
    3AU     LIG 1464   8.112  41.888   5.392
    3AU       S 1465   8.880  40.055   6.900
    3AU     LIG 1466   9.162  40.255   6.594
    3AU     LIG 1467   9.477  40.485   6.358
    3AU     LIG 1468   9.639  40.762   6.032
    3AU     LIG 1469   9.814  41.194   6.048
    3AU     LIG 1470  10.115  41.472   5.856
    3AU    AUSL 1471   7.867  39.981   7.302
    3AU    AUSL 1472   7.771  39.769   6.942
    3AU     AUL 1473   7.750  40.119   7.003
    3AU       S 1474   8.068  40.514   7.045
    3AU     LIG 1475   8.096  40.918   6.793
    3AU     LIG 1476   8.109  41.383   6.765
    3AU     LIG 1477   7.835  41.767   6.741
    3AU     LIG 1478   7.486  42.062   6.663
    3AU     LIG 1479   7.339  42.407   6.382
    3AU       S 1480   7.350  40.028   6.690
    3AU     LIG 1481   7.316  40.232   6.252
    3AU     LIG 1482   7.249  40.470   5.841
    3AU     LIG 1483   7.219  40.724   5.439
    3AU     LIG 1484   7.027  41.029   5.135
    3AU     LIG 1485   6.816  41.106   4.717
    3AU    AUSL 1486   7.971  38.639   7.048
    3AU    AUSL 1487   7.533  38.733   7.219
    3AU     AUL 1488   7.661  38.476   6.997
    3AU       S 1489   7.218  38.593   6.781
    3AU     LIG 1490   6.908  38.280   6.867
    3AU     LIG 1491   6.699  37.884   6.803
    3AU     LIG 1492   6.470  37.586   6.548
    3AU     LIG 1493   6.097  37.427   6.321
    3AU     LIG 1494   5.627  37.366   6.226
    3AU       S 1495   7.954  38.059   7.038
    3AU     LIG 1496   7.866  37.617   6.891
    3AU     LIG 1497   7.782  37.204   6.679
    3AU     LIG 1498   7.783  36.781   6.470
    3AU     LIG 1499   7.895  36.591   6.038
    3AU     LIG 1500   7.920  36.343   5.630
    3AU    AUSL 1501   8.164  38.525   7.327
    3AU    AUSL 1502   8.258  38.802   6.928
    3AU     AUL 1503   8.266  38.451   7.003
    3AU       S 1504   8.141  38.055   7.299
    3AU     LIG 1505   8.084  37.585   7.357
    3AU     LIG 1506   8.013  37.154   7.143
    3AU     LIG 1507   8.077  36.730   6.905
    3AU     LIG 1508   8.157  36.260   6.832
    3AU     LIG 1509   8.499  35.937   6.719
    3AU       S 1510   8.491  38.610   6.586
    3AU     LIG 1511   8.497  38.234   6.344
    3AU     LIG 1512   8.683  37.828   6.246
    3AU     LIG 1513   8.965  37.504   6.098
    3AU     LIG 1514   9.226  37.296   5.778
    3AU     LIG 1515   9.281  37.363   5.304
    4AU     AUC 1516  40.227  14.072   7.511
    4AU     AUC 1517  40.499  14.056   7.350
    4AU     AUC 1518  40.495  14.055   7.677
    4AU     AUC 1519  39.963  14.086   7.340
    4AU     AUC 1520  39.956  14.087   7.674
    4AU     AUC 1521  40.077  14.347   7.505
    4AU     AUC 1522  40.410  14.329   7.513
    4AU     AUC 1523  40.041  13.814   7.509
    4AU     AUC 1524  40.372  13.793   7.511
    4AU     AUC 1525  40.212  13.909   7.780
    4AU     AUC 1526  40.237  14.237   7.778
    4AU     AUC 1527  40.223  13.907   7.244
    4AU     AUC 1528  40.244  14.238   7.240
    4AU     AUC 1529  40.766  14.045   7.202
    4AU     AUC 1530  40.777  14.031   7.511
    4AU     AUC 1531  40.756  14.032   7.833
    4AU     AUC 1532  39.715  14.090   7.165
    4AU     AUC 1533  39.681  14.095   7.501
    4AU     AUC 1534  39.696  14.105   7.832
    4AU     AUC 1535  39.932  14.613   7.500
    4AU     AUC 1536  40.261  14.616   7.507
    4AU     AUC 1537  40.576  14.580   7.520
    4AU     AUC 1538  39.863  13.566   7.508
    4AU     AUC 1539  40.185  13.526   7.502
    4AU     AUC 1540  40.507  13.517   7.518
    4AU     AUC 1541  40.205  13.755   8.042
    4AU     AUC 1542  40.224  14.075   8.062
    4AU     AUC 1543  40.241  14.399   8.025
    4AU     AUC 1544  40.232  13.746   6.990
    4AU     AUC 1545  40.263  14.079   6.967
    4AU     AUC 1546  40.266  14.403   6.975
    4AU     AUC 1547  40.492  13.892   7.952
    4AU     AUC 1548  40.521  14.222   7.958
    4AU     AUC 1549  40.504  13.893   7.079
    4AU     AUC 1550  40.528  14.247   7.079
    4AU     AUC 1551  39.938  13.922   7.966
    4AU     AUC 1552  39.954  14.252   7.949
    4AU     AUC 1553  39.958  13.917   7.071
    4AU     AUC 1554  39.975  14.248   7.054
    4AU     AUC 1555  40.687  14.309   7.355
    4AU     AUC 1556  40.695  14.314   7.686
    4AU     AUC 1557  39.805  14.369   7.322
    4AU     AUC 1558  39.799  14.376   7.671
    4AU     AUC 1559  40.657  13.768   7.353
    4AU     AUC 1560  40.635  13.759   7.683
    4AU     AUC 1561  39.762  13.823   7.340
    4AU     AUC 1562  39.764  13.820   7.684
    4AU     AUC 1563  40.086  14.527   7.773
    4AU     AUC 1564  40.430  14.505   7.783
    4AU     AUC 1565  40.023  13.645   7.790
    4AU     AUC 1566  40.349  13.617   7.776
    4AU     AUC 1567  40.085  14.514   7.220
    4AU     AUC 1568  40.412  14.515   7.234
    4AU     AUC 1569  40.032  13.634   7.231
    4AU     AUC 1570  40.367  13.618   7.236
    4AU    AUSL 1571  40.729  14.002   8.133
    4AU    AUSL 1572  40.465  13.637   8.074
    4AU     AUL 1573  40.693  13.660   8.330
    4AU       S 1574  40.802  13.165   8.197
    4AU     LIG 1575  40.765  12.734   8.346
    4AU     LIG 1576  40.939  12.473   8.703
    4AU     LIG 1577  41.205  12.349   9.087
    4AU     LIG 1578  41.249  12.238   9.563
    4AU     LIG 1579  41.346  12.140  10.031
    4AU       S 1580  41.074  13.988   8.479
    4AU     LIG 1581  41.218  14.094   8.920
    4AU     LIG 1582  41.292  13.849   9.329
    4AU     LIG 1583  41.531  13.631   9.683
    4AU     LIG 1584  41.836  13.571  10.051
    4AU     LIG 1585  42.097  13.661  10.431
    4AU    AUSL 1586  40.408  13.919   8.273
    4AU    AUSL 1587  40.058  14.239   8.276
    4AU     AUL 1588  40.307  14.120   8.559
    4AU       S 1589  40.767  13.938   8.736
    4AU     LIG 1590  40.850  13.675   9.114
    4AU     LIG 1591  40.797  13.388   9.495
    4AU     LIG 1592  40.738  13.212   9.939
    4AU     LIG 1593  40.812  13.304  10.394
    4AU     LIG 1594  40.963  13.446  10.831
    4AU       S 1595  39.828  14.155   8.754
    4AU     LIG 1596  39.623  14.058   9.180
    4AU     LIG 1597  39.588  13.838   9.606
    4AU     LIG 1598  39.431  13.856  10.051
    4AU     LIG 1599  39.384  14.145  10.427
    4AU     LIG 1600  39.245  14.497  10.728
    4AU    AUSL 1601  40.384  14.288   8.232
    4AU    AUSL 1602  40.830  14.308   7.989
    4AU     AUL 1603  40.667  14.256   8.348
    4AU       S 1604  40.388  14.645   8.573
    4AU     LIG 1605  40.679  14.579   8.936
    4AU     LIG 1606  40.935  14.744   9.306
    4AU     LIG 1607  40.915  14.869   9.777
    4AU     LIG 1608  40.894  14.811  10.260
    4AU     LIG 1609  41.099  14.702  10.676
    4AU       S 1610  41.115  14.494   8.303
    4AU     LIG 1611  41.490  14.429   8.542
    4AU     LIG 1612  41.800  14.704   8.753
    4AU     LIG 1613  42.001  14.985   9.067
    4AU     LIG 1614  42.264  15.130   9.430
    4AU     LIG 1615  42.593  15.043   9.776
    4AU    AUSL 1616  40.701  14.101   6.929
    4AU    AUSL 1617  40.569  14.519   6.925
    4AU     AUL 1618  40.791  14.335   6.688
    4AU       S 1619  40.844  13.942   6.358
    4AU     LIG 1620  41.125  13.754   6.031
    4AU     LIG 1621  41.222  13.638   5.580
    4AU     LIG 1622  41.365  13.653   5.127
    4AU     LIG 1623  41.750  13.633   4.832
    4AU     LIG 1624  42.171  13.631   4.588
    4AU       S 1625  40.934  14.814   6.674
    4AU     LIG 1626  41.022  15.039   6.288
    4AU     LIG 1627  41.373  15.112   5.997
    4AU     LIG 1628  41.551  15.238   5.585
    4AU     LIG 1629  41.732  15.516   5.264
    4AU     LIG 1630  42.014  15.801   5.036
    4AU    AUSL 1631  40.479  13.891   6.772
    4AU    AUSL 1632  40.770  13.765   7.037
    4AU     AUL 1633  40.959  13.968   6.840
    4AU       S 1634  40.931  13.499   6.633
    4AU     LIG 1635  41.144  13.220   6.289
    4AU     LIG 1636  41.442  12.843   6.228
    4AU     LIG 1637  41.755  12.549   6.016
    4AU     LIG 1638  42.109  12.470   5.734
    4AU     LIG 1639  42.413  12.643   5.424
    4AU       S 1640  40.646  13.812   6.374
    4AU     LIG 1641  40.719  13.460   6.098
    4AU     LIG 1642  40.759  13.425   5.640
    4AU     LIG 1643  40.892  13.430   5.183
    4AU     LIG 1644  40.950  13.196   4.775
    4AU     LIG 1645  40.860  13.141   4.314
    4AU    AUSL 1646  40.430  14.248   6.743
    4AU    AUSL 1647  40.114  13.911   6.801
    4AU     AUL 1648  40.224  14.047   6.508
    4AU       S 1649  39.724  13.914   6.343
    4AU     LIG 1650  39.680  13.527   6.084
    4AU     LIG 1651  39.620  13.394   5.644
    4AU     LIG 1652  39.385  13.328   5.250
    4AU     LIG 1653  39.277  13.379   4.795
    4AU     LIG 1654  39.233  13.213   4.344
    4AU       S 1655  40.643  14.134   6.250
    4AU     LIG 1656  40.673  13.911   5.841
    4AU     LIG 1657  40.816  13.896   5.397
    4AU     LIG 1658  40.948  13.961   4.951
    4AU     LIG 1659  41.005  14.299   4.605
    4AU     LIG 1660  41.077  14.617   4.240
    4AU    AUSL 1661  39.748  14.144   8.155
    4AU    AUSL 1662  39.960  14.510   8.055
    4AU     AUL 1663  39.867  14.497   8.382
    4AU       S 1664  39.561  14.152   8.626
    4AU     LIG 1665  39.365  13.775   8.826
    4AU     LIG 1666  39.263  13.638   9.267
    4AU     LIG 1667  39.082  13.643   9.719
    4AU     LIG 1668  38.770  13.679  10.085
    4AU     LIG 1669  38.365  13.589  10.344
    4AU       S 1670  39.493  14.815   8.223
    4AU     LIG 1671  39.497  15.026   8.652
    4AU     LIG 1672  39.447  15.256   9.062
    4AU     LIG 1673  39.237  15.430   9.443
    4AU     LIG 1674  39.210  15.626   9.878
    4AU     LIG 1675  39.041  15.912  10.216
    4AU    AUSL 1676  40.051  13.886   8.272
    4AU    AUSL 1677  39.639  13.832   7.975
    4AU     AUL 1678  39.701  13.828   8.281
    4AU       S 1679  39.331  13.501   8.302
    4AU     LIG 1680  38.901  13.420   8.200
    4AU     LIG 1681  38.616  13.084   8.315
    4AU     LIG 1682  38.381  12.768   8.581
    4AU     LIG 1683  38.183  12.512   8.922
    4AU     LIG 1684  38.158  12.489   9.384
    4AU       S 1685  39.869  13.891   8.739
    4AU     LIG 1686  39.776  13.581   9.074
    4AU     LIG 1687  39.656  13.345   9.444
    4AU     LIG 1688  39.488  13.366   9.862
    4AU     LIG 1689  39.283  13.387  10.271
    4AU     LIG 1690  39.361  13.169  10.683
    4AU    AUSL 1691  39.803  14.052   6.839
    4AU    AUSL 1692  39.921  13.647   6.936
    4AU     AUL 1693  40.053  13.681   6.620
    4AU       S 1694  39.543  14.044   6.496
    4AU     LIG 1695  39.253  13.768   6.225
    4AU     LIG 1696  39.178  13.623   5.773
    4AU     LIG 1697  38.992  13.657   5.313
    4AU     LIG 1698  38.655  13.674   4.972
    4AU     LIG 1699  38.375  13.897   4.641
    4AU       S 1700  39.558  13.522   6.603
    4AU     LIG 1701  39.293  13.240   6.305
    4AU     LIG 1702  39.027  12.838   6.251
    4AU     LIG 1703  38.831  12.553   5.929
    4AU     LIG 1704  38.832  12.361   5.487
    4AU     LIG 1705  38.850  12.065   5.106
    4AU    AUSL 1706  40.086  14.262   6.770
    4AU    AUSL 1707  39.684  14.366   6.995
    4AU     AUL 1708  39.857  14.421   6.645
    4AU       S 1709  39.369  14.551   6.702
    4AU     LIG 1710  39.093  14.757   6.384
    4AU     LIG 1711  39.039  14.987   5.960
    4AU     LIG 1712  38.852  15.126   5.529
    4AU     LIG 1713  38.490  15.308   5.283
    4AU     LIG 1714  38.064  15.515   5.229
    4AU       S 1715  39.784  14.135   6.252
    4AU     LIG 1716  39.570  13.967   5.848
    4AU     LIG 1717  39.478  13.839   5.395
    4AU     LIG 1718  39.384  13.985   4.946
    4AU     LIG 1719  39.327  14.358   4.617
    4AU     LIG 1720  39.192  14.656   4.247
    4AU    AUSL 1721  40.894  14.469   7.491
    4AU    AUSL 1722  40.858  14.378   7.113
    4AU     AUL 1723  40.933  14.784   7.376
    4AU       S 1724  41.160  14.600   6.902
    4AU     LIG 1725  41.550  14.589   6.689
    4AU     LIG 1726  41.683  14.775   6.276
    4AU     LIG 1727  41.886  15.014   5.921
    4AU     LIG 1728  42.214  15.163   5.621
    4AU     LIG 1729  42.667  15.083   5.486
    4AU       S 1730  41.393  14.558   7.340
    4AU     LIG 1731  41.868  14.720   7.361
    4AU     LIG 1732  42.353  14.754   7.462
    4AU     LIG 1733  42.814  14.906   7.436
    4AU     LIG 1734  43.122  15.301   7.402
    4AU     LIG 1735  43.462  15.614   7.238
    4AU    AUSL 1736  41.004  14.153   7.338
    4AU    AUSL 1737  40.931  13.858   7.665
    4AU     AUL 1738  41.256  13.944   7.578
    4AU       S 1739  41.381  14.283   7.208
    4AU     LIG 1740  41.795  14.303   7.075
    4AU     LIG 1741  42.215  14.316   7.230
    4AU     LIG 1742  42.677  14.381   7.255
    4AU     LIG 1743  43.122  14.515   7.247
    4AU     LIG 1744  43.557  14.648   7.112
    4AU       S 1745  41.346  13.424   7.661
    4AU     LIG 1746  41.741  13.248   7.832
    4AU     LIG 1747  42.142  13.007   7.726
    4AU     LIG 1748  42.620  12.988   7.659
    4AU     LIG 1749  42.993  13.210   7.883
    4AU     LIG 1750  43.428  13.429   7.917
    4AU    AUSL 1751  41.000  14.199   7.697
    4AU    AUSL 1752  40.746  14.610   7.785
    4AU     AUL 1753  41.086  14.533   7.787
    4AU       S 1754  41.075  14.797   8.213
    4AU     LIG 1755  41.438  14.956   8.472
    4AU     LIG 1756  41.736  15.247   8.709
    4AU     LIG 1757  41.949  15.637   8.909
    4AU     LIG 1758  42.078  16.119   8.944
    4AU     LIG 1759  42.385  16.504   8.984
    4AU       S 1760  41.486  14.383   7.512
    4AU     LIG 1761  41.896  14.325   7.682
    4AU     LIG 1762  42.345  14.309   7.725
    4AU     LIG 1763  42.756  14.478   7.749
    4AU     LIG 1764  43.107  14.352   7.998
    4AU     LIG 1765  43.468  14.564   8.198
    4AU    AUSL 1766  39.634  14.587   7.514
    4AU    AUSL 1767  39.637  14.399   7.939
    4AU     AUL 1768  39.331  14.591   7.720
    4AU       S 1769  39.355  14.536   8.243
    4AU     LIG 1770  39.059  14.804   8.505
    4AU     LIG 1771  39.003  15.037   8.915
    4AU     LIG 1772  38.801  15.162   9.333
    4AU     LIG 1773  38.471  15.234   9.683
    4AU     LIG 1774  38.046  15.288   9.912
    4AU       S 1775  39.458  15.037   7.476
    4AU     LIG 1776  39.029  15.292   7.512
    4AU     LIG 1777  38.606  15.569   7.537
    4AU     LIG 1778  38.193  15.857   7.598
    4AU     LIG 1779  37.809  16.046   7.827
    4AU     LIG 1780  37.378  16.231   7.781
    4AU    AUSL 1781  39.531  14.262   7.284
    4AU    AUSL 1782  39.770  14.663   7.206
    4AU     AUL 1783  39.404  14.563   7.225
    4AU       S 1784  39.175  14.150   6.922
    4AU     LIG 1785  38.839  14.494   6.810
    4AU     LIG 1786  38.370  14.662   6.867
    4AU     LIG 1787  37.900  14.819   6.898
    4AU     LIG 1788  37.439  14.999   6.962
    4AU     LIG 1789  36.995  15.104   7.004
    4AU       S 1790  39.470  14.995   6.963
    4AU     LIG 1791  39.223  15.209   6.610
    4AU     LIG 1792  39.185  15.435   6.187
    4AU     LIG 1793  39.027  15.827   5.938
    4AU     LIG 1794  38.824  16.282   5.901
    4AU     LIG 1795  38.590  16.705   5.964
    4AU    AUSL 1796  39.492  14.267   7.661
    4AU    AUSL 1797  39.443  13.941   7.339
    4AU     AUL 1798  39.213  14.289   7.432
    4AU       S 1799  38.959  13.836   7.408
    4AU     LIG 1800  38.497  13.636   7.410
    4AU     LIG 1801  38.081  13.435   7.520
    4AU     LIG 1802  37.642  13.384   7.387
    4AU     LIG 1803  37.284  13.678   7.354
    4AU     LIG 1804  36.891  13.686   7.114
    4AU       S 1805  39.094  14.201   7.971
    4AU     LIG 1806  38.645  14.422   8.017
    4AU     LIG 1807  38.173  14.603   8.021
    4AU     LIG 1808  37.877  14.971   8.140
    4AU     LIG 1809  37.395  15.032   8.151
    4AU     LIG 1810  36.933  15.134   8.075
    4AU    AUSL 1811  40.831  13.549   7.563
    4AU    AUSL 1812  40.778  13.715   7.943
    4AU     AUL 1813  41.104  13.778   7.905
    4AU       S 1814  41.154  13.270   7.607
    4AU     LIG 1815  41.464  12.909   7.568
    4AU     LIG 1816  41.878  12.693   7.416
    4AU     LIG 1817  42.342  12.562   7.469
    4AU     LIG 1818  42.789  12.442   7.549
    4AU     LIG 1819  43.173  12.241   7.757
    4AU       S 1820  41.027  13.305   8.094
    4AU     LIG 1821  41.243  12.981   8.374
    4AU     LIG 1822  41.408  12.689   8.705
    4AU     LIG 1823  41.706  12.425   8.954
    4AU     LIG 1824  42.069  12.461   9.259
    4AU     LIG 1825  42.394  12.665   9.547
    4AU    AUSL 1826  40.971  13.807   7.323
    4AU    AUSL 1827  40.650  13.499   7.245
    4AU     AUL 1828  40.967  13.485   7.185
    4AU       S 1829  41.411  13.478   7.407
    4AU     LIG 1830  41.825  13.209   7.327
    4AU     LIG 1831  42.273  13.006   7.228
    4AU     LIG 1832  42.727  12.799   7.176
    4AU     LIG 1833  43.179  12.899   7.030
    4AU     LIG 1834  43.644  13.010   7.120
    4AU       S 1835  40.895  13.275   6.730
    4AU     LIG 1836  41.079  12.859   6.657
    4AU     LIG 1837  41.284  12.457   6.535
    4AU     LIG 1838  41.636  12.192   6.372
    4AU     LIG 1839  41.916  11.815   6.386
    4AU     LIG 1840  42.105  11.510   6.087
    4AU    AUSL 1841  39.566  13.639   7.513
    4AU    AUSL 1842  39.627  13.833   7.057
    4AU     AUL 1843  39.377  13.585   7.241
    4AU       S 1844  39.357  13.678   6.740
    4AU     LIG 1845  38.947  13.516   6.568
    4AU     LIG 1846  38.669  13.160   6.417
    4AU     LIG 1847  38.453  12.755   6.245
    4AU     LIG 1848  38.035  12.498   6.153
    4AU     LIG 1849  37.593  12.470   5.921
    4AU       S 1850  38.978  13.597   7.549
    4AU     LIG 1851  38.686  13.261   7.738
    4AU     LIG 1852  38.310  12.974   7.622
    4AU     LIG 1853  37.843  12.898   7.491
    4AU     LIG 1854  37.392  12.869   7.646
    4AU     LIG 1855  37.143  12.480   7.789
    4AU    AUSL 1856  39.464  13.932   7.691
    4AU    AUSL 1857  39.720  13.516   7.810
    4AU     AUL 1858  39.396  13.614   7.815
    4AU       S 1859  39.419  13.251   8.153
    4AU     LIG 1860  39.055  12.965   8.028
    4AU     LIG 1861  38.683  12.680   8.012
    4AU     LIG 1862  38.450  12.365   8.276
    4AU     LIG 1863  38.268  12.097   8.613
    4AU     LIG 1864  38.196  11.753   8.919
    4AU       S 1865  38.980  13.851   7.640
    4AU     LIG 1866  38.558  13.957   7.797
    4AU     LIG 1867  38.080  13.909   7.747
    4AU     LIG 1868  37.664  13.677   7.799
    4AU     LIG 1869  37.286  13.378   7.776
    4AU     LIG 1870  36.822  13.273   7.721
    4AU    AUSL 1871  40.263  14.712   7.968
    4AU    AUSL 1872  39.816  14.697   7.799
    4AU     AUL 1873  39.999  14.818   8.175
    4AU       S 1874  39.569  15.013   7.963
    4AU     LIG 1875  39.244  15.245   8.246
    4AU     LIG 1876  39.182  15.454   8.656
    4AU     LIG 1877  39.118  15.861   8.881
    4AU     LIG 1878  38.854  16.241   8.976
    4AU     LIG 1879  38.670  16.677   8.950
    4AU       S 1880  40.280  15.228   8.058
    4AU     LIG 1881  40.490  15.483   8.382
    4AU     LIG 1882  40.488  15.882   8.614
    4AU     LIG 1883  40.506  16.117   9.022
    4AU     LIG 1884  40.501  16.434   9.371
    4AU     LIG 1885  40.629  16.798   9.635
    4AU    AUSL 1886  40.101  14.833   7.656
    4AU    AUSL 1887  40.412  14.854   7.351
    4AU     AUL 1888  40.022  15.089   7.404
    4AU       S 1889  40.114  15.267   7.865
    4AU     LIG 1890  40.219  15.735   8.025
    4AU     LIG 1891  40.237  16.167   8.240
    4AU     LIG 1892  40.041  16.610   8.284
    4AU     LIG 1893  39.790  17.027   8.243
    4AU     LIG 1894  39.595  17.430   8.315
    4AU       S 1895  40.478  15.293   7.224
    4AU     LIG 1896  40.770  15.592   7.011
    4AU     LIG 1897  40.820  16.028   6.808
    4AU     LIG 1898  41.058  16.467   6.764
    4AU     LIG 1899  41.218  16.913   6.606
    4AU     LIG 1900  41.217  17.400   6.506
    4AU    AUSL 1901  40.464  14.806   7.685
    4AU    AUSL 1902  40.553  14.529   8.070
    4AU     AUL 1903  40.618  14.866   8.000
    4AU       S 1904  40.877  14.712   8.419
    4AU     LIG 1905  41.151  14.700   8.804
    4AU     LIG 1906  41.453  14.956   9.039
    4AU     LIG 1907  41.659  15.334   9.232
    4AU     LIG 1908  41.663  15.661   9.574
    4AU     LIG 1909  41.490  15.940   9.925
    4AU       S 1910  40.427  15.267   7.743
    4AU     LIG 1911  40.701  15.588   7.925
    4AU     LIG 1912  40.726  15.995   8.162
    4AU     LIG 1913  40.874  16.463   8.218
    4AU     LIG 1914  41.113  16.903   8.204
    4AU     LIG 1915  41.431  17.264   8.358
    4AU    AUSL 1916  40.205  13.432   7.963
    4AU    AUSL 1917  40.580  13.444   7.818
    4AU     AUL 1918  40.370  13.411   8.261
    4AU       S 1919  40.354  12.942   8.055
    4AU     LIG 1920  40.246  12.608   8.356
    4AU     LIG 1921  39.944  12.273   8.440
    4AU     LIG 1922  39.826  11.829   8.478
    4AU     LIG 1923  39.875  11.401   8.661
    4AU     LIG 1924  39.938  11.131   9.056
    4AU       S 1925  40.807  13.148   7.939
    4AU     LIG 1926  41.070  12.782   7.931
    4AU     LIG 1927  41.220  12.469   8.260
    4AU     LIG 1928  41.370  12.177   8.614
    4AU     LIG 1929  41.560  11.795   8.833
    4AU     LIG 1930  41.946  11.561   8.965
    4AU    AUSL 1931  39.998  13.371   7.682
    4AU    AUSL 1932  39.926  13.608   8.092
    4AU     AUL 1933  39.902  13.245   8.001
    4AU       S 1934  40.193  12.835   7.884
    4AU     LIG 1935  39.965  12.450   7.940
    4AU     LIG 1936  39.730  12.056   8.012
    4AU     LIG 1937  39.596  11.619   8.057
    4AU     LIG 1938  39.617  11.204   8.242
    4AU     LIG 1939  39.330  10.855   8.377
    4AU       S 1940  39.589  13.344   8.403
    4AU     LIG 1941  39.158  13.075   8.532
    4AU     LIG 1942  38.890  12.681   8.498
    4AU     LIG 1943  38.665  12.369   8.775
    4AU     LIG 1944  38.466  12.137   9.144
    4AU     LIG 1945  38.617  12.052   9.581
    4AU    AUSL 1946  40.320  13.283   7.655
    4AU    AUSL 1947  39.996  13.327   7.328
    4AU     AUL 1948  39.895  13.099   7.588
    4AU       S 1949  40.044  12.856   7.163
    4AU     LIG 1950  39.731  12.541   7.034
    4AU     LIG 1951  39.663  12.087   7.106
    4AU     LIG 1952  39.638  11.629   7.005
    4AU     LIG 1953  39.553  11.193   6.850
    4AU     LIG 1954  39.369  10.823   6.629
    4AU       S 1955  40.426  12.899   7.746
    4AU     LIG 1956  40.497  12.441   7.940
    4AU     LIG 1957  40.248  12.037   8.092
    4AU     LIG 1958  40.104  11.570   8.140
    4AU     LIG 1959  40.132  11.125   8.306
    4AU     LIG 1960  40.253  10.705   8.490
    4AU    AUSL 1961  40.293  14.716   7.015
    4AU    AUSL 1962  40.657  14.604   7.266
    4AU     AUL 1963  40.638  14.844   7.079
    4AU       S 1964  40.374  15.167   6.814
    4AU     LIG 1965  40.679  15.378   6.550
    4AU     LIG 1966  40.660  15.804   6.364
    4AU     LIG 1967  40.518  16.104   6.036
    4AU     LIG 1968  40.471  16.433   5.708
    4AU     LIG 1969  40.272  16.777   5.463
    4AU       S 1970  41.114  14.837   6.909
    4AU     LIG 1971  41.408  15.077   6.618
    4AU     LIG 1972  41.732  15.289   6.337
    4AU     LIG 1973  42.098  15.472   6.084
    4AU     LIG 1974  42.426  15.830   6.076
    4AU     LIG 1975  42.575  16.285   6.082
    4AU    AUSL 1976  40.088  14.768   7.301
    4AU    AUSL 1977  39.985  14.557   6.943
    4AU     AUL 1978  39.970  14.907   7.004
    4AU       S 1979  40.292  15.304   7.039
    4AU     LIG 1980  40.338  15.711   6.773
    4AU     LIG 1981  40.322  16.173   6.628
    4AU     LIG 1982  40.037  16.591   6.678
    4AU     LIG 1983  39.754  16.992   6.810
    4AU     LIG 1984  39.801  17.476   6.941
    4AU       S 1985  39.561  14.826   6.699
    4AU     LIG 1986  39.526  15.000   6.250
    4AU     LIG 1987  39.490  15.202   5.826
    4AU     LIG 1988  39.278  15.405   5.460
    4AU     LIG 1989  38.968  15.674   5.228
    4AU     LIG 1990  38.788  15.820   4.799
    4AU    AUSL 1991  40.190  13.421   7.032
    4AU    AUSL 1992  39.732  13.529   7.216
    4AU     AUL 1993  39.852  13.292   6.982
    4AU       S 1994  39.396  13.386   6.784
    4AU     LIG 1995  39.069  13.036   6.739
    4AU     LIG 1996  38.698  12.722   6.702
    4AU     LIG 1997  38.290  12.443   6.633
    4AU     LIG 1998  38.150  12.048   6.408
    4AU     LIG 1999  38.234  11.709   6.092
    4AU       S 2000  40.195  12.920   6.921
    4AU     LIG 2001  40.080  12.588   6.651
    4AU     LIG 2002  39.899  12.171   6.659
    4AU     LIG 2003  39.883  11.712   6.555
    4AU     LIG 2004  39.943  11.396   6.211
    4AU     LIG 2005  40.012  11.321   5.738
    4AU    AUSL 2006  40.356  13.318   7.326
    4AU    AUSL 2007  40.475  13.586   6.937
    4AU     AUL 2008  40.548  13.237   7.078
    4AU       S 2009  40.292  12.834   7.253
    4AU     LIG 2010  40.197  12.348   7.100
    4AU     LIG 2011  40.119  11.852   7.003
    4AU     LIG 2012  40.077  11.352   6.910
    4AU     LIG 2013  40.318  10.907   6.904
    4AU     LIG 2014  40.763  10.693   6.796
    4AU       S 2015  40.632  13.382   6.596
    4AU     LIG 2016  40.672  13.000   6.353
    4AU     LIG 2017  40.955  12.684   6.182
    4AU     LIG 2018  41.272  12.377   6.019
    4AU     LIG 2019  41.530  12.233   5.649
    4AU     LIG 2020  41.526  12.175   5.165
    5AU     AUC 2021  19.026  14.791   7.511
    5AU     AUC 2022  19.298  14.771   7.349
    5AU     AUC 2023  19.293  14.771   7.678
    5AU     AUC 2024  18.763  14.806   7.339
    5AU     AUC 2025  18.755  14.810   7.673
    5AU     AUC 2026  18.880  15.068   7.503
    5AU     AUC 2027  19.212  15.045   7.513
    5AU     AUC 2028  18.838  14.535   7.510
    5AU     AUC 2029  19.169  14.510   7.510
    5AU     AUC 2030  19.008  14.630   7.781
    5AU     AUC 2031  19.037  14.957   7.777
    5AU     AUC 2032  19.022  14.624   7.244
    5AU     AUC 2033  19.046  14.955   7.240
    5AU     AUC 2034  19.564  14.761   7.197
    5AU     AUC 2035  19.574  14.745   7.512
    5AU     AUC 2036  19.552  14.746   7.837
    5AU     AUC 2037  18.516  14.811   7.163
    5AU     AUC 2038  18.481  14.820   7.498
    5AU     AUC 2039  18.494  14.833   7.829
    5AU     AUC 2040  18.739  15.336   7.498
    5AU     AUC 2041  19.068  15.336   7.505
    5AU     AUC 2042  19.382  15.294   7.520
    5AU     AUC 2043  18.657  14.292   7.510
    5AU     AUC 2044  18.982  14.248   7.502
    5AU     AUC 2045  19.303  14.233   7.516
    5AU     AUC 2046  18.996  14.476   8.043
    5AU     AUC 2047  19.021  14.795   8.062
    5AU     AUC 2048  19.043  15.119   8.025
    5AU     AUC 2049  19.029  14.462   6.991
    5AU     AUC 2050  19.061  14.793   6.969
    5AU     AUC 2051  19.068  15.119   6.977
    5AU     AUC 2052  19.285  14.609   7.954
    5AU     AUC 2053  19.320  14.938   7.959
    5AU     AUC 2054  19.303  14.612   7.075
    5AU     AUC 2055  19.331  14.958   7.077
    5AU     AUC 2056  18.732  14.648   7.965
    5AU     AUC 2057  18.755  14.976   7.947
    5AU     AUC 2058  18.757  14.633   7.071
    5AU     AUC 2059  18.777  14.968   7.055
    5AU     AUC 2060  19.488  15.022   7.356
    5AU     AUC 2061  19.496  15.026   7.688
    5AU     AUC 2062  18.609  15.092   7.320
    5AU     AUC 2063  18.602  15.101   7.668
    5AU     AUC 2064  19.452  14.479   7.349
    5AU     AUC 2065  19.429  14.474   7.682
    5AU     AUC 2066  18.560  14.544   7.339
    5AU     AUC 2067  18.558  14.546   7.682
    5AU     AUC 2068  18.890  15.249   7.771
    5AU     AUC 2069  19.233  15.222   7.783
    5AU     AUC 2070  18.814  14.371   7.793
    5AU     AUC 2071  19.140  14.338   7.777
    5AU     AUC 2072  18.891  15.234   7.219
    5AU     AUC 2073  19.218  15.231   7.234
    5AU     AUC 2074  18.829  14.353   7.234
    5AU     AUC 2075  19.168  14.332   7.235
    5AU    AUSL 2076  19.520  14.715   8.139
    5AU    AUSL 2077  19.256  14.355   8.072
    5AU     AUL 2078  19.481  14.367   8.326
    5AU       S 2079  19.591  13.873   8.186
    5AU     LIG 2080  19.552  13.439   8.303
    5AU     LIG 2081  19.731  13.177   8.646
    5AU     LIG 2082  19.994  13.068   9.020
    5AU     LIG 2083  20.218  13.049   9.416
    5AU     LIG 2084  20.141  12.980   9.875
    5AU       S 2085  19.854  14.678   8.505
    5AU     LIG 2086  19.974  14.669   8.976
    5AU     LIG 2087  19.926  14.524   9.425
    5AU     LIG 2088  20.158  14.498   9.827
    5AU     LIG 2089  20.475  14.669  10.136
    5AU     LIG 2090  20.764  14.800  10.490
    5AU    AUSL 2091  19.197  14.632   8.278
    5AU    AUSL 2092  18.859  14.963   8.273
    5AU     AUL 2093  19.099  14.850   8.560
    5AU       S 2094  19.530  14.631   8.742
    5AU     LIG 2095  19.573  14.326   9.087
    5AU     LIG 2096  19.565  14.152   9.519
    5AU     LIG 2097  19.711  14.244   9.941
    5AU     LIG 2098  19.721  14.251  10.403
    5AU     LIG 2099  19.627  14.108  10.823
    5AU       S 2100  18.617  14.873   8.745
    5AU     LIG 2101  18.390  14.792   9.150
    5AU     LIG 2102  18.346  14.628   9.582
    5AU     LIG 2103  18.185  14.769   9.993
    5AU     LIG 2104  18.233  15.119  10.324
    5AU     LIG 2105  18.111  15.438  10.664
    5AU    AUSL 2106  19.188  15.002   8.232
    5AU    AUSL 2107  19.630  15.019   7.993
    5AU     AUL 2108  19.472  14.972   8.358
    5AU       S 2109  19.202  15.370   8.575
    5AU     LIG 2110  19.519  15.413   8.940
    5AU     LIG 2111  19.722  15.478   9.383
    5AU     LIG 2112  19.680  15.483   9.883
    5AU     LIG 2113  19.610  15.570  10.363
    5AU     LIG 2114  19.805  15.581  10.806
    5AU       S 2115  19.923  15.200   8.300
    5AU     LIG 2116  20.342  15.345   8.397
    5AU     LIG 2117  20.540  15.609   8.713
    5AU     LIG 2118  20.720  15.774   9.109
    5AU     LIG 2119  20.922  15.808   9.538
    5AU     LIG 2120  21.315  15.944   9.764
    5AU    AUSL 2121  19.513  14.831   6.902
    5AU    AUSL 2122  19.374  15.227   6.929
    5AU     AUL 2123  19.525  15.109   6.626
    5AU       S 2124  19.659  14.670   6.376
    5AU     LIG 2125  19.921  14.436   6.084
    5AU     LIG 2126  19.963  14.338   5.623
    5AU     LIG 2127  20.186  14.326   5.203
    5AU     LIG 2128  20.618  14.290   4.992
    5AU     LIG 2129  20.954  14.486   4.729
    5AU       S 2130  19.808  15.509   6.700
    5AU     LIG 2131  19.972  15.697   6.286
    5AU     LIG 2132  20.241  15.820   5.899
    5AU     LIG 2133  20.507  15.891   5.489
    5AU     LIG 2134  20.582  16.234   5.154
    5AU     LIG 2135  20.535  16.700   5.026
    5AU    AUSL 2136  19.281  14.607   6.775
    5AU    AUSL 2137  19.557  14.484   7.038
    5AU     AUL 2138  19.767  14.669   6.861
    5AU       S 2139  19.734  14.211   6.637
    5AU     LIG 2140  19.919  13.951   6.283
    5AU     LIG 2141  20.119  13.542   6.145
    5AU     LIG 2142  20.411  13.197   5.992
    5AU     LIG 2143  20.774  13.155   5.668
    5AU     LIG 2144  21.098  13.194   5.304
    5AU       S 2145  19.446  14.527   6.375
    5AU     LIG 2146  19.485  14.172   6.080
    5AU     LIG 2147  19.507  14.103   5.618
    5AU     LIG 2148  19.723  14.090   5.198
    5AU     LIG 2149  19.735  14.053   4.736
    5AU     LIG 2150  19.748  14.139   4.274
    5AU    AUSL 2151  19.221  14.958   6.747
    5AU    AUSL 2152  18.911  14.625   6.802
    5AU     AUL 2153  19.021  14.766   6.508
    5AU       S 2154  18.509  14.630   6.350
    5AU     LIG 2155  18.454  14.300   6.028
    5AU     LIG 2156  18.393  14.160   5.584
    5AU     LIG 2157  18.140  14.096   5.194
    5AU     LIG 2158  17.940  13.875   4.815
    5AU     LIG 2159  17.952  13.801   4.352
    5AU       S 2160  19.442  14.801   6.237
    5AU     LIG 2161  19.523  14.609   5.810
    5AU     LIG 2162  19.581  14.558   5.340
    5AU     LIG 2163  19.780  14.574   4.908
    5AU     LIG 2164  19.813  14.863   4.512
    5AU     LIG 2165  19.842  15.239   4.212
    5AU    AUSL 2166  18.547  14.874   8.152
    5AU    AUSL 2167  18.762  15.233   8.053
    5AU     AUL 2168  18.674  15.223   8.383
    5AU       S 2169  18.356  14.883   8.621
    5AU     LIG 2170  18.162  14.487   8.795
    5AU     LIG 2171  18.054  14.377   9.236
    5AU     LIG 2172  17.846  14.491   9.649
    5AU     LIG 2173  17.452  14.470   9.922
    5AU     LIG 2174  17.208  14.408  10.326
    5AU       S 2175  18.297  15.537   8.221
    5AU     LIG 2176  18.372  15.747   8.640
    5AU     LIG 2177  18.299  15.897   9.071
    5AU     LIG 2178  17.984  16.070   9.364
    5AU     LIG 2179  17.883  16.269   9.785
    5AU     LIG 2180  17.888  16.473  10.221
    5AU    AUSL 2181  18.839  14.611   8.271
    5AU    AUSL 2182  18.433  14.561   7.969
    5AU     AUL 2183  18.482  14.564   8.270
    5AU       S 2184  18.130  14.220   8.305
    5AU     LIG 2185  17.700  14.111   8.231
    5AU     LIG 2186  17.457  13.768   8.398
    5AU     LIG 2187  17.274  13.499   8.730
    5AU     LIG 2188  17.057  13.163   8.968
    5AU     LIG 2189  16.728  13.027   9.277
    5AU       S 2190  18.661  14.608   8.728
    5AU     LIG 2191  18.564  14.314   9.079
    5AU     LIG 2192  18.436  14.127   9.484
    5AU     LIG 2193  18.173  14.146   9.863
    5AU     LIG 2194  18.017  13.918  10.250
    5AU     LIG 2195  18.097  13.660  10.653
    5AU    AUSL 2196  18.601  14.770   6.840
    5AU    AUSL 2197  18.718  14.359   6.934
    5AU     AUL 2198  18.849  14.401   6.616
    5AU       S 2199  18.333  14.774   6.509
    5AU     LIG 2200  18.036  14.514   6.227
    5AU     LIG 2201  17.980  14.428   5.749
    5AU     LIG 2202  17.786  14.456   5.305
    5AU     LIG 2203  17.448  14.453   4.948
    5AU     LIG 2204  17.129  14.742   4.712
    5AU       S 2205  18.358  14.223   6.600
    5AU     LIG 2206  18.057  13.886   6.355
    5AU     LIG 2207  17.796  13.453   6.300
    5AU     LIG 2208  17.521  13.074   6.110
    5AU     LIG 2209  17.259  12.775   5.824
    5AU     LIG 2210  17.267  12.634   5.366
    5AU    AUSL 2211  18.882  14.975   6.778
    5AU    AUSL 2212  18.491  15.088   6.992
    5AU     AUL 2213  18.676  15.140   6.639
    5AU       S 2214  18.188  15.263   6.703
    5AU     LIG 2215  17.895  15.383   6.398
    5AU     LIG 2216  17.767  15.668   6.072
    5AU     LIG 2217  17.665  15.788   5.636
    5AU     LIG 2218  17.379  15.830   5.275
    5AU     LIG 2219  16.980  15.870   5.048
    5AU       S 2220  18.567  14.846   6.265
    5AU     LIG 2221  18.349  14.775   5.853
    5AU     LIG 2222  18.323  14.635   5.388
    5AU     LIG 2223  18.516  14.670   4.939
    5AU     LIG 2224  18.535  14.812   4.473
    5AU     LIG 2225  18.343  15.039   4.092
    5AU    AUSL 2226  19.696  15.177   7.494
    5AU    AUSL 2227  19.661  15.086   7.116
    5AU     AUL 2228  19.736  15.494   7.389
    5AU       S 2229  19.954  15.251   6.896
    5AU     LIG 2230  20.351  15.314   6.681
    5AU     LIG 2231  20.486  15.578   6.311
    5AU     LIG 2232  20.743  15.704   5.929
    5AU     LIG 2233  21.034  15.779   5.558
    5AU     LIG 2234  21.452  15.893   5.351
    5AU       S 2235  20.195  15.260   7.347
    5AU     LIG 2236  20.686  15.340   7.348
    5AU     LIG 2237  21.140  15.275   7.518
    5AU     LIG 2238  21.547  15.533   7.555
    5AU     LIG 2239  21.841  15.923   7.562
    5AU     LIG 2240  22.232  16.221   7.536
    5AU    AUSL 2241  19.806  14.866   7.343
    5AU    AUSL 2242  19.722  14.570   7.667
    5AU     AUL 2243  20.047  14.645   7.570
    5AU       S 2244  20.203  14.997   7.230
    5AU     LIG 2245  20.625  14.928   7.061
    5AU     LIG 2246  21.098  14.973   7.098
    5AU     LIG 2247  21.556  14.820   7.028
    5AU     LIG 2248  22.027  14.921   7.005
    5AU     LIG 2249  22.363  15.199   6.819
    5AU       S 2250  20.128  14.130   7.678
    5AU     LIG 2251  20.559  14.013   7.813
    5AU     LIG 2252  20.993  13.857   7.812
    5AU     LIG 2253  21.435  13.848   7.742
    5AU     LIG 2254  21.855  13.953   7.863
    5AU     LIG 2255  22.303  13.799   7.885
    5AU    AUSL 2256  19.801  14.907   7.703
    5AU    AUSL 2257  19.548  15.323   7.786
    5AU     AUL 2258  19.884  15.245   7.788
    5AU       S 2259  19.881  15.514   8.210
    5AU     LIG 2260  20.133  15.831   8.458
    5AU     LIG 2261  20.421  16.128   8.685
    5AU     LIG 2262  20.712  16.499   8.621
    5AU     LIG 2263  20.979  16.843   8.737
    5AU     LIG 2264  20.911  17.216   8.991
    5AU       S 2265  20.298  15.077   7.549
    5AU     LIG 2266  20.717  15.027   7.760
    5AU     LIG 2267  21.149  14.940   7.923
    5AU     LIG 2268  21.573  15.091   7.820
    5AU     LIG 2269  22.001  15.137   7.976
    5AU     LIG 2270  22.455  15.248   8.018
    5AU    AUSL 2271  18.441  15.314   7.511
    5AU    AUSL 2272  18.438  15.126   7.934
    5AU     AUL 2273  18.138  15.324   7.715
    5AU       S 2274  18.158  15.262   8.241
    5AU     LIG 2275  17.918  15.521   8.577
    5AU     LIG 2276  17.839  15.665   9.024
    5AU     LIG 2277  17.585  15.738   9.414
    5AU     LIG 2278  17.167  15.765   9.629
    5AU     LIG 2279  16.747  15.896   9.809
    5AU       S 2280  18.282  15.765   7.472
    5AU     LIG 2281  17.837  15.973   7.525
    5AU     LIG 2282  17.395  16.195   7.585
    5AU     LIG 2283  16.966  16.435   7.667
    5AU     LIG 2284  16.539  16.647   7.783
    5AU     LIG 2285  16.148  16.913   7.916
    5AU    AUSL 2286  18.335  14.986   7.279
    5AU    AUSL 2287  18.580  15.386   7.203
    5AU     AUL 2288  18.213  15.290   7.223
    5AU       S 2289  17.978  14.869   6.919
    5AU     LIG 2290  17.609  15.152   6.774
    5AU     LIG 2291  17.144  15.300   6.690
    5AU     LIG 2292  16.695  15.466   6.782
    5AU     LIG 2293  16.282  15.641   6.904
    5AU     LIG 2294  15.845  15.838   6.943
    5AU       S 2295  18.281  15.715   6.953
    5AU     LIG 2296  17.983  15.859   6.603
    5AU     LIG 2297  17.956  16.126   6.214
    5AU     LIG 2298  17.714  16.465   5.984
    5AU     LIG 2299  17.343  16.786   5.983
    5AU     LIG 2300  16.914  17.002   6.061
    5AU    AUSL 2301  18.292  14.997   7.656
    5AU    AUSL 2302  18.243  14.666   7.334
    5AU     AUL 2303  18.019  15.022   7.424
    5AU       S 2304  17.765  14.575   7.375
    5AU     LIG 2305  17.316  14.372   7.333
    5AU     LIG 2306  16.901  14.190   7.436
    5AU     LIG 2307  16.487  14.151   7.257
    5AU     LIG 2308  16.049  14.108   7.335
    5AU     LIG 2309  15.688  14.007   7.067
    5AU       S 2310  17.882  14.942   7.957
    5AU     LIG 2311  17.409  15.150   7.995
    5AU     LIG 2312  16.959  15.375   8.055
    5AU     LIG 2313  16.599  15.678   8.143
    5AU     LIG 2314  16.120  15.608   8.171
    5AU     LIG 2315  15.625  15.607   8.170
    5AU    AUSL 2316  19.624  14.264   7.558
    5AU    AUSL 2317  19.571  14.429   7.945
    5AU     AUL 2318  19.896  14.499   7.905
    5AU       S 2319  19.932  13.979   7.599
    5AU     LIG 2320  20.277  13.662   7.558
    5AU     LIG 2321  20.728  13.654   7.427
    5AU     LIG 2322  21.183  13.499   7.451
    5AU     LIG 2323  21.645  13.358   7.470
    5AU     LIG 2324  21.924  13.004   7.647
    5AU       S 2325  19.817  14.022   8.090
    5AU     LIG 2326  20.036  13.698   8.353
    5AU     LIG 2327  20.196  13.414   8.678
    5AU     LIG 2328  20.477  13.289   9.022
    5AU     LIG 2329  20.731  13.029   9.319
    5AU     LIG 2330  21.120  12.883   9.546
    5AU    AUSL 2331  19.763  14.524   7.324
    5AU    AUSL 2332  19.454  14.194   7.232
    5AU     AUL 2333  19.779  14.226   7.179
    5AU       S 2334  20.206  14.180   7.425
    5AU     LIG 2335  20.692  14.183   7.351
    5AU     LIG 2336  21.120  13.993   7.324
    5AU     LIG 2337  21.539  13.818   7.231
    5AU     LIG 2338  21.914  13.737   7.012
    5AU     LIG 2339  22.342  13.676   6.915
    5AU       S 2340  19.710  13.963   6.756
    5AU     LIG 2341  19.886  13.553   6.621
    5AU     LIG 2342  20.055  13.139   6.459
    5AU     LIG 2343  20.171  12.755   6.229
    5AU     LIG 2344  20.425  12.363   6.242
    5AU     LIG 2345  20.841  12.275   6.041
    5AU    AUSL 2346  18.360  14.367   7.514
    5AU    AUSL 2347  18.428  14.549   7.056
    5AU     AUL 2348  18.180  14.301   7.244
    5AU       S 2349  18.166  14.392   6.741
    5AU     LIG 2350  17.756  14.228   6.595
    5AU     LIG 2351  17.510  13.841   6.490
    5AU     LIG 2352  17.265  13.457   6.349
    5AU     LIG 2353  17.001  13.157   6.080
    5AU     LIG 2354  16.692  13.025   5.730
    5AU       S 2355  17.773  14.352   7.530
    5AU     LIG 2356  17.476  14.035   7.715
    5AU     LIG 2357  17.091  13.758   7.627
    5AU     LIG 2358  16.610  13.734   7.529
    5AU     LIG 2359  16.146  13.596   7.430
    5AU     LIG 2360  15.821  13.229   7.383
    5AU    AUSL 2361  18.258  14.663   7.687
    5AU    AUSL 2362  18.505  14.242   7.814
    5AU     AUL 2363  18.178  14.348   7.819
    5AU       S 2364  18.212  13.981   8.157
    5AU     LIG 2365  17.869  13.653   8.080
    5AU     LIG 2366  17.531  13.328   8.143
    5AU     LIG 2367  17.297  13.061   8.458
    5AU     LIG 2368  17.180  12.697   8.756
    5AU     LIG 2369  16.991  12.247   8.830
    5AU       S 2370  17.772  14.594   7.621
    5AU     LIG 2371  17.339  14.780   7.641
    5AU     LIG 2372  16.911  14.692   7.487
    5AU     LIG 2373  16.468  14.510   7.616
    5AU     LIG 2374  16.055  14.327   7.818
    5AU     LIG 2375  15.687  14.038   7.965
    5AU    AUSL 2376  19.068  15.431   7.967
    5AU    AUSL 2377  18.623  15.423   7.797
    5AU     AUL 2378  18.804  15.539   8.173
    5AU       S 2379  18.372  15.741   7.968
    5AU     LIG 2380  18.057  15.964   8.286
    5AU     LIG 2381  17.951  16.080   8.733
    5AU     LIG 2382  17.765  16.425   9.008
    5AU     LIG 2383  17.491  16.835   8.997
    5AU     LIG 2384  17.131  17.168   8.956
    5AU       S 2385  19.090  15.943   8.059
    5AU     LIG 2386  19.365  16.169   8.348
    5AU     LIG 2387  19.463  16.580   8.534
    5AU     LIG 2388  19.329  16.900   8.860
    5AU     LIG 2389  19.259  17.077   9.309
    5AU     LIG 2390  19.280  17.387   9.673
    5AU    AUSL 2391  18.909  15.556   7.655
    5AU    AUSL 2392  19.228  15.570   7.345
    5AU     AUL 2393  18.850  15.816   7.400
    5AU       S 2394  18.934  15.986   7.864
    5AU     LIG 2395  19.093  16.442   7.998
    5AU     LIG 2396  19.092  16.836   8.270
    5AU     LIG 2397  18.908  17.253   8.419
    5AU     LIG 2398  18.801  17.710   8.490
    5AU     LIG 2399  18.703  18.153   8.343
    5AU       S 2400  19.316  16.008   7.212
    5AU     LIG 2401  19.645  16.329   7.031
    5AU     LIG 2402  19.769  16.751   6.804
    5AU     LIG 2403  19.971  17.215   6.802
    5AU     LIG 2404  20.104  17.669   6.704
    5AU     LIG 2405  20.291  18.095   6.657
    5AU    AUSL 2406  19.272  15.524   7.682
    5AU    AUSL 2407  19.356  15.244   8.071
    5AU     AUL 2408  19.423  15.579   7.999
    5AU       S 2409  19.690  15.428   8.413
    5AU     LIG 2410  20.001  15.448   8.769
    5AU     LIG 2411  20.194  15.737   9.079
    5AU     LIG 2412  20.391  15.798   9.509
    5AU     LIG 2413  20.582  16.059   9.851
    5AU     LIG 2414  20.653  16.457  10.101
    5AU       S 2415  19.254  15.990   7.745
    5AU     LIG 2416  19.599  16.303   7.904
    5AU     LIG 2417  19.854  16.614   8.172
    5AU     LIG 2418  20.184  16.960   8.236
    5AU     LIG 2419  20.217  17.403   8.401
    5AU     LIG 2420  19.909  17.747   8.448
    5AU    AUSL 2421  18.993  14.155   7.968
    5AU    AUSL 2422  19.371  14.161   7.815
    5AU     AUL 2423  19.164  14.122   8.258
    5AU       S 2424  19.126  13.655   8.045
    5AU     LIG 2425  19.017  13.292   8.284
    5AU     LIG 2426  18.790  12.903   8.335
    5AU     LIG 2427  18.811  12.437   8.327
    5AU     LIG 2428  18.946  12.051   8.558
    5AU     LIG 2429  18.988  11.832   8.992
    5AU       S 2430  19.594  13.864   7.936
    5AU     LIG 2431  19.872  13.512   7.902
    5AU     LIG 2432  20.028  13.192   8.220
    5AU     LIG 2433  20.183  12.899   8.569
    5AU     LIG 2434  20.425  12.785   8.952
    5AU     LIG 2435  20.853  12.611   9.043
    5AU    AUSL 2436  18.788  14.110   7.685
    5AU    AUSL 2437  18.714  14.334   8.094
    5AU     AUL 2438  18.694  13.968   8.004
    5AU       S 2439  18.949  13.540   7.817
    5AU     LIG 2440  18.815  13.092   7.815
    5AU     LIG 2441  18.598  12.680   7.914
    5AU     LIG 2442  18.296  12.383   8.151
    5AU     LIG 2443  18.013  12.026   8.309
    5AU     LIG 2444  17.796  11.631   8.205
    5AU       S 2445  18.394  14.079   8.412
    5AU     LIG 2446  17.993  13.801   8.569
    5AU     LIG 2447  17.762  13.389   8.600
    5AU     LIG 2448  17.561  13.077   8.896
    5AU     LIG 2449  17.466  12.914   9.325
    5AU     LIG 2450  17.666  12.866   9.767
    5AU    AUSL 2451  19.101  14.008   7.659
    5AU    AUSL 2452  18.795  14.044   7.341
    5AU     AUL 2453  18.633  13.871   7.619
    5AU       S 2454  18.841  13.576   7.266
    5AU     LIG 2455  18.542  13.234   7.266
    5AU     LIG 2456  18.482  12.809   7.086
    5AU     LIG 2457  18.469  12.377   6.869
    5AU     LIG 2458  18.186  11.976   6.784
    5AU     LIG 2459  17.967  11.541   6.732
    5AU       S 2460  19.199  13.629   7.773
    5AU     LIG 2461  19.319  13.174   7.891
    5AU     LIG 2462  19.158  12.716   8.019
    5AU     LIG 2463  19.262  12.229   8.121
    5AU     LIG 2464  19.505  11.804   8.158
    5AU     LIG 2465  19.627  11.396   8.409
    5AU    AUSL 2466  19.102  15.433   7.012
    5AU    AUSL 2467  19.466  15.317   7.266
    5AU     AUL 2468  19.454  15.551   7.058
    5AU       S 2469  19.188  15.881   6.805
    5AU     LIG 2470  19.546  16.084   6.581
    5AU     LIG 2471  19.568  16.513   6.370
    5AU     LIG 2472  19.583  16.737   5.935
    5AU     LIG 2473  19.461  17.037   5.576
    5AU     LIG 2474  19.398  17.480   5.393
    5AU       S 2475  19.953  15.510   6.943
    5AU     LIG 2476  20.224  15.814   6.716
    5AU     LIG 2477  20.330  16.090   6.357
    5AU     LIG 2478  20.549  16.502   6.347
    5AU     LIG 2479  20.972  16.658   6.271
    5AU     LIG 2480  21.162  17.072   6.211
    5AU    AUSL 2481  18.900  15.490   7.300
    5AU    AUSL 2482  18.792  15.279   6.941
    5AU     AUL 2483  18.781  15.632   7.005
    5AU       S 2484  19.122  16.015   7.032
    5AU     LIG 2485  19.207  16.411   6.785
    5AU     LIG 2486  19.228  16.859   6.677
    5AU     LIG 2487  18.907  17.224   6.669
    5AU     LIG 2488  18.775  17.668   6.593
    5AU     LIG 2489  18.723  18.113   6.706
    5AU       S 2490  18.377  15.543   6.689
    5AU     LIG 2491  18.283  15.684   6.226
    5AU     LIG 2492  18.158  15.880   5.797
    5AU     LIG 2493  18.003  16.101   5.390
    5AU     LIG 2494  17.843  16.299   4.971
    5AU     LIG 2495  17.827  16.711   4.701
    5AU    AUSL 2496  18.979  14.140   7.044
    5AU    AUSL 2497  18.533  14.245   7.219
    5AU     AUL 2498  18.659  13.994   6.990
    5AU       S 2499  18.208  14.101   6.789
    5AU     LIG 2500  17.891  13.759   6.832
    5AU     LIG 2501  17.586  13.399   6.772
    5AU     LIG 2502  17.375  13.011   6.598
    5AU     LIG 2503  17.118  12.714   6.330
    5AU     LIG 2504  16.705  12.710   6.124
    5AU       S 2505  18.954  13.579   7.013
    5AU     LIG 2506  18.808  13.173   6.828
    5AU     LIG 2507  18.650  12.801   6.595
    5AU     LIG 2508  18.705  12.389   6.397
    5AU     LIG 2509  18.871  11.968   6.292
    5AU     LIG 2510  19.116  11.719   5.979
    5AU    AUSL 2511  19.161  14.032   7.332
    5AU    AUSL 2512  19.267  14.300   6.932
    5AU     AUL 2513  19.297  13.946   7.034
    5AU       S 2514  19.107  13.557   7.301
    5AU     LIG 2515  19.029  13.081   7.288
    5AU     LIG 2516  18.971  12.687   6.992
    5AU     LIG 2517  18.995  12.242   6.794
    5AU     LIG 2518  19.090  11.781   6.722
    5AU     LIG 2519  19.464  11.529   6.703
    5AU       S 2520  19.471  14.101   6.589
    5AU     LIG 2521  19.464  13.719   6.354
    5AU     LIG 2522  19.649  13.333   6.206
    5AU     LIG 2523  19.905  13.085   5.918
    5AU     LIG 2524  19.960  13.033   5.454
    5AU     LIG 2525  20.054  12.887   5.010
    6AU     AUC 2526  30.775  13.025   7.508
    6AU     AUC 2527  31.048  13.009   7.347
    6AU     AUC 2528  31.042  13.007   7.675
    6AU     AUC 2529  30.512  13.039   7.336
    6AU     AUC 2530  30.505  13.039   7.669
    6AU     AUC 2531  30.626  13.301   7.502
    6AU     AUC 2532  30.958  13.282   7.511
    6AU     AUC 2533  30.590  12.766   7.505
    6AU     AUC 2534  30.920  12.746   7.507
    6AU     AUC 2535  30.759  12.861   7.777
    6AU     AUC 2536  30.784  13.190   7.775
    6AU     AUC 2537  30.772  12.860   7.240
    6AU     AUC 2538  30.793  13.191   7.238
    6AU     AUC 2539  31.317  13.000   7.198
    6AU     AUC 2540  31.325  12.984   7.510
    6AU     AUC 2541  31.302  12.985   7.832
    6AU     AUC 2542  30.264  13.043   7.160
    6AU     AUC 2543  30.230  13.047   7.494
    6AU     AUC 2544  30.246  13.058   7.825
    6AU     AUC 2545  30.482  13.566   7.497
    6AU     AUC 2546  30.811  13.570   7.505
    6AU     AUC 2547  31.125  13.534   7.520
    6AU     AUC 2548  30.410  12.519   7.502
    6AU     AUC 2549  30.735  12.480   7.497
    6AU     AUC 2550  31.056  12.470   7.514
    6AU     AUC 2551  30.750  12.705   8.039
    6AU     AUC 2552  30.769  13.025   8.060
    6AU     AUC 2553  30.787  13.351   8.025
    6AU     AUC 2554  30.781  12.699   6.987
    6AU     AUC 2555  30.811  13.032   6.966
    6AU     AUC 2556  30.815  13.356   6.976
    6AU     AUC 2557  31.036  12.844   7.950
    6AU     AUC 2558  31.066  13.174   7.956
    6AU     AUC 2559  31.054  12.849   7.074
    6AU     AUC 2560  31.080  13.197   7.078
    6AU     AUC 2561  30.486  12.875   7.960
    6AU     AUC 2562  30.503  13.205   7.945
    6AU     AUC 2563  30.507  12.869   7.067
    6AU     AUC 2564  30.524  13.202   7.052
    6AU     AUC 2565  31.238  13.262   7.358
    6AU     AUC 2566  31.239  13.268   7.688
    6AU     AUC 2567  30.353  13.323   7.319
    6AU     AUC 2568  30.348  13.329   7.666
    6AU     AUC 2569  31.205  12.721   7.348
    6AU     AUC 2570  31.184  12.713   7.677
    6AU     AUC 2571  30.310  12.774   7.334
    6AU     AUC 2572  30.313  12.771   7.675
    6AU     AUC 2573  30.633  13.480   7.771
    6AU     AUC 2574  30.975  13.459   7.783
    6AU     AUC 2575  30.570  12.598   7.787
    6AU     AUC 2576  30.897  12.570   7.773
    6AU     AUC 2577  30.635  13.468   7.219
    6AU     AUC 2578  30.964  13.468   7.234
    6AU     AUC 2579  30.581  12.587   7.227
    6AU     AUC 2580  30.916  12.571   7.231
    6AU    AUSL 2581  31.271  12.953   8.132
    6AU    AUSL 2582  31.014  12.586   8.069
    6AU     AUL 2583  31.260  12.604   8.311
    6AU       S 2584  31.347  12.102   8.185
    6AU     LIG 2585  31.298  11.680   8.368
    6AU     LIG 2586  31.401  11.318   8.672
    6AU     LIG 2587  31.669  11.172   9.049
    6AU     LIG 2588  31.740  11.085   9.514
    6AU     LIG 2589  31.906  11.003   9.948
    6AU       S 2590  31.612  12.940   8.499
    6AU     LIG 2591  31.671  13.123   8.944
    6AU     LIG 2592  31.664  12.906   9.374
    6AU     LIG 2593  31.847  12.643   9.732
    6AU     LIG 2594  32.215  12.588  10.039
    6AU     LIG 2595  32.593  12.533  10.333
    6AU    AUSL 2596  30.948  12.862   8.273
    6AU    AUSL 2597  30.605  13.190   8.273
    6AU     AUL 2598  30.847  13.068   8.556
    6AU       S 2599  31.289  12.863   8.735
    6AU     LIG 2600  31.334  12.605   9.111
    6AU     LIG 2601  31.463  12.363   9.490
    6AU     LIG 2602  31.399  12.134   9.900
    6AU     LIG 2603  31.426  12.243  10.353
    6AU     LIG 2604  31.764  12.269  10.691
    6AU       S 2605  30.369  13.091   8.743
    6AU     LIG 2606  30.150  13.024   9.151
    6AU     LIG 2607  30.153  12.812   9.566
    6AU     LIG 2608  30.084  12.836  10.029
    6AU     LIG 2609  30.201  13.111  10.414
    6AU     LIG 2610  30.223  13.365  10.814
    6AU    AUSL 2611  30.933  13.233   8.229
    6AU    AUSL 2612  31.371  13.262   7.996
    6AU     AUL 2613  31.209  13.200   8.355
    6AU       S 2614  30.940  13.587   8.588
    6AU     LIG 2615  31.243  13.449   8.953
    6AU     LIG 2616  31.415  13.481   9.414
    6AU     LIG 2617  31.411  13.643   9.891
    6AU     LIG 2618  31.311  13.787  10.353
    6AU     LIG 2619  31.446  13.888  10.813
    6AU       S 2620  31.653  13.444   8.311
    6AU     LIG 2621  32.044  13.423   8.524
    6AU     LIG 2622  32.342  13.702   8.739
    6AU     LIG 2623  32.526  13.974   9.067
    6AU     LIG 2624  32.878  14.052   9.380
    6AU     LIG 2625  33.317  14.028   9.582
    6AU    AUSL 2626  31.261  13.068   6.909
    6AU    AUSL 2627  31.121  13.466   6.930
    6AU     AUL 2628  31.288  13.337   6.641
    6AU       S 2629  31.402  12.911   6.370
    6AU     LIG 2630  31.701  12.680   6.137
    6AU     LIG 2631  31.758  12.559   5.693
    6AU     LIG 2632  31.851  12.543   5.222
    6AU     LIG 2633  32.166  12.456   4.874
    6AU     LIG 2634  32.432  12.631   4.521
    6AU       S 2635  31.556  13.746   6.709
    6AU     LIG 2636  31.769  13.781   6.303
    6AU     LIG 2637  31.997  14.057   5.997
    6AU     LIG 2638  32.221  14.214   5.621
    6AU     LIG 2639  32.384  14.395   5.219
    6AU     LIG 2640  32.272  14.748   4.928
    6AU    AUSL 2641  31.032  12.846   6.773
    6AU    AUSL 2642  31.313  12.720   7.032
    6AU     AUL 2643  31.516  12.913   6.853
    6AU       S 2644  31.484  12.454   6.629
    6AU     LIG 2645  31.678  12.181   6.277
    6AU     LIG 2646  31.905  11.781   6.174
    6AU     LIG 2647  32.219  11.543   5.924
    6AU     LIG 2648  32.563  11.420   5.630
    6AU     LIG 2649  32.968  11.478   5.366
    6AU       S 2650  31.199  12.769   6.372
    6AU     LIG 2651  31.262  12.425   6.078
    6AU     LIG 2652  31.286  12.376   5.618
    6AU     LIG 2653  31.367  12.364   5.155
    6AU     LIG 2654  31.396  12.342   4.691
    6AU     LIG 2655  31.658  12.217   4.336
    6AU    AUSL 2656  30.972  13.198   6.746
    6AU    AUSL 2657  30.663  12.865   6.799
    6AU     AUL 2658  30.773  13.004   6.506
    6AU       S 2659  30.269  12.869   6.341
    6AU     LIG 2660  30.206  12.491   6.066
    6AU     LIG 2661  30.165  12.315   5.627
    6AU     LIG 2662  30.017  12.310   5.178
    6AU     LIG 2663  30.002  12.298   4.713
    6AU     LIG 2664  29.729  12.290   4.331
    6AU       S 2665  31.191  13.057   6.235
    6AU     LIG 2666  31.331  12.870   5.830
    6AU     LIG 2667  31.436  12.828   5.377
    6AU     LIG 2668  31.477  12.823   4.905
    6AU     LIG 2669  31.463  13.091   4.506
    6AU     LIG 2670  31.449  13.424   4.150
    6AU    AUSL 2671  30.297  13.101   8.147
    6AU    AUSL 2672  30.506  13.460   8.053
    6AU     AUL 2673  30.416  13.447   8.384
    6AU       S 2674  30.109  13.105   8.627
    6AU     LIG 2675  29.909  12.718   8.802
    6AU     LIG 2676  29.805  12.607   9.242
    6AU     LIG 2677  29.709  12.560   9.706
    6AU     LIG 2678  29.321  12.502   9.996
    6AU     LIG 2679  28.923  12.539  10.266
    6AU       S 2680  30.038  13.763   8.222
    6AU     LIG 2681  30.062  13.939   8.663
    6AU     LIG 2682  30.016  14.157   9.066
    6AU     LIG 2683  29.714  14.385   9.329
    6AU     LIG 2684  29.471  14.423   9.745
    6AU     LIG 2685  29.488  14.622  10.192
    6AU    AUSL 2686  30.586  12.838   8.266
    6AU    AUSL 2687  30.199  12.782   7.960
    6AU     AUL 2688  30.216  12.801   8.258
    6AU       S 2689  29.921  12.413   8.303
    6AU     LIG 2690  29.485  12.367   8.316
    6AU     LIG 2691  29.170  12.051   8.360
    6AU     LIG 2692  28.989  11.725   8.626
    6AU     LIG 2693  28.817  11.466   8.969
    6AU     LIG 2694  28.550  11.487   9.358
    6AU       S 2695  30.407  12.817   8.716
    6AU     LIG 2696  30.307  12.541   9.095
    6AU     LIG 2697  30.151  12.299   9.475
    6AU     LIG 2698  30.023  12.183   9.906
    6AU     LIG 2699  29.842  12.075  10.325
    6AU     LIG 2700  29.924  12.070  10.795
    6AU    AUSL 2701  30.352  13.007   6.835
    6AU    AUSL 2702  30.471  12.598   6.929
    6AU     AUL 2703  30.605  12.640   6.613
    6AU       S 2704  30.090  13.007   6.500
    6AU     LIG 2705  29.790  12.743   6.237
    6AU     LIG 2706  29.745  12.562   5.798
    6AU     LIG 2707  29.582  12.568   5.337
    6AU     LIG 2708  29.178  12.649   5.077
    6AU     LIG 2709  28.827  12.751   4.763
    6AU       S 2710  30.113  12.473   6.595
    6AU     LIG 2711  29.815  12.226   6.300
    6AU     LIG 2712  29.455  11.916   6.267
    6AU     LIG 2713  29.278  11.541   6.054
    6AU     LIG 2714  29.191  11.278   5.667
    6AU     LIG 2715  29.262  11.067   5.235
    6AU    AUSL 2716  30.631  13.215   6.771
    6AU    AUSL 2717  30.235  13.321   6.992
    6AU     AUL 2718  30.414  13.381   6.641
    6AU       S 2719  29.924  13.497   6.705
    6AU     LIG 2720  29.623  13.668   6.423
    6AU     LIG 2721  29.529  13.949   6.070
    6AU     LIG 2722  29.341  14.058   5.650
    6AU     LIG 2723  28.946  14.111   5.388
    6AU     LIG 2724  28.630  14.257   5.067
    6AU       S 2725  30.326  13.089   6.257
    6AU     LIG 2726  30.101  12.948   5.857
    6AU     LIG 2727  30.053  12.780   5.418
    6AU     LIG 2728  29.992  12.800   4.944
    6AU     LIG 2729  29.986  13.127   4.575
    6AU     LIG 2730  29.980  13.488   4.244
    6AU    AUSL 2731  31.442  13.425   7.493
    6AU    AUSL 2732  31.411  13.324   7.123
    6AU     AUL 2733  31.475  13.741   7.389
    6AU       S 2734  31.706  13.494   6.906
    6AU     LIG 2735  32.092  13.522   6.679
    6AU     LIG 2736  32.281  13.707   6.290
    6AU     LIG 2737  32.517  13.974   5.969
    6AU     LIG 2738  32.720  14.129   5.555
    6AU     LIG 2739  32.930  14.370   5.197
    6AU       S 2740  31.936  13.517   7.344
    6AU     LIG 2741  32.396  13.706   7.400
    6AU     LIG 2742  32.875  13.744   7.491
    6AU     LIG 2743  33.307  13.948   7.434
    6AU     LIG 2744  33.548  14.374   7.346
    6AU     LIG 2745  33.578  14.818   7.169
    6AU    AUSL 2746  31.562  13.104   7.353
    6AU    AUSL 2747  31.490  12.814   7.659
    6AU     AUL 2748  31.817  12.935   7.648
    6AU       S 2749  31.961  13.218   7.228
    6AU     LIG 2750  32.469  13.228   7.238
    6AU     LIG 2751  32.979  13.301   7.250
    6AU     LIG 2752  33.471  13.424   7.223
    6AU     LIG 2753  33.939  13.476   7.053
    6AU     LIG 2754  34.224  13.731   6.763
    6AU       S 2755  31.921  12.418   7.616
    6AU     LIG 2756  32.302  12.227   7.837
    6AU     LIG 2757  32.758  12.074   7.813
    6AU     LIG 2758  33.224  12.051   7.714
    6AU     LIG 2759  33.693  12.002   7.799
    6AU     LIG 2760  34.088  12.074   8.023
    6AU    AUSL 2761  31.535  13.158   7.704
    6AU    AUSL 2762  31.290  13.562   7.789
    6AU     AUL 2763  31.630  13.486   7.795
    6AU       S 2764  31.615  13.748   8.223
    6AU     LIG 2765  31.960  13.945   8.482
    6AU     LIG 2766  32.261  14.253   8.696
    6AU     LIG 2767  32.405  14.720   8.768
    6AU     LIG 2768  32.663  15.138   8.824
    6AU     LIG 2769  33.082  15.366   8.889
    6AU       S 2770  32.028  13.360   7.507
    6AU     LIG 2771  32.395  13.317   7.749
    6AU     LIG 2772  32.841  13.292   7.745
    6AU     LIG 2773  33.279  13.424   7.701
    6AU     LIG 2774  33.677  13.349   7.935
    6AU     LIG 2775  34.105  13.517   7.929
    6AU    AUSL 2776  30.184  13.541   7.512
    6AU    AUSL 2777  30.184  13.353   7.932
    6AU     AUL 2778  29.877  13.543   7.715
    6AU       S 2779  29.904  13.488   8.239
    6AU     LIG 2780  29.614  13.742   8.524
    6AU     LIG 2781  29.562  13.930   8.960
    6AU     LIG 2782  29.315  14.068   9.345
    6AU     LIG 2783  28.965  14.146   9.655
    6AU     LIG 2784  28.552  14.305   9.838
    6AU       S 2785  30.017  13.990   7.478
    6AU     LIG 2786  29.584  14.219   7.461
    6AU     LIG 2787  29.174  14.493   7.507
    6AU     LIG 2788  28.819  14.829   7.589
    6AU     LIG 2789  28.520  15.171   7.762
    6AU     LIG 2790  28.063  15.210   7.845
    6AU    AUSL 2791  30.079  13.214   7.278
    6AU    AUSL 2792  30.321  13.618   7.205
    6AU     AUL 2793  29.954  13.516   7.225
    6AU       S 2794  29.722  13.100   6.918
    6AU     LIG 2795  29.351  13.412   6.816
    6AU     LIG 2796  28.861  13.543   6.870
    6AU     LIG 2797  28.365  13.594   6.990
    6AU     LIG 2798  27.909  13.770   6.988
    6AU     LIG 2799  27.538  13.817   6.685
    6AU       S 2800  30.020  13.948   6.962
    6AU     LIG 2801  29.735  14.140   6.614
    6AU     LIG 2802  29.647  14.436   6.238
    6AU     LIG 2803  29.450  14.883   6.107
    6AU     LIG 2804  29.180  15.318   6.104
    6AU     LIG 2805  28.817  15.640   6.234
    6AU    AUSL 2806  30.041  13.219   7.654
    6AU    AUSL 2807  29.992  12.892   7.332
    6AU     AUL 2808  29.762  13.239   7.427
    6AU       S 2809  29.508  12.786   7.391
    6AU     LIG 2810  29.050  12.556   7.394
    6AU     LIG 2811  28.588  12.533   7.493
    6AU     LIG 2812  28.180  12.512   7.280
    6AU     LIG 2813  27.765  12.424   7.098
    6AU     LIG 2814  27.375  12.175   7.003
    6AU       S 2815  29.655  13.142   7.970
    6AU     LIG 2816  29.219  13.322   8.036
    6AU     LIG 2817  28.744  13.393   7.982
    6AU     LIG 2818  28.281  13.540   8.008
    6AU     LIG 2819  27.931  13.687   8.305
    6AU     LIG 2820  27.505  13.925   8.369
    6AU    AUSL 2821  31.381  12.505   7.558
    6AU    AUSL 2822  31.322  12.671   7.932
    6AU     AUL 2823  31.645  12.709   7.916
    6AU       S 2824  31.723  12.258   7.600
    6AU     LIG 2825  31.981  11.884   7.637
    6AU     LIG 2826  32.434  11.745   7.587
    6AU     LIG 2827  32.894  11.584   7.595
    6AU     LIG 2828  33.134  11.162   7.583
    6AU     LIG 2829  33.564  10.962   7.647
    6AU       S 2830  31.574  12.232   8.079
    6AU     LIG 2831  31.793  11.875   8.296
    6AU     LIG 2832  31.846  11.582   8.654
    6AU     LIG 2833  32.144  11.336   8.920
    6AU     LIG 2834  32.536  11.359   9.190
    6AU     LIG 2835  32.941  11.420   9.431
    6AU    AUSL 2836  31.517  12.764   7.315
    6AU    AUSL 2837  31.196  12.447   7.237
    6AU     AUL 2838  31.506  12.433   7.179
    6AU       S 2839  31.956  12.510   7.373
    6AU     LIG 2840  32.331  12.191   7.331
    6AU     LIG 2841  32.795  12.009   7.304
    6AU     LIG 2842  33.246  11.814   7.266
    6AU     LIG 2843  33.729  11.811   7.321
    6AU     LIG 2844  34.107  11.770   7.053
    6AU       S 2845  31.450  12.216   6.728
    6AU     LIG 2846  31.620  11.784   6.616
    6AU     LIG 2847  31.782  11.342   6.486
    6AU     LIG 2848  31.855  10.852   6.396
    6AU     LIG 2849  32.125  10.440   6.345
    6AU     LIG 2850  32.450  10.098   6.273
    6AU    AUSL 2851  30.110  12.589   7.510
    6AU    AUSL 2852  30.178  12.785   7.050
    6AU     AUL 2853  29.931  12.534   7.231
    6AU       S 2854  29.910  12.629   6.731
    6AU     LIG 2855  29.478  12.488   6.592
    6AU     LIG 2856  29.117  12.168   6.576
    6AU     LIG 2857  28.930  11.793   6.367
    6AU     LIG 2858  28.775  11.457   6.071
    6AU     LIG 2859  28.686  11.408   5.617
    6AU       S 2860  29.535  12.561   7.532
    6AU     LIG 2861  29.269  12.359   7.835
    6AU     LIG 2862  28.842  12.212   7.808
    6AU     LIG 2863  28.410  12.097   7.914
    6AU     LIG 2864  28.096  11.777   7.754
    6AU     LIG 2865  27.738  11.502   7.857
    6AU    AUSL 2866  30.014  12.885   7.683
    6AU    AUSL 2867  30.263  12.462   7.804
    6AU     AUL 2868  29.936  12.579   7.827
    6AU       S 2869  29.979  12.193   8.147
    6AU     LIG 2870  29.595  11.913   8.097
    6AU     LIG 2871  29.265  11.573   8.179
    6AU     LIG 2872  29.150  11.252   8.517
    6AU     LIG 2873  28.925  10.862   8.669
    6AU     LIG 2874  28.618  10.512   8.786
    6AU       S 2875  29.522  12.806   7.628
    6AU     LIG 2876  29.078  12.886   7.783
    6AU     LIG 2877  28.594  12.922   7.818
    6AU     LIG 2878  28.201  12.648   7.820
    6AU     LIG 2879  27.981  12.272   7.690
    6AU     LIG 2880  27.671  12.018   7.923
    6AU    AUSL 2881  30.808  13.665   7.966
    6AU    AUSL 2882  30.365  13.650   7.799
    6AU     AUL 2883  30.546  13.761   8.183
    6AU       S 2884  30.117  13.964   7.970
    6AU     LIG 2885  29.808  14.198   8.292
    6AU     LIG 2886  29.689  14.368   8.723
    6AU     LIG 2887  29.461  14.700   8.989
    6AU     LIG 2888  29.222  15.129   9.019
    6AU     LIG 2889  29.030  15.565   8.914
    6AU       S 2890  30.814  14.173   8.054
    6AU     LIG 2891  30.996  14.393   8.401
    6AU     LIG 2892  31.150  14.800   8.545
    6AU     LIG 2893  31.122  15.161   8.852
    6AU     LIG 2894  31.113  15.415   9.265
    6AU     LIG 2895  31.101  15.780   9.579
    6AU    AUSL 2896  30.648  13.785   7.654
    6AU    AUSL 2897  30.968  13.807   7.346
    6AU     AUL 2898  30.578  14.043   7.403
    6AU       S 2899  30.638  14.209   7.872
    6AU     LIG 2900  30.698  14.661   8.055
    6AU     LIG 2901  30.916  15.066   8.168
    6AU     LIG 2902  30.799  15.530   8.256
    6AU     LIG 2903  30.595  15.970   8.284
    6AU     LIG 2904  30.369  16.394   8.265
    6AU       S 2905  31.039  14.241   7.232
    6AU     LIG 2906  31.321  14.533   6.989
    6AU     LIG 2907  31.433  14.947   6.766
    6AU     LIG 2908  31.778  15.309   6.723
    6AU     LIG 2909  31.946  15.752   6.632
    6AU     LIG 2910  31.959  16.226   6.587
    6AU    AUSL 2911  31.011  13.762   7.683
    6AU    AUSL 2912  31.095  13.483   8.074
    6AU     AUL 2913  31.163  13.821   7.998
    6AU       S 2914  31.416  13.661   8.421
    6AU     LIG 2915  31.689  13.657   8.806
    6AU     LIG 2916  31.990  13.945   9.025
    6AU     LIG 2917  32.183  14.346   9.208
    6AU     LIG 2918  32.185  14.684   9.552
    6AU     LIG 2919  32.040  14.984   9.907
    6AU       S 2920  30.968  14.232   7.757
    6AU     LIG 2921  31.203  14.614   7.986
    6AU     LIG 2922  31.475  14.983   8.170
    6AU     LIG 2923  31.850  15.309   8.239
    6AU     LIG 2924  31.941  15.766   8.315
    6AU     LIG 2925  31.966  16.231   8.354
    6AU    AUSL 2926  30.752  12.385   7.962
    6AU    AUSL 2927  31.131  12.396   7.812
    6AU     AUL 2928  30.925  12.360   8.256
    6AU       S 2929  30.899  11.891   8.047
    6AU     LIG 2930  30.790  11.555   8.332
    6AU     LIG 2931  30.569  11.167   8.398
    6AU     LIG 2932  30.592  10.708   8.428
    6AU     LIG 2933  30.538  10.424   8.800
    6AU     LIG 2934  30.522  10.377   9.281
    6AU       S 2935  31.365  12.101   7.921
    6AU     LIG 2936  31.535  11.692   7.899
    6AU     LIG 2937  31.661  11.354   8.208
    6AU     LIG 2938  31.839  11.074   8.548
    6AU     LIG 2939  31.995  10.676   8.705
    6AU     LIG 2940  32.155  10.251   8.853
    6AU    AUSL 2941  30.550  12.335   7.675
    6AU    AUSL 2942  30.470  12.559   8.088
    6AU     AUL 2943  30.457  12.192   7.988
    6AU       S 2944  30.738  11.773   7.843
    6AU     LIG 2945  30.588  11.338   7.897
    6AU     LIG 2946  30.416  10.904   7.978
    6AU     LIG 2947  30.154  10.539   8.146
    6AU     LIG 2948  29.871  10.141   8.182
    6AU     LIG 2949  29.863   9.708   8.371
    6AU       S 2950  30.183  12.307   8.410
    6AU     LIG 2951  29.805  12.021   8.584
    6AU     LIG 2952  29.505  11.688   8.609
    6AU     LIG 2953  29.335  11.467   8.966
    6AU     LIG 2954  29.436  11.474   9.429
    6AU     LIG 2955  29.440  11.283   9.863
    6AU    AUSL 2956  30.867  12.238   7.655
    6AU    AUSL 2957  30.543  12.277   7.327
    6AU     AUL 2958  30.423  12.073   7.604
    6AU       S 2959  30.581  11.805   7.202
    6AU     LIG 2960  30.310  11.447   7.064
    6AU     LIG 2961  30.222  10.988   7.062
    6AU     LIG 2962  30.144  10.573   6.848
    6AU     LIG 2963  29.882  10.159   6.809
    6AU     LIG 2964  29.942   9.696   6.884
    6AU       S 2965  30.977  11.857   7.756
    6AU     LIG 2966  31.101  11.418   7.947
    6AU     LIG 2967  30.945  10.987   8.091
    6AU     LIG 2968  30.954  10.517   8.061
    6AU     LIG 2969  31.282  10.158   8.054
    6AU     LIG 2970  31.590   9.813   8.143
    6AU    AUSL 2971  30.845  13.669   7.011
    6AU    AUSL 2972  31.211  13.559   7.264
    6AU     AUL 2973  31.191  13.796   7.053
    6AU       S 2974  30.922  14.139   6.819
    6AU     LIG 2975  31.156  14.415   6.515
    6AU     LIG 2976  31.145  14.849   6.322
    6AU     LIG 2977  31.112  15.131   5.918
    6AU     LIG 2978  30.938  15.525   5.692
    6AU     LIG 2979  30.931  15.985   5.553
    6AU       S 2980  31.695  13.754   6.943
    6AU     LIG 2981  31.997  14.025   6.693
    6AU     LIG 2982  32.296  14.210   6.389
    6AU     LIG 2983  32.405  14.504   6.048
    6AU     LIG 2984  32.538  14.973   6.054
    6AU     LIG 2985  32.876  15.313   5.950
    6AU    AUSL 2986  30.641  13.722   7.298
    6AU    AUSL 2987  30.536  13.512   6.944
    6AU     AUL 2988  30.523  13.862   6.999
    6AU       S 2989  30.848  14.260   7.045
    6AU     LIG 2990  30.862  14.688   6.828
    6AU     LIG 2991  30.881  15.137   6.690
    6AU     LIG 2992  30.594  15.532   6.656
    6AU     LIG 2993  30.315  15.908   6.520
    6AU     LIG 2994  30.101  16.260   6.278
    6AU       S 2995  30.107  13.778   6.701
    6AU     LIG 2996  30.035  13.943   6.252
    6AU     LIG 2997  29.931  14.183   5.853
    6AU     LIG 2998  29.762  14.267   5.417
    6AU     LIG 2999  29.662  14.475   5.001
    6AU     LIG 3000  29.571  14.809   4.680
    6AU    AUSL 3001  30.736  12.373   7.032
    6AU    AUSL 3002  30.283  12.481   7.211
    6AU     AUL 3003  30.405  12.239   6.977
    6AU       S 3004  29.953  12.343   6.773
    6AU     LIG 3005  29.615  12.019   6.755
    6AU     LIG 3006  29.293  11.681   6.709
    6AU     LIG 3007  29.079  11.317   6.491
    6AU     LIG 3008  28.853  10.965   6.278
    6AU     LIG 3009  28.506  10.639   6.276
    6AU       S 3010  30.728  11.844   6.963
    6AU     LIG 3011  30.641  11.513   6.675
    6AU     LIG 3012  30.458  11.098   6.621
    6AU     LIG 3013  30.577  10.650   6.537
    6AU     LIG 3014  30.701  10.390   6.160
    6AU     LIG 3015  30.583  10.276   5.715
    6AU    AUSL 3016  30.906  12.270   7.326
    6AU    AUSL 3017  31.021  12.538   6.929
    6AU     AUL 3018  31.081  12.188   7.056
    6AU       S 3019  30.843  11.796   7.279
    6AU     LIG 3020  30.802  11.328   7.140
    6AU     LIG 3021  30.729  10.875   6.993
    6AU     LIG 3022  30.916  10.439   6.896
    6AU     LIG 3023  30.923   9.961   6.870
    6AU     LIG 3024  31.283   9.652   6.847
    6AU       S 3025  31.196  12.337   6.584
    6AU     LIG 3026  31.215  11.959   6.330
    6AU     LIG 3027  31.430  11.581   6.172
    6AU     LIG 3028  31.758  11.308   5.971
    6AU     LIG 3029  32.018  11.198   5.592
    6AU     LIG 3030  32.043  10.951   5.195
    7AU     AUC 3031  22.629   5.795   7.511
    7AU     AUC 3032  22.902   5.779   7.353
    7AU     AUC 3033  22.894   5.779   7.680
    7AU     AUC 3034  22.366   5.810   7.341
    7AU     AUC 3035  22.360   5.812   7.672
    7AU     AUC 3036  22.481   6.072   7.504
    7AU     AUC 3037  22.813   6.053   7.514
    7AU     AUC 3038  22.443   5.535   7.508
    7AU     AUC 3039  22.772   5.515   7.511
    7AU     AUC 3040  22.612   5.630   7.777
    7AU     AUC 3041  22.637   5.962   7.778
    7AU     AUC 3042  22.626   5.630   7.245
    7AU     AUC 3043  22.648   5.959   7.242
    7AU     AUC 3044  23.171   5.770   7.201
    7AU     AUC 3045  23.175   5.755   7.518
    7AU     AUC 3046  23.150   5.759   7.841
    7AU     AUC 3047  22.117   5.814   7.170
    7AU     AUC 3048  22.085   5.819   7.506
    7AU     AUC 3049  22.105   5.830   7.832
    7AU     AUC 3050  22.340   6.337   7.498
    7AU     AUC 3051  22.668   6.341   7.503
    7AU     AUC 3052  22.982   6.306   7.517
    7AU     AUC 3053  22.263   5.285   7.508
    7AU     AUC 3054  22.586   5.243   7.498
    7AU     AUC 3055  22.907   5.240   7.519
    7AU     AUC 3056  22.594   5.474   8.037
    7AU     AUC 3057  22.613   5.797   8.060
    7AU     AUC 3058  22.640   6.126   8.028
    7AU     AUC 3059  22.636   5.472   6.991
    7AU     AUC 3060  22.663   5.796   6.971
    7AU     AUC 3061  22.668   6.116   6.978
    7AU     AUC 3062  22.881   5.617   7.955
    7AU     AUC 3063  22.915   5.949   7.957
    7AU     AUC 3064  22.912   5.624   7.076
    7AU     AUC 3065  22.936   5.958   7.086
    7AU     AUC 3066  22.344   5.645   7.950
    7AU     AUC 3067  22.359   5.981   7.948
    7AU     AUC 3068  22.360   5.642   7.073
    7AU     AUC 3069  22.378   5.968   7.052
    7AU     AUC 3070  23.093   6.033   7.364
    7AU     AUC 3071  23.090   6.041   7.693
    7AU     AUC 3072  22.209   6.092   7.323
    7AU     AUC 3073  22.203   6.101   7.671
    7AU     AUC 3074  23.055   5.494   7.357
    7AU     AUC 3075  23.036   5.485   7.685
    7AU     AUC 3076  22.161   5.548   7.346
    7AU     AUC 3077  22.170   5.539   7.683
    7AU     AUC 3078  22.488   6.252   7.774
    7AU     AUC 3079  22.829   6.233   7.784
    7AU     AUC 3080  22.429   5.356   7.783
    7AU     AUC 3081  22.750   5.337   7.773
    7AU     AUC 3082  22.492   6.234   7.218
    7AU     AUC 3083  22.823   6.234   7.236
    7AU     AUC 3084  22.431   5.361   7.231
    7AU     AUC 3085  22.765   5.343   7.235
    7AU    AUSL 3086  23.103   5.730   8.144
    7AU    AUSL 3087  22.856   5.363   8.068
    7AU     AUL 3088  23.077   5.384   8.324
    7AU       S 3089  23.197   4.889   8.207
    7AU     LIG 3090  23.151   4.468   8.395
    7AU     LIG 3091  23.352   4.206   8.737
    7AU     LIG 3092  23.632   4.055   9.087
    7AU     LIG 3093  23.725   3.806   9.486
    7AU     LIG 3094  23.778   3.662   9.944
    7AU       S 3095  23.462   5.698   8.481
    7AU     LIG 3096  23.587   5.906   8.888
    7AU     LIG 3097  23.686   5.757   9.335
    7AU     LIG 3098  23.918   5.641   9.747
    7AU     LIG 3099  24.267   5.608  10.072
    7AU     LIG 3100  24.566   5.738  10.423
    7AU    AUSL 3101  22.770   5.630   8.278
    7AU    AUSL 3102  22.468   5.963   8.283
    7AU     AUL 3103  22.718   5.853   8.565
    7AU       S 3104  23.155   5.632   8.743
    7AU     LIG 3105  23.060   5.299   9.065
    7AU     LIG 3106  23.039   5.019   9.449
    7AU     LIG 3107  23.054   4.953   9.915
    7AU     LIG 3108  23.133   4.965  10.382
    7AU     LIG 3109  23.271   4.780  10.803
    7AU       S 3110  22.249   5.812   8.748
    7AU     LIG 3111  22.051   5.756   9.174
    7AU     LIG 3112  22.035   5.591   9.611
    7AU     LIG 3113  21.904   5.598  10.056
    7AU     LIG 3114  21.955   5.913  10.422
    7AU     LIG 3115  21.892   6.348  10.626
    7AU    AUSL 3116  22.794   5.997   8.222
    7AU    AUSL 3117  23.220   6.036   8.007
    7AU     AUL 3118  23.063   5.984   8.376
    7AU       S 3119  22.782   6.377   8.576
    7AU     LIG 3120  23.081   6.387   8.942
    7AU     LIG 3121  23.396   6.480   9.291
    7AU     LIG 3122  23.506   6.557   9.751
    7AU     LIG 3123  23.561   6.485  10.226
    7AU     LIG 3124  23.600   6.410  10.696
    7AU       S 3125  23.504   6.226   8.311
    7AU     LIG 3126  23.893   6.160   8.520
    7AU     LIG 3127  24.173   6.421   8.769
    7AU     LIG 3128  24.392   6.687   9.083
    7AU     LIG 3129  24.590   6.848   9.474
    7AU     LIG 3130  24.976   6.812   9.767
    7AU    AUSL 3131  23.129   5.864   6.886
    7AU    AUSL 3132  22.979   6.211   6.944
    7AU     AUL 3133  22.988   6.204   6.598
    7AU       S 3134  23.328   5.814   6.428
    7AU     LIG 3135  23.527   5.470   6.122
    7AU     LIG 3136  23.593   5.379   5.650
    7AU     LIG 3137  23.778   5.483   5.203
    7AU     LIG 3138  24.185   5.575   4.914
    7AU     LIG 3139  24.480   5.653   4.525
    7AU       S 3140  23.448   6.371   6.706
    7AU     LIG 3141  23.672   6.552   6.331
    7AU     LIG 3142  23.930   6.736   5.968
    7AU     LIG 3143  24.208   6.966   5.654
    7AU     LIG 3144  24.281   7.268   5.304
    7AU     LIG 3145  24.083   7.534   4.969
    7AU    AUSL 3146  22.904   5.609   6.787
    7AU    AUSL 3147  23.158   5.488   7.045
    7AU     AUL 3148  23.378   5.643   6.892
    7AU       S 3149  23.333   5.195   6.646
    7AU     LIG 3150  23.515   4.934   6.278
    7AU     LIG 3151  23.815   4.558   6.189
    7AU     LIG 3152  24.108   4.252   5.947
    7AU     LIG 3153  24.471   4.134   5.655
    7AU     LIG 3154  24.873   4.290   5.444
    7AU       S 3155  23.117   5.551   6.405
    7AU     LIG 3156  23.095   5.190   6.096
    7AU     LIG 3157  23.124   5.148   5.621
    7AU     LIG 3158  23.173   5.158   5.143
    7AU     LIG 3159  23.222   5.141   4.677
    7AU     LIG 3160  23.301   4.999   4.234
    7AU    AUSL 3161  22.820   5.946   6.764
    7AU    AUSL 3162  22.525   5.631   6.793
    7AU     AUL 3163  22.660   5.749   6.503
    7AU       S 3164  22.171   5.636   6.326
    7AU     LIG 3165  22.170   5.276   6.039
    7AU     LIG 3166  22.192   5.142   5.593
    7AU     LIG 3167  21.942   5.045   5.217
    7AU     LIG 3168  21.719   4.949   4.814
    7AU     LIG 3169  21.742   4.882   4.340
    7AU       S 3170  23.111   5.812   6.288
    7AU     LIG 3171  23.134   5.637   5.836
    7AU     LIG 3172  23.234   5.614   5.368
    7AU     LIG 3173  23.298   5.632   4.894
    7AU     LIG 3174  23.353   5.950   4.528
    7AU     LIG 3175  23.515   6.366   4.329
    7AU    AUSL 3176  22.162   5.883   8.145
    7AU    AUSL 3177  22.359   6.235   8.068
    7AU     AUL 3178  22.250   6.203   8.405
    7AU       S 3179  22.017   5.779   8.641
    7AU     LIG 3180  21.793   5.430   8.864
    7AU     LIG 3181  21.691   5.346   9.323
    7AU     LIG 3182  21.467   5.393   9.750
    7AU     LIG 3183  21.099   5.499  10.032
    7AU     LIG 3184  20.872   5.668  10.402
    7AU       S 3185  21.900   6.551   8.228
    7AU     LIG 3186  21.920   6.770   8.661
    7AU     LIG 3187  21.850   7.012   9.062
    7AU     LIG 3188  21.684   7.061   9.504
    7AU     LIG 3189  21.595   7.246   9.935
    7AU     LIG 3190  21.435   7.601  10.202
    7AU    AUSL 3191  22.373   5.620   8.235
    7AU    AUSL 3192  22.086   5.539   7.981
    7AU     AUL 3193  21.901   5.704   8.168
    7AU       S 3194  21.887   5.245   8.376
    7AU     LIG 3195  21.421   5.150   8.391
    7AU     LIG 3196  21.089   4.831   8.446
    7AU     LIG 3197  20.840   4.502   8.657
    7AU     LIG 3198  20.572   4.183   8.881
    7AU     LIG 3199  20.368   3.875   9.181
    7AU       S 3200  22.242   5.553   8.608
    7AU     LIG 3201  22.274   5.323   9.009
    7AU     LIG 3202  22.154   5.122   9.414
    7AU     LIG 3203  21.896   5.118   9.803
    7AU     LIG 3204  21.591   5.063  10.162
    7AU     LIG 3205  21.562   4.850  10.590
    7AU    AUSL 3206  22.208   5.767   6.839
    7AU    AUSL 3207  22.315   5.385   6.943
    7AU     AUL 3208  22.451   5.379   6.637
    7AU       S 3209  21.976   5.751   6.468
    7AU     LIG 3210  21.712   5.481   6.184
    7AU     LIG 3211  21.714   5.286   5.747
    7AU     LIG 3212  21.509   5.309   5.315
    7AU     LIG 3213  21.155   5.282   5.004
    7AU     LIG 3214  20.946   5.562   4.689
    7AU       S 3215  21.947   5.264   6.600
    7AU     LIG 3216  21.666   4.990   6.312
    7AU     LIG 3217  21.393   4.616   6.252
    7AU     LIG 3218  21.171   4.250   6.073
    7AU     LIG 3219  20.999   4.022   5.705
    7AU     LIG 3220  20.864   3.919   5.254
    7AU    AUSL 3221  22.483   5.980   6.757
    7AU    AUSL 3222  22.085   6.086   6.999
    7AU     AUL 3223  22.243   6.140   6.651
    7AU       S 3224  21.763   6.273   6.718
    7AU     LIG 3225  21.479   6.452   6.434
    7AU     LIG 3226  21.377   6.717   6.087
    7AU     LIG 3227  21.143   6.727   5.683
    7AU     LIG 3228  20.775   6.724   5.386
    7AU     LIG 3229  20.640   6.991   5.036
    7AU       S 3230  22.228   5.865   6.242
    7AU     LIG 3231  22.020   5.716   5.825
    7AU     LIG 3232  21.971   5.563   5.371
    7AU     LIG 3233  22.005   5.660   4.899
    7AU     LIG 3234  22.008   5.940   4.491
    7AU     LIG 3235  21.928   6.280   4.149
    7AU    AUSL 3236  23.296   6.196   7.497
    7AU    AUSL 3237  23.268   6.083   7.138
    7AU     AUL 3238  23.352   6.507   7.387
    7AU       S 3239  23.555   6.200   6.894
    7AU     LIG 3240  23.961   6.248   6.695
    7AU     LIG 3241  24.187   6.471   6.348
    7AU     LIG 3242  24.451   6.708   6.029
    7AU     LIG 3243  24.731   6.878   5.680
    7AU     LIG 3244  25.127   6.769   5.414
    7AU       S 3245  23.799   6.266   7.330
    7AU     LIG 3246  24.264   6.470   7.361
    7AU     LIG 3247  24.749   6.522   7.483
    7AU     LIG 3248  25.217   6.653   7.486
    7AU     LIG 3249  25.487   7.033   7.396
    7AU     LIG 3250  25.485   7.511   7.387
    7AU    AUSL 3251  23.418   5.868   7.373
    7AU    AUSL 3252  23.345   5.588   7.668
    7AU     AUL 3253  23.670   5.725   7.700
    7AU       S 3254  23.799   5.958   7.246
    7AU     LIG 3255  24.229   6.031   7.103
    7AU     LIG 3256  24.685   6.093   7.213
    7AU     LIG 3257  25.163   6.177   7.279
    7AU     LIG 3258  25.665   6.213   7.211
    7AU     LIG 3259  26.141   6.324   7.059
    7AU       S 3260  23.787   5.219   7.606
    7AU     LIG 3261  24.207   5.013   7.776
    7AU     LIG 3262  24.647   4.796   7.776
    7AU     LIG 3263  25.090   4.601   7.779
    7AU     LIG 3264  25.504   4.466   7.978
    7AU     LIG 3265  25.855   4.742   8.125
    7AU    AUSL 3266  23.379   5.933   7.715
    7AU    AUSL 3267  23.144   6.336   7.791
    7AU     AUL 3268  23.487   6.255   7.795
    7AU       S 3269  23.466   6.529   8.216
    7AU     LIG 3270  23.838   6.689   8.464
    7AU     LIG 3271  24.117   6.957   8.744
    7AU     LIG 3272  24.434   7.232   8.976
    7AU     LIG 3273  24.697   7.658   8.947
    7AU     LIG 3274  24.898   8.093   8.818
    7AU       S 3275  23.893   6.125   7.511
    7AU     LIG 3276  24.347   6.036   7.619
    7AU     LIG 3277  24.811   6.069   7.719
    7AU     LIG 3278  25.250   6.225   7.783
    7AU     LIG 3279  25.644   6.461   7.807
    7AU     LIG 3280  26.047   6.436   8.057
    7AU    AUSL 3281  22.047   6.314   7.515
    7AU    AUSL 3282  22.038   6.131   7.933
    7AU     AUL 3283  21.742   6.325   7.705
    7AU       S 3284  21.758   6.279   8.222
    7AU     LIG 3285  21.567   6.394   8.617
    7AU     LIG 3286  21.451   6.720   8.924
    7AU     LIG 3287  21.240   6.841   9.324
    7AU     LIG 3288  20.861   6.830   9.612
    7AU     LIG 3289  20.499   6.947   9.897
    7AU       S 3290  21.879   6.771   7.478
    7AU     LIG 3291  21.438   6.995   7.505
    7AU     LIG 3292  20.995   7.227   7.530
    7AU     LIG 3293  20.549   7.451   7.546
    7AU     LIG 3294  20.174   7.760   7.556
    7AU     LIG 3295  19.774   7.992   7.700
    7AU    AUSL 3296  21.933   5.987   7.287
    7AU    AUSL 3297  22.180   6.387   7.205
    7AU     AUL 3298  21.814   6.292   7.234
    7AU       S 3299  21.564   5.878   6.938
    7AU     LIG 3300  21.225   6.228   6.836
    7AU     LIG 3301  20.787   6.480   6.813
    7AU     LIG 3302  20.336   6.721   6.846
    7AU     LIG 3303  19.905   6.989   6.851
    7AU     LIG 3304  19.447   7.110   6.680
    7AU       S 3305  21.883   6.722   6.968
    7AU     LIG 3306  21.597   6.914   6.635
    7AU     LIG 3307  21.572   7.176   6.240
    7AU     LIG 3308  21.402   7.586   6.044
    7AU     LIG 3309  21.159   8.019   6.022
    7AU     LIG 3310  20.937   8.469   6.041
    7AU    AUSL 3311  21.892   5.989   7.661
    7AU    AUSL 3312  21.845   5.669   7.357
    7AU     AUL 3313  21.617   6.025   7.435
    7AU       S 3314  21.370   5.574   7.423
    7AU     LIG 3315  20.917   5.462   7.315
    7AU     LIG 3316  20.453   5.362   7.400
    7AU     LIG 3317  20.026   5.295   7.217
    7AU     LIG 3318  19.623   5.075   7.087
    7AU     LIG 3319  19.191   5.263   6.996
    7AU       S 3320  21.476   5.957   7.951
    7AU     LIG 3321  21.066   6.151   8.048
    7AU     LIG 3322  20.639   6.352   8.026
    7AU     LIG 3323  20.209   6.554   8.007
    7AU     LIG 3324  19.773   6.535   8.128
    7AU     LIG 3325  19.416   6.801   8.184
    7AU    AUSL 3326  23.233   5.278   7.569
    7AU    AUSL 3327  23.170   5.450   7.945
    7AU     AUL 3328  23.494   5.475   7.926
    7AU       S 3329  23.588   5.047   7.615
    7AU     LIG 3330  23.839   4.673   7.660
    7AU     LIG 3331  24.275   4.512   7.554
    7AU     LIG 3332  24.738   4.358   7.483
    7AU     LIG 3333  25.211   4.218   7.453
    7AU     LIG 3334  25.644   4.089   7.620
    7AU       S 3335  23.420   5.012   8.107
    7AU     LIG 3336  23.639   4.690   8.377
    7AU     LIG 3337  23.825   4.413   8.712
    7AU     LIG 3338  24.129   4.164   8.972
    7AU     LIG 3339  24.484   4.164   9.290
    7AU     LIG 3340  24.775   4.256   9.661
    7AU    AUSL 3341  23.364   5.532   7.322
    7AU    AUSL 3342  23.040   5.225   7.255
    7AU     AUL 3343  23.348   5.190   7.192
    7AU       S 3344  23.795   5.325   7.367
    7AU     LIG 3345  24.114   4.956   7.282
    7AU     LIG 3346  24.586   4.811   7.264
    7AU     LIG 3347  25.070   4.699   7.255
    7AU     LIG 3348  25.492   4.764   7.018
    7AU     LIG 3349  25.972   4.744   7.076
    7AU       S 3350  23.278   4.984   6.733
    7AU     LIG 3351  23.460   4.571   6.639
    7AU     LIG 3352  23.643   4.171   6.489
    7AU     LIG 3353  23.969   3.891   6.307
    7AU     LIG 3354  24.266   3.520   6.371
    7AU     LIG 3355  24.649   3.232   6.377
    7AU    AUSL 3356  21.957   5.363   7.528
    7AU    AUSL 3357  22.020   5.568   7.064
    7AU     AUL 3358  21.774   5.313   7.247
    7AU       S 3359  21.753   5.431   6.749
    7AU     LIG 3360  21.342   5.284   6.600
    7AU     LIG 3361  21.069   4.925   6.518
    7AU     LIG 3362  20.851   4.599   6.279
    7AU     LIG 3363  20.644   4.293   5.989
    7AU     LIG 3364  20.529   4.174   5.556
    7AU       S 3365  21.388   5.343   7.565
    7AU     LIG 3366  21.067   5.014   7.504
    7AU     LIG 3367  20.645   4.892   7.334
    7AU     LIG 3368  20.178   4.831   7.400
    7AU     LIG 3369  19.882   4.547   7.629
    7AU     LIG 3370  19.502   4.255   7.671
    7AU    AUSL 3371  21.876   5.654   7.716
    7AU    AUSL 3372  22.129   5.229   7.806
    7AU     AUL 3373  21.798   5.339   7.863
    7AU       S 3374  21.875   5.000   8.225
    7AU     LIG 3375  21.523   4.659   8.216
    7AU     LIG 3376  21.147   4.341   8.261
    7AU     LIG 3377  20.828   4.023   8.443
    7AU     LIG 3378  20.677   3.700   8.754
    7AU     LIG 3379  20.381   3.337   8.793
    7AU       S 3380  21.387   5.581   7.655
    7AU     LIG 3381  20.928   5.738   7.744
    7AU     LIG 3382  20.420   5.758   7.724
    7AU     LIG 3383  20.014   5.469   7.706
    7AU     LIG 3384  19.752   5.070   7.606
    7AU     LIG 3385  19.454   4.768   7.839
    7AU    AUSL 3386  22.659   6.441   7.962
    7AU    AUSL 3387  22.226   6.422   7.805
    7AU     AUL 3388  22.407   6.536   8.190
    7AU       S 3389  21.987   6.742   7.966
    7AU     LIG 3390  21.732   7.036   8.269
    7AU     LIG 3391  21.690   7.331   8.655
    7AU     LIG 3392  21.643   7.821   8.778
    7AU     LIG 3393  21.347   8.204   8.837
    7AU     LIG 3394  20.938   8.462   8.739
    7AU       S 3395  22.662   6.954   8.042
    7AU     LIG 3396  22.857   7.196   8.378
    7AU     LIG 3397  22.829   7.598   8.594
    7AU     LIG 3398  22.667   8.001   8.759
    7AU     LIG 3399  22.634   8.258   9.153
    7AU     LIG 3400  22.611   8.687   9.327
    7AU    AUSL 3401  22.503   6.556   7.649
    7AU    AUSL 3402  22.829   6.574   7.334
    7AU     AUL 3403  22.431   6.806   7.397
    7AU       S 3404  22.490   6.989   7.861
    7AU     LIG 3405  22.560   7.462   8.044
    7AU     LIG 3406  22.626   7.906   8.237
    7AU     LIG 3407  22.579   8.350   8.388
    7AU     LIG 3408  22.202   8.622   8.332
    7AU     LIG 3409  22.098   9.036   8.101
    7AU       S 3410  22.902   6.987   7.227
    7AU     LIG 3411  23.127   7.312   6.980
    7AU     LIG 3412  23.099   7.707   6.732
    7AU     LIG 3413  23.077   8.180   6.663
    7AU     LIG 3414  23.241   8.639   6.662
    7AU     LIG 3415  23.436   9.090   6.671
    7AU    AUSL 3416  22.865   6.534   7.676
    7AU    AUSL 3417  22.944   6.261   8.076
    7AU     AUL 3418  23.011   6.598   7.994
    7AU       S 3419  23.268   6.449   8.419
    7AU     LIG 3420  23.563   6.429   8.796
    7AU     LIG 3421  23.846   6.669   9.079
    7AU     LIG 3422  24.070   7.005   9.328
    7AU     LIG 3423  24.049   7.264   9.732
    7AU     LIG 3424  24.116   7.618  10.049
    7AU       S 3425  22.815   6.997   7.739
    7AU     LIG 3426  23.052   7.356   7.928
    7AU     LIG 3427  23.110   7.754   8.187
    7AU     LIG 3428  23.093   8.224   8.341
    7AU     LIG 3429  23.323   8.691   8.349
    7AU     LIG 3430  23.583   9.147   8.329
    7AU    AUSL 3431  22.613   5.139   7.952
    7AU    AUSL 3432  22.986   5.170   7.821
    7AU     AUL 3433  22.765   5.139   8.259
    7AU       S 3434  22.767   4.666   8.065
    7AU     LIG 3435  22.619   4.354   8.384
    7AU     LIG 3436  22.323   4.005   8.447
    7AU     LIG 3437  22.248   3.557   8.473
    7AU     LIG 3438  22.348   3.150   8.644
    7AU     LIG 3439  22.316   2.753   8.859
    7AU       S 3440  23.226   4.879   7.937
    7AU     LIG 3441  23.418   4.472   7.959
    7AU     LIG 3442  23.603   4.178   8.288
    7AU     LIG 3443  23.817   3.899   8.623
    7AU     LIG 3444  24.069   3.508   8.776
    7AU     LIG 3445  24.410   3.166   8.760
    7AU    AUSL 3446  22.407   5.075   7.670
    7AU    AUSL 3447  22.345   5.312   8.086
    7AU     AUL 3448  22.298   4.946   7.966
    7AU       S 3449  22.612   4.552   7.912
    7AU     LIG 3450  22.368   4.160   7.955
    7AU     LIG 3451  22.117   3.760   8.015
    7AU     LIG 3452  22.011   3.298   8.084
    7AU     LIG 3453  22.097   2.886   8.275
    7AU     LIG 3454  22.032   2.464   8.442
    7AU       S 3455  22.114   5.110   8.428
    7AU     LIG 3456  21.734   4.841   8.673
    7AU     LIG 3457  21.389   4.482   8.697
    7AU     LIG 3458  21.108   4.121   8.869
    7AU     LIG 3459  20.883   3.953   9.249
    7AU     LIG 3460  20.917   3.904   9.729
    7AU    AUSL 3461  22.741   4.998   7.648
    7AU    AUSL 3462  22.386   5.052   7.315
    7AU     AUL 3463  22.375   4.780   7.542
    7AU       S 3464  22.430   4.586   7.067
    7AU     LIG 3465  22.095   4.281   6.973
    7AU     LIG 3466  22.016   3.835   7.066
    7AU     LIG 3467  21.945   3.384   6.966
    7AU     LIG 3468  21.897   2.997   6.714
    7AU     LIG 3469  22.109   2.596   6.642
    7AU       S 3470  22.856   4.608   7.765
    7AU     LIG 3471  22.894   4.150   7.999
    7AU     LIG 3472  22.631   3.732   8.122
    7AU     LIG 3473  22.527   3.241   8.169
    7AU     LIG 3474  22.604   2.783   8.363
    7AU     LIG 3475  22.880   2.395   8.502
    7AU    AUSL 3476  22.703   6.428   7.006
    7AU    AUSL 3477  23.080   6.339   7.258
    7AU     AUL 3478  23.050   6.553   7.006
    7AU       S 3479  22.768   6.916   6.826
    7AU     LIG 3480  22.949   7.202   6.509
    7AU     LIG 3481  22.899   7.594   6.266
    7AU     LIG 3482  22.974   7.793   5.839
    7AU     LIG 3483  22.956   8.189   5.585
    7AU     LIG 3484  22.794   8.557   5.339
    7AU       S 3485  23.560   6.494   6.932
    7AU     LIG 3486  23.915   6.759   6.728
    7AU     LIG 3487  24.151   6.988   6.361
    7AU     LIG 3488  24.448   7.241   6.059
    7AU     LIG 3489  24.708   7.672   6.005
    7AU     LIG 3490  24.930   8.115   5.907
    7AU    AUSL 3491  22.502   6.487   7.294
    7AU    AUSL 3492  22.391   6.272   6.942
    7AU     AUL 3493  22.384   6.621   6.991
    7AU       S 3494  22.698   7.030   7.048
    7AU     LIG 3495  22.646   7.457   6.835
    7AU     LIG 3496  22.615   7.914   6.694
    7AU     LIG 3497  22.586   8.383   6.676
    7AU     LIG 3498  22.283   8.749   6.732
    7AU     LIG 3499  22.002   9.144   6.804
    7AU       S 3500  21.958   6.550   6.705
    7AU     LIG 3501  21.887   6.722   6.256
    7AU     LIG 3502  21.784   6.913   5.827
    7AU     LIG 3503  21.759   7.075   5.372
    7AU     LIG 3504  21.659   7.419   5.059
    7AU     LIG 3505  21.334   7.718   4.875
    7AU    AUSL 3506  22.583   5.152   7.023
    7AU    AUSL 3507  22.126   5.265   7.223
    7AU     AUL 3508  22.233   5.036   6.984
    7AU       S 3509  21.786   5.137   6.782
    7AU     LIG 3510  21.495   4.762   6.755
    7AU     LIG 3511  21.157   4.419   6.665
    7AU     LIG 3512  20.842   4.111   6.454
    7AU     LIG 3513  20.435   3.905   6.282
    7AU     LIG 3514  20.120   3.552   6.348
    7AU       S 3515  22.602   4.714   6.823
    7AU     LIG 3516  22.463   4.326   6.608
    7AU     LIG 3517  22.258   3.897   6.612
    7AU     LIG 3518  22.205   3.421   6.517
    7AU     LIG 3519  22.175   2.996   6.281
    7AU     LIG 3520  22.127   2.777   5.858
    7AU    AUSL 3521  22.741   5.039   7.317
    7AU    AUSL 3522  22.875   5.304   6.941
    7AU     AUL 3523  22.951   4.961   7.099
    7AU       S 3524  22.670   4.551   7.140
    7AU     LIG 3525  22.550   4.060   7.044
    7AU     LIG 3526  22.451   3.574   6.966
    7AU     LIG 3527  22.382   3.098   6.881
    7AU     LIG 3528  22.535   2.654   6.923
    7AU     LIG 3529  22.952   2.458   6.851
    7AU       S 3530  23.018   5.103   6.602
    7AU     LIG 3531  23.037   4.721   6.360
    7AU     LIG 3532  23.320   4.424   6.155
    7AU     LIG 3533  23.613   4.109   5.969
    7AU     LIG 3534  23.809   3.883   5.596
    7AU     LIG 3535  23.910   3.623   5.199
    8AU     AUC 3536   3.813   2.494   7.505
    8AU     AUC 3537   4.084   2.473   7.346
    8AU     AUC 3538   4.073   2.472   7.676
    8AU     AUC 3539   3.552   2.513   7.336
    8AU     AUC 3540   3.542   2.513   7.665
    8AU     AUC 3541   3.667   2.774   7.505
    8AU     AUC 3542   3.997   2.749   7.515
    8AU     AUC 3543   3.633   2.237   7.499
    8AU     AUC 3544   3.962   2.212   7.502
    8AU     AUC 3545   3.793   2.329   7.769
    8AU     AUC 3546   3.818   2.659   7.775
    8AU     AUC 3547   3.810   2.326   7.235
    8AU     AUC 3548   3.832   2.658   7.240
    8AU     AUC 3549   4.354   2.461   7.200
    8AU     AUC 3550   4.351   2.445   7.516
    8AU     AUC 3551   4.318   2.446   7.842
    8AU     AUC 3552   3.300   2.532   7.172
    8AU     AUC 3553   3.272   2.533   7.498
    8AU     AUC 3554   3.283   2.531   7.823
    8AU     AUC 3555   3.530   3.043   7.505
    8AU     AUC 3556   3.858   3.039   7.512
    8AU     AUC 3557   4.172   2.999   7.527
    8AU     AUC 3558   3.454   1.993   7.493
    8AU     AUC 3559   3.789   1.949   7.488
    8AU     AUC 3560   4.106   1.936   7.508
    8AU     AUC 3561   3.775   2.167   8.027
    8AU     AUC 3562   3.790   2.492   8.054
    8AU     AUC 3563   3.824   2.816   8.035
    8AU     AUC 3564   3.810   2.169   6.970
    8AU     AUC 3565   3.831   2.489   6.961
    8AU     AUC 3566   3.856   2.823   6.986
    8AU     AUC 3567   4.047   2.300   7.947
    8AU     AUC 3568   4.085   2.638   7.957
    8AU     AUC 3569   4.089   2.311   7.066
    8AU     AUC 3570   4.113   2.659   7.083
    8AU     AUC 3571   3.518   2.345   7.938
    8AU     AUC 3572   3.541   2.678   7.944
    8AU     AUC 3573   3.543   2.340   7.058
    8AU     AUC 3574   3.555   2.682   7.069
    8AU     AUC 3575   4.278   2.723   7.367
    8AU     AUC 3576   4.265   2.735   7.700
    8AU     AUC 3577   3.397   2.809   7.325
    8AU     AUC 3578   3.387   2.805   7.669
    8AU     AUC 3579   4.246   2.184   7.341
    8AU     AUC 3580   4.224   2.178   7.672
    8AU     AUC 3581   3.361   2.251   7.340
    8AU     AUC 3582   3.347   2.243   7.663
    8AU     AUC 3583   3.671   2.949   7.779
    8AU     AUC 3584   4.011   2.926   7.788
    8AU     AUC 3585   3.611   2.070   7.769
    8AU     AUC 3586   3.946   2.041   7.773
    8AU     AUC 3587   3.683   2.942   7.224
    8AU     AUC 3588   4.012   2.932   7.239
    8AU     AUC 3589   3.631   2.054   7.228
    8AU     AUC 3590   3.967   2.040   7.223
    8AU    AUSL 3591   4.210   2.405   8.142
    8AU    AUSL 3592   4.085   2.053   8.111
    8AU     AUL 3593   4.488   2.234   8.242
    8AU       S 3594   4.386   1.724   8.316
    8AU     LIG 3595   4.371   1.568   8.723
    8AU     LIG 3596   4.519   1.171   8.870
    8AU     LIG 3597   4.745   0.836   9.085
    8AU     LIG 3598   4.834   0.584   9.469
    8AU     LIG 3599   4.753   0.335   9.869
    8AU       S 3600   4.210   2.091   8.643
    8AU     LIG 3601   4.475   1.982   9.031
    8AU     LIG 3602   4.710   1.918   9.450
    8AU     LIG 3603   5.103   1.969   9.716
    8AU     LIG 3604   5.495   2.160   9.917
    8AU     LIG 3605   5.728   2.389  10.260
    8AU    AUSL 3606   3.888   2.302   8.267
    8AU    AUSL 3607   3.662   2.647   8.279
    8AU     AUL 3608   3.927   2.552   8.566
    8AU       S 3609   3.886   2.049   8.640
    8AU     LIG 3610   3.990   1.793   9.023
    8AU     LIG 3611   4.268   1.651   9.390
    8AU     LIG 3612   4.390   1.696   9.859
    8AU     LIG 3613   4.391   1.744  10.348
    8AU     LIG 3614   4.396   1.653  10.823
    8AU       S 3615   3.459   2.470   8.738
    8AU     LIG 3616   3.281   2.407   9.178
    8AU     LIG 3617   3.119   2.320   9.616
    8AU     LIG 3618   2.997   2.260  10.066
    8AU     LIG 3619   2.946   2.548  10.443
    8AU     LIG 3620   2.858   2.943  10.706
    8AU    AUSL 3621   3.998   2.686   8.243
    8AU    AUSL 3622   4.392   2.702   8.030
    8AU     AUL 3623   4.317   2.582   8.417
    8AU       S 3624   3.990   3.058   8.579
    8AU     LIG 3625   4.242   3.156   8.975
    8AU     LIG 3626   4.412   3.155   9.433
    8AU     LIG 3627   4.368   3.161   9.925
    8AU     LIG 3628   4.410   3.243  10.403
    8AU     LIG 3629   4.448   3.332  10.867
    8AU       S 3630   4.665   2.941   8.321
    8AU     LIG 3631   5.089   2.952   8.459
    8AU     LIG 3632   5.394   3.157   8.724
    8AU     LIG 3633   5.578   3.395   9.081
    8AU     LIG 3634   5.891   3.526   9.414
    8AU     LIG 3635   6.214   3.426   9.770
    8AU    AUSL 3636   4.264   2.516   6.914
    8AU    AUSL 3637   4.175   2.921   6.929
    8AU     AUL 3638   4.317   2.758   6.619
    8AU       S 3639   4.348   2.286   6.337
    8AU     LIG 3640   4.679   2.106   6.066
    8AU     LIG 3641   4.877   2.034   5.644
    8AU     LIG 3642   4.942   2.040   5.175
    8AU     LIG 3643   5.116   2.052   4.736
    8AU     LIG 3644   5.510   2.111   4.457
    8AU       S 3645   4.614   3.148   6.707
    8AU     LIG 3646   4.670   3.407   6.333
    8AU     LIG 3647   5.024   3.469   6.038
    8AU     LIG 3648   5.320   3.718   5.774
    8AU     LIG 3649   5.498   3.848   5.361
    8AU     LIG 3650   5.384   4.101   4.987
    8AU    AUSL 3651   4.019   2.326   6.751
    8AU    AUSL 3652   4.375   2.188   7.020
    8AU     AUL 3653   4.494   2.425   6.780
    8AU       S 3654   4.589   1.940   6.657
    8AU     LIG 3655   4.774   1.660   6.289
    8AU     LIG 3656   5.053   1.294   6.176
    8AU     LIG 3657   5.341   0.957   6.032
    8AU     LIG 3658   5.723   0.902   5.768
    8AU     LIG 3659   6.075   1.068   5.492
    8AU       S 3660   4.082   2.185   6.362
    8AU     LIG 3661   4.227   1.864   6.064
    8AU     LIG 3662   4.425   1.803   5.653
    8AU     LIG 3663   4.505   1.766   5.182
    8AU     LIG 3664   4.602   1.822   4.717
    8AU     LIG 3665   4.633   1.717   4.248
    8AU    AUSL 3666   3.991   2.678   6.756
    8AU    AUSL 3667   3.642   2.309   6.741
    8AU     AUL 3668   3.790   2.578   6.508
    8AU       S 3669   3.399   2.327   6.289
    8AU     LIG 3670   3.199   2.073   5.950
    8AU     LIG 3671   3.045   1.853   5.563
    8AU     LIG 3672   2.976   1.769   5.108
    8AU     LIG 3673   2.787   1.727   4.685
    8AU     LIG 3674   2.763   1.612   4.234
    8AU       S 3675   4.183   2.461   6.227
    8AU     LIG 3676   4.300   2.304   5.791
    8AU     LIG 3677   4.495   2.253   5.357
    8AU     LIG 3678   4.607   2.317   4.886
    8AU     LIG 3679   4.697   2.603   4.499
    8AU     LIG 3680   4.931   2.963   4.264
    8AU    AUSL 3681   3.344   2.586   8.140
    8AU    AUSL 3682   3.538   2.924   8.075
    8AU     AUL 3683   3.434   2.884   8.415
    8AU       S 3684   3.205   2.451   8.636
    8AU     LIG 3685   2.980   2.118   8.881
    8AU     LIG 3686   2.777   2.082   9.312
    8AU     LIG 3687   2.606   2.136   9.751
    8AU     LIG 3688   2.326   2.040  10.127
    8AU     LIG 3689   2.067   2.205  10.485
    8AU       S 3690   3.078   3.222   8.239
    8AU     LIG 3691   2.985   3.395   8.671
    8AU     LIG 3692   2.848   3.583   9.072
    8AU     LIG 3693   2.930   3.832   9.465
    8AU     LIG 3694   2.804   4.142   9.802
    8AU     LIG 3695   2.518   4.385  10.090
    8AU    AUSL 3696   3.533   2.313   8.217
    8AU    AUSL 3697   3.252   2.239   7.965
    8AU     AUL 3698   3.072   2.422   8.157
    8AU       S 3699   3.041   1.945   8.328
    8AU     LIG 3700   2.576   1.876   8.291
    8AU     LIG 3701   2.275   1.547   8.415
    8AU     LIG 3702   2.024   1.213   8.639
    8AU     LIG 3703   1.743   0.871   8.842
    8AU     LIG 3704   1.325   0.794   9.085
    8AU       S 3705   3.409   2.233   8.582
    8AU     LIG 3706   3.472   1.974   8.941
    8AU     LIG 3707   3.260   1.900   9.336
    8AU     LIG 3708   3.019   1.822   9.731
    8AU     LIG 3709   2.744   1.729  10.097
    8AU     LIG 3710   2.581   1.815  10.531
    8AU    AUSL 3711   3.336   2.507   6.863
    8AU    AUSL 3712   3.519   2.043   6.947
    8AU     AUL 3713   3.289   2.145   6.734
    8AU       S 3714   3.087   2.544   6.494
    8AU     LIG 3715   2.798   2.470   6.158
    8AU     LIG 3716   2.760   2.270   5.746
    8AU     LIG 3717   2.675   2.141   5.313
    8AU     LIG 3718   2.459   2.049   4.912
    8AU     LIG 3719   2.176   1.936   4.543
    8AU       S 3720   3.036   1.709   6.813
    8AU     LIG 3721   2.740   1.411   6.622
    8AU     LIG 3722   2.506   1.106   6.355
    8AU     LIG 3723   2.307   0.928   5.960
    8AU     LIG 3724   2.342   0.698   5.535
    8AU     LIG 3725   2.420   0.357   5.201
    8AU    AUSL 3726   3.649   2.657   6.823
    8AU    AUSL 3727   3.283   2.827   7.000
    8AU     AUL 3728   3.489   2.843   6.646
    8AU       S 3729   3.022   3.033   6.699
    8AU     LIG 3730   2.628   3.034   6.490
    8AU     LIG 3731   2.497   3.292   6.138
    8AU     LIG 3732   2.366   3.484   5.727
    8AU     LIG 3733   2.029   3.527   5.389
    8AU     LIG 3734   1.647   3.659   5.132
    8AU       S 3735   3.303   2.554   6.299
    8AU     LIG 3736   3.195   2.568   5.834
    8AU     LIG 3737   3.155   2.335   5.412
    8AU     LIG 3738   3.022   2.274   4.949
    8AU     LIG 3739   2.996   2.486   4.515
    8AU     LIG 3740   2.976   2.750   4.104
    8AU    AUSL 3741   4.486   2.896   7.504
    8AU    AUSL 3742   4.451   2.767   7.127
    8AU     AUL 3743   4.526   3.199   7.368
    8AU       S 3744   4.752   2.903   6.912
    8AU     LIG 3745   5.174   2.945   6.747
    8AU     LIG 3746   5.305   3.114   6.328
    8AU     LIG 3747   5.538   3.294   5.966
    8AU     LIG 3748   5.787   3.502   5.630
    8AU     LIG 3749   6.157   3.714   5.434
    8AU       S 3750   4.980   2.957   7.352
    8AU     LIG 3751   5.457   3.098   7.311
    8AU     LIG 3752   5.937   3.155   7.459
    8AU     LIG 3753   6.415   3.297   7.486
    8AU     LIG 3754   6.728   3.678   7.519
    8AU     LIG 3755   6.887   4.136   7.573
    8AU    AUSL 3756   4.598   2.566   7.386
    8AU    AUSL 3757   4.542   2.283   7.659
    8AU     AUL 3758   4.823   2.457   7.779
    8AU       S 3759   4.967   2.636   7.273
    8AU     LIG 3760   5.390   2.626   7.117
    8AU     LIG 3761   5.839   2.720   7.202
    8AU     LIG 3762   6.296   2.790   7.299
    8AU     LIG 3763   6.737   2.911   7.341
    8AU     LIG 3764   6.971   3.309   7.257
    8AU       S 3765   5.028   2.051   7.529
    8AU     LIG 3766   5.435   1.770   7.617
    8AU     LIG 3767   5.875   1.553   7.648
    8AU     LIG 3768   6.314   1.366   7.655
    8AU     LIG 3769   6.744   1.256   7.805
    8AU     LIG 3770   7.158   1.488   7.866
    8AU    AUSL 3771   4.523   2.624   7.717
    8AU    AUSL 3772   4.336   3.026   7.801
    8AU     AUL 3773   4.678   2.901   7.817
    8AU       S 3774   4.653   3.232   8.199
    8AU     LIG 3775   4.959   3.447   8.497
    8AU     LIG 3776   5.313   3.667   8.715
    8AU     LIG 3777   5.634   3.906   8.960
    8AU     LIG 3778   5.871   4.315   8.974
    8AU     LIG 3779   6.122   4.721   8.958
    8AU       S 3780   5.075   2.785   7.505
    8AU     LIG 3781   5.534   2.697   7.623
    8AU     LIG 3782   6.013   2.711   7.721
    8AU     LIG 3783   6.479   2.865   7.784
    8AU     LIG 3784   6.868   3.183   7.775
    8AU     LIG 3785   7.202   3.372   8.090
    8AU    AUSL 3786   3.236   3.027   7.519
    8AU    AUSL 3787   3.218   2.828   7.924
    8AU     AUL 3788   2.925   3.021   7.696
    8AU       S 3789   2.924   2.970   8.214
    8AU     LIG 3790   2.577   3.152   8.479
    8AU     LIG 3791   2.457   3.257   8.901
    8AU     LIG 3792   2.173   3.342   9.250
    8AU     LIG 3793   1.780   3.441   9.481
    8AU     LIG 3794   1.427   3.559   9.763
    8AU       S 3795   3.069   3.484   7.503
    8AU     LIG 3796   2.564   3.488   7.621
    8AU     LIG 3797   2.100   3.654   7.595
    8AU     LIG 3798   1.746   4.010   7.593
    8AU     LIG 3799   1.363   4.340   7.605
    8AU     LIG 3800   0.896   4.402   7.694
    8AU    AUSL 3801   3.115   2.727   7.278
    8AU    AUSL 3802   3.379   3.111   7.214
    8AU     AUL 3803   3.006   3.033   7.232
    8AU       S 3804   2.727   2.715   6.907
    8AU     LIG 3805   2.303   2.902   6.917
    8AU     LIG 3806   1.920   3.120   6.851
    8AU     LIG 3807   1.489   3.025   6.762
    8AU     LIG 3808   1.079   3.145   6.609
    8AU     LIG 3809   0.730   3.387   6.835
    8AU       S 3810   3.103   3.456   6.964
    8AU     LIG 3811   2.780   3.528   6.598
    8AU     LIG 3812   2.719   3.761   6.183
    8AU     LIG 3813   2.650   4.197   5.991
    8AU     LIG 3814   2.522   4.671   6.024
    8AU     LIG 3815   2.186   5.000   6.095
    8AU    AUSL 3816   3.072   2.691   7.650
    8AU    AUSL 3817   3.045   2.407   7.346
    8AU     AUL 3818   2.792   2.724   7.419
    8AU       S 3819   2.570   2.230   7.399
    8AU     LIG 3820   2.150   2.019   7.266
    8AU     LIG 3821   1.702   1.855   7.358
    8AU     LIG 3822   1.239   1.747   7.349
    8AU     LIG 3823   0.841   1.846   7.154
    8AU     LIG 3824   0.379   1.764   7.123
    8AU       S 3825   2.637   2.644   7.915
    8AU     LIG 3826   2.424   3.076   8.005
    8AU     LIG 3827   2.177   3.413   8.236
    8AU     LIG 3828   1.678   3.399   8.258
    8AU     LIG 3829   1.198   3.417   8.150
    8AU     LIG 3830   0.720   3.480   8.140
    8AU    AUSL 3831   4.428   1.966   7.558
    8AU    AUSL 3832   4.348   2.154   7.918
    8AU     AUL 3833   4.682   2.110   7.904
    8AU       S 3834   4.888   1.804   7.552
    8AU     LIG 3835   5.089   1.405   7.498
    8AU     LIG 3836   5.490   1.206   7.568
    8AU     LIG 3837   5.906   1.058   7.434
    8AU     LIG 3838   6.343   0.924   7.387
    8AU     LIG 3839   6.658   0.628   7.546
    8AU       S 3840   4.560   1.689   8.145
    8AU     LIG 3841   4.775   1.393   8.444
    8AU     LIG 3842   5.022   1.119   8.734
    8AU     LIG 3843   5.266   0.859   9.039
    8AU     LIG 3844   5.639   0.854   9.333
    8AU     LIG 3845   6.003   0.872   9.643
    8AU    AUSL 3846   4.545   2.233   7.314
    8AU    AUSL 3847   4.245   1.917   7.217
    8AU     AUL 3848   4.543   1.879   7.204
    8AU       S 3849   4.974   2.128   7.299
    8AU     LIG 3850   5.236   1.762   7.143
    8AU     LIG 3851   5.644   1.521   7.188
    8AU     LIG 3852   6.114   1.455   7.184
    8AU     LIG 3853   6.555   1.345   7.139
    8AU     LIG 3854   6.974   1.560   7.040
    8AU       S 3855   4.543   1.683   6.746
    8AU     LIG 3856   4.743   1.262   6.615
    8AU     LIG 3857   4.945   0.859   6.427
    8AU     LIG 3858   5.197   0.491   6.236
    8AU     LIG 3859   5.421   0.057   6.227
    8AU     LIG 3860   5.648  44.736   5.952
    8AU    AUSL 3861   3.129   2.089   7.457
    8AU    AUSL 3862   3.254   2.234   7.093
    8AU     AUL 3863   2.952   2.278   7.066
    8AU       S 3864   2.897   1.797   6.985
    8AU     LIG 3865   2.459   1.711   6.951
    8AU     LIG 3866   2.216   1.483   6.615
    8AU     LIG 3867   2.001   1.192   6.312
    8AU     LIG 3868   1.813   1.114   5.889
    8AU     LIG 3869   1.525   1.288   5.553
    8AU       S 3870   2.670   1.983   7.404
    8AU     LIG 3871   2.367   1.738   7.648
    8AU     LIG 3872   1.959   1.493   7.622
    8AU     LIG 3873   1.496   1.339   7.541
    8AU     LIG 3874   1.031   1.185   7.576
    8AU     LIG 3875   0.678   0.921   7.379
    8AU    AUSL 3876   3.057   2.354   7.695
    8AU    AUSL 3877   3.299   1.936   7.773
    8AU     AUL 3878   2.977   2.036   7.809
    8AU       S 3879   3.046   1.693   8.164
    8AU     LIG 3880   2.662   1.401   8.097
    8AU     LIG 3881   2.292   1.095   8.161
    8AU     LIG 3882   2.047   0.758   8.401
    8AU     LIG 3883   1.942   0.411   8.700
    8AU     LIG 3884   1.681   0.025   8.638
    8AU       S 3885   2.576   2.247   7.593
    8AU     LIG 3886   2.141   2.211   7.732
    8AU     LIG 3887   1.726   2.327   7.549
    8AU     LIG 3888   1.281   2.215   7.572
    8AU     LIG 3889   0.873   1.984   7.663
    8AU     LIG 3890   0.556   1.767   7.957
    8AU    AUSL 3891   3.837   3.131   7.972
    8AU    AUSL 3892   3.413   3.121   7.815
    8AU     AUL 3893   3.587   3.224   8.205
    8AU       S 3894   3.152   3.422   7.992
    8AU     LIG 3895   2.766   3.612   8.256
    8AU     LIG 3896   2.711   3.893   8.656
    8AU     LIG 3897   2.640   4.366   8.822
    8AU     LIG 3898   2.435   4.824   8.827
    8AU     LIG 3899   2.015   5.065   8.886
    8AU       S 3900   3.837   3.642   8.052
    8AU     LIG 3901   4.025   3.868   8.393
    8AU     LIG 3902   4.110   4.298   8.517
    8AU     LIG 3903   4.174   4.706   8.736
    8AU     LIG 3904   4.161   4.899   9.183
    8AU     LIG 3905   4.068   5.021   9.644
    8AU    AUSL 3906   3.688   3.258   7.658
    8AU    AUSL 3907   4.032   3.272   7.351
    8AU     AUL 3908   3.642   3.514   7.394
    8AU       S 3909   3.670   3.680   7.869
    8AU     LIG 3910   3.794   4.151   8.025
    8AU     LIG 3911   3.804   4.601   8.212
    8AU     LIG 3912   3.499   4.991   8.260
    8AU     LIG 3913   3.240   5.399   8.370
    8AU     LIG 3914   3.353   5.829   8.575
    8AU       S 3915   4.118   3.694   7.242
    8AU     LIG 3916   4.405   3.976   6.998
    8AU     LIG 3917   4.453   4.418   6.821
    8AU     LIG 3918   4.662   4.866   6.850
    8AU     LIG 3919   4.747   5.310   6.666
    8AU     LIG 3920   4.659   5.764   6.593
    8AU    AUSL 3921   4.051   3.225   7.691
    8AU    AUSL 3922   4.124   2.945   8.072
    8AU     AUL 3923   4.185   3.286   8.010
    8AU       S 3924   4.447   3.110   8.412
    8AU     LIG 3925   4.723   3.110   8.800
    8AU     LIG 3926   5.033   3.358   9.031
    8AU     LIG 3927   5.215   3.734   9.227
    8AU     LIG 3928   5.250   4.059   9.554
    8AU     LIG 3929   5.150   4.364   9.897
    8AU       S 3930   4.005   3.692   7.757
    8AU     LIG 3931   4.279   4.006   7.962
    8AU     LIG 3932   4.315   4.459   8.080
    8AU     LIG 3933   4.433   4.874   8.271
    8AU     LIG 3934   4.532   5.330   8.180
    8AU     LIG 3935   4.521   5.789   8.263
    8AU    AUSL 3936   3.806   1.871   7.936
    8AU    AUSL 3937   4.169   1.863   7.817
    8AU     AUL 3938   3.908   1.766   8.196
    8AU       S 3939   3.920   1.312   7.989
    8AU     LIG 3940   3.716   0.945   8.201
    8AU     LIG 3941   3.430   0.587   8.301
    8AU     LIG 3942   3.413   0.185   8.525
    8AU     LIG 3943   3.568  44.771   8.635
    8AU     LIG 3944   3.648  44.506   9.012
    8AU       S 3945   4.383   1.579   7.984
    8AU     LIG 3946   4.379   1.170   8.193
    8AU     LIG 3947   4.653   0.879   8.455
    8AU     LIG 3948   4.968   0.597   8.676
    8AU     LIG 3949   5.149   0.164   8.781
    8AU     LIG 3950   5.402  44.846   9.017
    8AU    AUSL 3951   3.595   1.812   7.661
    8AU    AUSL 3952   3.515   2.011   8.061
    8AU     AUL 3953   3.509   1.657   7.964
    8AU       S 3954   3.758   1.236   7.758
    8AU     LIG 3955   3.518   0.861   7.734
    8AU     LIG 3956   3.272   0.497   7.810
    8AU     LIG 3957   3.203   0.123   8.064
    8AU     LIG 3958   3.255  44.680   8.224
    8AU     LIG 3959   3.316  44.191   8.175
    8AU       S 3960   3.256   1.804   8.393
    8AU     LIG 3961   2.847   1.531   8.585
    8AU     LIG 3962   2.547   1.143   8.608
    8AU     LIG 3963   2.280   0.822   8.859
    8AU     LIG 3964   2.104   0.694   9.276
    8AU     LIG 3965   2.201   0.636   9.748
    8AU    AUSL 3966   3.909   1.709   7.643
    8AU    AUSL 3967   3.618   1.738   7.321
    8AU     AUL 3968   3.438   1.576   7.593
    8AU       S 3969   3.652   1.281   7.242
    8AU     LIG 3970   3.324   0.966   7.263
    8AU     LIG 3971   3.176   0.579   7.055
    8AU     LIG 3972   3.194   0.122   6.914
    8AU     LIG 3973   3.211  44.657   6.774
    8AU     LIG 3974   2.997  44.204   6.714
    8AU       S 3975   4.026   1.325   7.744
    8AU     LIG 3976   4.041   0.830   7.819
    8AU     LIG 3977   3.777   0.442   7.953
    8AU     LIG 3978   3.697  44.991   8.138
    8AU     LIG 3979   3.740  44.514   8.211
    8AU     LIG 3980   3.891  44.096   8.352
    8AU    AUSL 3981   3.906   3.135   7.018
    8AU    AUSL 3982   4.257   3.009   7.264
    8AU     AUL 3983   4.259   3.249   7.054
    8AU       S 3984   3.997   3.600   6.824
    8AU     LIG 3985   4.281   3.807   6.524
    8AU     LIG 3986   4.286   4.242   6.354
    8AU     LIG 3987   4.172   4.621   6.108
    8AU     LIG 3988   4.156   4.813   5.673
    8AU     LIG 3989   4.008   5.120   5.342
    8AU       S 3990   4.757   3.175   6.929
    8AU     LIG 3991   5.065   3.442   6.653
    8AU     LIG 3992   5.398   3.631   6.347
    8AU     LIG 3993   5.671   3.931   6.093
    8AU     LIG 3994   5.833   4.393   6.072
    8AU     LIG 3995   6.006   4.850   6.099
    8AU    AUSL 3996   3.705   3.189   7.307
    8AU    AUSL 3997   3.592   2.994   6.946
    8AU     AUL 3998   3.596   3.344   7.020
    8AU       S 3999   3.936   3.730   7.052
    8AU     LIG 4000   3.974   4.140   6.782
    8AU     LIG 4001   3.982   4.597   6.625
    8AU     LIG 4002   3.737   5.028   6.644
    8AU     LIG 4003   3.504   5.465   6.694
    8AU     LIG 4004   3.520   5.938   6.622
    8AU       S 4005   3.218   3.277   6.683
    8AU     LIG 4006   3.024   3.263   6.232
    8AU     LIG 4007   2.883   3.434   5.816
    8AU     LIG 4008   2.746   3.812   5.566
    8AU     LIG 4009   2.673   4.060   5.157
    8AU     LIG 4010   2.539   4.474   4.959
    8AU    AUSL 4011   3.802   1.851   7.035
    8AU    AUSL 4012   3.341   1.920   7.238
    8AU     AUL 4013   3.513   1.703   6.949
    8AU       S 4014   3.026   1.657   7.153
    8AU     LIG 4015   2.733   1.306   7.128
    8AU     LIG 4016   2.409   1.081   6.870
    8AU     LIG 4017   2.158   0.778   6.596
    8AU     LIG 4018   1.869   0.385   6.573
    8AU     LIG 4019   1.659  44.975   6.502
    8AU       S 4020   3.785   1.277   7.005
    8AU     LIG 4021   3.617   0.860   6.860
    8AU     LIG 4022   3.486   0.460   6.647
    8AU     LIG 4023   3.427   0.034   6.436
    8AU     LIG 4024   3.500  44.790   6.032
    8AU     LIG 4025   3.522  44.576   5.603
    8AU    AUSL 4026   3.979   1.727   7.317
    8AU    AUSL 4027   4.076   2.023   6.910
    8AU     AUL 4028   4.110   1.666   6.996
    8AU       S 4029   3.939   1.269   7.271
    8AU     LIG 4030   3.831   0.816   7.334
    8AU     LIG 4031   3.653   0.422   7.153
    8AU     LIG 4032   3.698   0.041   6.879
    8AU     LIG 4033   3.832  44.644   6.689
    8AU     LIG 4034   4.191  44.328   6.706
    8AU       S 4035   4.333   1.836   6.576
    8AU     LIG 4036   4.319   1.437   6.345
    8AU     LIG 4037   4.574   1.118   6.143
    8AU     LIG 4038   4.855   0.835   5.910
    8AU     LIG 4039   4.849   0.629   5.492
    8AU     LIG 4040   4.974   0.511   5.054
    9AU     AUC 4041   1.837  31.897   7.510
    9AU     AUC 4042   2.108  31.881   7.349
    9AU     AUC 4043   2.104  31.879   7.678
    9AU     AUC 4044   1.574  31.911   7.339
    9AU     AUC 4045   1.566  31.913   7.674
    9AU     AUC 4046   1.688  32.172   7.504
    9AU     AUC 4047   2.020  32.154   7.513
    9AU     AUC 4048   1.651  31.640   7.509
    9AU     AUC 4049   1.982  31.618   7.509
    9AU     AUC 4050   1.821  31.736   7.780
    9AU     AUC 4051   1.846  32.062   7.778
    9AU     AUC 4052   1.834  31.731   7.243
    9AU     AUC 4053   1.855  32.063   7.240
    9AU     AUC 4054   2.374  31.873   7.200
    9AU     AUC 4055   2.384  31.857   7.512
    9AU     AUC 4056   2.363  31.855   7.836
    9AU     AUC 4057   1.326  31.913   7.163
    9AU     AUC 4058   1.292  31.919   7.499
    9AU     AUC 4059   1.304  31.929   7.832
    9AU     AUC 4060   1.543  32.437   7.500
    9AU     AUC 4061   1.872  32.441   7.507
    9AU     AUC 4062   2.187  32.404   7.519
    9AU     AUC 4063   1.473  31.396   7.508
    9AU     AUC 4064   1.798  31.355   7.499
    9AU     AUC 4065   2.119  31.341   7.511
    9AU     AUC 4066   1.811  31.581   8.042
    9AU     AUC 4067   1.832  31.900   8.063
    9AU     AUC 4068   1.851  32.225   8.027
    9AU     AUC 4069   1.842  31.571   6.989
    9AU     AUC 4070   1.872  31.904   6.966
    9AU     AUC 4071   1.876  32.227   6.976
    9AU     AUC 4072   2.100  31.717   7.953
    9AU     AUC 4073   2.129  32.047   7.958
    9AU     AUC 4074   2.113  31.721   7.075
    9AU     AUC 4075   2.139  32.071   7.079
    9AU     AUC 4076   1.544  31.749   7.966
    9AU     AUC 4077   1.565  32.078   7.950
    9AU     AUC 4078   1.568  31.738   7.070
    9AU     AUC 4079   1.585  32.072   7.054
    9AU     AUC 4080   2.297  32.136   7.355
    9AU     AUC 4081   2.305  32.136   7.688
    9AU     AUC 4082   1.416  32.194   7.321
    9AU     AUC 4083   1.410  32.201   7.671
    9AU     AUC 4084   2.263  31.588   7.346
    9AU     AUC 4085   2.242  31.582   7.682
    9AU     AUC 4086   1.374  31.647   7.338
    9AU     AUC 4087   1.371  31.647   7.683
    9AU     AUC 4088   1.695  32.352   7.774
    9AU     AUC 4089   2.039  32.330   7.784
    9AU     AUC 4090   1.629  31.476   7.791
    9AU     AUC 4091   1.956  31.445   7.775
    9AU     AUC 4092   1.696  32.338   7.220
    9AU     AUC 4093   2.026  32.341   7.235
    9AU     AUC 4094   1.644  31.460   7.232
    9AU     AUC 4095   1.984  31.440   7.232
    9AU    AUSL 4096   2.335  31.825   8.135
    9AU    AUSL 4097   2.072  31.461   8.073
    9AU     AUL 4098   2.287  31.482   8.337
    9AU       S 4099   2.412  30.993   8.194
    9AU     LIG 4100   2.330  30.589   8.380
    9AU     LIG 4101   2.504  30.330   8.725
    9AU     LIG 4102   2.775  30.154   9.056
    9AU     LIG 4103   2.918  29.799   9.311
    9AU     LIG 4104   2.832  29.603   9.727
    9AU       S 4105   2.684  31.800   8.466
    9AU     LIG 4106   2.839  31.976   8.877
    9AU     LIG 4107   2.995  31.789   9.292
    9AU     LIG 4108   3.245  31.561   9.641
    9AU     LIG 4109   3.512  31.517  10.039
    9AU     LIG 4110   3.880  31.655  10.325
    9AU    AUSL 4111   2.013  31.742   8.274
    9AU    AUSL 4112   1.671  32.064   8.279
    9AU     AUL 4113   1.927  31.947   8.561
    9AU       S 4114   2.385  31.755   8.738
    9AU     LIG 4115   2.171  31.460   9.053
    9AU     LIG 4116   2.166  31.194   9.450
    9AU     LIG 4117   2.423  31.048   9.823
    9AU     LIG 4118   2.503  30.965  10.289
    9AU     LIG 4119   2.742  30.863  10.695
    9AU       S 4120   1.451  31.966   8.755
    9AU     LIG 4121   1.259  31.872   9.183
    9AU     LIG 4122   1.237  31.696   9.626
    9AU     LIG 4123   1.231  31.789  10.088
    9AU     LIG 4124   1.175  32.127  10.432
    9AU     LIG 4125   0.989  32.465  10.731
    9AU    AUSL 4126   1.997  32.111   8.231
    9AU    AUSL 4127   2.437  32.131   7.991
    9AU     AUL 4128   2.277  32.078   8.355
    9AU       S 4129   2.004  32.471   8.581
    9AU     LIG 4130   2.258  32.481   9.000
    9AU     LIG 4131   2.278  32.517   9.498
    9AU     LIG 4132   2.308  32.572   9.989
    9AU     LIG 4133   2.432  32.694  10.435
    9AU     LIG 4134   2.619  32.539  10.859
    9AU       S 4135   2.723  32.315   8.300
    9AU     LIG 4136   3.105  32.261   8.519
    9AU     LIG 4137   3.417  32.512   8.739
    9AU     LIG 4138   3.623  32.781   9.056
    9AU     LIG 4139   3.737  32.970   9.458
    9AU     LIG 4140   4.042  32.877   9.804
    9AU    AUSL 4141   2.316  31.936   6.919
    9AU    AUSL 4142   2.182  32.340   6.931
    9AU     AUL 4143   2.378  32.190   6.668
    9AU       S 4144   2.460  31.780   6.368
    9AU     LIG 4145   2.746  31.516   6.137
    9AU     LIG 4146   2.860  31.415   5.698
    9AU     LIG 4147   3.015  31.493   5.259
    9AU     LIG 4148   3.388  31.520   4.974
    9AU     LIG 4149   3.673  31.529   4.597
    9AU       S 4150   2.609  32.628   6.693
    9AU     LIG 4151   2.836  32.743   6.280
    9AU     LIG 4152   3.070  32.951   5.916
    9AU     LIG 4153   3.329  33.136   5.551
    9AU     LIG 4154   3.315  33.529   5.287
    9AU     LIG 4155   3.433  33.794   4.916
    9AU    AUSL 4156   2.091  31.720   6.771
    9AU    AUSL 4157   2.371  31.595   7.034
    9AU     AUL 4158   2.573  31.792   6.850
    9AU       S 4159   2.557  31.327   6.632
    9AU     LIG 4160   2.765  31.029   6.303
    9AU     LIG 4161   3.044  30.651   6.190
    9AU     LIG 4162   3.338  30.416   5.893
    9AU     LIG 4163   3.746  30.436   5.639
    9AU     LIG 4164   4.158  30.466   5.398
    9AU       S 4165   2.261  31.647   6.371
    9AU     LIG 4166   2.292  31.301   6.071
    9AU     LIG 4167   2.377  31.268   5.612
    9AU     LIG 4168   2.556  31.248   5.168
    9AU     LIG 4169   2.578  30.995   4.753
    9AU     LIG 4170   2.623  30.832   4.301
    9AU    AUSL 4171   2.036  32.075   6.743
    9AU    AUSL 4172   1.723  31.733   6.800
    9AU     AUL 4173   1.832  31.873   6.507
    9AU       S 4174   1.327  31.733   6.348
    9AU     LIG 4175   1.324  31.383   6.043
    9AU     LIG 4176   1.321  31.250   5.595
    9AU     LIG 4177   1.111  31.237   5.178
    9AU     LIG 4178   1.008  31.032   4.768
    9AU     LIG 4179   0.917  31.000   4.297
    9AU       S 4180   2.251  31.952   6.243
    9AU     LIG 4181   2.399  31.752   5.839
    9AU     LIG 4182   2.558  31.718   5.401
    9AU     LIG 4183   2.634  31.741   4.935
    9AU     LIG 4184   2.597  31.996   4.515
    9AU     LIG 4185   2.823  32.205   4.146
    9AU    AUSL 4186   1.361  31.971   8.155
    9AU    AUSL 4187   1.570  32.335   8.058
    9AU     AUL 4188   1.476  32.319   8.387
    9AU       S 4189   1.187  31.967   8.645
    9AU     LIG 4190   1.004  31.575   8.841
    9AU     LIG 4191   0.929  31.447   9.291
    9AU     LIG 4192   0.756  31.388   9.741
    9AU     LIG 4193   0.351  31.322  10.027
    9AU     LIG 4194  44.929  31.374  10.290
    9AU       S 4195   1.100  32.635   8.223
    9AU     LIG 4196   1.114  32.796   8.663
    9AU     LIG 4197   1.079  33.008   9.065
    9AU     LIG 4198   0.777  33.246   9.307
    9AU     LIG 4199   0.647  33.455   9.713
    9AU     LIG 4200   0.596  33.570  10.180
    9AU    AUSL 4201   1.656  31.711   8.271
    9AU    AUSL 4202   1.238  31.655   7.969
    9AU     AUL 4203   1.296  31.669   8.272
    9AU       S 4204   0.952  31.318   8.302
    9AU     LIG 4205   0.522  31.211   8.325
    9AU     LIG 4206   0.221  30.880   8.383
    9AU     LIG 4207  44.983  30.578   8.639
    9AU     LIG 4208  44.787  30.344   8.994
    9AU     LIG 4209  44.680  30.261   9.449
    9AU       S 4210   1.492  31.691   8.728
    9AU     LIG 4211   1.428  31.396   9.096
    9AU     LIG 4212   1.326  31.201   9.515
    9AU     LIG 4213   1.228  31.264   9.964
    9AU     LIG 4214   1.167  31.009  10.361
    9AU     LIG 4215   0.913  30.899  10.753
    9AU    AUSL 4216   1.411  31.873   6.840
    9AU    AUSL 4217   1.530  31.466   6.932
    9AU     AUL 4218   1.663  31.503   6.618
    9AU       S 4219   1.146  31.860   6.505
    9AU     LIG 4220   0.875  31.561   6.217
    9AU     LIG 4221   0.857  31.443   5.737
    9AU     LIG 4222   0.627  31.385   5.305
    9AU     LIG 4223   0.260  31.348   4.976
    9AU     LIG 4224  44.947  31.555   4.667
    9AU       S 4225   1.168  31.331   6.606
    9AU     LIG 4226   0.834  31.010   6.383
    9AU     LIG 4227   0.562  30.595   6.402
    9AU     LIG 4228   0.406  30.258   6.078
    9AU     LIG 4229   0.424  29.977   5.685
    9AU     LIG 4230   0.428  29.925   5.197
    9AU    AUSL 4231   1.692  32.083   6.772
    9AU    AUSL 4232   1.295  32.189   6.993
    9AU     AUL 4233   1.467  32.243   6.643
    9AU       S 4234   0.979  32.367   6.703
    9AU     LIG 4235   0.655  32.550   6.442
    9AU     LIG 4236   0.520  32.775   6.055
    9AU     LIG 4237   0.150  32.758   5.741
    9AU     LIG 4238  44.876  32.903   5.378
    9AU     LIG 4239  44.589  33.125   5.083
    9AU       S 4240   1.385  31.950   6.261
    9AU     LIG 4241   1.179  31.839   5.853
    9AU     LIG 4242   1.173  31.707   5.399
    9AU     LIG 4243   1.187  31.693   4.923
    9AU     LIG 4244   1.162  31.961   4.521
    9AU     LIG 4245   1.065  32.254   4.149
    9AU    AUSL 4246   2.501  32.286   7.496
    9AU    AUSL 4247   2.472  32.202   7.118
    9AU     AUL 4248   2.556  32.600   7.398
    9AU       S 4249   2.782  32.394   6.912
    9AU     LIG 4250   3.119  32.437   6.596
    9AU     LIG 4251   3.316  32.559   6.179
    9AU     LIG 4252   3.579  32.844   5.911
    9AU     LIG 4253   3.903  32.979   5.598
    9AU     LIG 4254   4.278  32.873   5.303
    9AU       S 4255   3.015  32.368   7.366
    9AU     LIG 4256   3.501  32.488   7.421
    9AU     LIG 4257   3.988  32.479   7.548
    9AU     LIG 4258   4.415  32.717   7.455
    9AU     LIG 4259   4.725  33.100   7.356
    9AU     LIG 4260   4.831  33.585   7.347
    9AU    AUSL 4261   2.617  31.979   7.342
    9AU    AUSL 4262   2.532  31.679   7.667
    9AU     AUL 4263   2.859  31.739   7.547
    9AU       S 4264   3.018  32.116   7.240
    9AU     LIG 4265   3.479  32.027   7.197
    9AU     LIG 4266   3.952  32.050   7.279
    9AU     LIG 4267   4.420  32.208   7.291
    9AU     LIG 4268   4.869  32.337   7.111
    9AU     LIG 4269   5.349  32.382   6.986
    9AU       S 4270   2.921  31.213   7.689
    9AU     LIG 4271   3.311  31.046   7.865
    9AU     LIG 4272   3.759  30.985   7.760
    9AU     LIG 4273   4.201  30.924   7.818
    9AU     LIG 4274   4.603  31.020   8.019
    9AU     LIG 4275   4.991  31.128   8.237
    9AU    AUSL 4276   2.614  32.016   7.704
    9AU    AUSL 4277   2.352  32.434   7.786
    9AU     AUL 4278   2.687  32.360   7.787
    9AU       S 4279   2.684  32.620   8.215
    9AU     LIG 4280   3.040  32.781   8.484
    9AU     LIG 4281   3.368  33.050   8.704
    9AU     LIG 4282   3.661  33.370   8.924
    9AU     LIG 4283   3.776  33.832   8.838
    9AU     LIG 4284   4.034  34.226   8.791
    9AU       S 4285   3.108  32.175   7.572
    9AU     LIG 4286   3.550  32.066   7.706
    9AU     LIG 4287   3.979  31.933   7.784
    9AU     LIG 4288   4.406  32.046   7.780
    9AU     LIG 4289   4.715  32.370   7.698
    9AU     LIG 4290   5.092  32.438   7.946
    9AU    AUSL 4291   1.245  32.412   7.513
    9AU    AUSL 4292   1.247  32.223   7.940
    9AU     AUL 4293   0.943  32.413   7.722
    9AU       S 4294   0.965  32.354   8.242
    9AU     LIG 4295   0.665  32.609   8.499
    9AU     LIG 4296   0.629  32.793   8.925
    9AU     LIG 4297   0.367  32.923   9.283
    9AU     LIG 4298  44.944  32.909   9.491
    9AU     LIG 4299  44.584  33.127   9.699
    9AU       S 4300   1.065  32.857   7.480
    9AU     LIG 4301   0.579  32.919   7.573
    9AU     LIG 4302   0.103  33.017   7.680
    9AU     LIG 4303  44.710  33.286   7.800
    9AU     LIG 4304  44.540  33.729   7.777
    9AU     LIG 4305  44.316  33.950   7.430
    9AU    AUSL 4306   1.145  32.089   7.284
    9AU    AUSL 4307   1.382  32.488   7.205
    9AU     AUL 4308   1.018  32.389   7.222
    9AU       S 4309   0.778  31.974   6.929
    9AU     LIG 4310   0.390  32.252   6.802
    9AU     LIG 4311  44.920  32.422   6.819
    9AU     LIG 4312  44.441  32.446   6.716
    9AU     LIG 4313  44.021  32.622   6.579
    9AU     LIG 4314  43.654  32.976   6.593
    9AU       S 4315   1.084  32.821   6.963
    9AU     LIG 4316   0.787  33.009   6.646
    9AU     LIG 4317   0.688  33.241   6.244
    9AU     LIG 4318   0.478  33.641   6.050
    9AU     LIG 4319   0.155  34.013   5.977
    9AU     LIG 4320  44.906  34.437   6.024
    9AU    AUSL 4321   1.106  32.091   7.661
    9AU    AUSL 4322   1.055  31.768   7.332
    9AU     AUL 4323   0.835  32.128   7.434
    9AU       S 4324   0.586  31.688   7.338
    9AU     LIG 4325   0.145  31.584   7.207
    9AU     LIG 4326  44.793  31.309   7.360
    9AU     LIG 4327  44.350  31.218   7.348
    9AU     LIG 4328  43.920  31.312   7.276
    9AU     LIG 4329  43.558  31.117   7.084
    9AU       S 4330   0.703  32.019   7.965
    9AU     LIG 4331   0.251  32.203   8.019
    9AU     LIG 4332  44.903  32.525   7.998
    9AU     LIG 4333  44.512  32.703   8.220
    9AU     LIG 4334  44.054  32.721   8.151
    9AU     LIG 4335  43.639  32.671   8.341
    9AU    AUSL 4336   2.436  31.373   7.552
    9AU    AUSL 4337   2.388  31.538   7.948
    9AU     AUL 4338   2.716  31.609   7.891
    9AU       S 4339   2.720  31.076   7.589
    9AU     LIG 4340   3.026  30.721   7.589
    9AU     LIG 4341   3.482  30.586   7.586
    9AU     LIG 4342   3.956  30.509   7.618
    9AU     LIG 4343   4.369  30.428   7.805
    9AU     LIG 4344   4.782  30.262   7.685
    9AU       S 4345   2.632  31.138   8.099
    9AU     LIG 4346   2.844  30.756   8.313
    9AU     LIG 4347   3.001  30.454   8.653
    9AU     LIG 4348   3.275  30.187   8.935
    9AU     LIG 4349   3.634  30.235   9.247
    9AU     LIG 4350   3.984  30.333   9.558
    9AU    AUSL 4351   2.568  31.637   7.325
    9AU    AUSL 4352   2.273  31.300   7.223
    9AU     AUL 4353   2.604  31.354   7.171
    9AU       S 4354   2.998  31.255   7.450
    9AU     LIG 4355   3.413  31.052   7.361
    9AU     LIG 4356   3.816  30.832   7.253
    9AU     LIG 4357   4.293  30.843   7.303
    9AU     LIG 4358   4.730  30.998   7.133
    9AU     LIG 4359   5.196  30.967   6.972
    9AU       S 4360   2.532  31.070   6.763
    9AU     LIG 4361   2.677  30.643   6.636
    9AU     LIG 4362   2.850  30.248   6.449
    9AU     LIG 4363   3.165  30.012   6.198
    9AU     LIG 4364   3.425  29.635   6.063
    9AU     LIG 4365   3.847  29.416   6.074
    9AU    AUSL 4366   1.179  31.470   7.512
    9AU    AUSL 4367   1.239  31.650   7.058
    9AU     AUL 4368   1.002  31.392   7.256
    9AU       S 4369   0.960  31.494   6.754
    9AU     LIG 4370   0.525  31.342   6.630
    9AU     LIG 4371   0.220  30.967   6.516
    9AU     LIG 4372   0.055  30.567   6.288
    9AU     LIG 4373  44.754  30.292   6.073
    9AU     LIG 4374  44.320  30.368   5.923
    9AU       S 4375   0.573  31.469   7.494
    9AU     LIG 4376   0.336  31.111   7.257
    9AU     LIG 4377  44.956  30.831   7.285
    9AU     LIG 4378  44.579  30.804   7.583
    9AU     LIG 4379  44.306  30.416   7.556
    9AU     LIG 4380  43.881  30.282   7.494
    9AU    AUSL 4381   1.068  31.757   7.685
    9AU    AUSL 4382   1.319  31.343   7.813
    9AU     AUL 4383   0.979  31.431   7.801
    9AU       S 4384   1.036  31.093   8.170
    9AU     LIG 4385   0.693  30.775   8.108
    9AU     LIG 4386   0.344  30.477   8.084
    9AU     LIG 4387   0.112  30.183   8.340
    9AU     LIG 4388  44.817  29.962   8.630
    9AU     LIG 4389  44.551  29.557   8.644
    9AU       S 4390   0.585  31.698   7.600
    9AU     LIG 4391   0.159  31.863   7.642
    9AU     LIG 4392  44.737  31.799   7.462
    9AU     LIG 4393  44.433  31.588   7.702
    9AU     LIG 4394  44.085  31.273   7.784
    9AU     LIG 4395  43.684  31.037   7.850
    9AU    AUSL 4396   1.873  32.538   7.969
    9AU    AUSL 4397   1.425  32.521   7.801
    9AU     AUL 4398   1.607  32.643   8.176
    9AU       S 4399   1.172  32.838   7.971
    9AU     LIG 4400   0.868  33.071   8.298
    9AU     LIG 4401   0.761  33.252   8.732
    9AU     LIG 4402   0.528  33.587   8.994
    9AU     LIG 4403   0.229  33.980   9.044
    9AU     LIG 4404  44.864  34.322   9.026
    9AU       S 4405   1.886  33.054   8.056
    9AU     LIG 4406   2.063  33.312   8.388
    9AU     LIG 4407   1.983  33.725   8.567
    9AU     LIG 4408   1.966  34.163   8.701
    9AU     LIG 4409   1.886  34.471   9.034
    9AU     LIG 4410   1.985  34.673   9.443
    9AU    AUSL 4411   1.710  32.656   7.658
    9AU    AUSL 4412   2.026  32.677   7.347
    9AU     AUL 4413   1.626  32.907   7.412
    9AU       S 4414   1.719  33.099   7.869
    9AU     LIG 4415   1.776  33.581   8.056
    9AU     LIG 4416   1.777  34.062   8.216
    9AU     LIG 4417   1.814  34.530   8.359
    9AU     LIG 4418   1.707  34.822   8.699
    9AU     LIG 4419   1.431  35.167   8.804
    9AU       S 4420   2.090  33.105   7.240
    9AU     LIG 4421   2.352  33.403   7.013
    9AU     LIG 4422   2.346  33.806   6.781
    9AU     LIG 4423   2.308  34.244   6.595
    9AU     LIG 4424   2.433  34.715   6.598
    9AU     LIG 4425   2.343  35.194   6.690
    9AU    AUSL 4426   2.073  32.632   7.683
    9AU    AUSL 4427   2.162  32.355   8.072
    9AU     AUL 4428   2.227  32.693   7.998
    9AU       S 4429   2.487  32.536   8.416
    9AU     LIG 4430   2.748  32.505   8.801
    9AU     LIG 4431   3.072  32.762   9.027
    9AU     LIG 4432   3.289  33.136   9.219
    9AU     LIG 4433   3.387  33.468   9.526
    9AU     LIG 4434   3.351  33.729   9.922
    9AU       S 4435   2.030  33.091   7.745
    9AU     LIG 4436   2.257  33.441   7.926
    9AU     LIG 4437   2.249  33.849   8.148
    9AU     LIG 4438   2.264  34.298   8.299
    9AU     LIG 4439   2.287  34.784   8.324
    9AU     LIG 4440   2.617  35.122   8.275
    9AU    AUSL 4441   1.809  31.261   7.965
    9AU    AUSL 4442   2.187  31.270   7.814
    9AU     AUL 4443   1.976  31.226   8.255
    9AU       S 4444   1.946  30.757   8.040
    9AU     LIG 4445   1.826  30.339   8.215
    9AU     LIG 4446   1.521  29.982   8.253
    9AU     LIG 4447   1.435  29.537   8.382
    9AU     LIG 4448   1.321  29.214   8.712
    9AU     LIG 4449   1.463  28.997   9.107
    9AU       S 4450   2.410  30.977   7.948
    9AU     LIG 4451   2.563  30.556   7.925
    9AU     LIG 4452   2.716  30.244   8.257
    9AU     LIG 4453   2.888  29.948   8.601
    9AU     LIG 4454   3.159  29.669   8.869
    9AU     LIG 4455   3.368  29.248   8.907
    9AU    AUSL 4456   1.605  31.217   7.683
    9AU    AUSL 4457   1.529  31.437   8.092
    9AU     AUL 4458   1.512  31.072   8.000
    9AU       S 4459   1.772  30.656   7.809
    9AU     LIG 4460   1.579  30.264   7.749
    9AU     LIG 4461   1.365  29.858   7.771
    9AU     LIG 4462   1.245  29.431   7.914
    9AU     LIG 4463   1.174  29.085   8.233
    9AU     LIG 4464   0.931  28.682   8.281
    9AU       S 4465   1.224  31.184   8.419
    9AU     LIG 4466   0.846  30.888   8.590
    9AU     LIG 4467   0.526  30.515   8.575
    9AU     LIG 4468   0.275  30.199   8.833
    9AU     LIG 4469   0.138  30.068   9.262
    9AU     LIG 4470   0.105  30.120   9.731
    9AU    AUSL 4471   1.918  31.119   7.654
    9AU    AUSL 4472   1.614  31.148   7.339
    9AU     AUL 4473   1.448  30.980   7.614
    9AU       S 4474   1.657  30.672   7.273
    9AU     LIG 4475   1.386  30.273   7.269
    9AU     LIG 4476   1.269  29.813   7.258
    9AU     LIG 4477   1.071  29.449   7.022
    9AU     LIG 4478   1.018  29.089   6.724
    9AU     LIG 4479   0.753  28.704   6.669
    9AU       S 4480   2.022  30.743   7.769
    9AU     LIG 4481   2.112  30.283   7.796
    9AU     LIG 4482   1.884  29.878   7.903
    9AU     LIG 4483   1.889  29.431   8.068
    9AU     LIG 4484   2.234  29.070   8.086
    9AU     LIG 4485   2.376  28.637   8.253
    9AU    AUSL 4486   1.903  32.540   7.013
    9AU    AUSL 4487   2.279  32.440   7.264
    9AU     AUL 4488   2.246  32.669   7.045
    9AU       S 4489   1.974  33.020   6.831
    9AU     LIG 4490   2.175  33.317   6.536
    9AU     LIG 4491   2.063  33.734   6.364
    9AU     LIG 4492   2.084  34.051   6.036
    9AU     LIG 4493   2.285  34.379   5.780
    9AU     LIG 4494   2.229  34.835   5.705
    9AU       S 4495   2.748  32.648   6.941
    9AU     LIG 4496   3.043  32.933   6.710
    9AU     LIG 4497   3.338  33.042   6.354
    9AU     LIG 4498   3.690  33.300   6.158
    9AU     LIG 4499   3.925  33.725   6.173
    9AU     LIG 4500   3.900  34.195   6.120
    9AU    AUSL 4501   1.700  32.592   7.301
    9AU    AUSL 4502   1.596  32.380   6.942
    9AU     AUL 4503   1.583  32.729   6.998
    9AU       S 4504   1.897  33.132   7.061
    9AU     LIG 4505   1.878  33.562   6.872
    9AU     LIG 4506   1.855  34.015   6.769
    9AU     LIG 4507   1.824  34.388   6.510
    9AU     LIG 4508   1.706  34.757   6.276
    9AU     LIG 4509   1.732  35.230   6.405
    9AU       S 4510   1.168  32.648   6.697
    9AU     LIG 4511   1.053  32.818   6.252
    9AU     LIG 4512   0.950  33.034   5.834
    9AU     LIG 4513   1.013  33.288   5.418
    9AU     LIG 4514   0.876  33.561   5.036
    9AU     LIG 4515   0.556  33.892   4.882
    9AU    AUSL 4516   1.793  31.250   7.043
    9AU    AUSL 4517   1.352  31.347   7.217
    9AU     AUL 4518   1.477  31.096   6.986
    9AU       S 4519   1.016  31.207   6.797
    9AU     LIG 4520   0.651  30.912   6.872
    9AU     LIG 4521   0.292  30.623   6.890
    9AU     LIG 4522   0.157  30.240   6.665
    9AU     LIG 4523   0.089  29.942   6.330
    9AU     LIG 4524   0.060  29.623   5.995
    9AU       S 4525   1.773  30.682   7.026
    9AU     LIG 4526   1.679  30.265   6.851
    9AU     LIG 4527   1.400  29.895   6.766
    9AU     LIG 4528   1.416  29.452   6.625
    9AU     LIG 4529   1.553  29.206   6.243
    9AU     LIG 4530   1.696  29.141   5.784
    9AU    AUSL 4531   1.981  31.139   7.326
    9AU    AUSL 4532   2.081  31.413   6.927
    9AU     AUL 4533   2.102  31.060   7.013
    9AU       S 4534   1.939  30.671   7.298
    9AU     LIG 4535   1.889  30.205   7.330
    9AU     LIG 4536   1.775  29.803   7.106
    9AU     LIG 4537   1.890  29.389   6.879
    9AU     LIG 4538   2.201  29.004   6.867
    9AU     LIG 4539   2.282  28.538   6.939
    9AU       S 4540   2.303  31.222   6.584
    9AU     LIG 4541   2.288  30.848   6.343
    9AU     LIG 4542   2.545  30.537   6.139
    9AU     LIG 4543   2.828  30.263   5.893
    9AU     LIG 4544   2.902  30.017   5.490
    9AU     LIG 4545   2.984  29.829   5.055
   10AU     AUC 4546  34.140   2.696   7.506
   10AU     AUC 4547  34.412   2.678   7.346
   10AU     AUC 4548  34.408   2.675   7.672
   10AU     AUC 4549  33.876   2.712   7.336
   10AU     AUC 4550  33.871   2.713   7.671
   10AU     AUC 4551  33.994   2.972   7.501
   10AU     AUC 4552  34.326   2.953   7.507
   10AU     AUC 4553  33.951   2.439   7.506
   10AU     AUC 4554  34.281   2.414   7.504
   10AU     AUC 4555  34.124   2.532   7.776
   10AU     AUC 4556  34.153   2.860   7.774
   10AU     AUC 4557  34.133   2.531   7.240
   10AU     AUC 4558  34.160   2.862   7.236
   10AU     AUC 4559  34.680   2.668   7.201
   10AU     AUC 4560  34.689   2.652   7.505
   10AU     AUC 4561  34.668   2.650   7.826
   10AU     AUC 4562  33.625   2.718   7.162
   10AU     AUC 4563  33.596   2.725   7.499
   10AU     AUC 4564  33.613   2.735   7.831
   10AU     AUC 4565  33.852   3.238   7.496
   10AU     AUC 4566  34.181   3.240   7.499
   10AU     AUC 4567  34.495   3.205   7.509
   10AU     AUC 4568  33.768   2.196   7.505
   10AU     AUC 4569  34.091   2.150   7.496
   10AU     AUC 4570  34.412   2.136   7.508
   10AU     AUC 4571  34.117   2.375   8.037
   10AU     AUC 4572  34.140   2.695   8.058
   10AU     AUC 4573  34.160   3.021   8.023
   10AU     AUC 4574  34.137   2.370   6.987
   10AU     AUC 4575  34.176   2.702   6.961
   10AU     AUC 4576  34.186   3.019   6.970
   10AU     AUC 4577  34.404   2.510   7.945
   10AU     AUC 4578  34.436   2.841   7.953
   10AU     AUC 4579  34.410   2.516   7.077
   10AU     AUC 4580  34.446   2.869   7.080
   10AU     AUC 4581  33.852   2.547   7.964
   10AU     AUC 4582  33.872   2.877   7.947
   10AU     AUC 4583  33.867   2.542   7.068
   10AU     AUC 4584  33.889   2.869   7.047
   10AU     AUC 4585  34.603   2.939   7.352
   10AU     AUC 4586  34.606   2.934   7.683
   10AU     AUC 4587  33.721   2.996   7.319
   10AU     AUC 4588  33.717   3.005   7.670
   10AU     AUC 4589  34.564   2.385   7.344
   10AU     AUC 4590  34.545   2.379   7.671
   10AU     AUC 4591  33.670   2.451   7.337
   10AU     AUC 4592  33.675   2.449   7.682
   10AU     AUC 4593  34.006   3.150   7.769
   10AU     AUC 4594  34.347   3.127   7.779
   10AU     AUC 4595  33.931   2.271   7.787
   10AU     AUC 4596  34.257   2.238   7.769
   10AU     AUC 4597  34.003   3.135   7.217
   10AU     AUC 4598  34.340   3.140   7.228
   10AU     AUC 4599  33.937   2.260   7.229
   10AU     AUC 4600  34.272   2.238   7.229
   10AU    AUSL 4601  34.645   2.616   8.124
   10AU    AUSL 4602  34.379   2.251   8.064
   10AU     AUL 4603  34.620   2.267   8.308
   10AU       S 4604  34.712   1.769   8.168
   10AU     LIG 4605  34.676   1.372   8.380
   10AU     LIG 4606  34.866   1.111   8.721
   10AU     LIG 4607  35.126   0.945   9.075
   10AU     LIG 4608  35.207   0.608   9.396
   10AU     LIG 4609  35.200   0.474   9.850
   10AU       S 4610  34.993   2.600   8.464
   10AU     LIG 4611  35.101   2.780   8.887
   10AU     LIG 4612  35.147   2.595   9.319
   10AU     LIG 4613  35.438   2.428   9.663
   10AU     LIG 4614  35.819   2.442   9.949
   10AU     LIG 4615  36.042   2.535  10.357
   10AU    AUSL 4616  34.325   2.531   8.267
   10AU    AUSL 4617  33.976   2.861   8.272
   10AU     AUL 4618  34.222   2.728   8.554
   10AU       S 4619  34.683   2.535   8.722
   10AU     LIG 4620  34.726   2.288   9.108
   10AU     LIG 4621  34.707   1.964   9.445
   10AU     LIG 4622  34.879   1.844   9.858
   10AU     LIG 4623  34.886   1.924  10.308
   10AU     LIG 4624  34.814   1.749  10.722
   10AU       S 4625  33.742   2.787   8.746
   10AU     LIG 4626  33.495   2.742   9.145
   10AU     LIG 4627  33.469   2.551   9.568
   10AU     LIG 4628  33.352   2.538  10.023
   10AU     LIG 4629  33.315   2.832  10.402
   10AU     LIG 4630  33.242   3.203  10.705
   10AU    AUSL 4631  34.304   2.902   8.229
   10AU    AUSL 4632  34.741   2.927   7.990
   10AU     AUL 4633  34.582   2.867   8.349
   10AU       S 4634  34.308   3.255   8.581
   10AU     LIG 4635  34.594   3.248   8.966
   10AU     LIG 4636  34.806   3.251   9.404
   10AU     LIG 4637  34.819   3.292   9.898
   10AU     LIG 4638  34.756   3.299  10.383
   10AU     LIG 4639  34.858   3.461  10.827
   10AU       S 4640  35.026   3.108   8.299
   10AU     LIG 4641  35.401   3.023   8.517
   10AU     LIG 4642  35.697   3.269   8.766
   10AU     LIG 4643  35.935   3.550   9.046
   10AU     LIG 4644  36.106   3.819   9.381
   10AU     LIG 4645  36.462   3.828   9.690
   10AU    AUSL 4646  34.617   2.727   6.932
   10AU    AUSL 4647  34.507   3.127   6.923
   10AU     AUL 4648  34.826   2.925   6.774
   10AU       S 4649  34.748   2.655   6.358
   10AU     LIG 4650  35.013   2.456   6.012
   10AU     LIG 4651  35.175   2.189   5.654
   10AU     LIG 4652  35.309   2.137   5.205
   10AU     LIG 4653  35.598   2.225   4.847
   10AU     LIG 4654  36.032   2.285   4.651
   10AU       S 4655  34.888   3.415   6.682
   10AU     LIG 4656  35.118   3.520   6.287
   10AU     LIG 4657  35.312   3.688   5.900
   10AU     LIG 4658  35.524   4.039   5.680
   10AU     LIG 4659  35.579   4.338   5.321
   10AU     LIG 4660  35.762   4.638   4.996
   10AU    AUSL 4661  34.396   2.516   6.773
   10AU    AUSL 4662  34.663   2.381   7.033
   10AU     AUL 4663  34.873   2.549   6.843
   10AU       S 4664  34.816   2.103   6.611
   10AU     LIG 4665  35.037   1.866   6.251
   10AU     LIG 4666  35.313   1.480   6.170
   10AU     LIG 4667  35.592   1.184   5.930
   10AU     LIG 4668  35.897   1.194   5.566
   10AU     LIG 4669  36.357   1.217   5.449
   10AU       S 4670  34.602   2.482   6.374
   10AU     LIG 4671  34.626   2.137   6.077
   10AU     LIG 4672  34.727   1.938   5.685
   10AU     LIG 4673  34.810   1.996   5.224
   10AU     LIG 4674  34.802   2.017   4.745
   10AU     LIG 4675  34.890   2.026   4.273
   10AU    AUSL 4676  34.349   2.873   6.742
   10AU    AUSL 4677  34.025   2.533   6.799
   10AU     AUL 4678  34.149   2.640   6.504
   10AU       S 4679  33.646   2.535   6.331
   10AU     LIG 4680  33.558   2.146   6.073
   10AU     LIG 4681  33.521   1.968   5.632
   10AU     LIG 4682  33.407   1.965   5.178
   10AU     LIG 4683  33.281   1.915   4.732
   10AU     LIG 4684  33.295   1.745   4.281
   10AU       S 4685  34.560   2.871   6.320
   10AU     LIG 4686  34.538   2.633   5.889
   10AU     LIG 4687  34.751   2.441   5.517
   10AU     LIG 4688  34.925   2.481   5.070
   10AU     LIG 4689  34.937   2.760   4.677
   10AU     LIG 4690  35.005   3.122   4.367
   10AU    AUSL 4691  33.665   2.769   8.154
   10AU    AUSL 4692  33.884   3.135   8.050
   10AU     AUL 4693  33.793   3.123   8.374
   10AU       S 4694  33.474   2.788   8.614
   10AU     LIG 4695  33.271   2.415   8.806
   10AU     LIG 4696  33.139   2.315   9.237
   10AU     LIG 4697  33.015   2.312   9.686
   10AU     LIG 4698  32.661   2.256   9.989
   10AU     LIG 4699  32.351   2.358  10.321
   10AU       S 4700  33.421   3.452   8.228
   10AU     LIG 4701  33.519   3.581   8.691
   10AU     LIG 4702  33.559   3.796   9.107
   10AU     LIG 4703  33.332   4.100   9.364
   10AU     LIG 4704  33.183   4.222   9.801
   10AU     LIG 4705  33.155   4.557  10.151
   10AU    AUSL 4706  33.966   2.508   8.270
   10AU    AUSL 4707  33.553   2.463   7.974
   10AU     AUL 4708  33.618   2.449   8.284
   10AU       S 4709  33.243   2.124   8.297
   10AU     LIG 4710  32.813   2.049   8.181
   10AU     LIG 4711  32.514   1.726   8.293
   10AU     LIG 4712  32.307   1.415   8.580
   10AU     LIG 4713  32.122   1.157   8.928
   10AU     LIG 4714  31.949   1.117   9.365
   10AU       S 4715  33.775   2.521   8.747
   10AU     LIG 4716  33.648   2.253   9.138
   10AU     LIG 4717  33.460   2.040   9.536
   10AU     LIG 4718  33.315   2.000   9.989
   10AU     LIG 4719  33.286   1.782  10.422
   10AU     LIG 4720  33.219   1.802  10.902
   10AU    AUSL 4721  33.714   2.676   6.834
   10AU    AUSL 4722  33.823   2.274   6.932
   10AU     AUL 4723  33.958   2.296   6.622
   10AU       S 4724  33.470   2.657   6.480
   10AU     LIG 4725  33.152   2.415   6.234
   10AU     LIG 4726  33.107   2.223   5.797
   10AU     LIG 4727  32.978   2.223   5.332
   10AU     LIG 4728  32.607   2.202   5.030
   10AU     LIG 4729  32.343   2.422   4.698
   10AU       S 4730  33.456   2.154   6.602
   10AU     LIG 4731  33.119   1.909   6.329
   10AU     LIG 4732  32.879   1.500   6.265
   10AU     LIG 4733  32.632   1.221   5.962
   10AU     LIG 4734  32.556   1.104   5.495
   10AU     LIG 4735  32.437   0.902   5.064
   10AU    AUSL 4736  34.003   2.882   6.749
   10AU    AUSL 4737  33.591   2.990   6.995
   10AU     AUL 4738  33.748   3.047   6.648
   10AU       S 4739  33.267   3.205   6.705
   10AU     LIG 4740  33.115   3.478   6.328
   10AU     LIG 4741  32.923   3.709   5.955
   10AU     LIG 4742  32.650   3.830   5.572
   10AU     LIG 4743  32.235   3.854   5.320
   10AU     LIG 4744  31.836   3.962   5.069
   10AU       S 4745  33.724   2.767   6.243
   10AU     LIG 4746  33.473   2.608   5.856
   10AU     LIG 4747  33.438   2.438   5.416
   10AU     LIG 4748  33.423   2.449   4.931
   10AU     LIG 4749  33.490   2.728   4.524
   10AU     LIG 4750  33.404   3.052   4.171
   10AU    AUSL 4751  34.802   3.086   7.490
   10AU    AUSL 4752  34.779   3.007   7.135
   10AU     AUL 4753  34.871   3.394   7.429
   10AU       S 4754  35.101   3.302   6.944
   10AU     LIG 4755  35.418   3.245   6.625
   10AU     LIG 4756  35.609   3.365   6.213
   10AU     LIG 4757  35.822   3.634   5.891
   10AU     LIG 4758  36.012   3.899   5.556
   10AU     LIG 4759  36.405   4.095   5.412
   10AU       S 4760  35.325   3.165   7.354
   10AU     LIG 4761  35.808   3.339   7.383
   10AU     LIG 4762  36.296   3.418   7.495
   10AU     LIG 4763  36.751   3.588   7.472
   10AU     LIG 4764  36.985   4.004   7.388
   10AU     LIG 4765  37.166   4.457   7.348
   10AU    AUSL 4766  34.926   2.771   7.346
   10AU    AUSL 4767  34.850   2.478   7.650
   10AU     AUL 4768  35.179   2.592   7.627
   10AU       S 4769  35.303   2.898   7.214
   10AU     LIG 4770  35.766   2.875   7.166
   10AU     LIG 4771  36.216   2.964   7.278
   10AU     LIG 4772  36.687   3.103   7.260
   10AU     LIG 4773  37.171   3.107   7.154
   10AU     LIG 4774  37.580   3.308   6.977
   10AU       S 4775  35.273   2.076   7.600
   10AU     LIG 4776  35.612   1.869   7.846
   10AU     LIG 4777  36.025   1.637   7.834
   10AU     LIG 4778  36.479   1.562   7.722
   10AU     LIG 4779  36.930   1.464   7.613
   10AU     LIG 4780  37.324   1.308   7.821
   10AU    AUSL 4781  34.906   2.821   7.699
   10AU    AUSL 4782  34.660   3.227   7.784
   10AU     AUL 4783  34.997   3.153   7.784
   10AU       S 4784  34.991   3.407   8.217
   10AU     LIG 4785  35.362   3.547   8.465
   10AU     LIG 4786  35.641   3.815   8.728
   10AU     LIG 4787  35.953   4.096   8.955
   10AU     LIG 4788  36.185   4.524   8.969
   10AU     LIG 4789  36.477   4.905   8.859
   10AU       S 4790  35.413   3.015   7.526
   10AU     LIG 4791  35.840   2.925   7.683
   10AU     LIG 4792  36.283   2.994   7.793
   10AU     LIG 4793  36.717   3.157   7.768
   10AU     LIG 4794  37.174   3.229   7.662
   10AU     LIG 4795  37.581   3.475   7.740
   10AU    AUSL 4796  33.553   3.218   7.512
   10AU    AUSL 4797  33.558   3.030   7.943
   10AU     AUL 4798  33.257   3.227   7.734
   10AU       S 4799  33.281   3.165   8.254
   10AU     LIG 4800  33.062   3.380   8.618
   10AU     LIG 4801  33.072   3.669   9.006
   10AU     LIG 4802  32.858   3.856   9.391
   10AU     LIG 4803  32.466   3.833   9.671
   10AU     LIG 4804  32.005   3.879   9.798
   10AU       S 4805  33.377   3.661   7.479
   10AU     LIG 4806  33.138   4.002   7.233
   10AU     LIG 4807  32.703   4.215   7.264
   10AU     LIG 4808  32.237   4.359   7.348
   10AU     LIG 4809  31.795   4.564   7.389
   10AU     LIG 4810  31.482   4.822   7.647
   10AU    AUSL 4811  33.445   2.895   7.288
   10AU    AUSL 4812  33.690   3.289   7.201
   10AU     AUL 4813  33.321   3.197   7.224
   10AU       S 4814  33.079   2.796   6.928
   10AU     LIG 4815  32.743   3.151   6.808
   10AU     LIG 4816  32.279   3.359   6.800
   10AU     LIG 4817  31.799   3.532   6.832
   10AU     LIG 4818  31.321   3.685   6.882
   10AU     LIG 4819  30.904   3.454   6.880
   10AU       S 4820  33.422   3.643   6.982
   10AU     LIG 4821  33.078   3.802   6.727
   10AU     LIG 4822  33.057   4.056   6.341
   10AU     LIG 4823  33.056   4.499   6.147
   10AU     LIG 4824  32.857   4.948   6.115
   10AU     LIG 4825  32.661   5.406   6.123
   10AU    AUSL 4826  33.411   2.902   7.665
   10AU    AUSL 4827  33.352   2.574   7.336
   10AU     AUL 4828  33.131   2.928   7.439
   10AU       S 4829  32.877   2.478   7.388
   10AU     LIG 4830  32.462   2.242   7.314
   10AU     LIG 4831  32.125   2.114   7.555
   10AU     LIG 4832  31.777   2.041   7.286
   10AU     LIG 4833  31.393   1.831   7.181
   10AU     LIG 4834  30.965   1.976   7.135
   10AU       S 4835  33.024   2.827   7.978
   10AU     LIG 4836  32.564   2.977   8.001
   10AU     LIG 4837  32.097   3.125   8.039
   10AU     LIG 4838  31.659   3.327   8.117
   10AU     LIG 4839  31.187   3.420   8.115
   10AU     LIG 4840  30.848   3.602   7.811
   10AU    AUSL 4841  34.739   2.170   7.548
   10AU    AUSL 4842  34.686   2.333   7.924
   10AU     AUL 4843  35.010   2.375   7.902
   10AU       S 4844  35.080   1.921   7.586
   10AU     LIG 4845  35.311   1.531   7.616
   10AU     LIG 4846  35.737   1.348   7.522
   10AU     LIG 4847  36.193   1.183   7.523
   10AU     LIG 4848  36.660   1.035   7.538
   10AU     LIG 4849  37.038   0.715   7.587
   10AU       S 4850  34.932   1.899   8.063
   10AU     LIG 4851  35.180   1.590   8.298
   10AU     LIG 4852  35.320   1.354   8.680
   10AU     LIG 4853  35.607   1.117   8.974
   10AU     LIG 4854  35.940   1.165   9.315
   10AU     LIG 4855  36.295   1.344   9.584
   10AU    AUSL 4856  34.878   2.430   7.306
   10AU    AUSL 4857  34.550   2.102   7.228
   10AU     AUL 4858  34.862   2.100   7.167
   10AU       S 4859  35.314   2.169   7.357
   10AU     LIG 4860  35.662   1.834   7.336
   10AU     LIG 4861  36.115   1.662   7.326
   10AU     LIG 4862  36.535   1.450   7.225
   10AU     LIG 4863  36.929   1.473   6.985
   10AU     LIG 4864  37.397   1.504   6.950
   10AU       S 4865  34.793   1.883   6.717
   10AU     LIG 4866  34.970   1.475   6.588
   10AU     LIG 4867  35.147   1.069   6.436
   10AU     LIG 4868  35.417   0.743   6.223
   10AU     LIG 4869  35.532   0.278   6.174
   10AU     LIG 4870  35.803  44.898   6.232
   10AU    AUSL 4871  33.472   2.270   7.513
   10AU    AUSL 4872  33.534   2.464   7.055
   10AU     AUL 4873  33.289   2.211   7.242
   10AU       S 4874  33.253   2.320   6.745
   10AU     LIG 4875  32.813   2.143   6.698
   10AU     LIG 4876  32.577   1.789   6.553
   10AU     LIG 4877  32.357   1.518   6.284
   10AU     LIG 4878  31.972   1.286   6.186
   10AU     LIG 4879  31.627   0.994   6.029
   10AU       S 4880  32.891   2.242   7.544
   10AU     LIG 4881  32.608   1.913   7.713
   10AU     LIG 4882  32.231   1.679   7.836
   10AU     LIG 4883  31.788   1.663   7.635
   10AU     LIG 4884  31.449   1.387   7.445
   10AU     LIG 4885  31.102   1.050   7.466
   10AU    AUSL 4886  33.381   2.567   7.687
   10AU    AUSL 4887  33.622   2.142   7.809
   10AU     AUL 4888  33.300   2.266   7.821
   10AU       S 4889  33.319   1.869   8.122
   10AU     LIG 4890  32.933   1.582   8.009
   10AU     LIG 4891  32.558   1.285   8.043
   10AU     LIG 4892  32.356   0.961   8.341
   10AU     LIG 4893  32.180   0.609   8.635
   10AU     LIG 4894  31.938   0.170   8.718
   10AU       S 4895  32.882   2.495   7.630
   10AU     LIG 4896  32.410   2.582   7.690
   10AU     LIG 4897  31.920   2.559   7.663
   10AU     LIG 4898  31.627   2.185   7.747
   10AU     LIG 4899  31.296   1.870   7.681
   10AU     LIG 4900  30.888   1.765   7.893
   10AU    AUSL 4901  34.187   3.335   7.963
   10AU    AUSL 4902  33.738   3.326   7.798
   10AU     AUL 4903  33.926   3.438   8.174
   10AU       S 4904  33.512   3.664   7.965
   10AU     LIG 4905  33.338   3.929   8.355
   10AU     LIG 4906  33.286   4.096   8.792
   10AU     LIG 4907  33.170   4.470   9.032
   10AU     LIG 4908  32.840   4.808   9.085
   10AU     LIG 4909  32.518   5.166   9.104
   10AU       S 4910  34.200   3.845   8.054
   10AU     LIG 4911  34.243   3.974   8.490
   10AU     LIG 4912  34.131   4.400   8.661
   10AU     LIG 4913  34.128   4.681   9.048
   10AU     LIG 4914  34.289   4.995   9.396
   10AU     LIG 4915  34.404   5.379   9.669
   10AU    AUSL 4916  34.028   3.448   7.655
   10AU    AUSL 4917  34.328   3.479   7.340
   10AU     AUL 4918  33.924   3.695   7.437
   10AU       S 4919  34.069   3.907   7.867
   10AU     LIG 4920  34.258   4.337   8.146
   10AU     LIG 4921  34.293   4.781   8.275
   10AU     LIG 4922  34.134   5.206   8.127
   10AU     LIG 4923  34.042   5.690   8.212
   10AU     LIG 4924  33.840   6.113   8.366
   10AU       S 4925  34.375   3.905   7.237
   10AU     LIG 4926  34.570   4.313   7.191
   10AU     LIG 4927  34.618   4.695   6.935
   10AU     LIG 4928  34.646   5.064   6.643
   10AU     LIG 4929  34.611   5.552   6.587
   10AU     LIG 4930  34.511   6.027   6.662
   10AU    AUSL 4931  34.388   3.430   7.675
   10AU    AUSL 4932  34.469   3.149   8.071
   10AU     AUL 4933  34.542   3.486   7.993
   10AU       S 4934  34.789   3.326   8.419
   10AU     LIG 4935  35.071   3.298   8.797
   10AU     LIG 4936  35.371   3.521   9.067
   10AU     LIG 4937  35.596   3.873   9.262
   10AU     LIG 4938  35.760   4.212   9.538
   10AU     LIG 4939  35.675   4.579   9.838
   10AU       S 4940  34.352   3.886   7.740
   10AU     LIG 4941  34.431   4.316   7.680
   10AU     LIG 4942  34.599   4.695   7.867
   10AU     LIG 4943  34.647   5.107   8.078
   10AU     LIG 4944  34.540   5.532   8.245
   10AU     LIG 4945  34.448   5.985   8.363
   10AU    AUSL 4946  34.113   2.054   7.959
   10AU    AUSL 4947  34.488   2.062   7.802
   10AU     AUL 4948  34.288   2.018   8.247
   10AU       S 4949  34.252   1.550   8.032
   10AU     LIG 4950  34.182   1.154   8.252
   10AU     LIG 4951  33.946   0.762   8.293
   10AU     LIG 4952  33.693   0.425   8.467
   10AU     LIG 4953  33.646   0.190   8.848
   10AU     LIG 4954  33.998   0.045   9.103
   10AU       S 4955  34.720   1.759   7.902
   10AU     LIG 4956  34.904   1.349   7.922
   10AU     LIG 4957  35.104   1.081   8.258
   10AU     LIG 4958  35.321   0.846   8.607
   10AU     LIG 4959  35.502   0.583   8.955
   10AU     LIG 4960  35.655   0.136   9.065
   10AU    AUSL 4961  33.904   2.008   7.678
   10AU    AUSL 4962  33.835   2.232   8.086
   10AU     AUL 4963  33.815   1.867   7.997
   10AU       S 4964  34.068   1.431   7.814
   10AU     LIG 4965  33.871   0.973   7.818
   10AU     LIG 4966  33.672   0.502   7.934
   10AU     LIG 4967  33.298   0.262   8.190
   10AU     LIG 4968  33.067  44.824   8.300
   10AU     LIG 4969  33.033  44.280   8.251
   10AU       S 4970  33.489   1.963   8.385
   10AU     LIG 4971  33.061   1.704   8.513
   10AU     LIG 4972  32.804   1.316   8.498
   10AU     LIG 4973  32.596   1.009   8.795
   10AU     LIG 4974  32.460   0.891   9.235
   10AU     LIG 4975  32.579   0.755   9.680
   10AU    AUSL 4976  34.218   1.906   7.651
   10AU    AUSL 4977  33.895   1.949   7.330
   10AU     AUL 4978  33.760   1.761   7.610
   10AU       S 4979  33.911   1.466   7.224
   10AU     LIG 4980  33.686   1.024   7.231
   10AU     LIG 4981  33.604   0.548   7.163
   10AU     LIG 4982  33.632   0.127   6.925
   10AU     LIG 4983  33.458  44.798   6.612
   10AU     LIG 4984  33.236  44.346   6.610
   10AU       S 4985  34.318   1.527   7.750
   10AU     LIG 4986  34.429   1.064   7.823
   10AU     LIG 4987  34.230   0.620   7.882
   10AU     LIG 4988  34.086   0.257   8.167
   10AU     LIG 4989  34.163  44.823   8.367
   10AU     LIG 4990  34.298  44.335   8.435
   10AU    AUSL 4991  34.207   3.320   7.008
   10AU    AUSL 4992  34.597   3.270   7.250
   10AU     AUL 4993  34.497   3.472   6.997
   10AU       S 4994  34.240   3.865   6.851
   10AU     LIG 4995  34.107   4.106   6.464
   10AU     LIG 4996  34.411   4.440   6.368
   10AU     LIG 4997  34.377   4.784   6.076
   10AU     LIG 4998  34.392   5.162   5.800
   10AU     LIG 4999  34.503   5.501   5.486
   10AU       S 5000  34.995   3.535   6.957
   10AU     LIG 5001  35.330   3.747   6.695
   10AU     LIG 5002  35.579   3.874   6.302
   10AU     LIG 5003  35.898   4.128   6.038
   10AU     LIG 5004  36.218   4.494   5.997
   10AU     LIG 5005  36.481   4.895   6.100
   10AU    AUSL 5006  34.004   3.397   7.292
   10AU    AUSL 5007  33.900   3.163   6.943
   10AU     AUL 5008  33.908   3.503   6.966
   10AU       S 5009  34.141   3.958   7.083
   10AU     LIG 5010  34.191   4.384   6.868
   10AU     LIG 5011  34.190   4.797   6.678
   10AU     LIG 5012  33.874   5.068   6.542
   10AU     LIG 5013  33.813   5.547   6.602
   10AU     LIG 5014  33.800   6.042   6.729
   10AU       S 5015  33.466   3.463   6.721
   10AU     LIG 5016  33.517   3.795   6.406
   10AU     LIG 5017  33.398   3.920   5.973
   10AU     LIG 5018  33.153   3.998   5.579
   10AU     LIG 5019  33.006   4.147   5.153
   10AU     LIG 5020  32.964   4.436   4.771
   10AU    AUSL 5021  34.083   2.045   7.033
   10AU    AUSL 5022  33.639   2.157   7.213
   10AU     AUL 5023  33.758   1.909   6.979
   10AU       S 5024  33.304   2.022   6.783
   10AU     LIG 5025  33.012   1.645   6.776
   10AU     LIG 5026  32.612   1.359   6.807
   10AU     LIG 5027  32.244   1.119   6.602
   10AU     LIG 5028  31.917   0.796   6.415
   10AU     LIG 5029  31.741   0.351   6.289
   10AU       S 5030  34.059   1.496   6.978
   10AU     LIG 5031  34.056   1.021   6.879
   10AU     LIG 5032  33.889   0.584   6.732
   10AU     LIG 5033  33.880   0.158   6.486
   10AU     LIG 5034  34.031  44.806   6.193
   10AU     LIG 5035  34.119  44.901   5.728
   10AU    AUSL 5036  34.258   1.935   7.321
   10AU    AUSL 5037  34.368   2.208   6.925
   10AU     AUL 5038  34.413   1.852   7.032
   10AU       S 5039  34.185   1.471   7.280
   10AU     LIG 5040  34.167   1.027   7.390
   10AU     LIG 5041  34.107   0.594   7.226
   10AU     LIG 5042  34.157   0.206   6.957
   10AU     LIG 5043  34.118  44.791   6.741
   10AU     LIG 5044  34.416  44.551   6.459
   10AU       S 5045  34.530   2.029   6.567
   10AU     LIG 5046  34.564   1.666   6.301
   10AU     LIG 5047  34.822   1.356   6.100
   10AU     LIG 5048  35.099   1.034   5.922
   10AU     LIG 5049  35.394   0.747   5.696
   10AU     LIG 5050  35.571   0.608   5.283
   11POPC   NC3 5051  27.917  30.522   9.376
   11POPC   PO4 5052  28.594  30.724   9.428
   11POPC   GL1 5053  28.322  30.708   9.084
   11POPC   GL2 5054  28.086  30.948   9.062
   11POPC   C1A 5055  28.169  30.671   8.650
   11POPC   D2A 5056  28.436  30.650   8.288
   11POPC   C3A 5057  28.367  30.620   7.852
   11POPC   C4A 5058  28.567  30.352   7.570
   11POPC   C1B 5059  28.087  31.278   8.810
   11POPC   C2B 5060  28.153  31.156   8.424
   11POPC   C3B 5061  27.921  31.119   8.053
   11POPC   C4B 5062  28.056  30.988   7.663
   12POPC   NC3 5063  37.648   7.704   9.373
   12POPC   PO4 5064  38.088   7.254   9.478
   12POPC   GL1 5065  37.842   7.166   9.087
   12POPC   GL2 5066  37.511   7.325   9.036
   12POPC   C1A 5067  37.841   7.414   8.666
   12POPC   D2A 5068  37.785   7.613   8.256
   12POPC   C3A 5069  37.601   7.361   7.882
   12POPC   C4A 5070  37.827   7.229   7.497
   12POPC   C1B 5071  37.450   7.713   8.763
   12POPC   C2B 5072  37.468   7.982   8.429
   12POPC   C3B 5073  37.380   7.906   8.005
   12POPC   C4B 5074  37.475   7.931   7.600
   13POPC   NC3 5075  28.231  23.489   9.512
   13POPC   PO4 5076  28.776  24.029   9.478
   13POPC   GL1 5077  28.560  23.746   9.188
   13POPC   GL2 5078  28.241  23.871   9.089
   13POPC   C1A 5079  28.512  23.587   8.756
   13POPC   D2A 5080  28.791  23.563   8.395
   13POPC   C3A 5081  28.609  23.599   7.974
   13POPC   C4A 5082  28.527  23.980   7.783
   13POPC   C1B 5083  28.370  24.089   8.720
   13POPC   C2B 5084  28.376  23.954   8.290
   13POPC   C3B 5085  28.115  23.736   7.989
   13POPC   C4B 5086  28.026  23.810   7.552
   14POPC   NC3 5087  14.791  18.728   9.477
   14POPC   PO4 5088  14.838  18.049   9.516
   14POPC   GL1 5089  15.038  18.212   9.145
   14POPC   GL2 5090  15.361  18.037   9.107
   14POPC   C1A 5091  15.165  18.337   8.741
   14POPC   D2A 5092  14.916  18.421   8.394
   14POPC   C3A 5093  15.109  18.433   8.022
   14POPC   C4A 5094  15.128  18.217   7.668
   14POPC   C1B 5095  15.477  17.881   8.740
   14POPC   C2B 5096  15.291  18.001   8.354
   14POPC   C3B 5097  15.490  18.073   7.991
   14POPC   C4B 5098  15.443  17.809   7.657
   15POPC   NC3 5099  13.175  17.399   9.406
   15POPC   PO4 5100  13.662  17.107   9.706
   15POPC   GL1 5101  13.639  17.193   9.179
   15POPC   GL2 5102  13.653  17.524   9.136
   15POPC   C1A 5103  13.559  17.256   8.711
   15POPC   D2A 5104  13.666  17.567   8.393
   15POPC   C3A 5105  13.613  17.439   7.978
   15POPC   C4A 5106  13.277  17.477   7.758
   15POPC   C1B 5107  13.370  17.729   8.826
   15POPC   C2B 5108  13.260  17.874   8.426
   15POPC   C3B 5109  13.428  17.934   8.046
   15POPC   C4B 5110  13.352  17.967   7.647
   16POPC   NC3 5111   1.845  20.910   9.468
   16POPC   PO4 5112   2.202  21.427   9.418
   16POPC   GL1 5113   1.945  21.458   9.113
   16POPC   GL2 5114   1.808  21.151   9.025
   16POPC   C1A 5115   2.046  21.557   8.706
   16POPC   D2A 5116   2.329  21.492   8.356
   16POPC   C3A 5117   2.120  21.346   8.018
   16POPC   C4A 5118   2.191  21.509   7.633
   16POPC   C1B 5119   1.843  20.885   8.688
   16POPC   C2B 5120   1.688  20.934   8.339
   16POPC   C3B 5121   1.909  20.885   8.015
   16POPC   C4B 5122   1.824  20.957   7.640
   17POPC   NC3 5123   8.464  33.998   9.521
   17POPC   PO4 5124   7.865  33.962   9.258
   17POPC   GL1 5125   8.222  34.018   9.067
   17POPC   GL2 5126   8.318  33.678   9.061
   17POPC   C1A 5127   8.293  34.025   8.653
   17POPC   D2A 5128   8.061  33.934   8.301
   17POPC   C3A 5129   8.316  33.695   8.039
   17POPC   C4A 5130   8.308  33.979   7.721
   17POPC   C1B 5131   7.983  33.615   8.711
   17POPC   C2B 5132   7.939  33.419   8.314
   17POPC   C3B 5133   7.854  33.535   7.893
   17POPC   C4B 5134   8.081  33.504   7.512
   18POPC   NC3 5135  13.109  39.393   9.422
   18POPC   PO4 5136  12.466  39.149   9.612
   18POPC   GL1 5137  12.671  39.235   9.198
   18POPC   GL2 5138  12.887  38.950   9.257
   18POPC   C1A 5139  12.790  39.447   8.785
   18POPC   D2A 5140  12.747  39.524   8.336
   18POPC   C3A 5141  12.665  39.292   7.959
   18POPC   C4A 5142  12.626  39.324   7.524
   18POPC   C1B 5143  13.071  39.037   8.853
   18POPC   C2B 5144  13.162  39.257   8.474
   18POPC   C3B 5145  13.158  39.351   8.046
   18POPC   C4B 5146  13.070  39.078   7.702
   19POPC   NC3 5147   4.431  38.754   9.580
   19POPC   PO4 5148   4.487  38.141   9.572
   19POPC   GL1 5149   4.154  38.303   9.245
   19POPC   GL2 5150   4.092  38.681   9.145
   19POPC   C1A 5151   4.018  38.268   8.801
   19POPC   D2A 5152   3.999  38.294   8.354
   19POPC   C3A 5153   4.322  38.386   8.055
   19POPC   C4A 5154   4.275  38.649   7.699
   19POPC   C1B 5155   4.395  38.622   8.786
   19POPC   C2B 5156   4.665  38.566   8.385
   19POPC   C3B 5157   4.699  38.721   7.943
   19POPC   C4B 5158   4.711  38.602   7.463
   20POPC   NC3 5159  27.521  37.698   9.615
   20POPC   PO4 5160  28.001  37.289   9.372
   20POPC   GL1 5161  27.782  37.657   9.188
   20POPC   GL2 5162  27.426  37.536   9.145
   20POPC   C1A 5163  27.547  37.939   8.887
   20POPC   D2A 5164  27.425  37.707   8.536
   20POPC   C3A 5165  27.738  37.779   8.253
   20POPC   C4A 5166  27.730  37.798   7.840
   20POPC   C1B 5167  27.685  37.341   8.804
   20POPC   C2B 5168  27.680  37.276   8.393
   20POPC   C3B 5169  27.450  37.400   8.040
   20POPC   C4B 5170  27.578  37.332   7.639
   21POPC   NC3 5171   7.180  13.875   9.456
   21POPC   PO4 5172   7.599  13.354   9.399
   21POPC   GL1 5173   7.376  13.347   9.056
   21POPC   GL2 5174   7.220  13.652   8.990
   21POPC   C1A 5175   7.557  13.298   8.660
   21POPC   D2A 5176   7.499  13.385   8.243
   21POPC   C3A 5177   7.291  13.703   8.036
   21POPC   C4A 5178   7.440  13.431   7.674
   21POPC   C1B 5179   7.399  13.795   8.605
   21POPC   C2B 5180   7.791  13.801   8.386
   21POPC   C3B 5181   7.809  13.711   7.963
   21POPC   C4B 5182   7.573  13.998   7.713
   22POPC   NC3 5183  39.250  42.109   9.548
   22POPC   PO4 5184  39.392  42.862   9.543
   22POPC   GL1 5185  39.217  42.487   9.222
   22POPC   GL2 5186  39.400  42.216   9.055
   22POPC   C1A 5187  38.930  42.270   8.905
   22POPC   D2A 5188  38.877  42.390   8.480
   22POPC   C3A 5189  39.039  42.095   8.214
   22POPC   C4A 5190  38.976  41.960   7.809
   22POPC   C1B 5191  39.339  42.499   8.717
   22POPC   C2B 5192  39.394  42.453   8.294
   22POPC   C3B 5193  39.381  42.286   7.881
   22POPC   C4B 5194  39.523  42.316   7.427
   23POPC   NC3 5195  17.259   9.221   9.625
   23POPC   PO4 5196  17.814   8.831   9.737
   23POPC   GL1 5197  17.496   8.807   9.374
   23POPC   GL2 5198  17.745   8.954   9.168
   23POPC   C1A 5199  17.256   8.941   8.957
   23POPC   D2A 5200  17.492   9.024   8.554
   23POPC   C3A 5201  17.311   8.929   8.176
   23POPC   C4A 5202  17.267   8.861   7.781
   23POPC   C1B 5203  18.082   8.739   8.917
   23POPC   C2B 5204  18.038   8.723   8.466
   23POPC   C3B 5205  17.838   8.966   8.127
   23POPC   C4B 5206  17.773   8.947   7.679
   24POPC   NC3 5207   2.185  38.102   9.297
   24POPC   PO4 5208   1.960  38.617   9.713
   24POPC   GL1 5209   2.006  38.600   9.250
   24POPC   GL2 5210   2.369  38.538   9.108
   24POPC   C1A 5211   1.840  38.625   8.827
   24POPC   D2A 5212   1.894  38.318   8.498
   24POPC   C3A 5213   1.957  38.411   8.065
   24POPC   C4A 5214   2.194  38.257   7.709
   24POPC   C1B 5215   2.310  38.815   8.771
   24POPC   C2B 5216   2.106  38.808   8.404
   24POPC   C3B 5217   2.332  38.744   8.066
   24POPC   C4B 5218   2.184  38.758   7.680
   25POPC   NC3 5219  12.863   1.868   9.690
   25POPC   PO4 5220  12.881   2.515   9.727
   25POPC   GL1 5221  12.994   2.252   9.284
   25POPC   GL2 5222  13.028   1.863   9.220
   25POPC   C1A 5223  12.888   2.238   8.823
   25POPC   D2A 5224  13.101   2.149   8.414
   25POPC   C3A 5225  13.029   2.283   7.980
   25POPC   C4A 5226  13.154   2.329   7.560
   25POPC   C1B 5227  13.043   1.677   8.801
   25POPC   C2B 5228  12.756   1.744   8.461
   25POPC   C3B 5229  12.829   1.810   8.039
   25POPC   C4B 5230  12.675   2.023   7.694
   26POPC   NC3 5231  27.245  34.269   9.313
   26POPC   PO4 5232  27.757  34.539   9.717
   26POPC   GL1 5233  27.733  34.519   9.243
   26POPC   GL2 5234  27.845  34.816   9.133
   26POPC   C1A 5235  27.784  34.411   8.772
   26POPC   D2A 5236  27.512  34.245   8.408
   26POPC   C3A 5237  27.504  34.349   7.958
   26POPC   C4A 5238  27.153  34.530   7.727
   26POPC   C1B 5239  27.626  34.896   8.770
   26POPC   C2B 5240  27.607  35.100   8.379
   26POPC   C3B 5241  27.502  34.890   7.987
   26POPC   C4B 5242  27.668  35.155   7.719
   27POPC   NC3 5243   0.135  12.576   9.498
   27POPC   PO4 5244   0.589  13.009   9.375
   27POPC   GL1 5245   0.403  12.792   9.091
   27POPC   GL2 5246   0.130  12.985   9.093
   27POPC   C1A 5247   0.599  12.715   8.693
   27POPC   D2A 5248   0.659  12.998   8.343
   27POPC   C3A 5249   0.455  12.864   7.980
   27POPC   C4A 5250   0.636  12.492   7.867
   27POPC   C1B 5251   0.250  13.090   8.676
   27POPC   C2B 5252   0.170  13.194   8.256
   27POPC   C3B 5253   0.017  13.272   7.833
   27POPC   C4B 5254   0.133  13.122   7.394
   28POPC   NC3 5255  23.341  20.149   9.538
   28POPC   PO4 5256  22.690  19.977   9.461
   28POPC   GL1 5257  22.979  19.900   9.125
   28POPC   GL2 5258  22.868  20.095   8.903
   28POPC   C1A 5259  22.837  19.605   8.760
   28POPC   D2A 5260  22.982  19.598   8.321
   28POPC   C3A 5261  22.806  19.768   7.940
   28POPC   C4A 5262  22.857  19.935   7.520
   28POPC   C1B 5263  23.189  19.959   8.630
   28POPC   C2B 5264  23.133  20.066   8.199
   28POPC   C3B 5265  22.980  20.299   7.865
   28POPC   C4B 5266  23.220  20.300   7.511
   29POPC   NC3 5267   8.058  31.176   9.393
   29POPC   PO4 5268   8.350  31.745   9.532
   29POPC   GL1 5269   8.080  31.641   9.181
   29POPC   GL2 5270   8.360  31.493   9.067
   29POPC   C1A 5271   8.017  31.541   8.707
   29POPC   D2A 5272   8.353  31.618   8.365
   29POPC   C3A 5273   8.160  31.593   7.991
   29POPC   C4A 5274   8.245  31.471   7.629
   29POPC   C1B 5275   8.462  31.258   8.677
   29POPC   C2B 5276   8.245  31.127   8.291
   29POPC   C3B 5277   8.486  31.115   7.909
   29POPC   C4B 5278   8.638  31.027   7.471
   30POPC   NC3 5279  27.057  29.339   9.681
   30POPC   PO4 5280  26.601  29.915   9.627
   30POPC   GL1 5281  26.735  29.855   9.225
   30POPC   GL2 5282  27.076  29.748   9.318
   30POPC   C1A 5283  26.676  30.035   8.815
   30POPC   D2A 5284  26.483  30.031   8.390
   30POPC   C3A 5285  26.721  29.920   7.999
   30POPC   C4A 5286  26.655  29.670   7.618
   30POPC   C1B 5287  27.164  29.857   8.881
   30POPC   C2B 5288  27.010  29.945   8.442
   30POPC   C3B 5289  27.227  29.949   8.082
   30POPC   C4B 5290  27.139  29.826   7.676
   31POPC   NC3 5291   7.563  34.224   9.470
   31POPC   PO4 5292   7.507  34.865   9.495
   31POPC   GL1 5293   7.383  34.576   9.145
   31POPC   GL2 5294   7.074  34.373   9.176
   31POPC   C1A 5295   7.445  34.453   8.702
   31POPC   D2A 5296   7.709  34.331   8.335
   31POPC   C3A 5297   7.560  34.522   7.969
   31POPC   C4A 5298   7.168  34.479   7.788
   31POPC   C1B 5299   6.999  34.673   8.810
   31POPC   C2B 5300   7.110  34.766   8.360
   31POPC   C3B 5301   6.923  34.880   7.931
   31POPC   C4B 5302   7.189  35.045   7.619
   32POPC   NC3 5303  32.188   6.380   9.615
   32POPC   PO4 5304  32.051   6.985   9.700
   32POPC   GL1 5305  32.212   6.765   9.283
   32POPC   GL2 5306  32.029   6.452   9.152
   32POPC   C1A 5307  32.358   6.806   8.852
   32POPC   D2A 5308  32.572   6.743   8.468
   32POPC   C3A 5309  32.407   6.825   8.082
   32POPC   C4A 5310  32.381   6.612   7.682
   32POPC   C1B 5311  32.076   6.379   8.725
   32POPC   C2B 5312  32.148   6.445   8.310
   32POPC   C3B 5313  32.179   6.232   7.941
   32POPC   C4B 5314  31.963   6.276   7.594
   33POPC   NC3 5315  25.730  39.509   9.796
   33POPC   PO4 5316  25.114  39.083   9.815
   33POPC   GL1 5317  25.306  39.134   9.339
   33POPC   GL2 5318  25.601  39.359   9.240
   33POPC   C1A 5319  25.239  39.190   8.851
   33POPC   D2A 5320  25.086  39.035   8.413
   33POPC   C3A 5321  25.222  39.193   7.990
   33POPC   C4A 5322  25.129  39.270   7.521
   33POPC   C1B 5323  25.692  39.441   8.772
   33POPC   C2B 5324  25.554  39.450   8.303
   33POPC   C3B 5325  25.545  39.556   7.824
   33POPC   C4B 5326  25.505  39.605   7.344
   34POPC   NC3 5327  24.241  44.057   9.313
   34POPC   PO4 5328  24.756  43.747   9.607
   34POPC   GL1 5329  24.576  43.670   9.176
   34POPC   GL2 5330  24.728  43.997   9.061
   34POPC   C1A 5331  24.510  43.709   8.712
   34POPC   D2A 5332  24.420  44.049   8.387
   34POPC   C3A 5333  24.457  43.838   7.982
   34POPC   C4A 5334  24.379  43.483   7.704
   34POPC   C1B 5335  24.848  44.187   8.640
   34POPC   C2B 5336  24.841  44.291   8.177
   34POPC   C3B 5337  24.829  44.112   7.757
   34POPC   C4B 5338  24.627  43.838   7.445
   35POPC   NC3 5339  11.574   6.277   9.538
   35POPC   PO4 5340  11.093   6.675   9.448
   35POPC   GL1 5341  11.375   6.532   9.149
   35POPC   GL2 5342  11.287   6.821   8.990
   35POPC   C1A 5343  11.571   6.498   8.715
   35POPC   D2A 5344  11.434   6.318   8.315
   35POPC   C3A 5345  11.744   6.378   7.953
   35POPC   C4A 5346  11.777   6.781   7.705
   35POPC   C1B 5347  11.062   6.509   8.749
   35POPC   C2B 5348  10.840   6.600   8.404
   35POPC   C3B 5349  10.939   6.517   8.000
   35POPC   C4B 5350  11.303   6.500   7.758
   36POPC   NC3 5351  26.332  20.180   9.653
   36POPC   PO4 5352  26.113  20.739   9.636
   36POPC   GL1 5353  26.294  20.775   9.236
   36POPC   GL2 5354  26.329  20.433   9.189
   36POPC   C1A 5355  26.026  20.705   8.859
   36POPC   D2A 5356  25.808  20.525   8.516
   36POPC   C3A 5357  25.916  20.664   8.114
   36POPC   C4A 5358  25.847  20.816   7.716
   36POPC   C1B 5359  26.422  20.280   8.784
   36POPC   C2B 5360  26.298  20.379   8.389
   36POPC   C3B 5361  26.359  20.257   7.976
   36POPC   C4B 5362  26.076  20.367   7.681
   37POPC   NC3 5363  38.967  38.578   9.413
   37POPC   PO4 5364  39.438  38.180   9.463
   37POPC   GL1 5365  39.294  38.341   9.072
   37POPC   GL2 5366  38.958  38.300   8.979
   37POPC   C1A 5367  39.434  38.511   8.664
   37POPC   D2A 5368  39.643  38.786   8.344
   37POPC   C3A 5369  39.594  38.605   7.949
   37POPC   C4A 5370  39.473  38.807   7.573
   37POPC   C1B 5371  38.975  38.174   8.556
   37POPC   C2B 5372  39.148  38.440   8.234
   37POPC   C3B 5373  39.070  38.517   7.838
   37POPC   C4B 5374  38.727  38.452   7.546
   38POPC   NC3 5375  19.297  38.373   9.349
   38POPC   PO4 5376  18.814  38.774   9.435
   38POPC   GL1 5377  18.801  38.414   9.141
   38POPC   GL2 5378  18.935  38.078   9.143
   38POPC   C1A 5379  18.953  38.460   8.752
   38POPC   D2A 5380  19.194  38.696   8.537
   38POPC   C3A 5381  19.085  38.647   8.096
   38POPC   C4A 5382  19.342  38.613   7.740
   38POPC   C1B 5383  19.213  38.030   8.785
   38POPC   C2B 5384  19.247  38.193   8.360
   38POPC   C3B 5385  19.108  38.148   7.921
   38POPC   C4B 5386  19.395  38.121   7.569
   39POPC   NC3 5387  43.314  23.096   9.575
   39POPC   PO4 5388  42.753  22.716   9.549
   39POPC   GL1 5389  42.882  23.044   9.257
   39POPC   GL2 5390  43.141  22.866   9.150
   39POPC   C1A 5391  43.045  23.248   8.846
   39POPC   D2A 5392  43.318  23.212   8.491
   39POPC   C3A 5393  43.201  22.970   8.109
   39POPC   C4A 5394  43.042  23.023   7.674
   39POPC   C1B 5395  43.206  22.727   8.738
   39POPC   C2B 5396  43.085  22.516   8.371
   39POPC   C3B 5397  42.873  22.573   8.007
   39POPC   C4B 5398  43.164  22.538   7.729
   40POPC   NC3 5399  38.320   8.988   9.744
   40POPC   PO4 5400  38.792   8.790   9.336
   40POPC   GL1 5401  38.343   8.833   9.229
   40POPC   GL2 5402  38.394   9.129   9.128
   40POPC   C1A 5403  38.084   8.841   8.854
   40POPC   D2A 5404  38.138   8.732   8.442
   40POPC   C3A 5405  38.355   8.940   8.168
   40POPC   C4A 5406  38.462   8.757   7.833
   40POPC   C1B 5407  38.533   8.997   8.703
   40POPC   C2B 5408  38.762   9.171   8.391
   40POPC   C3B 5409  38.779   9.155   7.967
   40POPC   C4B 5410  38.946   8.823   7.718
   41POPC   NC3 5411   9.150  30.535   9.331
   41POPC   PO4 5412   8.732  30.034   9.552
   41POPC   GL1 5413   9.029  30.035   9.195
   41POPC   GL2 5414   9.250  30.217   8.968
   41POPC   C1A 5415   9.038  29.778   8.830
   41POPC   D2A 5416   8.764  29.839   8.498
   41POPC   C3A 5417   8.986  29.892   8.108
   41POPC   C4A 5418   8.996  29.678   7.721
   41POPC   C1B 5419   8.872  30.306   8.744
   41POPC   C2B 5420   8.831  30.352   8.300
   41POPC   C3B 5421   8.762  30.263   7.844
   41POPC   C4B 5422   9.083  30.150   7.557
   42POPC   NC3 5423  36.786  44.916   9.844
   42POPC   PO4 5424  37.362  44.765   9.704
   42POPC   GL1 5425  37.193  44.633   9.263
   42POPC   GL2 5426  36.969  44.890   9.235
   42POPC   C1A 5427  36.976  44.541   8.845
   42POPC   D2A 5428  36.857  44.716   8.446
   42POPC   C3A 5429  36.893  44.464   8.083
   42POPC   C4A 5430  36.629  44.479   7.761
   42POPC   C1B 5431  37.336  44.961   8.925
   42POPC   C2B 5432  37.379  44.914   8.494
   42POPC   C3B 5433  37.206  44.871   8.060
   42POPC   C4B 5434  37.239  44.751   7.627
   43POPC   NC3 5435  39.617  36.913   9.414
   43POPC   PO4 5436  40.270  37.010   9.597
   43POPC   GL1 5437  40.078  36.821   9.203
   43POPC   GL2 5438  40.302  36.522   9.099
   43POPC   C1A 5439  39.837  37.050   8.842
   43POPC   D2A 5440  39.582  37.191   8.488
   43POPC   C3A 5441  39.737  37.150   8.046
   43POPC   C4A 5442  39.764  36.901   7.641
   43POPC   C1B 5443  39.997  36.583   8.764
   43POPC   C2B 5444  39.961  36.840   8.398
   43POPC   C3B 5445  40.096  36.779   8.004
   43POPC   C4B 5446  40.233  36.579   7.682
   44POPC   NC3 5447  14.951  17.603   9.608
   44POPC   PO4 5448  15.499  17.776   9.553
   44POPC   GL1 5449  15.305  17.535   9.193
   44POPC   GL2 5450  14.983  17.665   9.114
   44POPC   C1A 5451  15.224  17.403   8.747
   44POPC   D2A 5452  15.004  17.500   8.370
   44POPC   C3A 5453  15.183  17.389   7.986
   44POPC   C4A 5454  15.611  17.308   7.883
   44POPC   C1B 5455  14.973  17.869   8.746
   44POPC   C2B 5456  14.717  17.917   8.396
   44POPC   C3B 5457  14.867  17.960   8.010
   44POPC   C4B 5458  14.956  17.703   7.653
   45POPC   NC3 5459   3.665  37.802   9.389
   45POPC   PO4 5460   3.191  37.325   9.581
   45POPC   GL1 5461   3.247  37.578   9.197
   45POPC   GL2 5462   3.132  37.914   9.204
   45POPC   C1A 5463   3.382  37.686   8.773
   45POPC   D2A 5464   3.686  37.866   8.477
   45POPC   C3A 5465   3.668  37.644   8.067
   45POPC   C4A 5466   3.997  37.422   7.838
   45POPC   C1B 5467   3.142  38.134   8.780
   45POPC   C2B 5468   3.254  38.100   8.341
   45POPC   C3B 5469   3.590  38.140   8.048
   45POPC   C4B 5470   3.594  37.930   7.609
   46POPC   NC3 5471  28.419  20.881   9.855
   46POPC   PO4 5472  28.306  21.491   9.515
   46POPC   GL1 5473  28.216  21.635   9.173
   46POPC   GL2 5474  28.358  21.922   9.174
   46POPC   C1A 5475  28.188  21.380   8.832
   46POPC   D2A 5476  28.031  21.455   8.434
   46POPC   C3A 5477  28.336  21.349   8.161
   46POPC   C4A 5478  28.309  21.059   7.847
   46POPC   C1B 5479  28.441  21.820   8.760
   46POPC   C2B 5480  28.320  21.866   8.362
   46POPC   C3B 5481  28.556  21.886   8.016
   46POPC   C4B 5482  28.619  21.589   7.727
   47POPC   NC3 5483  39.558  18.204   9.431
   47POPC   PO4 5484  38.884  18.154   9.530
   47POPC   GL1 5485  39.144  18.152   9.170
   47POPC   GL2 5486  39.218  18.475   9.074
   47POPC   C1A 5487  39.172  17.974   8.780
   47POPC   D2A 5488  39.465  17.947   8.447
   47POPC   C3A 5489  39.385  18.142   8.060
   47POPC   C4A 5490  39.626  18.248   7.723
   47POPC   C1B 5491  39.141  18.450   8.631
   47POPC   C2B 5492  39.288  18.619   8.257
   47POPC   C3B 5493  39.320  18.654   7.802
   47POPC   C4B 5494  39.057  18.576   7.436
   48POPC   NC3 5495  11.891  10.468   9.453
   48POPC   PO4 5496  12.494  10.736   9.640
   48POPC   GL1 5497  12.276  10.690   9.191
   48POPC   GL2 5498  12.056  10.488   8.983
   48POPC   C1A 5499  12.202  10.894   8.750
   48POPC   D2A 5500  12.244  10.738   8.329
   48POPC   C3A 5501  11.981  10.588   8.006
   48POPC   C4A 5502  12.076  10.511   7.562
   48POPC   C1B 5503  11.919  10.223   8.669
   48POPC   C2B 5504  11.999  10.082   8.291
   48POPC   C3B 5505  11.954  10.085   7.889
   48POPC   C4B 5506  11.623  10.260   7.723
   49POPC   NC3 5507  42.977  26.621   9.609
   49POPC   PO4 5508  42.874  27.271   9.482
   49POPC   GL1 5509  42.965  26.953   9.179
   49POPC   GL2 5510  43.292  26.830   9.235
   49POPC   C1A 5511  43.003  26.860   8.721
   49POPC   D2A 5512  43.100  26.901   8.256
   49POPC   C3A 5513  42.905  27.111   7.871
   49POPC   C4A 5514  42.683  26.979   7.461
   49POPC   C1B 5515  43.391  26.513   8.934
   49POPC   C2B 5516  43.340  26.466   8.507
   49POPC   C3B 5517  43.429  26.523   8.073
   49POPC   C4B 5518  43.232  26.717   7.722
   50POPC   NC3 5519  14.265  16.090   9.398
   50POPC   PO4 5520  13.887  15.460   9.381
   50POPC   GL1 5521  14.030  15.799   9.063
   50POPC   GL2 5522  14.416  15.909   8.986
   50POPC   C1A 5523  14.077  16.021   8.664
   50POPC   D2A 5524  14.313  15.986   8.305
   50POPC   C3A 5525  14.168  16.170   7.950
   50POPC   C4A 5526  14.213  15.919   7.665
   50POPC   C1B 5527  14.678  15.853   8.687
   50POPC   C2B 5528  14.825  15.937   8.313
   50POPC   C3B 5529  14.683  15.944   7.930
   50POPC   C4B 5530  14.650  16.181   7.618
   51POPC   NC3 5531  33.350  39.130   9.581
   51POPC   PO4 5532  32.714  39.090   9.391
   51POPC   GL1 5533  32.820  39.481   9.190
   51POPC   GL2 5534  33.174  39.471   9.240
   51POPC   C1A 5535  32.908  39.496   8.766
   51POPC   D2A 5536  33.001  39.093   8.569
   51POPC   C3A 5537  32.959  39.088   8.143
   51POPC   C4A 5538  32.960  39.214   7.710
   51POPC   C1B 5539  33.410  39.563   8.873
   51POPC   C2B 5540  33.315  39.482   8.449
   51POPC   C3B 5541  33.338  39.424   8.022
   51POPC   C4B 5542  33.307  39.774   7.804
   52POPC   NC3 5543  36.654  38.564   9.542
   52POPC   PO4 5544  37.251  38.648   9.251
   52POPC   GL1 5545  36.996  38.537   8.961
   52POPC   GL2 5546  36.777  38.330   9.115
   52POPC   C1A 5547  36.913  38.339   8.582
   52POPC   D2A 5548  36.961  38.006   8.310
   52POPC   C3A 5549  36.985  38.247   7.942
   52POPC   C4A 5550  36.940  38.706   7.832
   52POPC   C1B 5551  36.472  38.415   8.847
   52POPC   C2B 5552  36.280  38.544   8.491
   52POPC   C3B 5553  36.536  38.595   8.128
   52POPC   C4B 5554  36.507  38.338   7.735
   53POPC   NC3 5555  13.687   3.428   9.523
   53POPC   PO4 5556  14.141   3.881   9.407
   53POPC   GL1 5557  13.739   3.773   9.125
   53POPC   GL2 5558  13.694   3.397   9.010
   53POPC   C1A 5559  13.338   3.754   8.825
   53POPC   D2A 5560  13.066   3.664   8.436
   53POPC   C3A 5561  13.300   3.695   8.034
   53POPC   C4A 5562  13.646   3.925   7.824
   53POPC   C1B 5563  13.791   3.626   8.623
   53POPC   C2B 5564  13.811   3.564   8.174
   53POPC   C3B 5565  13.827   3.341   7.773
   53POPC   C4B 5566  13.844   3.086   7.372
   54POPC   NC3 5567  28.495  33.662   9.428
   54POPC   PO4 5568  28.052  34.158   9.409
   54POPC   GL1 5569  28.221  33.943   9.106
   54POPC   GL2 5570  28.579  34.092   9.112
   54POPC   C1A 5571  28.258  33.654   8.761
   54POPC   D2A 5572  27.989  33.534   8.380
   54POPC   C3A 5573  28.098  33.785   8.036
   54POPC   C4A 5574  28.508  33.798   7.862
   54POPC   C1B 5575  28.412  34.149   8.696
   54POPC   C2B 5576  28.438  34.062   8.295
   54POPC   C3B 5577  28.239  34.274   7.945
   54POPC   C4B 5578  27.894  34.119   7.673
   55POPC   NC3 5579  15.373  11.774   9.306
   55POPC   PO4 5580  14.849  12.235   9.488
   55POPC   GL1 5581  14.960  12.043   9.121
   55POPC   GL2 5582  14.871  11.693   9.185
   55POPC   C1A 5583  15.229  12.148   8.760
   55POPC   D2A 5584  15.111  12.271   8.348
   55POPC   C3A 5585  15.306  12.252   7.947
   55POPC   C4A 5586  14.959  12.315   7.639
   55POPC   C1B 5587  15.043  11.663   8.761
   55POPC   C2B 5588  14.876  11.772   8.382
   55POPC   C3B 5589  14.984  11.869   7.976
   55POPC   C4B 5590  15.131  11.809   7.577
   56POPC   NC3 5591   7.991  10.498   9.453
   56POPC   PO4 5592   8.122  11.094   9.392
   56POPC   GL1 5593   8.140  10.785   9.062
   56POPC   GL2 5594   8.447  10.554   9.029
   56POPC   C1A 5595   8.160  10.701   8.642
   56POPC   D2A 5596   8.180  10.412   8.363
   56POPC   C3A 5597   8.448  10.472   8.104
   56POPC   C4A 5598   8.261  10.797   7.912
   56POPC   C1B 5599   8.497  10.217   8.698
   56POPC   C2B 5600   8.493   9.963   8.298
   56POPC   C3B 5601   8.457   9.988   7.863
   56POPC   C4B 5602   8.584  10.304   7.635
   57POPC   NC3 5603  10.041  36.646   9.732
   57POPC   PO4 5604  10.215  36.094   9.569
   57POPC   GL1 5605   9.957  35.850   9.208
   57POPC   GL2 5606   9.577  35.929   9.180
   57POPC   C1A 5607   9.806  35.728   8.774
   57POPC   D2A 5608   9.726  35.589   8.353
   57POPC   C3A 5609   9.755  35.859   8.014
   57POPC   C4A 5610   9.629  35.921   7.580
   57POPC   C1B 5611   9.554  36.161   8.762
   57POPC   C2B 5612   9.778  36.226   8.355
   57POPC   C3B 5613   9.700  36.354   7.881
   57POPC   C4B 5614   9.414  36.366   7.466
   58POPC   NC3 5615   1.197  22.266   9.600
   58POPC   PO4 5616   1.633  21.740   9.688
   58POPC   GL1 5617   1.340  21.887   9.267
   58POPC   GL2 5618   1.303  22.233   9.095
   58POPC   C1A 5619   1.041  21.859   8.878
   58POPC   D2A 5620   1.192  21.757   8.452
   58POPC   C3A 5621   1.030  21.973   8.103
   58POPC   C4A 5622   0.972  21.998   7.696
   58POPC   C1B 5623   1.338  22.219   8.620
   58POPC   C2B 5624   1.414  22.286   8.160
   58POPC   C3B 5625   1.476  22.016   7.817
   58POPC   C4B 5626   1.746  21.704   7.936
   59POPC   NC3 5627  23.830   1.441   9.577
   59POPC   PO4 5628  23.761   0.793   9.515
   59POPC   GL1 5629  23.613   1.061   9.173
   59POPC   GL2 5630  23.463   1.394   9.207
   59POPC   C1A 5631  23.736   1.233   8.763
   59POPC   D2A 5632  23.952   1.258   8.339
   59POPC   C3A 5633  23.744   1.118   7.932
   59POPC   C4A 5634  23.375   1.055   7.646
   59POPC   C1B 5635  23.322   1.550   8.801
   59POPC   C2B 5636  23.442   1.479   8.376
   59POPC   C3B 5637  23.382   1.494   7.937
   59POPC   C4B 5638  23.654   1.461   7.543
   60POPC   NC3 5639  26.610  19.591   9.326
   60POPC   PO4 5640  26.733  20.266   9.462
   60POPC   GL1 5641  26.764  20.047   9.086
   60POPC   GL2 5642  27.021  19.764   9.067
   60POPC   C1A 5643  27.037  20.213   8.749
   60POPC   D2A 5644  27.204  20.065   8.364
   60POPC   C3A 5645  26.860  19.892   8.132
   60POPC   C4A 5646  26.765  19.870   7.703
   60POPC   C1B 5647  26.798  19.769   8.649
   60POPC   C2B 5648  26.669  19.437   8.338
   60POPC   C3B 5649  26.522  19.440   7.902
   60POPC   C4B 5650  26.563  19.468   7.449
   61POPC   NC3 5651   9.689  13.326   9.472
   61POPC   PO4 5652   9.830  14.011   9.571
   61POPC   GL1 5653   9.653  13.781   9.207
   61POPC   GL2 5654   9.928  13.573   9.074
   61POPC   C1A 5655   9.646  13.892   8.771
   61POPC   D2A 5656   9.881  13.628   8.489
   61POPC   C3A 5657   9.699  13.612   8.082
   61POPC   C4A 5658   9.637  13.867   7.722
   61POPC   C1B 5659   9.587  13.375   8.821
   61POPC   C2B 5660   9.644  13.165   8.414
   61POPC   C3B 5661   9.846  13.133   8.013
   61POPC   C4B 5662   9.673  13.340   7.652
   62POPC   NC3 5663  44.459  20.048   9.311
   62POPC   PO4 5664   0.017  19.596   9.286
   62POPC   GL1 5665  44.966  19.866   8.954
   62POPC   GL2 5666  44.847  20.204   8.992
   62POPC   C1A 5667  44.645  19.900   8.654
   62POPC   D2A 5668  44.270  19.929   8.461
   62POPC   C3A 5669  44.360  19.875   8.033
   62POPC   C4A 5670  44.482  19.826   7.619
   62POPC   C1B 5671  44.891  20.343   8.603
   62POPC   C2B 5672   0.035  20.044   8.314
   62POPC   C3B 5673  44.912  19.878   7.926
   62POPC   C4B 5674  44.847  20.200   7.640
   63POPC   NC3 5675  30.113  29.386   9.541
   63POPC   PO4 5676  30.158  28.814   9.120
   63POPC   GL1 5677  29.869  29.078   8.970
   63POPC   GL2 5678  29.805  29.371   9.087
   63POPC   C1A 5679  29.825  29.191   8.592
   63POPC   D2A 5680  30.034  29.111   8.271
   63POPC   C3A 5681  29.758  29.208   7.988
   63POPC   C4A 5682  29.636  29.067   7.602
   63POPC   C1B 5683  29.510  29.545   8.752
   63POPC   C2B 5684  29.360  29.361   8.355
   63POPC   C3B 5685  29.420  29.574   7.912
   63POPC   C4B 5686  29.334  29.490   7.478
   64POPC   NC3 5687  18.996  44.847   9.481
   64POPC   PO4 5688  19.130  44.210   9.518
   64POPC   GL1 5689  18.853  44.453   9.156
   64POPC   GL2 5690  18.751  44.846   9.046
   64POPC   C1A 5691  18.695  44.488   8.691
   64POPC   D2A 5692  18.938  44.650   8.320
   64POPC   C3A 5693  18.912  44.611   7.873
   64POPC   C4A 5694  19.297  44.400   7.771
   64POPC   C1B 5695  19.138  44.788   8.789
   64POPC   C2B 5696  19.429  44.831   8.407
   64POPC   C3B 5697  19.325  44.937   7.960
   64POPC   C4B 5698  19.233  44.841   7.505
   65POPC   NC3 5699  31.829  21.016   9.457
   65POPC   PO4 5700  31.413  21.615   9.467
   65POPC   GL1 5701  31.455  21.266   9.191
   65POPC   GL2 5702  31.780  21.385   9.088
   65POPC   C1A 5703  31.415  21.106   8.768
   65POPC   D2A 5704  31.476  21.033   8.323
   65POPC   C3A 5705  31.723  21.320   8.166
   65POPC   C4A 5706  31.904  21.414   7.800
   65POPC   C1B 5707  31.703  21.725   8.796
   65POPC   C2B 5708  31.685  21.914   8.383
   65POPC   C3B 5709  31.558  21.783   7.936
   65POPC   C4B 5710  31.190  21.601   7.711
   66POPC   NC3 5711  44.693  26.297   9.604
   66POPC   PO4 5712  44.523  25.681   9.714
   66POPC   GL1 5713  44.701  25.820   9.298
   66POPC   GL2 5714  44.397  25.987   9.248
   66POPC   C1A 5715  44.857  25.919   8.834
   66POPC   D2A 5716  44.937  26.180   8.436
   66POPC   C3A 5717  44.997  25.974   8.030
   66POPC   C4A 5718  44.803  25.997   7.581
   66POPC   C1B 5719  44.374  25.756   8.839
   66POPC   C2B 5720  44.524  25.887   8.407
   66POPC   C3B 5721  44.511  26.160   8.014
   66POPC   C4B 5722  44.278  25.982   7.667
   67POPC   NC3 5723   5.908  32.215   9.660
   67POPC   PO4 5724   6.468  31.854   9.572
   67POPC   GL1 5725   6.129  32.052   9.227
   67POPC   GL2 5726   5.767  32.197   9.170
   67POPC   C1A 5727   5.947  31.979   8.759
   67POPC   D2A 5728   6.006  32.190   8.358
   67POPC   C3A 5729   5.861  32.130   7.936
   67POPC   C4A 5730   6.075  32.085   7.503
   67POPC   C1B 5731   5.612  32.357   8.721
   67POPC   C2B 5732   5.620  32.495   8.246
   67POPC   C3B 5733   5.565  32.505   7.781
   67POPC   C4B 5734   5.237  32.555   7.456
   68POPC   NC3 5735  21.341  34.988   9.704
   68POPC   PO4 5736  21.543  34.297   9.461
   68POPC   GL1 5737  21.475  34.237   9.050
   68POPC   GL2 5738  21.802  34.314   8.950
   68POPC   C1A 5739  21.398  34.498   8.694
   68POPC   D2A 5740  21.126  34.488   8.356
   68POPC   C3A 5741  21.248  34.701   7.995
   68POPC   C4A 5742  21.380  34.657   7.586
   68POPC   C1B 5743  21.859  34.252   8.533
   68POPC   C2B 5744  21.634  34.421   8.173
   68POPC   C3B 5745  21.773  34.392   7.746
   68POPC   C4B 5746  21.672  34.234   7.305
   69POPC   NC3 5747  35.024   8.950   9.461
   69POPC   PO4 5748  35.719   8.982   9.504
   69POPC   GL1 5749  35.433   8.776   9.162
   69POPC   GL2 5750  35.165   9.011   8.949
   69POPC   C1A 5751  35.337   8.583   8.758
   69POPC   D2A 5752  35.360   8.896   8.436
   69POPC   C3A 5753  35.274   8.773   8.009
   69POPC   C4A 5754  35.402   8.992   7.648
   69POPC   C1B 5755  35.090   9.313   8.590
   69POPC   C2B 5756  34.930   9.435   8.190
   69POPC   C3B 5757  34.981   9.201   7.799
   69POPC   C4B 5758  35.050   9.248   7.337
   70POPC   NC3 5759  40.384   7.026   9.540
   70POPC   PO4 5760  40.082   6.470   9.692
   70POPC   GL1 5761  40.042   6.521   9.273
   70POPC   GL2 5762  40.174   6.265   9.151
   70POPC   C1A 5763  39.880   6.673   8.903
   70POPC   D2A 5764  40.035   6.813   8.521
   70POPC   C3A 5765  39.844   6.735   8.163
   70POPC   C4A 5766  40.077   6.645   7.816
   70POPC   C1B 5767  40.000   6.205   8.743
   70POPC   C2B 5768  40.103   6.317   8.351
   70POPC   C3B 5769  40.246   6.197   7.983
   70POPC   C4B 5770  40.052   6.167   7.620
   71POPC   NC3 5771  33.138  37.651   9.581
   71POPC   PO4 5772  32.951  38.228   9.372
   71POPC   GL1 5773  33.067  38.000   9.015
   71POPC   GL2 5774  33.148  37.686   9.082
   71POPC   C1A 5775  32.932  37.946   8.624
   71POPC   D2A 5776  32.866  38.028   8.195
   71POPC   C3A 5777  32.784  37.614   8.045
   71POPC   C4A 5778  32.944  37.281   7.809
   71POPC   C1B 5779  33.173  37.474   8.711
   71POPC   C2B 5780  33.215  37.605   8.328
   71POPC   C3B 5781  33.262  37.766   7.943
   71POPC   C4B 5782  33.379  37.485   7.659
   72POPC   NC3 5783  22.538  36.981   9.372
   72POPC   PO4 5784  23.074  37.261   9.590
   72POPC   GL1 5785  23.156  36.984   9.214
   72POPC   GL2 5786  22.921  36.777   9.063
   72POPC   C1A 5787  23.293  36.964   8.778
   72POPC   D2A 5788  23.039  36.841   8.397
   72POPC   C3A 5789  23.190  36.844   7.949
   72POPC   C4A 5790  22.929  36.708   7.577
   72POPC   C1B 5791  22.796  37.127   8.770
   72POPC   C2B 5792  22.706  37.338   8.366
   72POPC   C3B 5793  22.620  37.193   7.933
   72POPC   C4B 5794  22.707  37.190   7.473
   73POPC   NC3 5795  44.801  37.255   9.685
   73POPC   PO4 5796  44.372  36.796   9.608
   73POPC   GL1 5797  44.677  36.706   9.279
   73POPC   GL2 5798  44.821  37.047   9.157
   73POPC   C1A 5799  44.775  36.622   8.846
   73POPC   D2A 5800  44.872  36.906   8.503
   73POPC   C3A 5801   0.008  36.729   8.115
   73POPC   C4A 5802  44.707  36.765   7.782
   73POPC   C1B 5803  44.945  37.352   8.808
   73POPC   C2B 5804   0.108  37.334   8.362
   73POPC   C3B 5805  44.842  37.230   8.000
   73POPC   C4B 5806  44.966  37.329   7.585
   74POPC   NC3 5807  13.825  28.563   9.928
   74POPC   PO4 5808  13.530  28.053   9.652
   74POPC   GL1 5809  13.433  27.912   9.217
   74POPC   GL2 5810  13.508  28.246   9.122
   74POPC   C1A 5811  13.328  27.959   8.737
   74POPC   D2A 5812  13.482  27.887   8.303
   74POPC   C3A 5813  13.474  28.132   7.904
   74POPC   C4A 5814  13.858  28.291   7.669
   74POPC   C1B 5815  13.520  28.433   8.703
   74POPC   C2B 5816  13.647  28.430   8.276
   74POPC   C3B 5817  13.704  28.701   7.911
   74POPC   C4B 5818  13.745  28.741   7.438
   75POPC   NC3 5819  27.675   1.681   9.386
   75POPC   PO4 5820  27.336   2.399   9.510
   75POPC   GL1 5821  27.421   2.106   9.148
   75POPC   GL2 5822  27.771   2.105   9.069
   75POPC   C1A 5823  27.394   1.871   8.742
   75POPC   D2A 5824  27.255   1.994   8.319
   75POPC   C3A 5825  27.471   1.894   7.894
   75POPC   C4A 5826  27.583   1.719   7.450
   75POPC   C1B 5827  27.939   1.821   8.738
   75POPC   C2B 5828  27.860   1.697   8.302
   75POPC   C3B 5829  28.013   1.880   7.897
   75POPC   C4B 5830  27.843   2.270   7.755
   76POPC   NC3 5831  42.534  28.650   9.563
   76POPC   PO4 5832  42.491  29.358   9.464
   76POPC   GL1 5833  42.490  29.269   9.051
   76POPC   GL2 5834  42.530  28.920   9.097
   76POPC   C1A 5835  42.139  29.143   8.763
   76POPC   D2A 5836  42.034  29.043   8.347
   76POPC   C3A 5837  42.241  29.296   8.033
   76POPC   C4A 5838  42.139  29.244   7.587
   76POPC   C1B 5839  42.477  28.739   8.674
   76POPC   C2B 5840  42.515  28.869   8.245
   76POPC   C3B 5841  42.295  28.833   7.867
   76POPC   C4B 5842  42.501  28.870   7.488
   77POPC   NC3 5843  44.138  43.343   9.278
   77POPC   PO4 5844  44.786  43.168   9.556
   77POPC   GL1 5845  44.739  42.986   9.135
   77POPC   GL2 5846  44.676  42.642   9.104
   77POPC   C1A 5847  44.563  43.082   8.723
   77POPC   D2A 5848  44.723  43.232   8.321
   77POPC   C3A 5849  44.449  43.295   8.005
   77POPC   C4A 5850  44.590  43.244   7.567
   77POPC   C1B 5851  44.473  42.574   8.701
   77POPC   C2B 5852  44.478  42.776   8.314
   77POPC   C3B 5853  44.685  42.817   7.938
   77POPC   C4B 5854  44.293  42.864   7.781
   78POPC   NC3 5855   8.397  26.586   9.716
   78POPC   PO4 5856   8.343  25.925   9.415
   78POPC   GL1 5857   8.230  25.957   9.018
   78POPC   GL2 5858   7.879  25.919   9.117
   78POPC   C1A 5859   8.380  26.215   8.641
   78POPC   D2A 5860   8.200  26.408   8.279
   78POPC   C3A 5861   8.351  26.232   7.928
   78POPC   C4A 5862   8.529  25.813   7.788
   78POPC   C1B 5863   7.888  26.104   8.666
   78POPC   C2B 5864   8.126  25.899   8.330
   78POPC   C3B 5865   8.052  25.692   7.941
   78POPC   C4B 5866   7.791  25.759   7.634
   79POPC   NC3 5867   2.118  11.547   9.401
   79POPC   PO4 5868   1.691  11.018   9.470
   79POPC   GL1 5869   1.956  11.115   9.115
   79POPC   GL2 5870   2.287  11.004   8.969
   79POPC   C1A 5871   1.883  11.158   8.690
   79POPC   D2A 5872   2.135  11.242   8.355
   79POPC   C3A 5873   1.857  11.486   8.110
   79POPC   C4A 5874   1.856  11.257   7.764
   79POPC   C1B 5875   2.310  11.466   8.788
   79POPC   C2B 5876   2.237  11.735   8.401
   79POPC   C3B 5877   2.329  11.571   7.994
   79POPC   C4B 5878   2.302  11.560   7.583
   80POPC   NC3 5879  11.063  21.492   9.477
   80POPC   PO4 5880  11.704  21.186   9.666
   80POPC   GL1 5881  11.447  21.193   9.275
   80POPC   GL2 5882  11.075  21.049   9.211
   80POPC   C1A 5883  11.388  21.371   8.850
   80POPC   D2A 5884  11.521  21.191   8.483
   80POPC   C3A 5885  11.354  21.301   8.114
   80POPC   C4A 5886  11.547  21.371   7.724
   80POPC   C1B 5887  10.891  21.290   8.842
   80POPC   C2B 5888  11.051  21.539   8.496
   80POPC   C3B 5889  10.940  21.676   8.096
   80POPC   C4B 5890  11.097  21.583   7.720
   81POPC   NC3 5891   1.932  27.517   9.595
   81POPC   PO4 5892   2.199  27.961   9.777
   81POPC   GL1 5893   2.150  27.916   9.324
   81POPC   GL2 5894   1.808  27.912   9.250
   81POPC   C1A 5895   2.143  27.620   8.952
   81POPC   D2A 5896   2.275  27.676   8.519
   81POPC   C3A 5897   2.118  27.549   8.101
   81POPC   C4A 5898   2.349  27.472   7.732
   81POPC   C1B 5899   1.881  28.010   8.782
   81POPC   C2B 5900   1.782  27.834   8.360
   81POPC   C3B 5901   1.779  27.894   7.897
   81POPC   C4B 5902   1.547  27.842   7.485
   82POPC   NC3 5903  42.687  37.326   9.435
   82POPC   PO4 5904  42.456  37.909   9.228
   82POPC   GL1 5905  42.451  37.605   8.954
   82POPC   GL2 5906  42.080  37.629   8.970
   82POPC   C1A 5907  42.607  37.820   8.604
   82POPC   D2A 5908  42.529  38.095   8.349
   82POPC   C3A 5909  42.305  37.853   8.082
   82POPC   C4A 5910  42.495  37.796   7.711
   82POPC   C1B 5911  42.132  37.623   8.520
   82POPC   C2B 5912  42.492  37.415   8.339
   82POPC   C3B 5913  42.473  37.345   7.954
   82POPC   C4B 5914  42.090  37.495   7.730
   83POPC   NC3 5915  40.541  36.656   9.533
   83POPC   PO4 5916  40.982  37.215   9.456
   83POPC   GL1 5917  40.819  36.914   9.165
   83POPC   GL2 5918  40.529  37.027   9.154
   83POPC   C1A 5919  40.901  36.942   8.729
   83POPC   D2A 5920  41.137  37.297   8.582
   83POPC   C3A 5921  41.156  37.336   8.122
   83POPC   C4A 5922  41.025  37.096   7.754
   83POPC   C1B 5923  40.384  36.908   8.747
   83POPC   C2B 5924  40.487  36.822   8.331
   83POPC   C3B 5925  40.568  36.939   7.894
   83POPC   C4B 5926  40.633  36.820   7.456
   84POPC   NC3 5927  40.847  31.782   9.783
   84POPC   PO4 5928  41.057  31.253   9.450
   84POPC   GL1 5929  40.985  31.460   9.067
   84POPC   GL2 5930  41.225  31.704   9.084
   84POPC   C1A 5931  40.664  31.559   8.722
   84POPC   D2A 5932  40.447  31.742   8.359
   84POPC   C3A 5933  40.579  31.547   7.990
   84POPC   C4A 5934  40.694  31.466   7.566
   84POPC   C1B 5935  41.110  31.802   8.699
   84POPC   C2B 5936  40.938  31.865   8.312
   84POPC   C3B 5937  41.022  31.787   7.913
   84POPC   C4B 5938  41.189  31.526   7.602
   85POPC   NC3 5939  25.216   3.015   9.750
   85POPC   PO4 5940  25.617   2.570   9.366
   85POPC   GL1 5941  25.343   2.719   9.068
   85POPC   GL2 5942  25.037   2.878   9.117
   85POPC   C1A 5943  25.128   2.705   8.640
   85POPC   D2A 5944  25.114   2.812   8.210
   85POPC   C3A 5945  25.375   2.599   7.923
   85POPC   C4A 5946  25.651   2.575   7.583
   85POPC   C1B 5947  25.350   3.132   8.803
   85POPC   C2B 5948  25.532   3.069   8.368
   85POPC   C3B 5949  25.414   3.125   7.920
   85POPC   C4B 5950  25.706   3.172   7.608
   86POPC   NC3 5951   4.037  35.428   9.385
   86POPC   PO4 5952   3.485  35.048   9.406
   86POPC   GL1 5953   3.585  35.421   9.121
   86POPC   GL2 5954   3.547  35.780   9.279
   86POPC   C1A 5955   3.723  35.443   8.645
   86POPC   D2A 5956   3.803  35.507   8.159
   86POPC   C3A 5957   3.650  35.361   7.737
   86POPC   C4A 5958   3.794  35.534   7.331
   86POPC   C1B 5959   3.447  35.840   8.851
   86POPC   C2B 5960   3.410  35.790   8.406
   86POPC   C3B 5961   3.436  35.857   7.956
   86POPC   C4B 5962   3.371  35.750   7.509
   87POPC   NC3 5963  23.509  18.409   9.450
   87POPC   PO4 5964  23.963  17.882   9.474
   87POPC   GL1 5965  23.753  18.088   9.119
   87POPC   GL2 5966  23.809  18.467   9.043
   87POPC   C1A 5967  23.645  18.154   8.687
   87POPC   D2A 5968  23.808  18.549   8.535
   87POPC   C3A 5969  23.905  18.506   8.109
   87POPC   C4A 5970  23.906  18.103   7.964
   87POPC   C1B 5971  23.380  18.568   8.835
   87POPC   C2B 5972  23.307  18.604   8.370
   87POPC   C3B 5973  23.423  18.379   7.954
   87POPC   C4B 5974  23.391  18.524   7.496
   88POPC   NC3 5975  10.492  18.693   9.423
   88POPC   PO4 5976  10.069  19.218   9.295
   88POPC   GL1 5977  10.486  19.111   9.083
   88POPC   GL2 5978  10.803  19.331   9.087
   88POPC   C1A 5979  10.558  18.758   8.788
   88POPC   D2A 5980  10.817  18.596   8.490
   88POPC   C3A 5981  10.628  18.739   8.102
   88POPC   C4A 5982  10.410  19.070   7.834
   88POPC   C1B 5983  10.947  19.077   8.748
   88POPC   C2B 5984  10.747  19.128   8.402
   88POPC   C3B 5985  10.881  19.157   7.995
   88POPC   C4B 5986  10.852  19.278   7.589
   89POPC   NC3 5987  14.690  14.296   9.509
   89POPC   PO4 5988  15.330  14.640   9.696
   89POPC   GL1 5989  15.312  14.596   9.240
   89POPC   GL2 5990  15.003  14.677   9.147
   89POPC   C1A 5991  15.222  14.392   8.798
   89POPC   D2A 5992  15.138  14.544   8.377
   89POPC   C3A 5993  15.379  14.458   7.990
   89POPC   C4A 5994  15.399  14.704   7.619
   89POPC   C1B 5995  14.968  14.881   8.734
   89POPC   C2B 5996  14.831  14.958   8.292
   89POPC   C3B 5997  14.914  14.649   7.926
   89POPC   C4B 5998  14.710  14.239   7.786
   90POPC   NC3 5999  30.478  19.648   9.449
   90POPC   PO4 6000  30.588  20.258   9.466
   90POPC   GL1 6001  30.669  19.963   9.115
   90POPC   GL2 6002  30.888  19.623   9.162
   90POPC   C1A 6003  30.680  19.897   8.704
   90POPC   D2A 6004  30.670  19.984   8.297
   90POPC   C3A 6005  30.599  19.604   8.081
   90POPC   C4A 6006  30.393  19.585   7.706
   90POPC   C1B 6007  31.117  19.635   8.770
   90POPC   C2B 6008  31.033  19.587   8.329
   90POPC   C3B 6009  31.149  19.720   7.898
   90POPC   C4B 6010  31.329  19.534   7.545
   91POPC   NC3 6011   9.107  27.062   9.402
   91POPC   PO4 6012   8.496  26.836   9.335
   91POPC   GL1 6013   8.828  26.678   9.091
   91POPC   GL2 6014   9.153  26.570   9.209
   91POPC   C1A 6015   8.896  26.626   8.662
   91POPC   D2A 6016   8.728  26.471   8.267
   91POPC   C3A 6017   8.854  26.679   7.885
   91POPC   C4A 6018   9.097  26.930   7.612
   91POPC   C1B 6019   9.283  26.294   8.850
   91POPC   C2B 6020   9.250  26.370   8.388
   91POPC   C3B 6021   9.319  26.680   8.065
   91POPC   C4B 6022   9.272  26.463   7.683
   92POPC   NC3 6023  34.000  10.234   9.513
   92POPC   PO4 6024  33.931  10.862   9.469
   92POPC   GL1 6025  34.088  10.578   9.071
   92POPC   GL2 6026  34.128  10.208   9.034
   92POPC   C1A 6027  34.113  10.453   8.585
   92POPC   D2A 6028  34.158  10.549   8.120
   92POPC   C3A 6029  33.923  10.572   7.710
   92POPC   C4A 6030  33.940  10.794   7.305
   92POPC   C1B 6031  33.754  10.115   8.769
   92POPC   C2B 6032  33.687  10.241   8.325
   92POPC   C3B 6033  33.627  10.174   7.880
   92POPC   C4B 6034  33.467  10.411   7.516
   93POPC   NC3 6035  24.619  38.312   9.646
   93POPC   PO4 6036  24.125  38.597   9.491
   93POPC   GL1 6037  24.310  38.321   9.184
   93POPC   GL2 6038  24.682  38.277   9.152
   93POPC   C1A 6039  24.407  38.458   8.756
   93POPC   D2A 6040  24.182  38.477   8.385
   93POPC   C3A 6041  24.367  38.489   8.008
   93POPC   C4A 6042  24.353  38.555   7.568
   93POPC   C1B 6043  24.902  38.295   8.791
   93POPC   C2B 6044  24.920  38.536   8.469
   93POPC   C3B 6045  24.883  38.523   8.070
   93POPC   C4B 6046  24.743  38.236   7.768
   94POPC   NC3 6047  12.932  23.779   9.551
   94POPC   PO4 6048  12.858  23.069   9.455
   94POPC   GL1 6049  12.654  23.301   9.127
   94POPC   GL2 6050  12.675  23.652   9.151
   94POPC   C1A 6051  12.903  23.398   8.778
   94POPC   D2A 6052  13.125  23.667   8.555
   94POPC   C3A 6053  12.991  23.551   8.166
   94POPC   C4A 6054  13.173  23.716   7.811
   94POPC   C1B 6055  12.762  23.903   8.839
   94POPC   C2B 6056  12.643  23.817   8.469
   94POPC   C3B 6057  12.605  23.891   8.088
   94POPC   C4B 6058  12.758  24.007   7.729
   95POPC   NC3 6059   3.045  20.011   9.178
   95POPC   PO4 6060   2.467  19.919   9.570
   95POPC   GL1 6061   2.525  19.817   9.135
   95POPC   GL2 6062   2.762  19.596   9.056
   95POPC   C1A 6063   2.428  19.837   8.681
   95POPC   D2A 6064   2.411  19.614   8.286
   95POPC   C3A 6065   2.324  19.720   7.866
   95POPC   C4A 6066   2.566  19.758   7.480
   95POPC   C1B 6067   2.960  19.564   8.669
   95POPC   C2B 6068   2.906  19.840   8.350
   95POPC   C3B 6069   2.807  19.898   7.944
   95POPC   C4B 6070   2.924  20.160   7.556
   96POPC   NC3 6071   0.180  41.417   9.412
   96POPC   PO4 6072   0.686  41.931   9.424
   96POPC   GL1 6073   0.452  41.724   9.115
   96POPC   GL2 6074   0.095  41.826   9.076
   96POPC   C1A 6075   0.392  41.405   8.778
   96POPC   D2A 6076   0.495  41.492   8.359
   96POPC   C3A 6077   0.284  41.298   8.030
   96POPC   C4A 6078   0.209  41.356   7.635
   96POPC   C1B 6079   0.291  41.900   8.657
   96POPC   C2B 6080   0.247  41.896   8.188
   96POPC   C3B 6081   0.519  41.727   7.857
   96POPC   C4B 6082   0.596  41.620   7.397
   97POPC   NC3 6083  35.587   9.666   9.384
   97POPC   PO4 6084  35.363  10.272   9.518
   97POPC   GL1 6085  35.297  10.484   9.118
   97POPC   GL2 6086  35.083  10.821   9.125
   97POPC   C1A 6087  35.434  10.273   8.723
   97POPC   D2A 6088  35.464  10.039   8.319
   97POPC   C3A 6089  35.441  10.336   7.980
   97POPC   C4A 6090  35.474  10.798   7.919
   97POPC   C1B 6091  34.981  10.628   8.736
   97POPC   C2B 6092  35.117  10.470   8.361
   97POPC   C3B 6093  34.989  10.609   7.984
   97POPC   C4B 6094  35.150  10.549   7.602
   98POPC   NC3 6095  16.825  35.160   9.627
   98POPC   PO4 6096  16.898  35.872   9.697
   98POPC   GL1 6097  16.976  35.757   9.220
   98POPC   GL2 6098  16.940  35.395   9.197
   98POPC   C1A 6099  16.650  35.605   8.864
   98POPC   D2A 6100  16.593  35.248   8.573
   98POPC   C3A 6101  16.564  35.431   8.155
   98POPC   C4A 6102  16.480  35.379   7.710
   98POPC   C1B 6103  17.085  35.292   8.805
   98POPC   C2B 6104  16.985  35.552   8.480
   98POPC   C3B 6105  17.064  35.582   8.067
   98POPC   C4B 6106  17.018  35.366   7.706
   99POPC   NC3 6107  32.806  40.839   9.749
   99POPC   PO4 6108  33.339  40.428   9.545
   99POPC   GL1 6109  33.102  40.581   9.201
   99POPC   GL2 6110  33.042  40.957   9.190
   99POPC   C1A 6111  33.236  40.723   8.797
   99POPC   D2A 6112  32.980  40.767   8.486
   99POPC   C3A 6113  33.161  41.023   8.191
   99POPC   C4A 6114  33.156  40.850   7.816
   99POPC   C1B 6115  32.777  41.103   8.833
   99POPC   C2B 6116  32.595  41.076   8.420
   99POPC   C3B 6117  32.688  40.861   8.063
   99POPC   C4B 6118  32.675  41.100   7.711
  100POPC   NC3 6119  41.088  28.097   9.450
  100POPC   PO4 6120  40.539  28.432   9.115
  100POPC   GL1 6121  40.918  28.286   9.002
  100POPC   GL2 6122  41.210  28.422   9.092
  100POPC   C1A 6123  41.011  28.063   8.686
  100POPC   D2A 6124  41.133  28.080   8.308
  100POPC   C3A 6125  40.893  28.299   7.999
  100POPC   C4A 6126  40.623  28.609   7.828
  100POPC   C1B 6127  41.317  28.467   8.710
  100POPC   C2B 6128  41.019  28.568   8.456
  100POPC   C3B 6129  41.008  28.795   8.108
  100POPC   C4B 6130  41.196  28.802   7.737
  101POPC   NC3 6131  11.751  34.622   9.467
  101POPC   PO4 6132  12.326  34.277   9.561
  101POPC   GL1 6133  12.185  34.464   9.129
  101POPC   GL2 6134  11.936  34.739   9.000
  101POPC   C1A 6135  11.935  34.316   8.769
  101POPC   D2A 6136  11.756  34.548   8.431
  101POPC   C3A 6137  11.948  34.632   8.076
  101POPC   C4A 6138  11.923  34.516   7.668
  101POPC   C1B 6139  12.178  34.772   8.621
  101POPC   C2B 6140  12.440  34.698   8.267
  101POPC   C3B 6141  12.391  34.573   7.842
  101POPC   C4B 6142  12.308  34.796   7.423
  102POPC   NC3 6143  26.752  10.173   9.468
  102POPC   PO4 6144  27.089   9.610   9.432
  102POPC   GL1 6145  26.687   9.693   9.179
  102POPC   GL2 6146  26.660  10.020   9.001
  102POPC   C1A 6147  26.587   9.564   8.745
  102POPC   D2A 6148  26.915   9.534   8.412
  102POPC   C3A 6149  26.824   9.416   8.010
  102POPC   C4A 6150  26.854   9.573   7.630
  102POPC   C1B 6151  26.611  10.030   8.591
  102POPC   C2B 6152  26.548  10.198   8.219
  102POPC   C3B 6153  26.704   9.974   7.896
  102POPC   C4B 6154  26.943  10.047   7.499
  103POPC   NC3 6155   6.532  32.364   9.490
  103POPC   PO4 6156   7.166  32.133   9.404
  103POPC   GL1 6157   6.815  32.048   9.106
  103POPC   GL2 6158   6.550  32.318   8.993
  103POPC   C1A 6159   6.815  32.028   8.610
  103POPC   D2A 6160   6.485  32.319   8.459
  103POPC   C3A 6161   6.376  32.347   8.028
  103POPC   C4A 6162   6.567  32.135   7.716
  103POPC   C1B 6163   6.419  31.889   8.861
  103POPC   C2B 6164   6.354  31.826   8.451
  103POPC   C3B 6165   6.250  31.827   8.013
  103POPC   C4B 6166   6.421  31.668   7.624
  104POPC   NC3 6167  31.244   6.048   9.654
  104POPC   PO4 6168  31.542   5.449   9.686
  104POPC   GL1 6169  31.469   5.768   9.291
  104POPC   GL2 6170  31.665   6.087   9.329
  104POPC   C1A 6171  31.261   5.837   8.864
  104POPC   D2A 6172  31.042   5.881   8.450
  104POPC   C3A 6173  31.274   5.902   8.070
  104POPC   C4A 6174  31.383   5.720   7.663
  104POPC   C1B 6175  31.622   6.211   8.911
  104POPC   C2B 6176  31.526   6.105   8.500
  104POPC   C3B 6177  31.703   6.189   8.096
  104POPC   C4B 6178  31.466   6.223   7.702
  105POPC   NC3 6179  38.516   8.386   9.398
  105POPC   PO4 6180  38.088   7.878   9.389
  105POPC   GL1 6181  38.264   8.039   9.083
  105POPC   GL2 6182  38.562   7.929   9.119
  105POPC   C1A 6183  38.264   8.357   8.793
  105POPC   D2A 6184  38.474   8.356   8.425
  105POPC   C3A 6185  38.311   8.330   8.053
  105POPC   C4A 6186  38.455   8.280   7.657
  105POPC   C1B 6187  38.708   8.074   8.767
  105POPC   C2B 6188  38.849   7.989   8.358
  105POPC   C3B 6189  38.835   7.862   7.945
  105POPC   C4B 6190  38.689   7.865   7.532
  106POPC   NC3 6191  19.105   2.361   9.488
  106POPC   PO4 6192  18.574   1.907   9.496
  106POPC   GL1 6193  18.740   2.171   9.181
  106POPC   GL2 6194  19.087   2.162   9.015
  106POPC   C1A 6195  18.634   2.172   8.775
  106POPC   D2A 6196  18.918   2.029   8.448
  106POPC   C3A 6197  18.968   2.199   8.041
  106POPC   C4A 6198  18.848   2.146   7.609
  106POPC   C1B 6199  19.270   1.797   8.773
  106POPC   C2B 6200  19.410   1.772   8.360
  106POPC   C3B 6201  19.422   1.635   7.959
  106POPC   C4B 6202  19.268   1.898   7.680
  107POPC   NC3 6203  14.008   6.835   9.651
  107POPC   PO4 6204  14.518   6.456   9.550
  107POPC   GL1 6205  14.527   6.672   9.193
  107POPC   GL2 6206  14.459   6.357   9.051
  107POPC   C1A 6207  14.601   6.772   8.762
  107POPC   D2A 6208  14.375   6.734   8.376
  107POPC   C3A 6209  14.527   6.896   7.980
  107POPC   C4A 6210  14.615   6.708   7.592
  107POPC   C1B 6211  14.659   6.232   8.712
  107POPC   C2B 6212  14.841   6.392   8.389
  107POPC   C3B 6213  14.644   6.399   8.018
  107POPC   C4B 6214  14.530   6.174   7.686
  108POPC   NC3 6215  12.520   9.343   9.471
  108POPC   PO4 6216  12.705   8.731   9.385
  108POPC   GL1 6217  12.934   9.060   9.201
  108POPC   GL2 6218  13.009   9.409   9.241
  108POPC   C1A 6219  13.013   9.006   8.797
  108POPC   D2A 6220  12.782   9.086   8.435
  108POPC   C3A 6221  12.715   8.828   8.074
  108POPC   C4A 6222  12.804   8.922   7.661
  108POPC   C1B 6223  12.987   9.520   8.796
  108POPC   C2B 6224  13.114   9.462   8.329
  108POPC   C3B 6225  13.133   9.181   7.966
  108POPC   C4B 6226  13.262   9.210   7.518
  109POPC   NC3 6227  42.474  27.128   9.272
  109POPC   PO4 6228  42.519  26.435   9.470
  109POPC   GL1 6229  42.369  26.501   9.053
  109POPC   GL2 6230  42.125  26.720   9.159
  109POPC   C1A 6231  42.462  26.637   8.623
  109POPC   D2A 6232  42.591  26.969   8.333
  109POPC   C3A 6233  42.465  26.839   7.935
  109POPC   C4A 6234  42.232  26.500   7.773
  109POPC   C1B 6235  42.072  26.947   8.760
  109POPC   C2B 6236  41.989  26.846   8.341
  109POPC   C3B 6237  42.020  27.091   7.983
  109POPC   C4B 6238  41.870  27.308   7.634
  110POPC   NC3 6239   0.774   2.441   9.812
  110POPC   PO4 6240   1.284   2.882   9.673
  110POPC   GL1 6241   1.249   2.927   9.216
  110POPC   GL2 6242   1.442   2.672   9.062
  110POPC   C1A 6243   1.085   2.934   8.773
  110POPC   D2A 6244   1.215   2.936   8.319
  110POPC   C3A 6245   0.891   2.852   8.011
  110POPC   C4A 6246   0.899   2.539   7.681
  110POPC   C1B 6247   1.586   2.807   8.657
  110POPC   C2B 6248   1.627   2.575   8.262
  110POPC   C3B 6249   1.374   2.642   7.910
  110POPC   C4B 6250   1.314   3.080   7.770
  111POPC   NC3 6251  26.113  10.531   9.529
  111POPC   PO4 6252  25.522  10.766   9.500
  111POPC   GL1 6253  25.764  10.580   9.119
  111POPC   GL2 6254  26.132  10.600   9.036
  111POPC   C1A 6255  25.778  10.615   8.661
  111POPC   D2A 6256  26.043  10.826   8.366
  111POPC   C3A 6257  26.080  10.701   7.934
  111POPC   C4A 6258  25.763  10.943   7.708
  111POPC   C1B 6259  26.260  10.394   8.658
  111POPC   C2B 6260  26.032  10.309   8.290
  111POPC   C3B 6261  26.149  10.147   7.898
  111POPC   C4B 6262  26.044  10.341   7.497
  112POPC   NC3 6263  19.679  27.993   9.477
  112POPC   PO4 6264  19.952  28.605   9.480
  112POPC   GL1 6265  19.602  28.516   9.209
  112POPC   GL2 6266  19.823  28.259   9.065
  112POPC   C1A 6267  19.627  28.623   8.779
  112POPC   D2A 6268  20.051  28.527   8.577
  112POPC   C3A 6269  20.055  28.579   8.140
  112POPC   C4A 6270  19.786  28.454   7.803
  112POPC   C1B 6271  20.090  28.056   8.769
  112POPC   C2B 6272  20.084  27.955   8.339
  112POPC   C3B 6273  19.894  27.979   7.949
  112POPC   C4B 6274  20.113  28.124   7.570
  113POPC   NC3 6275  35.307  42.156   9.487
  113POPC   PO4 6276  35.198  42.744   9.841
  113POPC   GL1 6277  35.341  42.671   9.364
  113POPC   GL2 6278  35.629  42.495   9.278
  113POPC   C1A 6279  35.280  42.570   8.890
  113POPC   D2A 6280  35.235  42.628   8.445
  113POPC   C3A 6281  35.180  42.268   8.169
  113POPC   C4A 6282  35.062  42.305   7.759
  113POPC   C1B 6283  35.693  42.277   8.848
  113POPC   C2B 6284  35.650  42.273   8.381
  113POPC   C3B 6285  35.633  42.227   7.918
  113POPC   C4B 6286  35.778  42.083   7.529
  114POPC   NC3 6287  39.686   4.650   9.346
  114POPC   PO4 6288  40.178   5.095   9.646
  114POPC   GL1 6289  40.011   5.050   9.243
  114POPC   GL2 6290  40.191   4.771   9.151
  114POPC   C1A 6291  39.816   5.251   8.868
  114POPC   D2A 6292  39.687   5.424   8.485
  114POPC   C3A 6293  39.889   5.400   8.108
  114POPC   C4A 6294  39.713   5.263   7.701
  114POPC   C1B 6295  39.920   4.769   8.755
  114POPC   C2B 6296  39.842   4.950   8.365
  114POPC   C3B 6297  39.806   4.823   7.941
  114POPC   C4B 6298  40.031   4.812   7.529
  115POPC   NC3 6299  20.700  35.093   9.660
  115POPC   PO4 6300  20.436  35.672   9.370
  115POPC   GL1 6301  20.566  35.297   9.145
  115POPC   GL2 6302  20.749  34.969   9.169
  115POPC   C1A 6303  20.698  35.329   8.719
  115POPC   D2A 6304  20.425  35.464   8.382
  115POPC   C3A 6305  20.592  35.512   7.984
  115POPC   C4A 6306  20.436  35.454   7.584
  115POPC   C1B 6307  20.459  34.890   8.846
  115POPC   C2B 6308  20.271  34.963   8.427
  115POPC   C3B 6309  20.380  35.017   7.980
  115POPC   C4B 6310  20.475  34.764   7.632
  116POPC   NC3 6311  19.815   9.292   9.540
  116POPC   PO4 6312  19.415   9.765   9.567
  116POPC   GL1 6313  19.590   9.557   9.185
  116POPC   GL2 6314  19.862   9.820   9.235
  116POPC   C1A 6315  19.859   9.560   8.806
  116POPC   D2A 6316  19.837   9.741   8.437
  116POPC   C3A 6317  19.790   9.521   8.110
  116POPC   C4A 6318  19.826   9.598   7.728
  116POPC   C1B 6319  19.786  10.066   8.858
  116POPC   C2B 6320  19.632  10.186   8.449
  116POPC   C3B 6321  19.604  10.006   8.018
  116POPC   C4B 6322  19.820  10.100   7.646
  117POPC   NC3 6323  44.988   2.890   9.637
  117POPC   PO4 6324  44.273   2.842   9.746
  117POPC   GL1 6325  44.526   2.760   9.315
  117POPC   GL2 6326  44.850   2.877   9.126
  117POPC   C1A 6327  44.465   2.714   8.844
  117POPC   D2A 6328  44.632   2.830   8.421
  117POPC   C3A 6329  44.482   2.669   8.009
  117POPC   C4A 6330  44.571   2.785   7.578
  117POPC   C1B 6331   0.006   3.077   8.706
  117POPC   C2B 6332  44.965   3.191   8.253
  117POPC   C3B 6333  44.963   2.975   7.864
  117POPC   C4B 6334   0.103   3.150   7.465
  118POPC   NC3 6335  38.165  11.548   9.594
  118POPC   PO4 6336  37.728  11.049   9.481
  118POPC   GL1 6337  37.681  11.265   9.133
  118POPC   GL2 6338  37.996  11.324   9.109
  118POPC   C1A 6339  37.748  11.294   8.666
  118POPC   D2A 6340  37.936  11.290   8.282
  118POPC   C3A 6341  37.646  11.264   7.999
  118POPC   C4A 6342  37.549  11.503   7.675
  118POPC   C1B 6343  37.890  10.863   8.871
  118POPC   C2B 6344  37.781  10.822   8.419
  118POPC   C3B 6345  37.950  10.847   7.966
  118POPC   C4B 6346  38.006  11.165   7.616
  119POPC   NC3 6347  17.759  23.176   9.449
  119POPC   PO4 6348  17.649  22.494   9.260
  119POPC   GL1 6349  17.692  22.871   9.039
  119POPC   GL2 6350  17.364  23.010   9.090
  119POPC   C1A 6351  17.629  22.984   8.602
  119POPC   D2A 6352  17.467  22.731   8.233
  119POPC   C3A 6353  17.627  22.868   7.848
  119POPC   C4A 6354  17.934  23.089   7.621
  119POPC   C1B 6355  17.181  23.188   8.725
  119POPC   C2B 6356  17.241  23.197   8.305
  119POPC   C3B 6357  17.199  23.136   7.914
  119POPC   C4B 6358  17.479  23.334   7.677
  120POPC   NC3 6359  40.197   2.337   9.426
  120POPC   PO4 6360  40.352   1.778   9.684
  120POPC   GL1 6361  40.212   1.820   9.183
  120POPC   GL2 6362  39.921   2.058   9.095
  120POPC   C1A 6363  40.226   1.933   8.699
  120POPC   D2A 6364  39.933   1.777   8.370
  120POPC   C3A 6365  39.967   1.832   7.940
  120POPC   C4A 6366  40.080   2.157   7.625
  120POPC   C1B 6367  39.802   2.191   8.655
  120POPC   C2B 6368  39.887   2.291   8.192
  120POPC   C3B 6369  39.609   2.202   7.838
  120POPC   C4B 6370  39.613   1.934   7.476
  121POPC   NC3 6371  32.199  33.169   9.640
  121POPC   PO4 6372  32.577  32.570   9.581
  121POPC   GL1 6373  32.380  32.911   9.239
  121POPC   GL2 6374  31.999  32.875   9.248
  121POPC   C1A 6375  32.248  33.231   8.872
  121POPC   D2A 6376  32.292  33.332   8.395
  121POPC   C3A 6377  32.377  33.031   8.028
  121POPC   C4A 6378  32.485  32.915   7.595
  121POPC   C1B 6379  32.092  32.737   8.838
  121POPC   C2B 6380  32.144  32.854   8.463
  121POPC   C3B 6381  31.876  33.048   8.172
  121POPC   C4B 6382  31.946  32.936   7.754
  122POPC   NC3 6383   6.307  10.636   9.550
  122POPC   PO4 6384   6.851  10.218   9.571
  122POPC   GL1 6385   6.576  10.323   9.250
  122POPC   GL2 6386   6.861  10.382   9.067
  122POPC   C1A 6387   6.437  10.484   8.829
  122POPC   D2A 6388   6.451  10.758   8.457
  122POPC   C3A 6389   6.275  10.704   8.035
  122POPC   C4A 6390   6.345  10.414   7.738
  122POPC   C1B 6391   6.861  10.778   8.795
  122POPC   C2B 6392   6.948  10.795   8.350
  122POPC   C3B 6393   6.761  10.549   8.027
  122POPC   C4B 6394   6.776  10.648   7.574
  123POPC   NC3 6395  40.375  32.903   9.457
  123POPC   PO4 6396  40.805  33.367   9.416
  123POPC   GL1 6397  40.742  33.047   9.127
  123POPC   GL2 6398  40.790  32.678   9.200
  123POPC   C1A 6399  40.657  33.108   8.728
  123POPC   D2A 6400  40.450  33.273   8.384
  123POPC   C3A 6401  40.740  33.167   8.065
  123POPC   C4A 6402  40.934  33.381   7.759
  123POPC   C1B 6403  40.672  32.584   8.772
  123POPC   C2B 6404  40.577  32.760   8.356
  123POPC   C3B 6405  40.693  32.686   7.910
  123POPC   C4B 6406  40.661  32.761   7.441
  124POPC   NC3 6407   3.004  18.293   9.601
  124POPC   PO4 6408   2.353  18.280   9.659
  124POPC   GL1 6409   2.736  18.398   9.212
  124POPC   GL2 6410   2.910  18.064   9.154
  124POPC   C1A 6411   2.824  18.398   8.741
  124POPC   D2A 6412   2.675  18.064   8.431
  124POPC   C3A 6413   2.558  18.096   7.997
  124POPC   C4A 6414   2.604  18.430   7.711
  124POPC   C1B 6415   3.156  17.979   8.793
  124POPC   C2B 6416   3.174  18.201   8.403
  124POPC   C3B 6417   2.994  18.359   8.047
  124POPC   C4B 6418   3.019  18.109   7.631
  125POPC   NC3 6419  26.643  34.669   9.514
  125POPC   PO4 6420  27.286  34.729   9.366
  125POPC   GL1 6421  26.922  34.595   9.074
  125POPC   GL2 6422  26.617  34.833   9.035
  125POPC   C1A 6423  27.044  34.382   8.680
  125POPC   D2A 6424  27.097  34.556   8.265
  125POPC   C3A 6425  26.720  34.425   8.076
  125POPC   C4A 6426  26.582  34.343   7.668
  125POPC   C1B 6427  26.785  34.838   8.621
  125POPC   C2B 6428  26.635  35.048   8.286
  125POPC   C3B 6429  26.559  34.884   7.939
  125POPC   C4B 6430  26.620  34.824   7.548
  126POPC   NC3 6431  37.796  31.361   9.567
  126POPC   PO4 6432  37.492  31.935   9.585
  126POPC   GL1 6433  37.561  31.669   9.228
  126POPC   GL2 6434  37.904  31.741   9.228
  126POPC   C1A 6435  37.421  31.439   8.849
  126POPC   D2A 6436  37.190  31.373   8.438
  126POPC   C3A 6437  37.444  31.464   8.084
  126POPC   C4A 6438  37.425  31.648   7.698
  126POPC   C1B 6439  37.919  31.573   8.825
  126POPC   C2B 6440  38.058  31.483   8.405
  126POPC   C3B 6441  37.962  31.558   7.973
  126POPC   C4B 6442  37.886  31.587   7.505
  127POPC   NC3 6443  29.811  24.998   9.400
  127POPC   PO4 6444  29.812  25.671   9.558
  127POPC   GL1 6445  29.753  25.457   9.143
  127POPC   GL2 6446  30.054  25.272   9.047
  127POPC   C1A 6447  29.885  25.592   8.697
  127POPC   D2A 6448  30.082  25.524   8.268
  127POPC   C3A 6449  29.813  25.566   7.885
  127POPC   C4A 6450  29.625  25.406   7.464
  127POPC   C1B 6451  29.855  25.084   8.713
  127POPC   C2B 6452  29.976  24.961   8.343
  127POPC   C3B 6453  29.866  25.083   7.957
  127POPC   C4B 6454  29.882  24.968   7.544
  128POPC   NC3 6455  37.822  29.537   9.446
  128POPC   PO4 6456  37.915  30.292   9.512
  128POPC   GL1 6457  37.658  30.098   9.153
  128POPC   GL2 6458  37.640  29.765   9.042
  128POPC   C1A 6459  37.504  30.110   8.717
  128POPC   D2A 6460  37.703  30.206   8.363
  128POPC   C3A 6461  37.575  30.099   7.984
  128POPC   C4A 6462  37.423  30.133   7.592
  128POPC   C1B 6463  37.924  29.787   8.768
  128POPC   C2B 6464  37.749  29.706   8.419
  128POPC   C3B 6465  37.948  29.767   8.081
  128POPC   C4B 6466  37.728  29.684   7.737
  129POPC   NC3 6467  32.854  33.430   9.452
  129POPC   PO4 6468  33.076  34.029   9.538
  129POPC   GL1 6469  33.239  33.839   9.139
  129POPC   GL2 6470  33.217  33.494   9.067
  129POPC   C1A 6471  33.234  33.835   8.695
  129POPC   D2A 6472  33.117  33.900   8.270
  129POPC   C3A 6473  33.369  34.081   7.965
  129POPC   C4A 6474  33.204  34.054   7.537
  129POPC   C1B 6475  32.821  33.517   8.808
  129POPC   C2B 6476  32.700  33.634   8.410
  129POPC   C3B 6477  32.863  33.502   8.016
  129POPC   C4B 6478  33.247  33.625   7.814
  130POPC   NC3 6479  27.054  35.501   9.438
  130POPC   PO4 6480  26.430  35.150   9.422
  130POPC   GL1 6481  26.715  35.322   9.123
  130POPC   GL2 6482  27.035  35.121   9.100
  130POPC   C1A 6483  26.697  35.331   8.702
  130POPC   D2A 6484  26.872  35.534   8.373
  130POPC   C3A 6485  26.803  35.434   7.987
  130POPC   C4A 6486  26.521  35.336   7.713
  130POPC   C1B 6487  27.182  35.148   8.683
  130POPC   C2B 6488  27.124  35.116   8.222
  130POPC   C3B 6489  27.045  35.036   7.750
  130POPC   C4B 6490  27.235  35.232   7.353
  131POPC   NC3 6491  22.072  23.976   9.448
  131POPC   PO4 6492  21.928  23.439   9.371
  131POPC   GL1 6493  22.173  23.608   9.072
  131POPC   GL2 6494  22.521  23.549   9.118
  131POPC   C1A 6495  22.047  23.789   8.689
  131POPC   D2A 6496  22.080  23.568   8.267
  131POPC   C3A 6497  21.881  23.859   7.992
  131POPC   C4A 6498  21.881  23.815   7.583
  131POPC   C1B 6499  22.461  23.529   8.635
  131POPC   C2B 6500  22.468  23.900   8.367
  131POPC   C3B 6501  22.380  23.933   7.953
  131POPC   C4B 6502  22.335  23.612   7.696
  132POPC   NC3 6503  17.002  22.672   9.488
  132POPC   PO4 6504  16.621  23.204   9.578
  132POPC   GL1 6505  16.843  23.094   9.201
  132POPC   GL2 6506  16.972  23.398   9.113
  132POPC   C1A 6507  16.791  22.846   8.794
  132POPC   D2A 6508  16.500  22.736   8.413
  132POPC   C3A 6509  16.664  22.800   7.972
  132POPC   C4A 6510  16.628  22.920   7.528
  132POPC   C1B 6511  16.712  23.376   8.776
  132POPC   C2B 6512  16.740  23.195   8.347
  132POPC   C3B 6513  16.725  23.308   7.869
  132POPC   C4B 6514  16.643  23.440   7.415
  133POPC   NC3 6515  39.867  35.175   9.508
  133POPC   PO4 6516  40.478  35.568   9.413
  133POPC   GL1 6517  40.170  35.463   9.084
  133POPC   GL2 6518  39.927  35.191   9.029
  133POPC   C1A 6519  40.000  35.600   8.679
  133POPC   D2A 6520  39.851  35.466   8.290
  133POPC   C3A 6521  40.111  35.582   7.933
  133POPC   C4A 6522  39.881  35.327   7.657
  133POPC   C1B 6523  40.116  35.104   8.679
  133POPC   C2B 6524  40.020  34.969   8.301
  133POPC   C3B 6525  40.230  35.083   7.948
  133POPC   C4B 6526  40.148  34.898   7.575
  134POPC   NC3 6527  41.929   3.959   9.429
  134POPC   PO4 6528  42.266   4.539   9.404
  134POPC   GL1 6529  42.522   4.367   9.098
  134POPC   GL2 6530  42.222   4.173   9.035
  134POPC   C1A 6531  42.605   4.133   8.727
  134POPC   D2A 6532  42.361   3.990   8.380
  134POPC   C3A 6533  42.431   4.272   8.064
  134POPC   C4A 6534  42.468   4.267   7.652
  134POPC   C1B 6535  42.157   4.404   8.638
  134POPC   C2B 6536  41.933   4.287   8.240
  134POPC   C3B 6537  41.996   4.165   7.813
  134POPC   C4B 6538  42.130   4.073   7.340
  135POPC   NC3 6539  18.059  27.224   9.375
  135POPC   PO4 6540  18.240  27.775   9.696
  135POPC   GL1 6541  18.350  27.807   9.258
  135POPC   GL2 6542  18.453  27.470   9.116
  135POPC   C1A 6543  18.376  27.894   8.831
  135POPC   D2A 6544  18.236  27.637   8.499
  135POPC   C3A 6545  18.112  27.823   8.128
  135POPC   C4A 6546  18.133  27.706   7.726
  135POPC   C1B 6547  18.367  27.181   8.745
  135POPC   C2B 6548  18.213  27.144   8.344
  135POPC   C3B 6549  18.379  27.298   7.969
  135POPC   C4B 6550  18.550  27.408   7.555
  136POPC   NC3 6551  24.939  32.783   9.470
  136POPC   PO4 6552  25.450  33.256   9.421
  136POPC   GL1 6553  25.338  32.962   9.082
  136POPC   GL2 6554  24.974  32.927   9.007
  136POPC   C1A 6555  25.322  32.914   8.619
  136POPC   D2A 6556  25.211  33.245   8.297
  136POPC   C3A 6557  25.364  33.025   7.961
  136POPC   C4A 6558  25.319  32.636   7.734
  136POPC   C1B 6559  24.883  33.151   8.672
  136POPC   C2B 6560  24.932  32.832   8.289
  136POPC   C3B 6561  24.871  32.791   7.851
  136POPC   C4B 6562  24.878  32.698   7.363
  137POPC   NC3 6563  24.142  36.635   9.425
  137POPC   PO4 6564  24.542  37.269   9.498
  137POPC   GL1 6565  24.381  37.017   9.153
  137POPC   GL2 6566  24.469  36.677   9.002
  137POPC   C1A 6567  24.220  37.062   8.719
  137POPC   D2A 6568  24.261  36.821   8.296
  137POPC   C3A 6569  24.158  36.889   7.823
  137POPC   C4A 6570  24.244  37.160   7.458
  137POPC   C1B 6571  24.860  36.675   8.748
  137POPC   C2B 6572  24.882  36.845   8.309
  137POPC   C3B 6573  24.649  36.930   7.939
  137POPC   C4B 6574  24.592  36.526   7.739
  138POPC   NC3 6575  35.327  28.998   9.513
  138POPC   PO4 6576  35.355  29.687   9.469
  138POPC   GL1 6577  35.485  29.427   9.123
  138POPC   GL2 6578  35.233  29.216   9.089
  138POPC   C1A 6579  35.548  29.158   8.713
  138POPC   D2A 6580  35.329  28.936   8.418
  138POPC   C3A 6581  35.471  28.926   7.984
  138POPC   C4A 6582  35.225  28.908   7.623
  138POPC   C1B 6583  34.997  29.195   8.777
  138POPC   C2B 6584  34.910  29.358   8.421
  138POPC   C3B 6585  35.077  29.266   8.048
  138POPC   C4B 6586  34.896  29.309   7.673
  139POPC   NC3 6587   6.312  34.840   9.546
  139POPC   PO4 6588   6.390  34.201   9.581
  139POPC   GL1 6589   6.474  34.421   9.191
  139POPC   GL2 6590   6.477  34.789   9.071
  139POPC   C1A 6591   6.594  34.374   8.770
  139POPC   D2A 6592   6.771  34.391   8.382
  139POPC   C3A 6593   6.614  34.455   7.980
  139POPC   C4A 6594   6.739  34.293   7.578
  139POPC   C1B 6595   6.524  34.874   8.635
  139POPC   C2B 6596   6.250  34.702   8.316
  139POPC   C3B 6597   6.175  34.757   7.877
  139POPC   C4B 6598   6.514  34.771   7.593
  140POPC   NC3 6599  41.309  26.505   9.606
  140POPC   PO4 6600  40.985  27.007   9.518
  140POPC   GL1 6601  41.277  26.873   9.186
  140POPC   GL2 6602  41.601  26.652   9.212
  140POPC   C1A 6603  41.345  26.782   8.748
  140POPC   D2A 6604  41.268  26.747   8.317
  140POPC   C3A 6605  41.510  26.985   8.049
  140POPC   C4A 6606  41.378  27.088   7.629
  140POPC   C1B 6607  41.788  26.517   8.823
  140POPC   C2B 6608  41.653  26.430   8.414
  140POPC   C3B 6609  41.751  26.502   8.022
  140POPC   C4B 6610  41.769  26.753   7.682
  141POPC   NC3 6611   2.017   5.625   9.573
  141POPC   PO4 6612   1.719   6.269   9.417
  141POPC   GL1 6613   1.878   5.977   9.107
  141POPC   GL2 6614   1.729   5.638   9.164
  141POPC   C1A 6615   2.073   6.090   8.690
  141POPC   D2A 6616   1.997   5.956   8.261
  141POPC   C3A 6617   2.071   6.152   7.869
  141POPC   C4A 6618   2.268   5.826   7.635
  141POPC   C1B 6619   1.960   5.573   8.793
  141POPC   C2B 6620   1.808   5.486   8.376
  141POPC   C3B 6621   1.951   5.545   7.942
  141POPC   C4B 6622   1.872   5.325   7.556
  142POPC   NC3 6623  17.259  42.274   9.438
  142POPC   PO4 6624  17.835  42.102   9.632
  142POPC   GL1 6625  17.672  42.245   9.142
  142POPC   GL2 6626  17.308  42.378   8.967
  142POPC   C1A 6627  17.707  42.411   8.685
  142POPC   D2A 6628  17.462  42.457   8.284
  142POPC   C3A 6629  17.748  42.406   7.918
  142POPC   C4A 6630  17.799  42.274   7.470
  142POPC   C1B 6631  17.090  42.039   8.777
  142POPC   C2B 6632  16.928  41.950   8.373
  142POPC   C3B 6633  17.183  42.091   8.056
  142POPC   C4B 6634  17.313  42.279   7.663
  143POPC   NC3 6635  22.139  26.448   9.271
  143POPC   PO4 6636  22.143  27.007   9.637
  143POPC   GL1 6637  21.988  26.927   9.184
  143POPC   GL2 6638  21.700  26.656   9.155
  143POPC   C1A 6639  22.201  26.888   8.744
  143POPC   D2A 6640  22.413  26.896   8.332
  143POPC   C3A 6641  22.181  26.980   7.941
  143POPC   C4A 6642  21.983  27.121   7.534
  143POPC   C1B 6643  21.715  26.766   8.723
  143POPC   C2B 6644  21.930  26.673   8.325
  143POPC   C3B 6645  21.912  26.485   7.924
  143POPC   C4B 6646  21.793  26.641   7.536
  144POPC   NC3 6647  21.525  22.319   9.518
  144POPC   PO4 6648  21.649  21.620   9.390
  144POPC   GL1 6649  21.539  21.961   9.151
  144POPC   GL2 6650  21.280  21.886   8.961
  144POPC   C1A 6651  21.618  22.167   8.737
  144POPC   D2A 6652  21.307  22.161   8.422
  144POPC   C3A 6653  21.494  22.191   8.015
  144POPC   C4A 6654  21.465  21.902   7.720
  144POPC   C1B 6655  21.155  22.349   8.895
  144POPC   C2B 6656  20.917  22.498   8.527
  144POPC   C3B 6657  21.094  22.504   8.095
  144POPC   C4B 6658  21.062  22.283   7.687
  145POPC   NC3 6659  43.524  18.037   9.537
  145POPC   PO4 6660  44.193  18.281   9.668
  145POPC   GL1 6661  43.981  18.181   9.222
  145POPC   GL2 6662  43.681  18.022   9.079
  145POPC   C1A 6663  43.910  18.360   8.802
  145POPC   D2A 6664  43.642  18.273   8.463
  145POPC   C3A 6665  43.793  18.424   8.097
  145POPC   C4A 6666  44.156  18.401   7.850
  145POPC   C1B 6667  43.815  17.856   8.712
  145POPC   C2B 6668  43.689  17.763   8.288
  145POPC   C3B 6669  43.837  17.942   7.907
  145POPC   C4B 6670  43.698  18.251   7.620
  146POPC   NC3 6671  17.250  36.153   9.539
  146POPC   PO4 6672  17.878  35.897   9.472
  146POPC   GL1 6673  17.590  36.009   9.178
  146POPC   GL2 6674  17.553  36.340   9.148
  146POPC   C1A 6675  17.512  35.976   8.765
  146POPC   D2A 6676  17.718  36.040   8.363
  146POPC   C3A 6677  17.513  35.913   8.008
  146POPC   C4A 6678  17.285  35.799   7.664
  146POPC   C1B 6679  17.254  36.409   8.843
  146POPC   C2B 6680  17.074  36.473   8.471
  146POPC   C3B 6681  17.356  36.410   8.138
  146POPC   C4B 6682  17.366  36.316   7.717
  147POPC   NC3 6683  10.611   7.625   9.583
  147POPC   PO4 6684  10.296   6.985   9.542
  147POPC   GL1 6685  10.581   7.244   9.213
  147POPC   GL2 6686  10.440   7.592   9.112
  147POPC   C1A 6687  10.770   7.425   8.799
  147POPC   D2A 6688  10.539   7.620   8.430
  147POPC   C3A 6689  10.419   7.406   8.044
  147POPC   C4A 6690  10.559   7.286   7.634
  147POPC   C1B 6691  10.219   7.800   8.793
  147POPC   C2B 6692  10.151   8.020   8.407
  147POPC   C3B 6693  10.224   7.941   8.004
  147POPC   C4B 6694  10.291   7.714   7.645
  148POPC   NC3 6695  12.316   8.496   9.484
  148POPC   PO4 6696  11.976   9.201   9.522
  148POPC   GL1 6697  12.043   9.030   9.153
  148POPC   GL2 6698  11.976   8.648   9.143
  148POPC   C1A 6699  11.989   9.255   8.768
  148POPC   D2A 6700  12.247   9.106   8.404
  148POPC   C3A 6701  12.149   9.249   7.987
  148POPC   C4A 6702  12.385   9.206   7.593
  148POPC   C1B 6703  11.984   8.743   8.713
  148POPC   C2B 6704  11.702   8.966   8.447
  148POPC   C3B 6705  11.730   8.870   8.021
  148POPC   C4B 6706  12.052   8.827   7.703
  149POPC   NC3 6707  33.957  24.071   9.508
  149POPC   PO4 6708  33.765  23.422   9.407
  149POPC   GL1 6709  33.726  23.571   9.007
  149POPC   GL2 6710  33.726  23.921   9.077
  149POPC   C1A 6711  33.518  23.665   8.622
  149POPC   D2A 6712  33.368  23.997   8.343
  149POPC   C3A 6713  33.549  23.892   7.922
  149POPC   C4A 6714  33.718  23.518   7.712
  149POPC   C1B 6715  34.114  23.829   8.837
  149POPC   C2B 6716  34.043  23.640   8.441
  149POPC   C3B 6717  34.058  23.740   8.018
  149POPC   C4B 6718  34.140  23.777   7.579
  150POPC   NC3 6719  22.544   9.637   9.400
  150POPC   PO4 6720  22.047  10.086   9.445
  150POPC   GL1 6721  22.172   9.927   9.096
  150POPC   GL2 6722  22.495  10.047   9.071
  150POPC   C1A 6723  21.968   9.923   8.718
  150POPC   D2A 6724  22.139   9.943   8.327
  150POPC   C3A 6725  21.998   9.735   7.973
  150POPC   C4A 6726  21.953   9.375   7.733
  150POPC   C1B 6727  22.393  10.241   8.670
  150POPC   C2B 6728  22.602  10.180   8.281
  150POPC   C3B 6729  22.558   9.868   7.966
  150POPC   C4B 6730  22.342   9.744   7.605
  151POPC   NC3 6731  30.625  22.208   9.491
  151POPC   PO4 6732  30.301  22.650   9.060
  151POPC   GL1 6733  30.623  22.311   9.007
  151POPC   GL2 6734  30.587  21.949   9.050
  151POPC   C1A 6735  30.774  22.203   8.624
  151POPC   D2A 6736  30.585  22.483   8.320
  151POPC   C3A 6737  30.819  22.372   7.979
  151POPC   C4A 6738  30.987  22.022   7.850
  151POPC   C1B 6739  30.513  21.692   8.682
  151POPC   C2B 6740  30.711  21.709   8.277
  151POPC   C3B 6741  30.620  21.670   7.860
  151POPC   C4B 6742  30.460  22.062   7.714
  152POPC   NC3 6743  41.890  35.694   9.647
  152POPC   PO4 6744  42.339  35.228   9.651
  152POPC   GL1 6745  42.324  35.436   9.188
  152POPC   GL2 6746  42.060  35.630   9.069
  152POPC   C1A 6747  42.464  35.430   8.759
  152POPC   D2A 6748  42.311  35.389   8.335
  152POPC   C3A 6749  42.551  35.162   8.001
  152POPC   C4A 6750  42.482  35.256   7.564
  152POPC   C1B 6751  42.059  35.765   8.622
  152POPC   C2B 6752  42.264  35.872   8.205
  152POPC   C3B 6753  42.224  35.580   7.848
  152POPC   C4B 6754  42.198  35.615   7.353
  153POPC   NC3 6755  32.677   8.845   9.872
  153POPC   PO4 6756  32.436   8.924   9.329
  153POPC   GL1 6757  32.227   8.904   9.041
  153POPC   GL2 6758  31.958   9.062   9.101
  153POPC   C1A 6759  32.373   8.708   8.683
  153POPC   D2A 6760  32.413   8.874   8.286
  153POPC   C3A 6761  32.387   8.618   7.940
  153POPC   C4A 6762  32.205   8.921   7.670
  153POPC   C1B 6763  31.888   8.897   8.681
  153POPC   C2B 6764  31.740   8.980   8.277
  153POPC   C3B 6765  31.834   9.201   7.895
  153POPC   C4B 6766  31.825   9.611   7.731
  154POPC   NC3 6767  25.714  44.799   9.455
  154POPC   PO4 6768  26.160  44.383   9.356
  154POPC   GL1 6769  25.974  44.587   9.042
  154POPC   GL2 6770  26.337  44.705   8.974
  154POPC   C1A 6771  25.941  44.770   8.625
  154POPC   D2A 6772  25.728  44.868   8.228
  154POPC   C3A 6773  25.951  44.702   7.871
  154POPC   C4A 6774  25.773  44.364   7.657
  154POPC   C1B 6775  26.246  44.347   8.680
  154POPC   C2B 6776  26.036  44.343   8.281
  154POPC   C3B 6777  26.218  44.256   7.879
  154POPC   C4B 6778  26.204  44.406   7.411
  155POPC   NC3 6779  34.938  17.873   9.391
  155POPC   PO4 6780  34.299  18.184   9.503
  155POPC   GL1 6781  34.452  18.171   9.101
  155POPC   GL2 6782  34.335  18.467   9.001
  155POPC   C1A 6783  34.835  18.275   8.837
  155POPC   D2A 6784  35.040  18.422   8.443
  155POPC   C3A 6785  34.850  18.440   8.048
  155POPC   C4A 6786  34.600  18.280   7.684
  155POPC   C1B 6787  34.384  18.314   8.606
  155POPC   C2B 6788  34.427  18.222   8.214
  155POPC   C3B 6789  34.259  18.497   7.957
  155POPC   C4B 6790  34.241  18.668   7.564
  156POPC   NC3 6791  24.129  39.822   9.335
  156POPC   PO4 6792  24.793  40.075   9.352
  156POPC   GL1 6793  24.529  40.152   9.071
  156POPC   GL2 6794  24.242  40.296   9.171
  156POPC   C1A 6795  24.666  40.189   8.683
  156POPC   D2A 6796  24.673  39.909   8.366
  156POPC   C3A 6797  24.306  39.754   8.197
  156POPC   C4A 6798  24.379  40.018   7.875
  156POPC   C1B 6799  24.142  40.151   8.747
  156POPC   C2B 6800  24.275  40.254   8.351
  156POPC   C3B 6801  24.248  40.487   8.016
  156POPC   C4B 6802  24.109  40.355   7.625
  157POPC   NC3 6803  28.482  21.046   9.401
  157POPC   PO4 6804  28.229  20.485   9.688
  157POPC   GL1 6805  28.303  20.380   9.233
  157POPC   GL2 6806  28.400  20.668   9.100
  157POPC   C1A 6807  28.387  20.311   8.762
  157POPC   D2A 6808  28.640  20.391   8.386
  157POPC   C3A 6809  28.357  20.314   8.033
  157POPC   C4A 6810  28.173  20.547   7.683
  157POPC   C1B 6811  28.617  20.823   8.728
  157POPC   C2B 6812  28.664  20.938   8.287
  157POPC   C3B 6813  28.674  20.700   7.902
  157POPC   C4B 6814  28.545  20.816   7.472
  158POPC   NC3 6815  37.595  33.122   9.534
  158POPC   PO4 6816  37.353  33.492   9.044
  158POPC   GL1 6817  37.820  33.463   8.952
  158POPC   GL2 6818  37.938  33.158   9.112
  158POPC   C1A 6819  38.053  33.259   8.584
  158POPC   D2A 6820  38.120  33.244   8.126
  158POPC   C3A 6821  37.739  33.136   7.890
  158POPC   C4A 6822  37.316  33.348   7.819
  158POPC   C1B 6823  37.703  32.919   8.792
  158POPC   C2B 6824  37.588  32.927   8.345
  158POPC   C3B 6825  37.347  32.834   7.960
  158POPC   C4B 6826  37.321  32.945   7.498
  159POPC   NC3 6827  38.655   1.789   9.540
  159POPC   PO4 6828  38.450   1.071   9.574
  159POPC   GL1 6829  38.727   1.151   9.234
  159POPC   GL2 6830  38.775   1.478   9.104
  159POPC   C1A 6831  38.787   0.980   8.850
  159POPC   D2A 6832  38.481   0.962   8.494
  159POPC   C3A 6833  38.637   1.126   8.088
  159POPC   C4A 6834  38.470   1.246   7.681
  159POPC   C1B 6835  38.426   1.360   8.819
  159POPC   C2B 6836  38.345   1.467   8.364
  159POPC   C3B 6837  38.297   1.657   7.927
  159POPC   C4B 6838  38.109   1.556   7.492
  160POPC   NC3 6839  41.438  17.790   9.471
  160POPC   PO4 6840  41.268  17.207   9.536
  160POPC   GL1 6841  41.612  17.368   9.206
  160POPC   GL2 6842  41.857  17.686   9.205
  160POPC   C1A 6843  41.608  17.565   8.776
  160POPC   D2A 6844  41.662  17.749   8.368
  160POPC   C3A 6845  41.516  17.556   7.947
  160POPC   C4A 6846  41.356  17.264   7.640
  160POPC   C1B 6847  42.068  17.397   8.939
  160POPC   C2B 6848  42.073  17.420   8.504
  160POPC   C3B 6849  41.923  17.290   8.130
  160POPC   C4B 6850  41.988  17.357   7.710
  161POPC   NC3 6851   3.728  39.367   9.633
  161POPC   PO4 6852   3.170  39.503   9.414
  161POPC   GL1 6853   3.422  39.216   9.216
  161POPC   GL2 6854   3.130  39.070   9.088
  161POPC   C1A 6855   3.622  39.001   8.869
  161POPC   D2A 6856   3.679  39.227   8.483
  161POPC   C3A 6857   3.768  39.128   8.075
  161POPC   C4A 6858   3.515  38.951   7.731
  161POPC   C1B 6859   3.217  39.322   8.736
  161POPC   C2B 6860   3.256  39.477   8.317
  161POPC   C3B 6861   3.161  39.266   7.932
  161POPC   C4B 6862   3.234  39.389   7.497
  162POPC   NC3 6863  40.886   2.459   9.382
  162POPC   PO4 6864  41.148   3.151   9.409
  162POPC   GL1 6865  40.942   2.859   9.089
  162POPC   GL2 6866  41.075   2.528   8.930
  162POPC   C1A 6867  40.724   2.905   8.714
  162POPC   D2A 6868  40.988   3.145   8.448
  162POPC   C3A 6869  40.876   3.120   8.067
  162POPC   C4A 6870  40.759   2.773   7.798
  162POPC   C1B 6871  41.166   2.674   8.538
  162POPC   C2B 6872  41.059   2.581   8.149
  162POPC   C3B 6873  41.065   2.300   7.810
  162POPC   C4B 6874  40.885   1.978   7.524
  163POPC   NC3 6875  44.725  10.050   9.587
  163POPC   PO4 6876   0.169   9.669   9.288
  163POPC   GL1 6877  44.760   9.663   9.150
  163POPC   GL2 6878  44.607  10.000   9.084
  163POPC   C1A 6879  44.670   9.422   8.776
  163POPC   D2A 6880  44.566   9.591   8.383
  163POPC   C3A 6881  44.378   9.392   8.035
  163POPC   C4A 6882  44.591   9.545   7.694
  163POPC   C1B 6883  44.845  10.129   8.745
  163POPC   C2B 6884  44.923   9.997   8.314
  163POPC   C3B 6885  44.851   9.963   7.904
  163POPC   C4B 6886  44.884  10.332   7.679
  164POPC   NC3 6887  44.511  41.572   9.725
  164POPC   PO4 6888  44.198  42.056   9.493
  164POPC   GL1 6889  44.330  41.743   9.197
  164POPC   GL2 6890  44.650  41.563   9.214
  164POPC   C1A 6891  44.588  41.801   8.792
  164POPC   D2A 6892  44.774  41.685   8.389
  164POPC   C3A 6893  44.500  41.710   8.023
  164POPC   C4A 6894  44.324  41.392   7.765
  164POPC   C1B 6895  44.835  41.350   8.833
  164POPC   C2B 6896  44.943  41.193   8.407
  164POPC   C3B 6897  44.776  41.228   7.945
  164POPC   C4B 6898  44.737  41.470   7.519
  165POPC   NC3 6899  44.411   6.023   9.575
  165POPC   PO4 6900  44.941   5.612   9.467
  165POPC   GL1 6901  44.743   5.882   9.194
  165POPC   GL2 6902  44.399   5.778   9.143
  165POPC   C1A 6903  44.898   6.066   8.833
  165POPC   D2A 6904  44.886   6.062   8.414
  165POPC   C3A 6905   0.031   5.924   8.029
  165POPC   C4A 6906  44.735   6.171   7.844
  165POPC   C1B 6907  44.373   5.890   8.735
  165POPC   C2B 6908  44.490   5.756   8.347
  165POPC   C3B 6909  44.535   5.672   7.939
  165POPC   C4B 6910  44.450   5.868   7.567
  166POPC   NC3 6911  31.686  30.923   9.368
  166POPC   PO4 6912  31.301  30.413   9.575
  166POPC   GL1 6913  31.443  30.495   9.164
  166POPC   GL2 6914  31.805  30.465   9.088
  166POPC   C1A 6915  31.406  30.768   8.792
  166POPC   D2A 6916  31.505  30.643   8.392
  166POPC   C3A 6917  31.365  30.784   7.992
  166POPC   C4A 6918  31.441  30.532   7.617
  166POPC   C1B 6919  31.914  30.672   8.685
  166POPC   C2B 6920  31.932  30.885   8.271
  166POPC   C3B 6921  31.856  30.722   7.849
  166POPC   C4B 6922  31.898  30.639   7.379
  167POPC   NC3 6923  41.069  30.730   9.521
  167POPC   PO4 6924  40.440  30.993   9.478
  167POPC   GL1 6925  40.657  30.746   9.154
  167POPC   GL2 6926  40.942  30.931   9.065
  167POPC   C1A 6927  40.674  30.649   8.701
  167POPC   D2A 6928  40.732  30.833   8.273
  167POPC   C3A 6929  40.631  30.673   7.836
  167POPC   C4A 6930  40.482  30.835   7.434
  167POPC   C1B 6931  40.914  31.118   8.676
  167POPC   C2B 6932  40.914  31.337   8.302
  167POPC   C3B 6933  40.895  31.131   7.890
  167POPC   C4B 6934  41.155  30.757   7.763
  168POPC   NC3 6935  44.135  25.530   9.921
  168POPC   PO4 6936  44.531  25.106   9.560
  168POPC   GL1 6937  44.668  25.299   9.166
  168POPC   GL2 6938  44.929  25.066   9.157
  168POPC   C1A 6939  44.804  25.405   8.723
  168POPC   D2A 6940   0.000  25.143   8.335
  168POPC   C3A 6941  44.836  25.254   7.953
  168POPC   C4A 6942  44.615  25.647   7.927
  168POPC   C1B 6943  44.805  24.904   8.733
  168POPC   C2B 6944  44.508  24.951   8.357
  168POPC   C3B 6945  44.486  24.859   7.903
  168POPC   C4B 6946  44.269  25.058   7.555
  169POPC   NC3 6947  12.340  28.753   9.508
  169POPC   PO4 6948  11.903  28.201   9.432
  169POPC   GL1 6949  11.897  28.445   9.088
  169POPC   GL2 6950  12.242  28.447   9.109
  169POPC   C1A 6951  11.999  28.355   8.662
  169POPC   D2A 6952  11.775  28.285   8.357
  169POPC   C3A 6953  11.904  28.352   7.995
  169POPC   C4A 6954  11.784  28.490   7.631
  169POPC   C1B 6955  12.468  28.567   8.763
  169POPC   C2B 6956  12.328  28.589   8.342
  169POPC   C3B 6957  12.404  28.301   8.009
  169POPC   C4B 6958  12.509  28.374   7.603
  170POPC   NC3 6959  12.564  34.690   9.483
  170POPC   PO4 6960  13.213  34.624   9.256
  170POPC   GL1 6961  12.832  34.751   9.058
  170POPC   GL2 6962  12.468  34.907   9.032
  170POPC   C1A 6963  12.579  34.474   8.753
  170POPC   D2A 6964  12.675  34.257   8.337
  170POPC   C3A 6965  12.869  34.537   8.017
  170POPC   C4A 6966  13.140  34.775   7.754
  170POPC   C1B 6967  12.676  34.957   8.648
  170POPC   C2B 6968  12.942  34.923   8.373
  170POPC   C3B 6969  12.819  35.075   8.061
  170POPC   C4B 6970  12.654  34.984   7.728
  171POPC   NC3 6971  23.734  32.737   9.448
  171POPC   PO4 6972  23.480  32.123   9.532
  171POPC   GL1 6973  23.610  32.265   9.159
  171POPC   GL2 6974  23.978  32.312   9.195
  171POPC   C1A 6975  23.409  32.174   8.756
  171POPC   D2A 6976  23.402  32.410   8.373
  171POPC   C3A 6977  23.348  32.186   8.021
  171POPC   C4A 6978  23.510  32.240   7.614
  171POPC   C1B 6979  23.958  32.068   8.808
  171POPC   C2B 6980  23.775  32.025   8.391
  171POPC   C3B 6981  23.864  32.226   8.010
  171POPC   C4B 6982  24.037  32.102   7.635
  172POPC   NC3 6983  43.628   8.223   9.431
  172POPC   PO4 6984  43.080   7.921   9.454
  172POPC   GL1 6985  43.280   8.098   9.077
  172POPC   GL2 6986  43.486   7.784   9.115
  172POPC   C1A 6987  43.170   8.310   8.652
  172POPC   D2A 6988  42.884   8.447   8.281
  172POPC   C3A 6989  43.130   8.514   7.876
  172POPC   C4A 6990  43.128   8.501   7.402
  172POPC   C1B 6991  43.142   7.689   8.816
  172POPC   C2B 6992  43.120   7.682   8.383
  172POPC   C3B 6993  43.207   7.970   8.056
  172POPC   C4B 6994  43.133   8.057   7.651
  173POPC   NC3 6995  37.310  19.364   9.575
  173POPC   PO4 6996  37.879  19.792   9.578
  173POPC   GL1 6997  37.654  19.783   9.188
  173POPC   GL2 6998  37.775  20.109   9.075
  173POPC   C1A 6999  37.461  19.754   8.778
  173POPC   D2A 7000  37.422  19.963   8.391
  173POPC   C3A 7001  37.591  19.729   8.096
  173POPC   C4A 7002  37.441  19.611   7.671
  173POPC   C1B 7003  37.540  20.319   8.769
  173POPC   C2B 7004  37.690  20.441   8.365
  173POPC   C3B 7005  37.710  20.208   8.003
  173POPC   C4B 7006  37.639  20.109   7.578
  174POPC   NC3 7007   9.867  21.125   9.948
  174POPC   PO4 7008   9.658  21.588   9.402
  174POPC   GL1 7009   9.621  21.283   9.090
  174POPC   GL2 7010   9.359  21.460   8.979
  174POPC   C1A 7011   9.669  21.228   8.641
  174POPC   D2A 7012   9.553  21.433   8.298
  174POPC   C3A 7013   9.930  21.477   8.083
  174POPC   C4A 7014  10.074  21.275   7.724
  174POPC   C1B 7015   9.344  21.800   8.685
  174POPC   C2B 7016   9.412  21.942   8.261
  174POPC   C3B 7017   9.528  21.746   7.895
  174POPC   C4B 7018   9.531  21.293   7.790
  175POPC   NC3 7019  44.418  24.584   9.558
  175POPC   PO4 7020   0.113  24.295   9.515
  175POPC   GL1 7021  44.820  24.283   9.165
  175POPC   GL2 7022  44.669  24.626   9.128
  175POPC   C1A 7023  44.808  24.371   8.719
  175POPC   D2A 7024  44.847  24.572   8.304
  175POPC   C3A 7025  44.702  24.394   7.915
  175POPC   C4A 7026  44.651  24.550   7.497
  175POPC   C1B 7027  44.377  24.650   8.756
  175POPC   C2B 7028  44.373  24.374   8.418
  175POPC   C3B 7029  44.197  24.431   8.040
  175POPC   C4B 7030  44.239  24.293   7.653
  176POPC   NC3 7031  22.352  36.413   9.691
  176POPC   PO4 7032  22.246  35.768   9.534
  176POPC   GL1 7033  22.305  36.125   9.225
  176POPC   GL2 7034  22.336  36.511   9.187
  176POPC   C1A 7035  22.242  36.131   8.790
  176POPC   D2A 7036  22.411  35.926   8.440
  176POPC   C3A 7037  22.184  36.003   8.088
  176POPC   C4A 7038  21.959  35.814   7.706
  176POPC   C1B 7039  22.538  36.559   8.793
  176POPC   C2B 7040  22.372  36.451   8.396
  176POPC   C3B 7041  22.506  36.421   7.987
  176POPC   C4B 7042  22.209  36.329   7.703
  177POPC   NC3 7043  43.373  20.478   9.918
  177POPC   PO4 7044  42.997  20.750   9.491
  177POPC   GL1 7045  43.180  20.682   9.167
  177POPC   GL2 7046  43.327  20.995   9.200
  177POPC   C1A 7047  43.109  20.476   8.776
  177POPC   D2A 7048  43.025  20.616   8.377
  177POPC   C3A 7049  43.020  20.317   8.075
  177POPC   C4A 7050  43.172  20.477   7.702
  177POPC   C1B 7051  43.160  20.979   8.768
  177POPC   C2B 7052  43.454  20.855   8.473
  177POPC   C3B 7053  43.389  20.843   8.035
  177POPC   C4B 7054  43.182  21.035   7.723
  178POPC   NC3 7055  38.047  21.950   9.350
  178POPC   PO4 7056  37.639  22.407   9.588
  178POPC   GL1 7057  37.603  22.306   9.119
  178POPC   GL2 7058  37.635  21.959   9.031
  178POPC   C1A 7059  37.318  22.291   8.702
  178POPC   D2A 7060  37.186  22.478   8.250
  178POPC   C3A 7061  37.473  22.262   7.909
  178POPC   C4A 7062  37.595  21.802   7.930
  178POPC   C1B 7063  37.907  22.167   8.715
  178POPC   C2B 7064  37.928  21.981   8.315
  178POPC   C3B 7065  37.995  22.113   7.915
  178POPC   C4B 7066  37.969  22.452   7.690
  179POPC   NC3 7067   0.429  26.400   9.411
  179POPC   PO4 7068   0.272  25.776   9.574
  179POPC   GL1 7069   0.201  26.019   9.195
  179POPC   GL2 7070   0.554  25.931   9.148
  179POPC   C1A 7071   0.320  26.202   8.779
  179POPC   D2A 7072   0.425  26.081   8.359
  179POPC   C3A 7073   0.441  26.293   7.992
  179POPC   C4A 7074   0.295  26.122   7.632
  179POPC   C1B 7075   0.754  25.910   8.731
  179POPC   C2B 7076   0.703  25.675   8.326
  179POPC   C3B 7077   0.670  25.821   7.872
  179POPC   C4B 7078   0.812  26.099   7.520
  180POPC   NC3 7079  24.004  27.014   9.398
  180POPC   PO4 7080  23.416  26.571   9.464
  180POPC   GL1 7081  23.646  26.747   9.129
  180POPC   GL2 7082  23.580  27.117   9.113
  180POPC   C1A 7083  23.552  26.775   8.691
  180POPC   D2A 7084  23.260  26.707   8.362
  180POPC   C3A 7085  23.516  26.688   7.989
  180POPC   C4A 7086  23.954  26.583   7.977
  180POPC   C1B 7087  23.849  27.199   8.751
  180POPC   C2B 7088  23.926  26.995   8.354
  180POPC   C3B 7089  23.912  27.100   7.909
  180POPC   C4B 7090  23.775  26.896   7.541
  181POPC   NC3 7091  14.761   9.703   9.327
  181POPC   PO4 7092  15.420   9.608   9.619
  181POPC   GL1 7093  15.492   9.826   9.158
  181POPC   GL2 7094  15.130   9.856   9.008
  181POPC   C1A 7095  15.492   9.711   8.712
  181POPC   D2A 7096  15.209   9.904   8.440
  181POPC   C3A 7097  15.321   9.861   8.035
  181POPC   C4A 7098  15.490  10.121   7.730
  181POPC   C1B 7099  14.782   9.782   8.692
  181POPC   C2B 7100  14.773   9.716   8.260
  181POPC   C3B 7101  14.899   9.608   7.871
  181POPC   C4B 7102  15.329   9.409   7.782
  182POPC   NC3 7103  33.031  21.006   9.464
  182POPC   PO4 7104  33.201  20.320   9.457
  182POPC   GL1 7105  33.060  20.565   9.159
  182POPC   GL2 7106  32.783  20.356   9.094
  182POPC   C1A 7107  33.078  20.728   8.744
  182POPC   D2A 7108  32.955  20.638   8.325
  182POPC   C3A 7109  33.196  20.702   7.962
  182POPC   C4A 7110  33.068  20.866   7.591
  182POPC   C1B 7111  32.635  20.424   8.713
  182POPC   C2B 7112  32.653  20.168   8.357
  182POPC   C3B 7113  32.639  20.340   7.978
  182POPC   C4B 7114  32.937  20.361   7.638
  183POPC   NC3 7115   1.360  38.606   9.543
  183POPC   PO4 7116   1.738  38.157   9.303
  183POPC   GL1 7117   1.444  38.386   9.053
  183POPC   GL2 7118   1.147  38.604   9.073
  183POPC   C1A 7119   1.390  38.478   8.615
  183POPC   D2A 7120   1.561  38.667   8.289
  183POPC   C3A 7121   1.449  38.467   7.912
  183POPC   C4A 7122   1.720  38.549   7.606
  183POPC   C1B 7123   0.961  38.728   8.661
  183POPC   C2B 7124   1.016  38.606   8.207
  183POPC   C3B 7125   1.020  38.719   7.747
  183POPC   C4B 7126   0.871  38.653   7.308
  184POPC   NC3 7127  38.560  26.358   9.546
  184POPC   PO4 7128  38.324  25.633   9.431
  184POPC   GL1 7129  38.466  25.985   9.171
  184POPC   GL2 7130  38.742  26.230   9.113
  184POPC   C1A 7131  38.422  26.093   8.746
  184POPC   D2A 7132  38.465  25.839   8.398
  184POPC   C3A 7133  38.300  25.870   7.980
  184POPC   C4A 7134  38.289  26.195   7.682
  184POPC   C1B 7135  38.913  26.381   8.765
  184POPC   C2B 7136  38.835  26.189   8.428
  184POPC   C3B 7137  38.621  26.276   8.069
  184POPC   C4B 7138  38.809  26.393   7.715
  185POPC   NC3 7139  36.105  17.073   9.723
  185POPC   PO4 7140  35.777  17.678   9.536
  185POPC   GL1 7141  35.821  17.751   9.104
  185POPC   GL2 7142  36.160  17.742   9.104
  185POPC   C1A 7143  35.960  17.578   8.671
  185POPC   D2A 7144  36.311  17.391   8.399
  185POPC   C3A 7145  36.228  17.488   8.001
  185POPC   C4A 7146  35.865  17.721   7.961
  185POPC   C1B 7147  36.406  17.827   8.771
  185POPC   C2B 7148  36.240  17.891   8.382
  185POPC   C3B 7149  36.312  17.988   7.998
  185POPC   C4B 7150  36.134  18.046   7.609
  186POPC   NC3 7151  11.582  42.081   9.605
  186POPC   PO4 7152  11.298  42.581   9.837
  186POPC   GL1 7153  11.379  42.507   9.327
  186POPC   GL2 7154  11.283  42.226   9.198
  186POPC   C1A 7155  11.617  42.427   8.879
  186POPC   D2A 7156  11.562  42.209   8.462
  186POPC   C3A 7157  11.514  42.405   8.061
  186POPC   C4A 7158  11.230  42.673   7.812
  186POPC   C1B 7159  11.311  41.977   8.832
  186POPC   C2B 7160  11.068  41.965   8.474
  186POPC   C3B 7161  11.103  41.877   8.066
  186POPC   C4B 7162  11.229  42.126   7.741
  187POPC   NC3 7163   5.542  10.636   9.180
  187POPC   PO4 7164   5.979  10.290   9.547
  187POPC   GL1 7165   6.048  10.400   9.149
  187POPC   GL2 7166   5.807  10.099   9.083
  187POPC   C1A 7167   6.041  10.775   8.807
  187POPC   D2A 7168   5.696  10.794   8.532
  187POPC   C3A 7169   5.765  10.825   8.081
  187POPC   C4A 7170   5.903  10.670   7.655
  187POPC   C1B 7171   5.884  10.306   8.691
  187POPC   C2B 7172   6.157  10.314   8.373
  187POPC   C3B 7173   5.920  10.335   8.037
  187POPC   C4B 7174   5.822  10.185   7.639
  188POPC   NC3 7175  32.273  16.142   9.526
  188POPC   PO4 7176  31.777  16.582   9.377
  188POPC   GL1 7177  32.180  16.413   9.084
  188POPC   GL2 7178  32.450  16.114   9.056
  188POPC   C1A 7179  32.395  16.417   8.656
  188POPC   D2A 7180  32.437  16.317   8.188
  188POPC   C3A 7181  32.316  16.022   7.886
  188POPC   C4A 7182  32.092  15.620   7.842
  188POPC   C1B 7183  32.288  15.936   8.669
  188POPC   C2B 7184  32.448  15.748   8.294
  188POPC   C3B 7185  32.605  15.564   7.927
  188POPC   C4B 7186  32.447  15.386   7.550
  189POPC   NC3 7187  25.753  24.936   9.604
  189POPC   PO4 7188  26.380  25.184   9.672
  189POPC   GL1 7189  26.080  25.179   9.277
  189POPC   GL2 7190  26.240  25.429   9.113
  189POPC   C1A 7191  25.970  25.140   8.808
  189POPC   D2A 7192  25.690  25.195   8.461
  189POPC   C3A 7193  25.888  25.126   8.085
  189POPC   C4A 7194  25.930  25.157   7.636
  189POPC   C1B 7195  26.465  25.226   8.752
  189POPC   C2B 7196  26.305  25.212   8.364
  189POPC   C3B 7197  26.317  25.338   7.939
  189POPC   C4B 7198  26.451  25.144   7.563
  190POPC   NC3 7199  17.389  38.500   9.768
  190POPC   PO4 7200  17.792  38.031   9.390
  190POPC   GL1 7201  17.547  38.144   9.090
  190POPC   GL2 7202  17.412  38.422   9.255
  190POPC   C1A 7203  17.642  38.362   8.732
  190POPC   D2A 7204  17.791  38.440   8.333
  190POPC   C3A 7205  18.003  38.156   8.075
  190POPC   C4A 7206  17.653  38.153   7.809
  190POPC   C1B 7207  17.189  38.503   8.886
  190POPC   C2B 7208  17.213  38.651   8.433
  190POPC   C3B 7209  17.337  38.530   8.003
  190POPC   C4B 7210  17.066  38.478   7.627
  191POPC   NC3 7211  38.921  18.644   9.492
  191POPC   PO4 7212  38.672  19.305   9.599
  191POPC   GL1 7213  38.716  19.195   9.143
  191POPC   GL2 7214  38.905  18.900   9.058
  191POPC   C1A 7215  38.440  19.160   8.779
  191POPC   D2A 7216  38.282  18.863   8.464
  191POPC   C3A 7217  38.306  18.874   8.011
  191POPC   C4A 7218  38.499  19.197   7.757
  191POPC   C1B 7219  38.712  18.719   8.703
  191POPC   C2B 7220  38.807  18.851   8.290
  191POPC   C3B 7221  38.812  18.785   7.867
  191POPC   C4B 7222  38.574  18.705   7.513
  192POPC   NC3 7223  28.714  36.438   9.451
  192POPC   PO4 7224  29.334  36.263   9.363
  192POPC   GL1 7225  29.193  36.183   8.956
  192POPC   GL2 7226  28.849  36.179   9.024
  192POPC   C1A 7227  29.356  36.288   8.567
  192POPC   D2A 7228  29.454  36.334   8.136
  192POPC   C3A 7229  29.195  36.099   7.865
  192POPC   C4A 7230  29.239  36.098   7.426
  192POPC   C1B 7231  28.643  35.922   8.756
  192POPC   C2B 7232  28.621  36.029   8.353
  192POPC   C3B 7233  28.757  35.803   7.984
  192POPC   C4B 7234  28.759  35.998   7.587
  193POPC   NC3 7235  44.871  10.947   9.868
  193POPC   PO4 7236  44.466  11.433   9.486
  193POPC   GL1 7237  44.532  11.340   9.069
  193POPC   GL2 7238  44.414  10.946   9.084
  193POPC   C1A 7239  44.902  11.384   8.813
  193POPC   D2A 7240  44.720  11.339   8.416
  193POPC   C3A 7241  44.989  11.387   8.073
  193POPC   C4A 7242  44.829  11.358   7.679
  193POPC   C1B 7243  44.326  11.060   8.678
  193POPC   C2B 7244  44.473  10.874   8.343
  193POPC   C3B 7245  44.611  10.971   7.973
  193POPC   C4B 7246  44.406  11.091   7.623
  194POPC   NC3 7247   0.092  19.214   9.553
  194POPC   PO4 7248  44.634  18.712   9.553
  194POPC   GL1 7249  44.779  18.770   9.142
  194POPC   GL2 7250  44.789  19.149   9.097
  194POPC   C1A 7251  44.608  18.842   8.717
  194POPC   D2A 7252  44.480  19.090   8.355
  194POPC   C3A 7253  44.579  18.918   7.963
  194POPC   C4A 7254  44.334  18.825   7.604
  194POPC   C1B 7255  44.800  19.395   8.687
  194POPC   C2B 7256  44.674  19.555   8.285
  194POPC   C3B 7257  44.631  19.415   7.877
  194POPC   C4B 7258  44.829  19.354   7.464
  195POPC   NC3 7259  11.964  26.654   9.456
  195POPC   PO4 7260  12.574  26.768   9.292
  195POPC   GL1 7261  12.198  26.942   9.064
  195POPC   GL2 7262  11.827  26.878   9.030
  195POPC   C1A 7263  12.241  26.804   8.646
  195POPC   D2A 7264  12.470  26.593   8.339
  195POPC   C3A 7265  12.377  26.843   8.016
  195POPC   C4A 7266  12.090  26.879   7.730
  195POPC   C1B 7267  11.795  27.048   8.635
  195POPC   C2B 7268  11.889  26.936   8.218
  195POPC   C3B 7269  11.651  27.065   7.865
  195POPC   C4B 7270  11.811  27.113   7.388
  196POPC   NC3 7271  26.499  36.530   9.376
  196POPC   PO4 7272  26.826  35.888   9.533
  196POPC   GL1 7273  26.788  36.129   9.173
  196POPC   GL2 7274  26.453  36.055   9.228
  196POPC   C1A 7275  26.870  36.113   8.721
  196POPC   D2A 7276  27.089  35.984   8.352
  196POPC   C3A 7277  26.785  35.954   8.064
  196POPC   C4A 7278  26.777  36.238   7.746
  196POPC   C1B 7279  26.549  35.765   8.896
  196POPC   C2B 7280  26.450  35.804   8.472
  196POPC   C3B 7281  26.332  35.623   8.094
  196POPC   C4B 7282  26.389  35.894   7.738
  197POPC   NC3 7283  10.106  34.859   9.520
  197POPC   PO4 7284   9.620  34.373   9.596
  197POPC   GL1 7285   9.830  34.503   9.241
  197POPC   GL2 7286   9.486  34.643   9.150
  197POPC   C1A 7287   9.891  34.670   8.822
  197POPC   D2A 7288   9.627  34.616   8.485
  197POPC   C3A 7289   9.902  34.742   8.109
  197POPC   C4A 7290   9.893  34.631   7.702
  197POPC   C1B 7291   9.476  34.273   8.913
  197POPC   C2B 7292   9.315  34.180   8.507
  197POPC   C3B 7293   9.518  34.269   8.123
  197POPC   C4B 7294   9.585  34.248   7.713
  198POPC   NC3 7295   9.444   3.510   9.524
  198POPC   PO4 7296  10.010   3.764   9.528
  198POPC   GL1 7297   9.833   3.577   9.153
  198POPC   GL2 7298   9.661   3.248   9.138
  198POPC   C1A 7299   9.693   3.688   8.751
  198POPC   D2A 7300   9.569   3.585   8.331
  198POPC   C3A 7301   9.866   3.754   8.080
  198POPC   C4A 7302   9.929   3.991   7.741
  198POPC   C1B 7303   9.403   3.258   8.721
  198POPC   C2B 7304   9.264   3.178   8.255
  198POPC   C3B 7305   9.524   3.142   7.846
  198POPC   C4B 7306   9.699   3.222   7.399
  199POPC   NC3 7307  14.586  44.334   9.270
  199POPC   PO4 7308  14.668  44.860   9.620
  199POPC   GL1 7309  14.424  44.967   9.149
  199POPC   GL2 7310  14.262  44.647   9.052
  199POPC   C1A 7311  14.437  44.908   8.655
  199POPC   D2A 7312  14.274  44.640   8.426
  199POPC   C3A 7313  14.504  44.641   8.116
  199POPC   C4A 7314  14.453  44.803   7.751
  199POPC   C1B 7315  14.044  44.348   8.750
  199POPC   C2B 7316  14.155  44.136   8.336
  199POPC   C3B 7317  14.059  44.393   8.035
  199POPC   C4B 7318  14.087  44.473   7.656
  200POPC   NC3 7319  30.346  20.639   9.440
  200POPC   PO4 7320  29.781  21.051   9.527
  200POPC   GL1 7321  29.924  20.737   9.175
  200POPC   GL2 7322  29.968  20.384   9.187
  200POPC   C1A 7323  30.126  20.702   8.753
  200POPC   D2A 7324  30.237  20.863   8.321
  200POPC   C3A 7325  29.998  20.798   7.911
  200POPC   C4A 7326  29.650  20.799   7.594
  200POPC   C1B 7327  29.742  20.365   8.762
  200POPC   C2B 7328  29.788  20.536   8.345
  200POPC   C3B 7329  29.848  20.303   7.979
  200POPC   C4B 7330  29.679  20.266   7.604
  201POPC   NC3 7331   7.543  22.560   9.560
  201POPC   PO4 7332   7.283  23.182   9.526
  201POPC   GL1 7333   7.390  22.876   9.192
  201POPC   GL2 7334   7.737  22.765   9.130
  201POPC   C1A 7335   7.308  22.780   8.776
  201POPC   D2A 7336   7.512  22.757   8.376
  201POPC   C3A 7337   7.290  22.726   7.987
  201POPC   C4A 7338   7.297  22.983   7.617
  201POPC   C1B 7339   7.757  22.530   8.766
  201POPC   C2B 7340   7.745  22.300   8.385
  201POPC   C3B 7341   7.755  22.508   8.002
  201POPC   C4B 7342   7.607  22.593   7.582
  202POPC   NC3 7343  32.580   9.491   9.519
  202POPC   PO4 7344  31.958   9.433   9.733
  202POPC   GL1 7345  32.161   9.488   9.252
  202POPC   GL2 7346  32.494   9.347   9.061
  202POPC   C1A 7347  32.226   9.714   8.840
  202POPC   D2A 7348  31.963   9.891   8.506
  202POPC   C3A 7349  32.111   9.867   8.079
  202POPC   C4A 7350  32.504   9.909   7.848
  202POPC   C1B 7351  32.333   9.228   8.673
  202POPC   C2B 7352  32.129   9.356   8.305
  202POPC   C3B 7353  32.299   9.417   7.907
  202POPC   C4B 7354  32.400   9.435   7.505
  203POPC   NC3 7355  34.995  11.438   9.581
  203POPC   PO4 7356  35.710  11.499   9.717
  203POPC   GL1 7357  35.544  11.580   9.267
  203POPC   GL2 7358  35.234  11.381   9.119
  203POPC   C1A 7359  35.626  11.518   8.805
  203POPC   D2A 7360  35.346  11.524   8.458
  203POPC   C3A 7361  35.433  11.304   8.111
  203POPC   C4A 7362  35.414  11.404   7.689
  203POPC   C1B 7363  35.305  11.088   8.734
  203POPC   C2B 7364  35.066  11.012   8.328
  203POPC   C3B 7365  35.050  11.089   7.852
  203POPC   C4B 7366  35.285  10.991   7.443
  204POPC   NC3 7367  25.661  19.282   9.395
  204POPC   PO4 7368  26.250  18.923   9.578
  204POPC   GL1 7369  26.127  18.811   9.171
  204POPC   GL2 7370  25.761  18.806   9.184
  204POPC   C1A 7371  26.029  19.083   8.797
  204POPC   D2A 7372  26.139  19.391   8.454
  204POPC   C3A 7373  26.031  19.211   8.052
  204POPC   C4A 7374  26.072  19.350   7.649
  204POPC   C1B 7375  25.821  18.604   8.795
  204POPC   C2B 7376  25.658  18.638   8.388
  204POPC   C3B 7377  25.849  18.678   7.976
  204POPC   C4B 7378  25.939  18.835   7.567
  205POPC   NC3 7379  31.800  41.067   9.712
  205POPC   PO4 7380  32.386  40.719   9.640
  205POPC   GL1 7381  32.247  40.715   9.178
  205POPC   GL2 7382  32.590  40.724   9.144
  205POPC   C1A 7383  32.275  40.925   8.782
  205POPC   D2A 7384  32.244  40.715   8.367
  205POPC   C3A 7385  32.194  40.859   7.950
  205POPC   C4A 7386  32.177  41.152   7.599
  205POPC   C1B 7387  32.557  40.466   8.771
  205POPC   C2B 7388  32.642  40.382   8.347
  205POPC   C3B 7389  32.497  40.392   7.933
  205POPC   C4B 7390  32.720  40.598   7.601
  206POPC   NC3 7391  25.231  40.245   9.339
  206POPC   PO4 7392  25.647  39.822   9.482
  206POPC   GL1 7393  25.458  39.841   9.090
  206POPC   GL2 7394  25.133  39.697   9.146
  206POPC   C1A 7395  25.408  39.856   8.640
  206POPC   D2A 7396  25.140  40.112   8.416
  206POPC   C3A 7397  25.205  40.186   7.973
  206POPC   C4A 7398  25.467  40.044   7.627
  206POPC   C1B 7399  24.957  39.623   8.721
  206POPC   C2B 7400  25.070  39.614   8.270
  206POPC   C3B 7401  24.866  39.805   7.906
  206POPC   C4B 7402  25.036  39.770   7.520
  207POPC   NC3 7403  24.306  35.070   9.687
  207POPC   PO4 7404  24.660  35.584   9.848
  207POPC   GL1 7405  24.653  35.437   9.362
  207POPC   GL2 7406  24.316  35.356   9.242
  207POPC   C1A 7407  24.701  35.233   8.896
  207POPC   D2A 7408  24.629  35.109   8.432
  207POPC   C3A 7409  24.722  35.403   8.093
  207POPC   C4A 7410  24.724  35.169   7.703
  207POPC   C1B 7411  24.176  35.258   8.807
  207POPC   C2B 7412  24.280  35.451   8.419
  207POPC   C3B 7413  24.250  35.255   8.041
  207POPC   C4B 7414  23.954  35.235   7.740
  208POPC   NC3 7415  33.895  35.675   9.561
  208POPC   PO4 7416  33.610  35.071   9.434
  208POPC   GL1 7417  33.865  35.303   9.170
  208POPC   GL2 7418  33.668  35.610   9.126
  208POPC   C1A 7419  33.859  35.388   8.730
  208POPC   D2A 7420  33.664  35.302   8.349
  208POPC   C3A 7421  33.917  35.278   7.975
  208POPC   C4A 7422  34.038  35.576   7.674
  208POPC   C1B 7423  33.685  35.909   8.834
  208POPC   C2B 7424  33.816  35.793   8.437
  208POPC   C3B 7425  33.661  35.727   8.039
  208POPC   C4B 7426  33.613  35.917   7.664
  209POPC   NC3 7427  30.991  21.405   9.451
  209POPC   PO4 7428  30.425  21.761   9.500
  209POPC   GL1 7429  30.556  21.417   9.116
  209POPC   GL2 7430  30.350  21.059   9.059
  209POPC   C1A 7431  30.922  21.332   8.803
  209POPC   D2A 7432  31.151  21.445   8.404
  209POPC   C3A 7433  30.938  21.294   8.019
  209POPC   C4A 7434  30.825  21.283   7.566
  209POPC   C1B 7435  30.584  20.952   8.731
  209POPC   C2B 7436  30.585  21.243   8.428
  209POPC   C3B 7437  30.324  21.367   8.159
  209POPC   C4B 7438  30.385  21.166   7.808
  210POPC   NC3 7439  44.636   6.815   9.379
  210POPC   PO4 7440  44.149   6.357   9.353
  210POPC   GL1 7441  44.464   6.302   9.040
  210POPC   GL2 7442  44.766   6.511   9.014
  210POPC   C1A 7443  44.527   6.384   8.589
  210POPC   D2A 7444  44.799   6.567   8.268
  210POPC   C3A 7445  44.550   6.641   7.902
  210POPC   C4A 7446  44.339   6.360   7.587
  210POPC   C1B 7447  44.735   6.863   8.718
  210POPC   C2B 7448  44.561   7.032   8.349
  210POPC   C3B 7449  44.391   7.128   7.960
  210POPC   C4B 7450  44.663   7.036   7.587
  211POPC   NC3 7451   3.254  19.077   9.393
  211POPC   PO4 7452   3.891  19.337   9.545
  211POPC   GL1 7453   3.656  19.253   9.147
  211POPC   GL2 7454   3.646  18.897   9.083
  211POPC   C1A 7455   3.401  19.230   8.760
  211POPC   D2A 7456   3.619  19.144   8.400
  211POPC   C3A 7457   3.535  19.246   8.025
  211POPC   C4A 7458   3.223  19.184   7.742
  211POPC   C1B 7459   3.812  18.760   8.669
  211POPC   C2B 7460   3.971  18.774   8.255
  211POPC   C3B 7461   3.912  18.801   7.823
  211POPC   C4B 7462   3.641  18.708   7.425
  212POPC   NC3 7463  37.321  27.106   9.341
  212POPC   PO4 7464  36.797  27.466   9.532
  212POPC   GL1 7465  36.844  27.619   9.161
  212POPC   GL2 7466  36.680  27.952   9.173
  212POPC   C1A 7467  36.898  27.363   8.800
  212POPC   D2A 7468  36.875  27.152   8.394
  212POPC   C3A 7469  37.174  27.380   8.114
  212POPC   C4A 7470  37.229  27.556   7.696
  212POPC   C1B 7471  36.575  27.811   8.780
  212POPC   C2B 7472  36.765  27.644   8.405
  212POPC   C3B 7473  36.612  27.445   8.042
  212POPC   C4B 7474  36.710  27.590   7.635
  213POPC   NC3 7475  30.441   8.973   9.397
  213POPC   PO4 7476  31.145   8.905   9.487
  213POPC   GL1 7477  30.971   8.814   9.062
  213POPC   GL2 7478  30.723   9.056   8.977
  213POPC   C1A 7479  30.951   8.813   8.603
  213POPC   D2A 7480  30.680   8.859   8.271
  213POPC   C3A 7481  30.908   8.831   7.879
  213POPC   C4A 7482  30.984   9.190   7.612
  213POPC   C1B 7483  30.328   9.069   8.732
  213POPC   C2B 7484  29.979   9.226   8.501
  213POPC   C3B 7485  30.124   9.305   8.070
  213POPC   C4B 7486  30.319   8.964   7.818
  214POPC   NC3 7487  23.168  33.436   9.569
  214POPC   PO4 7488  23.692  33.083   9.741
  214POPC   GL1 7489  23.717  33.200   9.270
  214POPC   GL2 7490  23.577  33.488   9.277
  214POPC   C1A 7491  23.855  32.981   8.850
  214POPC   D2A 7492  24.047  33.013   8.423
  214POPC   C3A 7493  23.880  32.840   8.023
  214POPC   C4A 7494  23.437  32.859   7.901
  214POPC   C1B 7495  23.639  33.439   8.816
  214POPC   C2B 7496  23.740  33.413   8.352
  214POPC   C3B 7497  23.742  33.313   7.865
  214POPC   C4B 7498  24.020  33.079   7.538
  215POPC   NC3 7499  22.613  25.909   9.438
  215POPC   PO4 7500  21.967  26.122   9.588
  215POPC   GL1 7501  22.054  25.956   9.145
  215POPC   GL2 7502  21.868  26.199   8.937
  215POPC   C1A 7503  22.035  25.809   8.688
  215POPC   D2A 7504  22.202  25.627   8.298
  215POPC   C3A 7505  22.133  25.864   7.907
  215POPC   C4A 7506  21.849  25.873   7.553
  215POPC   C1B 7507  22.173  26.342   8.605
  215POPC   C2B 7508  22.337  26.287   8.196
  215POPC   C3B 7509  22.427  26.533   7.852
  215POPC   C4B 7510  22.328  26.748   7.482
  216POPC   NC3 7511  13.496  24.240   9.439
  216POPC   PO4 7512  13.942  24.653   9.243
  216POPC   GL1 7513  13.669  24.464   8.995
  216POPC   GL2 7514  13.322  24.587   9.076
  216POPC   C1A 7515  13.831  24.380   8.591
  216POPC   D2A 7516  14.061  24.695   8.369
  216POPC   C3A 7517  13.989  24.678   7.927
  216POPC   C4A 7518  13.637  24.465   7.814
  216POPC   C1B 7519  13.295  24.331   8.691
  216POPC   C2B 7520  13.414  24.457   8.286
  216POPC   C3B 7521  13.221  24.717   7.985
  216POPC   C4B 7522  13.278  24.673   7.499
  217POPC   NC3 7523  15.468  38.466   9.581
  217POPC   PO4 7524  14.839  38.429   9.419
  217POPC   GL1 7525  15.202  38.518   9.138
  217POPC   GL2 7526  15.589  38.680   9.148
  217POPC   C1A 7527  15.117  38.311   8.747
  217POPC   D2A 7528  15.081  38.040   8.401
  217POPC   C3A 7529  15.127  38.277   8.033
  217POPC   C4A 7530  14.963  38.528   7.717
  217POPC   C1B 7531  15.441  38.701   8.740
  217POPC   C2B 7532  15.228  38.651   8.383
  217POPC   C3B 7533  15.438  38.728   8.019
  217POPC   C4B 7534  15.535  38.572   7.666
  218POPC   NC3 7535   2.897   6.269   9.551
  218POPC   PO4 7536   2.303   5.989   9.505
  218POPC   GL1 7537   2.586   6.044   9.197
  218POPC   GL2 7538   2.658   5.693   9.141
  218POPC   C1A 7539   2.577   6.043   8.775
  218POPC   D2A 7540   2.426   5.789   8.458
  218POPC   C3A 7541   2.503   5.993   8.075
  218POPC   C4A 7542   2.770   6.041   7.732
  218POPC   C1B 7543   2.892   5.643   8.747
  218POPC   C2B 7544   2.919   5.821   8.321
  218POPC   C3B 7545   2.973   5.611   7.932
  218POPC   C4B 7546   3.160   5.750   7.526
  219POPC   NC3 7547  14.064   5.243   9.364
  219POPC   PO4 7548  14.681   5.030   9.572
  219POPC   GL1 7549  14.484   4.984   9.125
  219POPC   GL2 7550  14.140   4.943   8.939
  219POPC   C1A 7551  14.468   5.266   8.730
  219POPC   D2A 7552  14.589   5.392   8.294
  219POPC   C3A 7553  14.323   5.152   8.022
  219POPC   C4A 7554  14.279   5.135   7.595
  219POPC   C1B 7555  14.004   4.657   8.581
  219POPC   C2B 7556  13.926   4.710   8.111
  219POPC   C3B 7557  13.880   4.806   7.653
  219POPC   C4B 7558  13.937   5.037   7.230
  220POPC   NC3 7559  15.054  41.990  10.051
  220POPC   PO4 7560  14.852  42.541   9.700
  220POPC   GL1 7561  15.077  42.376   9.329
  220POPC   GL2 7562  14.994  42.007   9.239
  220POPC   C1A 7563  15.150  42.348   8.895
  220POPC   D2A 7564  15.126  42.191   8.481
  220POPC   C3A 7565  15.429  42.269   8.153
  220POPC   C4A 7566  15.242  42.297   7.729
  220POPC   C1B 7567  14.724  42.061   8.837
  220POPC   C2B 7568  14.605  42.289   8.465
  220POPC   C3B 7569  14.781  42.149   8.046
  220POPC   C4B 7570  14.820  42.071   7.589
  221POPC   NC3 7571  11.867   1.921   9.540
  221POPC   PO4 7572  12.539   2.068   9.391
  221POPC   GL1 7573  12.185   1.983   9.121
  221POPC   GL2 7574  11.883   2.158   9.092
  221POPC   C1A 7575  12.245   2.103   8.723
  221POPC   D2A 7576  12.075   2.162   8.338
  221POPC   C3A 7577  12.311   1.974   8.057
  221POPC   C4A 7578  12.168   1.810   7.705
  221POPC   C1B 7579  11.736   2.019   8.690
  221POPC   C2B 7580  11.714   1.814   8.254
  221POPC   C3B 7581  11.656   1.844   7.784
  221POPC   C4B 7582  11.405   1.843   7.381
  222POPC   NC3 7583  19.355  31.761   9.491
  222POPC   PO4 7584  18.865  31.472   9.784
  222POPC   GL1 7585  18.987  31.398   9.297
  222POPC   GL2 7586  19.349  31.315   9.188
  222POPC   C1A 7587  18.974  31.277   8.812
  222POPC   D2A 7588  19.191  31.210   8.361
  222POPC   C3A 7589  18.971  31.250   7.949
  222POPC   C4A 7590  18.836  31.630   7.722
  222POPC   C1B 7591  19.439  31.458   8.753
  222POPC   C2B 7592  19.363  31.751   8.400
  222POPC   C3B 7593  19.299  31.814   7.952
  222POPC   C4B 7594  19.415  31.438   7.769
  223POPC   NC3 7595  26.869  14.076   9.555
  223POPC   PO4 7596  27.046  14.674   9.628
  223POPC   GL1 7597  26.795  14.488   9.199
  223POPC   GL2 7598  26.818  14.147   9.064
  223POPC   C1A 7599  26.837  14.464   8.694
  223POPC   D2A 7600  26.976  14.210   8.303
  223POPC   C3A 7601  26.838  14.430   7.930
  223POPC   C4A 7602  26.517  14.744   7.937
  223POPC   C1B 7603  26.524  14.053   8.727
  223POPC   C2B 7604  26.567  13.840   8.370
  223POPC   C3B 7605  26.617  13.978   7.992
  223POPC   C4B 7606  26.770  14.007   7.631
  224POPC   NC3 7607  28.425  40.648   9.755
  224POPC   PO4 7608  29.120  40.878   9.502
  224POPC   GL1 7609  29.269  41.011   9.110
  224POPC   GL2 7610  29.061  40.750   8.972
  224POPC   C1A 7611  29.418  40.919   8.683
  224POPC   D2A 7612  29.250  40.663   8.334
  224POPC   C3A 7613  29.246  40.874   7.944
  224POPC   C4A 7614  29.499  40.851   7.632
  224POPC   C1B 7615  28.769  40.685   8.646
  224POPC   C2B 7616  28.746  40.443   8.310
  224POPC   C3B 7617  28.958  40.448   7.961
  224POPC   C4B 7618  28.856  40.323   7.586
  225POPC   NC3 7619  23.973  24.586   9.498
  225POPC   PO4 7620  23.481  24.095   9.458
  225POPC   GL1 7621  23.741  24.291   9.089
  225POPC   GL2 7622  24.016  24.560   9.015
  225POPC   C1A 7623  23.639  24.497   8.679
  225POPC   D2A 7624  23.509  24.340   8.289
  225POPC   C3A 7625  23.505  24.617   7.957
  225POPC   C4A 7626  23.642  24.279   7.726
  225POPC   C1B 7627  24.151  24.458   8.634
  225POPC   C2B 7628  24.006  24.619   8.250
  225POPC   C3B 7629  24.099  24.539   7.821
  225POPC   C4B 7630  24.073  24.847   7.508
  226POPC   NC3 7631   1.426  14.608   9.446
  226POPC   PO4 7632   1.137  13.999   9.426
  226POPC   GL1 7633   1.119  14.340   9.151
  226POPC   GL2 7634   0.915  14.635   9.292
  226POPC   C1A 7635   1.376  14.431   8.783
  226POPC   D2A 7636   1.402  14.302   8.368
  226POPC   C3A 7637   1.311  14.520   8.004
  226POPC   C4A 7638   1.458  14.429   7.557
  226POPC   C1B 7639   1.027  14.793   8.868
  226POPC   C2B 7640   0.976  14.606   8.451
  226POPC   C3B 7641   0.889  14.785   8.048
  226POPC   C4B 7642   0.972  14.649   7.639
  227POPC   NC3 7643  22.454  10.341   9.473
  227POPC   PO4 7644  22.092  10.966   9.437
  227POPC   GL1 7645  22.073  10.781   9.063
  227POPC   GL2 7646  22.157  10.449   9.067
  227POPC   C1A 7647  22.302  10.788   8.690
  227POPC   D2A 7648  22.467  10.663   8.350
  227POPC   C3A 7649  22.270  10.768   8.030
  227POPC   C4A 7650  22.409  10.618   7.704
  227POPC   C1B 7651  21.916  10.438   8.669
  227POPC   C2B 7652  21.987  10.415   8.251
  227POPC   C3B 7653  22.185  10.214   7.902
  227POPC   C4B 7654  21.965  10.074   7.552
  228POPC   NC3 7655   0.694   6.849   9.409
  228POPC   PO4 7656   0.032   6.590   9.491
  228POPC   GL1 7657   0.248   6.399   9.110
  228POPC   GL2 7658   0.585   6.377   9.200
  228POPC   C1A 7659   0.159   6.482   8.649
  228POPC   D2A 7660   0.328   6.570   8.217
  228POPC   C3A 7661   0.096   6.744   7.862
  228POPC   C4A 7662   0.329   7.064   7.634
  228POPC   C1B 7663   0.648   6.617   8.808
  228POPC   C2B 7664   0.797   6.452   8.438
  228POPC   C3B 7665   0.849   6.620   8.084
  228POPC   C4B 7666   0.593   6.630   7.750
  229POPC   NC3 7667  40.880   8.645   9.549
  229POPC   PO4 7668  40.599   8.054   9.729
  229POPC   GL1 7669  40.692   8.085   9.247
  229POPC   GL2 7670  40.636   8.431   9.134
  229POPC   C1A 7671  40.889   8.120   8.816
  229POPC   D2A 7672  40.764   7.925   8.420
  229POPC   C3A 7673  40.870   8.128   8.019
  229POPC   C4A 7674  40.922   8.146   7.574
  229POPC   C1B 7675  40.550   8.546   8.670
  229POPC   C2B 7676  40.709   8.591   8.210
  229POPC   C3B 7677  40.718   8.578   7.740
  229POPC   C4B 7678  40.766   8.489   7.235
  230POPC   NC3 7679  43.601  18.960   9.433
  230POPC   PO4 7680  42.953  19.066   9.570
  230POPC   GL1 7681  43.054  19.113   9.163
  230POPC   GL2 7682  43.365  19.013   9.008
  230POPC   C1A 7683  42.951  19.076   8.744
  230POPC   D2A 7684  43.200  19.141   8.388
  230POPC   C3A 7685  43.042  19.047   7.978
  230POPC   C4A 7686  42.862  19.207   7.562
  230POPC   C1B 7687  43.320  18.710   8.686
  230POPC   C2B 7688  43.380  18.682   8.255
  230POPC   C3B 7689  43.367  18.636   7.852
  230POPC   C4B 7690  43.022  18.718   7.603
  231POPC   NC3 7691  30.523  33.741   9.514
  231POPC   PO4 7692  31.204  33.770   9.525
  231POPC   GL1 7693  30.918  33.924   9.155
  231POPC   GL2 7694  30.567  34.087   9.134
  231POPC   C1A 7695  30.730  33.778   8.758
  231POPC   D2A 7696  30.806  33.885   8.340
  231POPC   C3A 7697  30.690  33.591   8.004
  231POPC   C4A 7698  30.757  33.867   7.645
  231POPC   C1B 7699  30.301  34.070   8.769
  231POPC   C2B 7700  30.309  33.862   8.386
  231POPC   C3B 7701  30.383  34.000   7.990
  231POPC   C4B 7702  30.238  34.017   7.582
  232POPC   NC3 7703  36.351  31.623   9.254
  232POPC   PO4 7704  35.814  31.140   9.431
  232POPC   GL1 7705  35.985  31.280   9.054
  232POPC   GL2 7706  36.317  31.199   8.941
  232POPC   C1A 7707  35.937  31.546   8.691
  232POPC   D2A 7708  36.085  31.724   8.308
  232POPC   C3A 7709  36.015  31.467   7.931
  232POPC   C4A 7710  36.041  31.253   7.539
  232POPC   C1B 7711  36.609  31.333   8.612
  232POPC   C2B 7712  36.622  31.722   8.367
  232POPC   C3B 7713  36.460  31.783   7.957
  232POPC   C4B 7714  36.507  31.396   7.754
  233POPC   NC3 7715  13.139  22.695   9.503
  233POPC   PO4 7716  12.424  22.554   9.439
  233POPC   GL1 7717  12.578  22.790   9.092
  233POPC   GL2 7718  12.951  22.808   9.050
  233POPC   C1A 7719  12.612  22.989   8.694
  233POPC   D2A 7720  12.534  23.309   8.419
  233POPC   C3A 7721  12.633  23.166   8.021
  233POPC   C4A 7722  12.906  23.284   7.715
  233POPC   C1B 7723  13.178  22.941   8.711
  233POPC   C2B 7724  13.047  23.048   8.321
  233POPC   C3B 7725  13.061  22.848   7.917
  233POPC   C4B 7726  13.057  22.748   7.496
  234POPC   NC3 7727  36.070  34.205   9.357
  234POPC   PO4 7728  36.224  34.823   9.459
  234POPC   GL1 7729  36.204  34.915   9.038
  234POPC   GL2 7730  35.865  34.786   9.057
  234POPC   C1A 7731  36.233  34.652   8.666
  234POPC   D2A 7732  36.251  34.379   8.284
  234POPC   C3A 7733  36.287  34.609   7.878
  234POPC   C4A 7734  36.042  34.823   7.567
  234POPC   C1B 7735  35.732  34.489   8.738
  234POPC   C2B 7736  35.551  34.511   8.315
  234POPC   C3B 7737  35.792  34.311   7.986
  234POPC   C4B 7738  36.014  34.266   7.602
  235POPC   NC3 7739  31.385   0.479   9.358
  235POPC   PO4 7740  31.864  44.973   9.403
  235POPC   GL1 7741  31.467   0.004   9.129
  235POPC   GL2 7742  31.103   0.135   9.105
  235POPC   C1A 7743  31.394   0.174   8.697
  235POPC   D2A 7744  31.576   0.054   8.322
  235POPC   C3A 7745  31.467   0.329   7.962
  235POPC   C4A 7746  31.846   0.502   7.762
  235POPC   C1B 7747  30.979   0.480   8.780
  235POPC   C2B 7748  31.093   0.696   8.400
  235POPC   C3B 7749  31.162   0.757   7.939
  235POPC   C4B 7750  31.208   0.542   7.533
  236POPC   NC3 7751  32.390  40.310   9.431
  236POPC   PO4 7752  32.004  39.728   9.598
  236POPC   GL1 7753  32.095  39.932   9.235
  236POPC   GL2 7754  31.928  40.256   9.180
  236POPC   C1A 7755  32.275  39.958   8.862
  236POPC   D2A 7756  32.249  39.735   8.503
  236POPC   C3A 7757  32.461  39.911   8.175
  236POPC   C4A 7758  32.410  39.860   7.757
  236POPC   C1B 7759  32.033  40.438   8.798
  236POPC   C2B 7760  32.156  40.232   8.455
  236POPC   C3B 7761  32.005  40.149   8.088
  236POPC   C4B 7762  32.075  40.237   7.707
  237POPC   NC3 7763  39.774  41.288   9.465
  237POPC   PO4 7764  39.178  41.609   9.522
  237POPC   GL1 7765  39.089  41.421   9.135
  237POPC   GL2 7766  39.437  41.312   9.039
  237POPC   C1A 7767  38.922  41.657   8.779
  237POPC   D2A 7768  39.175  41.645   8.416
  237POPC   C3A 7769  39.069  41.505   8.015
  237POPC   C4A 7770  39.304  41.285   7.689
  237POPC   C1B 7771  39.444  41.741   8.883
  237POPC   C2B 7772  39.509  42.010   8.522
  237POPC   C3B 7773  39.537  41.842   8.083
  237POPC   C4B 7774  39.441  41.840   7.644
  238POPC   NC3 7775   6.068  12.253   9.633
  238POPC   PO4 7776   6.396  11.762   9.280
  238POPC   GL1 7777   6.053  11.929   9.078
  238POPC   GL2 7778   5.830  12.145   9.195
  238POPC   C1A 7779   5.723  11.954   8.724
  238POPC   D2A 7780   5.632  11.748   8.337
  238POPC   C3A 7781   5.711  11.854   7.916
  238POPC   C4A 7782   5.911  12.210   7.772
  238POPC   C1B 7783   6.048  12.342   8.805
  238POPC   C2B 7784   5.928  12.284   8.337
  238POPC   C3B 7785   6.175  12.547   8.022
  238POPC   C4B 7786   6.416  12.505   7.668
  239POPC   NC3 7787  27.595  44.008   9.673
  239POPC   PO4 7788  27.120  43.522   9.712
  239POPC   GL1 7789  27.392  43.624   9.304
  239POPC   GL2 7790  27.767  43.560   9.252
  239POPC   C1A 7791  27.522  43.878   8.889
  239POPC   D2A 7792  27.662  43.864   8.424
  239POPC   C3A 7793  27.619  44.045   7.972
  239POPC   C4A 7794  27.511  44.058   7.530
  239POPC   C1B 7795  27.908  43.565   8.789
  239POPC   C2B 7796  27.905  43.405   8.366
  239POPC   C3B 7797  27.669  43.537   8.041
  239POPC   C4B 7798  27.691  43.613   7.651
  240POPC   NC3 7799   8.563  35.439   9.474
  240POPC   PO4 7800   9.086  35.864   9.363
  240POPC   GL1 7801   8.880  35.531   9.078
  240POPC   GL2 7802   8.508  35.461   8.983
  240POPC   C1A 7803   8.996  35.266   8.728
  240POPC   D2A 7804   9.214  35.379   8.363
  240POPC   C3A 7805   9.056  35.153   8.012
  240POPC   C4A 7806   9.203  35.227   7.588
  240POPC   C1B 7807   8.651  35.668   8.643
  240POPC   C2B 7808   8.859  35.742   8.272
  240POPC   C3B 7809   9.050  35.639   7.919
  240POPC   C4B 7810   8.777  35.547   7.601
  241POPC   NC3 7811   5.106  15.696   9.510
  241POPC   PO4 7812   5.038  16.346   9.555
  241POPC   GL1 7813   5.131  16.096   9.187
  241POPC   GL2 7814   5.410  16.265   9.089
  241POPC   C1A 7815   4.993  15.915   8.769
  241POPC   D2A 7816   4.848  15.930   8.326
  241POPC   C3A 7817   5.056  15.932   7.911
  241POPC   C4A 7818   5.116  15.816   7.439
  241POPC   C1B 7819   5.285  16.331   8.713
  241POPC   C2B 7820   5.327  16.126   8.344
  241POPC   C3B 7821   5.375  16.375   8.001
  241POPC   C4B 7822   5.334  16.249   7.612
  242POPC   NC3 7823   7.974  43.075   9.552
  242POPC   PO4 7824   7.309  43.188   9.499
  242POPC   GL1 7825   7.494  43.280   9.106
  242POPC   GL2 7826   7.740  43.028   9.094
  242POPC   C1A 7827   7.619  43.306   8.687
  242POPC   D2A 7828   7.791  43.238   8.350
  242POPC   C3A 7829   7.481  43.298   8.117
  242POPC   C4A 7830   7.425  43.213   7.700
  242POPC   C1B 7831   7.404  42.862   8.792
  242POPC   C2B 7832   7.488  42.816   8.322
  242POPC   C3B 7833   7.785  42.904   7.950
  242POPC   C4B 7834   7.718  42.827   7.486
  243POPC   NC3 7835   5.121  36.808   9.518
  243POPC   PO4 7836   5.625  36.601   9.349
  243POPC   GL1 7837   5.206  36.492   9.093
  243POPC   GL2 7838   4.965  36.750   9.035
  243POPC   C1A 7839   4.997  36.428   8.650
  243POPC   D2A 7840   4.617  36.580   8.421
  243POPC   C3A 7841   4.739  36.732   7.980
  243POPC   C4A 7842   4.979  36.620   7.606
  243POPC   C1B 7843   4.905  36.958   8.635
  243POPC   C2B 7844   4.864  37.222   8.248
  243POPC   C3B 7845   4.890  37.288   7.800
  243POPC   C4B 7846   5.018  37.180   7.379
  244POPC   NC3 7847  30.817  44.183   9.326
  244POPC   PO4 7848  30.542  43.660   9.660
  244POPC   GL1 7849  30.489  43.744   9.206
  244POPC   GL2 7850  30.791  43.610   8.974
  244POPC   C1A 7851  30.380  43.760   8.752
  244POPC   D2A 7852  30.754  43.700   8.465
  244POPC   C3A 7853  30.628  43.659   8.077
  244POPC   C4A 7854  30.419  43.928   7.780
  244POPC   C1B 7855  31.150  43.384   8.786
  244POPC   C2B 7856  31.378  43.467   8.391
  244POPC   C3B 7857  31.167  43.743   8.082
  244POPC   C4B 7858  30.924  43.709   7.680
  245POPC   NC3 7859   0.995  39.384   9.876
  245POPC   PO4 7860   1.437  39.070   9.579
  245POPC   GL1 7861   1.290  39.092   9.173
  245POPC   GL2 7862   1.088  39.403   9.140
  245POPC   C1A 7863   1.410  38.985   8.749
  245POPC   D2A 7864   1.229  39.052   8.347
  245POPC   C3A 7865   1.259  39.346   8.029
  245POPC   C4A 7866   1.368  39.081   7.678
  245POPC   C1B 7867   1.034  39.397   8.692
  245POPC   C2B 7868   0.750  39.154   8.445
  245POPC   C3B 7869   0.687  39.015   8.048
  245POPC   C4B 7870   0.861  39.215   7.711
  246POPC   NC3 7871  41.887  27.832   9.239
  246POPC   PO4 7872  41.364  27.796   9.667
  246POPC   GL1 7873  41.473  27.490   9.261
  246POPC   GL2 7874  41.593  27.626   8.880
  246POPC   C1A 7875  41.647  27.152   8.971
  246POPC   D2A 7876  41.606  27.174   8.505
  246POPC   C3A 7877  41.655  27.460   8.108
  246POPC   C4A 7878  41.936  27.742   7.857
  246POPC   C1B 7879  41.333  27.670   8.545
  246POPC   C2B 7880  41.154  27.595   8.163
  246POPC   C3B 7881  41.257  27.582   7.739
  246POPC   C4B 7882  41.066  27.826   7.350
  247POPC   NC3 7883  39.487  36.047   9.420
  247POPC   PO4 7884  39.017  36.408   9.631
  247POPC   GL1 7885  38.940  36.175   9.222
  247POPC   GL2 7886  39.128  35.846   9.129
  247POPC   C1A 7887  39.113  36.231   8.796
  247POPC   D2A 7888  39.160  36.047   8.398
  247POPC   C3A 7889  39.291  36.213   8.019
  247POPC   C4A 7890  39.112  36.266   7.587
  247POPC   C1B 7891  39.065  35.659   8.734
  247POPC   C2B 7892  39.304  35.560   8.377
  247POPC   C3B 7893  39.149  35.718   7.978
  247POPC   C4B 7894  39.343  35.837   7.590
  248POPC   NC3 7895   7.394  28.763   9.410
  248POPC   PO4 7896   6.997  28.310   9.570
  248POPC   GL1 7897   7.143  28.373   9.158
  248POPC   GL2 7898   7.068  28.702   9.004
  248POPC   C1A 7899   7.422  28.171   8.819
  248POPC   D2A 7900   7.762  27.975   8.512
  248POPC   C3A 7901   7.637  28.047   8.076
  248POPC   C4A 7902   7.626  28.403   7.805
  248POPC   C1B 7903   7.186  28.863   8.595
  248POPC   C2B 7904   7.389  28.736   8.206
  248POPC   C3B 7905   7.306  28.815   7.770
  248POPC   C4B 7906   7.098  28.799   7.357
  249POPC   NC3 7907  42.704  41.447   9.541
  249POPC   PO4 7908  43.343  41.733   9.633
  249POPC   GL1 7909  43.178  41.486   9.310
  249POPC   GL2 7910  43.299  41.750   9.110
  249POPC   C1A 7911  42.980  41.396   8.895
  249POPC   D2A 7912  43.057  41.559   8.445
  249POPC   C3A 7913  42.984  41.326   8.031
  249POPC   C4A 7914  42.874  41.473   7.588
  249POPC   C1B 7915  43.449  41.516   8.802
  249POPC   C2B 7916  43.615  41.602   8.434
  249POPC   C3B 7917  43.538  41.808   8.028
  249POPC   C4B 7918  43.337  41.586   7.691
  250POPC   NC3 7919   7.456  12.915   9.413
  250POPC   PO4 7920   7.005  12.552   9.342
  250POPC   GL1 7921   7.144  12.840   9.000
  250POPC   GL2 7922   7.458  12.865   8.924
  250POPC   C1A 7923   7.136  12.964   8.548
  250POPC   D2A 7924   7.508  12.876   8.272
  250POPC   C3A 7925   7.388  12.858   7.849
  250POPC   C4A 7926   7.512  12.880   7.432
  250POPC   C1B 7927   7.440  12.546   8.647
  250POPC   C2B 7928   7.736  12.402   8.393
  250POPC   C3B 7929   7.824  12.524   8.017
  250POPC   C4B 7930   7.623  12.407   7.653
  251POPC   NC3 7931   1.597  13.813   9.350
  251POPC   PO4 7932   2.139  13.347   9.358
  251POPC   GL1 7933   1.850  13.486   9.077
  251POPC   GL2 7934   2.003  13.794   9.027
  251POPC   C1A 7935   1.616  13.519   8.702
  251POPC   D2A 7936   1.600  13.322   8.313
  251POPC   C3A 7937   1.656  13.585   7.980
  251POPC   C4A 7938   1.854  13.502   7.618
  251POPC   C1B 7939   2.183  13.518   8.713
  251POPC   C2B 7940   2.050  13.601   8.341
  251POPC   C3B 7941   2.161  13.730   7.960
  251POPC   C4B 7942   2.346  13.709   7.554
  252POPC   NC3 7943  23.733  43.213   9.340
  252POPC   PO4 7944  23.188  43.566   9.411
  252POPC   GL1 7945  23.323  43.327   9.045
  252POPC   GL2 7946  23.372  42.988   8.954
  252POPC   C1A 7947  23.657  43.363   8.729
  252POPC   D2A 7948  23.829  43.228   8.386
  252POPC   C3A 7949  23.593  43.371   8.098
  252POPC   C4A 7950  23.732  43.210   7.785
  252POPC   C1B 7951  23.822  42.856   8.804
  252POPC   C2B 7952  24.029  42.762   8.419
  252POPC   C3B 7953  23.736  42.783   8.076
  252POPC   C4B 7954  23.752  42.722   7.640
  253POPC   NC3 7955  11.894  16.231   9.561
  253POPC   PO4 7956  11.836  16.915   9.662
  253POPC   GL1 7957  12.037  16.866   9.248
  253POPC   GL2 7958  11.922  16.547   9.159
  253POPC   C1A 7959  12.111  17.008   8.807
  253POPC   D2A 7960  12.030  16.847   8.389
  253POPC   C3A 7961  11.896  16.994   7.988
  253POPC   C4A 7962  12.006  16.721   7.631
  253POPC   C1B 7963  12.074  16.462   8.751
  253POPC   C2B 7964  11.810  16.363   8.416
  253POPC   C3B 7965  11.719  16.505   8.010
  253POPC   C4B 7966  11.714  16.307   7.618
  254POPC   NC3 7967  34.877   9.755   9.465
  254POPC   PO4 7968  34.567   9.206   9.515
  254POPC   GL1 7969  34.595   9.467   9.145
  254POPC   GL2 7970  34.322   9.727   9.100
  254POPC   C1A 7971  34.675   9.641   8.736
  254POPC   D2A 7972  34.453   9.602   8.348
  254POPC   C3A 7973  34.546   9.812   7.980
  254POPC   C4A 7974  34.851   9.678   7.704
  254POPC   C1B 7975  34.173   9.847   8.683
  254POPC   C2B 7976  34.146  10.021   8.262
  254POPC   C3B 7977  34.153  10.115   7.813
  254POPC   C4B 7978  34.527  10.073   7.499
  255POPC   NC3 7979  22.449   0.204   9.480
  255POPC   PO4 7980  22.216  44.625   9.727
  255POPC   GL1 7981  22.116  44.821   9.311
  255POPC   GL2 7982  22.333  44.625   9.172
  255POPC   C1A 7983  21.996  44.771   8.839
  255POPC   D2A 7984  22.165  44.484   8.505
  255POPC   C3A 7985  22.145  44.723   8.119
  255POPC   C4A 7986  21.853  44.962   7.869
  255POPC   C1B 7987  22.566  44.450   8.830
  255POPC   C2B 7988  22.770  44.295   8.475
  255POPC   C3B 7989  22.614  44.448   8.110
  255POPC   C4B 7990  22.477  44.581   7.729
  256POPC   NC3 7991  42.174  34.811   9.772
  256POPC   PO4 7992  42.564  34.258   9.738
  256POPC   GL1 7993  42.495  34.544   9.329
  256POPC   GL2 7994  42.195  34.787   9.255
  256POPC   C1A 7995  42.561  34.728   8.888
  256POPC   D2A 7996  42.387  34.913   8.504
  256POPC   C3A 7997  42.525  34.678   8.140
  256POPC   C4A 7998  42.655  34.398   7.788
  256POPC   C1B 7999  42.026  34.638   8.812
  256POPC   C2B 8000  41.949  34.590   8.356
  256POPC   C3B 8001  42.132  34.437   7.962
  256POPC   C4B 8002  42.301  34.772   7.683
  257POPC   NC3 8003   4.568  41.164   9.707
  257POPC   PO4 8004   5.166  41.419   9.707
  257POPC   GL1 8005   5.004  41.120   9.290
  257POPC   GL2 8006   4.910  40.730   9.150
  257POPC   C1A 8007   4.996  41.071   8.791
  257POPC   D2A 8008   5.231  40.879   8.408
  257POPC   C3A 8009   5.136  40.924   7.944
  257POPC   C4A 8010   5.238  40.720   7.551
  257POPC   C1B 8011   4.907  40.567   8.671
  257POPC   C2B 8012   4.792  40.679   8.228
  257POPC   C3B 8013   4.861  40.475   7.842
  257POPC   C4B 8014   4.975  40.035   7.782
  258POPC   NC3 8015   5.329  41.847   9.697
  258POPC   PO4 8016   5.888  42.246   9.644
  258POPC   GL1 8017   5.907  42.457   9.237
  258POPC   GL2 8018   5.587  42.616   9.244
  258POPC   C1A 8019   6.011  42.374   8.823
  258POPC   D2A 8020   6.010  42.565   8.415
  258POPC   C3A 8021   5.948  42.322   8.014
  258POPC   C4A 8022   5.592  42.138   7.761
  258POPC   C1B 8023   5.697  42.791   8.839
  258POPC   C2B 8024   5.651  42.927   8.429
  258POPC   C3B 8025   5.652  42.745   8.058
  258POPC   C4B 8026   5.751  42.607   7.643
  259POPC   NC3 8027   5.776  13.314   9.357
  259POPC   PO4 8028   6.046  13.877   9.571
  259POPC   GL1 8029   6.016  13.776   9.150
  259POPC   GL2 8030   6.293  13.556   9.234
  259POPC   C1A 8031   5.733  13.626   8.792
  259POPC   D2A 8032   5.623  13.188   8.570
  259POPC   C3A 8033   5.665  13.223   8.102
  259POPC   C4A 8034   5.812  13.381   7.706
  259POPC   C1B 8035   6.229  13.476   8.795
  259POPC   C2B 8036   6.021  13.473   8.395
  259POPC   C3B 8037   6.199  13.522   7.993
  259POPC   C4B 8038   6.353  13.649   7.602
  260POPC   NC3 8039  30.396  18.066   9.649
  260POPC   PO4 8040  30.820  18.556   9.341
  260POPC   GL1 8041  30.653  18.341   8.995
  260POPC   GL2 8042  30.845  18.059   8.947
  260POPC   C1A 8043  30.706  18.325   8.539
  260POPC   D2A 8044  30.945  18.404   8.191
  260POPC   C3A 8045  30.580  18.496   7.902
  260POPC   C4A 8046  30.266  18.468   7.631
  260POPC   C1B 8047  30.679  17.835   8.614
  260POPC   C2B 8048  30.601  17.926   8.201
  260POPC   C3B 8049  30.811  18.062   7.854
  260POPC   C4B 8050  31.027  17.948   7.508
  261POPC   NC3 8051  20.906   8.974   9.546
  261POPC   PO4 8052  20.331   8.767   9.771
  261POPC   GL1 8053  20.529   8.831   9.258
  261POPC   GL2 8054  20.695   9.188   9.129
  261POPC   C1A 8055  20.553   8.833   8.779
  261POPC   D2A 8056  20.624   9.152   8.415
  261POPC   C3A 8057  20.601   9.043   7.958
  261POPC   C4A 8058  20.447   8.807   7.594
  261POPC   C1B 8059  20.992   9.081   8.775
  261POPC   C2B 8060  21.052   8.899   8.321
  261POPC   C3B 8061  21.110   9.123   7.900
  261POPC   C4B 8062  21.256   9.362   7.524
  262POPC   NC3 8063   7.199  14.533   9.545
  262POPC   PO4 8064   7.584  14.102   9.331
  262POPC   GL1 8065   7.573  14.531   9.175
  262POPC   GL2 8066   7.249  14.521   9.022
  262POPC   C1A 8067   7.636  14.808   8.822
  262POPC   D2A 8068   7.424  14.809   8.439
  262POPC   C3A 8069   7.594  14.669   8.021
  262POPC   C4A 8070   7.563  14.505   7.603
  262POPC   C1B 8071   7.460  14.325   8.687
  262POPC   C2B 8072   7.427  14.206   8.269
  262POPC   C3B 8073   7.182  14.276   7.927
  262POPC   C4B 8074   7.114  14.160   7.504
  263POPC   NC3 8075  34.865  32.678   9.481
  263POPC   PO4 8076  34.238  32.940   9.529
  263POPC   GL1 8077  34.518  32.949   9.185
  263POPC   GL2 8078  34.456  32.604   9.171
  263POPC   C1A 8079  34.691  33.220   8.834
  263POPC   D2A 8080  34.581  33.456   8.442
  263POPC   C3A 8081  34.722  33.375   8.013
  263POPC   C4A 8082  34.784  33.021   7.743
  263POPC   C1B 8083  34.637  32.701   8.765
  263POPC   C2B 8084  34.426  32.598   8.414
  263POPC   C3B 8085  34.513  32.704   8.014
  263POPC   C4B 8086  34.261  32.844   7.660
  264POPC   NC3 8087  26.509  32.812   9.506
  264POPC   PO4 8088  27.148  33.082   9.521
  264POPC   GL1 8089  27.052  33.141   9.118
  264POPC   GL2 8090  26.750  32.940   9.086
  264POPC   C1A 8091  27.107  32.973   8.731
  264POPC   D2A 8092  26.932  32.783   8.391
  264POPC   C3A 8093  27.010  32.991   7.996
  264POPC   C4A 8094  27.056  32.919   7.538
  264POPC   C1B 8095  26.656  33.190   8.735
  264POPC   C2B 8096  26.577  33.142   8.297
  264POPC   C3B 8097  26.535  33.134   7.865
  264POPC   C4B 8098  26.436  33.445   7.517
  265POPC   NC3 8099   0.970  19.688   9.477
  265POPC   PO4 8100   1.569  19.501   9.709
  265POPC   GL1 8101   1.469  19.550   9.222
  265POPC   GL2 8102   1.243  19.813   9.068
  265POPC   C1A 8103   1.472  19.526   8.728
  265POPC   D2A 8104   1.400  19.745   8.284
  265POPC   C3A 8105   1.062  19.668   7.916
  265POPC   C4A 8106   1.053  19.566   7.407
  265POPC   C1B 8107   1.276  20.092   8.700
  265POPC   C2B 8108   1.210  20.236   8.276
  265POPC   C3B 8109   1.370  20.080   7.884
  265POPC   C4B 8110   1.117  20.043   7.538
  266POPC   NC3 8111  32.106  24.652   9.540
  266POPC   PO4 8112  32.520  24.170   9.530
  266POPC   GL1 8113  32.379  24.393   9.175
  266POPC   GL2 8114  32.038  24.345   9.146
  266POPC   C1A 8115  32.349  24.447   8.741
  266POPC   D2A 8116  32.395  24.652   8.363
  266POPC   C3A 8117  32.345  24.379   8.094
  266POPC   C4A 8118  32.418  24.605   7.795
  266POPC   C1B 8119  31.808  24.500   8.772
  266POPC   C2B 8120  31.771  24.738   8.402
  266POPC   C3B 8121  31.936  24.707   7.995
  266POPC   C4B 8122  31.769  24.889   7.634
  267POPC   NC3 8123  21.174  21.700   9.433
  267POPC   PO4 8124  21.583  21.242   9.757
  267POPC   GL1 8125  21.558  21.169   9.203
  267POPC   GL2 8126  21.293  21.340   9.109
  267POPC   C1A 8127  21.597  21.514   8.762
  267POPC   D2A 8128  21.478  21.669   8.333
  267POPC   C3A 8129  21.658  21.481   7.949
  267POPC   C4A 8130  21.461  21.447   7.507
  267POPC   C1B 8131  21.329  21.101   8.738
  267POPC   C2B 8132  21.554  20.979   8.384
  267POPC   C3B 8133  21.345  21.052   8.023
  267POPC   C4B 8134  21.139  21.427   7.964
  268POPC   NC3 8135  29.360   1.557   9.657
  268POPC   PO4 8136  28.927   1.059   9.726
  268POPC   GL1 8137  29.135   1.048   9.318
  268POPC   GL2 8138  29.454   0.870   9.252
  268POPC   C1A 8139  29.204   1.316   8.955
  268POPC   D2A 8140  29.027   1.266   8.532
  268POPC   C3A 8141  29.155   1.432   8.146
  268POPC   C4A 8142  28.908   1.485   7.767
  268POPC   C1B 8143  29.636   1.054   8.851
  268POPC   C2B 8144  29.529   1.303   8.489
  268POPC   C3B 8145  29.604   1.191   8.067
  268POPC   C4B 8146  29.341   1.199   7.717
  269POPC   NC3 8147  29.607  16.762   9.488
  269POPC   PO4 8148  30.283  16.820   9.549
  269POPC   GL1 8149  30.020  16.738   9.149
  269POPC   GL2 8150  29.721  16.527   9.063
  269POPC   C1A 8151  30.071  16.583   8.713
  269POPC   D2A 8152  29.853  16.461   8.352
  269POPC   C3A 8153  30.033  16.647   7.957
  269POPC   C4A 8154  30.234  16.455   7.614
  269POPC   C1B 8155  29.567  16.721   8.741
  269POPC   C2B 8156  29.451  16.786   8.336
  269POPC   C3B 8157  29.544  16.562   7.955
  269POPC   C4B 8158  29.615  16.890   7.707
  270POPC   NC3 8159  10.064  34.109   9.561
  270POPC   PO4 8160   9.811  33.449   9.478
  270POPC   GL1 8161   9.655  33.662   9.135
  270POPC   GL2 8162   9.910  33.874   9.141
  270POPC   C1A 8163   9.620  33.818   8.729
  270POPC   D2A 8164   9.805  33.940   8.383
  270POPC   C3A 8165   9.747  33.813   7.993
  270POPC   C4A 8166   9.622  33.474   7.842
  270POPC   C1B 8167   9.982  34.181   8.829
  270POPC   C2B 8168  10.055  34.372   8.410
  270POPC   C3B 8169  10.060  34.219   7.980
  270POPC   C4B 8170  10.038  34.148   7.502
  271POPC   NC3 8171   0.543  11.661   9.588
  271POPC   PO4 8172   0.111  12.118   9.490
  271POPC   GL1 8173   0.391  12.087   9.152
  271POPC   GL2 8174   0.158  11.993   8.898
  271POPC   C1A 8175   0.613  12.172   8.739
  271POPC   D2A 8176   0.575  12.309   8.332
  271POPC   C3A 8177   0.619  11.997   7.979
  271POPC   C4A 8178   0.346  11.787   7.670
  271POPC   C1B 8179   0.187  12.430   8.810
  271POPC   C2B 8180   0.161  12.648   8.418
  271POPC   C3B 8181   0.167  12.400   8.048
  271POPC   C4B 8182   0.169  12.268   7.608
  272POPC   NC3 8183  41.940   6.064   9.173
  272POPC   PO4 8184  42.249   6.341   9.719
  272POPC   GL1 8185  42.177   6.516   9.225
  272POPC   GL2 8186  42.107   6.890   9.137
  272POPC   C1A 8187  42.338   6.569   8.769
  272POPC   D2A 8188  42.308   6.767   8.325
  272POPC   C3A 8189  42.368   6.481   7.952
  272POPC   C4A 8190  42.128   6.183   7.689
  272POPC   C1B 8191  42.275   7.078   8.758
  272POPC   C2B 8192  42.177   7.306   8.428
  272POPC   C3B 8193  41.941   7.104   8.136
  272POPC   C4B 8194  42.178   6.922   7.821
  273POPC   NC3 8195  29.555  31.614   9.406
  273POPC   PO4 8196  30.143  31.403   9.523
  273POPC   GL1 8197  29.927  31.313   9.147
  273POPC   GL2 8198  29.633  31.102   9.226
  273POPC   C1A 8199  29.977  31.471   8.724
  273POPC   D2A 8200  29.933  31.459   8.283
  273POPC   C3A 8201  30.130  31.646   7.947
  273POPC   C4A 8202  29.894  31.901   7.626
  273POPC   C1B 8203  29.637  31.059   8.798
  273POPC   C2B 8204  29.672  31.039   8.381
  273POPC   C3B 8205  29.605  31.147   7.978
  273POPC   C4B 8206  29.776  31.387   7.707
  274POPC   NC3 8207  16.050  25.477   9.433
  274POPC   PO4 8208  15.703  24.973   9.312
  274POPC   GL1 8209  15.804  25.242   9.020
  274POPC   GL2 8210  15.719  25.621   9.057
  274POPC   C1A 8211  15.971  25.027   8.679
  274POPC   D2A 8212  16.037  24.840   8.302
  274POPC   C3A 8213  15.805  25.032   7.985
  274POPC   C4A 8214  16.002  25.006   7.561
  274POPC   C1B 8215  16.103  25.564   8.759
  274POPC   C2B 8216  16.267  25.328   8.382
  274POPC   C3B 8217  16.234  25.268   7.945
  274POPC   C4B 8218  16.310  25.421   7.498
  275POPC   NC3 8219  36.702  29.965   9.378
  275POPC   PO4 8220  37.339  29.579   9.375
  275POPC   GL1 8221  37.046  29.695   9.090
  275POPC   GL2 8222  37.142  30.042   9.092
  275POPC   C1A 8223  36.726  29.577   8.764
  275POPC   D2A 8224  36.648  29.784   8.332
  275POPC   C3A 8225  36.857  29.632   7.954
  275POPC   C4A 8226  37.190  29.715   7.694
  275POPC   C1B 8227  37.019  29.974   8.664
  275POPC   C2B 8228  37.209  29.898   8.287
  275POPC   C3B 8229  37.065  30.116   7.955
  275POPC   C4B 8230  36.696  30.114   7.784
  276POPC   NC3 8231   6.446  44.104   9.529
  276POPC   PO4 8232   7.033  43.853   9.534
  276POPC   GL1 8233   6.754  43.826   9.162
  276POPC   GL2 8234   6.477  44.040   8.992
  276POPC   C1A 8235   6.816  43.764   8.726
  276POPC   D2A 8236   6.620  43.881   8.327
  276POPC   C3A 8237   6.743  43.683   7.957
  276POPC   C4A 8238   6.900  43.886   7.628
  276POPC   C1B 8239   6.284  43.711   8.697
  276POPC   C2B 8240   6.192  43.612   8.275
  276POPC   C3B 8241   6.228  43.703   7.842
  276POPC   C4B 8242   6.308  43.866   7.446
  277POPC   NC3 8243  28.137  38.927   9.574
  277POPC   PO4 8244  28.298  39.565   9.603
  277POPC   GL1 8245  28.354  39.325   9.221
  277POPC   GL2 8246  28.060  39.198   9.153
  277POPC   C1A 8247  28.365  39.419   8.773
  277POPC   D2A 8248  28.548  39.351   8.385
  277POPC   C3A 8249  28.413  39.521   8.013
  277POPC   C4A 8250  28.484  39.368   7.617
  277POPC   C1B 8251  27.954  39.064   8.758
  277POPC   C2B 8252  28.070  39.131   8.351
  277POPC   C3B 8253  28.012  38.894   8.004
  277POPC   C4B 8254  28.151  38.991   7.579
  278POPC   NC3 8255  13.211   9.794   9.538
  278POPC   PO4 8256  13.785  10.067   9.641
  278POPC   GL1 8257  13.727   9.867   9.208
  278POPC   GL2 8258  13.411   9.717   9.076
  278POPC   C1A 8259  13.857   9.702   8.790
  278POPC   D2A 8260  13.861   9.378   8.437
  278POPC   C3A 8261  13.943   9.528   8.014
  278POPC   C4A 8262  13.874   9.979   7.914
  278POPC   C1B 8263  13.386   9.792   8.641
  278POPC   C2B 8264  13.533   9.748   8.242
  278POPC   C3B 8265  13.320   9.645   7.855
  278POPC   C4B 8266  13.212   9.739   7.424
  279POPC   NC3 8267   7.908  16.586   9.554
  279POPC   PO4 8268   8.480  16.886   9.406
  279POPC   GL1 8269   8.107  16.845   9.144
  279POPC   GL2 8270   7.989  16.480   9.076
  279POPC   C1A 8271   8.166  16.812   8.709
  279POPC   D2A 8272   8.423  16.655   8.381
  279POPC   C3A 8273   8.368  16.748   7.926
  279POPC   C4A 8274   8.344  17.015   7.547
  279POPC   C1B 8275   8.025  16.303   8.688
  279POPC   C2B 8276   7.935  16.498   8.326
  279POPC   C3B 8277   7.884  16.388   7.924
  279POPC   C4B 8278   7.928  16.685   7.608
  280POPC   NC3 8279  35.683  22.927   9.876
  280POPC   PO4 8280  35.261  22.709   9.405
  280POPC   GL1 8281  35.488  22.900   9.066
  280POPC   GL2 8282  35.641  23.228   9.191
  280POPC   C1A 8283  35.388  22.867   8.610
  280POPC   D2A 8284  35.047  22.908   8.292
  280POPC   C3A 8285  35.216  22.743   7.913
  280POPC   C4A 8286  35.607  22.828   7.697
  280POPC   C1B 8287  35.347  23.334   8.819
  280POPC   C2B 8288  35.440  23.443   8.376
  280POPC   C3B 8289  35.333  23.237   7.959
  280POPC   C4B 8290  35.382  23.228   7.466
  281POPC   NC3 8291  13.614  13.425   9.363
  281POPC   PO4 8292  13.891  13.995   9.401
  281POPC   GL1 8293  13.665  13.861   9.058
  281POPC   GL2 8294  13.325  13.788   9.104
  281POPC   C1A 8295  13.609  13.596   8.682
  281POPC   D2A 8296  13.592  13.557   8.228
  281POPC   C3A 8297  13.905  13.742   7.980
  281POPC   C4A 8298  13.969  13.579   7.572
  281POPC   C1B 8299  13.326  14.025   8.712
  281POPC   C2B 8300  13.279  14.005   8.279
  281POPC   C3B 8301  13.395  13.951   7.895
  281POPC   C4B 8302  13.464  13.596   7.685
  282POPC   NC3 8303   2.341  10.025   9.536
  282POPC   PO4 8304   2.133   9.405   9.312
  282POPC   GL1 8305   2.211   9.789   9.082
  282POPC   GL2 8306   1.916   9.984   8.983
  282POPC   C1A 8307   2.240   9.747   8.631
  282POPC   D2A 8308   1.908   9.530   8.382
  282POPC   C3A 8309   2.037   9.352   8.019
  282POPC   C4A 8310   2.210   9.529   7.658
  282POPC   C1B 8311   2.025  10.232   8.676
  282POPC   C2B 8312   1.945  10.043   8.329
  282POPC   C3B 8313   2.041   9.913   7.960
  282POPC   C4B 8314   1.864   9.918   7.575
  283POPC   NC3 8315  11.207   3.639   9.691
  283POPC   PO4 8316  11.388   4.308   9.532
  283POPC   GL1 8317  11.540   4.400   9.113
  283POPC   GL2 8318  11.238   4.339   8.941
  283POPC   C1A 8319  11.649   4.206   8.726
  283POPC   D2A 8320  11.417   4.294   8.401
  283POPC   C3A 8321  11.602   4.170   8.050
  283POPC   C4A 8322  11.436   4.235   7.691
  283POPC   C1B 8323  10.939   4.282   8.620
  283POPC   C2B 8324  11.030   4.624   8.388
  283POPC   C3B 8325  11.169   4.583   7.983
  283POPC   C4B 8326  10.953   4.421   7.631
  284POPC   NC3 8327  17.828  21.203   9.421
  284POPC   PO4 8328  17.310  21.629   9.628
  284POPC   GL1 8329  17.398  21.477   9.215
  284POPC   GL2 8330  17.040  21.410   9.176
  284POPC   C1A 8331  17.580  21.339   8.827
  284POPC   D2A 8332  17.511  21.148   8.440
  284POPC   C3A 8333  17.692  21.403   8.114
  284POPC   C4A 8334  17.789  21.362   7.689
  284POPC   C1B 8335  17.117  21.566   8.776
  284POPC   C2B 8336  17.323  21.612   8.420
  284POPC   C3B 8337  17.157  21.439   8.046
  284POPC   C4B 8338  17.023  21.606   7.646
  285POPC   NC3 8339  15.222  27.032   9.412
  285POPC   PO4 8340  15.566  26.444   9.281
  285POPC   GL1 8341  15.342  26.703   9.049
  285POPC   GL2 8342  15.048  26.683   9.054
  285POPC   C1A 8343  15.340  26.920   8.691
  285POPC   D2A 8344  15.329  26.682   8.327
  285POPC   C3A 8345  15.341  26.863   7.928
  285POPC   C4A 8346  15.307  26.854   7.488
  285POPC   C1B 8347  14.872  26.661   8.613
  285POPC   C2B 8348  14.841  26.745   8.163
  285POPC   C3B 8349  14.865  27.039   7.798
  285POPC   C4B 8350  14.816  26.891   7.374
  286POPC   NC3 8351  12.748  12.396   9.551
  286POPC   PO4 8352  12.654  11.702   9.437
  286POPC   GL1 8353  12.904  11.994   9.118
  286POPC   GL2 8354  13.075  12.360   9.112
  286POPC   C1A 8355  13.066  11.952   8.669
  286POPC   D2A 8356  12.910  11.883   8.222
  286POPC   C3A 8357  13.134  12.020   7.814
  286POPC   C4A 8358  12.999  11.885   7.375
  286POPC   C1B 8359  13.049  12.453   8.664
  286POPC   C2B 8360  13.062  12.370   8.237
  286POPC   C3B 8361  12.746  12.359   7.935
  286POPC   C4B 8362  12.781  12.311   7.498
  287POPC   NC3 8363  13.318   2.501   9.564
  287POPC   PO4 8364  13.733   3.029   9.734
  287POPC   GL1 8365  13.686   2.837   9.280
  287POPC   GL2 8366  13.533   2.528   9.110
  287POPC   C1A 8367  13.824   2.842   8.826
  287POPC   D2A 8368  13.829   3.110   8.459
  287POPC   C3A 8369  13.891   2.911   8.064
  287POPC   C4A 8370  13.622   2.765   7.743
  287POPC   C1B 8371  13.332   2.551   8.689
  287POPC   C2B 8372  13.434   2.532   8.233
  287POPC   C3B 8373  13.553   2.255   7.885
  287POPC   C4B 8374  13.635   2.243   7.427
  288POPC   NC3 8375   1.962  12.600   9.583
  288POPC   PO4 8376   1.974  11.976   9.502
  288POPC   GL1 8377   2.150  11.981   9.088
  288POPC   GL2 8378   2.197  12.307   9.102
  288POPC   C1A 8379   2.030  12.138   8.641
  288POPC   D2A 8380   1.716  12.335   8.341
  288POPC   C3A 8381   1.609  12.091   7.951
  288POPC   C4A 8382   1.880  11.823   7.702
  288POPC   C1B 8383   2.410  12.454   8.765
  288POPC   C2B 8384   2.278  12.522   8.346
  288POPC   C3B 8385   2.116  12.236   8.018
  288POPC   C4B 8386   2.319  12.098   7.625
  289POPC   NC3 8387   5.515  34.864   9.420
  289POPC   PO4 8388   5.727  34.324   9.794
  289POPC   GL1 8389   5.960  34.348   9.325
  289POPC   GL2 8390   5.946  34.688   9.205
  289POPC   C1A 8391   6.090  34.416   8.825
  289POPC   D2A 8392   5.863  34.367   8.417
  289POPC   C3A 8393   6.134  34.268   8.049
  289POPC   C4A 8394   6.232  34.304   7.615
  289POPC   C1B 8395   5.701  34.739   8.794
  289POPC   C2B 8396   5.429  34.726   8.442
  289POPC   C3B 8397   5.618  34.660   8.052
  289POPC   C4B 8398   5.750  34.438   7.717
  290POPC   NC3 8399  28.072  32.130   9.462
  290POPC   PO4 8400  28.665  32.229   9.417
  290POPC   GL1 8401  28.551  31.977   9.095
  290POPC   GL2 8402  28.192  31.931   8.988
  290POPC   C1A 8403  28.749  32.047   8.714
  290POPC   D2A 8404  28.507  32.039   8.367
  290POPC   C3A 8405  28.660  32.068   7.973
  290POPC   C4A 8406  28.369  31.853   7.710
  290POPC   C1B 8407  28.307  32.358   8.844
  290POPC   C2B 8408  28.361  32.567   8.446
  290POPC   C3B 8409  28.277  32.431   8.001
  290POPC   C4B 8410  28.520  32.411   7.611
  291POPC   NC3 8411  15.549  27.977   9.429
  291POPC   PO4 8412  15.166  27.492   9.469
  291POPC   GL1 8413  15.130  27.363   9.050
  291POPC   GL2 8414  15.500  27.315   9.061
  291POPC   C1A 8415  14.920  27.172   8.690
  291POPC   D2A 8416  15.124  27.172   8.268
  291POPC   C3A 8417  14.959  27.515   7.990
  291POPC   C4A 8418  14.892  27.956   7.845
  291POPC   C1B 8419  15.401  27.430   8.622
  291POPC   C2B 8420  15.433  27.588   8.214
  291POPC   C3B 8421  15.410  27.716   7.819
  291POPC   C4B 8422  15.385  27.312   7.669
  292POPC   NC3 8423  27.643  31.696   9.600
  292POPC   PO4 8424  27.840  30.972   9.499
  292POPC   GL1 8425  27.741  31.309   9.194
  292POPC   GL2 8426  27.455  31.543   9.153
  292POPC   C1A 8427  27.579  31.226   8.779
  292POPC   D2A 8428  27.704  31.401   8.425
  292POPC   C3A 8429  27.426  31.393   8.110
  292POPC   C4A 8430  27.554  31.233   7.722
  292POPC   C1B 8431  27.723  31.716   8.846
  292POPC   C2B 8432  27.606  31.904   8.458
  292POPC   C3B 8433  27.758  31.793   8.079
  292POPC   C4B 8434  27.548  31.761   7.712
  293POPC   NC3 8435   9.212  28.865   9.417
  293POPC   PO4 8436   8.727  28.402   9.578
  293POPC   GL1 8437   8.880  28.301   9.194
  293POPC   GL2 8438   8.981  27.920   9.164
  293POPC   C1A 8439   8.952  28.540   8.795
  293POPC   D2A 8440   9.129  28.626   8.376
  293POPC   C3A 8441   8.840  28.628   8.035
  293POPC   C4A 8442   8.856  28.424   7.666
  293POPC   C1B 8443   8.757  28.042   8.793
  293POPC   C2B 8444   8.714  28.291   8.399
  293POPC   C3B 8445   8.628  28.109   7.994
  293POPC   C4B 8446   8.678  27.959   7.593
  294POPC   NC3 8447  36.936  41.273   9.369
  294POPC   PO4 8448  36.792  40.619   9.418
  294POPC   GL1 8449  36.610  40.684   9.063
  294POPC   GL2 8450  36.707  41.037   8.991
  294POPC   C1A 8451  36.701  40.647   8.658
  294POPC   D2A 8452  36.710  40.984   8.435
  294POPC   C3A 8453  36.866  40.824   8.069
  294POPC   C4A 8454  36.712  40.931   7.667
  294POPC   C1B 8455  37.109  40.908   8.811
  294POPC   C2B 8456  37.284  40.852   8.401
  294POPC   C3B 8457  37.324  41.100   8.018
  294POPC   C4B 8458  37.213  40.896   7.635
  295POPC   NC3 8459  41.084  25.082   9.379
  295POPC   PO4 8460  41.112  24.488   9.406
  295POPC   GL1 8461  40.777  24.573   9.127
  295POPC   GL2 8462  40.638  24.886   9.213
  295POPC   C1A 8463  40.715  24.434   8.713
  295POPC   D2A 8464  40.834  24.552   8.319
  295POPC   C3A 8465  40.862  24.293   7.982
  295POPC   C4A 8466  40.841  24.445   7.576
  295POPC   C1B 8467  40.440  24.883   8.816
  295POPC   C2B 8468  40.352  24.704   8.404
  295POPC   C3B 8469  40.500  24.784   7.997
  295POPC   C4B 8470  40.651  24.908   7.595
  296POPC   NC3 8471  31.315  35.236   9.382
  296POPC   PO4 8472  31.927  35.176   9.557
  296POPC   GL1 8473  31.771  35.183   9.126
  296POPC   GL2 8474  31.543  35.435   8.954
  296POPC   C1A 8475  31.876  35.112   8.692
  296POPC   D2A 8476  31.807  35.143   8.249
  296POPC   C3A 8477  31.449  35.240   8.011
  296POPC   C4A 8478  31.584  34.918   7.741
  296POPC   C1B 8479  31.409  35.383   8.512
  296POPC   C2B 8480  31.048  35.621   8.295
  296POPC   C3B 8481  31.081  35.708   7.887
  296POPC   C4B 8482  31.448  35.643   7.651
  297POPC   NC3 8483  19.226  39.105   9.457
  297POPC   PO4 8484  18.792  39.708   9.509
  297POPC   GL1 8485  18.849  39.341   9.191
  297POPC   GL2 8486  19.192  39.460   9.067
  297POPC   C1A 8487  18.882  39.015   8.821
  297POPC   D2A 8488  18.768  38.961   8.352
  297POPC   C3A 8489  18.957  39.120   7.913
  297POPC   C4A 8490  18.709  39.176   7.498
  297POPC   C1B 8491  19.357  39.203   8.724
  297POPC   C2B 8492  19.334  39.087   8.262
  297POPC   C3B 8493  19.485  39.089   7.837
  297POPC   C4B 8494  19.516  39.362   7.502
  298POPC   NC3 8495  16.391  34.268   9.759
  298POPC   PO4 8496  16.845  34.687   9.703
  298POPC   GL1 8497  16.859  34.707   9.258
  298POPC   GL2 8498  17.124  34.836   9.073
  298POPC   C1A 8499  16.785  34.384   8.953
  298POPC   D2A 8500  16.638  34.268   8.542
  298POPC   C3A 8501  16.766  34.564   8.259
  298POPC   C4A 8502  16.921  34.518   7.892
  298POPC   C1B 8503  16.987  34.801   8.673
  298POPC   C2B 8504  16.999  35.049   8.301
  298POPC   C3B 8505  16.755  35.003   7.942
  298POPC   C4B 8506  16.466  34.734   7.741
  299POPC   NC3 8507   2.933  14.222   9.924
  299POPC   PO4 8508   2.606  14.670   9.613
  299POPC   GL1 8509   2.716  14.418   9.228
  299POPC   GL2 8510   2.798  14.040   9.209
  299POPC   C1A 8511   2.614  14.488   8.792
  299POPC   D2A 8512   2.878  14.568   8.421
  299POPC   C3A 8513   2.640  14.443   8.084
  299POPC   C4A 8514   2.400  14.691   7.753
  299POPC   C1B 8515   2.974  14.129   8.784
  299POPC   C2B 8516   2.946  14.062   8.324
  299POPC   C3B 8517   3.092  14.219   7.884
  299POPC   C4B 8518   3.056  14.274   7.373
  300POPC   NC3 8519  35.085  19.286   9.476
  300POPC   PO4 8520  35.706  18.953   9.447
  300POPC   GL1 8521  35.583  18.997   9.042
  300POPC   GL2 8522  35.286  19.181   9.017
  300POPC   C1A 8523  35.585  19.126   8.623
  300POPC   D2A 8524  35.468  19.239   8.242
  300POPC   C3A 8525  35.083  19.044   8.120
  300POPC   C4A 8526  35.203  18.958   7.716
  300POPC   C1B 8527  35.105  19.392   8.640
  300POPC   C2B 8528  35.172  19.655   8.261
  300POPC   C3B 8529  35.214  19.494   7.838
  300POPC   C4B 8530  35.029  19.578   7.423
  301POPC   NC3 8531   4.906  36.168   9.424
  301POPC   PO4 8532   5.487  35.982   9.602
  301POPC   GL1 8533   5.411  36.033   9.153
  301POPC   GL2 8534   5.661  36.229   8.998
  301POPC   C1A 8535   5.048  35.966   8.840
  301POPC   D2A 8536   4.980  35.903   8.405
  301POPC   C3A 8537   4.802  36.204   8.121
  301POPC   C4A 8538   4.689  36.198   7.712
  301POPC   C1B 8539   5.480  36.083   8.620
  301POPC   C2B 8540   5.315  36.236   8.217
  301POPC   C3B 8541   5.227  36.182   7.762
  301POPC   C4B 8542   5.423  36.392   7.385
  302POPC   NC3 8543  44.095   0.944   9.508
  302POPC   PO4 8544  43.636   1.326   9.579
  302POPC   GL1 8545  43.797   1.200   9.181
  302POPC   GL2 8546  44.119   1.379   9.200
  302POPC   C1A 8547  44.022   1.076   8.807
  302POPC   D2A 8548  44.136   1.237   8.427
  302POPC   C3A 8549  43.963   1.107   8.043
  302POPC   C4A 8550  43.848   0.847   7.672
  302POPC   C1B 8551  44.136   1.665   8.840
  302POPC   C2B 8552  44.331   1.698   8.444
  302POPC   C3B 8553  44.166   1.621   8.050
  302POPC   C4B 8554  44.044   1.434   7.673
  303POPC   NC3 8555  21.432  27.168   9.550
  303POPC   PO4 8556  21.641  27.862   9.507
  303POPC   GL1 8557  21.524  27.630   9.195
  303POPC   GL2 8558  21.195  27.558   9.221
  303POPC   C1A 8559  21.440  27.653   8.787
  303POPC   D2A 8560  21.629  27.661   8.436
  303POPC   C3A 8561  21.388  27.710   8.108
  303POPC   C4A 8562  21.436  27.820   7.710
  303POPC   C1B 8563  21.097  27.291   8.849
  303POPC   C2B 8564  21.338  27.232   8.483
  303POPC   C3B 8565  21.230  27.189   8.071
  303POPC   C4B 8566  21.142  27.417   7.720
  304POPC   NC3 8567  19.726  25.509   9.593
  304POPC   PO4 8568  19.466  24.841   9.437
  304POPC   GL1 8569  19.619  25.181   9.173
  304POPC   GL2 8570  19.933  25.358   9.146
  304POPC   C1A 8571  19.593  25.180   8.744
  304POPC   D2A 8572  19.825  25.304   8.384
  304POPC   C3A 8573  19.646  25.164   8.014
  304POPC   C4A 8574  19.591  25.245   7.635
  304POPC   C1B 8575  20.066  25.015   8.888
  304POPC   C2B 8576  20.173  24.925   8.451
  304POPC   C3B 8577  20.115  24.977   8.047
  304POPC   C4B 8578  20.105  25.283   7.718
  305POPC   NC3 8579  21.850  22.991   9.357
  305POPC   PO4 8580  21.270  23.098   9.656
  305POPC   GL1 8581  21.377  23.256   9.246
  305POPC   GL2 8582  21.025  23.244   9.211
  305POPC   C1A 8583  21.445  23.093   8.832
  305POPC   D2A 8584  21.320  22.818   8.520
  305POPC   C3A 8585  21.363  22.973   8.117
  305POPC   C4A 8586  21.519  22.711   7.815
  305POPC   C1B 8587  21.012  23.375   8.825
  305POPC   C2B 8588  21.226  23.392   8.455
  305POPC   C3B 8589  21.070  23.389   8.052
  305POPC   C4B 8590  21.095  23.192   7.693
  306POPC   NC3 8591  39.015  32.194   9.729
  306POPC   PO4 8592  39.670  32.417   9.537
  306POPC   GL1 8593  39.274  32.345   9.276
  306POPC   GL2 8594  39.000  32.084   9.211
  306POPC   C1A 8595  39.254  32.374   8.826
  306POPC   D2A 8596  39.499  32.195   8.488
  306POPC   C3A 8597  39.307  32.252   8.108
  306POPC   C4A 8598  39.406  32.116   7.679
  306POPC   C1B 8599  38.835  32.065   8.749
  306POPC   C2B 8600  38.870  31.884   8.296
  306POPC   C3B 8601  38.922  32.015   7.857
  306POPC   C4B 8602  38.994  32.459   7.768
  307POPC   NC3 8603  11.532  26.263   9.500
  307POPC   PO4 8604  11.708  25.590   9.458
  307POPC   GL1 8605  11.638  25.928   9.086
  307POPC   GL2 8606  11.294  26.014   9.058
  307POPC   C1A 8607  11.530  26.149   8.632
  307POPC   D2A 8608  11.282  26.123   8.260
  307POPC   C3A 8609  11.429  26.192   7.848
  307POPC   C4A 8610  11.433  26.235   7.385
  307POPC   C1B 8611  11.052  25.902   8.680
  307POPC   C2B 8612  11.088  25.651   8.320
  307POPC   C3B 8613  11.171  25.730   7.896
  307POPC   C4B 8614  11.002  26.032   7.611
  308POPC   NC3 8615  24.939  15.490   9.529
  308POPC   PO4 8616  24.247  15.314   9.424
  308POPC   GL1 8617  24.398  15.145   9.039
  308POPC   GL2 8618  24.705  15.253   9.147
  308POPC   C1A 8619  24.342  14.975   8.646
  308POPC   D2A 8620  24.357  15.237   8.279
  308POPC   C3A 8621  24.447  15.035   7.907
  308POPC   C4A 8622  24.464  15.092   7.500
  308POPC   C1B 8623  24.988  15.488   8.880
  308POPC   C2B 8624  25.047  15.396   8.450
  308POPC   C3B 8625  24.825  15.383   8.081
  308POPC   C4B 8626  24.924  15.231   7.679
  309POPC   NC3 8627  37.260  29.140   9.467
  309POPC   PO4 8628  36.688  28.820   9.356
  309POPC   GL1 8629  36.846  29.166   9.110
  309POPC   GL2 8630  37.190  29.222   8.968
  309POPC   C1A 8631  36.830  29.065   8.673
  309POPC   D2A 8632  36.814  29.297   8.331
  309POPC   C3A 8633  37.024  29.093   8.051
  309POPC   C4A 8634  37.102  28.871   7.687
  309POPC   C1B 8635  37.232  29.493   8.600
  309POPC   C2B 8636  37.400  29.446   8.152
  309POPC   C3B 8637  37.400  29.280   7.747
  309POPC   C4B 8638  37.132  29.307   7.385
  310POPC   NC3 8639  22.624   0.784   9.494
  310POPC   PO4 8640  22.055   0.460   9.462
  310POPC   GL1 8641  22.120   0.685   9.095
  310POPC   GL2 8642  22.427   0.842   9.029
  310POPC   C1A 8643  22.273   0.415   8.773
  310POPC   D2A 8644  22.127   0.147   8.467
  310POPC   C3A 8645  21.903   0.389   8.178
  310POPC   C4A 8646  21.910   0.456   7.761
  310POPC   C1B 8647  22.551   0.798   8.616
  310POPC   C2B 8648  22.272   0.754   8.229
  310POPC   C3B 8649  22.387   0.649   7.787
  310POPC   C4B 8650  22.633   0.667   7.382
  311POPC   NC3 8651   6.135  15.705   9.458
  311POPC   PO4 8652   5.589  16.003   9.497
  311POPC   GL1 8653   5.779  15.892   9.107
  311POPC   GL2 8654   6.119  15.980   9.039
  311POPC   C1A 8655   5.748  16.110   8.714
  311POPC   D2A 8656   5.777  16.358   8.344
  311POPC   C3A 8657   5.795  16.101   7.935
  311POPC   C4A 8658   5.534  15.800   7.740
  311POPC   C1B 8659   6.365  16.047   8.681
  311POPC   C2B 8660   6.467  16.107   8.286
  311POPC   C3B 8661   6.292  15.931   7.915
  311POPC   C4B 8662   6.052  15.697   7.620
  312POPC   NC3 8663  29.963  41.750   9.608
  312POPC   PO4 8664  30.215  41.154   9.688
  312POPC   GL1 8665  29.930  41.336   9.304
  312POPC   GL2 8666  29.905  41.734   9.119
  312POPC   C1A 8667  29.695  41.353   8.909
  312POPC   D2A 8668  29.929  41.585   8.528
  312POPC   C3A 8669  29.966  41.338   8.164
  312POPC   C4A 8670  29.997  41.383   7.728
  312POPC   C1B 8671  29.613  41.870   8.791
  312POPC   C2B 8672  29.436  41.870   8.359
  312POPC   C3B 8673  29.696  41.748   7.999
  312POPC   C4B 8674  29.778  41.830   7.573
  313POPC   NC3 8675  40.270  25.347   9.459
  313POPC   PO4 8676  40.873  25.487   9.354
  313POPC   GL1 8677  40.608  25.390   9.060
  313POPC   GL2 8678  40.889  25.228   8.909
  313POPC   C1A 8679  40.521  25.429   8.644
  313POPC   D2A 8680  40.646  25.111   8.386
  313POPC   C3A 8681  40.749  25.227   7.993
  313POPC   C4A 8682  40.616  25.412   7.601
  313POPC   C1B 8683  40.991  24.890   8.705
  313POPC   C2B 8684  41.114  24.962   8.290
  313POPC   C3B 8685  41.061  24.832   7.887
  313POPC   C4B 8686  41.087  25.183   7.618
  314POPC   NC3 8687  25.549  38.623   9.497
  314POPC   PO4 8688  25.040  38.136   9.505
  314POPC   GL1 8689  25.207  38.403   9.185
  314POPC   GL2 8690  25.391  38.204   8.976
  314POPC   C1A 8691  25.309  38.658   8.793
  314POPC   D2A 8692  25.415  38.441   8.404
  314POPC   C3A 8693  25.395  38.707   8.047
  314POPC   C4A 8694  25.090  38.784   7.693
  314POPC   C1B 8695  25.659  37.996   8.739
  314POPC   C2B 8696  25.575  37.926   8.330
  314POPC   C3B 8697  25.559  38.162   8.007
  314POPC   C4B 8698  25.255  38.314   7.755
  315POPC   NC3 8699   5.902  36.241   9.466
  315POPC   PO4 8700   5.766  35.566   9.362
  315POPC   GL1 8701   5.844  35.737   9.009
  315POPC   GL2 8702   6.093  35.962   9.085
  315POPC   C1A 8703   5.978  35.891   8.603
  315POPC   D2A 8704   5.859  36.164   8.295
  315POPC   C3A 8705   5.691  35.992   7.957
  315POPC   C4A 8706   5.806  36.149   7.608
  315POPC   C1B 8707   6.142  36.332   8.799
  315POPC   C2B 8708   6.281  36.433   8.358
  315POPC   C3B 8709   6.155  36.399   7.896
  315POPC   C4B 8710   6.164  36.467   7.418
  316POPC   NC3 8711  17.367  37.971   9.532
  316POPC   PO4 8712  17.797  37.500   9.789
  316POPC   GL1 8713  17.636  37.562   9.303
  316POPC   GL2 8714  17.259  37.642   9.163
  316POPC   C1A 8715  17.668  37.701   8.849
  316POPC   D2A 8716  17.697  37.512   8.464
  316POPC   C3A 8717  17.605  37.741   8.115
  316POPC   C4A 8718  17.748  37.680   7.703
  316POPC   C1B 8719  17.195  37.948   8.794
  316POPC   C2B 8720  17.331  38.138   8.380
  316POPC   C3B 8721  17.188  38.038   7.974
  316POPC   C4B 8722  17.176  37.649   7.828
  317POPC   NC3 8723  19.811  22.402   9.523
  317POPC   PO4 8724  20.067  21.794   9.484
  317POPC   GL1 8725  20.079  22.140   9.168
  317POPC   GL2 8726  19.744  22.109   9.092
  317POPC   C1A 8727  20.096  22.174   8.713
  317POPC   D2A 8728  19.896  21.924   8.381
  317POPC   C3A 8729  19.867  22.046   7.942
  317POPC   C4A 8730  19.557  22.200   7.671
  317POPC   C1B 8731  19.570  22.213   8.700
  317POPC   C2B 8732  19.620  22.386   8.270
  317POPC   C3B 8733  19.836  22.578   7.927
  317POPC   C4B 8734  20.049  22.447   7.568
  318POPC   NC3 8735   7.266  16.981   9.518
  318POPC   PO4 8736   7.504  16.358   9.450
  318POPC   GL1 8737   7.281  16.601   9.192
  318POPC   GL2 8738   7.571  16.798   9.136
  318POPC   C1A 8739   7.131  16.737   8.819
  318POPC   D2A 8740   7.207  16.544   8.435
  318POPC   C3A 8741   7.501  16.694   8.131
  318POPC   C4A 8742   7.477  16.890   7.727
  318POPC   C1B 8743   7.650  16.725   8.711
  318POPC   C2B 8744   7.802  17.018   8.420
  318POPC   C3B 8745   7.931  16.988   8.026
  318POPC   C4B 8746   7.877  17.227   7.673
  319POPC   NC3 8747  42.421   5.013   9.433
  319POPC   PO4 8748  41.746   5.064   9.612
  319POPC   GL1 8749  41.976   5.072   9.162
  319POPC   GL2 8750  42.152   4.795   8.990
  319POPC   C1A 8751  42.006   5.213   8.706
  319POPC   D2A 8752  41.861   5.370   8.288
  319POPC   C3A 8753  42.188   5.160   8.030
  319POPC   C4A 8754  42.000   4.740   7.959
  319POPC   C1B 8755  42.543   4.753   8.713
  319POPC   C2B 8756  42.597   4.724   8.234
  319POPC   C3B 8757  42.484   4.767   7.772
  319POPC   C4B 8758  42.578   4.930   7.304
  320POPC   NC3 8759  18.482   3.143   9.514
  320POPC   PO4 8760  18.160   3.782   9.404
  320POPC   GL1 8761  18.371   3.504   9.155
  320POPC   GL2 8762  18.096   3.271   9.139
  320POPC   C1A 8763  18.318   3.518   8.724
  320POPC   D2A 8764  18.218   3.700   8.369
  320POPC   C3A 8765  18.380   3.626   7.983
  320POPC   C4A 8766  18.379   3.825   7.587
  320POPC   C1B 8767  18.033   3.058   8.752
  320POPC   C2B 8768  17.994   3.229   8.334
  320POPC   C3B 8769  18.172   3.150   7.939
  320POPC   C4B 8770  18.230   3.338   7.517
  321POPC   NC3 8771  29.158   2.897   9.546
  321POPC   PO4 8772  29.270   2.292   9.347
  321POPC   GL1 8773  29.104   2.658   9.090
  321POPC   GL2 8774  28.887   3.004   9.125
  321POPC   C1A 8775  29.093   2.601   8.649
  321POPC   D2A 8776  29.212   2.210   8.421
  321POPC   C3A 8777  29.321   2.361   8.020
  321POPC   C4A 8778  29.126   2.745   7.854
  321POPC   C1B 8779  28.831   3.062   8.689
  321POPC   C2B 8780  29.076   3.092   8.269
  321POPC   C3B 8781  28.894   3.196   7.846
  321POPC   C4B 8782  29.083   3.079   7.436
  322POPC   NC3 8783  40.528  18.254   9.513
  322POPC   PO4 8784  41.106  18.095   9.370
  322POPC   GL1 8785  40.853  18.324   9.064
  322POPC   GL2 8786  40.478  18.452   9.048
  322POPC   C1A 8787  40.880  18.555   8.716
  322POPC   D2A 8788  40.749  18.386   8.332
  322POPC   C3A 8789  41.030  18.384   7.999
  322POPC   C4A 8790  40.973  17.997   7.745
  322POPC   C1B 8791  40.339  18.575   8.641
  322POPC   C2B 8792  40.357  18.662   8.204
  322POPC   C3B 8793  40.533  18.402   7.814
  322POPC   C4B 8794  40.466  18.520   7.337
  323POPC   NC3 8795  44.085   5.491   9.688
  323POPC   PO4 8796  43.718   4.999   9.641
  323POPC   GL1 8797  43.735   4.964   9.201
  323POPC   GL2 8798  43.542   4.749   9.013
  323POPC   C1A 8799  44.039   4.847   8.906
  323POPC   D2A 8800  43.899   4.953   8.510
  323POPC   C3A 8801  44.165   4.961   8.165
  323POPC   C4A 8802  44.190   5.260   7.815
  323POPC   C1B 8803  43.410   4.731   8.627
  323POPC   C2B 8804  43.478   4.843   8.229
  323POPC   C3B 8805  43.753   4.904   7.868
  323POPC   C4B 8806  43.728   4.713   7.460
  324POPC   NC3 8807  40.665  38.341   9.508
  324POPC   PO4 8808  41.234  38.775   9.487
  324POPC   GL1 8809  40.991  38.544   9.174
  324POPC   GL2 8810  40.997  38.132   9.179
  324POPC   C1A 8811  40.604  38.622   8.925
  324POPC   D2A 8812  40.547  38.593   8.485
  324POPC   C3A 8813  40.571  38.379   8.101
  324POPC   C4A 8814  40.942  38.495   7.864
  324POPC   C1B 8815  40.883  38.233   8.769
  324POPC   C2B 8816  40.783  38.019   8.416
  324POPC   C3B 8817  40.871  37.969   8.013
  324POPC   C4B 8818  40.701  38.111   7.641
  325POPC   NC3 8819   7.249  25.006   9.801
  325POPC   PO4 8820   7.606  25.437   9.700
  325POPC   GL1 8821   7.623  25.409   9.223
  325POPC   GL2 8822   7.299  25.282   9.158
  325POPC   C1A 8823   7.745  25.124   8.829
  325POPC   D2A 8824   7.661  24.931   8.387
  325POPC   C3A 8825   7.498  25.065   7.942
  325POPC   C4A 8826   7.469  24.939   7.486
  325POPC   C1B 8827   7.380  25.463   8.723
  325POPC   C2B 8828   7.309  25.428   8.260
  325POPC   C3B 8829   7.102  25.398   7.839
  325POPC   C4B 8830   6.970  25.671   7.479
  326POPC   NC3 8831  35.026  30.065   9.407
  326POPC   PO4 8832  35.628  30.319   9.328
  326POPC   GL1 8833  35.335  30.265   9.012
  326POPC   GL2 8834  35.308  29.902   9.007
  326POPC   C1A 8835  35.079  30.209   8.642
  326POPC   D2A 8836  35.102  30.303   8.216
  326POPC   C3A 8837  35.464  30.179   8.054
  326POPC   C4A 8838  35.701  30.028   7.722
  326POPC   C1B 8839  35.343  29.610   8.665
  326POPC   C2B 8840  35.217  29.770   8.280
  326POPC   C3B 8841  35.330  29.708   7.875
  326POPC   C4B 8842  35.485  29.364   7.729
  327POPC   NC3 8843  13.858  26.853   9.620
  327POPC   PO4 8844  13.481  26.413   9.515
  327POPC   GL1 8845  13.703  26.683   9.159
  327POPC   GL2 8846  13.680  26.984   9.144
  327POPC   C1A 8847  13.873  26.931   8.695
  327POPC   D2A 8848  13.641  27.127   8.333
  327POPC   C3A 8849  13.721  26.900   7.953
  327POPC   C4A 8850  14.016  26.714   7.700
  327POPC   C1B 8851  13.424  26.754   8.769
  327POPC   C2B 8852  13.499  26.622   8.346
  327POPC   C3B 8853  13.331  26.507   7.960
  327POPC   C4B 8854  13.240  26.722   7.578
  328POPC   NC3 8855  31.248  18.665   9.211
  328POPC   PO4 8856  31.085  19.259   9.512
  328POPC   GL1 8857  31.389  19.259   9.179
  328POPC   GL2 8858  31.693  19.047   9.279
  328POPC   C1A 8859  31.339  19.174   8.746
  328POPC   D2A 8860  31.102  19.073   8.397
  328POPC   C3A 8861  31.276  19.232   8.030
  328POPC   C4A 8862  31.274  19.031   7.648
  328POPC   C1B 8863  31.801  18.960   8.848
  328POPC   C2B 8864  31.738  19.149   8.430
  328POPC   C3B 8865  31.733  19.016   8.019
  328POPC   C4B 8866  31.740  19.196   7.633
  329POPC   NC3 8867   1.752   9.655   9.319
  329POPC   PO4 8868   1.093   9.642   9.493
  329POPC   GL1 8869   1.036   9.850   9.131
  329POPC   GL2 8870   1.373   9.861   9.073
  329POPC   C1A 8871   1.084   9.947   8.661
  329POPC   D2A 8872   0.896   9.926   8.226
  329POPC   C3A 8873   1.114   9.711   7.874
  329POPC   C4A 8874   1.017   9.837   7.419
  329POPC   C1B 8875   1.528   9.704   8.689
  329POPC   C2B 8876   1.470   9.837   8.261
  329POPC   C3B 8877   1.624   9.629   7.893
  329POPC   C4B 8878   1.446   9.578   7.488
  330POPC   NC3 8879  14.600  23.239   9.524
  330POPC   PO4 8880  14.106  23.714   9.546
  330POPC   GL1 8881  14.329  23.558   9.190
  330POPC   GL2 8882  14.637  23.708   9.221
  330POPC   C1A 8883  14.259  23.555   8.742
  330POPC   D2A 8884  14.437  23.568   8.341
  330POPC   C3A 8885  14.119  23.615   8.034
  330POPC   C4A 8886  14.187  23.728   7.629
  330POPC   C1B 8887  14.725  23.767   8.776
  330POPC   C2B 8888  14.619  24.051   8.430
  330POPC   C3B 8889  14.493  23.959   7.995
  330POPC   C4B 8890  14.687  23.952   7.601
  331POPC   NC3 8891  34.475  14.742   9.439
  331POPC   PO4 8892  34.401  14.124   9.468
  331POPC   GL1 8893  34.732  14.191   9.105
  331POPC   GL2 8894  34.684  14.550   9.029
  331POPC   C1A 8895  34.769  14.232   8.657
  331POPC   D2A 8896  34.427  14.439   8.455
  331POPC   C3A 8897  34.461  14.412   8.003
  331POPC   C4A 8898  34.818  14.198   7.810
  331POPC   C1B 8899  34.834  14.745   8.660
  331POPC   C2B 8900  34.880  14.592   8.255
  331POPC   C3B 8901  34.776  14.793   7.844
  331POPC   C4B 8902  34.785  14.802   7.385
  332POPC   NC3 8903  11.033  25.018   9.351
  332POPC   PO4 8904  11.401  24.441   9.466
  332POPC   GL1 8905  11.057  24.521   9.187
  332POPC   GL2 8906  11.153  24.248   8.992
  332POPC   C1A 8907  11.041  24.699   8.761
  332POPC   D2A 8908  11.415  24.484   8.577
  332POPC   C3A 8909  11.483  24.459   8.152
  332POPC   C4A 8910  11.527  24.187   7.815
  332POPC   C1B 8911  10.919  24.219   8.631
  332POPC   C2B 8912  11.001  24.240   8.187
  332POPC   C3B 8913  11.000  24.432   7.785
  332POPC   C4B 8914  10.881  24.256   7.380
  333POPC   NC3 8915  30.450  24.655   9.590
  333POPC   PO4 8916  30.805  24.190   9.342
  333POPC   GL1 8917  30.610  24.369   9.016
  333POPC   GL2 8918  30.686  24.710   9.124
  333POPC   C1A 8919  30.678  24.310   8.586
  333POPC   D2A 8920  30.932  24.552   8.302
  333POPC   C3A 8921  30.725  24.704   7.940
  333POPC   C4A 8922  30.574  24.439   7.620
  333POPC   C1B 8923  30.496  24.811   8.731
  333POPC   C2B 8924  30.390  24.640   8.314
  333POPC   C3B 8925  30.199  24.694   7.925
  333POPC   C4B 8926  30.382  24.960   7.614
  334POPC   NC3 8927   8.313  23.198   9.563
  334POPC   PO4 8928   8.012  22.560   9.517
  334POPC   GL1 8929   8.279  22.711   9.202
  334POPC   GL2 8930   8.179  23.039   9.107
  334POPC   C1A 8931   8.280  22.661   8.766
  334POPC   D2A 8932   8.033  22.831   8.451
  334POPC   C3A 8933   8.156  22.866   8.040
  334POPC   C4A 8934   7.987  23.014   7.643
  334POPC   C1B 8935   8.509  23.113   8.838
  334POPC   C2B 8936   8.526  23.046   8.419
  334POPC   C3B 8937   8.641  23.062   7.987
  334POPC   C4B 8938   8.556  23.299   7.574
  335POPC   NC3 8939  23.647  25.549   9.386
  335POPC   PO4 8940  24.050  25.044   9.547
  335POPC   GL1 8941  23.939  25.128   9.095
  335POPC   GL2 8942  23.739  25.431   8.894
  335POPC   C1A 8943  23.811  24.994   8.669
  335POPC   D2A 8944  23.698  25.338   8.384
  335POPC   C3A 8945  23.739  25.087   7.995
  335POPC   C4A 8946  23.675  25.171   7.558
  335POPC   C1B 8947  23.969  25.741   8.588
  335POPC   C2B 8948  24.096  25.696   8.161
  335POPC   C3B 8949  24.045  25.441   7.814
  335POPC   C4B 8950  24.082  25.447   7.348
  336POPC   NC3 8951  38.025  44.313   9.407
  336POPC   PO4 8952  38.234  44.980   9.547
  336POPC   GL1 8953  37.997  44.870   9.167
  336POPC   GL2 8954  37.697  44.673   9.206
  336POPC   C1A 8955  37.829  44.809   8.750
  336POPC   D2A 8956  37.812  44.536   8.419
  336POPC   C3A 8957  37.725  44.825   8.139
  336POPC   C4A 8958  37.704  44.887   7.743
  336POPC   C1B 8959  37.473  44.459   8.827
  336POPC   C2B 8960  37.302  44.423   8.399
  336POPC   C3B 8961  37.452  44.411   7.988
  336POPC   C4B 8962  37.596  44.374   7.576
  337POPC   NC3 8963  32.691   7.895   9.595
  337POPC   PO4 8964  33.204   8.365   9.478
  337POPC   GL1 8965  33.095   8.212   9.141
  337POPC   GL2 8966  32.859   7.975   9.106
  337POPC   C1A 8967  33.255   8.205   8.766
  337POPC   D2A 8968  33.039   8.253   8.389
  337POPC   C3A 8969  33.251   8.261   8.047
  337POPC   C4A 8970  33.249   8.358   7.660
  337POPC   C1B 8971  32.737   8.332   8.797
  337POPC   C2B 8972  32.520   8.307   8.403
  337POPC   C3B 8973  32.671   8.032   8.085
  337POPC   C4B 8974  32.735   8.256   7.721
  338POPC   NC3 8975  25.120  23.399   9.672
  338POPC   PO4 8976  25.643  23.690   9.386
  338POPC   GL1 8977  25.442  23.666   9.051
  338POPC   GL2 8978  25.076  23.666   9.179
  338POPC   C1A 8979  25.596  23.770   8.641
  338POPC   D2A 8980  25.362  23.824   8.286
  338POPC   C3A 8981  25.413  23.854   7.864
  338POPC   C4A 8982  25.374  23.403   7.892
  338POPC   C1B 8983  25.064  23.776   8.724
  338POPC   C2B 8984  24.898  24.045   8.400
  338POPC   C3B 8985  24.929  23.839   8.033
  338POPC   C4B 8986  24.813  23.707   7.675
  339POPC   NC3 8987  42.936  30.364   9.539
  339POPC   PO4 8988  42.594  30.966   9.648
  339POPC   GL1 8989  42.797  30.984   9.240
  339POPC   GL2 8990  43.027  30.713   9.138
  339POPC   C1A 8991  42.850  31.038   8.768
  339POPC   D2A 8992  42.799  31.070   8.282
  339POPC   C3A 8993  43.034  30.797   7.976
  339POPC   C4A 8994  43.049  30.603   7.539
  339POPC   C1B 8995  43.243  30.670   8.730
  339POPC   C2B 8996  43.396  30.638   8.292
  339POPC   C3B 8997  43.290  30.352   7.905
  339POPC   C4B 8998  43.388  30.230   7.440
  340POPC   NC3 8999  10.692  33.366   9.619
  340POPC   PO4 9000  10.488  34.025   9.739
  340POPC   GL1 9001  10.453  33.791   9.331
  340POPC   GL2 9002  10.770  33.792   9.131
  340POPC   C1A 9003  10.337  33.816   8.892
  340POPC   D2A 9004  10.294  33.942   8.493
  340POPC   C3A 9005  10.249  33.736   8.118
  340POPC   C4A 9006  10.438  33.920   7.753
  340POPC   C1B 9007  10.799  33.984   8.730
  340POPC   C2B 9008  10.732  33.816   8.308
  340POPC   C3B 9009  10.918  33.866   7.950
  340POPC   C4B 9010  10.892  33.928   7.513
  341POPC   NC3 9011  27.138   1.961   9.557
  341POPC   PO4 9012  26.576   1.750   9.473
  341POPC   GL1 9013  26.712   2.090   9.185
  341POPC   GL2 9014  26.399   2.325   9.177
  341POPC   C1A 9015  26.957   2.183   8.771
  341POPC   D2A 9016  26.833   2.318   8.329
  341POPC   C3A 9017  27.046   2.218   7.901
  341POPC   C4A 9018  27.090   1.900   7.524
  341POPC   C1B 9019  26.416   2.116   8.767
  341POPC   C2B 9020  26.243   2.015   8.363
  341POPC   C3B 9021  26.507   2.116   8.014
  341POPC   C4B 9022  26.640   2.115   7.598
  342POPC   NC3 9023  17.942  37.168   9.481
  342POPC   PO4 9024  17.533  36.578   9.601
  342POPC   GL1 9025  17.616  36.831   9.258
  342POPC   GL2 9026  17.408  37.098   9.321
  342POPC   C1A 9027  17.632  36.773   8.816
  342POPC   D2A 9028  17.408  36.862   8.439
  342POPC   C3A 9029  17.585  36.835   8.030
  342POPC   C4A 9030  17.697  36.749   7.651
  342POPC   C1B 9031  17.445  37.251   8.902
  342POPC   C2B 9032  17.199  37.369   8.553
  342POPC   C3B 9033  17.333  37.281   8.147
  342POPC   C4B 9034  17.387  37.204   7.709
  343POPC   NC3 9035  10.052   6.408   9.545
  343POPC   PO4 9036   9.498   6.781   9.512
  343POPC   GL1 9037   9.794   6.774   9.203
  343POPC   GL2 9038   9.715   6.437   9.136
  343POPC   C1A 9039   9.872   6.924   8.776
  343POPC   D2A 9040   9.830   6.691   8.403
  343POPC   C3A 9041   9.897   6.655   8.019
  343POPC   C4A 9042   9.750   6.855   7.683
  343POPC   C1B 9043   9.861   6.325   8.727
  343POPC   C2B 9044   9.950   6.149   8.310
  343POPC   C3B 9045  10.126   6.236   7.898
  343POPC   C4B 9046  10.035   6.442   7.529
  344POPC   NC3 9047   7.595  15.624   9.613
  344POPC   PO4 9048   7.383  14.954   9.559
  344POPC   GL1 9049   7.442  15.244   9.233
  344POPC   GL2 9050   7.220  15.024   9.076
  344POPC   C1A 9051   7.562  15.333   8.788
  344POPC   D2A 9052   7.784  15.155   8.409
  344POPC   C3A 9053   7.503  15.182   8.074
  344POPC   C4A 9054   7.474  15.442   7.715
  344POPC   C1B 9055   6.869  14.822   8.857
  344POPC   C2B 9056   6.981  14.577   8.496
  344POPC   C3B 9057   7.079  14.773   8.082
  344POPC   C4B 9058   7.259  14.902   7.688
  345POPC   NC3 9059   2.660  13.089   9.866
  345POPC   PO4 9060   2.491  12.593   9.405
  345POPC   GL1 9061   2.732  12.746   9.041
  345POPC   GL2 9062   3.014  12.981   9.149
  345POPC   C1A 9063   2.820  12.700   8.603
  345POPC   D2A 9064   2.783  12.644   8.216
  345POPC   C3A 9065   2.496  12.857   7.986
  345POPC   C4A 9066   2.273  12.634   7.735
  345POPC   C1B 9067   2.837  13.173   8.755
  345POPC   C2B 9068   2.870  13.137   8.292
  345POPC   C3B 9069   2.973  12.968   7.843
  345POPC   C4B 9070   2.714  12.960   7.445
  346POPC   NC3 9071  20.601  16.941   9.526
  346POPC   PO4 9072  20.625  16.432   9.291
  346POPC   GL1 9073  20.566  16.802   9.035
  346POPC   GL2 9074  20.252  16.926   9.088
  346POPC   C1A 9075  20.509  17.039   8.654
  346POPC   D2A 9076  20.707  16.942   8.290
  346POPC   C3A 9077  20.568  16.811   7.892
  346POPC   C4A 9078  20.843  16.939   7.551
  346POPC   C1B 9079  20.209  16.629   8.694
  346POPC   C2B 9080  20.345  16.476   8.269
  346POPC   C3B 9081  20.206  16.431   7.832
  346POPC   C4B 9082  19.985  16.438   7.422
  347POPC   NC3 9083   5.295  35.602   9.378
  347POPC   PO4 9084   5.203  35.039   9.778
  347POPC   GL1 9085   5.016  35.237   9.267
  347POPC   GL2 9086   5.241  35.143   9.064
  347POPC   C1A 9087   4.959  35.460   8.799
  347POPC   D2A 9088   4.709  35.483   8.397
  347POPC   C3A 9089   4.840  35.439   7.962
  347POPC   C4A 9090   4.809  35.060   7.745
  347POPC   C1B 9091   5.067  34.990   8.681
  347POPC   C2B 9092   5.150  35.143   8.293
  347POPC   C3B 9093   5.343  35.207   7.917
  347POPC   C4B 9094   5.332  35.646   7.855
  348POPC   NC3 9095   7.829  19.059   9.506
  348POPC   PO4 9096   8.482  19.170   9.519
  348POPC   GL1 9097   8.262  19.008   9.186
  348POPC   GL2 9098   8.375  19.275   9.008
  348POPC   C1A 9099   8.015  18.874   8.815
  348POPC   D2A 9100   8.198  18.689   8.422
  348POPC   C3A 9101   8.050  18.625   8.023
  348POPC   C4A 9102   8.073  18.858   7.632
  348POPC   C1B 9103   8.466  19.058   8.674
  348POPC   C2B 9104   8.419  19.117   8.255
  348POPC   C3B 9105   8.513  18.921   7.892
  348POPC   C4B 9106   8.494  19.215   7.597
  349POPC   NC3 9107  10.111  17.412   9.618
  349POPC   PO4 9108   9.596  17.843   9.520
  349POPC   GL1 9109   9.884  17.655   9.215
  349POPC   GL2 9110   9.643  17.386   9.170
  349POPC   C1A 9111   9.989  17.456   8.796
  349POPC   D2A 9112   9.700  17.319   8.477
  349POPC   C3A 9113   9.720  17.437   8.070
  349POPC   C4A 9114   9.942  17.414   7.708
  349POPC   C1B 9115   9.506  17.645   8.823
  349POPC   C2B 9116   9.270  17.643   8.436
  349POPC   C3B 9117   9.365  17.817   8.053
  349POPC   C4B 9118   9.504  17.695   7.669
  350POPC   NC3 9119  17.068  44.635   9.731
  350POPC   PO4 9120  16.551  44.981   9.524
  350POPC   GL1 9121  16.724  44.679   9.215
  350POPC   GL2 9122  17.073  44.575   9.231
  350POPC   C1A 9123  16.601  44.555   8.816
  350POPC   D2A 9124  16.394  44.792   8.485
  350POPC   C3A 9125  16.486  44.600   8.115
  350POPC   C4A 9126  16.465  44.723   7.720
  350POPC   C1B 9127  17.105  44.731   8.838
  350POPC   C2B 9128  16.936  44.751   8.415
  350POPC   C3B 9129  16.927  44.839   7.964
  350POPC   C4B 9130  16.960  44.488   7.667
  351POPC   NC3 9131  38.942  27.282   9.515
  351POPC   PO4 9132  38.464  26.825   9.627
  351POPC   GL1 9133  38.353  26.770   9.181
  351POPC   GL2 9134  38.214  27.121   9.146
  351POPC   C1A 9135  38.294  26.596   8.743
  351POPC   D2A 9136  38.615  26.657   8.409
  351POPC   C3A 9137  38.593  26.815   7.976
  351POPC   C4A 9138  38.430  26.687   7.568
  351POPC   C1B 9139  38.403  27.082   8.734
  351POPC   C2B 9140  38.209  26.957   8.327
  351POPC   C3B 9141  38.145  27.049   7.898
  351POPC   C4B 9142  38.392  27.180   7.527
  352POPC   NC3 9143  10.080  12.507   9.338
  352POPC   PO4 9144  10.634  12.783   9.629
  352POPC   GL1 9145  10.458  12.822   9.176
  352POPC   GL2 9146  10.252  13.119   9.075
  352POPC   C1A 9147  10.400  12.732   8.706
  352POPC   D2A 9148  10.375  12.488   8.303
  352POPC   C3A 9149  10.578  12.660   7.900
  352POPC   C4A 9150  10.840  13.045   7.792
  352POPC   C1B 9151  10.107  13.154   8.638
  352POPC   C2B 9152  10.317  13.004   8.241
  352POPC   C3B 9153  10.318  13.107   7.788
  352POPC   C4B 9154  10.093  13.210   7.393
  353POPC   NC3 9155  26.354  13.580   9.528
  353POPC   PO4 9156  25.942  14.023   9.792
  353POPC   GL1 9157  25.954  13.886   9.277
  353POPC   GL2 9158  25.701  14.084   9.163
  353POPC   C1A 9159  25.876  13.625   8.815
  353POPC   D2A 9160  25.734  13.635   8.335
  353POPC   C3A 9161  25.932  13.292   8.027
  353POPC   C4A 9162  26.127  13.422   7.633
  353POPC   C1B 9163  26.000  14.108   8.817
  353POPC   C2B 9164  26.081  14.022   8.393
  353POPC   C3B 9165  26.154  13.771   8.019
  353POPC   C4B 9166  26.279  13.916   7.587
  354POPC   NC3 9167   8.641   5.191   9.582
  354POPC   PO4 9168   9.250   5.093   9.623
  354POPC   GL1 9169   8.959   4.968   9.246
  354POPC   GL2 9170   8.925   5.312   9.156
  354POPC   C1A 9171   8.838   4.968   8.769
  354POPC   D2A 9172   8.873   4.832   8.316
  354POPC   C3A 9173   9.005   5.031   7.945
  354POPC   C4A 9174   9.335   4.945   7.634
  354POPC   C1B 9175   9.151   5.395   8.785
  354POPC   C2B 9176   9.137   5.274   8.371
  354POPC   C3B 9177   9.348   5.387   7.979
  354POPC   C4B 9178   9.244   5.477   7.547
  355POPC   NC3 9179  31.194  29.946   9.537
  355POPC   PO4 9180  30.545  29.759   9.615
  355POPC   GL1 9181  30.621  29.998   9.222
  355POPC   GL2 9182  30.385  29.773   9.036
  355POPC   C1A 9183  30.628  30.122   8.769
  355POPC   D2A 9184  30.395  29.862   8.468
  355POPC   C3A 9185  30.468  29.859   8.049
  355POPC   C4A 9186  30.570  30.194   7.790
  355POPC   C1B 9187  30.747  29.629   8.754
  355POPC   C2B 9188  30.941  29.764   8.387
  355POPC   C3B 9189  30.956  29.637   7.976
  355POPC   C4B 9190  30.673  29.573   7.671
  356POPC   NC3 9191  34.154  21.174   9.425
  356POPC   PO4 9192  33.485  21.081   9.430
  356POPC   GL1 9193  33.723  21.416   9.182
  356POPC   GL2 9194  33.550  21.751   9.059
  356POPC   C1A 9195  34.027  21.570   8.882
  356POPC   D2A 9196  34.102  21.387   8.500
  356POPC   C3A 9197  33.758  21.309   8.213
  356POPC   C4A 9198  33.911  21.267   7.810
  356POPC   C1B 9199  33.676  21.870   8.659
  356POPC   C2B 9200  33.879  21.803   8.261
  356POPC   C3B 9201  33.782  21.776   7.820
  356POPC   C4B 9202  33.449  21.809   7.527
  357POPC   NC3 9203  17.599  25.306   9.616
  357POPC   PO4 9204  17.203  24.696   9.633
  357POPC   GL1 9205  17.484  24.877   9.287
  357POPC   GL2 9206  17.283  24.838   8.990
  357POPC   C1A 9207  17.611  25.198   8.943
  357POPC   D2A 9208  17.496  25.157   8.497
  357POPC   C3A 9209  17.780  25.311   8.202
  357POPC   C4A 9210  17.802  25.339   7.792
  357POPC   C1B 9211  17.090  25.235   8.813
  357POPC   C2B 9212  17.018  25.400   8.386
  357POPC   C3B 9213  17.217  25.376   7.951
  357POPC   C4B 9214  17.149  25.100   7.559
  358POPC   NC3 9215  13.002  42.514   9.540
  358POPC   PO4 9216  12.637  41.823   9.513
  358POPC   GL1 9217  12.801  42.111   9.208
  358POPC   GL2 9218  12.640  42.454   9.174
  358POPC   C1A 9219  12.688  42.156   8.781
  358POPC   D2A 9220  12.886  41.995   8.437
  358POPC   C3A 9221  12.912  42.158   8.026
  358POPC   C4A 9222  13.165  42.206   7.675
  358POPC   C1B 9223  12.904  42.608   8.799
  358POPC   C2B 9224  13.038  42.519   8.368
  358POPC   C3B 9225  12.980  42.670   7.919
  358POPC   C4B 9226  12.994  43.068   7.660
  359POPC   NC3 9227  34.749  12.204   9.539
  359POPC   PO4 9228  34.529  11.574   9.527
  359POPC   GL1 9229  34.701  11.862   9.166
  359POPC   GL2 9230  34.502  12.200   9.094
  359POPC   C1A 9231  34.869  12.019   8.756
  359POPC   D2A 9232  35.089  11.988   8.334
  359POPC   C3A 9233  34.778  11.892   8.034
  359POPC   C4A 9234  34.532  12.123   7.750
  359POPC   C1B 9235  34.367  12.219   8.646
  359POPC   C2B 9236  34.497  12.344   8.219
  359POPC   C3B 9237  34.260  12.523   7.860
  359POPC   C4B 9238  34.067  12.230   7.520
  360POPC   NC3 9239  10.194  16.019   9.542
  360POPC   PO4 9240  10.793  15.611   9.544
  360POPC   GL1 9241  10.655  15.790   9.128
  360POPC   GL2 9242  10.307  15.901   9.071
  360POPC   C1A 9243  10.571  15.741   8.655
  360POPC   D2A 9244  10.196  15.728   8.430
  360POPC   C3A 9245  10.242  15.740   8.016
  360POPC   C4A 9246  10.612  15.721   7.783
  360POPC   C1B 9247  10.432  16.218   8.770
  360POPC   C2B 9248  10.503  16.150   8.325
  360POPC   C3B 9249  10.354  16.230   7.928
  360POPC   C4B 9250  10.341  16.057   7.519
  361POPC   NC3 9251  43.500   1.748   9.489
  361POPC   PO4 9252  43.689   2.387   9.662
  361POPC   GL1 9253  43.761   2.210   9.203
  361POPC   GL2 9254  43.627   1.898   9.032
  361POPC   C1A 9255  43.921   2.184   8.738
  361POPC   D2A 9256  44.115   2.152   8.306
  361POPC   C3A 9257  43.938   2.058   7.887
  361POPC   C4A 9258  44.267   1.891   7.605
  361POPC   C1B 9259  43.643   1.507   8.777
  361POPC   C2B 9260  43.758   1.578   8.349
  361POPC   C3B 9261  43.592   1.511   7.944
  361POPC   C4B 9262  43.614   1.679   7.528
  362POPC   NC3 9263  27.174  13.264   9.406
  362POPC   PO4 9264  26.822  13.683   9.799
  362POPC   GL1 9265  26.799  13.608   9.299
  362POPC   GL2 9266  27.057  13.691   9.105
  362POPC   C1A 9267  26.640  13.556   8.834
  362POPC   D2A 9268  26.674  13.336   8.390
  362POPC   C3A 9269  26.760  13.487   7.959
  362POPC   C4A 9270  26.652  13.526   7.531
  362POPC   C1B 9271  27.019  13.867   8.692
  362POPC   C2B 9272  27.058  13.686   8.307
  362POPC   C3B 9273  27.141  13.843   7.909
  362POPC   C4B 9274  27.122  13.718   7.427
  363POPC   NC3 9275  13.331  37.796   9.493
  363POPC   PO4 9276  13.687  37.252   9.532
  363POPC   GL1 9277  13.692  37.558   9.206
  363POPC   GL2 9278  13.338  37.443   9.144
  363POPC   C1A 9279  13.744  37.879   8.826
  363POPC   D2A 9280  13.548  37.888   8.388
  363POPC   C3A 9281  13.780  37.750   7.990
  363POPC   C4A 9282  13.649  37.840   7.524
  363POPC   C1B 9283  13.530  37.435   8.749
  363POPC   C2B 9284  13.730  37.415   8.414
  363POPC   C3B 9285  13.545  37.270   8.075
  363POPC   C4B 9286  13.527  37.395   7.702
  364POPC   NC3 9287  21.865  31.412   9.494
  364POPC   PO4 9288  22.281  30.965   9.563
  364POPC   GL1 9289  22.232  31.234   9.144
  364POPC   GL2 9290  21.924  31.440   9.009
  364POPC   C1A 9291  22.188  31.136   8.708
  364POPC   D2A 9292  22.367  31.128   8.314
  364POPC   C3A 9293  22.071  31.138   8.010
  364POPC   C4A 9294  22.079  31.247   7.607
  364POPC   C1B 9295  22.073  31.706   8.707
  364POPC   C2B 9296  22.177  31.629   8.291
  364POPC   C3B 9297  21.970  31.668   7.921
  364POPC   C4B 9298  21.770  31.692   7.514
  365POPC   NC3 9299   9.196  23.031   9.446
  365POPC   PO4 9300   8.575  22.820   9.627
  365POPC   GL1 9301   8.744  22.952   9.233
  365POPC   GL2 9302   8.844  22.613   9.222
  365POPC   C1A 9303   9.007  23.153   8.830
  365POPC   D2A 9304   8.969  23.325   8.402
  365POPC   C3A 9305   9.209  23.165   8.078
  365POPC   C4A 9306   9.033  23.123   7.676
  365POPC   C1B 9307   8.807  22.679   8.783
  365POPC   C2B 9308   8.976  22.804   8.385
  365POPC   C3B 9309   9.017  22.676   7.962
  365POPC   C4B 9310   8.873  22.669   7.525
  366POPC   NC3 9311  21.163  40.944   9.598
  366POPC   PO4 9312  21.600  40.499   9.465
  366POPC   GL1 9313  21.244  40.628   9.168
  366POPC   GL2 9314  21.301  41.005   9.103
  366POPC   C1A 9315  21.140  40.706   8.716
  366POPC   D2A 9316  21.350  41.044   8.486
  366POPC   C3A 9317  21.267  41.081   8.053
  366POPC   C4A 9318  21.159  40.739   7.747
  366POPC   C1B 9319  21.640  40.826   8.866
  366POPC   C2B 9320  21.754  40.708   8.450
  366POPC   C3B 9321  21.610  40.654   8.007
  366POPC   C4B 9322  21.657  40.960   7.679
  367POPC   NC3 9323  20.232  31.896   9.587
  367POPC   PO4 9324  19.839  32.426   9.524
  367POPC   GL1 9325  19.980  32.183   9.164
  367POPC   GL2 9326  20.168  31.893   9.094
  367POPC   C1A 9327  19.939  32.341   8.747
  367POPC   D2A 9328  19.647  32.294   8.421
  367POPC   C3A 9329  19.779  32.426   8.008
  367POPC   C4A 9330  19.732  32.378   7.563
  367POPC   C1B 9331  20.256  31.953   8.693
  367POPC   C2B 9332  20.072  32.045   8.311
  367POPC   C3B 9333  20.238  31.953   7.893
  367POPC   C4B 9334  20.090  32.008   7.481
  368POPC   NC3 9335  12.583  14.759   9.438
  368POPC   PO4 9336  12.029  15.084   9.613
  368POPC   GL1 9337  11.841  15.122   9.207
  368POPC   GL2 9338  11.822  15.465   9.198
  368POPC   C1A 9339  11.850  15.014   8.755
  368POPC   D2A 9340  11.937  15.285   8.375
  368POPC   C3A 9341  11.928  15.130   7.946
  368POPC   C4A 9342  11.873  14.913   7.559
  368POPC   C1B 9343  12.058  15.465   8.845
  368POPC   C2B 9344  12.327  15.566   8.541
  368POPC   C3B 9345  12.262  15.672   8.131
  368POPC   C4B 9346  12.245  15.490   7.735
  369POPC   NC3 9347  41.231   3.682   9.453
  369POPC   PO4 9348  41.871   3.493   9.462
  369POPC   GL1 9349  41.561   3.397   9.171
  369POPC   GL2 9350  41.583   3.752   9.086
  369POPC   C1A 9351  41.281   3.392   8.802
  369POPC   D2A 9352  41.172   3.620   8.422
  369POPC   C3A 9353  41.488   3.482   8.134
  369POPC   C4A 9354  41.547   3.319   7.717
  369POPC   C1B 9355  41.782   3.521   8.742
  369POPC   C2B 9356  42.047   3.574   8.409
  369POPC   C3B 9357  41.948   3.693   8.023
  369POPC   C4B 9358  41.778   3.772   7.613
  370POPC   NC3 9359   4.288  13.268   9.466
  370POPC   PO4 9360   4.521  12.646   9.505
  370POPC   GL1 9361   4.125  12.780   9.276
  370POPC   GL2 9362   4.096  13.095   9.058
  370POPC   C1A 9363   4.056  12.650   8.860
  370POPC   D2A 9364   4.267  12.437   8.535
  370POPC   C3A 9365   4.285  12.701   8.156
  370POPC   C4A 9366   4.145  12.901   7.768
  370POPC   C1B 9367   4.473  13.264   8.833
  370POPC   C2B 9368   4.616  13.111   8.458
  370POPC   C3B 9369   4.710  13.016   8.078
  370POPC   C4B 9370   4.613  13.121   7.725
  371POPC   NC3 9371  25.056  30.672   9.353
  371POPC   PO4 9372  25.622  30.685   9.719
  371POPC   GL1 9373  25.576  30.645   9.245
  371POPC   GL2 9374  25.459  30.988   9.193
  371POPC   C1A 9375  25.345  30.632   8.792
  371POPC   D2A 9376  25.447  30.482   8.377
  371POPC   C3A 9377  25.165  30.417   8.048
  371POPC   C4A 9378  25.088  30.666   7.674
  371POPC   C1B 9379  25.690  30.999   8.805
  371POPC   C2B 9380  25.473  31.002   8.426
  371POPC   C3B 9381  25.280  30.980   8.039
  371POPC   C4B 9382  25.469  31.028   7.653
  372POPC   NC3 9383  29.622   5.688   9.755
  372POPC   PO4 9384  29.082   5.869   9.429
  372POPC   GL1 9385  29.076   5.666   9.082
  372POPC   GL2 9386  28.933   5.973   8.962
  372POPC   C1A 9387  29.119   5.631   8.643
  372POPC   D2A 9388  28.968   5.913   8.325
  372POPC   C3A 9389  29.115   5.764   7.930
  372POPC   C4A 9390  29.454   5.911   7.689
  372POPC   C1B 9391  28.757   6.276   8.713
  372POPC   C2B 9392  29.004   6.438   8.387
  372POPC   C3B 9393  29.185   6.280   8.013
  372POPC   C4B 9394  28.997   6.152   7.630
  373POPC   NC3 9395  21.857  37.892   9.573
  373POPC   PO4 9396  22.572  37.756   9.785
  373POPC   GL1 9397  22.303  37.904   9.344
  373POPC   GL2 9398  22.105  37.643   9.177
  373POPC   C1A 9399  22.369  38.002   8.882
  373POPC   D2A 9400  22.361  37.689   8.546
  373POPC   C3A 9401  22.285  37.818   8.118
  373POPC   C4A 9402  22.432  37.642   7.713
  373POPC   C1B 9403  21.921  37.774   8.816
  373POPC   C2B 9404  21.860  37.556   8.434
  373POPC   C3B 9405  22.149  37.333   8.168
  373POPC   C4B 9406  22.139  37.219   7.725
  374POPC   NC3 9407  18.894  34.245   9.499
  374POPC   PO4 9408  18.773  34.807   9.399
  374POPC   GL1 9409  18.988  34.576   9.075
  374POPC   GL2 9410  19.279  34.357   9.161
  374POPC   C1A 9411  18.893  34.537   8.632
  374POPC   D2A 9412  18.773  34.795   8.242
  374POPC   C3A 9413  18.964  34.671   7.828
  374POPC   C4A 9414  19.290  34.617   7.502
  374POPC   C1B 9415  19.381  34.546   8.746
  374POPC   C2B 9416  19.280  34.600   8.306
  374POPC   C3B 9417  19.493  34.672   7.965
  374POPC   C4B 9418  19.548  34.997   7.706
  375POPC   NC3 9419  21.995  44.315   9.414
  375POPC   PO4 9420  21.831  43.670   9.554
  375POPC   GL1 9421  22.029  43.544   9.188
  375POPC   GL2 9422  22.275  43.790   9.203
  375POPC   C1A 9423  21.963  43.612   8.746
  375POPC   D2A 9424  21.840  43.443   8.339
  375POPC   C3A 9425  22.073  43.655   7.994
  375POPC   C4A 9426  22.001  43.927   7.637
  375POPC   C1B 9427  22.247  44.037   8.828
  375POPC   C2B 9428  22.327  43.993   8.391
  375POPC   C3B 9429  22.184  44.201   8.020
  375POPC   C4B 9430  21.926  44.447   7.742
  376POPC   NC3 9431  18.449  21.489   9.586
  376POPC   PO4 9432  17.840  21.663   9.421
  376POPC   GL1 9433  18.170  21.423   9.141
  376POPC   GL2 9434  18.530  21.300   9.115
  376POPC   C1A 9435  18.114  21.378   8.734
  376POPC   D2A 9436  18.304  21.593   8.412
  376POPC   C3A 9437  18.208  21.415   8.016
  376POPC   C4A 9438  18.246  21.617   7.660
  376POPC   C1B 9439  18.681  21.358   8.687
  376POPC   C2B 9440  18.535  21.145   8.296
  376POPC   C3B 9441  18.565  21.038   7.852
  376POPC   C4B 9442  18.748  21.109   7.412
  377POPC   NC3 9443  27.524   9.487   9.371
  377POPC   PO4 9444  27.980  10.012   9.480
  377POPC   GL1 9445  27.706   9.928   9.153
  377POPC   GL2 9446  27.344   9.964   9.170
  377POPC   C1A 9447  27.601   9.790   8.756
  377POPC   D2A 9448  27.454   9.760   8.379
  377POPC   C3A 9449  27.709   9.712   8.034
  377POPC   C4A 9450  27.622   9.490   7.672
  377POPC   C1B 9451  27.088   9.887   8.768
  377POPC   C2B 9452  27.024  10.017   8.305
  377POPC   C3B 9453  27.191   9.816   7.933
  377POPC   C4B 9454  27.476   9.999   7.669
  378POPC   NC3 9455  22.532  33.074   9.564
  378POPC   PO4 9456  23.272  32.911   9.393
  378POPC   GL1 9457  22.879  32.795   9.220
  378POPC   GL2 9458  22.859  33.127   9.183
  378POPC   C1A 9459  22.701  32.898   8.792
  378POPC   D2A 9460  22.918  33.155   8.513
  378POPC   C3A 9461  22.821  33.151   8.106
  378POPC   C4A 9462  22.931  32.849   7.827
  378POPC   C1B 9463  23.143  33.409   8.918
  378POPC   C2B 9464  23.152  33.608   8.498
  378POPC   C3B 9465  23.289  33.342   8.166
  378POPC   C4B 9466  23.218  33.318   7.768
  379POPC   NC3 9467  34.247  19.558   9.580
  379POPC   PO4 9468  34.724  20.005   9.380
  379POPC   GL1 9469  34.550  19.839   9.038
  379POPC   GL2 9470  34.357  19.576   9.103
  379POPC   C1A 9471  34.655  19.657   8.674
  379POPC   D2A 9472  34.718  19.951   8.365
  379POPC   C3A 9473  34.486  19.976   8.009
  379POPC   C4A 9474  34.844  19.854   7.815
  379POPC   C1B 9475  34.111  19.546   8.746
  379POPC   C2B 9476  34.245  19.672   8.358
  379POPC   C3B 9477  34.277  19.465   7.972
  379POPC   C4B 9478  34.336  19.672   7.611
  380POPC   NC3 9479  22.283  39.582   9.766
  380POPC   PO4 9480  21.925  39.038   9.513
  380POPC   GL1 9481  22.121  39.241   9.178
  380POPC   GL2 9482  21.866  39.478   9.110
  380POPC   C1A 9483  22.342  39.055   8.794
  380POPC   D2A 9484  22.179  38.798   8.428
  380POPC   C3A 9485  22.360  38.828   8.006
  380POPC   C4A 9486  22.221  38.951   7.588
  380POPC   C1B 9487  22.033  39.462   8.700
  380POPC   C2B 9488  22.223  39.317   8.310
  380POPC   C3B 9489  22.473  39.339   7.924
  380POPC   C4B 9490  22.460  39.370   7.440
  381POPC   NC3 9491   8.307   0.646   9.539
  381POPC   PO4 9492   7.767   0.301   9.288
  381POPC   GL1 9493   8.230   0.275   9.168
  381POPC   GL2 9494   8.409   0.604   9.059
  381POPC   C1A 9495   8.462   0.176   8.794
  381POPC   D2A 9496   8.399   0.406   8.424
  381POPC   C3A 9497   8.433   0.243   8.033
  381POPC   C4A 9498   8.459   0.645   7.840
  381POPC   C1B 9499   8.068   0.564   8.772
  381POPC   C2B 9500   7.978   0.736   8.355
  381POPC   C3B 9501   7.960   0.782   7.911
  381POPC   C4B 9502   8.091   0.868   7.488
  382POPC   NC3 9503  30.713  29.427   9.356
  382POPC   PO4 9504  30.334  28.957   9.586
  382POPC   GL1 9505  30.608  28.987   9.167
  382POPC   GL2 9506  30.347  29.264   9.066
  382POPC   C1A 9507  30.750  29.104   8.713
  382POPC   D2A 9508  31.001  29.229   8.314
  382POPC   C3A 9509  30.860  29.104   7.890
  382POPC   C4A 9510  30.836  28.759   7.560
  382POPC   C1B 9511  30.286  29.392   8.674
  382POPC   C2B 9512  30.509  29.389   8.295
  382POPC   C3B 9513  30.283  29.385   7.926
  382POPC   C4B 9514  30.026  29.381   7.590
  383POPC   NC3 9515  20.944  38.292   9.656
  383POPC   PO4 9516  20.365  38.715   9.527
  383POPC   GL1 9517  20.472  38.568   9.137
  383POPC   GL2 9518  20.816  38.432   9.179
  383POPC   C1A 9519  20.250  38.549   8.734
  383POPC   D2A 9520  20.062  38.519   8.343
  383POPC   C3A 9521  20.285  38.497   7.988
  383POPC   C4A 9522  20.312  38.270   7.637
  383POPC   C1B 9523  20.817  38.588   8.761
  383POPC   C2B 9524  20.648  38.614   8.352
  383POPC   C3B 9525  20.789  38.469   7.939
  383POPC   C4B 9526  21.087  38.522   7.623
  384POPC   NC3 9527  12.235  17.151   9.638
  384POPC   PO4 9528  12.186  17.816   9.710
  384POPC   GL1 9529  12.046  17.550   9.361
  384POPC   GL2 9530  12.362  17.550   9.210
  384POPC   C1A 9531  11.931  17.554   8.894
  384POPC   D2A 9532  11.875  17.350   8.467
  384POPC   C3A 9533  11.867  17.623   8.103
  384POPC   C4A 9534  11.806  17.519   7.666
  384POPC   C1B 9535  12.458  17.431   8.771
  384POPC   C2B 9536  12.479  17.173   8.406
  384POPC   C3B 9537  12.288  17.313   8.039
  384POPC   C4B 9538  12.320  17.583   7.677
  385POPC   NC3 9539  29.496   6.013   9.267
  385POPC   PO4 9540  30.045   5.700   9.545
  385POPC   GL1 9541  30.017   5.850   9.128
  385POPC   GL2 9542  29.935   6.183   9.020
  385POPC   C1A 9543  29.928   5.764   8.707
  385POPC   D2A 9544  30.125   5.886   8.345
  385POPC   C3A 9545  29.941   5.717   8.008
  385POPC   C4A 9546  30.026   5.802   7.624
  385POPC   C1B 9547  29.609   6.172   8.660
  385POPC   C2B 9548  29.599   6.051   8.225
  385POPC   C3B 9549  29.823   6.210   7.865
  385POPC   C4B 9550  29.795   6.166   7.370
  386POPC   NC3 9551  21.082  36.136   9.663
  386POPC   PO4 9552  21.484  35.680   9.420
  386POPC   GL1 9553  21.444  36.015   9.134
  386POPC   GL2 9554  21.301  36.344   9.249
  386POPC   C1A 9555  21.689  36.151   8.772
  386POPC   D2A 9556  21.785  35.940   8.390
  386POPC   C3A 9557  21.694  36.128   7.992
  386POPC   C4A 9558  21.424  36.008   7.644
  386POPC   C1B 9559  21.236  36.380   8.821
  386POPC   C2B 9560  21.278  36.183   8.428
  386POPC   C3B 9561  21.234  36.324   8.035
  386POPC   C4B 9562  20.986  36.257   7.714
  387POPC   NC3 9563  29.130  34.849   9.330
  387POPC   PO4 9564  29.591  34.334   9.492
  387POPC   GL1 9565  29.399  34.405   9.079
  387POPC   GL2 9566  29.036  34.462   8.982
  387POPC   C1A 9567  29.370  34.394   8.617
  387POPC   D2A 9568  29.509  34.424   8.204
  387POPC   C3A 9569  29.184  34.635   8.009
  387POPC   C4A 9570  28.920  34.696   7.667
  387POPC   C1B 9571  28.904  34.215   8.623
  387POPC   C2B 9572  28.787  34.409   8.227
  387POPC   C3B 9573  28.735  34.246   7.810
  387POPC   C4B 9574  28.794  34.302   7.359
  388POPC   NC3 9575  15.415  40.589   9.533
  388POPC   PO4 9576  14.855  40.927   9.540
  388POPC   GL1 9577  15.123  40.861   9.205
  388POPC   GL2 9578  14.853  40.884   9.018
  388POPC   C1A 9579  15.241  40.589   8.843
  388POPC   D2A 9580  15.389  40.687   8.428
  388POPC   C3A 9581  15.254  40.465   8.068
  388POPC   C4A 9582  15.063  40.612   7.719
  388POPC   C1B 9583  14.992  40.990   8.606
  388POPC   C2B 9584  14.908  40.860   8.177
  388POPC   C3B 9585  14.855  41.067   7.763
  388POPC   C4B 9586  14.960  41.209   7.378
  389POPC   NC3 9587  36.158  19.085   9.530
  389POPC   PO4 9588  36.873  19.145   9.648
  389POPC   GL1 9589  37.028  19.157   9.221
  389POPC   GL2 9590  36.984  18.860   9.121
  389POPC   C1A 9591  37.152  19.276   8.828
  389POPC   D2A 9592  36.950  19.116   8.470
  389POPC   C3A 9593  36.981  19.082   8.019
  389POPC   C4A 9594  36.741  19.134   7.673
  389POPC   C1B 9595  36.758  18.715   8.733
  389POPC   C2B 9596  36.584  18.816   8.311
  389POPC   C3B 9597  36.763  18.617   7.963
  389POPC   C4B 9598  36.570  18.662   7.583
  390POPC   NC3 9599  20.550  42.752   9.355
  390POPC   PO4 9600  20.891  43.338   9.479
  390POPC   GL1 9601  20.732  43.384   9.108
  390POPC   GL2 9602  20.772  43.047   9.004
  390POPC   C1A 9603  20.592  43.402   8.708
  390POPC   D2A 9604  20.735  43.091   8.430
  390POPC   C3A 9605  20.534  43.211   8.089
  390POPC   C4A 9606  20.734  43.149   7.713
  390POPC   C1B 9607  20.396  42.941   8.774
  390POPC   C2B 9608  20.253  42.840   8.378
  390POPC   C3B 9609  20.060  42.989   8.038
  390POPC   C4B 9610  20.213  43.101   7.654
  391POPC   NC3 9611  33.439  32.041   9.546
  391POPC   PO4 9612  34.066  31.957   9.586
  391POPC   GL1 9613  34.064  32.157   9.140
  391POPC   GL2 9614  33.705  32.238   9.093
  391POPC   C1A 9615  34.045  32.536   8.855
  391POPC   D2A 9616  33.883  32.701   8.465
  391POPC   C3A 9617  34.021  32.570   8.084
  391POPC   C4A 9618  33.837  32.448   7.697
  391POPC   C1B 9619  33.836  31.912   8.778
  391POPC   C2B 9620  33.738  31.901   8.366
  391POPC   C3B 9621  33.624  32.192   8.084
  391POPC   C4B 9622  33.576  32.012   7.709
  392POPC   NC3 9623  30.297  39.100   9.371
  392POPC   PO4 9624  30.939  39.188   9.589
  392POPC   GL1 9625  30.780  39.194   9.193
  392POPC   GL2 9626  30.761  39.540   9.038
  392POPC   C1A 9627  30.962  39.144   8.794
  392POPC   D2A 9628  30.859  39.416   8.456
  392POPC   C3A 9629  30.949  39.164   8.104
  392POPC   C4A 9630  30.832  38.898   7.773
  392POPC   C1B 9631  30.463  39.292   8.771
  392POPC   C2B 9632  30.545  39.016   8.427
  392POPC   C3B 9633  30.411  39.122   8.026
  392POPC   C4B 9634  30.629  39.407   7.759
  393POPC   NC3 9635  35.951  17.314   9.296
  393POPC   PO4 9636  36.106  16.637   9.553
  393POPC   GL1 9637  36.160  16.605   9.094
  393POPC   GL2 9638  36.193  16.932   9.090
  393POPC   C1A 9639  36.113  16.590   8.599
  393POPC   D2A 9640  35.840  16.538   8.224
  393POPC   C3A 9641  35.970  16.557   7.802
  393POPC   C4A 9642  36.218  16.234   7.669
  393POPC   C1B 9643  36.008  17.071   8.698
  393POPC   C2B 9644  36.011  17.004   8.262
  393POPC   C3B 9645  36.254  16.989   7.903
  393POPC   C4B 9646  35.980  17.177   7.652
  394POPC   NC3 9647  11.407  23.171   9.575
  394POPC   PO4 9648  11.125  22.770   9.323
  394POPC   GL1 9649  11.257  22.854   9.007
  394POPC   GL2 9650  11.533  22.994   9.099
  394POPC   C1A 9651  11.078  22.832   8.642
  394POPC   D2A 9652  11.150  22.643   8.290
  394POPC   C3A 9653  11.024  22.875   7.968
  394POPC   C4A 9654  11.142  22.976   7.583
  394POPC   C1B 9655  11.620  22.883   8.663
  394POPC   C2B 9656  11.587  22.943   8.211
  394POPC   C3B 9657  11.580  23.085   7.794
  394POPC   C4B 9658  11.693  23.095   7.336
  395POPC   NC3 9659  27.114   5.280   9.885
  395POPC   PO4 9660  27.596   4.811   9.595
  395POPC   GL1 9661  27.598   5.004   9.181
  395POPC   GL2 9662  27.492   4.785   8.939
  395POPC   C1A 9663  27.644   5.288   8.814
  395POPC   D2A 9664  27.891   5.245   8.458
  395POPC   C3A 9665  27.788   5.325   8.055
  395POPC   C4A 9666  27.701   5.079   7.706
  395POPC   C1B 9667  27.469   4.883   8.538
  395POPC   C2B 9668  27.488   4.569   8.270
  395POPC   C3B 9669  27.695   4.617   7.875
  395POPC   C4B 9670  27.690   4.644   7.394
  396POPC   NC3 9671  37.046  35.624   9.351
  396POPC   PO4 9672  36.870  35.044   9.460
  396POPC   GL1 9673  37.019  35.193   9.072
  396POPC   GL2 9674  36.735  35.420   8.961
  396POPC   C1A 9675  37.194  35.441   8.750
  396POPC   D2A 9676  37.149  35.740   8.417
  396POPC   C3A 9677  37.016  35.497   8.079
  396POPC   C4A 9678  37.161  35.339   7.691
  396POPC   C1B 9679  36.743  35.357   8.503
  396POPC   C2B 9680  36.732  35.083   8.162
  396POPC   C3B 9681  36.711  35.009   7.720
  396POPC   C4B 9682  36.549  34.727   7.398
  397POPC   NC3 9683  10.785   9.107   9.361
  397POPC   PO4 9684  10.166   8.852   9.479
  397POPC   GL1 9685  10.397   8.772   9.095
  397POPC   GL2 9686  10.754   8.711   9.014
  397POPC   C1A 9687  10.423   8.738   8.652
  397POPC   D2A 9688  10.708   8.794   8.331
  397POPC   C3A 9689  10.392   8.913   8.046
  397POPC   C4A 9690  10.175   8.858   7.667
  397POPC   C1B 9691  10.750   9.123   8.729
  397POPC   C2B 9692  10.735   9.318   8.319
  397POPC   C3B 9693  10.844   9.145   7.927
  397POPC   C4B 9694  10.843   9.298   7.514
  398POPC   NC3 9695  18.865  35.257   9.454
  398POPC   PO4 9696  19.575  35.186   9.522
  398POPC   GL1 9697  19.270  35.031   9.221
  398POPC   GL2 9698  19.221  35.385   9.136
  398POPC   C1A 9699  19.202  35.007   8.772
  398POPC   D2A 9700  19.428  35.083   8.396
  398POPC   C3A 9701  19.182  35.076   8.042
  398POPC   C4A 9702  19.187  35.345   7.657
  398POPC   C1B 9703  18.888  35.394   8.806
  398POPC   C2B 9704  18.899  35.318   8.416
  398POPC   C3B 9705  18.888  35.478   8.044
  398POPC   C4B 9706  18.716  35.143   7.795
  399POPC   NC3 9707  13.134  25.468   9.632
  399POPC   PO4 9708  12.742  25.057   9.821
  399POPC   GL1 9709  12.750  25.107   9.342
  399POPC   GL2 9710  13.099  25.046   9.236
  399POPC   C1A 9711  12.749  25.058   8.846
  399POPC   D2A 9712  12.949  24.956   8.428
  399POPC   C3A 9713  12.900  25.316   8.138
  399POPC   C4A 9714  12.538  25.411   7.840
  399POPC   C1B 9715  13.250  25.315   8.883
  399POPC   C2B 9716  13.350  25.303   8.436
  399POPC   C3B 9717  13.378  25.443   8.004
  399POPC   C4B 9718  13.077  25.652   7.785
  400POPC   NC3 9719  31.170  37.791   9.453
  400POPC   PO4 9720  31.806  37.498   9.389
  400POPC   GL1 9721  31.506  37.667   9.092
  400POPC   GL2 9722  31.219  37.404   9.135
  400POPC   C1A 9723  31.479  37.863   8.660
  400POPC   D2A 9724  31.224  37.801   8.276
  400POPC   C3A 9725  31.387  37.970   7.879
  400POPC   C4A 9726  31.475  37.729   7.487
  400POPC   C1B 9727  31.364  37.348   8.716
  400POPC   C2B 9728  31.282  37.254   8.290
  400POPC   C3B 9729  31.371  37.432   7.899
  400POPC   C4B 9730  31.126  37.382   7.532
  401POPC   NC3 9731  18.358   2.358   9.457
  401POPC   PO4 9732  18.045   2.939   9.531
  401POPC   GL1 9733  18.121   2.718   9.159
  401POPC   GL2 9734  18.431   2.867   9.095
  401POPC   C1A 9735  18.281   2.586   8.730
  401POPC   D2A 9736  18.312   2.826   8.361
  401POPC   C3A 9737  18.264   2.638   7.978
  401POPC   C4A 9738  18.069   2.621   7.569
  401POPC   C1B 9739  18.587   3.094   8.728
  401POPC   C2B 9740  18.581   3.250   8.278
  401POPC   C3B 9741  18.656   3.036   7.872
  401POPC   C4B 9742  18.733   2.596   7.802
  402POPC   NC3 9743   4.946  12.518   9.398
  402POPC   PO4 9744   5.358  13.140   9.491
  402POPC   GL1 9745   5.084  12.984   9.121
  402POPC   GL2 9746   4.717  13.021   9.206
  402POPC   C1A 9747   5.105  12.911   8.639
  402POPC   D2A 9748   5.158  13.182   8.256
  402POPC   C3A 9749   5.243  12.991   7.867
  402POPC   C4A 9750   5.259  12.705   7.530
  402POPC   C1B 9751   4.618  12.747   8.828
  402POPC   C2B 9752   4.729  12.598   8.399
  402POPC   C3B 9753   4.885  12.557   7.959
  402POPC   C4B 9754   4.564  12.616   7.652
  403POPC   NC3 9755  37.492  20.167   9.502
  403POPC   PO4 9756  37.950  20.705   9.651
  403POPC   GL1 9757  37.756  20.619   9.232
  403POPC   GL2 9758  37.469  20.784   9.085
  403POPC   C1A 9759  37.883  20.719   8.800
  403POPC   D2A 9760  38.133  20.814   8.435
  403POPC   C3A 9761  37.848  20.857   8.076
  403POPC   C4A 9762  37.700  20.621   7.723
  403POPC   C1B 9763  37.381  21.007   8.742
  403POPC   C2B 9764  37.388  20.862   8.351
  403POPC   C3B 9765  37.244  20.995   7.976
  403POPC   C4B 9766  37.311  20.905   7.584
  404POPC   NC3 9767  38.096  37.242   9.544
  404POPC   PO4 9768  38.520  36.803   9.699
  404POPC   GL1 9769  38.432  36.866   9.266
  404POPC   GL2 9770  38.732  37.031   9.263
  404POPC   C1A 9771  38.442  36.723   8.819
  404POPC   D2A 9772  38.217  36.730   8.408
  404POPC   C3A 9773  38.396  36.869   7.996
  404POPC   C4A 9774  38.434  36.884   7.523
  404POPC   C1B 9775  38.714  37.172   8.839
  404POPC   C2B 9776  38.656  37.046   8.411
  404POPC   C3B 9777  38.809  37.166   7.988
  404POPC   C4B 9778  38.976  37.539   7.815
  405POPC   NC3 9779  36.532  32.346   9.390
  405POPC   PO4 9780  36.054  31.968   9.400
  405POPC   GL1 9781  36.247  32.087   9.068
  405POPC   GL2 9782  36.114  32.415   8.982
  405POPC   C1A 9783  36.443  32.059   8.709
  405POPC   D2A 9784  36.279  32.376   8.449
  405POPC   C3A 9785  36.363  32.320   8.031
  405POPC   C4A 9786  36.069  32.442   7.772
  405POPC   C1B 9787  35.927  32.095   8.677
  405POPC   C2B 9788  35.852  32.172   8.236
  405POPC   C3B 9789  35.931  31.967   7.837
  405POPC   C4B 9790  35.895  32.096   7.398
  406POPC   NC3 9791  20.831   2.137   9.888
  406POPC   PO4 9792  20.319   2.141   9.621
  406POPC   GL1 9793  20.458   1.914   9.267
  406POPC   GL2 9794  20.588   1.600   9.205
  406POPC   C1A 9795  20.437   1.878   8.807
  406POPC   D2A 9796  20.701   1.852   8.434
  406POPC   C3A 9797  20.559   2.013   8.026
  406POPC   C4A 9798  20.304   2.371   7.803
  406POPC   C1B 9799  20.856   1.538   8.821
  406POPC   C2B 9800  20.845   1.348   8.407
  406POPC   C3B 9801  20.810   1.513   7.985
  406POPC   C4B 9802  20.773   1.585   7.532
  407POPC   NC3 9803  20.696   9.758   9.452
  407POPC   PO4 9804  20.241   9.232   9.384
  407POPC   GL1 9805  20.309   9.562   9.095
  407POPC   GL2 9806  20.377   9.927   9.108
  407POPC   C1A 9807  20.592   9.588   8.747
  407POPC   D2A 9808  20.631   9.844   8.365
  407POPC   C3A 9809  20.769   9.532   8.078
  407POPC   C4A 9810  20.762   9.477   7.645
  407POPC   C1B 9811  20.244   9.949   8.702
  407POPC   C2B 9812  20.136  10.164   8.343
  407POPC   C3B 9813  20.142   9.913   8.009
  407POPC   C4B 9814  20.531   9.902   7.808
  408POPC   NC3 9815  37.112  42.528   9.498
  408POPC   PO4 9816  37.793  42.449   9.492
  408POPC   GL1 9817  37.708  42.392   9.079
  408POPC   GL2 9818  37.398  42.178   9.010
  408POPC   C1A 9819  37.980  42.353   8.733
  408POPC   D2A 9820  37.930  42.373   8.304
  408POPC   C3A 9821  37.673  42.052   8.111
  408POPC   C4A 9822  37.765  42.135   7.713
  408POPC   C1B 9823  37.278  42.608   8.868
  408POPC   C2B 9824  37.216  42.789   8.472
  408POPC   C3B 9825  37.440  42.546   8.175
  408POPC   C4B 9826  37.326  42.338   7.794
  409POPC   NC3 9827  24.789  19.578   9.319
  409POPC   PO4 9828  25.233  19.782   9.843
  409POPC   GL1 9829  25.156  19.931   9.368
  409POPC   GL2 9830  25.452  20.089   9.188
  409POPC   C1A 9831  25.057  19.993   8.908
  409POPC   D2A 9832  25.091  19.660   8.593
  409POPC   C3A 9833  24.980  19.884   8.233
  409POPC   C4A 9834  25.143  19.859   7.820
  409POPC   C1B 9835  25.540  19.852   8.787
  409POPC   C2B 9836  25.507  19.807   8.312
  409POPC   C3B 9837  25.616  19.538   7.966
  409POPC   C4B 9838  25.546  19.526   7.523
  410POPC   NC3 9839   4.661  39.409   9.403
  410POPC   PO4 9840   4.045  39.038   9.546
  410POPC   GL1 9841   3.979  39.219   9.153
  410POPC   GL2 9842   4.184  39.507   9.198
  410POPC   C1A 9843   4.108  39.066   8.723
  410POPC   D2A 9844   4.257  38.859   8.343
  410POPC   C3A 9845   4.276  39.077   7.994
  410POPC   C4A 9846   4.044  39.138   7.625
  410POPC   C1B 9847   4.108  39.605   8.764
  410POPC   C2B 9848   4.137  39.422   8.350
  410POPC   C3B 9849   4.145  39.575   7.925
  410POPC   C4B 9850   4.351  39.546   7.523
  411POPC   NC3 9851  30.634  41.331   9.606
  411POPC   PO4 9852  30.896  41.895   9.547
  411POPC   GL1 9853  30.701  41.638   9.219
  411POPC   GL2 9854  30.368  41.630   9.288
  411POPC   C1A 9855  30.752  41.344   8.845
  411POPC   D2A 9856  30.977  41.394   8.434
  411POPC   C3A 9857  30.906  41.253   8.011
  411POPC   C4A 9858  30.987  41.570   7.706
  411POPC   C1B 9859  30.245  41.426   8.894
  411POPC   C2B 9860  30.397  41.348   8.459
  411POPC   C3B 9861  30.420  41.557   8.056
  411POPC   C4B 9862  30.505  41.396   7.688
  412POPC   NC3 9863  15.590  10.870   9.439
  412POPC   PO4 9864  15.711  10.153   9.499
  412POPC   GL1 9865  15.836  10.312   9.116
  412POPC   GL2 9866  15.883  10.628   9.131
  412POPC   C1A 9867  15.964  10.403   8.692
  412POPC   D2A 9868  15.846  10.495   8.325
  412POPC   C3A 9869  15.977  10.287   7.959
  412POPC   C4A 9870  15.997  10.453   7.519
  412POPC   C1B 9871  16.137  10.851   8.868
  412POPC   C2B 9872  16.139  10.884   8.452
  412POPC   C3B 9873  16.041  10.843   7.999
  412POPC   C4B 9874  15.827  10.961   7.635
  413POPC   NC3 9875  11.964  12.994   9.578
  413POPC   PO4 9876  12.618  12.873   9.779
  413POPC   GL1 9877  12.363  12.770   9.340
  413POPC   GL2 9878  12.278  13.054   9.114
  413POPC   C1A 9879  12.135  12.628   8.918
  413POPC   D2A 9880  12.175  12.853   8.501
  413POPC   C3A 9881  12.229  12.632   8.104
  413POPC   C4A 9882  12.216  12.827   7.722
  413POPC   C1B 9883  11.884  13.116   8.875
  413POPC   C2B 9884  11.821  13.209   8.421
  413POPC   C3B 9885  11.799  12.964   8.015
  413POPC   C4B 9886  11.779  13.169   7.594
  414POPC   NC3 9887  22.275  42.388   9.473
  414POPC   PO4 9888  21.667  41.933   9.423
  414POPC   GL1 9889  21.938  42.244   9.123
  414POPC   GL2 9890  22.202  42.541   9.004
  414POPC   C1A 9891  21.860  42.388   8.686
  414POPC   D2A 9892  22.090  42.535   8.310
  414POPC   C3A 9893  21.917  42.527   7.882
  414POPC   C4A 9894  21.843  42.511   7.428
  414POPC   C1B 9895  22.444  42.385   8.676
  414POPC   C2B 9896  22.642  42.514   8.314
  414POPC   C3B 9897  22.456  42.588   7.929
  414POPC   C4B 9898  22.331  42.560   7.525
  415POPC   NC3 9899  12.556  21.437   9.491
  415POPC   PO4 9900  13.221  21.578   9.691
  415POPC   GL1 9901  13.017  21.573   9.275
  415POPC   GL2 9902  13.017  21.225   9.173
  415POPC   C1A 9903  13.064  21.579   8.812
  415POPC   D2A 9904  13.062  21.302   8.451
  415POPC   C3A 9905  13.162  21.441   8.022
  415POPC   C4A 9906  12.815  21.461   7.714
  415POPC   C1B 9907  12.708  21.130   8.823
  415POPC   C2B 9908  12.573  20.916   8.413
  415POPC   C3B 9909  12.358  21.037   8.040
  415POPC   C4B 9910  12.504  21.077   7.628
  416POPC   NC3 9911  22.716  35.890   9.434
  416POPC   PO4 9912  22.759  36.553   9.511
  416POPC   GL1 9913  22.815  36.296   9.166
  416POPC   GL2 9914  23.141  36.189   9.201
  416POPC   C1A 9915  22.792  36.098   8.780
  416POPC   D2A 9916  22.840  36.313   8.402
  416POPC   C3A 9917  22.774  36.006   8.092
  416POPC   C4A 9918  22.870  36.165   7.719
  416POPC   C1B 9919  23.293  35.938   8.842
  416POPC   C2B 9920  23.173  35.956   8.423
  416POPC   C3B 9921  23.272  35.940   7.968
  416POPC   C4B 9922  23.256  35.892   7.529
  417POPC   NC3 9923   2.114  36.889   9.953
  417POPC   PO4 9924   2.277  36.659   9.350
  417POPC   GL1 9925   1.966  36.713   9.037
  417POPC   GL2 9926   2.197  36.968   8.933
  417POPC   C1A 9927   1.741  36.957   8.744
  417POPC   D2A 9928   1.836  36.904   8.348
  417POPC   C3A 9929   1.746  37.101   8.004
  417POPC   C4A 9930   1.820  36.833   7.723
  417POPC   C1B 9931   2.279  36.822   8.623
  417POPC   C2B 9932   2.301  37.100   8.343
  417POPC   C3B 9933   2.227  36.914   8.019
  417POPC   C4B 9934   2.268  37.189   7.727
  418POPC   NC3 9935   2.689  41.943   9.550
  418POPC   PO4 9936   2.697  41.323   9.517
  418POPC   GL1 9937   2.737  41.594   9.152
  418POPC   GL2 9938   2.395  41.715   9.164
  418POPC   C1A 9939   2.843  41.707   8.705
  418POPC   D2A 9940   2.739  41.489   8.301
  418POPC   C3A 9941   2.819  41.741   7.906
  418POPC   C4A 9942   2.988  41.481   7.591
  418POPC   C1B 9943   2.384  41.505   8.762
  418POPC   C2B 9944   2.236  41.638   8.387
  418POPC   C3B 9945   2.246  41.402   8.072
  418POPC   C4B 9946   2.557  41.327   7.792
  419POPC   NC3 9947  11.519   2.709   9.883
  419POPC   PO4 9948  11.000   2.875   9.495
  419POPC   GL1 9949  11.408   2.965   9.261
  419POPC   GL2 9950  11.181   2.831   9.000
  419POPC   C1A 9951  11.631   2.964   8.832
  419POPC   D2A 9952  11.371   2.941   8.437
  419POPC   C3A 9953  11.573   2.855   8.033
  419POPC   C4A 9954  11.577   2.681   7.599
  419POPC   C1B 9955  10.961   2.628   8.654
  419POPC   C2B 9956  11.057   2.512   8.221
  419POPC   C3B 9957  11.124   2.699   7.817
  419POPC   C4B 9958  11.094   2.607   7.358
  420POPC   NC3 9959  27.720  18.239   9.862
  420POPC   PO4 9960  27.746  18.684   9.366
  420POPC   GL1 9961  27.684  18.417   9.090
  420POPC   GL2 9962  27.519  18.145   9.290
  420POPC   C1A 9963  27.841  18.447   8.682
  420POPC   D2A 9964  27.572  18.581   8.353
  420POPC   C3A 9965  27.696  18.583   7.923
  420POPC   C4A 9966  27.713  18.433   7.512
  420POPC   C1B 9967  27.610  17.982   8.867
  420POPC   C2B 9968  27.553  18.084   8.463
  420POPC   C3B 9969  27.459  18.150   8.038
  420POPC   C4B 9970  27.534  17.950   7.658
  421POPC   NC3 9971  17.319   0.265   9.479
  421POPC   PO4 9972  17.315   0.833   9.734
  421POPC   GL1 9973  17.686   0.558   9.335
  421POPC   GL2 9974  17.500   0.361   9.027
  421POPC   C1A 9975  17.845   0.687   8.870
  421POPC   D2A 9976  17.579   0.527   8.517
  421POPC   C3A 9977  17.678   0.509   8.092
  421POPC   C4A 9978  17.732   0.724   7.719
  421POPC   C1B 9979  17.233   0.198   8.702
  421POPC   C2B 9980  17.341   0.065   8.316
  421POPC   C3B 9981  17.217   0.291   8.001
  421POPC   C4B 9982  17.162   0.183   7.616
  422POPC   NC3 9983   0.377  10.248   9.711
  422POPC   PO4 9984   0.172  10.816   9.500
  422POPC   GL1 9985   0.351  10.640   9.126
  422POPC   GL2 9986   0.684  10.528   9.146
  422POPC   C1A 9987   0.220  10.542   8.717
  422POPC   D2A 9988   0.467  10.675   8.395
  422POPC   C3A 9989   0.630  10.502   8.066
  422POPC   C4A 9990   0.376  10.449   7.697
  422POPC   C1B 9991   0.708  10.332   8.740
  422POPC   C2B 9992   0.423  10.124   8.449
  422POPC   C3B 9993   0.419  10.034   8.013
  422POPC   C4B 9994   0.808  10.154   7.743
  423POPC   NC3 9995  19.202  22.644   9.307
  423POPC   PO4 9996  18.534  22.646   9.453
  423POPC   GL1 9997  18.788  22.884   9.118
  423POPC   GL2 9998  18.917  23.254   9.179
  423POPC   C1A 9999  19.028  22.960   8.734
  423POPC   D2A10000  18.918  23.118   8.328
  423POPC   C3A10001  19.012  22.891   7.946
  423POPC   C4A10002  19.338  22.613   7.848
  423POPC   C1B10003  18.989  23.469   8.789
  423POPC   C2B10004  18.774  23.599   8.410
  423POPC   C3B10005  18.855  23.453   7.948
  423POPC   C4B10006  18.784  23.167   7.572
  424POPC   NC310007  30.384  42.506   9.241
  424POPC   PO410008  30.958  42.764   9.504
  424POPC   GL110009  30.864  42.512   9.093
  424POPC   GL210010  30.737  42.150   9.132
  424POPC   C1A10011  30.763  42.286   8.649
  424POPC   D2A10012  30.399  42.281   8.329
  424POPC   C3A10013  30.472  42.425   7.874
  424POPC   C4A10014  30.720  42.383   7.484
  424POPC   C1B10015  30.512  41.880   8.839
  424POPC   C2B10016  30.637  41.812   8.436
  424POPC   C3B10017  30.726  41.993   8.046
  424POPC   C4B10018  30.584  41.914   7.655
  425POPC   NC310019  37.873  40.157   9.608
  425POPC   PO410020  37.721  39.530   9.297
  425POPC   GL110021  37.872  39.909   9.145
  425POPC   GL210022  38.172  40.001   9.216
  425POPC   C1A10023  37.870  40.143   8.767
  425POPC   D2A10024  37.625  39.939   8.443
  425POPC   C3A10025  37.693  40.065   8.045
  425POPC   C4A10026  37.381  40.239   7.757
  425POPC   C1B10027  38.297  39.859   8.812
  425POPC   C2B10028  38.138  39.812   8.419
  425POPC   C3B10029  38.065  39.616   8.039
  425POPC   C4B10030  37.864  39.673   7.670
  426POPC   NC310031  38.417  18.143   9.472
  426POPC   PO410032  38.488  18.784   9.356
  426POPC   GL110033  38.375  18.451   9.065
  426POPC   GL210034  38.700  18.381   9.089
  426POPC   C1A10035  38.213  18.383   8.658
  426POPC   D2A10036  38.490  18.428   8.298
  426POPC   C3A10037  38.442  18.091   8.058
  426POPC   C4A10038  38.264  18.125   7.667
  426POPC   C1B10039  38.695  18.186   8.704
  426POPC   C2B10040  38.908  18.074   8.351
  426POPC   C3B10041  38.927  18.324   8.029
  426POPC   C4B10042  38.746  18.278   7.683
  427POPC   NC310043  16.917   3.152   9.548
  427POPC   PO410044  16.605   3.800   9.455
  427POPC   GL110045  16.682   3.459   9.104
  427POPC   GL210046  16.993   3.227   9.051
  427POPC   C1A10047  16.497   3.546   8.675
  427POPC   D2A10048  16.403   3.711   8.221
  427POPC   C3A10049  16.294   3.561   7.822
  427POPC   C4A10050  16.379   3.380   7.428
  427POPC   C1B10051  16.887   3.211   8.606
  427POPC   C2B10052  16.881   3.578   8.320
  427POPC   C3B10053  16.866   3.595   7.890
  427POPC   C4B10054  17.047   3.173   7.820
  428POPC   NC310055  13.354  26.727   9.810
  428POPC   PO410056  12.727  26.747   9.843
  428POPC   GL110057  13.014  26.583   9.404
  428POPC   GL210058  13.197  26.841   9.242
  428POPC   C1A10059  12.981  26.540   8.871
  428POPC   D2A10060  13.015  26.428   8.407
  428POPC   C3A10061  12.867  26.666   8.048
  428POPC   C4A10062  12.775  26.887   7.686
  428POPC   C1B10063  13.065  27.088   8.860
  428POPC   C2B10064  13.156  26.974   8.406
  428POPC   C3B10065  13.230  27.039   7.982
  428POPC   C4B10066  13.044  27.335   7.711
  429POPC   NC310067   6.576   8.016   9.307
  429POPC   PO410068   6.527   8.630   9.597
  429POPC   GL110069   6.343   8.461   9.104
  429POPC   GL210070   6.572   8.525   8.776
  429POPC   C1A10071   6.281   8.150   8.687
  429POPC   D2A10072   6.569   7.950   8.393
  429POPC   C3A10073   6.660   8.233   8.061
  429POPC   C4A10074   6.501   8.061   7.709
  429POPC   C1B10075   6.918   8.288   8.562
  429POPC   C2B10076   7.133   8.520   8.320
  429POPC   C3B10077   7.013   8.637   7.924
  429POPC   C4B10078   6.841   8.428   7.555
  430POPC   NC310079  30.372   6.319   9.559
  430POPC   PO410080  29.665   6.333   9.537
  430POPC   GL110081  29.708   6.615   9.157
  430POPC   GL210082  30.085   6.655   9.199
  430POPC   C1A10083  29.878   6.612   8.729
  430POPC   D2A10084  29.992   6.380   8.371
  430POPC   C3A10085  29.953   6.684   8.063
  430POPC   C4A10086  29.884   6.641   7.619
  430POPC   C1B10087  30.294   6.876   8.853
  430POPC   C2B10088  30.094   7.023   8.492
  430POPC   C3B10089  30.165   7.257   8.141
  430POPC   C4B10090  30.283   6.997   7.792
  431POPC   NC310091  37.931  17.794   9.367
  431POPC   PO410092  37.446  17.404   9.548
  431POPC   GL110093  37.694  17.399   9.179
  431POPC   GL210094  37.416  17.550   9.051
  431POPC   C1A10095  37.753  17.291   8.727
  431POPC   D2A10096  37.560  17.502   8.315
  431POPC   C3A10097  37.660  17.379   7.869
  431POPC   C4A10098  37.606  17.388   7.397
  431POPC   C1B10099  37.684  17.779   8.746
  431POPC   C2B10100  37.832  17.969   8.386
  431POPC   C3B10101  37.974  17.850   8.010
  431POPC   C4B10102  37.875  17.776   7.600
  432POPC   NC310103  24.880  26.816   9.705
  432POPC   PO410104  24.262  26.603   9.454
  432POPC   GL110105  24.517  26.929   9.294
  432POPC   GL210106  24.785  26.724   9.220
  432POPC   C1A10107  24.577  27.041   8.860
  432POPC   D2A10108  24.659  27.069   8.412
  432POPC   C3A10109  24.361  26.938   8.098
  432POPC   C4A10110  24.282  26.793   7.663
  432POPC   C1B10111  24.629  26.529   8.854
  432POPC   C2B10112  24.767  26.547   8.459
  432POPC   C3B10113  24.856  26.743   8.056
  432POPC   C4B10114  24.762  26.627   7.651
  433POPC   NC310115  42.741   8.197   9.329
  433POPC   PO410116  42.088   8.025   9.383
  433POPC   GL110117  42.310   8.417   9.177
  433POPC   GL210118  42.111   8.615   8.994
  433POPC   C1A10119  42.608   8.444   8.768
  433POPC   D2A10120  42.733   8.035   8.544
  433POPC   C3A10121  42.688   8.012   8.071
  433POPC   C4A10122  42.330   7.889   7.815
  433POPC   C1B10123  42.141   8.249   8.729
  433POPC   C2B10124  42.329   8.334   8.352
  433POPC   C3B10125  42.354   8.387   7.960
  433POPC   C4B10126  42.160   8.332   7.553
  434POPC   NC310127  33.518  18.709   9.788
  434POPC   PO410128  33.731  19.312   9.517
  434POPC   GL110129  33.915  19.223   9.110
  434POPC   GL210130  34.057  18.913   9.109
  434POPC   C1A10131  33.750  19.101   8.688
  434POPC   D2A10132  33.956  19.240   8.334
  434POPC   C3A10133  33.778  19.392   7.972
  434POPC   C4A10134  33.946  19.325   7.568
  434POPC   C1B10135  34.163  18.808   8.693
  434POPC   C2B10136  34.051  18.737   8.333
  434POPC   C3B10137  33.936  18.896   7.938
  434POPC   C4B10138  33.754  18.804   7.554
  435POPC   NC310139   9.201  17.943   9.305
  435POPC   PO410140   8.637  17.549   9.490
  435POPC   GL110141   8.707  17.391   9.110
  435POPC   GL210142   9.084  17.386   9.150
  435POPC   C1A10143   8.818  17.554   8.722
  435POPC   D2A10144   8.783  17.445   8.294
  435POPC   C3A10145   8.916  17.620   7.917
  435POPC   C4A10146   9.065  17.507   7.494
  435POPC   C1B10147   9.214  17.228   8.766
  435POPC   C2B10148   9.223  17.139   8.333
  435POPC   C3B10149   9.286  17.224   7.887
  435POPC   C4B10150   9.213  16.897   7.558
  436POPC   NC310151  13.042   8.413   9.371
  436POPC   PO410152  13.308   7.777   9.500
  436POPC   GL110153  12.949   7.885   9.119
  436POPC   GL210154  12.750   8.208   9.028
  436POPC   C1A10155  12.878   7.925   8.640
  436POPC   D2A10156  12.984   8.222   8.295
  436POPC   C3A10157  13.088   8.153   7.861
  436POPC   C4A10158  12.896   8.373   7.566
  436POPC   C1B10159  12.638   8.394   8.667
  436POPC   C2B10160  12.457   8.103   8.386
  436POPC   C3B10161  12.558   8.159   7.964
  436POPC   C4B10162  12.433   8.505   7.717
  437POPC   NC310163  11.375  16.953   9.591
  437POPC   PO410164  11.412  16.269   9.484
  437POPC   GL110165  11.398  16.625   9.182
  437POPC   GL210166  11.047  16.764   9.201
  437POPC   C1A10167  11.614  16.737   8.782
  437POPC   D2A10168  11.537  16.921   8.378
  437POPC   C3A10169  11.276  16.803   8.042
  437POPC   C4A10170  11.331  16.629   7.636
  437POPC   C1B10171  11.093  16.913   8.758
  437POPC   C2B10172  10.902  17.082   8.362
  437POPC   C3B10173  10.959  17.224   7.926
  437POPC   C4B10174  11.098  17.067   7.480
  438POPC   NC310175  42.273  33.880   9.650
  438POPC   PO410176  42.593  33.351   9.422
  438POPC   GL110177  42.309  33.623   9.178
  438POPC   GL210178  42.561  33.887   9.101
  438POPC   C1A10179  42.056  33.874   8.864
  438POPC   D2A10180  41.875  34.067   8.463
  438POPC   C3A10181  41.996  33.906   8.031
  438POPC   C4A10182  42.194  33.620   7.708
  438POPC   C1B10183  42.495  33.647   8.692
  438POPC   C2B10184  42.412  33.687   8.245
  438POPC   C3B10185  42.594  33.883   7.865
  438POPC   C4B10186  42.586  33.779   7.421
  439POPC   NC310187  17.612   2.761   9.482
  439POPC   PO410188  16.975   2.711   9.672
  439POPC   GL110189  17.161   2.717   9.237
  439POPC   GL210190  17.408   2.453   9.135
  439POPC   C1A10191  17.349   2.901   8.838
  439POPC   D2A10192  17.586   2.944   8.473
  439POPC   C3A10193  17.289   2.861   8.153
  439POPC   C4A10194  17.270   2.706   7.742
  439POPC   C1B10195  17.764   2.574   8.818
  439POPC   C2B10196  17.893   2.531   8.367
  439POPC   C3B10197  17.770   2.759   7.987
  439POPC   C4B10198  17.763   3.073   7.661
  440POPC   NC310199  21.895  28.255   9.592
  440POPC   PO410200  22.469  28.351   9.233
  440POPC   GL110201  22.053  28.492   9.112
  440POPC   GL210202  21.925  28.191   9.102
  440POPC   C1A10203  21.991  28.448   8.648
  440POPC   D2A10204  22.329  28.334   8.362
  440POPC   C3A10205  22.214  28.304   7.949
  440POPC   C4A10206  22.384  28.484   7.623
  440POPC   C1B10207  21.631  28.117   8.821
  440POPC   C2B10208  21.540  28.191   8.413
  440POPC   C3B10209  21.772  28.062   8.084
  440POPC   C4B10210  21.965  27.903   7.725
  441POPC   NC310211  38.818  29.479   9.369
  441POPC   PO410212  39.214  29.975   9.628
  441POPC   GL110213  39.246  30.045   9.186
  441POPC   GL210214  39.437  29.762   9.116
  441POPC   C1A10215  39.049  30.054   8.788
  441POPC   D2A10216  39.023  30.272   8.404
  441POPC   C3A10217  39.065  29.995   8.050
  441POPC   C4A10218  39.140  29.951   7.627
  441POPC   C1B10219  39.514  29.816   8.726
  441POPC   C2B10220  39.258  29.674   8.408
  441POPC   C3B10221  39.387  29.558   8.010
  441POPC   C4B10222  39.554  29.587   7.599
  442POPC   NC310223   6.273  27.415   9.555
  442POPC   PO410224   5.731  27.615   9.579
  442POPC   GL110225   5.951  27.650   9.173
  442POPC   GL210226   5.964  27.300   9.135
  442POPC   C1A10227   5.955  27.866   8.751
  442POPC   D2A10228   5.659  27.822   8.400
  442POPC   C3A10229   5.766  27.858   7.953
  442POPC   C4A10230   5.509  28.092   7.655
  442POPC   C1B10231   5.990  27.364   8.677
  442POPC   C2B10232   6.073  27.541   8.246
  442POPC   C3B10233   6.056  27.430   7.784
  442POPC   C4B10234   6.065  27.311   7.324
  443POPC   NC310235  44.189  37.951   9.844
  443POPC   PO410236  43.755  37.454   9.814
  443POPC   GL110237  43.826  37.594   9.363
  443POPC   GL210238  44.126  37.464   9.312
  443POPC   C1A10239  44.030  37.820   8.952
  443POPC   D2A10240  44.300  37.892   8.552
  443POPC   C3A10241  44.064  37.893   8.141
  443POPC   C4A10242  43.679  37.956   7.884
  443POPC   C1B10243  43.959  37.313   8.899
  443POPC   C2B10244  44.076  37.410   8.469
  443POPC   C3B10245  43.917  37.346   8.052
  443POPC   C4B10246  44.015  37.591   7.700
  444POPC   NC310247  37.363  37.227   9.279
  444POPC   PO410248  37.915  36.845   9.389
  444POPC   GL110249  37.719  36.928   9.057
  444POPC   GL210250  37.519  36.628   9.091
  444POPC   C1A10251  37.774  36.798   8.672
  444POPC   D2A10252  37.602  36.666   8.341
  444POPC   C3A10253  37.878  36.806   8.013
  444POPC   C4A10254  38.046  37.180   7.806
  444POPC   C1B10255  37.240  36.711   8.744
  444POPC   C2B10256  37.075  36.675   8.343
  444POPC   C3B10257  37.301  36.742   7.948
  444POPC   C4B10258  37.533  37.126   7.786
  445POPC   NC310259   8.335   7.889   9.521
  445POPC   PO410260   8.280   8.473   9.416
  445POPC   GL110261   8.092   8.199   9.149
  445POPC   GL210262   8.297   8.310   8.864
  445POPC   C1A10263   7.864   8.077   8.783
  445POPC   D2A10264   8.048   8.083   8.365
  445POPC   C3A10265   8.182   8.257   7.983
  445POPC   C4A10266   7.859   8.283   7.700
  445POPC   C1B10267   8.498   8.018   8.564
  445POPC   C2B10268   8.394   7.731   8.214
  445POPC   C3B10269   8.491   7.848   7.795
  445POPC   C4B10270   8.521   8.206   7.536
  446POPC   NC310271  39.420  33.258   9.792
  446POPC   PO410272  39.433  33.998   9.565
  446POPC   GL110273  39.457  34.022   9.134
  446POPC   GL210274  39.237  33.735   9.128
  446POPC   C1A10275  39.204  34.031   8.717
  446POPC   D2A10276  38.926  33.847   8.381
  446POPC   C3A10277  39.121  33.919   7.996
  446POPC   C4A10278  39.417  34.245   7.847
  446POPC   C1B10279  38.908  33.576   8.827
  446POPC   C2B10280  38.952  33.317   8.456
  446POPC   C3B10281  38.982  33.382   8.034
  446POPC   C4B10282  39.177  33.453   7.656
  447POPC   NC310283  34.314  17.740   9.352
  447POPC   PO410284  34.837  17.354   9.647
  447POPC   GL110285  34.479  17.209   9.203
  447POPC   GL210286  34.246  17.439   8.965
  447POPC   C1A10287  34.568  17.215   8.661
  447POPC   D2A10288  34.789  17.375   8.249
  447POPC   C3A10289  34.625  17.285   7.818
  447POPC   C4A10290  34.331  17.453   7.489
  447POPC   C1B10291  34.465  17.803   8.716
  447POPC   C2B10292  34.803  17.950   8.425
  447POPC   C3B10293  34.883  17.836   7.991
  447POPC   C4B10294  34.688  17.788   7.611
  448POPC   NC310295   6.915  31.713   9.485
  448POPC   PO410296   7.556  31.424   9.309
  448POPC   GL110297   7.402  31.517   8.952
  448POPC   GL210298   7.071  31.583   9.004
  448POPC   C1A10299   7.438  31.691   8.560
  448POPC   D2A10300   7.742  31.598   8.265
  448POPC   C3A10301   7.659  31.536   7.829
  448POPC   C4A10302   7.798  31.482   7.386
  448POPC   C1B10303   7.133  31.261   8.644
  448POPC   C2B10304   7.276  31.285   8.231
  448POPC   C3B10305   7.169  31.325   7.813
  448POPC   C4B10306   7.292  31.452   7.411
  449POPC   NC310307  34.032  30.084   9.304
  449POPC   PO410308  34.484  29.778   9.614
  449POPC   GL110309  34.597  29.790   9.200
  449POPC   GL210310  34.908  29.597   9.179
  449POPC   C1A10311  34.420  29.924   8.796
  449POPC   D2A10312  34.176  29.938   8.456
  449POPC   C3A10313  34.245  30.160   8.096
  449POPC   C4A10314  34.365  29.919   7.745
  449POPC   C1B10315  34.885  29.761   8.749
  449POPC   C2B10316  34.719  29.862   8.331
  449POPC   C3B10317  34.823  29.761   7.898
  449POPC   C4B10318  34.997  29.731   7.448
  450POPC   NC310319  16.948   8.283   9.569
  450POPC   PO410320  16.358   8.049   9.728
  450POPC   GL110321  16.559   8.126   9.288
  450POPC   GL210322  16.672   8.445   9.174
  450POPC   C1A10323  16.736   8.042   8.858
  450POPC   D2A10324  16.835   8.239   8.493
  450POPC   C3A10325  16.619   8.164   8.123
  450POPC   C4A10326  16.474   8.024   7.747
  450POPC   C1B10327  17.083   8.441   8.945
  450POPC   C2B10328  17.169   8.606   8.542
  450POPC   C3B10329  17.134   8.441   8.113
  450POPC   C4B10330  17.022   8.171   7.764
  451POPC   NC310331  11.919   3.097   9.432
  451POPC   PO410332  11.770   2.452   9.603
  451POPC   GL110333  11.817   2.647   9.184
  451POPC   GL210334  12.158   2.754   9.155
  451POPC   C1A10335  11.971   2.545   8.744
  451POPC   D2A10336  12.222   2.633   8.366
  451POPC   C3A10337  12.002   2.540   7.983
  451POPC   C4A10338  12.087   2.649   7.572
  451POPC   C1B10339  12.162   3.031   8.779
  451POPC   C2B10340  11.916   3.004   8.407
  451POPC   C3B10341  12.098   3.042   8.022
  451POPC   C4B10342  11.872   3.085   7.698
  452POPC   NC310343  10.963  44.062   9.365
  452POPC   PO410344  11.551  44.194   9.674
  452POPC   GL110345  11.384  43.754   9.310
  452POPC   GL210346  11.031  43.609   9.157
  452POPC   C1A10347  11.442  43.696   8.828
  452POPC   D2A10348  11.539  43.981   8.471
  452POPC   C3A10349  11.321  43.870   8.128
  452POPC   C4A10350  11.376  43.713   7.694
  452POPC   C1B10351  10.966  43.781   8.715
  452POPC   C2B10352  10.890  43.623   8.291
  452POPC   C3B10353  10.908  43.731   7.860
  452POPC   C4B10354  10.953  43.949   7.450
  453POPC   NC310355  42.059  29.499   9.332
  453POPC   PO410356  42.036  30.144   9.536
  453POPC   GL110357  42.241  29.939   9.119
  453POPC   GL210358  42.625  29.870   9.086
  453POPC   C1A10359  42.073  29.940   8.700
  453POPC   D2A10360  42.108  30.262   8.388
  453POPC   C3A10361  42.282  30.114   7.967
  453POPC   C4A10362  42.205  29.731   7.747
  453POPC   C1B10363  42.513  30.175   8.740
  453POPC   C2B10364  42.537  29.994   8.394
  453POPC   C3B10365  42.584  29.688   8.100
  453POPC   C4B10366  42.703  29.797   7.706
  454POPC   NC310367  26.240  22.430   9.276
  454POPC   PO410368  26.446  23.057   9.435
  454POPC   GL110369  26.304  22.895   9.079
  454POPC   GL210370  25.927  22.974   9.130
  454POPC   C1A10371  26.157  22.919   8.671
  454POPC   D2A10372  25.960  22.908   8.290
  454POPC   C3A10373  26.235  22.874   7.951
  454POPC   C4A10374  26.333  22.519   7.752
  454POPC   C1B10375  25.754  23.281   8.790
  454POPC   C2B10376  25.744  23.389   8.300
  454POPC   C3B10377  25.817  23.158   7.871
  454POPC   C4B10378  25.775  22.665   7.829
  455POPC   NC310379   2.306  17.837   9.420
  455POPC   PO410380   1.571  17.680   9.487
  455POPC   GL110381   1.866  17.564   9.176
  455POPC   GL210382   2.013  17.223   9.207
  455POPC   C1A10383   1.834  17.447   8.745
  455POPC   D2A10384   2.103  17.255   8.418
  455POPC   C3A10385   1.959  17.466   8.064
  455POPC   C4A10386   1.577  17.422   7.831
  455POPC   C1B10387   2.312  17.397   8.883
  455POPC   C2B10388   2.309  17.698   8.543
  455POPC   C3B10389   2.464  17.610   8.148
  455POPC   C4B10390   2.283  17.704   7.747
  456POPC   NC310391  34.540  15.393   9.437
  456POPC   PO410392  35.053  15.637   9.297
  456POPC   GL110393  34.771  15.388   8.985
  456POPC   GL210394  34.597  15.072   9.037
  456POPC   C1A10395  34.715  15.249   8.567
  456POPC   D2A10396  34.989  15.098   8.243
  456POPC   C3A10397  34.986  15.418   7.921
  456POPC   C4A10398  34.748  15.300   7.536
  456POPC   C1B10399  34.353  14.905   8.708
  456POPC   C2B10400  34.464  14.917   8.271
  456POPC   C3B10401  34.449  15.181   7.935
  456POPC   C4B10402  34.341  14.996   7.539
  457POPC   NC310403  38.226  42.309   9.586
  457POPC   PO410404  38.840  42.299   9.579
  457POPC   GL110405  38.571  42.401   9.221
  457POPC   GL210406  38.301  42.155   9.121
  457POPC   C1A10407  38.457  42.555   8.804
  457POPC   D2A10408  38.523  42.771   8.418
  457POPC   C3A10409  38.332  42.611   8.064
  457POPC   C4A10410  38.684  42.370   7.938
  457POPC   C1B10411  38.501  42.048   8.741
  457POPC   C2B10412  38.428  42.202   8.345
  457POPC   C3B10413  38.226  42.109   7.937
  457POPC   C4B10414  38.130  41.821   7.574
  458POPC   NC310415   4.520  41.961   9.477
  458POPC   PO410416   4.046  42.482   9.368
  458POPC   GL110417   4.231  42.159   9.085
  458POPC   GL210418   4.510  42.322   8.976
  458POPC   C1A10419   4.303  42.013   8.640
  458POPC   D2A10420   4.402  42.389   8.460
  458POPC   C3A10421   4.402  42.432   8.031
  458POPC   C4A10422   4.300  42.190   7.701
  458POPC   C1B10423   4.782  42.634   8.710
  458POPC   C2B10424   4.758  42.751   8.299
  458POPC   C3B10425   4.819  42.700   7.874
  458POPC   C4B10426   4.659  42.527   7.498
  459POPC   NC310427  32.968  24.153   9.631
  459POPC   PO410428  33.616  24.395   9.582
  459POPC   GL110429  33.484  24.370   9.172
  459POPC   GL210430  33.174  24.459   9.265
  459POPC   C1A10431  33.317  24.399   8.745
  459POPC   D2A10432  33.270  24.626   8.360
  459POPC   C3A10433  33.346  24.361   7.968
  459POPC   C4A10434  33.258  24.145   7.546
  459POPC   C1B10435  32.852  24.412   8.972
  459POPC   C2B10436  32.819  24.408   8.515
  459POPC   C3B10437  32.848  24.477   8.079
  459POPC   C4B10438  32.836  24.375   7.654
  460POPC   NC310439  40.511  21.944   9.559
  460POPC   PO410440  40.835  21.406   9.755
  460POPC   GL110441  40.715  21.391   9.274
  460POPC   GL210442  40.492  21.571   9.155
  460POPC   C1A10443  40.892  21.475   8.817
  460POPC   D2A10444  41.257  21.541   8.493
  460POPC   C3A10445  41.109  21.508   8.076
  460POPC   C4A10446  40.792  21.233   7.881
  460POPC   C1B10447  40.370  21.444   8.750
  460POPC   C2B10448  40.272  21.290   8.352
  460POPC   C3B10449  40.341  21.477   7.943
  460POPC   C4B10450  40.656  21.714   7.721
  461POPC   NC310451   1.693   2.788   9.495
  461POPC   PO410452   2.226   2.685   9.400
  461POPC   GL110453   1.971   2.775   9.034
  461POPC   GL210454   1.766   3.082   9.067
  461POPC   C1A10455   2.051   2.617   8.599
  461POPC   D2A10456   2.208   2.484   8.186
  461POPC   C3A10457   2.106   2.711   7.819
  461POPC   C4A10458   1.746   2.817   7.618
  461POPC   C1B10459   1.998   3.128   8.657
  461POPC   C2B10460   1.946   2.968   8.227
  461POPC   C3B10461   1.955   3.212   7.822
  461POPC   C4B10462   2.096   3.109   7.376
  462POPC   NC310463  12.857  13.201   9.976
  462POPC   PO410464  13.064  12.829   9.444
  462POPC   GL110465  12.835  12.821   9.121
  462POPC   GL210466  13.072  12.862   8.916
  462POPC   C1A10467  12.597  12.792   8.778
  462POPC   D2A10468  12.652  12.635   8.388
  462POPC   C3A10469  12.903  12.843   8.084
  462POPC   C4A10470  12.726  12.819   7.686
  462POPC   C1B10471  13.312  13.192   8.759
  462POPC   C2B10472  13.150  13.396   8.422
  462POPC   C3B10473  13.185  13.292   7.995
  462POPC   C4B10474  13.169  13.065   7.609
  463POPC   NC310475  23.002  15.026   9.506
  463POPC   PO410476  22.428  15.419   9.499
  463POPC   GL110477  22.655  15.127   9.134
  463POPC   GL210478  23.035  15.110   9.022
  463POPC   C1A10479  22.694  15.205   8.665
  463POPC   D2A10480  22.876  15.365   8.289
  463POPC   C3A10481  22.954  15.091   7.953
  463POPC   C4A10482  22.713  15.019   7.599
  463POPC   C1B10483  23.230  15.238   8.665
  463POPC   C2B10484  23.372  15.238   8.257
  463POPC   C3B10485  23.291  15.490   7.921
  463POPC   C4B10486  23.154  15.299   7.536
  464POPC   NC310487  22.001  18.969   9.429
  464POPC   PO410488  22.589  19.184   9.481
  464POPC   GL110489  22.588  19.083   9.065
  464POPC   GL210490  22.250  18.949   9.000
  464POPC   C1A10491  22.445  19.266   8.671
  464POPC   D2A10492  22.278  19.002   8.338
  464POPC   C3A10493  22.326  19.207   7.945
  464POPC   C4A10494  22.069  19.304   7.611
  464POPC   C1B10495  21.893  18.860   8.695
  464POPC   C2B10496  21.779  18.942   8.256
  464POPC   C3B10497  21.903  18.842   7.856
  464POPC   C4B10498  21.795  18.869   7.416
  465POPC   NC310499  41.581  23.504   9.837
  465POPC   PO410500  41.659  24.057   9.498
  465POPC   GL110501  41.582  23.727   9.146
  465POPC   GL210502  41.660  23.385   9.199
  465POPC   C1A10503  41.579  23.736   8.682
  465POPC   D2A10504  41.552  24.058   8.352
  465POPC   C3A10505  41.259  23.917   8.039
  465POPC   C4A10506  41.409  23.659   7.694
  465POPC   C1B10507  41.918  23.386   8.834
  465POPC   C2B10508  41.808  23.307   8.403
  465POPC   C3B10509  41.773  23.630   8.099
  465POPC   C4B10510  41.997  23.671   7.717
  466POPC   NC310511  20.928  26.763   9.518
  466POPC   PO410512  20.431  26.374   9.582
  466POPC   GL110513  20.534  26.601   9.203
  466POPC   GL210514  20.560  26.967   9.204
  466POPC   C1A10515  20.725  26.557   8.809
  466POPC   D2A10516  20.599  26.701   8.419
  466POPC   C3A10517  20.874  26.779   8.084
  466POPC   C4A10518  20.971  26.937   7.681
  466POPC   C1B10519  20.619  27.098   8.765
  466POPC   C2B10520  20.807  27.217   8.368
  466POPC   C3B10521  20.668  27.261   7.920
  466POPC   C4B10522  20.287  27.264   7.674
  467POPC   NC310523  10.201   2.021   9.348
  467POPC   PO410524   9.582   2.228   9.483
  467POPC   GL110525   9.721   1.955   9.141
  467POPC   GL210526   9.569   1.631   9.138
  467POPC   C1A10527   9.919   1.941   8.738
  467POPC   D2A10528  10.147   2.238   8.436
  467POPC   C3A10529  10.104   2.126   8.019
  467POPC   C4A10530   9.980   2.145   7.586
  467POPC   C1B10531   9.644   1.485   8.710
  467POPC   C2B10532   9.688   1.688   8.302
  467POPC   C3B10533   9.606   1.938   7.940
  467POPC   C4B10534   9.624   1.822   7.487
  468POPC   NC310535  23.830  33.942   9.574
  468POPC   PO410536  23.187  33.904   9.474
  468POPC   GL110537  23.479  33.965   9.141
  468POPC   GL210538  23.848  33.867   9.083
  468POPC   C1A10539  23.474  33.916   8.729
  468POPC   D2A10540  23.374  34.130   8.360
  468POPC   C3A10541  23.384  33.849   8.050
  468POPC   C4A10542  23.506  33.746   7.654
  468POPC   C1B10543  23.988  33.770   8.699
  468POPC   C2B10544  23.831  33.905   8.351
  468POPC   C3B10545  23.898  33.782   7.999
  468POPC   C4B10546  24.052  33.797   7.658
  469POPC   NC310547  18.601   3.858   9.488
  469POPC   PO410548  18.418   4.524   9.588
  469POPC   GL110549  18.229   4.267   9.228
  469POPC   GL210550  17.857   4.192   9.170
  469POPC   C1A10551  18.223   4.451   8.843
  469POPC   D2A10552  18.477   4.540   8.478
  469POPC   C3A10553  18.269   4.504   8.093
  469POPC   C4A10554  18.367   4.330   7.690
  469POPC   C1B10555  17.969   4.004   8.789
  469POPC   C2B10556  18.058   4.183   8.416
  469POPC   C3B10557  18.049   4.048   7.989
  469POPC   C4B10558  17.913   4.113   7.564
  470POPC   NC310559  31.243  33.048   9.533
  470POPC   PO410560  30.618  32.979   9.605
  470POPC   GL110561  30.596  32.814   9.172
  470POPC   GL210562  30.959  32.823   9.123
  470POPC   C1A10563  30.669  32.798   8.702
  470POPC   D2A10564  30.660  32.867   8.241
  470POPC   C3A10565  30.393  33.061   7.899
  470POPC   C4A10566  30.359  32.929   7.440
  470POPC   C1B10567  31.136  33.125   8.807
  470POPC   C2B10568  30.994  33.311   8.416
  470POPC   C3B10569  31.032  33.133   8.011
  470POPC   C4B10570  30.803  33.163   7.625
  471POPC   NC310571  33.804  28.075   9.596
  471POPC   PO410572  33.987  28.752   9.452
  471POPC   GL110573  33.941  28.407   9.194
  471POPC   GL210574  33.572  28.350   9.243
  471POPC   C1A10575  33.922  28.464   8.757
  471POPC   D2A10576  33.862  28.207   8.400
  471POPC   C3A10577  34.114  28.230   8.055
  471POPC   C4A10578  33.970  28.437   7.751
  471POPC   C1B10579  33.419  28.422   8.860
  471POPC   C2B10580  33.494  28.589   8.455
  471POPC   C3B10581  33.534  28.428   8.028
  471POPC   C4B10582  33.470  28.671   7.649
  472POPC   NC310583   7.828   8.534   9.485
  472POPC   PO410584   7.969   9.293   9.434
  472POPC   GL110585   7.936   9.097   9.030
  472POPC   GL210586   8.068   8.770   9.072
  472POPC   C1A10587   8.086   9.048   8.602
  472POPC   D2A10588   8.431   8.925   8.326
  472POPC   C3A10589   8.354   9.093   7.937
  472POPC   C4A10590   8.216   9.251   7.560
  472POPC   C1B10591   7.872   8.585   8.739
  472POPC   C2B10592   7.942   8.588   8.322
  472POPC   C3B10593   7.978   8.730   7.920
  472POPC   C4B10594   8.303   8.657   7.657
  473POPC   NC310595  24.178  44.403   9.904
  473POPC   PO410596  24.483  44.801   9.460
  473POPC   GL110597  24.572  44.741   9.039
  473POPC   GL210598  24.451  44.431   9.006
  473POPC   C1A10599  24.653  44.687   8.591
  473POPC   D2A10600  24.399  44.589   8.241
  473POPC   C3A10601  24.644  44.683   7.875
  473POPC   C4A10602  24.643  44.881   7.482
  473POPC   C1B10603  24.122  44.279   8.739
  473POPC   C2B10604  23.938  44.345   8.379
  473POPC   C3B10605  24.059  44.149   8.037
  473POPC   C4B10606  24.354  44.294   7.800
  474POPC   NC310607  11.773  12.175   9.531
  474POPC   PO410608  11.150  11.923   9.597
  474POPC   GL110609  11.222  11.801   9.153
  474POPC   GL210610  10.991  11.520   9.116
  474POPC   C1A10611  11.386  12.048   8.787
  474POPC   D2A10612  11.283  12.363   8.444
  474POPC   C3A10613  11.549  12.465   8.078
  474POPC   C4A10614  11.375  12.315   7.712
  474POPC   C1B10615  11.010  11.504   8.729
  474POPC   C2B10616  11.174  11.775   8.418
  474POPC   C3B10617  11.441  11.942   8.115
  474POPC   C4B10618  11.296  11.800   7.702
  475POPC   NC310619  28.195  32.761   9.493
  475POPC   PO410620  28.076  33.451   9.476
  475POPC   GL110621  28.387  33.242   9.157
  475POPC   GL210622  28.362  32.902   9.030
  475POPC   C1A10623  28.594  33.252   8.713
  475POPC   D2A10624  28.500  33.523   8.328
  475POPC   C3A10625  28.324  33.344   7.959
  475POPC   C4A10626  28.532  33.324   7.591
  475POPC   C1B10627  28.102  33.161   8.740
  475POPC   C2B10628  28.211  33.064   8.364
  475POPC   C3B10629  28.497  32.892   8.076
  475POPC   C4B10630  28.309  32.864   7.687
  476POPC   NC310631  36.041  41.706   9.256
  476POPC   PO410632  36.507  41.305   9.517
  476POPC   GL110633  36.363  41.411   9.045
  476POPC   GL210634  36.361  41.805   8.885
  476POPC   C1A10635  36.115  41.418   8.660
  476POPC   D2A10636  36.381  41.410   8.322
  476POPC   C3A10637  36.187  41.420   7.933
  476POPC   C4A10638  36.457  41.354   7.595
  476POPC   C1B10639  35.990  41.921   8.645
  476POPC   C2B10640  35.800  41.771   8.290
  476POPC   C3B10641  36.048  41.905   7.969
  476POPC   C4B10642  36.206  41.794   7.557
  477POPC   NC310643  15.427  14.187   9.687
  477POPC   PO410644  14.882  13.876   9.471
  477POPC   GL110645  15.009  14.041   9.105
  477POPC   GL210646  14.756  14.234   8.988
  477POPC   C1A10647  15.041  13.787   8.718
  477POPC   D2A10648  15.204  13.503   8.368
  477POPC   C3A10649  15.343  13.633   7.943
  477POPC   C4A10650  15.130  13.608   7.529
  477POPC   C1B10651  14.773  14.194   8.531
  477POPC   C2B10652  15.059  14.071   8.162
  477POPC   C3B10653  15.178  14.073   7.709
  477POPC   C4B10654  15.211  14.021   7.237
  478POPC   NC310655  14.604  13.508   9.538
  478POPC   PO410656  14.382  14.041   9.758
  478POPC   GL110657  14.383  13.926   9.254
  478POPC   GL210658  14.609  13.714   9.062
  478POPC   C1A10659  14.130  13.727   8.847
  478POPC   D2A10660  14.068  13.479   8.444
  478POPC   C3A10661  14.351  13.471   8.086
  478POPC   C4A10662  14.405  13.769   7.753
  478POPC   C1B10663  14.560  13.515   8.660
  478POPC   C2B10664  14.730  13.710   8.326
  478POPC   C3B10665  14.844  13.645   7.952
  478POPC   C4B10666  14.704  13.375   7.648
  479POPC   NC310667  40.238   8.285   9.882
  479POPC   PO410668  39.673   8.353   9.499
  479POPC   GL110669  39.881   8.031   9.259
  479POPC   GL210670  40.174   8.202   9.145
  479POPC   C1A10671  39.914   7.844   8.842
  479POPC   D2A10672  39.687   8.041   8.478
  479POPC   C3A10673  39.889   8.127   8.082
  479POPC   C4A10674  39.784   8.044   7.652
  479POPC   C1B10675  40.372   8.071   8.752
  479POPC   C2B10676  40.360   8.217   8.299
  479POPC   C3B10677  40.382   8.002   7.868
  479POPC   C4B10678  40.394   8.233   7.458
  480POPC   NC310679  15.189  10.032   9.506
  480POPC   PO410680  15.169  10.757   9.583
  480POPC   GL110681  15.170  10.627   9.125
  480POPC   GL210682  15.328  10.331   9.126
  480POPC   C1A10683  14.993  10.364   8.714
  480POPC   D2A10684  14.682  10.205   8.403
  480POPC   C3A10685  14.914  10.180   8.021
  480POPC   C4A10686  15.100  10.527   7.788
  480POPC   C1B10687  15.481  10.245   8.717
  480POPC   C2B10688  15.364  10.359   8.255
  480POPC   C3B10689  15.584  10.589   7.903
  480POPC   C4B10690  15.526  10.595   7.453
  481POPC   NC310691  39.445  25.660   9.446
  481POPC   PO410692  39.102  26.222   9.571
  481POPC   GL110693  39.205  26.043   9.196
  481POPC   GL210694  38.958  25.782   9.274
  481POPC   C1A10695  39.234  25.964   8.765
  481POPC   D2A10696  39.459  25.764   8.444
  481POPC   C3A10697  39.551  25.944   8.036
  481POPC   C4A10698  39.242  25.926   7.715
  481POPC   C1B10699  38.789  25.759   8.854
  481POPC   C2B10700  38.944  25.695   8.424
  481POPC   C3B10701  38.843  25.818   8.011
  481POPC   C4B10702  38.737  25.874   7.573
  482POPC   NC310703  29.926  38.355   9.484
  482POPC   PO410704  29.817  39.026   9.427
  482POPC   GL110705  29.895  38.675   9.086
  482POPC   GL210706  29.701  38.319   9.052
  482POPC   C1A10707  29.937  38.504   8.664
  482POPC   D2A10708  29.814  38.672   8.324
  482POPC   C3A10709  30.020  38.741   7.977
  482POPC   C4A10710  29.872  38.538   7.678
  482POPC   C1B10711  29.895  38.011   8.760
  482POPC   C2B10712  30.016  38.076   8.348
  482POPC   C3B10713  30.146  38.220   8.000
  482POPC   C4B10714  29.926  38.042   7.691
  483POPC   NC310715  18.330  24.786   9.504
  483POPC   PO410716  18.050  24.174   9.540
  483POPC   GL110717  18.236  24.385   9.215
  483POPC   GL210718  18.592  24.423   9.239
  483POPC   C1A10719  18.148  24.553   8.850
  483POPC   D2A10720  17.955  24.286   8.561
  483POPC   C3A10721  18.062  24.347   8.139
  483POPC   C4A10722  17.888  24.503   7.760
  483POPC   C1B10723  18.624  24.412   8.820
  483POPC   C2B10724  18.463  24.570   8.453
  483POPC   C3B10725  18.607  24.799   8.152
  483POPC   C4B10726  18.411  24.619   7.793
  484POPC   NC310727  43.393  25.861   9.385
  484POPC   PO410728  44.008  25.904   9.595
  484POPC   GL110729  43.881  26.092   9.190
  484POPC   GL210730  44.090  26.391   9.119
  484POPC   C1A10731  43.763  26.096   8.732
  484POPC   D2A10732  43.580  26.076   8.291
  484POPC   C3A10733  43.724  25.818   7.945
  484POPC   C4A10734  43.783  25.850   7.489
  484POPC   C1B10735  44.277  26.265   8.724
  484POPC   C2B10736  44.090  26.209   8.307
  484POPC   C3B10737  43.938  26.294   7.881
  484POPC   C4B10738  43.985  26.322   7.402
  485POPC   NC310739  28.836   7.083   9.358
  485POPC   PO410740  29.395   7.371   9.616
  485POPC   GL110741  29.411   7.333   9.173
  485POPC   GL210742  29.648   7.578   9.081
  485POPC   C1A10743  29.165   7.267   8.778
  485POPC   D2A10744  29.254   7.440   8.372
  485POPC   C3A10745  29.241   7.241   7.991
  485POPC   C4A10746  29.037   7.162   7.620
  485POPC   C1B10747  29.347   7.753   8.783
  485POPC   C2B10748  29.411   7.926   8.371
  485POPC   C3B10749  29.345   7.758   7.952
  485POPC   C4B10750  29.201   8.035   7.637
  486POPC   NC310751  26.807  20.739   9.495
  486POPC   PO410752  27.412  20.788   9.196
  486POPC   GL110753  27.065  20.754   8.935
  486POPC   GL210754  26.788  20.569   9.022
  486POPC   C1A10755  26.936  20.680   8.522
  486POPC   D2A10756  26.792  20.395   8.223
  486POPC   C3A10757  26.816  20.590   7.807
  486POPC   C4A10758  27.134  20.899   7.678
  486POPC   C1B10759  26.508  20.801   8.761
  486POPC   C2B10760  26.337  20.883   8.351
  486POPC   C3B10761  26.368  20.832   7.893
  486POPC   C4B10762  26.636  21.065   7.560
  487POPC   NC310763  30.420  40.708   9.631
  487POPC   PO410764  31.003  41.059   9.616
  487POPC   GL110765  30.760  40.929   9.244
  487POPC   GL210766  30.414  41.067   9.217
  487POPC   C1A10767  30.887  40.800   8.819
  487POPC   D2A10768  30.781  40.924   8.408
  487POPC   C3A10769  30.727  40.628   8.070
  487POPC   C4A10770  30.844  40.597   7.649
  487POPC   C1B10771  30.397  40.948   8.779
  487POPC   C2B10772  30.289  40.812   8.364
  487POPC   C3B10773  30.411  41.031   8.025
  487POPC   C4B10774  30.404  40.862   7.618
  488POPC   NC310775   5.972  19.763   9.510
  488POPC   PO410776   5.654  20.250   9.296
  488POPC   GL110777   5.802  19.967   9.020
  488POPC   GL210778   6.127  20.016   9.073
  488POPC   C1A10779   5.977  19.763   8.647
  488POPC   D2A10780   6.223  19.749   8.262
  488POPC   C3A10781   5.958  19.739   7.893
  488POPC   C4A10782   5.536  19.588   7.766
  488POPC   C1B10783   6.151  20.272   8.726
  488POPC   C2B10784   5.950  20.197   8.342
  488POPC   C3B10785   6.117  20.220   7.930
  488POPC   C4B10786   5.869  20.131   7.535
  489POPC   NC310787   8.441   2.268   9.454
  489POPC   PO410788   8.092   1.694   9.488
  489POPC   GL110789   8.186   1.955   9.098
  489POPC   GL210790   8.181   2.338   9.036
  489POPC   C1A10791   8.303   2.027   8.647
  489POPC   D2A10792   8.195   2.172   8.256
  489POPC   C3A10793   8.394   2.051   7.875
  489POPC   C4A10794   7.996   2.137   7.622
  489POPC   C1B10795   8.558   2.454   8.765
  489POPC   C2B10796   8.447   2.598   8.326
  489POPC   C3B10797   8.301   2.527   7.896
  489POPC   C4B10798   8.429   2.348   7.443
  490POPC   NC310799  25.982  30.400   9.614
  490POPC   PO410800  26.119  31.078   9.535
  490POPC   GL110801  26.058  30.873   9.158
  490POPC   GL210802  26.142  30.519   9.143
  490POPC   C1A10803  26.198  30.912   8.733
  490POPC   D2A10804  25.968  31.113   8.384
  490POPC   C3A10805  25.863  30.893   8.004
  490POPC   C4A10806  25.842  30.438   7.935
  490POPC   C1B10807  25.844  30.507   8.827
  490POPC   C2B10808  25.924  30.606   8.432
  490POPC   C3B10809  26.274  30.603   8.203
  490POPC   C4B10810  26.422  30.315   7.911
  491POPC   NC310811  16.953  39.131   9.526
  491POPC   PO410812  16.382  39.162   9.446
  491POPC   GL110813  16.618  39.340   9.107
  491POPC   GL210814  16.954  39.494   9.180
  491POPC   C1A10815  16.539  39.184   8.682
  491POPC   D2A10816  16.762  38.977   8.313
  491POPC   C3A10817  16.567  39.168   7.961
  491POPC   C4A10818  16.635  39.462   7.658
  491POPC   C1B10819  17.023  39.264   8.799
  491POPC   C2B10820  16.893  39.471   8.411
  491POPC   C3B10821  17.043  39.407   8.007
  491POPC   C4B10822  17.168  39.640   7.661
  492POPC   NC310823   1.280   6.081   9.447
  492POPC   PO410824   1.402   5.448   9.545
  492POPC   GL110825   1.178   5.655   9.167
  492POPC   GL210826   1.365   5.937   8.982
  492POPC   C1A10827   0.948   5.744   8.755
  492POPC   D2A10828   0.869   5.928   8.332
  492POPC   C3A10829   1.031   5.779   7.903
  492POPC   C4A10830   0.931   5.760   7.438
  492POPC   C1B10831   1.611   5.907   8.635
  492POPC   C2B10832   1.508   5.880   8.232
  492POPC   C3B10833   1.616   5.917   7.851
  492POPC   C4B10834   1.393   6.046   7.555
  493POPC   NC310835  18.411  41.270   9.886
  493POPC   PO410836  18.381  40.662   9.662
  493POPC   GL110837  18.170  40.796   9.180
  493POPC   GL210838  18.461  40.690   8.942
  493POPC   C1A10839  18.100  40.969   8.744
  493POPC   D2A10840  17.903  40.824   8.361
  493POPC   C3A10841  18.085  40.655   7.983
  493POPC   C4A10842  18.078  40.259   7.726
  493POPC   C1B10843  18.790  40.924   8.721
  493POPC   C2B10844  18.714  41.125   8.347
  493POPC   C3B10845  18.578  40.898   8.007
  493POPC   C4B10846  18.644  40.786   7.604
  494POPC   NC310847  34.242  11.204   9.520
  494POPC   PO410848  34.878  10.961   9.582
  494POPC   GL110849  34.725  11.193   9.214
  494POPC   GL210850  34.402  11.180   9.047
  494POPC   C1A10851  34.827  11.224   8.787
  494POPC   D2A10852  34.853  11.547   8.498
  494POPC   C3A10853  34.737  11.387   8.132
  494POPC   C4A10854  34.655  11.388   7.708
  494POPC   C1B10855  34.452  11.596   8.816
  494POPC   C2B10856  34.413  11.783   8.384
  494POPC   C3B10857  34.298  11.620   7.979
  494POPC   C4B10858  34.213  11.747   7.571
  495POPC   NC310859  38.002  10.682   9.489
  495POPC   PO410860  37.211  10.630   9.551
  495POPC   GL110861  37.520  10.540   9.241
  495POPC   GL210862  37.757  10.257   9.214
  495POPC   C1A10863  37.477  10.533   8.791
  495POPC   D2A10864  37.582  10.351   8.378
  495POPC   C3A10865  37.500  10.619   8.015
  495POPC   C4A10866  37.359  10.295   7.764
  495POPC   C1B10867  37.949  10.329   8.789
  495POPC   C2B10868  38.075  10.418   8.336
  495POPC   C3B10869  37.874  10.278   7.925
  495POPC   C4B10870  37.767  10.551   7.565
  496POPC   NC310871  18.772  43.101   9.530
  496POPC   PO410872  19.381  42.877   9.475
  496POPC   GL110873  19.220  43.148   9.139
  496POPC   GL210874  18.877  43.316   9.101
  496POPC   C1A10875  19.437  43.186   8.747
  496POPC   D2A10876  19.641  43.047   8.383
  496POPC   C3A10877  19.352  43.105   8.042
  496POPC   C4A10878  19.318  42.997   7.590
  496POPC   C1B10879  18.877  43.139   8.707
  496POPC   C2B10880  18.856  43.256   8.269
  496POPC   C3B10881  18.890  43.159   7.830
  496POPC   C4B10882  18.879  43.189   7.354
  497POPC   NC310883  31.128   4.969   9.686
  497POPC   PO410884  30.483   5.137   9.460
  497POPC   GL110885  30.447   5.145   9.011
  497POPC   GL210886  30.161   5.363   8.938
  497POPC   C1A10887  30.638   5.142   8.584
  497POPC   D2A10888  30.489   5.037   8.158
  497POPC   C3A10889  30.787   5.069   7.833
  497POPC   C4A10890  30.923   5.514   7.800
  497POPC   C1B10891  30.209   5.376   8.506
  497POPC   C2B10892  30.492   5.544   8.222
  497POPC   C3B10893  30.401   5.451   7.815
  497POPC   C4B10894  30.596   5.328   7.420
  498POPC   NC310895  21.932  10.533   9.525
  498POPC   PO410896  21.329  10.309   9.485
  498POPC   GL110897  21.278  10.481   9.127
  498POPC   GL210898  21.645  10.382   9.092
  498POPC   C1A10899  21.200  10.573   8.719
  498POPC   D2A10900  21.472  10.508   8.351
  498POPC   C3A10901  21.221  10.434   8.000
  498POPC   C4A10902  21.060  10.663   7.665
  498POPC   C1B10903  21.470  10.160   8.755
  498POPC   C2B10904  21.597  10.017   8.363
  498POPC   C3B10905  21.657  10.124   7.963
  498POPC   C4B10906  21.462  10.224   7.597
  499POPC   NC310907  24.231   2.816   9.490
  499POPC   PO410908  24.651   2.384   9.546
  499POPC   GL110909  24.559   2.586   9.155
  499POPC   GL210910  24.241   2.434   9.081
  499POPC   C1A10911  24.609   2.690   8.729
  499POPC   D2A10912  24.463   2.867   8.326
  499POPC   C3A10913  24.690   2.820   7.922
  499POPC   C4A10914  24.836   3.032   7.543
  499POPC   C1B10915  24.360   2.240   8.684
  499POPC   C2B10916  24.255   2.387   8.302
  499POPC   C3B10917  24.222   2.619   7.941
  499POPC   C4B10918  24.139   2.328   7.701
  500POPC   NC310919  36.320  29.096   9.299
  500POPC   PO410920  35.692  28.813   9.276
  500POPC   GL110921  35.933  29.030   8.994
  500POPC   GL210922  35.974  29.383   9.044
  500POPC   C1A10923  36.045  29.121   8.579
  500POPC   D2A10924  35.755  29.273   8.243
  500POPC   C3A10925  35.948  29.099   7.878
  500POPC   C4A10926  36.381  28.856   7.860
  500POPC   C1B10927  35.868  29.588   8.679
  500POPC   C2B10928  36.176  29.571   8.356
  500POPC   C3B10929  36.379  29.376   8.029
  500POPC   C4B10930  36.398  29.633   7.693
  501POPC   NC310931  32.468  23.720   9.500
  501POPC   PO410932  32.093  23.244   9.390
  501POPC   GL110933  32.286  23.495   9.068
  501POPC   GL210934  32.268  23.882   9.079
  501POPC   C1A10935  32.451  23.637   8.682
  501POPC   D2A10936  32.449  23.990   8.407
  501POPC   C3A10937  32.435  23.790   8.021
  501POPC   C4A10938  32.168  23.632   7.697
  501POPC   C1B10939  32.063  24.040   8.740
  501POPC   C2B10940  31.919  24.206   8.345
  501POPC   C3B10941  31.986  24.058   7.923
  501POPC   C4B10942  32.350  24.138   7.633
  502POPC   NC310943  14.507  11.895   9.522
  502POPC   PO410944  13.913  12.331   9.621
  502POPC   GL110945  14.147  12.151   9.260
  502POPC   GL210946  14.157  11.788   9.166
  502POPC   C1A10947  14.113  12.186   8.804
  502POPC   D2A10948  13.963  11.979   8.424
  502POPC   C3A10949  14.012  12.141   8.003
  502POPC   C4A10950  14.091  12.240   7.580
  502POPC   C1B10951  14.347  11.728   8.745
  502POPC   C2B10952  14.385  11.730   8.270
  502POPC   C3B10953  14.505  12.033   7.932
  502POPC   C4B10954  14.549  12.068   7.483
  503POPC   NC310955   8.750  25.678   9.489
  503POPC   PO410956   8.777  26.366   9.544
  503POPC   GL110957   8.839  26.146   9.107
  503POPC   GL210958   8.736  25.813   9.014
  503POPC   C1A10959   8.870  26.097   8.630
  503POPC   D2A10960   8.679  25.963   8.254
  503POPC   C3A10961   8.879  26.164   7.881
  503POPC   C4A10962   8.662  26.312   7.508
  503POPC   C1B10963   9.133  25.684   8.815
  503POPC   C2B10964   9.267  25.833   8.397
  503POPC   C3B10965   9.161  25.738   7.960
  503POPC   C4B10966   8.931  25.569   7.577
  504POPC   NC310967   1.525  17.212   9.412
  504POPC   PO410968   1.910  16.616   9.450
  504POPC   GL110969   1.857  16.580   9.010
  504POPC   GL210970   2.134  16.795   8.958
  504POPC   C1A10971   1.592  16.479   8.620
  504POPC   D2A10972   1.583  16.307   8.183
  504POPC   C3A10973   1.787  16.572   7.882
  504POPC   C4A10974   1.983  16.991   7.910
  504POPC   C1B10975   2.316  16.394   8.855
  504POPC   C2B10976   2.559  16.361   8.497
  504POPC   C3B10977   2.603  16.457   8.073
  504POPC   C4B10978   2.299  16.610   7.777
  505POPC   NC310979  44.822  21.578   9.671
  505POPC   PO410980  44.336  21.127   9.630
  505POPC   GL110981  44.432  21.421   9.258
  505POPC   GL210982  44.704  21.688   9.195
  505POPC   C1A10983  44.561  21.354   8.816
  505POPC   D2A10984  44.692  21.272   8.404
  505POPC   C3A10985  44.603  21.418   7.970
  505POPC   C4A10986  44.515  21.184   7.604
  505POPC   C1B10987  44.973  21.640   8.830
  505POPC   C2B10988  44.817  21.753   8.412
  505POPC   C3B10989   0.008  21.708   8.012
  505POPC   C4B10990  44.895  21.539   7.541
  506POPC   NC310991   9.099   0.648   9.493
  506POPC   PO410992   8.578   0.248   9.552
  506POPC   GL110993   8.814   0.317   9.166
  506POPC   GL210994   9.161   0.277   9.124
  506POPC   C1A10995   8.814   0.546   8.773
  506POPC   D2A10996   8.894   0.668   8.366
  506POPC   C3A10997   8.923   0.441   8.005
  506POPC   C4A10998   8.953   0.723   7.679
  506POPC   C1B10999   9.234   0.304   8.651
  506POPC   C2B11000   9.378   0.519   8.274
  506POPC   C3B11001   9.413   0.485   7.815
  506POPC   C4B11002   9.140   0.173   7.614
  507POPC   NC311003   1.783  13.053   9.387
  507POPC   PO411004   2.269  12.904   9.730
  507POPC   GL111005   2.135  12.809   9.163
  507POPC   GL211006   2.124  13.065   8.960
  507POPC   C1A11007   1.930  12.636   8.801
  507POPC   D2A11008   1.883  12.908   8.459
  507POPC   C3A11009   1.893  12.729   8.057
  507POPC   C4A11010   1.815  12.906   7.654
  507POPC   C1B11011   2.374  12.951   8.681
  507POPC   C2B11012   2.322  13.150   8.355
  507POPC   C3B11013   2.070  13.210   8.012
  507POPC   C4B11014   2.278  13.192   7.644
  508POPC   NC311015  32.562  32.298   9.968
  508POPC   PO411016  32.990  32.120   9.558
  508POPC   GL111017  33.182  32.280   9.170
  508POPC   GL211018  32.938  32.191   8.953
  508POPC   C1A11019  33.266  32.593   8.829
  508POPC   D2A11020  33.111  32.704   8.379
  508POPC   C3A11021  33.110  32.391   7.996
  508POPC   C4A11022  32.933  32.177   7.612
  508POPC   C1B11023  33.338  32.075   8.736
  508POPC   C2B11024  33.228  31.970   8.325
  508POPC   C3B11025  33.160  31.844   7.925
  508POPC   C4B11026  33.214  31.779   7.445
  509POPC   NC311027  31.181  25.717   9.915
  509POPC   PO411028  31.726  25.969   9.669
  509POPC   GL111029  31.707  25.992   9.218
  509POPC   GL211030  31.416  25.767   9.080
  509POPC   C1A11031  31.762  26.205   8.838
  509POPC   D2A11032  31.918  26.030   8.458
  509POPC   C3A11033  31.829  26.251   8.095
  509POPC   C4A11034  31.595  26.224   7.746
  509POPC   C1B11035  31.613  25.726   8.751
  509POPC   C2B11036  31.416  25.895   8.411
  509POPC   C3B11037  31.241  26.103   8.081
  509POPC   C4B11038  31.036  26.011   7.728
  510POPC   NC311039  24.877  39.367   9.523
  510POPC   PO411040  24.207  39.426   9.572
  510POPC   GL111041  24.364  39.376   9.164
  510POPC   GL211042  24.602  39.641   9.136
  510POPC   C1A11043  24.564  39.133   8.819
  510POPC   D2A11044  24.531  38.861   8.433
  510POPC   C3A11045  24.329  39.002   8.054
  510POPC   C4A11046  24.395  39.055   7.603
  510POPC   C1B11047  24.433  39.627   8.711
  510POPC   C2B11048  24.630  39.370   8.367
  510POPC   C3B11049  24.722  39.317   7.935
  510POPC   C4B11050  24.416  39.548   7.722
  511POPC   NC311051  10.914   4.941   9.769
  511POPC   PO411052  11.557   4.992   9.605
  511POPC   GL111053  11.227   5.129   9.337
  511POPC   GL211054  11.197   4.800   9.190
  511POPC   C1A11055  11.237   5.320   8.923
  511POPC   D2A11056  11.228   5.205   8.454
  511POPC   C3A11057  11.326   5.454   8.059
  511POPC   C4A11058  11.339   5.363   7.620
  511POPC   C1B11059  11.375   4.788   8.755
  511POPC   C2B11060  11.526   4.806   8.322
  511POPC   C3B11061  11.485   4.975   7.903
  511POPC   C4B11062  11.175   4.877   7.548
  512POPC   NC311063  10.263  28.229   9.397
  512POPC   PO411064   9.680  28.652   9.408
  512POPC   GL111065   9.766  28.207   9.203
  512POPC   GL211066   9.505  27.928   9.263
  512POPC   C1A11067   9.820  28.105   8.749
  512POPC   D2A11068   9.793  28.351   8.345
  512POPC   C3A11069   9.625  28.363   7.924
  512POPC   C4A11070   9.305  28.660   7.811
  512POPC   C1B11071   9.327  28.192   8.922
  512POPC   C2B11072   9.192  28.091   8.510
  512POPC   C3B11073   9.128  28.184   8.087
  512POPC   C4B11074   9.244  28.077   7.694
  513POPC   NC311075   5.667  17.250   9.518
  513POPC   PO411076   6.340  17.646   9.513
  513POPC   GL111077   6.129  17.522   9.154
  513POPC   GL211078   5.896  17.276   9.075
  513POPC   C1A11079   6.176  17.479   8.724
  513POPC   D2A11080   5.815  17.458   8.423
  513POPC   C3A11081   5.957  17.357   7.992
  513POPC   C4A11082   6.240  17.534   7.700
  513POPC   C1B11083   5.562  17.169   8.843
  513POPC   C2B11084   5.328  17.227   8.470
  513POPC   C3B11085   5.483  17.191   8.088
  513POPC   C4B11086   5.499  17.300   7.686
  514POPC   NC311087  27.037  28.909   9.379
  514POPC   PO411088  26.598  29.340   9.767
  514POPC   GL111089  26.727  29.342   9.278
  514POPC   GL211090  26.747  29.068   9.018
  514POPC   C1A11091  26.807  29.520   8.826
  514POPC   D2A11092  27.156  29.469   8.480
  514POPC   C3A11093  26.941  29.425   8.058
  514POPC   C4A11094  26.965  28.979   7.861
  514POPC   C1B11095  26.534  29.119   8.657
  514POPC   C2B11096  26.642  29.037   8.267
  514POPC   C3B11097  26.532  28.726   7.958
  514POPC   C4B11098  26.658  28.751   7.520
  515POPC   NC311099  10.320  32.466   9.848
  515POPC   PO411100  10.685  32.048   9.473
  515POPC   GL111101  10.576  32.128   9.063
  515POPC   GL211102  10.466  31.827   8.926
  515POPC   C1A11103  10.546  32.406   8.698
  515POPC   D2A11104  10.207  32.588   8.456
  515POPC   C3A11105  10.308  32.439   8.062
  515POPC   C4A11106  10.679  32.583   7.797
  515POPC   C1B11107  10.559  31.890   8.520
  515POPC   C2B11108  10.915  31.961   8.267
  515POPC   C3B11109  10.717  32.100   7.929
  515POPC   C4B11110  10.322  31.986   7.799
  516POPC   NC311111  32.620  21.823   9.377
  516POPC   PO411112  32.161  22.267   9.591
  516POPC   GL111113  32.242  22.113   9.170
  516POPC   GL211114  32.530  22.307   9.194
  516POPC   C1A11115  32.187  21.910   8.761
  516POPC   D2A11116  32.194  22.150   8.382
  516POPC   C3A11117  31.989  22.101   8.002
  516POPC   C4A11118  32.246  22.200   7.667
  516POPC   C1B11119  32.637  22.160   8.768
  516POPC   C2B11120  32.683  22.344   8.360
  516POPC   C3B11121  32.657  22.139   7.954
  516POPC   C4B11122  32.736  22.179   7.480
  517POPC   NC311123  15.072  19.378   9.363
  517POPC   PO411124  15.284  18.724   9.556
  517POPC   GL111125  15.184  18.795   9.137
  517POPC   GL211126  15.412  19.073   9.067
  517POPC   C1A11127  15.121  18.840   8.705
  517POPC   D2A11128  15.440  18.983   8.440
  517POPC   C3A11129  15.274  18.908   8.083
  517POPC   C4A11130  15.300  18.923   7.652
  517POPC   C1B11131  15.223  19.338   8.749
  517POPC   C2B11132  15.125  19.389   8.351
  517POPC   C3B11133  15.300  19.405   7.984
  517POPC   C4B11134  14.983  19.322   7.678
  518POPC   NC311135   8.025  32.747   9.390
  518POPC   PO411136   8.283  33.345   9.494
  518POPC   GL111137   8.279  33.160   9.111
  518POPC   GL211138   7.985  33.262   9.055
  518POPC   C1A11139   8.378  33.243   8.664
  518POPC   D2A11140   8.316  32.966   8.302
  518POPC   C3A11141   8.229  33.177   7.908
  518POPC   C4A11142   8.343  33.030   7.485
  518POPC   C1B11143   7.985  32.922   8.751
  518POPC   C2B11144   7.795  32.945   8.371
  518POPC   C3B11145   7.891  32.802   7.993
  518POPC   C4B11146   7.894  32.884   7.608
  519POPC   NC311147  35.924  31.562   9.565
  519POPC   PO411148  35.192  31.576   9.441
  519POPC   GL111149  35.085  31.418   9.084
  519POPC   GL211150  34.869  31.693   9.025
  519POPC   C1A11151  35.474  31.309   8.858
  519POPC   D2A11152  35.642  31.118   8.488
  519POPC   C3A11153  35.532  31.363   8.118
  519POPC   C4A11154  35.542  31.342   7.671
  519POPC   C1B11155  35.072  31.607   8.625
  519POPC   C2B11156  35.028  31.791   8.249
  519POPC   C3B11157  34.938  31.724   7.864
  519POPC   C4B11158  35.020  31.381   7.649
  520POPC   NC311159  36.371  40.797   9.509
  520POPC   PO411160  35.820  41.228   9.511
  520POPC   GL111161  36.095  41.006   9.157
  520POPC   GL211162  36.106  40.629   9.086
  520POPC   C1A11163  36.280  40.956   8.752
  520POPC   D2A11164  36.132  40.828   8.380
  520POPC   C3A11165  36.360  40.953   8.056
  520POPC   C4A11166  36.119  40.965   7.717
  520POPC   C1B11167  36.252  40.439   8.694
  520POPC   C2B11168  36.452  40.440   8.242
  520POPC   C3B11169  36.406  40.534   7.770
  520POPC   C4B11170  36.217  40.471   7.382
  521POPC   NC311171  18.061  37.195  10.020
  521POPC   PO411172  18.197  36.776   9.485
  521POPC   GL111173  18.103  36.798   9.110
  521POPC   GL211174  18.283  37.121   9.091
  521POPC   C1A11175  18.197  36.743   8.702
  521POPC   D2A11176  18.429  36.960   8.429
  521POPC   C3A11177  18.239  37.009   8.053
  521POPC   C4A11178  18.206  36.841   7.677
  521POPC   C1B11179  17.937  37.179   8.815
  521POPC   C2B11180  17.875  37.050   8.399
  521POPC   C3B11181  17.821  37.268   7.987
  521POPC   C4B11182  17.866  37.205   7.530
  522POPC   NC311183   8.682  23.961   9.436
  522POPC   PO411184   9.188  23.513   9.389
  522POPC   GL111185   8.856  23.577   9.129
  522POPC   GL211186   9.041  23.892   9.020
  522POPC   C1A11187   8.707  23.621   8.724
  522POPC   D2A11188   8.845  23.827   8.348
  522POPC   C3A11189   8.838  23.564   7.949
  522POPC   C4A11190   8.886  23.693   7.527
  522POPC   C1B11191   9.254  23.693   8.631
  522POPC   C2B11192   9.296  23.720   8.137
  522POPC   C3B11193   9.327  23.526   7.731
  522POPC   C4B11194   9.455  23.238   7.384
  523POPC   NC311195  19.552   3.945   9.193
  523POPC   PO411196  19.620   3.433   9.614
  523POPC   GL111197  19.700   3.311   9.180
  523POPC   GL211198  19.937   3.558   9.058
  523POPC   C1A11199  19.622   3.266   8.759
  523POPC   D2A11200  19.936   3.390   8.506
  523POPC   C3A11201  19.961   3.334   8.080
  523POPC   C4A11202  19.834   3.589   7.742
  523POPC   C1B11203  20.162   3.798   8.718
  523POPC   C2B11204  20.357   3.638   8.325
  523POPC   C3B11205  20.339   3.624   7.853
  523POPC   C4B11206  20.253   3.645   7.385
  524POPC   NC311207  40.589   9.476   9.468
  524POPC   PO411208  40.732  10.153   9.444
  524POPC   GL111209  40.842   9.796   9.137
  524POPC   GL211210  40.908   9.400   9.101
  524POPC   C1A11211  40.761   9.722   8.706
  524POPC   D2A11212  40.802   9.878   8.311
  524POPC   C3A11213  40.658   9.633   7.985
  524POPC   C4A11214  40.387   9.963   7.790
  524POPC   C1B11215  41.106   9.344   8.730
  524POPC   C2B11216  40.994   9.417   8.345
  524POPC   C3B11217  41.186   9.624   8.062
  524POPC   C4B11218  41.052   9.816   7.702
  525POPC   NC311219  25.615  14.947   9.373
  525POPC   PO411220  24.951  14.978   9.511
  525POPC   GL111221  25.180  15.090   9.149
  525POPC   GL211222  25.354  15.383   9.226
  525POPC   C1A11223  25.373  15.163   8.758
  525POPC   D2A11224  25.485  15.021   8.361
  525POPC   C3A11225  25.173  15.005   8.072
  525POPC   C4A11226  25.135  14.770   7.727
  525POPC   C1B11227  25.507  15.639   8.863
  525POPC   C2B11228  25.450  15.717   8.415
  525POPC   C3B11229  25.348  15.475   8.040
  525POPC   C4B11230  25.503  15.438   7.631
  526POPC   NC311231  21.629   8.964   9.587
  526POPC   PO411232  21.127   8.619   9.373
  526POPC   GL111233  21.314   8.946   9.184
  526POPC   GL211234  21.636   8.763   9.106
  526POPC   C1A11235  21.483   9.187   8.852
  526POPC   D2A11236  21.330   9.299   8.430
  526POPC   C3A11237  21.591   9.129   8.102
  526POPC   C4A11238  21.577   9.022   7.676
  526POPC   C1B11239  21.377   8.710   8.732
  526POPC   C2B11240  21.333   8.474   8.376
  526POPC   C3B11241  21.446   8.643   7.993
  526POPC   C4B11242  21.682   8.536   7.606
  527POPC   NC311243   6.046   5.682   9.634
  527POPC   PO411244   5.786   6.231   9.395
  527POPC   GL111245   5.905   6.019   9.058
  527POPC   GL211246   5.840   5.688   9.126
  527POPC   C1A11247   5.801   5.955   8.650
  527POPC   D2A11248   5.913   6.114   8.275
  527POPC   C3A11249   5.879   5.976   7.857
  527POPC   C4A11250   5.651   6.136   7.522
  527POPC   C1B11251   6.052   5.535   8.724
  527POPC   C2B11252   6.082   5.634   8.248
  527POPC   C3B11253   5.976   5.485   7.802
  527POPC   C4B11254   5.699   5.237   7.526
  528POPC   NC311255  22.785  37.949   9.408
  528POPC   PO411256  22.821  38.672   9.540
  528POPC   GL111257  22.857  38.452   9.145
  528POPC   GL211258  23.173  38.604   9.104
  528POPC   C1A11259  22.949  38.373   8.686
  528POPC   D2A11260  22.719  38.589   8.334
  528POPC   C3A11261  22.828  38.550   7.895
  528POPC   C4A11262  22.506  38.529   7.556
  528POPC   C1B11263  23.341  38.722   8.716
  528POPC   C2B11264  23.246  38.584   8.294
  528POPC   C3B11265  23.365  38.679   7.892
  528POPC   C4B11266  23.233  39.005   7.649
  529POPC   NC311267  14.991   5.548   9.584
  529POPC   PO411268  15.459   6.111   9.530
  529POPC   GL111269  15.242   6.017   9.177
  529POPC   GL211270  15.114   5.713   9.129
  529POPC   C1A11271  15.171   6.041   8.747
  529POPC   D2A11272  15.327   5.868   8.370
  529POPC   C3A11273  15.118   6.116   8.052
  529POPC   C4A11274  15.028   6.319   7.664
  529POPC   C1B11275  15.133   5.506   8.726
  529POPC   C2B11276  15.122   5.355   8.325
  529POPC   C3B11277  15.076   5.598   7.997
  529POPC   C4B11278  14.910   5.811   7.670
  530POPC   NC311279  26.383  24.317   9.432
  530POPC   PO411280  25.749  24.552   9.367
  530POPC   GL111281  25.842  24.743   9.056
  530POPC   GL211282  26.177  24.693   9.121
  530POPC   C1A11283  25.824  24.668   8.608
  530POPC   D2A11284  25.889  24.272   8.366
  530POPC   C3A11285  25.881  24.315   7.924
  530POPC   C4A11286  26.117  24.699   7.805
  530POPC   C1B11287  26.124  24.303   8.837
  530POPC   C2B11288  26.398  24.176   8.513
  530POPC   C3B11289  26.421  24.360   8.104
  530POPC   C4B11290  26.334  24.233   7.693
  531POPC   NC311291  30.425   7.222   9.410
  531POPC   PO411292  31.061   7.326   9.419
  531POPC   GL111293  30.780   7.504   9.120
  531POPC   GL211294  30.551   7.767   9.246
  531POPC   C1A11295  30.578   7.295   8.784
  531POPC   D2A11296  30.592   7.132   8.401
  531POPC   C3A11297  30.917   7.284   8.126
  531POPC   C4A11298  30.744   7.241   7.728
  531POPC   C1B11299  30.475   7.787   8.808
  531POPC   C2B11300  30.603   7.631   8.390
  531POPC   C3B11301  30.466   7.632   7.951
  531POPC   C4B11302  30.575   7.649   7.486
  532POPC   NC311303   3.944  11.301   9.558
  532POPC   PO411304   3.390  11.445   9.745
  532POPC   GL111305   3.496  11.301   9.308
  532POPC   GL211306   3.274  11.515   9.178
  532POPC   C1A11307   3.830  11.307   8.934
  532POPC   D2A11308   3.971  11.220   8.501
  532POPC   C3A11309   3.887  11.533   8.179
  532POPC   C4A11310   3.695  11.539   7.769
  532POPC   C1B11311   3.304  11.320   8.816
  532POPC   C2B11312   3.465  11.329   8.429
  532POPC   C3B11313   3.282  11.488   8.077
  532POPC   C4B11314   3.203  11.303   7.717
  533POPC   NC311315  24.939  16.334   9.784
  533POPC   PO411316  25.325  15.767   9.572
  533POPC   GL111317  25.186  15.869   9.172
  533POPC   GL211318  25.438  16.107   9.132
  533POPC   C1A11319  25.109  15.953   8.727
  533POPC   D2A11320  25.104  16.122   8.308
  533POPC   C3A11321  25.273  15.957   7.914
  533POPC   C4A11322  25.019  15.724   7.620
  533POPC   C1B11323  25.621  16.130   8.720
  533POPC   C2B11324  25.606  16.332   8.308
  533POPC   C3B11325  25.864  16.266   7.955
  533POPC   C4B11326  25.812  16.043   7.564
  534POPC   NC311327  38.730  41.476   9.512
  534POPC   PO411328  38.092  41.828   9.498
  534POPC   GL111329  38.359  41.605   9.130
  534POPC   GL211330  38.217  41.266   9.031
  534POPC   C1A11331  38.411  41.561   8.635
  534POPC   D2A11332  38.670  41.744   8.299
  534POPC   C3A11333  38.532  41.685   7.877
  534POPC   C4A11334  38.258  41.331   7.698
  534POPC   C1B11335  38.658  41.218   8.893
  534POPC   C2B11336  38.824  41.252   8.468
  534POPC   C3B11337  38.604  41.227   8.091
  534POPC   C4B11338  38.772  41.264   7.677
  535POPC   NC311339  17.777  10.026   9.661
  535POPC   PO411340  17.288  10.446   9.637
  535POPC   GL111341  17.235  10.493   9.199
  535POPC   GL211342  17.523  10.379   9.030
  535POPC   C1A11343  17.098  10.678   8.814
  535POPC   D2A11344  17.165  10.575   8.426
  535POPC   C3A11345  17.431  10.761   8.129
  535POPC   C4A11346  17.299  10.568   7.767
  535POPC   C1B11347  17.575  10.318   8.566
  535POPC   C2B11348  17.533  10.266   8.111
  535POPC   C3B11349  17.725  10.308   7.680
  535POPC   C4B11350  17.793  10.199   7.231
  536POPC   NC311351  15.767   0.066   9.527
  536POPC   PO411352  16.144   0.621   9.327
  536POPC   GL111353  15.975   0.253   9.089
  536POPC   GL211354  16.295   0.026   9.084
  536POPC   C1A11355  15.770   0.318   8.651
  536POPC   D2A11356  15.871   0.681   8.388
  536POPC   C3A11357  15.923   0.584   7.960
  536POPC   C4A11358  15.645   0.461   7.634
  536POPC   C1B11359  16.286   0.282   8.694
  536POPC   C2B11360  16.185   0.247   8.266
  536POPC   C3B11361  16.041   0.083   7.861
  536POPC   C4B11362  16.056   0.253   7.443
  537POPC   NC311363  44.463   7.673   9.406
  537POPC   PO411364  44.156   8.172   9.588
  537POPC   GL111365  44.436   8.138   9.175
  537POPC   GL211366  44.756   8.060   9.100
  537POPC   C1A11367  44.450   7.920   8.740
  537POPC   D2A11368  44.782   8.007   8.439
  537POPC   C3A11369  44.569   8.223   8.095
  537POPC   C4A11370  44.271   7.980   7.862
  537POPC   C1B11371  44.772   8.412   8.839
  537POPC   C2B11372  44.903   8.517   8.436
  537POPC   C3B11373   0.075   8.274   8.104
  537POPC   C4B11374  44.916   8.476   7.753
  538POPC   NC311375   2.733  39.428   9.610
  538POPC   PO411376   2.335  38.953   9.399
  538POPC   GL111377   2.620  39.157   9.136
  538POPC   GL211378   2.785  39.485   9.095
  538POPC   C1A11379   2.673  39.178   8.706
  538POPC   D2A11380   2.890  39.122   8.371
  538POPC   C3A11381   2.634  39.159   8.043
  538POPC   C4A11382   2.762  39.026   7.675
  538POPC   C1B11383   2.828  39.653   8.662
  538POPC   C2B11384   2.760  39.623   8.202
  538POPC   C3B11385   2.764  39.550   7.739
  538POPC   C4B11386   2.930  39.795   7.385
  539POPC   NC311387   4.803   9.370   9.408
  539POPC   PO411388   5.423   9.741   9.594
  539POPC   GL111389   5.199   9.840   9.185
  539POPC   GL211390   4.898   9.695   9.052
  539POPC   C1A11391   5.252   9.738   8.720
  539POPC   D2A11392   5.045   9.946   8.360
  539POPC   C3A11393   5.118   9.725   7.975
  539POPC   C4A11394   5.079   9.697   7.530
  539POPC   C1B11395   4.754   9.604   8.636
  539POPC   C2B11396   4.717   9.519   8.212
  539POPC   C3B11397   4.642   9.561   7.755
  539POPC   C4B11398   4.663   9.565   7.301
  540POPC   NC311399   4.611  14.212   9.537
  540POPC   PO411400   3.867  14.369   9.472
  540POPC   GL111401   4.228  14.398   9.206
  540POPC   GL211402   4.065  14.121   9.062
  540POPC   C1A11403   4.421  14.434   8.769
  540POPC   D2A11404   4.148  14.521   8.391
  540POPC   C3A11405   4.112  14.824   8.034
  540POPC   C4A11406   4.211  14.730   7.592
  540POPC   C1B11407   4.182  13.995   8.669
  540POPC   C2B11408   4.449  14.110   8.331
  540POPC   C3B11409   4.283  14.304   7.948
  540POPC   C4B11410   4.000  14.258   7.622
  541POPC   NC311411  26.523  15.382   9.485
  541POPC   PO411412  26.060  14.913   9.450
  541POPC   GL111413  26.168  15.231   9.143
  541POPC   GL211414  25.850  15.336   9.107
  541POPC   C1A11415  26.297  15.332   8.710
  541POPC   D2A11416  26.267  15.069   8.283
  541POPC   C3A11417  26.261  15.149   7.783
  541POPC   C4A11418  26.406  15.202   7.328
  541POPC   C1B11419  25.868  15.081   8.742
  541POPC   C2B11420  25.860  15.380   8.409
  541POPC   C3B11421  25.820  15.257   8.021
  541POPC   C4B11422  25.614  14.957   7.821
  542POPC   NC311423  17.760  43.125   9.277
  542POPC   PO411424  18.319  43.152   9.588
  542POPC   GL111425  18.288  43.072   9.182
  542POPC   GL211426  18.526  42.826   9.176
  542POPC   C1A11427  18.368  43.182   8.773
  542POPC   D2A11428  18.138  43.149   8.402
  542POPC   C3A11429  18.376  43.218   8.047
  542POPC   C4A11430  18.211  43.456   7.731
  542POPC   C1B11431  18.516  42.693   8.783
  542POPC   C2B11432  18.574  42.837   8.386
  542POPC   C3B11433  18.606  42.751   7.974
  542POPC   C4B11434  18.479  42.982   7.595
  543POPC   NC311435  42.947   6.814   9.487
  543POPC   PO411436  43.178   6.171   9.390
  543POPC   GL111437  42.974   6.409   9.103
  543POPC   GL211438  43.183   6.680   8.955
  543POPC   C1A11439  42.835   6.407   8.682
  543POPC   D2A11440  43.026   6.708   8.436
  543POPC   C3A11441  43.115   6.602   8.042
  543POPC   C4A11442  42.829   6.532   7.694
  543POPC   C1B11443  43.492   6.823   8.622
  543POPC   C2B11444  43.594   6.636   8.215
  543POPC   C3B11445  43.547   6.720   7.744
  543POPC   C4B11446  43.404   6.975   7.353
  544POPC   NC311447   3.732  40.686   9.677
  544POPC   PO411448   3.279  41.049   9.334
  544POPC   GL111449   3.704  40.909   9.210
  544POPC   GL211450   3.829  40.522   9.198
  544POPC   C1A11451   3.807  41.053   8.793
  544POPC   D2A11452   3.617  40.806   8.495
  544POPC   C3A11453   3.446  40.869   8.099
  544POPC   C4A11454   3.644  40.812   7.714
  544POPC   C1B11455   3.451  40.562   8.936
  544POPC   C2B11456   3.204  40.537   8.544
  544POPC   C3B11457   3.222  40.413   8.124
  544POPC   C4B11458   3.215  40.555   7.711
  545POPC   NC311459  21.186  42.951   9.358
  545POPC   PO411460  21.593  43.155   9.772
  545POPC   GL111461  21.596  43.276   9.292
  545POPC   GL211462  21.287  43.434   9.187
  545POPC   C1A11463  21.646  43.203   8.809
  545POPC   D2A11464  21.741  42.928   8.384
  545POPC   C3A11465  21.623  43.116   7.964
  545POPC   C4A11466  21.554  43.022   7.498
  545POPC   C1B11467  21.145  43.296   8.784
  545POPC   C2B11468  21.288  43.173   8.404
  545POPC   C3B11469  21.105  43.064   8.047
  545POPC   C4B11470  21.205  43.313   7.728
  546POPC   NC311471  22.334  24.950   9.481
  546POPC   PO411472  22.015  24.410   9.556
  546POPC   GL111473  22.019  24.572   9.158
  546POPC   GL211474  22.365  24.574   9.137
  546POPC   C1A11475  22.099  24.503   8.703
  546POPC   D2A11476  22.363  24.403   8.344
  546POPC   C3A11477  22.096  24.360   7.967
  546POPC   C4A11478  21.917  24.317   7.560
  546POPC   C1B11479  22.478  24.853   8.801
  546POPC   C2B11480  22.605  24.868   8.381
  546POPC   C3B11481  22.471  24.734   7.973
  546POPC   C4B11482  22.621  24.362   7.846
  547POPC   NC311483  21.151  18.607   9.589
  547POPC   PO411484  21.454  17.967   9.669
  547POPC   GL111485  21.448  18.261   9.323
  547POPC   GL211486  21.109  18.188   9.261
  547POPC   C1A11487  21.455  18.285   8.853
  547POPC   D2A11488  21.607  18.476   8.456
  547POPC   C3A11489  21.486  18.351   8.066
  547POPC   C4A11490  21.602  18.444   7.665
  547POPC   C1B11491  20.999  18.483   8.948
  547POPC   C2B11492  21.046  18.478   8.490
  547POPC   C3B11493  20.983  18.512   8.035
  547POPC   C4B11494  21.020  18.235   7.687
  548POPC   NC311495  26.331   4.185   9.667
  548POPC   PO411496  26.228   4.791   9.475
  548POPC   GL111497  26.163   4.415   9.206
  548POPC   GL211498  26.417   4.161   9.159
  548POPC   C1A11499  26.131   4.420   8.750
  548POPC   D2A11500  26.259   4.464   8.321
  548POPC   C3A11501  26.025   4.307   7.932
  548POPC   C4A11502  26.034   4.410   7.480
  548POPC   C1B11503  26.211   3.933   8.841
  548POPC   C2B11504  26.012   4.001   8.428
  548POPC   C3B11505  25.886   3.819   8.042
  548POPC   C4B11506  26.114   3.862   7.691
  549POPC   NC311507  11.653  20.750   9.780
  549POPC   PO411508  11.065  20.594   9.563
  549POPC   GL111509  11.402  20.643   9.273
  549POPC   GL211510  11.349  20.377   9.007
  549POPC   C1A11511  11.406  20.861   8.879
  549POPC   D2A11512  11.112  20.883   8.563
  549POPC   C3A11513  11.305  20.773   8.194
  549POPC   C4A11514  11.242  20.932   7.775
  549POPC   C1B11515  11.203  20.301   8.594
  549POPC   C2B11516  10.858  20.115   8.362
  549POPC   C3B11517  10.942  20.206   7.942
  549POPC   C4B11518  11.315  20.425   7.768
  550POPC   NC311519   8.121  44.186   9.462
  550POPC   PO411520   7.977  43.531   9.478
  550POPC   GL111521   8.192  43.747   9.163
  550POPC   GL211522   8.077  44.030   8.982
  550POPC   C1A11523   8.394  43.676   8.788
  550POPC   D2A11524   8.090  43.633   8.452
  550POPC   C3A11525   8.188  43.845   8.101
  550POPC   C4A11526   8.361  43.640   7.763
  550POPC   C1B11527   7.780  43.994   8.646
  550POPC   C2B11528   7.630  43.778   8.282
  550POPC   C3B11529   7.684  44.005   7.940
  550POPC   C4B11530   7.976  43.963   7.640
  551POPC   NC311531  40.674  23.463   9.420
  551POPC   PO411532  40.634  22.760   9.519
  551POPC   GL111533  40.727  22.980   9.158
  551POPC   GL211534  40.521  23.219   9.015
  551POPC   C1A11535  40.873  22.961   8.726
  551POPC   D2A11536  40.866  23.145   8.320
  551POPC   C3A11537  40.680  22.958   7.976
  551POPC   C4A11538  40.816  22.985   7.544
  551POPC   C1B11539  40.593  23.412   8.643
  551POPC   C2B11540  40.435  23.400   8.213
  551POPC   C3B11541  40.443  23.364   7.772
  551POPC   C4B11542  40.387  23.197   7.348
  552POPC   NC311543   5.843  22.595   9.597
  552POPC   PO411544   6.197  22.000   9.663
  552POPC   GL111545   6.026  21.950   9.206
  552POPC   GL211546   5.804  22.232   9.158
  552POPC   C1A11547   5.744  21.759   8.867
  552POPC   D2A11548   5.696  21.565   8.429
  552POPC   C3A11549   5.669  21.834   8.012
  552POPC   C4A11550   5.506  22.212   7.790
  552POPC   C1B11551   5.926  22.212   8.698
  552POPC   C2B11552   5.797  22.278   8.246
  552POPC   C3B11553   5.959  22.451   7.847
  552POPC   C4B11554   6.306  22.377   7.538
  553POPC   NC311555  31.946  16.997   9.508
  553POPC   PO411556  32.529  16.602   9.465
  553POPC   GL111557  32.369  16.895   9.123
  553POPC   GL211558  32.011  16.910   9.024
  553POPC   C1A11559  32.374  16.919   8.681
  553POPC   D2A11560  32.598  16.760   8.345
  553POPC   C3A11561  32.484  16.951   7.977
  553POPC   C4A11562  32.124  17.112   7.798
  553POPC   C1B11563  31.941  16.668   8.652
  553POPC   C2B11564  32.099  16.728   8.223
  553POPC   C3B11565  32.212  16.548   7.794
  553POPC   C4B11566  32.008  16.268   7.460
  554POPC   NC311567   5.835  30.579   9.798
  554POPC   PO411568   5.809  31.186   9.597
  554POPC   GL111569   5.846  30.777   9.284
  554POPC   GL211570   6.140  30.509   9.246
  554POPC   C1A11571   6.020  30.817   8.831
  554POPC   D2A11572   5.948  31.044   8.430
  554POPC   C3A11573   5.872  30.908   7.991
  554POPC   C4A11574   5.980  30.778   7.549
  554POPC   C1B11575   5.955  30.310   8.860
  554POPC   C2B11576   5.987  30.484   8.411
  554POPC   C3B11577   6.026  30.429   7.950
  554POPC   C4B11578   5.664  30.399   7.642
  555POPC   NC311579  29.108  23.250   9.774
  555POPC   PO411580  28.845  22.635   9.588
  555POPC   GL111581  28.970  22.699   9.170
  555POPC   GL211582  29.054  23.042   9.205
  555POPC   C1A11583  28.875  22.730   8.752
  555POPC   D2A11584  29.089  22.950   8.432
  555POPC   C3A11585  29.061  22.790   8.023
  555POPC   C4A11586  29.380  22.906   7.772
  555POPC   C1B11587  28.875  23.228   8.818
  555POPC   C2B11588  28.581  23.113   8.509
  555POPC   C3B11589  28.689  23.119   8.081
  555POPC   C4B11590  29.019  23.280   7.792
  556POPC   NC311591  39.008   2.115   9.883
  556POPC   PO411592  38.327   2.052   9.723
  556POPC   GL111593  38.345   2.068   9.232
  556POPC   GL211594  38.669   1.981   9.076
  556POPC   C1A11595  38.369   2.191   8.745
  556POPC   D2A11596  38.400   2.028   8.314
  556POPC   C3A11597  38.257   2.192   7.943
  556POPC   C4A11598  38.237   2.059   7.519
  556POPC   C1B11599  38.686   1.768   8.650
  556POPC   C2B11600  38.787   1.718   8.199
  556POPC   C3B11601  38.722   1.935   7.828
  556POPC   C4B11602  38.608   1.720   7.473
  557POPC   NC311603  20.143  40.673   9.483
  557POPC   PO411604  20.736  40.912   9.751
  557POPC   GL111605  20.733  40.914   9.266
  557POPC   GL211606  20.472  40.695   9.096
  557POPC   C1A11607  20.860  41.117   8.877
  557POPC   D2A11608  20.856  41.136   8.442
  557POPC   C3A11609  20.874  40.781   8.194
  557POPC   C4A11610  20.676  40.875   7.800
  557POPC   C1B11611  20.584  40.716   8.663
  557POPC   C2B11612  20.372  40.826   8.268
  557POPC   C3B11613  20.287  40.586   7.899
  557POPC   C4B11614  20.373  40.626   7.469
  558POPC   NC311615   1.841  36.509   9.480
  558POPC   PO411616   2.266  36.067   9.747
  558POPC   GL111617   2.115  36.089   9.268
  558POPC   GL211618   1.766  36.134   9.139
  558POPC   C1A11619   2.209  36.280   8.842
  558POPC   D2A11620   1.916  36.454   8.567
  558POPC   C3A11621   1.971  36.453   8.092
  558POPC   C4A11622   1.789  36.334   7.675
  558POPC   C1B11623   1.851  35.946   8.746
  558POPC   C2B11624   2.106  35.956   8.374
  558POPC   C3B11625   2.062  35.953   7.918
  558POPC   C4B11626   1.757  35.831   7.576
  559POPC   NC311627  42.900  40.529   9.444
  559POPC   PO411628  43.010  41.160   9.726
  559POPC   GL111629  43.205  40.966   9.345
  559POPC   GL211630  42.893  40.966   9.165
  559POPC   C1A11631  43.318  40.987   8.883
  559POPC   D2A11632  43.267  41.081   8.446
  559POPC   C3A11633  43.374  40.794   8.067
  559POPC   C4A11634  43.105  40.927   7.708
  559POPC   C1B11635  42.973  40.592   8.839
  559POPC   C2B11636  43.106  40.578   8.455
  559POPC   C3B11637  42.866  40.713   8.095
  559POPC   C4B11638  42.975  40.432   7.735
  560POPC   NC311639   9.592   2.714   9.401
  560POPC   PO411640  10.214   2.984   9.383
  560POPC   GL111641   9.974   2.728   9.033
  560POPC   GL211642   9.582   2.805   8.908
  560POPC   C1A11643   9.945   2.700   8.569
  560POPC   D2A11644   9.759   3.080   8.395
  560POPC   C3A11645   9.979   3.251   8.077
  560POPC   C4A11646  10.026   2.999   7.725
  560POPC   C1B11647   9.599   2.372   8.815
  560POPC   C2B11648   9.624   2.205   8.425
  560POPC   C3B11649   9.715   2.428   8.099
  560POPC   C4B11650   9.737   2.582   7.714
  561POPC   NC311651   5.788  43.371   9.611
  561POPC   PO411652   6.281  43.719   9.340
  561POPC   GL111653   5.841  43.660   9.192
  561POPC   GL211654   5.631  43.949   9.254
  561POPC   C1A11655   5.616  43.706   8.817
  561POPC   D2A11656   5.751  43.920   8.449
  561POPC   C3A11657   5.745  43.772   8.038
  561POPC   C4A11658   5.486  43.565   7.764
  561POPC   C1B11659   5.955  44.088   8.895
  561POPC   C2B11660   6.203  44.165   8.485
  561POPC   C3B11661   6.099  44.185   8.034
  561POPC   C4B11662   6.133  44.491   7.685
  562POPC   NC311663  23.503   9.899   9.503
  562POPC   PO411664  24.006   9.530   9.497
  562POPC   GL111665  23.791   9.667   9.139
  562POPC   GL211666  23.408   9.591   9.124
  562POPC   C1A11667  23.760   9.575   8.713
  562POPC   D2A11668  23.878   9.787   8.373
  562POPC   C3A11669  23.820   9.567   8.045
  562POPC   C4A11670  24.120   9.690   7.798
  562POPC   C1B11671  23.313   9.823   8.756
  562POPC   C2B11672  23.383   9.699   8.349
  562POPC   C3B11673  23.493   9.941   8.003
  562POPC   C4B11674  23.594   9.779   7.606
  563POPC   NC311675  44.059   0.227   9.468
  563POPC   PO411676  43.646   0.749   9.474
  563POPC   GL111677  43.905   0.622   9.144
  563POPC   GL211678  43.764   0.302   9.068
  563POPC   C1A11679  44.009   0.565   8.711
  563POPC   D2A11680  43.853   0.664   8.327
  563POPC   C3A11681  44.141   0.587   7.989
  563POPC   C4A11682  44.035   0.325   7.646
  563POPC   C1B11683  43.507   0.381   8.715
  563POPC   C2B11684  43.485   0.238   8.318
  563POPC   C3B11685  43.587   0.454   7.943
  563POPC   C4B11686  43.547   0.272   7.565
  564POPC   NC311687   6.741   1.928   9.762
  564POPC   PO411688   7.285   2.127   9.569
  564POPC   GL111689   6.988   2.061   9.224
  564POPC   GL211690   6.990   1.710   9.261
  564POPC   C1A11691   6.782   2.106   8.781
  564POPC   D2A11692   6.578   2.063   8.345
  564POPC   C3A11693   6.603   2.311   7.939
  564POPC   C4A11694   6.693   2.174   7.504
  564POPC   C1B11695   7.081   1.690   8.787
  564POPC   C2B11696   6.975   1.727   8.315
  564POPC   C3B11697   6.736   1.796   7.914
  564POPC   C4B11698   6.747   1.648   7.490
  565POPC   NC311699  22.373  38.795   9.518
  565POPC   PO411700  22.001  38.295   9.410
  565POPC   GL111701  22.314  38.441   9.167
  565POPC   GL211702  22.096  38.728   9.105
  565POPC   C1A11703  22.442  38.506   8.766
  565POPC   D2A11704  22.235  38.275   8.435
  565POPC   C3A11705  22.385  38.310   8.018
  565POPC   C4A11706  22.209  38.090   7.678
  565POPC   C1B11707  21.895  38.493   8.793
  565POPC   C2B11708  21.708  38.543   8.410
  565POPC   C3B11709  21.858  38.322   8.053
  565POPC   C4B11710  21.970  38.528   7.685
  566POPC   NC311711  40.949   1.733   9.266
  566POPC   PO411712  40.705   1.118   9.232
  566POPC   GL111713  40.832   1.287   8.925
  566POPC   GL211714  41.057   1.164   8.727
  566POPC   C1A11715  40.598   1.335   8.570
  566POPC   D2A11716  40.526   1.645   8.283
  566POPC   C3A11717  40.755   1.467   7.957
  566POPC   C4A11718  40.675   1.435   7.519
  566POPC   C1B11719  40.959   1.096   8.313
  566POPC   C2B11720  40.550   1.024   8.142
  566POPC   C3B11721  40.641   0.996   7.745
  566POPC   C4B11722  41.090   1.111   7.795
  567POPC   NC311723  39.878  38.197   9.577
  567POPC   PO411724  40.317  38.647   9.551
  567POPC   GL111725  40.166  38.499   9.202
  567POPC   GL211726  40.266  38.178   9.172
  567POPC   C1A11727  40.097  38.593   8.781
  567POPC   D2A11728  39.994  38.418   8.396
  567POPC   C3A11729  40.117  38.633   8.015
  567POPC   C4A11730  40.002  38.744   7.589
  567POPC   C1B11731  40.379  38.154   8.727
  567POPC   C2B11732  40.219  37.957   8.331
  567POPC   C3B11733  39.982  38.139   7.965
  567POPC   C4B11734  40.203  38.228   7.581
  568POPC   NC311735  19.503  37.495   9.361
  568POPC   PO411736  20.023  37.786   9.388
  568POPC   GL111737  19.878  37.644   9.054
  568POPC   GL211738  19.640  37.924   9.047
  568POPC   C1A11739  20.062  37.489   8.693
  568POPC   D2A11740  20.200  37.659   8.305
  568POPC   C3A11741  19.970  37.490   7.949
  568POPC   C4A11742  20.031  37.503   7.491
  568POPC   C1B11743  19.592  37.720   8.645
  568POPC   C2B11744  19.503  37.652   8.233
  568POPC   C3B11745  19.508  37.632   7.804
  568POPC   C4B11746  19.557  37.650   7.362
  569POPC   NC311747  40.902  20.151   9.437
  569POPC   PO411748  40.488  19.636   9.419
  569POPC   GL111749  40.714  19.808   9.095
  569POPC   GL211750  40.510  20.105   9.088
  569POPC   C1A11751  40.898  19.970   8.726
  569POPC   D2A11752  40.699  19.868   8.332
  569POPC   C3A11753  40.896  19.795   7.928
  569POPC   C4A11754  40.735  19.813   7.512
  569POPC   C1B11755  40.666  20.423   8.808
  569POPC   C2B11756  40.847  20.385   8.409
  569POPC   C3B11757  40.706  20.278   7.979
  569POPC   C4B11758  40.454  20.255   7.603
  570POPC   NC311759  11.624  27.286   9.835
  570POPC   PO411760  11.487  26.725   9.492
  570POPC   GL111761  11.338  26.684   9.108
  570POPC   GL211762  11.526  26.456   9.021
  570POPC   C1A11763  11.314  26.883   8.704
  570POPC   D2A11764  10.991  27.106   8.488
  570POPC   C3A11765  11.126  27.191   8.037
  570POPC   C4A11766  11.163  26.849   7.736
  570POPC   C1B11767  11.105  26.418   8.746
  570POPC   C2B11768  11.103  26.609   8.317
  570POPC   C3B11769  11.479  26.637   8.094
  570POPC   C4B11770  11.632  26.620   7.664
  571POPC   NC311771  18.165  19.774   9.410
  571POPC   PO411772  18.337  20.318   9.538
  571POPC   GL111773  18.373  20.119   9.116
  571POPC   GL211774  17.998  20.045   9.024
  571POPC   C1A11775  18.419  20.005   8.676
  571POPC   D2A11776  18.571  20.148   8.252
  571POPC   C3A11777  18.488  19.895   7.886
  571POPC   C4A11778  18.505  19.441   7.879
  571POPC   C1B11779  17.917  19.711   8.736
  571POPC   C2B11780  17.790  19.651   8.299
  571POPC   C3B11781  18.022  19.672   7.875
  571POPC   C4B11782  17.984  20.012   7.541
  572POPC   NC311783   4.622  10.672   9.447
  572POPC   PO411784   4.266  10.167   9.569
  572POPC   GL111785   4.395  10.319   9.166
  572POPC   GL211786   4.203  10.587   9.145
  572POPC   C1A11787   4.431  10.405   8.720
  572POPC   D2A11788   4.426  10.180   8.321
  572POPC   C3A11789   4.398  10.437   7.927
  572POPC   C4A11790   4.355  10.407   7.428
  572POPC   C1B11791   4.116  10.807   8.776
  572POPC   C2B11792   4.079  10.597   8.368
  572POPC   C3B11793   3.876  10.607   7.948
  572POPC   C4B11794   3.879  10.607   7.490
  573POPC   NC311795  23.332  27.732   9.577
  573POPC   PO411796  23.870  27.460   9.413
  573POPC   GL111797  23.754  27.623   9.049
  573POPC   GL211798  23.384  27.589   9.083
  573POPC   C1A11799  23.884  27.766   8.648
  573POPC   D2A11800  23.623  27.803   8.279
  573POPC   C3A11801  23.729  27.610   7.868
  573POPC   C4A11802  23.945  27.761   7.462
  573POPC   C1B11803  23.429  27.476   8.655
  573POPC   C2B11804  23.479  27.226   8.272
  573POPC   C3B11805  23.418  27.173   7.829
  573POPC   C4B11806  23.247  27.537   7.680
  574POPC   NC311807  21.294  26.179   9.594
  574POPC   PO411808  21.574  25.754   9.196
  574POPC   GL111809  21.210  25.984   9.109
  574POPC   GL211810  21.195  26.385   9.135
  574POPC   C1A11811  20.988  26.103   8.749
  574POPC   D2A11812  21.051  26.375   8.396
  574POPC   C3A11813  21.155  26.115   8.061
  574POPC   C4A11814  21.081  25.898   7.685
  574POPC   C1B11815  21.435  26.341   8.749
  574POPC   C2B11816  21.712  26.199   8.415
  574POPC   C3B11817  21.651  26.045   7.993
  574POPC   C4B11818  21.467  26.218   7.626
  575POPC   NC311819   9.667  33.015   9.417
  575POPC   PO411820   9.952  32.817   8.842
  575POPC   GL111821   9.834  33.203   8.981
  575POPC   GL211822  10.128  33.390   9.061
  575POPC   C1A11823   9.474  33.340   8.788
  575POPC   D2A11824   9.555  33.453   8.376
  575POPC   C3A11825   9.498  33.099   8.150
  575POPC   C4A11826   9.463  33.021   7.719
  575POPC   C1B11827  10.039  33.491   8.591
  575POPC   C2B11828  10.001  33.283   8.153
  575POPC   C3B11829   9.993  33.086   7.718
  575POPC   C4B11830  10.147  33.185   7.254
  576POPC   NC311831  41.353  33.492   9.707
  576POPC   PO411832  41.604  32.845   9.540
  576POPC   GL111833  41.564  33.052   9.192
  576POPC   GL211834  41.229  32.949   9.221
  576POPC   C1A11835  41.599  33.095   8.762
  576POPC   D2A11836  41.366  33.272   8.448
  576POPC   C3A11837  41.587  33.103   8.153
  576POPC   C4A11838  41.591  33.040   7.741
  576POPC   C1B11839  41.127  32.858   8.832
  576POPC   C2B11840  41.048  32.890   8.438
  576POPC   C3B11841  41.177  32.821   8.049
  576POPC   C4B11842  41.103  32.919   7.655
  577POPC   NC311843   9.644  41.620   9.544
  577POPC   PO411844   9.358  41.174   9.422
  577POPC   GL111845   9.612  41.417   9.074
  577POPC   GL211846   9.650  41.797   9.063
  577POPC   C1A11847   9.814  41.511   8.659
  577POPC   D2A11848  10.114  41.663   8.334
  577POPC   C3A11849  10.010  41.588   7.872
  577POPC   C4A11850  10.021  41.535   7.403
  577POPC   C1B11851   9.943  42.003   8.782
  577POPC   C2B11852  10.108  42.170   8.398
  577POPC   C3B11853  10.162  42.080   7.959
  577POPC   C4B11854   9.901  42.014   7.602
  578POPC   NC311855  16.154  21.456   9.430
  578POPC   PO411856  15.566  21.169   9.620
  578POPC   GL111857  15.712  21.246   9.181
  578POPC   GL211858  15.789  21.563   9.073
  578POPC   C1A11859  15.991  21.213   8.780
  578POPC   D2A11860  16.142  21.418   8.392
  578POPC   C3A11861  15.947  21.391   7.983
  578POPC   C4A11862  16.073  21.200   7.626
  578POPC   C1B11863  15.630  21.746   8.720
  578POPC   C2B11864  15.602  21.568   8.312
  578POPC   C3B11865  15.656  21.805   7.917
  578POPC   C4B11866  15.564  21.910   7.467
  579POPC   NC311867   9.645  27.446   9.469
  579POPC   PO411868  10.162  27.778   9.354
  579POPC   GL111869   9.866  27.642   9.031
  579POPC   GL211870   9.778  27.288   9.023
  579POPC   C1A11871   9.486  27.717   8.779
  579POPC   D2A11872   9.345  27.607   8.346
  579POPC   C3A11873   9.568  27.893   8.125
  579POPC   C4A11874   9.754  27.874   7.733
  579POPC   C1B11875   9.563  27.237   8.667
  579POPC   C2B11876   9.605  27.153   8.238
  579POPC   C3B11877   9.760  27.305   7.832
  579POPC   C4B11878   9.873  27.461   7.414
  580POPC   NC311879  42.547  20.811   9.463
  580POPC   PO411880  42.054  20.422   9.445
  580POPC   GL111881  42.321  20.494   9.092
  580POPC   GL211882  42.698  20.481   9.106
  580POPC   C1A11883  42.189  20.500   8.678
  580POPC   D2A11884  42.187  20.271   8.321
  580POPC   C3A11885  42.173  20.503   7.962
  580POPC   C4A11886  42.431  20.534   7.582
  580POPC   C1B11887  42.646  20.738   8.733
  580POPC   C2B11888  42.532  20.665   8.287
  580POPC   C3B11889  42.773  20.751   7.897
  580POPC   C4B11890  42.868  20.776   7.419
  581POPC   NC311891  13.332  15.759   9.543
  581POPC   PO411892  13.827  16.187   9.350
  581POPC   GL111893  13.559  16.135   9.054
  581POPC   GL211894  13.517  15.775   9.080
  581POPC   C1A11895  13.614  16.276   8.634
  581POPC   D2A11896  13.774  16.081   8.252
  581POPC   C3A11897  13.654  16.060   7.805
  581POPC   C4A11898  13.826  16.005   7.380
  581POPC   C1B11899  13.674  15.725   8.669
  581POPC   C2B11900  13.957  15.616   8.344
  581POPC   C3B11901  13.870  15.627   7.929
  581POPC   C4B11902  13.927  15.516   7.530
  582POPC   NC311903  29.789  39.451   9.587
  582POPC   PO411904  30.374  39.624   9.379
  582POPC   GL111905  30.014  39.475   9.111
  582POPC   GL211906  29.634  39.353   9.095
  582POPC   C1A11907  29.981  39.485   8.679
  582POPC   D2A11908  30.042  39.141   8.396
  582POPC   C3A11909  29.803  39.184   8.038
  582POPC   C4A11910  29.885  39.165   7.607
  582POPC   C1B11911  29.681  39.062   8.751
  582POPC   C2B11912  29.451  39.003   8.377
  582POPC   C3B11913  29.461  38.795   7.946
  582POPC   C4B11914  29.380  39.098   7.607
  583POPC   NC311915   9.928   0.755   9.430
  583POPC   PO411916   9.630   1.307   9.568
  583POPC   GL111917   9.723   1.141   9.172
  583POPC   GL211918   9.568   0.825   9.080
  583POPC   C1A11919   9.955   1.084   8.818
  583POPC   D2A11920  10.079   1.253   8.438
  583POPC   C3A11921   9.945   1.303   8.028
  583POPC   C4A11922  10.009   1.668   7.820
  583POPC   C1B11923   9.306   0.788   8.751
  583POPC   C2B11924   9.260   1.024   8.407
  583POPC   C3B11925   9.303   0.962   7.989
  583POPC   C4B11926   9.694   0.925   7.790
  584POPC   NC311927   8.984  20.416   9.956
  584POPC   PO411928   8.958  20.720   9.372
  584POPC   GL111929   8.795  20.639   9.010
  584POPC   GL211930   8.911  20.325   9.039
  584POPC   C1A11931   8.783  20.847   8.637
  584POPC   D2A11932   8.850  20.774   8.186
  584POPC   C3A11933   8.710  20.748   7.759
  584POPC   C4A11934   8.652  20.482   7.360
  584POPC   C1B11935   9.162  20.489   8.673
  584POPC   C2B11936   9.208  20.396   8.239
  584POPC   C3B11937   9.142  20.414   7.781
  584POPC   C4B11938   9.246  20.090   7.518
  585POPC   NC311939  36.155  35.912   9.412
  585POPC   PO411940  36.449  36.471   9.472
  585POPC   GL111941  36.419  36.323   9.051
  585POPC   GL211942  36.348  35.978   8.955
  585POPC   C1A11943  36.365  36.333   8.606
  585POPC   D2A11944  36.400  36.559   8.236
  585POPC   C3A11945  36.184  36.276   7.994
  585POPC   C4A11946  35.765  36.218   7.806
  585POPC   C1B11947  36.001  35.937   8.662
  585POPC   C2B11948  35.898  35.928   8.225
  585POPC   C3B11949  36.104  35.791   7.839
  585POPC   C4B11950  36.237  35.688   7.395
  586POPC   NC311951  14.600  22.618   9.185
  586POPC   PO411952  14.178  23.006   9.558
  586POPC   GL111953  14.234  23.008   9.151
  586POPC   GL211954  14.095  22.657   9.107
  586POPC   C1A11955  14.559  23.179   8.863
  586POPC   D2A11956  14.766  23.207   8.477
  586POPC   C3A11957  14.490  23.056   8.153
  586POPC   C4A11958  14.638  22.796   7.847
  586POPC   C1B11959  14.165  22.791   8.671
  586POPC   C2B11960  14.065  22.738   8.236
  586POPC   C3B11961  14.098  22.760   7.810
  586POPC   C4B11962  14.033  22.518   7.444
  587POPC   NC311963  39.167  29.523   9.808
  587POPC   PO411964  38.949  29.024   9.401
  587POPC   GL111965  38.944  29.092   9.031
  587POPC   GL211966  39.203  29.312   9.065
  587POPC   C1A11967  38.985  29.173   8.619
  587POPC   D2A11968  39.273  29.035   8.356
  587POPC   C3A11969  39.080  29.107   7.999
  587POPC   C4A11970  39.044  28.942   7.585
  587POPC   C1B11971  39.456  29.318   8.743
  587POPC   C2B11972  39.716  29.419   8.407
  587POPC   C3B11973  39.689  29.141   8.067
  587POPC   C4B11974  39.502  29.102   7.693
  588POPC   NC311975   6.805  17.833   9.500
  588POPC   PO411976   6.439  18.497   9.622
  588POPC   GL111977   6.585  18.444   9.230
  588POPC   GL211978   6.497  18.116   9.197
  588POPC   C1A11979   6.639  18.395   8.786
  588POPC   D2A11980   6.659  18.175   8.390
  588POPC   C3A11981   6.459  18.347   8.022
  588POPC   C4A11982   6.674  18.577   7.685
  588POPC   C1B11983   6.318  17.992   8.806
  588POPC   C2B11984   6.275  17.830   8.386
  588POPC   C3B11985   6.493  17.826   8.023
  588POPC   C4B11986   6.420  18.027   7.641
  589POPC   NC311987  12.896  40.368   9.482
  589POPC   PO411988  12.738  39.693   9.409
  589POPC   GL111989  12.786  40.043   9.076
  589POPC   GL211990  12.597  40.394   9.069
  589POPC   C1A11991  12.965  39.930   8.684
  589POPC   D2A11992  13.171  39.774   8.331
  589POPC   C3A11993  13.111  40.015   7.958
  589POPC   C4A11994  12.980  40.088   7.559
  589POPC   C1B11995  12.618  40.310   8.612
  589POPC   C2B11996  12.684  40.016   8.253
  589POPC   C3B11997  12.626  39.813   7.846
  589POPC   C4B11998  12.472  40.138   7.570
  590POPC   NC311999   3.773  21.658   9.522
  590POPC   PO412000   4.411  21.394   9.494
  590POPC   GL112001   4.216  21.198   9.130
  590POPC   GL212002   4.519  21.051   9.015
  590POPC   C1A12003   4.259  21.378   8.703
  590POPC   D2A12004   3.990  21.577   8.370
  590POPC   C3A12005   4.167  21.644   7.965
  590POPC   C4A12006   4.205  21.394   7.608
  590POPC   C1B12007   4.595  20.998   8.599
  590POPC   C2B12008   4.727  21.276   8.339
  590POPC   C3B12009   4.555  21.289   7.975
  590POPC   C4B12010   4.587  21.041   7.628
  591POPC   NC312011  24.598  22.338   9.475
  591POPC   PO412012  24.348  21.674   9.491
  591POPC   GL112013  24.234  22.005   9.169
  591POPC   GL212014  24.151  22.377   9.171
  591POPC   C1A12015  24.352  22.172   8.745
  591POPC   D2A12016  24.407  22.051   8.318
  591POPC   C3A12017  24.692  22.157   7.996
  591POPC   C4A12018  24.557  22.040   7.591
  591POPC   C1B12019  24.217  22.659   8.780
  591POPC   C2B12020  24.439  22.580   8.360
  591POPC   C3B12021  24.269  22.453   7.934
  591POPC   C4B12022  24.327  22.461   7.479
  592POPC   NC312023  32.256  41.126   9.446
  592POPC   PO412024  31.842  41.599   9.678
  592POPC   GL112025  32.029  41.535   9.213
  592POPC   GL212026  31.932  41.204   9.077
  592POPC   C1A12027  32.403  41.482   8.851
  592POPC   D2A12028  32.638  41.568   8.421
  592POPC   C3A12029  32.424  41.410   8.034
  592POPC   C4A12030  32.419  41.604   7.623
  592POPC   C1B12031  31.910  41.404   8.718
  592POPC   C2B12032  32.075  41.232   8.367
  592POPC   C3B12033  31.857  41.237   7.993
  592POPC   C4B12034  31.911  41.570   7.728
  593POPC   NC312035  30.413  17.274   9.521
  593POPC   PO412036  30.847  17.759   9.705
  593POPC   GL112037  30.618  17.737   9.283
  593POPC   GL212038  30.782  17.469   9.153
  593POPC   C1A12039  30.354  17.588   8.896
  593POPC   D2A12040  30.219  17.580   8.446
  593POPC   C3A12041  30.365  17.503   8.020
  593POPC   C4A12042  30.672  17.611   7.722
  593POPC   C1B12043  30.790  17.355   8.712
  593POPC   C2B12044  30.831  17.458   8.271
  593POPC   C3B12045  30.925  17.214   7.884
  593POPC   C4B12046  30.903  17.254   7.415
  594POPC   NC312047  18.036  44.568   9.487
  594POPC   PO412048  17.458  44.836   9.588
  594POPC   GL112049  17.580  44.650   9.157
  594POPC   GL212050  17.541  44.274   9.146
  594POPC   C1A12051  17.618  44.826   8.720
  594POPC   D2A12052  17.865   0.089   8.409
  594POPC   C3A12053  17.792   0.008   7.957
  594POPC   C4A12054  17.812  44.742   7.563
  594POPC   C1B12055  17.368  44.325   8.726
  594POPC   C2B12056  17.422  44.546   8.313
  594POPC   C3B12057  17.402  44.687   7.867
  594POPC   C4B12058  17.331  44.771   7.399
  595POPC   NC312059  14.841  14.997   9.649
  595POPC   PO412060  15.317  15.443   9.642
  595POPC   GL112061  15.202  15.167   9.299
  595POPC   GL212062  14.883  15.175   9.171
  595POPC   C1A12063  15.281  15.270   8.856
  595POPC   D2A12064  15.446  15.188   8.440
  595POPC   C3A12065  15.293  15.031   8.051
  595POPC   C4A12066  15.315  15.393   7.803
  595POPC   C1B12067  14.768  15.358   8.796
  595POPC   C2B12068  15.003  15.465   8.430
  595POPC   C3B12069  14.876  15.467   8.028
  595POPC   C4B12070  14.746  15.114   7.795
  596POPC   NC312071   3.830  18.402   9.483
  596POPC   PO412072   3.258  18.596   9.376
  596POPC   GL112073   3.462  18.235   9.131
  596POPC   GL212074   3.753  18.407   9.007
  596POPC   C1A12075   3.611  18.132   8.650
  596POPC   D2A12076   3.645  18.373   8.283
  596POPC   C3A12077   3.454  18.140   7.941
  596POPC   C4A12078   3.642  17.987   7.555
  596POPC   C1B12079   3.354  18.553   8.756
  596POPC   C2B12080   3.290  18.739   8.402
  596POPC   C3B12081   3.429  18.740   7.986
  596POPC   C4B12082   3.235  18.554   7.651
  597POPC   NC312083  10.566  27.555   9.486
  597POPC   PO412084  11.008  27.069   9.281
  597POPC   GL112085  10.696  27.296   9.078
  597POPC   GL212086  10.298  27.301   9.114
  597POPC   C1A12087  10.659  27.460   8.696
  597POPC   D2A12088  10.540  27.412   8.272
  597POPC   C3A12089  10.558  27.833   8.067
  597POPC   C4A12090  10.623  27.879   7.614
  597POPC   C1B12091  10.143  27.379   8.668
  597POPC   C2B12092  10.005  27.532   8.244
  597POPC   C3B12093  10.176  27.619   7.818
  597POPC   C4B12094  10.381  27.379   7.528
  598POPC   NC312095   6.681   9.709   9.517
  598POPC   PO412096   6.167   9.527   9.804
  598POPC   GL112097   6.280   9.893   9.305
  598POPC   GL212098   6.648   9.853   9.064
  598POPC   C1A12099   6.268  10.012   8.828
  598POPC   D2A12100   6.628  10.148   8.501
  598POPC   C3A12101   6.554  10.009   8.076
  598POPC   C4A12102   6.493   9.594   7.858
  598POPC   C1B12103   6.988   9.953   8.827
  598POPC   C2B12104   7.074   9.846   8.455
  598POPC   C3B12105   7.089   9.908   8.036
  598POPC   C4B12106   6.999   9.570   7.827
  599POPC   NC312107  39.463  37.710   9.445
  599POPC   PO412108  38.975  37.330   9.717
  599POPC   GL112109  38.918  37.509   9.216
  599POPC   GL212110  39.072  37.850   9.165
  599POPC   C1A12111  39.023  37.571   8.762
  599POPC   D2A12112  39.044  37.394   8.376
  599POPC   C3A12113  39.381  37.539   8.151
  599POPC   C4A12114  39.476  37.650   7.759
  599POPC   C1B12115  39.393  37.940   8.775
  599POPC   C2B12116  39.545  38.115   8.333
  599POPC   C3B12117  39.417  38.131   7.885
  599POPC   C4B12118  39.024  38.033   7.650
  600POPC   NC312119   9.948  29.875   9.921
  600POPC   PO412120   9.364  30.177   9.583
  600POPC   GL112121   9.504  29.858   9.259
  600POPC   GL212122   9.845  29.911   9.236
  600POPC   C1A12123   9.587  29.770   8.793
  600POPC   D2A12124   9.940  29.712   8.451
  600POPC   C3A12125   9.813  29.724   8.030
  600POPC   C4A12126   9.441  29.928   7.848
  600POPC   C1B12127   9.734  30.232   8.914
  600POPC   C2B12128   9.590  30.353   8.505
  600POPC   C3B12129   9.767  30.211   8.130
  600POPC   C4B12130   9.912  30.156   7.720
  601POPC   NC312131  19.568  33.806   9.663
  601POPC   PO412132  18.913  33.777   9.599
  601POPC   GL112133  18.964  33.675   9.166
  601POPC   GL212134  18.946  33.994   9.027
  601POPC   C1A12135  19.011  33.494   8.729
  601POPC   D2A12136  19.048  33.646   8.297
  601POPC   C3A12137  18.832  33.465   7.930
  601POPC   C4A12138  19.038  33.767   7.696
  601POPC   C1B12139  18.830  34.007   8.600
  601POPC   C2B12140  18.981  34.201   8.225
  601POPC   C3B12141  19.272  34.232   7.874
  601POPC   C4B12142  19.245  34.138   7.417
  602POPC   NC312143  12.532  24.694   9.605
  602POPC   PO412144  13.044  24.227   9.353
  602POPC   GL112145  12.848  24.393   8.972
  602POPC   GL212146  12.666  24.639   9.123
  602POPC   C1A12147  12.811  24.312   8.503
  602POPC   D2A12148  13.091  24.054   8.220
  602POPC   C3A12149  13.195  24.230   7.829
  602POPC   C4A12150  12.858  24.499   7.697
  602POPC   C1B12151  12.422  24.591   8.758
  602POPC   C2B12152  12.482  24.704   8.333
  602POPC   C3B12153  12.670  24.889   7.950
  602POPC   C4B12154  12.689  24.927   7.477
  603POPC   NC312155  17.115  28.539   9.421
  603POPC   PO412156  16.658  28.049   9.560
  603POPC   GL112157  16.784  28.165   9.174
  603POPC   GL212158  16.864  27.837   9.120
  603POPC   C1A12159  16.735  28.399   8.784
  603POPC   D2A12160  16.629  28.293   8.350
  603POPC   C3A12161  16.870  28.480   8.005
  603POPC   C4A12162  16.655  28.613   7.635
  603POPC   C1B12163  16.660  27.901   8.709
  603POPC   C2B12164  16.871  27.857   8.314
  603POPC   C3B12165  16.738  28.000   7.885
  603POPC   C4B12166  16.993  28.202   7.556
  604POPC   NC312167  14.126  19.114   9.436
  604POPC   PO412168  14.744  19.089   9.208
  604POPC   GL112169  14.424  19.219   9.025
  604POPC   GL212170  14.276  18.866   9.000
  604POPC   C1A12171  14.453  19.250   8.606
  604POPC   D2A12172  14.301  18.984   8.326
  604POPC   C3A12173  14.408  19.139   7.977
  604POPC   C4A12174  14.105  19.118   7.655
  604POPC   C1B12175  14.595  18.743   8.677
  604POPC   C2B12176  14.810  18.928   8.307
  604POPC   C3B12177  14.817  18.839   7.867
  604POPC   C4B12178  14.623  18.983   7.513
  605POPC   NC312179  22.728  35.270   9.613
  605POPC   PO412180  23.159  35.738   9.459
  605POPC   GL112181  22.920  35.476   9.181
  605POPC   GL212182  23.046  35.127   9.191
  605POPC   C1A12183  22.995  35.502   8.769
  605POPC   D2A12184  23.299  35.486   8.480
  605POPC   C3A12185  23.018  35.547   8.143
  605POPC   C4A12186  22.895  35.605   7.744
  605POPC   C1B12187  23.085  35.002   8.744
  605POPC   C2B12188  22.960  35.081   8.298
  605POPC   C3B12189  23.169  35.132   7.864
  605POPC   C4B12190  23.319  34.967   7.446
  606POPC   NC312191  36.756  21.715   9.765
  606POPC   PO412192  37.075  21.188   9.620
  606POPC   GL112193  36.834  21.354   9.265
  606POPC   GL212194  36.706  21.678   9.241
  606POPC   C1A12195  36.916  21.364   8.821
  606POPC   D2A12196  36.928  21.092   8.487
  606POPC   C3A12197  36.821  21.252   8.078
  606POPC   C4A12198  36.902  21.173   7.611
  606POPC   C1B12199  36.507  21.682   8.832
  606POPC   C2B12200  36.595  21.592   8.429
  606POPC   C3B12201  36.390  21.533   8.045
  606POPC   C4B12202  36.671  21.629   7.729
  607POPC   NC312203  28.931  31.858   9.425
  607POPC   PO412204  29.217  31.290   9.440
  607POPC   GL112205  29.204  31.436   9.057
  607POPC   GL212206  28.943  31.642   8.970
  607POPC   C1A12207  29.462  31.546   8.740
  607POPC   D2A12208  29.431  31.496   8.335
  607POPC   C3A12209  29.592  31.756   8.038
  607POPC   C4A12210  29.356  31.665   7.713
  607POPC   C1B12211  28.956  31.499   8.550
  607POPC   C2B12212  28.705  31.550   8.167
  607POPC   C3B12213  28.837  31.645   7.743
  607POPC   C4B12214  28.777  32.008   7.452
  608POPC   NC312215   6.323  42.265   9.485
  608POPC   PO412216   6.775  41.863   9.386
  608POPC   GL112217   6.631  42.178   9.033
  608POPC   GL212218   6.470  42.500   9.059
  608POPC   C1A12219   6.475  42.321   8.592
  608POPC   D2A12220   6.427  42.441   8.150
  608POPC   C3A12221   6.543  42.188   7.789
  608POPC   C4A12222   6.888  42.043   7.506
  608POPC   C1B12223   6.707  42.773   8.752
  608POPC   C2B12224   6.645  42.876   8.322
  608POPC   C3B12225   6.653  42.791   7.859
  608POPC   C4B12226   6.790  42.551   7.486
  609POPC   NC312227   4.645  18.489   9.250
  609POPC   PO412228   4.089  18.020   9.492
  609POPC   GL112229   4.206  18.191   9.137
  609POPC   GL212230   4.493  18.019   9.155
  609POPC   C1A12231   4.189  18.407   8.732
  609POPC   D2A12232   4.443  18.533   8.396
  609POPC   C3A12233   4.301  18.296   8.072
  609POPC   C4A12234   3.932  18.299   7.822
  609POPC   C1B12235   4.531  18.021   8.759
  609POPC   C2B12236   4.456  17.820   8.373
  609POPC   C3B12237   4.635  17.800   7.996
  609POPC   C4B12238   4.554  18.064   7.701
  610POPC   NC312239  17.962  42.561   9.600
  610POPC   PO412240  18.552  42.251   9.494
  610POPC   GL112241  18.188  42.266   9.224
  610POPC   GL212242  18.045  42.611   9.118
  610POPC   C1A12243  18.210  42.265   8.776
  610POPC   D2A12244  18.504  42.314   8.429
  610POPC   C3A12245  18.313  42.301   8.032
  610POPC   C4A12246  18.530  42.357   7.664
  610POPC   C1B12247  18.013  42.807   8.761
  610POPC   C2B12248  18.099  42.625   8.397
  610POPC   C3B12249  18.099  42.786   8.016
  610POPC   C4B12250  18.107  42.646   7.634
  611POPC   NC312251  40.434  40.540   9.521
  611POPC   PO412252  39.835  40.871   9.673
  611POPC   GL112253  40.056  40.905   9.291
  611POPC   GL212254  40.022  40.559   9.147
  611POPC   C1A12255  39.869  40.976   8.875
  611POPC   D2A12256  39.925  40.597   8.620
  611POPC   C3A12257  39.904  40.543   8.208
  611POPC   C4A12258  39.883  40.502   7.795
  611POPC   C1B12259  40.330  40.774   8.881
  611POPC   C2B12260  40.452  40.803   8.464
  611POPC   C3B12261  40.320  40.794   8.008
  611POPC   C4B12262  40.389  40.736   7.549
  612POPC   NC312263   6.109  14.932   9.431
  612POPC   PO412264   5.544  15.101   9.234
  612POPC   GL112265   5.934  15.086   8.977
  612POPC   GL212266   6.133  15.362   9.072
  612POPC   C1A12267   6.023  15.099   8.536
  612POPC   D2A12268   5.871  14.838   8.201
  612POPC   C3A12269   5.548  15.017   7.940
  612POPC   C4A12270   5.645  15.325   7.664
  612POPC   C1B12271   6.051  15.612   8.728
  612POPC   C2B12272   6.010  15.850   8.355
  612POPC   C3B12273   5.867  15.572   8.069
  612POPC   C4B12274   6.086  15.227   7.881
  613POPC   NC312275  31.265  36.230   9.476
  613POPC   PO412276  31.849  35.948   9.440
  613POPC   GL112277  31.553  36.023   9.048
  613POPC   GL212278  31.237  35.818   9.166
  613POPC   C1A12279  31.531  36.345   8.646
  613POPC   D2A12280  31.671  36.532   8.208
  613POPC   C3A12281  31.847  36.304   7.847
  613POPC   C4A12282  31.911  35.881   7.687
  613POPC   C1B12283  31.094  35.884   8.752
  613POPC   C2B12284  31.447  35.886   8.467
  613POPC   C3B12285  31.535  35.954   8.065
  613POPC   C4B12286  31.345  36.251   7.807
  614POPC   NC312287  38.138  22.932   9.197
  614POPC   PO412288  38.661  22.886   9.612
  614POPC   GL112289  38.639  22.837   9.098
  614POPC   GL212290  38.469  23.143   8.885
  614POPC   C1A12291  38.838  22.896   8.638
  614POPC   D2A12292  38.523  23.135   8.346
  614POPC   C3A12293  38.550  23.061   7.909
  614POPC   C4A12294  38.781  22.783   7.654
  614POPC   C1B12295  38.356  22.742   8.653
  614POPC   C2B12296  38.153  22.681   8.316
  614POPC   C3B12297  38.068  22.882   7.941
  614POPC   C4B12298  38.272  22.823   7.528
  615POPC   NC312299   6.215  18.078   9.635
  615POPC   PO412300   5.863  18.643   9.541
  615POPC   GL112301   6.040  18.382   9.220
  615POPC   GL212302   5.971  18.021   9.196
  615POPC   C1A12303   5.924  18.354   8.789
  615POPC   D2A12304   6.158  18.343   8.436
  615POPC   C3A12305   5.969  18.507   8.069
  615POPC   C4A12306   6.164  18.528   7.642
  615POPC   C1B12307   5.834  17.847   8.806
  615POPC   C2B12308   5.787  17.987   8.381
  615POPC   C3B12309   5.996  17.987   7.955
  615POPC   C4B12310   5.900  17.899   7.501
  616POPC   NC312311  17.967   5.566   9.528
  616POPC   PO412312  18.563   5.813   9.413
  616POPC   GL112313  18.337   5.730   9.011
  616POPC   GL212314  17.982   5.682   9.041
  616POPC   C1A12315  18.166   5.955   8.632
  616POPC   D2A12316  17.980   5.922   8.199
  616POPC   C3A12317  18.193   6.118   7.850
  616POPC   C4A12318  18.411   6.088   7.427
  616POPC   C1B12319  17.846   5.387   8.760
  616POPC   C2B12320  17.799   5.390   8.336
  616POPC   C3B12321  18.107   5.437   8.042
  616POPC   C4B12322  18.300   5.316   7.682
  617POPC   NC312323  20.655  29.395   9.470
  617POPC   PO412324  20.928  28.803   9.544
  617POPC   GL112325  20.727  28.885   9.122
  617POPC   GL212326  20.708  29.152   9.016
  617POPC   C1A12327  20.387  28.884   8.745
  617POPC   D2A12328  20.305  29.014   8.301
  617POPC   C3A12329  20.660  29.022   8.057
  617POPC   C4A12330  20.686  28.850   7.624
  617POPC   C1B12331  20.931  29.497   8.828
  617POPC   C2B12332  20.943  29.636   8.399
  617POPC   C3B12333  20.965  29.479   7.992
  617POPC   C4B12334  20.672  29.346   7.678
  618POPC   NC312335  14.430  21.726   9.750
  618POPC   PO412336  14.713  22.196   9.333
  618POPC   GL112337  14.575  22.127   8.970
  618POPC   GL212338  14.246  21.967   8.952
  618POPC   C1A12339  14.704  21.886   8.656
  618POPC   D2A12340  14.884  22.047   8.328
  618POPC   C3A12341  14.595  21.973   8.062
  618POPC   C4A12342  14.634  21.917   7.660
  618POPC   C1B12343  14.290  22.270   8.582
  618POPC   C2B12344  14.504  22.464   8.229
  618POPC   C3B12345  14.378  22.356   7.821
  618POPC   C4B12346  14.134  22.015   7.766
  619POPC   NC312347   0.143  17.760   9.543
  619POPC   PO412348   0.486  17.312   9.567
  619POPC   GL112349   0.465  17.598   9.149
  619POPC   GL212350   0.204  17.793   9.065
  619POPC   C1A12351   0.526  17.492   8.745
  619POPC   D2A12352   0.685  17.493   8.337
  619POPC   C3A12353   0.447  17.315   8.034
  619POPC   C4A12354   0.571  17.253   7.630
  619POPC   C1B12355   0.271  17.921   8.722
  619POPC   C2B12356   0.177  17.675   8.413
  619POPC   C3B12357   0.046  17.713   8.044
  619POPC   C4B12358   0.243  17.656   7.669
  620POPC   NC312359  42.392  16.935   9.532
  620POPC   PO412360  42.198  17.573   9.557
  620POPC   GL112361  42.447  17.601   9.215
  620POPC   GL212362  42.579  17.263   9.158
  620POPC   C1A12363  42.432  17.716   8.784
  620POPC   D2A12364  42.630  17.610   8.405
  620POPC   C3A12365  42.439  17.593   7.989
  620POPC   C4A12366  42.440  17.534   7.534
  620POPC   C1B12367  42.498  17.188   8.706
  620POPC   C2B12368  42.447  17.157   8.240
  620POPC   C3B12369  42.516  17.097   7.798
  620POPC   C4B12370  42.797  17.094   7.427
  621POPC   NC312371  40.476   0.731   9.239
  621POPC   PO412372  40.791   0.188   9.461
  621POPC   GL112373  40.914   0.379   9.050
  621POPC   GL212374  41.005   0.734   9.070
  621POPC   C1A12375  41.023   0.277   8.616
  621POPC   D2A12376  40.772   0.030   8.282
  621POPC   C3A12377  40.371   0.230   8.193
  621POPC   C4A12378  40.386   0.590   7.905
  621POPC   C1B12379  40.773   0.745   8.659
  621POPC   C2B12380  40.765   0.566   8.260
  621POPC   C3B12381  40.941   0.619   7.867
  621POPC   C4B12382  41.101   0.725   7.450
  622POPC   NC312383  32.589  32.102   9.333
  622POPC   PO412384  31.897  32.101   9.640
  622POPC   GL112385  32.012  32.193   9.234
  622POPC   GL212386  32.250  32.421   9.173
  622POPC   C1A12387  31.997  32.178   8.778
  622POPC   D2A12388  31.997  31.941   8.397
  622POPC   C3A12389  32.207  32.196   8.113
  622POPC   C4A12390  32.127  32.461   7.768
  622POPC   C1B12391  32.476  32.408   8.741
  622POPC   C2B12392  32.576  32.593   8.308
  622POPC   C3B12393  32.610  32.481   7.866
  622POPC   C4B12394  32.530  32.430   7.391
  623POPC   NC312395  27.352  15.933   9.581
  623POPC   PO412396  27.904  16.227   9.555
  623POPC   GL112397  27.606  16.194   9.227
  623POPC   GL212398  27.635  15.874   9.126
  623POPC   C1A12399  27.421  16.227   8.825
  623POPC   D2A12400  27.224  16.072   8.458
  623POPC   C3A12401  27.440  15.999   8.092
  623POPC   C4A12402  27.242  15.757   7.760
  623POPC   C1B12403  27.921  16.161   8.824
  623POPC   C2B12404  27.923  16.265   8.371
  623POPC   C3B12405  27.947  16.039   7.956
  623POPC   C4B12406  27.773  15.648   7.779
  624POPC   NC312407  10.994   1.419   9.439
  624POPC   PO412408  11.409   0.850   9.493
  624POPC   GL112409  11.241   1.021   9.152
  624POPC   GL212410  10.881   0.929   9.159
  624POPC   C1A12411  11.436   1.195   8.768
  624POPC   D2A12412  11.728   1.309   8.419
  624POPC   C3A12413  11.503   1.386   8.017
  624POPC   C4A12414  11.391   1.053   7.725
  624POPC   C1B12415  10.909   1.177   8.790
  624POPC   C2B12416  11.102   1.257   8.374
  624POPC   C3B12417  10.954   1.435   7.998
  624POPC   C4B12418  11.122   1.455   7.571
  625POPC   NC312419   4.730  29.440   9.418
  625POPC   PO412420   4.856  28.752   9.514
  625POPC   GL112421   5.052  28.983   9.174
  625POPC   GL212422   5.174  29.312   9.155
  625POPC   C1A12423   5.189  28.962   8.757
  625POPC   D2A12424   4.985  29.015   8.366
  625POPC   C3A12425   5.137  28.908   7.962
  625POPC   C4A12426   4.859  28.883   7.607
  625POPC   C1B12427   5.382  29.448   8.762
  625POPC   C2B12428   5.333  29.372   8.301
  625POPC   C3B12429   5.075  29.421   7.921
  625POPC   C4B12430   5.094  29.321   7.494
  626POPC   NC312431  18.474   0.247   9.578
  626POPC   PO412432  18.088   0.734   9.584
  626POPC   GL112433  18.241   0.523   9.167
  626POPC   GL212434  18.610   0.457   9.133
  626POPC   C1A12435  18.366   0.680   8.728
  626POPC   D2A12436  18.087   0.644   8.377
  626POPC   C3A12437  18.178   0.522   7.931
  626POPC   C4A12438  18.121   0.553   7.455
  626POPC   C1B12439  18.637   0.240   8.718
  626POPC   C2B12440  18.574   0.342   8.251
  626POPC   C3B12441  18.663   0.117   7.830
  626POPC   C4B12442  18.616   0.297   7.376
  627POPC   NC312443  20.094   7.542   9.881
  627POPC   PO412444  19.546   7.504   9.572
  627POPC   GL112445  19.757   7.464   9.175
  627POPC   GL212446  19.799   7.117   9.076
  627POPC   C1A12447  19.760   7.519   8.720
  627POPC   D2A12448  19.993   7.557   8.332
  627POPC   C3A12449  19.835   7.471   7.921
  627POPC   C4A12450  19.731   7.518   7.506
  627POPC   C1B12451  19.658   7.027   8.634
  627POPC   C2B12452  19.879   7.053   8.235
  627POPC   C3B12453  19.882   6.946   7.807
  627POPC   C4B12454  19.635   6.615   7.626
  628POPC   NC312455  19.594  42.460   9.395
  628POPC   PO412456  19.690  41.879   9.689
  628POPC   GL112457  19.981  42.124   9.255
  628POPC   GL212458  20.000  42.440   9.106
  628POPC   C1A12459  19.896  42.078   8.739
  628POPC   D2A12460  19.524  41.990   8.416
  628POPC   C3A12461  19.515  42.219   8.000
  628POPC   C4A12462  19.811  42.214   7.649
  628POPC   C1B12463  20.188  42.488   8.746
  628POPC   C2B12464  20.242  42.306   8.363
  628POPC   C3B12465  20.207  42.254   7.963
  628POPC   C4B12466  20.142  42.593   7.680
  629POPC   NC312467   2.099  44.380   9.443
  629POPC   PO412468   2.143   0.015   9.346
  629POPC   GL112469   1.980  44.747   8.965
  629POPC   GL212470   2.048  44.376   8.954
  629POPC   C1A12471   1.714  44.523   8.626
  629POPC   D2A12472   1.598  44.362   8.234
  629POPC   C3A12473   1.827  44.608   7.943
  629POPC   C4A12474   1.865   0.076   7.945
  629POPC   C1B12475   2.204  44.106   8.626
  629POPC   C2B12476   2.341  44.146   8.167
  629POPC   C3B12477   2.260  44.365   7.779
  629POPC   C4B12478   2.508  44.455   7.395
  630POPC   NC312479  14.757  20.875   9.600
  630POPC   PO412480  14.249  20.472   9.401
  630POPC   GL112481  14.393  20.537   9.007
  630POPC   GL212482  14.201  20.225   8.917
  630POPC   C1A12483  14.417  20.881   8.689
  630POPC   D2A12484  14.238  21.134   8.334
  630POPC   C3A12485  14.392  20.920   7.960
  630POPC   C4A12486  14.692  20.603   7.798
  630POPC   C1B12487  14.013  20.547   8.673
  630POPC   C2B12488  14.248  20.560   8.298
  630POPC   C3B12489  14.343  20.273   7.973
  630POPC   C4B12490  14.150  20.122   7.625
  631POPC   NC312491  18.449   0.929   9.371
  631POPC   PO412492  17.893   1.276   9.397
  631POPC   GL112493  18.171   1.240   9.067
  631POPC   GL212494  18.512   1.370   9.104
  631POPC   C1A12495  18.087   1.125   8.665
  631POPC   D2A12496  17.961   1.341   8.321
  631POPC   C3A12497  17.947   1.020   8.066
  631POPC   C4A12498  18.170   0.995   7.709
  631POPC   C1B12499  18.606   1.159   8.689
  631POPC   C2B12500  18.428   1.049   8.260
  631POPC   C3B12501  18.636   1.151   7.842
  631POPC   C4B12502  18.430   1.349   7.443
  632POPC   NC312503  37.473  16.944   9.557
  632POPC   PO412504  38.063  16.737   9.456
  632POPC   GL112505  37.747  16.879   9.082
  632POPC   GL212506  37.406  17.016   9.061
  632POPC   C1A12507  37.569  16.840   8.616
  632POPC   D2A12508  37.737  16.978   8.202
  632POPC   C3A12509  37.781  16.599   7.877
  632POPC   C4A12510  37.982  16.402   7.498
  632POPC   C1B12511  37.251  17.267   8.677
  632POPC   C2B12512  37.212  17.104   8.249
  632POPC   C3B12513  37.375  16.905   7.851
  632POPC   C4B12514  37.297  16.981   7.428
  633POPC   NC312515   0.236  43.071   9.588
  633POPC   PO412516   0.900  42.904   9.401
  633POPC   GL112517   0.550  43.122   9.165
  633POPC   GL212518   0.190  43.257   9.133
  633POPC   C1A12519   0.519  43.053   8.744
  633POPC   D2A12520   0.757  42.964   8.399
  633POPC   C3A12521   0.698  43.220   8.044
  633POPC   C4A12522   0.656  42.906   7.709
  633POPC   C1B12523   0.051  43.205   8.736
  633POPC   C2B12524   0.241  43.263   8.321
  633POPC   C3B12525   0.058  43.166   7.904
  633POPC   C4B12526   0.029  43.024   7.459
  634POPC   NC312527  22.422  41.563   9.692
  634POPC   PO412528  23.054  41.397   9.721
  634POPC   GL112529  23.072  41.534   9.289
  634POPC   GL212530  22.743  41.689   9.262
  634POPC   C1A12531  23.000  41.461   8.857
  634POPC   D2A12532  23.078  41.686   8.475
  634POPC   C3A12533  23.006  41.510   8.073
  634POPC   C4A12534  22.984  41.724   7.658
  634POPC   C1B12535  22.540  41.627   8.826
  634POPC   C2B12536  22.618  41.396   8.425
  634POPC   C3B12537  22.515  41.355   7.966
  634POPC   C4B12538  22.281  41.635   7.715
  635POPC   NC312539  15.819  43.070   9.605
  635POPC   PO412540  16.438  43.246   9.394
  635POPC   GL112541  16.088  43.071   9.184
  635POPC   GL212542  15.942  43.383   9.234
  635POPC   C1A12543  15.805  42.877   8.859
  635POPC   D2A12544  15.868  42.999   8.413
  635POPC   C3A12545  15.724  42.990   7.967
  635POPC   C4A12546  16.051  42.843   7.698
  635POPC   C1B12547  15.883  43.379   8.811
  635POPC   C2B12548  16.148  43.446   8.454
  635POPC   C3B12549  16.161  43.259   8.059
  635POPC   C4B12550  16.022  43.345   7.671
  636POPC   NC312551  22.745  21.442   9.602
  636POPC   PO412552  22.908  20.860   9.472
  636POPC   GL112553  22.813  21.151   9.182
  636POPC   GL212554  23.148  21.284   9.183
  636POPC   C1A12555  22.816  21.475   8.843
  636POPC   D2A12556  22.838  21.709   8.438
  636POPC   C3A12557  22.740  21.483   8.042
  636POPC   C4A12558  23.016  21.429   7.726
  636POPC   C1B12559  23.080  21.021   8.776
  636POPC   C2B12560  23.040  21.193   8.369
  636POPC   C3B12561  23.272  21.111   8.002
  636POPC   C4B12562  23.426  21.157   7.553
  637POPC   NC312563  10.646  29.354   9.602
  637POPC   PO412564  10.383  28.739   9.521
  637POPC   GL112565  10.364  29.107   9.200
  637POPC   GL212566  10.659  29.344   9.113
  637POPC   C1A12567  10.518  28.997   8.771
  637POPC   D2A12568  10.714  28.993   8.381
  637POPC   C3A12569  10.457  28.841   8.051
  637POPC   C4A12570  10.313  28.984   7.673
  637POPC   C1B12571  10.467  29.506   8.762
  637POPC   C2B12572  10.504  29.573   8.350
  637POPC   C3B12573  10.604  29.345   8.026
  637POPC   C4B12574  10.585  29.414   7.621
  638POPC   NC312575  23.307  13.497   9.454
  638POPC   PO412576  22.646  13.614   9.505
  638POPC   GL112577  22.823  13.807   9.133
  638POPC   GL212578  23.171  13.849   9.118
  638POPC   C1A12579  22.877  13.652   8.708
  638POPC   D2A12580  22.828  13.438   8.286
  638POPC   C3A12581  22.793  13.633   7.883
  638POPC   C4A12582  23.006  13.354   7.634
  638POPC   C1B12583  23.343  13.839   8.725
  638POPC   C2B12584  23.317  13.554   8.415
  638POPC   C3B12585  23.282  13.618   8.000
  638POPC   C4B12586  23.512  13.889   7.729
  639POPC   NC312587  22.540  16.087   9.527
  639POPC   PO412588  23.158  16.073   9.697
  639POPC   GL112589  23.081  15.975   9.273
  639POPC   GL212590  23.074  15.597   9.218
  639POPC   C1A12591  22.871  16.144   8.924
  639POPC   D2A12592  22.789  16.073   8.492
  639POPC   C3A12593  22.944  16.321   8.152
  639POPC   C4A12594  22.887  16.234   7.702
  639POPC   C1B12595  22.978  15.655   8.782
  639POPC   C2B12596  23.166  15.757   8.374
  639POPC   C3B12597  22.924  15.821   8.011
  639POPC   C4B12598  22.748  15.552   7.703
  640POPC   NC312599  17.242  21.175   9.582
  640POPC   PO412600  16.640  21.452   9.516
  640POPC   GL112601  16.530  21.256   9.129
  640POPC   GL212602  16.754  20.977   9.074
  640POPC   C1A12603  16.502  21.184   8.695
  640POPC   D2A12604  16.675  21.323   8.353
  640POPC   C3A12605  16.450  21.308   7.981
  640POPC   C4A12606  16.525  21.417   7.550
  640POPC   C1B12607  17.120  21.038   8.824
  640POPC   C2B12608  17.045  20.942   8.416
  640POPC   C3B12609  16.863  20.988   8.043
  640POPC   C4B12610  17.006  21.103   7.668
  641POPC   NC312611   2.613   9.238   9.299
  641POPC   PO412612   2.799   9.884   9.524
  641POPC   GL112613   2.999   9.798   9.162
  641POPC   GL212614   3.001  10.123   9.027
  641POPC   C1A12615   2.764   9.691   8.797
  641POPC   D2A12616   2.757   9.483   8.411
  641POPC   C3A12617   2.479   9.729   8.151
  641POPC   C4A12618   2.516   9.946   7.757
  641POPC   C1B12619   3.195   9.943   8.676
  641POPC   C2B12620   2.950   9.940   8.326
  641POPC   C3B12621   2.961  10.091   7.942
  641POPC   C4B12622   3.071  10.330   7.605
  642POPC   NC312623  13.685  21.637   9.793
  642POPC   PO412624  13.630  21.240   9.253
  642POPC   GL112625  13.562  21.487   8.932
  642POPC   GL212626  13.760  21.803   8.935
  642POPC   C1A12627  13.547  21.520   8.516
  642POPC   D2A12628  13.820  21.575   8.188
  642POPC   C3A12629  13.756  21.286   7.881
  642POPC   C4A12630  13.450  21.305   7.555
  642POPC   C1B12631  13.404  21.960   8.719
  642POPC   C2B12632  13.278  21.897   8.281
  642POPC   C3B12633  13.462  21.821   7.868
  642POPC   C4B12634  13.794  21.689   7.586
  643POPC   NC312635  40.175  39.059   9.406
  643POPC   PO412636  39.571  39.310   9.486
  643POPC   GL112637  39.783  39.300   9.112
  643POPC   GL212638  40.073  39.461   9.120
  643POPC   C1A12639  39.887  39.070   8.718
  643POPC   D2A12640  40.237  38.976   8.438
  643POPC   C3A12641  40.233  39.126   8.027
  643POPC   C4A12642  39.800  39.074   7.901
  643POPC   C1B12643  40.283  39.397   8.736
  643POPC   C2B12644  40.021  39.456   8.365
  643POPC   C3B12645  39.964  39.556   7.943
  643POPC   C4B12646  40.066  39.525   7.528
  644POPC   NC312647  17.477  39.794   9.519
  644POPC   PO412648  17.909  40.384   9.463
  644POPC   GL112649  17.744  40.059   9.152
  644POPC   GL212650  17.854  39.710   9.197
  644POPC   C1A12651  17.586  40.020   8.703
  644POPC   D2A12652  17.338  39.828   8.369
  644POPC   C3A12653  17.239  40.045   7.985
  644POPC   C4A12654  17.216  40.141   7.517
  644POPC   C1B12655  17.956  39.690   8.769
  644POPC   C2B12656  17.991  39.634   8.325
  644POPC   C3B12657  17.798  39.961   8.070
  644POPC   C4B12658  17.626  39.878   7.667
  645POPC   NC312659   8.877  14.686   9.395
  645POPC   PO412660   8.831  14.060   9.569
  645POPC   GL112661   8.951  14.133   9.099
  645POPC   GL212662   8.939  14.477   8.934
  645POPC   C1A12663   8.782  14.079   8.671
  645POPC   D2A12664   8.803  14.456   8.408
  645POPC   C3A12665   8.947  14.313   8.015
  645POPC   C4A12666   9.264  14.211   7.725
  645POPC   C1B12667   9.289  14.381   8.650
  645POPC   C2B12668   9.412  14.594   8.266
  645POPC   C3B12669   9.210  14.738   7.885
  645POPC   C4B12670   9.249  14.632   7.416
  646POPC   NC312671  41.434  16.796   9.577
  646POPC   PO412672  42.043  16.633   9.559
  646POPC   GL112673  41.922  16.932   9.208
  646POPC   GL212674  41.664  16.697   9.110
  646POPC   C1A12675  41.730  17.064   8.763
  646POPC   D2A12676  41.568  16.783   8.426
  646POPC   C3A12677  41.577  16.928   7.980
  646POPC   C4A12678  41.328  16.743   7.648
  646POPC   C1B12679  41.947  16.613   8.747
  646POPC   C2B12680  42.065  16.852   8.356
  646POPC   C3B12681  42.062  16.841   7.869
  646POPC   C4B12682  41.841  16.512   7.576
  647POPC   NC312683  23.320  36.621   9.545
  647POPC   PO412684  23.902  36.162   9.480
  647POPC   GL112685  23.653  36.259   9.105
  647POPC   GL212686  23.465  36.572   9.062
  647POPC   C1A12687  23.711  36.188   8.657
  647POPC   D2A12688  23.656  35.922   8.306
  647POPC   C3A12689  23.753  36.146   7.937
  647POPC   C4A12690  23.761  35.941   7.556
  647POPC   C1B12691  23.263  36.445   8.674
  647POPC   C2B12692  23.332  36.396   8.203
  647POPC   C3B12693  23.338  36.381   7.726
  647POPC   C4B12694  23.598  36.360   7.324
  648POPC   NC312695  12.869  35.666   9.568
  648POPC   PO412696  12.896  35.014   9.549
  648POPC   GL112697  12.777  35.280   9.215
  648POPC   GL212698  13.071  35.463   9.148
  648POPC   C1A12699  12.590  35.414   8.818
  648POPC   D2A12700  12.772  35.485   8.399
  648POPC   C3A12701  12.577  35.513   7.976
  648POPC   C4A12702  12.895  35.421   7.667
  648POPC   C1B12703  13.081  35.253   8.772
  648POPC   C2B12704  13.255  35.329   8.385
  648POPC   C3B12705  13.306  35.211   7.995
  648POPC   C4B12706  13.386  35.522   7.736
  649POPC   NC312707  43.826   8.038   9.897
  649POPC   PO412708  43.798   8.617   9.592
  649POPC   GL112709  44.031   8.479   9.195
  649POPC   GL212710  43.954   8.098   9.091
  649POPC   C1A12711  44.222   8.386   8.771
  649POPC   D2A12712  44.109   8.180   8.356
  649POPC   C3A12713  44.100   8.453   7.952
  649POPC   C4A12714  44.088   8.688   7.544
  649POPC   C1B12715  43.818   7.912   8.743
  649POPC   C2B12716  43.578   7.992   8.414
  649POPC   C3B12717  43.741   8.046   8.003
  649POPC   C4B12718  43.593   7.853   7.655
  650POPC   NC312719  25.127  12.850   9.549
  650POPC   PO412720  25.700  12.748   9.611
  650POPC   GL112721  25.527  12.723   9.190
  650POPC   GL212722  25.190  12.545   9.142
  650POPC   C1A12723  25.470  12.664   8.724
  650POPC   D2A12724  25.218  12.574   8.358
  650POPC   C3A12725  25.447  12.447   8.010
  650POPC   C4A12726  25.577  12.868   7.824
  650POPC   C1B12727  24.882  12.544   8.783
  650POPC   C2B12728  24.779  12.293   8.402
  650POPC   C3B12729  24.882  12.390   7.965
  650POPC   C4B12730  25.070  12.767   7.851
  651POPC   NC312731  23.031   1.537   9.518
  651POPC   PO412732  23.076   0.854   9.600
  651POPC   GL112733  23.076   1.080   9.242
  651POPC   GL212734  22.758   1.204   9.179
  651POPC   C1A12735  23.235   1.054   8.810
  651POPC   D2A12736  22.993   0.967   8.441
  651POPC   C3A12737  23.061   1.110   8.053
  651POPC   C4A12738  22.804   1.008   7.730
  651POPC   C1B12739  22.822   1.362   8.745
  651POPC   C2B12740  22.916   1.526   8.305
  651POPC   C3B12741  22.682   1.491   7.883
  651POPC   C4B12742  22.604   1.367   7.418
  652POPC   NC312743   8.621  37.173   9.820
  652POPC   PO412744   8.800  36.715   9.568
  652POPC   GL112745   9.005  36.700   9.141
  652POPC   GL212746   9.191  36.358   9.090
  652POPC   C1A12747   8.836  36.874   8.728
  652POPC   D2A12748   8.934  36.796   8.263
  652POPC   C3A12749   8.688  36.666   7.855
  652POPC   C4A12750   8.566  36.746   7.386
  652POPC   C1B12751   9.181  36.507   8.670
  652POPC   C2B12752   9.337  36.465   8.269
  652POPC   C3B12753   9.196  36.588   7.864
  652POPC   C4B12754   9.052  36.893   7.547
  653POPC   NC312755  44.080   2.560   9.429
  653POPC   PO412756  43.695   3.267   9.554
  653POPC   GL112757  43.852   2.963   9.250
  653POPC   GL212758  44.085   3.120   9.070
  653POPC   C1A12759  43.954   2.695   8.829
  653POPC   D2A12760  44.155   2.649   8.431
  653POPC   C3A12761  43.975   2.588   8.029
  653POPC   C4A12762  44.088   2.865   7.686
  653POPC   C1B12763  43.652   3.098   8.821
  653POPC   C2B12764  43.689   2.911   8.440
  653POPC   C3B12765  43.883   3.085   8.114
  653POPC   C4B12766  43.627   2.995   7.809
  654POPC   NC312767  38.296   0.435   9.653
  654POPC   PO412768  38.914   0.347   9.641
  654POPC   GL112769  38.695   0.427   9.263
  654POPC   GL212770  38.507   0.126   9.145
  654POPC   C1A12771  38.590   0.502   8.816
  654POPC   D2A12772  38.551   0.290   8.422
  654POPC   C3A12773  38.645   0.454   8.029
  654POPC   C4A12774  38.398   0.742   7.803
  654POPC   C1B12775  38.227   0.132   8.795
  654POPC   C2B12776  38.176  44.945   8.391
  654POPC   C3B12777  38.196  44.921   7.981
  654POPC   C4B12778  38.347   0.182   7.698
  655POPC   NC312779  27.144  17.773   9.434
  655POPC   PO412780  27.798  17.852   9.625
  655POPC   GL112781  27.845  17.719   9.224
  655POPC   GL212782  27.685  17.349   9.173
  655POPC   C1A12783  27.943  17.605   8.826
  655POPC   D2A12784  27.710  17.462   8.481
  655POPC   C3A12785  27.734  17.730   8.128
  655POPC   C4A12786  27.993  17.770   7.785
  655POPC   C1B12787  27.475  17.092   8.827
  655POPC   C2B12788  27.440  17.041   8.368
  655POPC   C3B12789  27.445  17.318   8.020
  655POPC   C4B12790  27.673  17.388   7.665
  656POPC   NC312791   4.937  23.014   9.636
  656POPC   PO412792   5.418  22.728   9.619
  656POPC   GL112793   5.277  22.940   9.216
  656POPC   GL212794   4.975  22.763   9.113
  656POPC   C1A12795   5.164  23.073   8.758
  656POPC   D2A12796   4.889  23.000   8.386
  656POPC   C3A12797   5.033  23.018   7.942
  656POPC   C4A12798   4.982  23.224   7.523
  656POPC   C1B12799   5.084  22.583   8.666
  656POPC   C2B12800   5.267  22.639   8.230
  656POPC   C3B12801   5.110  22.526   7.800
  656POPC   C4B12802   5.232  22.396   7.356
  657POPC   NC312803  34.796  13.878   9.488
  657POPC   PO412804  34.745  13.264   9.174
  657POPC   GL112805  34.618  13.640   9.047
  657POPC   GL212806  34.300  13.724   9.168
  657POPC   C1A12807  34.563  13.567   8.617
  657POPC   D2A12808  34.342  13.310   8.343
  657POPC   C3A12809  34.594  13.397   8.021
  657POPC   C4A12810  34.556  13.445   7.609
  657POPC   C1B12811  34.342  13.992   8.757
  657POPC   C2B12812  34.537  13.955   8.278
  657POPC   C3B12813  34.396  13.917   7.818
  657POPC   C4B12814  34.211  13.760   7.411
  658POPC   NC312815  13.480  14.049   9.598
  658POPC   PO412816  13.704  14.675   9.646
  658POPC   GL112817  13.675  14.439   9.260
  658POPC   GL212818  13.385  14.316   9.193
  658POPC   C1A12819  13.771  14.304   8.825
  658POPC   D2A12820  13.798  14.020   8.473
  658POPC   C3A12821  13.769  14.250   8.105
  658POPC   C4A12822  13.588  14.440   7.770
  658POPC   C1B12823  13.296  14.518   8.836
  658POPC   C2B12824  13.409  14.477   8.414
  658POPC   C3B12825  13.169  14.531   8.024
  658POPC   C4B12826  13.114  14.312   7.657
  659POPC   NC312827   7.818  33.542   9.452
  659POPC   PO412828   7.209  33.923   9.534
  659POPC   GL112829   7.362  33.930   9.101
  659POPC   GL212830   7.530  33.606   9.051
  659POPC   C1A12831   7.561  33.954   8.675
  659POPC   D2A12832   7.568  33.782   8.282
  659POPC   C3A12833   7.639  33.998   7.911
  659POPC   C4A12834   7.531  33.744   7.527
  659POPC   C1B12835   7.172  33.583   8.772
  659POPC   C2B12836   7.052  33.699   8.359
  659POPC   C3B12837   7.084  33.487   7.969
  659POPC   C4B12838   6.693  33.421   7.754
  660POPC   NC312839  25.796  31.345   9.348
  660POPC   PO412840  26.314  31.697   9.643
  660POPC   GL112841  26.267  31.529   9.221
  660POPC   GL212842  25.997  31.775   9.143
  660POPC   C1A12843  26.138  31.415   8.796
  660POPC   D2A12844  25.940  31.614   8.466
  660POPC   C3A12845  26.136  31.483   8.096
  660POPC   C4A12846  26.371  31.702   7.811
  660POPC   C1B12847  25.722  31.947   8.826
  660POPC   C2B12848  25.637  32.058   8.406
  660POPC   C3B12849  25.777  31.850   8.039
  660POPC   C4B12850  25.855  31.600   7.701
  661POPC   NC312851  40.237  27.829   9.582
  661POPC   PO412852  39.707  28.089   9.206
  661POPC   GL112853  39.972  27.730   9.069
  661POPC   GL212854  40.214  27.449   9.018
  661POPC   C1A12855  39.761  27.454   8.731
  661POPC   D2A12856  39.808  27.224   8.337
  661POPC   C3A12857  39.864  27.392   7.911
  661POPC   C4A12858  40.014  27.796   7.730
  661POPC   C1B12859  40.439  27.232   8.647
  661POPC   C2B12860  40.638  27.370   8.263
  661POPC   C3B12861  40.413  27.535   7.936
  661POPC   C4B12862  40.269  27.350   7.584
  662POPC   NC312863  24.709  13.754   9.463
  662POPC   PO412864  24.100  13.505   9.462
  662POPC   GL112865  24.179  13.636   9.059
  662POPC   GL212866  24.430  13.914   9.067
  662POPC   C1A12867  24.272  13.508   8.651
  662POPC   D2A12868  24.399  13.259   8.298
  662POPC   C3A12869  24.442  13.542   7.942
  662POPC   C4A12870  24.813  13.610   7.674
  662POPC   C1B12871  24.264  14.057   8.696
  662POPC   C2B12872  24.203  13.892   8.271
  662POPC   C3B12873  24.352  14.043   7.859
  662POPC   C4B12874  24.373  13.840   7.456
  663POPC   NC312875  23.036  24.238   9.483
  663POPC   PO412876  22.801  24.828   9.479
  663POPC   GL112877  22.876  24.557   9.117
  663POPC   GL212878  23.239  24.455   9.065
  663POPC   C1A12879  22.806  24.457   8.697
  663POPC   D2A12880  23.120  24.641   8.455
  663POPC   C3A12881  22.991  24.709   8.041
  663POPC   C4A12882  23.102  24.683   7.611
  663POPC   C1B12883  23.242  24.180   8.716
  663POPC   C2B12884  23.022  24.163   8.304
  663POPC   C3B12885  23.116  24.242   7.849
  663POPC   C4B12886  23.256  24.208   7.404
  664POPC   NC312887  20.801  33.186   9.791
  664POPC   PO412888  21.136  32.706   9.453
  664POPC   GL112889  20.912  32.980   9.111
  664POPC   GL212890  20.791  33.292   9.156
  664POPC   C1A12891  20.594  32.971   8.763
  664POPC   D2A12892  20.422  32.950   8.331
  664POPC   C3A12893  20.597  32.793   7.940
  664POPC   C4A12894  20.851  32.968   7.625
  664POPC   C1B12895  20.755  33.502   8.774
  664POPC   C2B12896  20.777  33.365   8.380
  664POPC   C3B12897  20.678  33.287   7.993
  664POPC   C4B12898  20.739  33.472   7.607
  665POPC   NC312899   8.607  33.010   9.476
  665POPC   PO412900   9.254  33.176   9.532
  665POPC   GL112901   9.198  33.078   9.139
  665POPC   GL212902   9.440  32.857   8.975
  665POPC   C1A12903   8.950  33.215   8.810
  665POPC   D2A12904   9.061  33.243   8.402
  665POPC   C3A12905   8.693  33.311   8.158
  665POPC   C4A12906   8.705  33.018   7.830
  665POPC   C1B12907   9.040  32.715   8.809
  665POPC   C2B12908   8.838  32.773   8.420
  665POPC   C3B12909   9.101  32.791   8.067
  665POPC   C4B12910   9.068  32.732   7.650
  666POPC   NC312911  23.836  42.220   9.393
  666POPC   PO412912  23.509  42.815   9.421
  666POPC   GL112913  23.455  42.494   9.085
  666POPC   GL212914  23.330  42.148   9.142
  666POPC   C1A12915  23.518  42.448   8.634
  666POPC   D2A12916  23.816  42.305   8.322
  666POPC   C3A12917  23.748  42.267   7.900
  666POPC   C4A12918  23.359  42.435   7.745
  666POPC   C1B12919  23.645  41.980   8.824
  666POPC   C2B12920  23.584  41.853   8.415
  666POPC   C3B12921  23.352  41.917   8.049
  666POPC   C4B12922  23.458  41.938   7.635
  667POPC   NC312923  11.540  42.899   9.609
  667POPC   PO412924  10.897  42.828   9.387
  667POPC   GL112925  11.223  43.093   9.231
  667POPC   GL212926  11.521  42.921   9.076
  667POPC   C1A12927  11.208  43.255   8.835
  667POPC   D2A12928  11.463  43.184   8.525
  667POPC   C3A12929  11.376  43.371   8.143
  667POPC   C4A12930  11.222  43.204   7.792
  667POPC   C1B12931  11.219  42.744   8.776
  667POPC   C2B12932  11.265  42.763   8.327
  667POPC   C3B12933  11.619  42.917   8.064
  667POPC   C4B12934  11.746  42.687   7.702
  668POPC   NC312935   0.969  20.613   9.287
  668POPC   PO412936   1.499  20.793   9.740
  668POPC   GL112937   1.414  20.864   9.262
  668POPC   GL212938   1.566  20.548   9.248
  668POPC   C1A12939   1.366  20.972   8.826
  668POPC   D2A12940   1.258  20.707   8.495
  668POPC   C3A12941   1.131  20.833   8.074
  668POPC   C4A12942   1.110  20.499   7.791
  668POPC   C1B12943   1.624  20.453   8.849
  668POPC   C2B12944   1.663  20.381   8.432
  668POPC   C3B12945   1.550  20.535   8.052
  668POPC   C4B12946   1.663  20.461   7.650
  669POPC   NC312947  19.747  34.790   9.661
  669POPC   PO412948  19.833  34.164   9.532
  669POPC   GL112949  19.979  34.547   9.263
  669POPC   GL212950  19.662  34.685   9.175
  669POPC   C1A12951  19.973  34.768   8.814
  669POPC   D2A12952  19.773  34.716   8.430
  669POPC   C3A12953  19.880  34.960   8.096
  669POPC   C4A12954  19.970  34.711   7.737
  669POPC   C1B12955  19.771  34.285   8.886
  669POPC   C2B12956  19.627  34.216   8.440
  669POPC   C3B12957  19.784  34.254   8.021
  669POPC   C4B12958  19.705  34.315   7.570
  670POPC   NC312959  42.060  44.934   9.475
  670POPC   PO412960  41.751  44.323   9.482
  670POPC   GL112961  41.698  44.677   9.191
  670POPC   GL212962  41.966  44.788   9.002
  670POPC   C1A12963  41.430  44.910   8.882
  670POPC   D2A12964  41.149  44.783   8.545
  670POPC   C3A12965  41.185  44.775   8.078
  670POPC   C4A12966  41.337  44.627   7.691
  670POPC   C1B12967  41.758  44.591   8.663
  670POPC   C2B12968  41.625  44.543   8.235
  670POPC   C3B12969  41.769  44.796   7.887
  670POPC   C4B12970  41.741  44.935   7.433
  671POPC   NC312971  23.794  13.194   9.295
  671POPC   PO412972  23.615  13.832   9.393
  671POPC   GL112973  23.657  13.605   9.036
  671POPC   GL212974  23.374  13.352   8.971
  671POPC   C1A12975  23.831  13.775   8.652
  671POPC   D2A12976  23.685  13.865   8.220
  671POPC   C3A12977  23.951  13.682   7.862
  671POPC   C4A12978  23.908  13.624   7.403
  671POPC   C1B12979  23.641  13.252   8.650
  671POPC   C2B12980  23.873  13.399   8.315
  671POPC   C3B12981  23.661  13.272   7.978
  671POPC   C4B12982  23.497  13.410   7.582
  672POPC   NC312983  21.096  34.179   9.571
  672POPC   PO412984  21.546  33.635   9.497
  672POPC   GL112985  21.490  33.713   9.105
  672POPC   GL212986  21.168  33.797   9.021
  672POPC   C1A12987  21.615  33.813   8.716
  672POPC   D2A12988  21.402  34.045   8.438
  672POPC   C3A12989  21.459  33.948   8.027
  672POPC   C4A12990  21.322  34.158   7.673
  672POPC   C1B12991  21.252  33.414   8.781
  672POPC   C2B12992  21.349  33.486   8.369
  672POPC   C3B12993  21.093  33.593   8.009
  672POPC   C4B12994  21.229  33.659   7.626
  673POPC   NC312995   6.380  14.107   9.326
  673POPC   PO412996   5.853  14.528   9.469
  673POPC   GL112997   5.998  14.355   9.098
  673POPC   GL212998   6.251  14.625   9.047
  673POPC   C1A12999   6.008  14.081   8.715
  673POPC   D2A13000   5.773  13.930   8.327
  673POPC   C3A13001   5.849  13.891   7.864
  673POPC   C4A13002   5.723  14.147   7.511
  673POPC   C1B13003   6.039  14.601   8.656
  673POPC   C2B13004   6.118  14.372   8.282
  673POPC   C3B13005   5.907  14.412   7.909
  673POPC   C4B13006   5.946  14.796   7.660
  674POPC   NC313007  24.830  19.574   9.867
  674POPC   PO413008  24.448  20.009   9.468
  674POPC   GL113009  24.556  20.088   9.079
  674POPC   GL213010  24.252  20.274   9.018
  674POPC   C1A13011  24.632  19.831   8.697
  674POPC   D2A13012  24.516  19.630   8.308
  674POPC   C3A13013  24.591  19.844   7.901
  674POPC   C4A13014  24.708  19.765   7.476
  674POPC   C1B13015  24.273  20.177   8.643
  674POPC   C2B13016  24.503  20.158   8.322
  674POPC   C3B13017  24.274  20.224   8.006
  674POPC   C4B13018  24.127  20.054   7.686
  675POPC   NC313019  14.904   6.372   9.291
  675POPC   PO413020  14.920   7.004   9.502
  675POPC   GL113021  15.164   6.821   9.165
  675POPC   GL213022  15.401   6.597   9.343
  675POPC   C1A13023  15.115   6.737   8.707
  675POPC   D2A13024  14.875   6.907   8.352
  675POPC   C3A13025  15.032   6.734   7.972
  675POPC   C4A13026  15.312   6.776   7.617
  675POPC   C1B13027  15.469   6.446   8.927
  675POPC   C2B13028  15.581   6.286   8.537
  675POPC   C3B13029  15.693   6.130   8.147
  675POPC   C4B13030  15.542   6.359   7.811
  676POPC   NC313031  18.145  18.079   9.489
  676POPC   PO413032  18.306  18.699   9.396
  676POPC   GL113033  18.264  18.493   9.052
  676POPC   GL213034  17.958  18.391   9.077
  676POPC   C1A13035  18.321  18.364   8.633
  676POPC   D2A13036  18.212  18.241   8.211
  676POPC   C3A13037  18.513  18.371   7.891
  676POPC   C4A13038  18.725  18.341   7.459
  676POPC   C1B13039  17.930  18.684   8.715
  676POPC   C2B13040  18.180  18.751   8.331
  676POPC   C3B13041  18.078  18.670   7.939
  676POPC   C4B13042  17.893  18.662   7.555
  677POPC   NC313043   6.503  13.153   9.599
  677POPC   PO413044   6.709  13.865   9.582
  677POPC   GL113045   6.800  13.530   9.276
  677POPC   GL213046   6.724  13.796   9.068
  677POPC   C1A13047   6.768  13.368   8.814
  677POPC   D2A13048   6.539  13.409   8.387
  677POPC   C3A13049   6.702  13.647   8.054
  677POPC   C4A13050   6.929  13.588   7.682
  677POPC   C1B13051   6.521  13.897   8.711
  677POPC   C2B13052   6.310  13.892   8.345
  677POPC   C3B13053   6.335  14.031   7.958
  677POPC   C4B13054   6.697  14.070   7.754
  678POPC   NC313055  38.249   9.834   9.884
  678POPC   PO413056  37.690   9.790   9.519
  678POPC   GL113057  37.643   9.752   9.111
  678POPC   GL213058  37.506   9.465   9.058
  678POPC   C1A13059  37.750   9.839   8.702
  678POPC   D2A13060  37.714   9.566   8.370
  678POPC   C3A13061  37.843   9.730   7.983
  678POPC   C4A13062  37.902   9.715   7.547
  678POPC   C1B13063  37.298   9.508   8.702
  678POPC   C2B13064  37.196   9.632   8.323
  678POPC   C3B13065  37.376   9.925   8.112
  678POPC   C4B13066  37.414   9.770   7.724
  679POPC   NC313067   4.466  18.209   9.671
  679POPC   PO413068   4.304  17.499   9.627
  679POPC   GL113069   4.266  17.581   9.209
  679POPC   GL213070   3.962  17.708   9.082
  679POPC   C1A13071   4.337  17.485   8.772
  679POPC   D2A13072   4.078  17.474   8.380
  679POPC   C3A13073   4.333  17.377   8.029
  679POPC   C4A13074   4.246  17.433   7.587
  679POPC   C1B13075   4.046  17.902   8.702
  679POPC   C2B13076   3.944  17.958   8.264
  679POPC   C3B13077   4.110  17.825   7.878
  679POPC   C4B13078   4.156  17.910   7.424
  680POPC   NC313079  35.006  34.348   9.481
  680POPC   PO413080  35.233  34.894   9.569
  680POPC   GL113081  35.031  34.779   9.163
  680POPC   GL213082  35.260  34.493   9.049
  680POPC   C1A13083  34.910  34.662   8.724
  680POPC   D2A13084  34.968  34.396   8.350
  680POPC   C3A13085  35.126  34.582   7.958
  680POPC   C4A13086  35.544  34.719   7.767
  680POPC   C1B13087  35.314  34.183   8.685
  680POPC   C2B13088  35.346  34.040   8.241
  680POPC   C3B13089  35.359  34.140   7.792
  680POPC   C4B13090  35.568  34.111   7.353
  681POPC   NC313091  36.997  17.457   9.482
  681POPC   PO413092  36.314  17.454   9.554
  681POPC   GL113093  36.534  17.421   9.233
  681POPC   GL213094  36.659  17.769   9.224
  681POPC   C1A13095  36.475  17.282   8.849
  681POPC   D2A13096  36.771  17.179   8.543
  681POPC   C3A13097  36.701  17.239   8.104
  681POPC   C4A13098  36.985  17.208   7.781
  681POPC   C1B13099  36.868  17.601   8.860
  681POPC   C2B13100  36.827  17.688   8.443
  681POPC   C3B13101  37.072  17.614   8.090
  681POPC   C4B13102  36.846  17.713   7.730
  682POPC   NC313103  27.728  10.391   9.490
  682POPC   PO413104  27.178  10.606   9.412
  682POPC   GL113105  27.230  10.430   9.004
  682POPC   GL213106  27.583  10.411   9.008
  682POPC   C1A13107  27.386  10.256   8.581
  682POPC   D2A13108  27.484  10.205   8.143
  682POPC   C3A13109  27.407  10.521   7.856
  682POPC   C4A13110  27.270  10.413   7.454
  682POPC   C1B13111  27.887  10.213   8.725
  682POPC   C2B13112  27.968  10.253   8.276
  682POPC   C3B13113  27.882  10.367   7.808
  682POPC   C4B13114  27.704  10.691   7.469
  683POPC   NC313115   2.340  16.825   9.475
  683POPC   PO413116   2.880  16.400   9.563
  683POPC   GL113117   2.983  16.684   9.276
  683POPC   GL213118   2.670  16.679   9.118
  683POPC   C1A13119   3.137  16.806   8.880
  683POPC   D2A13120   2.956  16.671   8.498
  683POPC   C3A13121   2.990  16.823   8.090
  683POPC   C4A13122   2.762  16.813   7.707
  683POPC   C1B13123   2.621  16.972   8.814
  683POPC   C2B13124   2.622  17.228   8.486
  683POPC   C3B13125   2.485  17.016   8.124
  683POPC   C4B13126   2.452  17.228   7.768
  684POPC   NC313127  41.607  38.786   9.229
  684POPC   PO413128  41.560  39.207   9.696
  684POPC   GL113129  41.493  39.270   9.217
  684POPC   GL213130  41.223  39.079   9.061
  684POPC   C1A13131  41.607  39.171   8.717
  684POPC   D2A13132  41.255  39.243   8.382
  684POPC   C3A13133  41.359  39.153   7.959
  684POPC   C4A13134  41.355  38.771   7.775
  684POPC   C1B13135  41.269  39.503   8.830
  684POPC   C2B13136  41.499  39.694   8.462
  684POPC   C3B13137  41.514  39.639   7.986
  684POPC   C4B13138  41.555  39.412   7.542
  685POPC   NC313139  14.081  15.626   9.756
  685POPC   PO413140  14.423  15.037   9.837
  685POPC   GL113141  14.419  15.198   9.337
  685POPC   GL213142  14.389  15.447   9.172
  685POPC   C1A13143  14.171  15.071   8.908
  685POPC   D2A13144  14.271  15.039   8.461
  685POPC   C3A13145  14.043  15.167   8.110
  685POPC   C4A13146  14.229  15.145   7.721
  685POPC   C1B13147  14.276  15.516   8.727
  685POPC   C2B13148  14.484  15.498   8.369
  685POPC   C3B13149  14.364  15.556   8.001
  685POPC   C4B13150  14.541  15.540   7.635
  686POPC   NC313151  35.738  12.090   9.441
  686POPC   PO413152  35.085  11.891   9.510
  686POPC   GL113153  35.240  12.034   9.143
  686POPC   GL213154  35.114  12.376   9.081
  686POPC   C1A13155  35.409  11.969   8.735
  686POPC   D2A13156  35.653  11.906   8.355
  686POPC   C3A13157  35.448  11.840   7.963
  686POPC   C4A13158  35.158  12.154   7.784
  686POPC   C1B13159  35.538  12.440   8.850
  686POPC   C2B13160  35.695  12.445   8.445
  686POPC   C3B13161  35.564  12.331   8.071
  686POPC   C4B13162  35.718  12.346   7.682
  687POPC   NC313163  14.185  37.286   9.592
  687POPC   PO413164  14.455  37.834   9.765
  687POPC   GL113165  14.408  37.780   9.281
  687POPC   GL213166  14.368  37.444   9.120
  687POPC   C1A13167  14.357  37.906   8.800
  687POPC   D2A13168  14.571  37.870   8.358
  687POPC   C3A13169  14.319  37.776   7.955
  687POPC   C4A13170  14.081  37.532   7.621
  687POPC   C1B13171  14.583  37.445   8.704
  687POPC   C2B13172  14.544  37.348   8.251
  687POPC   C3B13173  14.733  37.459   7.860
  687POPC   C4B13174  14.699  37.313   7.434
  688POPC   NC313175   2.212  14.658   9.385
  688POPC   PO413176   1.715  14.249   9.444
  688POPC   GL113177   1.874  14.338   9.068
  688POPC   GL213178   2.242  14.239   9.097
  688POPC   C1A13179   1.854  14.665   8.726
  688POPC   D2A13180   1.653  14.766   8.325
  688POPC   C3A13181   1.809  14.579   7.912
  688POPC   C4A13182   1.987  14.523   7.473
  688POPC   C1B13183   2.156  14.265   8.662
  688POPC   C2B13184   2.162  14.477   8.280
  688POPC   C3B13185   2.197  14.243   7.895
  688POPC   C4B13186   1.919  14.043   7.640
  689POPC   NC313187  43.465  41.240   9.714
  689POPC   PO413188  44.033  41.539   9.716
  689POPC   GL113189  43.793  41.586   9.309
  689POPC   GL213190  43.649  41.279   9.212
  689POPC   C1A13191  43.955  41.642   8.870
  689POPC   D2A13192  44.208  41.610   8.487
  689POPC   C3A13193  43.988  41.513   8.116
  689POPC   C4A13194  43.841  41.510   7.725
  689POPC   C1B13195  43.798  41.170   8.773
  689POPC   C2B13196  43.783  41.096   8.361
  689POPC   C3B13197  43.533  41.266   8.040
  689POPC   C4B13198  43.548  41.113   7.626
  690POPC   NC313199   3.761  19.933   9.487
  690POPC   PO413200   3.178  19.586   9.313
  690POPC   GL113201   3.508  19.725   9.076
  690POPC   GL213202   3.709  20.018   8.974
  690POPC   C1A13203   3.736  19.594   8.705
  690POPC   D2A13204   3.858  19.929   8.446
  690POPC   C3A13205   3.833  19.896   8.010
  690POPC   C4A13206   3.608  19.652   7.718
  690POPC   C1B13207   3.366  19.919   8.636
  690POPC   C2B13208   3.393  19.658   8.300
  690POPC   C3B13209   3.308  19.966   8.007
  690POPC   C4B13210   3.417  20.182   7.657
  691POPC   NC313211   8.776  10.409   9.413
  691POPC   PO413212   9.211  10.857   9.493
  691POPC   GL113213   9.099  10.691   9.127
  691POPC   GL213214   9.315  10.437   9.161
  691POPC   C1A13215   8.930  10.496   8.756
  691POPC   D2A13216   8.951  10.164   8.432
  691POPC   C3A13217   8.932  10.328   8.017
  691POPC   C4A13218   8.783  10.728   7.792
  691POPC   C1B13219   9.377  10.247   8.752
  691POPC   C2B13220   9.405  10.374   8.317
  691POPC   C3B13221   9.433  10.211   7.909
  691POPC   C4B13222   9.237  10.516   7.643
  692POPC   NC313223  41.990  40.889   9.238
  692POPC   PO413224  41.585  40.587   9.640
  692POPC   GL113225  41.530  40.686   9.160
  692POPC   GL213226  41.493  41.064   9.165
  692POPC   C1A13227  41.518  40.760   8.665
  692POPC   D2A13228  41.348  40.665   8.226
  692POPC   C3A13229  41.656  40.778   7.911
  692POPC   C4A13230  41.986  40.527   7.783
  692POPC   C1B13231  41.362  41.226   8.787
  692POPC   C2B13232  41.460  41.201   8.336
  692POPC   C3B13233  41.270  41.115   7.935
  692POPC   C4B13234  41.256  40.934   7.530
  693POPC   NC313235  32.550  22.158   9.818
  693POPC   PO413236  33.120  22.011   9.465
  693POPC   GL113237  33.042  22.149   9.089
  693POPC   GL213238  32.970  21.822   9.009
  693POPC   C1A13239  33.159  22.098   8.655
  693POPC   D2A13240  33.211  22.300   8.306
  693POPC   C3A13241  33.218  22.110   7.928
  693POPC   C4A13242  32.994  22.485   7.805
  693POPC   C1B13243  32.659  21.654   8.755
  693POPC   C2B13244  32.572  21.792   8.383
  693POPC   C3B13245  32.848  21.686   8.091
  693POPC   C4B13246  32.939  21.770   7.677
  694POPC   NC313247  25.200  43.941   9.569
  694POPC   PO413248  25.684  43.577   9.368
  694POPC   GL113249  25.436  43.714   9.036
  694POPC   GL213250  25.529  44.060   9.042
  694POPC   C1A13251  25.193  43.730   8.629
  694POPC   D2A13252  24.855  43.782   8.310
  694POPC   C3A13253  24.891  43.604   7.890
  694POPC   C4A13254  25.145  43.686   7.540
  694POPC   C1B13255  25.674  44.285   8.698
  694POPC   C2B13256  25.334  44.215   8.406
  694POPC   C3B13257  25.250  43.970   8.040
  694POPC   C4B13258  25.327  44.150   7.649
  695POPC   NC313259  43.754  33.945   9.538
  695POPC   PO413260  44.328  34.199   9.528
  695POPC   GL113261  44.128  33.933   9.150
  695POPC   GL213262  43.861  33.662   9.115
  695POPC   C1A13263  44.039  33.950   8.691
  695POPC   D2A13264  44.299  33.997   8.299
  695POPC   C3A13265  44.178  34.186   7.920
  695POPC   C4A13266  43.886  33.952   7.723
  695POPC   C1B13267  43.855  33.466   8.685
  695POPC   C2B13268  43.824  33.686   8.273
  695POPC   C3B13269  44.110  33.586   7.985
  695POPC   C4B13270  44.162  33.493   7.541
  696POPC   NC313271  21.820  35.557   9.728
  696POPC   PO413272  21.083  35.379   9.685
  696POPC   GL113273  21.200  35.204   9.264
  696POPC   GL213274  21.571  35.201   9.196
  696POPC   C1A13275  21.183  34.980   8.852
  696POPC   D2A13276  21.420  34.945   8.429
  696POPC   C3A13277  21.360  35.205   8.030
  696POPC   C4A13278  21.648  35.383   7.721
  696POPC   C1B13279  21.384  35.441   8.834
  696POPC   C2B13280  21.348  35.676   8.483
  696POPC   C3B13281  21.388  35.721   8.061
  696POPC   C4B13282  21.028  35.701   7.784
  697POPC   NC313283   2.816  28.936   9.850
  697POPC   PO413284   3.323  29.134   9.588
  697POPC   GL113285   3.047  29.000   9.226
  697POPC   GL213286   2.873  29.302   9.129
  697POPC   C1A13287   2.967  28.958   8.744
  697POPC   D2A13288   2.879  28.743   8.326
  697POPC   C3A13289   2.710  28.868   7.933
  697POPC   C4A13290   2.924  28.881   7.559
  697POPC   C1B13291   2.739  29.423   8.694
  697POPC   C2B13292   2.706  29.275   8.247
  697POPC   C3B13293   2.771  29.347   7.771
  697POPC   C4B13294   2.823  29.314   7.295
  698POPC   NC313295  13.093  11.590   9.451
  698POPC   PO413296  12.542  11.132   9.273
  698POPC   GL113297  12.966  11.195   9.093
  698POPC   GL213298  13.073  11.516   8.952
  698POPC   C1A13299  13.181  11.066   8.736
  698POPC   D2A13300  12.953  11.079   8.350
  698POPC   C3A13301  13.059  11.015   7.925
  698POPC   C4A13302  12.742  11.164   7.654
  698POPC   C1B13303  12.661  11.658   8.789
  698POPC   C2B13304  12.474  11.652   8.421
  698POPC   C3B13305  12.625  11.439   8.089
  698POPC   C4B13306  12.808  11.640   7.756
  699POPC   NC313307  39.693  33.634   9.448
  699POPC   PO413308  40.196  34.069   9.497
  699POPC   GL113309  40.150  33.760   9.118
  699POPC   GL213310  39.870  33.539   9.002
  699POPC   C1A13311  40.223  33.659   8.671
  699POPC   D2A13312  40.001  33.849   8.308
  699POPC   C3A13313  40.100  33.628   7.906
  699POPC   C4A13314  40.179  33.664   7.445
  699POPC   C1B13315  39.702  33.820   8.731
  699POPC   C2B13316  39.459  33.728   8.360
  699POPC   C3B13317  39.593  33.746   7.951
  699POPC   C4B13318  39.685  33.554   7.594
  700POPC   NC313319   4.205   7.102   9.518
  700POPC   PO413320   4.410   7.723   9.464
  700POPC   GL113321   4.207   7.670   9.117
  700POPC   GL213322   4.040   7.377   9.130
  700POPC   C1A13323   4.413   7.577   8.733
  700POPC   D2A13324   4.665   7.394   8.430
  700POPC   C3A13325   4.466   7.290   8.048
  700POPC   C4A13326   4.264   7.591   7.814
  700POPC   C1B13327   3.909   7.536   8.740
  700POPC   C2B13328   4.073   7.441   8.343
  700POPC   C3B13329   3.934   7.225   7.979
  700POPC   C4B13330   3.828   7.423   7.597
  701POPC   NC313331  43.186   9.142   9.539
  701POPC   PO413332  42.824   8.640   9.364
  701POPC   GL113333  43.069   8.945   9.083
  701POPC   GL213334  43.358   9.207   9.079
  701POPC   C1A13335  43.281   8.840   8.705
  701POPC   D2A13336  43.223   8.829   8.277
  701POPC   C3A13337  42.839   8.920   8.051
  701POPC   C4A13338  42.834   8.872   7.616
  701POPC   C1B13339  43.640   9.200   8.762
  701POPC   C2B13340  43.677   9.098   8.348
  701POPC   C3B13341  43.389   9.229   8.024
  701POPC   C4B13342  43.319   8.969   7.674
  702POPC   NC313343   0.419  38.511   9.630
  702POPC   PO413344   1.050  38.259   9.505
  702POPC   GL113345   0.695  38.390   9.204
  702POPC   GL213346   0.340  38.285   9.184
  702POPC   C1A13347   0.539  38.484   8.783
  702POPC   D2A13348   0.509  38.686   8.400
  702POPC   C3A13349   0.542  38.485   8.035
  702POPC   C4A13350   0.500  38.714   7.676
  702POPC   C1B13351   0.250  38.060   8.793
  702POPC   C2B13352   0.222  38.241   8.406
  702POPC   C3B13353   0.203  38.100   8.012
  702POPC   C4B13354   0.321  38.223   7.630
  703POPC   NC313355  38.542  32.812   9.618
  703POPC   PO413356  38.248  33.376   9.475
  703POPC   GL113357  38.442  33.077   9.188
  703POPC   GL213358  38.240  32.729   9.211
  703POPC   C1A13359  38.632  33.095   8.787
  703POPC   D2A13360  38.481  32.970   8.382
  703POPC   C3A13361  38.641  32.963   7.978
  703POPC   C4A13362  38.643  33.272   7.648
  703POPC   C1B13363  38.199  32.802   8.779
  703POPC   C2B13364  38.045  32.706   8.368
  703POPC   C3B13365  38.102  32.765   7.923
  703POPC   C4B13366  38.348  32.871   7.543
  704POPC   NC313367  39.772  23.713   9.452
  704POPC   PO413368  40.263  23.286   9.485
  704POPC   GL113369  40.137  23.540   9.110
  704POPC   GL213370  40.105  23.909   9.099
  704POPC   C1A13371  40.129  23.606   8.649
  704POPC   D2A13372  40.364  23.881   8.356
  704POPC   C3A13373  40.210  23.794   7.948
  704POPC   C4A13374  39.807  23.657   7.863
  704POPC   C1B13375  39.850  24.010   8.750
  704POPC   C2B13376  39.736  23.912   8.326
  704POPC   C3B13377  39.856  24.156   7.965
  704POPC   C4B13378  40.007  24.093   7.566
  705POPC   NC313379  26.965  28.263   9.633
  705POPC   PO413380  26.588  28.841   9.445
  705POPC   GL113381  26.628  28.568   9.160
  705POPC   GL213382  26.397  28.678   8.910
  705POPC   C1A13383  26.887  28.603   8.794
  705POPC   D2A13384  26.791  28.563   8.384
  705POPC   C3A13385  27.145  28.487   8.137
  705POPC   C4A13386  27.114  28.503   7.722
  705POPC   C1B13387  26.532  28.200   8.809
  705POPC   C2B13388  26.715  28.036   8.399
  705POPC   C3B13389  26.705  28.227   7.974
  705POPC   C4B13390  26.479  28.102   7.611
  706POPC   NC313391  44.989  37.837   9.410
  706POPC   PO413392  44.468  37.581   9.729
  706POPC   GL113393  44.619  37.520   9.276
  706POPC   GL213394  44.505  37.851   9.167
  706POPC   C1A13395  44.442  37.465   8.855
  706POPC   D2A13396  44.598  37.409   8.437
  706POPC   C3A13397  44.407  37.518   8.048
  706POPC   C4A13398  44.483  37.473   7.583
  706POPC   C1B13399  44.769  37.861   8.771
  706POPC   C2B13400  44.921  37.801   8.343
  706POPC   C3B13401  44.841  37.746   7.897
  706POPC   C4B13402  44.808  38.101   7.672
  707POPC   NC313403  14.579  42.245   9.460
  707POPC   PO413404  14.122  42.737   9.612
  707POPC   GL113405  14.296  42.590   9.205
  707POPC   GL213406  14.651  42.528   9.049
  707POPC   C1A13407  14.230  42.262   8.877
  707POPC   D2A13408  14.081  42.345   8.472
  707POPC   C3A13409  14.248  42.133   8.107
  707POPC   C4A13410  14.097  42.293   7.728
  707POPC   C1B13411  14.391  42.736   8.727
  707POPC   C2B13412  14.346  42.768   8.303
  707POPC   C3B13413  14.457  42.598   7.937
  707POPC   C4B13414  14.835  42.597   7.738
  708POPC   NC313415  37.039  26.230   9.473
  708POPC   PO413416  36.411  26.014   9.454
  708POPC   GL113417  36.671  26.202   9.113
  708POPC   GL213418  37.038  26.041   9.015
  708POPC   C1A13419  36.778  26.360   8.721
  708POPC   D2A13420  36.888  26.182   8.323
  708POPC   C3A13421  36.602  26.296   8.031
  708POPC   C4A13422  36.539  26.148   7.637
  708POPC   C1B13423  37.277  26.178   8.664
  708POPC   C2B13424  37.301  26.483   8.345
  708POPC   C3B13425  37.374  26.402   7.929
  708POPC   C4B13426  37.067  26.162   7.735
  709POPC   NC313427  22.545  28.541   9.638
  709POPC   PO413428  23.170  28.169   9.558
  709POPC   GL113429  23.099  28.291   9.178
  709POPC   GL213430  23.027  27.954   9.068
  709POPC   C1A13431  23.270  28.519   8.853
  709POPC   D2A13432  23.021  28.657   8.514
  709POPC   C3A13433  23.172  28.610   8.100
  709POPC   C4A13434  23.233  28.459   7.700
  709POPC   C1B13435  22.883  28.176   8.712
  709POPC   C2B13436  22.835  28.240   8.278
  709POPC   C3B13437  22.789  28.270   7.870
  709POPC   C4B13438  22.988  27.989   7.602
  710POPC   NC313439  24.892  31.396   9.550
  710POPC   PO413440  24.516  31.792   9.896
  710POPC   GL113441  24.598  31.793   9.379
  710POPC   GL213442  24.373  31.978   9.156
  710POPC   C1A13443  24.566  31.501   8.970
  710POPC   D2A13444  24.538  31.205   8.603
  710POPC   C3A13445  24.497  31.366   8.152
  710POPC   C4A13446  24.338  31.171   7.741
  710POPC   C1B13447  24.700  31.964   8.837
  710POPC   C2B13448  24.724  31.702   8.491
  710POPC   C3B13449  24.685  31.856   8.077
  710POPC   C4B13450  24.474  31.830   7.697
  711POPC   NC313451  36.949  41.720   9.674
  711POPC   PO413452  36.423  41.942   9.386
  711POPC   GL113453  36.748  41.695   9.183
  711POPC   GL213454  37.067  41.712   9.102
  711POPC   C1A13455  36.736  41.515   8.727
  711POPC   D2A13456  36.803  41.756   8.332
  711POPC   C3A13457  36.582  41.755   7.922
  711POPC   C4A13458  36.728  41.782   7.475
  711POPC   C1B13459  37.222  41.400   8.807
  711POPC   C2B13460  37.091  41.321   8.410
  711POPC   C3B13461  36.822  41.320   8.043
  711POPC   C4B13462  36.986  41.379   7.648
  712POPC   NC313463  34.741   6.419   9.540
  712POPC   PO413464  34.426   6.954   9.662
  712POPC   GL113465  34.471   6.914   9.236
  712POPC   GL213466  34.744   6.719   9.111
  712POPC   C1A13467  34.570   7.052   8.787
  712POPC   D2A13468  34.567   6.829   8.410
  712POPC   C3A13469  34.306   6.897   8.058
  712POPC   C4A13470  34.643   6.854   7.775
  712POPC   C1B13471  34.333   6.611   8.855
  712POPC   C2B13472  34.223   6.459   8.438
  712POPC   C3B13473  34.452   6.414   8.069
  712POPC   C4B13474  34.393   6.413   7.648
  713POPC   NC313475  16.486  27.628   9.453
  713POPC   PO413476  17.094  27.349   9.641
  713POPC   GL113477  16.936  27.339   9.176
  713POPC   GL213478  16.580  27.395   9.021
  713POPC   C1A13479  16.964  27.520   8.727
  713POPC   D2A13480  16.720  27.354   8.386
  713POPC   C3A13481  16.834  27.486   7.977
  713POPC   C4A13482  17.139  27.696   7.742
  713POPC   C1B13483  16.304  27.534   8.700
  713POPC   C2B13484  16.380  27.717   8.296
  713POPC   C3B13485  16.359  27.660   7.888
  713POPC   C4B13486  16.285  27.920   7.541
  714POPC   NC313487  40.606   4.879   9.652
  714POPC   PO413488  41.061   5.169   9.930
  714POPC   GL113489  40.826   5.265   9.414
  714POPC   GL213490  40.704   4.961   9.175
  714POPC   C1A13491  40.967   5.311   8.936
  714POPC   D2A13492  40.805   5.171   8.530
  714POPC   C3A13493  40.985   5.272   8.124
  714POPC   C4A13494  40.729   5.179   7.770
  714POPC   C1B13495  40.399   5.227   8.969
  714POPC   C2B13496  40.236   5.242   8.551
  714POPC   C3B13497  40.420   5.295   8.163
  714POPC   C4B13498  40.223   5.220   7.766
  715POPC   NC313499  36.048  16.187   9.674
  715POPC   PO413500  35.784  15.771   9.267
  715POPC   GL113501  35.886  16.163   9.181
  715POPC   GL213502  36.215  16.100   9.205
  715POPC   C1A13503  35.817  16.236   8.775
  715POPC   D2A13504  36.059  16.114   8.425
  715POPC   C3A13505  35.876  16.063   8.043
  715POPC   C4A13506  35.836  15.897   7.641
  715POPC   C1B13507  36.385  16.215   8.824
  715POPC   C2B13508  36.547  16.188   8.404
  715POPC   C3B13509  36.392  15.933   8.051
  715POPC   C4B13510  36.338  15.737   7.649
  716POPC   NC313511  40.287   3.992   9.380
  716POPC   PO413512  40.224   3.356   9.283
  716POPC   GL113513  39.820   3.523   9.102
  716POPC   GL213514  39.951   3.824   8.952
  716POPC   C1A13515  39.642   3.540   8.662
  716POPC   D2A13516  39.797   3.241   8.386
  716POPC   C3A13517  39.967   3.339   8.046
  716POPC   C4A13518  40.014   3.643   7.787
  716POPC   C1B13519  40.173   3.508   8.651
  716POPC   C2B13520  40.390   3.202   8.341
  716POPC   C3B13521  40.398   3.134   7.879
  716POPC   C4B13522  40.362   3.443   7.471
  717POPC   NC313523   6.225  35.562   9.389
  717POPC   PO413524   6.686  35.102   9.433
  717POPC   GL113525   6.605  35.333   9.083
  717POPC   GL213526   6.946  35.444   9.086
  717POPC   C1A13527   6.514  35.417   8.650
  717POPC   D2A13528   6.289  35.215   8.290
  717POPC   C3A13529   6.485  35.202   7.919
  717POPC   C4A13530   6.551  35.591   7.729
  717POPC   C1B13531   6.967  35.178   8.729
  717POPC   C2B13532   6.815  35.184   8.310
  717POPC   C3B13533   6.990  35.385   7.909
  717POPC   C4B13534   7.099  35.525   7.452
  718POPC   NC313535  28.484   0.991   9.635
  718POPC   PO413536  27.906   1.329   9.618
  718POPC   GL113537  28.140   1.255   9.220
  718POPC   GL213538  28.421   1.025   9.149
  718POPC   C1A13539  28.279   1.391   8.806
  718POPC   D2A13540  28.519   1.390   8.432
  718POPC   C3A13541  28.253   1.418   8.081
  718POPC   C4A13542  28.375   1.442   7.670
  718POPC   C1B13543  28.679   1.020   8.805
  718POPC   C2B13544  28.689   0.904   8.367
  718POPC   C3B13545  28.617   1.066   7.937
  718POPC   C4B13546  28.723   1.127   7.461
  719POPC   NC313547   1.351  10.161   9.502
  719POPC   PO413548   0.958  10.693   9.555
  719POPC   GL113549   1.211  10.681   9.166
  719POPC   GL213550   1.160  10.337   9.045
  719POPC   C1A13551   1.279  10.677   8.695
  719POPC   D2A13552   1.121  10.365   8.385
  719POPC   C3A13553   1.167  10.482   7.956
  719POPC   C4A13554   1.469  10.764   7.789
  719POPC   C1B13555   1.514  10.237   8.760
  719POPC   C2B13556   1.654  10.460   8.382
  719POPC   C3B13557   1.703  10.324   7.960
  719POPC   C4B13558   1.409  10.077   7.728
  720POPC   NC313559  43.901  21.290   9.670
  720POPC   PO413560  43.994  21.874   9.518
  720POPC   GL113561  43.897  21.565   9.208
  720POPC   GL213562  43.576  21.433   9.296
  720POPC   C1A13563  44.072  21.274   8.908
  720POPC   D2A13564  44.244  21.063   8.517
  720POPC   C3A13565  44.162  21.299   8.171
  720POPC   C4A13566  44.087  21.421   7.771
  720POPC   C1B13567  43.576  21.254   8.872
  720POPC   C2B13568  43.757  21.249   8.479
  720POPC   C3B13569  43.631  21.316   8.054
  720POPC   C4B13570  43.657  21.199   7.642
  721POPC   NC313571   9.512  31.940   9.501
  721POPC   PO413572   9.937  32.446   9.558
  721POPC   GL113573   9.792  32.252   9.172
  721POPC   GL213574  10.019  31.964   9.164
  721POPC   C1A13575   9.479  32.362   8.843
  721POPC   D2A13576   9.450  32.678   8.469
  721POPC   C3A13577   9.728  32.648   8.073
  721POPC   C4A13578   9.533  32.540   7.679
  721POPC   C1B13579  10.102  32.159   8.756
  721POPC   C2B13580   9.799  32.278   8.458
  721POPC   C3B13581   9.612  32.147   8.106
  721POPC   C4B13582   9.883  32.206   7.765
  722POPC   NC313583  42.097  18.972   9.612
  722POPC   PO413584  41.412  19.046   9.417
  722POPC   GL113585  41.574  19.043   9.036
  722POPC   GL213586  41.495  18.708   8.944
  722POPC   C1A13587  41.593  19.366   8.702
  722POPC   D2A13588  41.760  19.413   8.280
  722POPC   C3A13589  41.664  19.073   7.990
  722POPC   C4A13590  41.554  19.115   7.551
  722POPC   C1B13591  41.173  19.004   8.734
  722POPC   C2B13592  41.266  19.217   8.332
  722POPC   C3B13593  41.158  19.115   7.904
  722POPC   C4B13594  41.240  18.752   7.694
  723POPC   NC313595   7.785  13.724   9.182
  723POPC   PO413596   8.264  13.565   9.666
  723POPC   GL113597   8.289  13.708   9.258
  723POPC   GL213598   8.320  13.340   9.202
  723POPC   C1A13599   8.307  13.922   8.846
  723POPC   D2A13600   8.302  13.692   8.465
  723POPC   C3A13601   8.288  13.898   8.077
  723POPC   C4A13602   8.207  13.758   7.655
  723POPC   C1B13603   8.235  13.258   8.792
  723POPC   C2B13604   8.472  13.193   8.416
  723POPC   C3B13605   8.324  13.383   8.033
  723POPC   C4B13606   8.298  13.220   7.636
  724POPC   NC313607  11.094  12.802   9.638
  724POPC   PO413608  11.667  12.632   9.586
  724POPC   GL113609  11.425  12.900   9.237
  724POPC   GL213610  11.020  12.884   9.146
  724POPC   C1A13611  11.367  13.059   8.805
  724POPC   D2A13612  11.411  12.869   8.404
  724POPC   C3A13613  11.302  13.067   8.040
  724POPC   C4A13614  11.394  12.850   7.659
  724POPC   C1B13615  10.914  12.606   8.791
  724POPC   C2B13616  10.863  12.699   8.353
  724POPC   C3B13617  11.072  12.625   7.983
  724POPC   C4B13618  10.971  12.580   7.535
  725POPC   NC313619  38.102   9.867   9.321
  725POPC   PO413620  38.468   9.437   9.752
  725POPC   GL113621  38.520   9.585   9.288
  725POPC   GL213622  38.583   9.935   9.129
  725POPC   C1A13623  38.543   9.498   8.798
  725POPC   D2A13624  38.536   9.619   8.348
  725POPC   C3A13625  38.308   9.437   7.978
  725POPC   C4A13626  38.381   9.579   7.520
  725POPC   C1B13627  38.314   9.953   8.726
  725POPC   C2B13628  38.138   9.922   8.332
  725POPC   C3B13629  38.290   9.952   7.894
  725POPC   C4B13630  38.179  10.159   7.481
  726POPC   NC313631  23.324  12.513   9.278
  726POPC   PO413632  23.866  12.764   9.440
  726POPC   GL113633  23.912  12.656   9.042
  726POPC   GL213634  23.605  12.838   8.979
  726POPC   C1A13635  23.842  12.604   8.600
  726POPC   D2A13636  23.576  12.654   8.242
  726POPC   C3A13637  23.767  12.679   7.850
  726POPC   C4A13638  23.746  12.985   7.561
  726POPC   C1B13639  23.315  12.832   8.660
  726POPC   C2B13640  23.246  13.060   8.267
  726POPC   C3B13641  23.306  12.942   7.819
  726POPC   C4B13642  23.270  13.002   7.369
  727POPC   NC313643  28.079  17.377   9.504
  727POPC   PO413644  28.401  17.928   9.379
  727POPC   GL113645  28.442  17.531   9.145
  727POPC   GL213646  28.756  17.698   9.050
  727POPC   C1A13647  28.330  17.325   8.731
  727POPC   D2A13648  28.196  17.554   8.347
  727POPC   C3A13649  28.015  17.313   8.035
  727POPC   C4A13650  28.181  17.175   7.673
  727POPC   C1B13651  28.480  17.807   8.727
  727POPC   C2B13652  28.513  18.070   8.385
  727POPC   C3B13653  28.411  17.940   8.028
  727POPC   C4B13654  28.452  17.539   7.869
  728POPC   NC313655   5.517   7.423   9.509
  728POPC   PO413656   6.187   7.694   9.509
  728POPC   GL113657   6.114   7.506   9.150
  728POPC   GL213658   6.180   7.809   9.014
  728POPC   C1A13659   5.936   7.304   8.793
  728POPC   D2A13660   5.668   7.280   8.433
  728POPC   C3A13661   5.823   7.333   8.010
  728POPC   C4A13662   5.702   7.136   7.630
  728POPC   C1B13663   5.832   7.834   8.750
  728POPC   C2B13664   5.732   7.798   8.332
  728POPC   C3B13665   5.709   7.837   7.938
  728POPC   C4B13666   6.104   7.753   7.801
  729POPC   NC313667   6.286  11.331   9.313
  729POPC   PO413668   5.776  10.982   9.370
  729POPC   GL113669   5.652  11.346   9.138
  729POPC   GL213670   5.934  11.458   8.935
  729POPC   C1A13671   5.473  11.384   8.716
  729POPC   D2A13672   5.788  11.283   8.440
  729POPC   C3A13673   5.749  11.344   8.011
  729POPC   C4A13674   6.043  11.135   7.753
  729POPC   C1B13675   6.181  11.720   8.633
  729POPC   C2B13676   6.441  11.622   8.304
  729POPC   C3B13677   6.240  11.580   7.925
  729POPC   C4B13678   6.122  11.782   7.593
  730POPC   NC313679  27.309  26.659   9.424
  730POPC   PO413680  27.782  27.107   9.611
  730POPC   GL113681  27.768  26.856   9.265
  730POPC   GL213682  27.503  27.048   9.135
  730POPC   C1A13683  27.889  26.829   8.830
  730POPC   D2A13684  27.764  26.743   8.399
  730POPC   C3A13685  27.908  26.975   8.073
  730POPC   C4A13686  27.857  26.766   7.675
  730POPC   C1B13687  27.373  26.861   8.756
  730POPC   C2B13688  27.373  27.052   8.344
  730POPC   C3B13689  27.422  26.928   7.929
  730POPC   C4B13690  27.241  27.146   7.609
  731POPC   NC313691  28.508  15.776   9.792
  731POPC   PO413692  28.660  16.404   9.557
  731POPC   GL113693  28.558  16.260   9.166
  731POPC   GL213694  28.261  16.088   9.197
  731POPC   C1A13695  28.409  16.409   8.773
  731POPC   D2A13696  28.312  16.597   8.399
  731POPC   C3A13697  28.361  16.355   8.041
  731POPC   C4A13698  28.388  16.134   7.673
  731POPC   C1B13699  28.382  15.906   8.777
  731POPC   C2B13700  28.302  15.904   8.313
  731POPC   C3B13701  28.292  15.673   7.914
  731POPC   C4B13702  28.243  15.530   7.483
  732POPC   NC313703  40.624  35.097   9.330
  732POPC   PO413704  41.160  35.525   9.283
  732POPC   GL113705  40.899  35.395   9.013
  732POPC   GL213706  41.066  35.055   9.044
  732POPC   C1A13707  40.554  35.349   8.728
  732POPC   D2A13708  40.366  35.412   8.338
  732POPC   C3A13709  40.637  35.419   7.966
  732POPC   C4A13710  40.916  35.421   7.592
  732POPC   C1B13711  40.955  35.023   8.672
  732POPC   C2B13712  40.933  35.291   8.357
  732POPC   C3B13713  41.136  35.190   7.995
  732POPC   C4B13714  41.149  34.931   7.625
  733POPC   NC313715   7.203  31.089   9.271
  733POPC   PO413716   7.216  30.528   9.593
  733POPC   GL113717   7.385  30.573   9.149
  733POPC   GL213718   7.240  30.799   8.853
  733POPC   C1A13719   7.610  30.472   8.754
  733POPC   D2A13720   7.361  30.418   8.372
  733POPC   C3A13721   7.431  30.691   8.036
  733POPC   C4A13722   7.539  30.574   7.615
  733POPC   C1B13723   7.581  30.992   8.573
  733POPC   C2B13724   7.744  31.100   8.138
  733POPC   C3B13725   7.595  31.064   7.698
  733POPC   C4B13726   7.715  31.009   7.249
  734POPC   NC313727  41.264   0.432   9.433
  734POPC   PO413728  41.937   0.352   9.588
  734POPC   GL113729  41.711   0.218   9.193
  734POPC   GL213730  41.453   0.419   8.965
  734POPC   C1A13731  41.859   0.203   8.759
  734POPC   D2A13732  41.635   0.052   8.397
  734POPC   C3A13733  41.743   0.377   8.125
  734POPC   C4A13734  41.874   0.351   7.726
  734POPC   C1B13735  41.316   0.730   8.675
  734POPC   C2B13736  41.270   0.684   8.275
  734POPC   C3B13737  41.222   0.285   8.124
  734POPC   C4B13738  41.420   0.129   7.785
  735POPC   NC313739  44.843  16.948   9.539
  735POPC   PO413740  44.446  16.423   9.553
  735POPC   GL113741  44.660  16.590   9.213
  735POPC   GL213742  44.466  16.914   9.210
  735POPC   C1A13743  44.899  16.689   8.841
  735POPC   D2A13744  44.767  16.782   8.422
  735POPC   C3A13745  44.861  16.543   8.059
  735POPC   C4A13746  44.864  16.713   7.659
  735POPC   C1B13747  44.598  17.138   8.861
  735POPC   C2B13748  44.392  17.148   8.472
  735POPC   C3B13749  44.481  17.061   8.057
  735POPC   C4B13750  44.207  17.094   7.769
  736POPC   NC313751  37.965   1.065   9.555
  736POPC   PO413752  37.588   1.510   9.321
  736POPC   GL113753  37.844   1.183   9.057
  736POPC   GL213754  37.774   0.830   9.146
  736POPC   C1A13755  37.975   1.120   8.606
  736POPC   D2A13756  37.725   1.229   8.224
  736POPC   C3A13757  37.847   1.223   7.796
  736POPC   C4A13758  37.629   1.391   7.400
  736POPC   C1B13759  37.606   0.761   8.746
  736POPC   C2B13760  37.692   0.733   8.318
  736POPC   C3B13761  37.452   0.821   7.964
  736POPC   C4B13762  37.498   0.921   7.542
  737POPC   NC313763  23.413   0.610   9.818
  737POPC   PO413764  22.901   0.301   9.456
  737POPC   GL113765  22.722   0.413   9.082
  737POPC   GL213766  22.920   0.685   8.971
  737POPC   C1A13767  22.796   0.291   8.660
  737POPC   D2A13768  22.600   0.382   8.320
  737POPC   C3A13769  22.845   0.605   8.043
  737POPC   C4A13770  22.779   0.322   7.718
  737POPC   C1B13771  23.228   0.551   8.621
  737POPC   C2B13772  23.164   0.260   8.252
  737POPC   C3B13773  23.277   0.246   7.808
  737POPC   C4B13774  23.147   0.626   7.555
  738POPC   NC313775  38.704  33.488   9.450
  738POPC   PO413776  38.652  34.134   9.362
  738POPC   GL113777  38.388  33.834   9.207
  738POPC   GL213778  38.192  34.036   9.022
  738POPC   C1A13779  38.363  33.551   8.865
  738POPC   D2A13780  38.491  33.508   8.447
  738POPC   C3A13781  38.488  33.597   8.022
  738POPC   C4A13782  38.742  33.759   7.708
  738POPC   C1B13783  38.536  34.023   8.720
  738POPC   C2B13784  38.457  34.044   8.295
  738POPC   C3B13785  38.413  34.106   7.873
  738POPC   C4B13786  38.230  33.836   7.626
  739POPC   NC313787  21.618  24.633   9.498
  739POPC   PO413788  21.061  24.960   9.437
  739POPC   GL113789  21.254  24.630   9.096
  739POPC   GL213790  21.543  24.401   9.041
  739POPC   C1A13791  21.186  24.454   8.670
  739POPC   D2A13792  21.518  24.242   8.424
  739POPC   C3A13793  21.533  24.266   7.963
  739POPC   C4A13794  21.497  24.575   7.627
  739POPC   C1B13795  21.634  24.723   8.700
  739POPC   C2B13796  21.802  24.733   8.246
  739POPC   C3B13797  21.958  24.832   7.804
  739POPC   C4B13798  21.849  24.860   7.352
  740POPC   NC313799   4.384  28.654   9.518
  740POPC   PO413800   4.297  29.309   9.438
  740POPC   GL113801   4.514  29.017   9.171
  740POPC   GL213802   4.235  28.789   9.046
  740POPC   C1A13803   4.673  28.879   8.772
  740POPC   D2A13804   4.508  28.802   8.341
  740POPC   C3A13805   4.621  29.111   8.002
  740POPC   C4A13806   4.592  29.381   7.637
  740POPC   C1B13807   4.202  29.079   8.683
  740POPC   C2B13808   4.141  29.151   8.216
  740POPC   C3B13809   4.069  29.121   7.744
  740POPC   C4B13810   3.886  28.950   7.319
  741POPC   NC313811  25.730  15.959   9.640
  741POPC   PO413812  26.322  15.785   9.645
  741POPC   GL113813  26.156  16.070   9.315
  741POPC   GL213814  25.907  15.863   9.165
  741POPC   C1A13815  26.235  16.176   8.853
  741POPC   D2A13816  26.143  16.370   8.461
  741POPC   C3A13817  26.332  16.123   8.135
  741POPC   C4A13818  26.299  16.081   7.709
  741POPC   C1B13819  25.999  15.737   8.763
  741POPC   C2B13820  25.931  15.907   8.373
  741POPC   C3B13821  25.778  15.768   8.002
  741POPC   C4B13822  25.990  15.580   7.673
  742POPC   NC313823  29.388  37.723   9.457
  742POPC   PO413824  30.085  37.825   9.480
  742POPC   GL113825  29.796  37.724   9.157
  742POPC   GL213826  30.057  37.572   8.964
  742POPC   C1A13827  29.592  37.566   8.777
  742POPC   D2A13828  29.859  37.589   8.410
  742POPC   C3A13829  29.653  37.771   8.060
  742POPC   C4A13830  29.688  37.589   7.662
  742POPC   C1B13831  30.342  37.576   8.630
  742POPC   C2B13832  30.436  37.721   8.252
  742POPC   C3B13833  30.167  37.688   7.943
  742POPC   C4B13834  30.159  37.636   7.491
  743POPC   NC313835   2.939   8.690   9.712
  743POPC   PO413836   3.074   9.155   9.238
  743POPC   GL113837   2.953   8.736   9.159
  743POPC   GL213838   2.691   8.817   9.027
  743POPC   C1A13839   3.059   8.634   8.736
  743POPC   D2A13840   3.275   8.937   8.491
  743POPC   C3A13841   3.140   8.872   8.119
  743POPC   C4A13842   2.892   8.926   7.813
  743POPC   C1B13843   2.661   9.025   8.653
  743POPC   C2B13844   2.357   9.169   8.374
  743POPC   C3B13845   2.539   9.255   7.993
  743POPC   C4B13846   2.492   9.116   7.602
  744POPC   NC313847  10.781  34.198   9.423
  744POPC   PO413848  11.302  34.582   9.562
  744POPC   GL113849  11.240  34.638   9.141
  744POPC   GL213850  11.043  34.354   9.009
  744POPC   C1A13851  11.380  34.643   8.734
  744POPC   D2A13852  11.276  34.397   8.348
  744POPC   C3A13853  11.435  34.656   8.004
  744POPC   C4A13854  11.450  34.622   7.544
  744POPC   C1B13855  10.882  34.667   8.685
  744POPC   C2B13856  10.976  34.802   8.226
  744POPC   C3B13857  10.963  34.724   7.773
  744POPC   C4B13858  11.072  34.884   7.330
  745POPC   NC313859   1.073  42.631   9.738
  745POPC   PO413860   1.313  43.302   9.602
  745POPC   GL113861   1.400  43.166   9.152
  745POPC   GL213862   1.335  42.824   9.159
  745POPC   C1A13863   1.439  43.222   8.690
  745POPC   D2A13864   1.137  43.301   8.358
  745POPC   C3A13865   1.188  43.454   7.938
  745POPC   C4A13866   0.936  43.410   7.587
  745POPC   C1B13867   1.100  42.853   8.786
  745POPC   C2B13868   1.263  42.824   8.380
  745POPC   C3B13869   1.118  42.941   7.981
  745POPC   C4B13870   1.350  43.043   7.624
  746POPC   NC313871  40.992   7.818   9.601
  746POPC   PO413872  41.553   7.356   9.604
  746POPC   GL113873  41.652   7.158   9.237
  746POPC   GL213874  41.329   7.224   9.101
  746POPC   C1A13875  41.761   7.180   8.790
  746POPC   D2A13876  41.736   7.542   8.509
  746POPC   C3A13877  41.518   7.408   8.139
  746POPC   C4A13878  41.502   7.606   7.745
  746POPC   C1B13879  41.278   7.340   8.698
  746POPC   C2B13880  41.234   7.703   8.461
  746POPC   C3B13881  41.068   7.649   8.074
  746POPC   C4B13882  41.104   7.280   7.827
  747POPC   NC313883  25.548  20.080   9.692
  747POPC   PO413884  26.202  19.724   9.601
  747POPC   GL113885  26.230  19.923   9.213
  747POPC   GL213886  25.941  20.121   9.331
  747POPC   C1A13887  26.278  19.784   8.783
  747POPC   D2A13888  26.392  19.871   8.356
  747POPC   C3A13889  26.130  19.739   8.037
  747POPC   C4A13890  26.273  19.867   7.637
  747POPC   C1B13891  25.922  20.195   8.903
  747POPC   C2B13892  25.931  20.031   8.494
  747POPC   C3B13893  25.846  20.157   8.093
  747POPC   C4B13894  25.778  19.940   7.710
  748POPC   NC313895  34.892  23.789   9.442
  748POPC   PO413896  34.501  23.341   9.450
  748POPC   GL113897  34.541  23.571   9.097
  748POPC   GL213898  34.880  23.527   8.994
  748POPC   C1A13899  34.460  23.466   8.673
  748POPC   D2A13900  34.529  23.700   8.282
  748POPC   C3A13901  34.559  23.672   7.835
  748POPC   C4A13902  34.488  23.390   7.472
  748POPC   C1B13903  34.707  23.907   8.739
  748POPC   C2B13904  34.763  24.136   8.332
  748POPC   C3B13905  34.861  24.095   7.867
  748POPC   C4B13906  34.782  23.878   7.411
  749POPC   NC313907  28.381  29.583   9.436
  749POPC   PO413908  28.198  28.958   9.516
  749POPC   GL113909  28.353  29.150   9.159
  749POPC   GL213910  28.576  28.928   9.038
  749POPC   C1A13911  28.435  29.413   8.787
  749POPC   D2A13912  28.269  29.336   8.385
  749POPC   C3A13913  28.433  29.376   7.968
  749POPC   C4A13914  28.325  29.099   7.623
  749POPC   C1B13915  28.523  28.930   8.602
  749POPC   C2B13916  28.511  28.883   8.169
  749POPC   C3B13917  28.765  28.908   7.805
  749POPC   C4B13918  28.692  28.914   7.310
  750POPC   NC313919  16.983  21.952   9.567
  750POPC   PO413920  16.582  22.448   9.443
  750POPC   GL113921  16.704  22.172   9.146
  750POPC   GL213922  16.702  21.801   9.145
  750POPC   C1A13923  16.463  22.200   8.771
  750POPC   D2A13924  16.466  22.059   8.370
  750POPC   C3A13925  16.681  22.262   8.037
  750POPC   C4A13926  16.320  22.417   7.862
  750POPC   C1B13927  16.637  21.695   8.723
  750POPC   C2B13928  16.866  21.776   8.336
  750POPC   C3B13929  16.680  21.756   7.971
  750POPC   C4B13930  16.585  21.921   7.574
  751POPC   NC313931  32.506   7.033   9.621
  751POPC   PO413932  32.989   7.476   9.562
  751POPC   GL113933  33.095   7.512   9.116
  751POPC   GL213934  33.333   7.751   9.002
  751POPC   C1A13935  33.191   7.367   8.690
  751POPC   D2A13936  32.874   7.395   8.361
  751POPC   C3A13937  32.894   7.406   7.925
  751POPC   C4A13938  33.067   7.455   7.518
  751POPC   C1B13939  32.990   7.811   8.645
  751POPC   C2B13940  33.146   7.787   8.201
  751POPC   C3B13941  33.076   7.879   7.767
  751POPC   C4B13942  33.273   7.903   7.351
  752POPC   NC313943  28.991  29.238   9.526
  752POPC   PO413944  29.665  29.275   9.619
  752POPC   GL113945  29.421  29.059   9.251
  752POPC   GL213946  29.265  29.355   9.128
  752POPC   C1A13947  29.382  28.997   8.775
  752POPC   D2A13948  29.085  28.902   8.395
  752POPC   C3A13949  29.232  29.071   7.957
  752POPC   C4A13950  29.157  28.998   7.503
  752POPC   C1B13951  28.934  29.249   8.825
  752POPC   C2B13952  28.799  29.316   8.399
  752POPC   C3B13953  28.929  29.506   8.026
  752POPC   C4B13954  28.832  29.384   7.607
  753POPC   NC313955  16.285  36.787   9.511
  753POPC   PO413956  15.673  37.240   9.494
  753POPC   GL113957  15.922  37.023   9.208
  753POPC   GL213958  16.297  37.065   9.105
  753POPC   C1A13959  15.829  37.091   8.789
  753POPC   D2A13960  15.957  37.251   8.407
  753POPC   C3A13961  15.874  37.018   8.021
  753POPC   C4A13962  15.767  36.905   7.580
  753POPC   C1B13963  16.127  36.702   8.860
  753POPC   C2B13964  15.938  36.720   8.452
  753POPC   C3B13965  16.119  36.596   8.107
  753POPC   C4B13966  16.209  36.718   7.720
  754POPC   NC313967   2.501  21.089   9.511
  754POPC   PO413968   2.627  21.735   9.582
  754POPC   GL113969   2.643  21.493   9.151
  754POPC   GL213970   2.794  21.198   9.124
  754POPC   C1A13971   2.978  21.484   8.759
  754POPC   D2A13972   3.101  21.588   8.322
  754POPC   C3A13973   2.808  21.562   8.007
  754POPC   C4A13974   2.698  21.536   7.625
  754POPC   C1B13975   2.766  21.039   8.738
  754POPC   C2B13976   2.755  21.186   8.337
  754POPC   C3B13977   2.797  21.046   7.918
  754POPC   C4B13978   2.841  21.064   7.483
  755POPC   NC313979  10.683  13.218   9.433
  755POPC   PO413980  10.712  13.896   9.588
  755POPC   GL113981  10.411  13.761   9.266
  755POPC   GL213982  10.538  14.013   9.074
  755POPC   C1A13983  10.405  13.548   8.858
  755POPC   D2A13984  10.468  13.670   8.433
  755POPC   C3A13985  10.211  13.491   8.134
  755POPC   C4A13986  10.114  13.576   7.727
  755POPC   C1B13987  10.878  13.775   8.868
  755POPC   C2B13988  11.057  13.831   8.434
  755POPC   C3B13989  10.970  13.628   8.028
  755POPC   C4B13990  10.560  13.778   7.878
  756POPC   NC313991  26.088   0.851   9.918
  756POPC   PO413992  25.992   0.338   9.521
  756POPC   GL113993  25.974   0.366   9.087
  756POPC   GL213994  26.246   0.584   9.073
  756POPC   C1A13995  25.978   0.446   8.636
  756POPC   D2A13996  25.676   0.569   8.318
  756POPC   C3A13997  25.723   0.587   7.893
  756POPC   C4A13998  25.884   0.212   7.669
  756POPC   C1B13999  26.497   0.628   8.736
  756POPC   C2B14000  26.428   0.454   8.327
  756POPC   C3B14001  26.232   0.601   7.934
  756POPC   C4B14002  26.408   0.865   7.616
  757POPC   NC314003  10.433  25.802   9.512
  757POPC   PO414004  11.069  26.139   9.488
  757POPC   GL114005  10.778  26.065   9.124
  757POPC   GL214006  10.413  26.110   9.120
  757POPC   C1A14007  10.639  26.199   8.687
  757POPC   D2A14008  10.787  26.202   8.300
  757POPC   C3A14009  10.573  26.036   7.960
  757POPC   C4A14010  10.199  26.133   7.777
  757POPC   C1B14011  10.161  26.020   8.717
  757POPC   C2B14012  10.154  25.984   8.276
  757POPC   C3B14013  10.183  25.626   8.090
  757POPC   C4B14014  10.262  25.363   7.792
  758POPC   NC314015  30.691  25.517   9.474
  758POPC   PO414016  30.301  25.050   9.422
  758POPC   GL114017  30.584  25.217   9.062
  758POPC   GL214018  30.890  25.449   9.032
  758POPC   C1A14019  30.648  25.317   8.618
  758POPC   D2A14020  30.719  25.036   8.321
  758POPC   C3A14021  30.384  25.144   8.083
  758POPC   C4A14022  30.313  25.475   7.776
  758POPC   C1B14023  31.145  25.488   8.669
  758POPC   C2B14024  31.075  25.378   8.252
  758POPC   C3B14025  30.818  25.255   7.845
  758POPC   C4B14026  30.780  25.610   7.543
  759POPC   NC314027   7.963  13.165   9.652
  759POPC   PO414028   8.467  12.857   9.398
  759POPC   GL114029   8.209  12.801   9.101
  759POPC   GL214030   7.908  12.988   9.159
  759POPC   C1A14031   8.383  12.758   8.712
  759POPC   D2A14032   8.183  12.672   8.358
  759POPC   C3A14033   8.310  12.863   8.016
  759POPC   C4A14034   8.556  12.691   7.684
  759POPC   C1B14035   7.886  12.886   8.702
  759POPC   C2B14036   7.957  13.153   8.338
  759POPC   C3B14037   7.846  13.148   7.906
  759POPC   C4B14038   7.973  12.815   7.645
  760POPC   NC314039  25.677  42.146   9.429
  760POPC   PO414040  25.198  42.595   9.427
  760POPC   GL114041  25.238  42.288   9.143
  760POPC   GL214042  25.554  42.332   8.975
  760POPC   C1A14043  25.127  42.216   8.733
  760POPC   D2A14044  25.380  42.174   8.363
  760POPC   C3A14045  25.162  42.251   7.996
  760POPC   C4A14046  24.984  42.247   7.607
  760POPC   C1B14047  25.830  42.135   8.665
  760POPC   C2B14048  25.835  41.960   8.234
  760POPC   C3B14049  25.641  42.076   7.848
  760POPC   C4B14050  25.458  42.451   7.612
  761POPC   NC314051   8.074   3.037   9.538
  761POPC   PO414052   8.719   2.658   9.474
  761POPC   GL114053   8.597   2.913   9.128
  761POPC   GL214054   8.237   2.900   9.078
  761POPC   C1A14055   8.538   2.963   8.687
  761POPC   D2A14056   8.258   3.087   8.340
  761POPC   C3A14057   8.524   2.983   7.995
  761POPC   C4A14058   8.557   2.810   7.583
  761POPC   C1B14059   8.103   2.686   8.690
  761POPC   C2B14060   7.933   2.645   8.279
  761POPC   C3B14061   7.876   2.767   7.861
  761POPC   C4B14062   8.089   2.705   7.452
  762POPC   NC314063  33.285  17.856   9.338
  762POPC   PO414064  33.886  17.594   9.455
  762POPC   GL114065  33.744  17.412   9.077
  762POPC   GL214066  33.670  17.733   9.009
  762POPC   C1A14067  33.861  17.423   8.597
  762POPC   D2A14068  33.869  17.225   8.147
  762POPC   C3A14069  33.865  17.485   7.752
  762POPC   C4A14070  33.879  17.408   7.287
  762POPC   C1B14071  33.537  17.814   8.613
  762POPC   C2B14072  33.683  17.783   8.200
  762POPC   C3B14073  33.538  17.909   7.775
  762POPC   C4B14074  33.442  17.625   7.416
  763POPC   NC314075  29.685   2.216   9.540
  763POPC   PO414076  30.305   2.228   9.367
  763POPC   GL114077  29.912   2.185   9.102
  763POPC   GL214078  29.886   1.832   9.140
  763POPC   C1A14079  29.668   2.034   8.728
  763POPC   D2A14080  29.586   1.823   8.322
  763POPC   C3A14081  29.767   2.097   7.996
  763POPC   C4A14082  29.727   2.377   7.646
  763POPC   C1B14083  30.179   1.948   8.754
  763POPC   C2B14084  30.150   1.894   8.308
  763POPC   C3B14085  30.374   1.824   7.903
  763POPC   C4B14086  30.589   1.930   7.495
  764POPC   NC314087  18.638  22.110   9.560
  764POPC   PO414088  19.380  22.225   9.433
  764POPC   GL114089  19.054  22.086   9.203
  764POPC   GL214090  18.823  22.353   9.161
  764POPC   C1A14091  19.104  21.943   8.793
  764POPC   D2A14092  19.176  22.146   8.398
  764POPC   C3A14093  19.339  21.968   8.061
  764POPC   C4A14094  19.090  21.941   7.690
  764POPC   C1B14095  18.964  22.444   8.754
  764POPC   C2B14096  18.890  22.575   8.349
  764POPC   C3B14097  18.943  22.345   7.981
  764POPC   C4B14098  18.698  22.504   7.670
  765POPC   NC314099   8.903  42.896   9.659
  765POPC   PO414100   9.060  43.570   9.508
  765POPC   GL114101   8.819  43.232   9.235
  765POPC   GL214102   9.018  42.991   9.129
  765POPC   C1A14103   8.608  43.180   8.777
  765POPC   D2A14104   8.562  43.475   8.352
  765POPC   C3A14105   8.797  43.414   7.953
  765POPC   C4A14106   8.681  43.092   7.671
  765POPC   C1B14107   9.060  43.367   8.819
  765POPC   C2B14108   8.985  43.194   8.405
  765POPC   C3B14109   9.056  42.971   8.039
  765POPC   C4B14110   9.269  43.125   7.715
  766POPC   NC314111  31.971   8.236   9.508
  766POPC   PO414112  32.576   8.373   9.718
  766POPC   GL114113  32.458   8.234   9.262
  766POPC   GL214114  32.245   8.422   9.127
  766POPC   C1A14115  32.370   7.995   8.841
  766POPC   D2A14116  32.186   7.901   8.410
  766POPC   C3A14117  32.178   8.150   8.016
  766POPC   C4A14118  32.340   7.923   7.662
  766POPC   C1B14119  31.994   8.353   8.760
  766POPC   C2B14120  31.994   8.512   8.346
  766POPC   C3B14121  31.864   8.619   7.937
  766POPC   C4B14122  32.004   8.426   7.569
  767POPC   NC314123  25.139  24.970   9.380
  767POPC   PO414124  25.644  25.373   9.559
  767POPC   GL114125  25.555  25.209   9.145
  767POPC   GL214126  25.346  25.497   9.093
  767POPC   C1A14127  25.269  25.150   8.751
  767POPC   D2A14128  25.100  25.215   8.325
  767POPC   C3A14129  25.395  25.242   8.003
  767POPC   C4A14130  25.401  25.499   7.659
  767POPC   C1B14131  25.045  25.619   8.793
  767POPC   C2B14132  24.978  25.796   8.407
  767POPC   C3B14133  25.056  25.705   7.992
  767POPC   C4B14134  24.900  25.631   7.591
  768POPC   NC314135   3.912  41.336   9.396
  768POPC   PO414136   4.203  40.727   9.596
  768POPC   GL114137   4.204  40.866   9.167
  768POPC   GL214138   4.504  41.036   9.197
  768POPC   C1A14139   4.058  40.626   8.736
  768POPC   D2A14140   3.998  40.617   8.239
  768POPC   C3A14141   3.930  41.041   8.085
  768POPC   C4A14142   4.063  41.227   7.715
  768POPC   C1B14143   4.510  40.860   8.765
  768POPC   C2B14144   4.363  40.952   8.349
  768POPC   C3B14145   4.409  40.845   7.889
  768POPC   C4B14146   4.694  40.826   7.509
  769POPC   NC314147  28.641  35.477   9.626
  769POPC   PO414148  28.097  35.098   9.502
  769POPC   GL114149  28.275  35.418   9.199
  769POPC   GL214150  28.635  35.573   9.136
  769POPC   C1A14151  28.331  35.490   8.748
  769POPC   D2A14152  28.394  35.587   8.338
  769POPC   C3A14153  28.403  35.300   8.040
  769POPC   C4A14154  28.176  35.302   7.712
  769POPC   C1B14155  28.649  35.146   8.965
  769POPC   C2B14156  28.630  35.122   8.518
  769POPC   C3B14157  28.874  35.334   8.215
  769POPC   C4B14158  28.845  35.187   7.793
  770POPC   NC314159  16.405  18.328   9.535
  770POPC   PO414160  16.779  18.837   9.750
  770POPC   GL114161  16.739  18.638   9.255
  770POPC   GL214162  17.052  18.706   9.109
  770POPC   C1A14163  16.463  18.433   8.876
  770POPC   D2A14164  16.267  18.290   8.495
  770POPC   C3A14165  16.464  18.334   8.060
  770POPC   C4A14166  16.415  18.245   7.630
  770POPC   C1B14167  16.961  18.414   8.825
  770POPC   C2B14168  17.030  18.659   8.478
  770POPC   C3B14169  17.227  18.590   8.115
  770POPC   C4B14170  16.955  18.346   7.792
  771POPC   NC314171  11.417  36.797   9.604
  771POPC   PO414172  11.191  37.451   9.683
  771POPC   GL114173  11.237  37.166   9.219
  771POPC   GL214174  11.202  36.800   9.140
  771POPC   C1A14175  11.333  37.036   8.726
  771POPC   D2A14176  11.495  37.140   8.293
  771POPC   C3A14177  11.323  37.112   7.848
  771POPC   C4A14178  11.057  37.144   7.481
  771POPC   C1B14179  11.175  36.545   8.751
  771POPC   C2B14180  11.212  36.697   8.288
  771POPC   C3B14181  11.147  36.627   7.851
  771POPC   C4B14182  10.840  36.645   7.480
  772POPC   NC314183   8.006  25.608   9.548
  772POPC   PO414184   8.563  25.211   9.519
  772POPC   GL114185   8.421  25.449   9.155
  772POPC   GL214186   8.109  25.431   9.078
  772POPC   C1A14187   8.400  25.614   8.694
  772POPC   D2A14188   8.335  25.445   8.282
  772POPC   C3A14189   8.410  25.323   7.849
  772POPC   C4A14190   8.314  25.024   7.520
  772POPC   C1B14191   7.896  25.596   8.726
  772POPC   C2B14192   7.822  25.423   8.343
  772POPC   C3B14193   7.991  25.134   8.043
  772POPC   C4B14194   7.871  25.238   7.636
  773POPC   NC314195  28.979  25.244   9.572
  773POPC   PO414196  29.392  24.864   9.223
  773POPC   GL114197  29.253  25.269   9.109
  773POPC   GL214198  28.934  25.494   9.134
  773POPC   C1A14199  29.385  25.295   8.707
  773POPC   D2A14200  29.584  25.388   8.326
  773POPC   C3A14201  29.370  25.298   7.946
  773POPC   C4A14202  29.375  25.006   7.638
  773POPC   C1B14203  28.821  25.371   8.752
  773POPC   C2B14204  29.025  25.280   8.356
  773POPC   C3B14205  28.871  25.413   7.995
  773POPC   C4B14206  28.866  25.112   7.693
  774POPC   NC314207   0.389  24.662   9.441
  774POPC   PO414208   0.715  24.210   9.160
  774POPC   GL114209   0.314  24.295   9.020
  774POPC   GL214210   0.182  24.648   8.978
  774POPC   C1A14211   0.300  24.355   8.587
  774POPC   D2A14212   0.332  24.696   8.321
  774POPC   C3A14213   0.298  24.561   7.911
  774POPC   C4A14214   0.008  24.815   7.720
  774POPC   C1B14215   0.587  24.780   8.749
  774POPC   C2B14216   0.823  24.824   8.316
  774POPC   C3B14217   0.828  24.760   7.846
  774POPC   C4B14218   0.959  24.779   7.365
  775POPC   NC314219  32.380  29.544   9.579
  775POPC   PO414220  32.043  30.061   9.365
  775POPC   GL114221  32.349  29.822   9.165
  775POPC   GL214222  32.168  29.512   9.112
  775POPC   C1A14223  32.508  29.770   8.785
  775POPC   D2A14224  32.366  30.042   8.448
  775POPC   C3A14225  32.458  29.928   8.041
  775POPC   C4A14226  32.250  29.951   7.676
  775POPC   C1B14227  31.991  29.802   8.791
  775POPC   C2B14228  31.949  29.704   8.419
  775POPC   C3B14229  31.942  29.906   8.076
  775POPC   C4B14230  31.800  29.639   7.778
  776POPC   NC314231   8.413  26.387   9.255
  776POPC   PO414232   7.991  26.800   9.642
  776POPC   GL114233   8.048  26.890   9.117
  776POPC   GL214234   8.338  26.692   8.875
  776POPC   C1A14235   8.209  27.122   8.696
  776POPC   D2A14236   8.414  26.857   8.374
  776POPC   C3A14237   8.378  26.791   7.903
  776POPC   C4A14238   8.619  26.827   7.452
  776POPC   C1B14239   7.951  26.644   8.668
  776POPC   C2B14240   7.718  26.584   8.295
  776POPC   C3B14241   7.906  26.628   7.902
  776POPC   C4B14242   7.780  26.803   7.499
  777POPC   NC314243  43.981  15.729   9.453
  777POPC   PO414244  43.579  16.194   9.507
  777POPC   GL114245  43.841  16.115   9.152
  777POPC   GL214246  43.658  15.887   9.018
  777POPC   C1A14247  44.017  16.214   8.711
  777POPC   D2A14248  44.033  16.254   8.221
  777POPC   C3A14249  43.889  15.909   7.941
  777POPC   C4A14250  43.478  15.750   7.768
  777POPC   C1B14251  43.514  16.297   8.807
  777POPC   C2B14252  43.583  16.411   8.373
  777POPC   C3B14253  43.565  16.312   7.937
  777POPC   C4B14254  43.163  16.221   7.777
  778POPC   NC314255  20.082  44.145   9.631
  778POPC   PO414256  19.713  44.652   9.333
  778POPC   GL114257  20.100  44.660   9.117
  778POPC   GL214258  20.271  44.362   9.201
  778POPC   C1A14259  20.025  44.819   8.707
  778POPC   D2A14260  19.887  44.559   8.396
  778POPC   C3A14261  19.951  44.778   8.054
  778POPC   C4A14262  19.720  44.762   7.697
  778POPC   C1B14263  20.155  44.308   8.766
  778POPC   C2B14264  20.307  44.241   8.375
  778POPC   C3B14265  20.111  44.303   8.002
  778POPC   C4B14266  19.778  44.259   7.725
  779POPC   NC314267  28.019   4.836   9.803
  779POPC   PO414268  28.439   5.326   9.748
  779POPC   GL114269  28.457   5.366   9.260
  779POPC   GL214270  28.440   4.986   9.109
  779POPC   C1A14271  28.238   5.355   8.833
  779POPC   D2A14272  28.367   5.087   8.461
  779POPC   C3A14273  28.307   5.358   8.087
  779POPC   C4A14274  28.155   5.343   7.657
  779POPC   C1B14275  28.023   4.900   8.845
  779POPC   C2B14276  27.964   4.721   8.416
  779POPC   C3B14277  28.109   4.883   8.023
  779POPC   C4B14278  28.501   4.972   7.822
  780POPC   NC314279  34.506  30.716   9.472
  780POPC   PO414280  34.774  31.257   9.678
  780POPC   GL114281  34.725  31.028   9.161
  780POPC   GL214282  34.344  30.900   9.011
  780POPC   C1A14283  34.693  30.806   8.697
  780POPC   D2A14284  34.314  30.743   8.388
  780POPC   C3A14285  34.412  30.891   7.970
  780POPC   C4A14286  34.768  30.905   7.702
  780POPC   C1B14287  34.363  30.449   8.816
  780POPC   C2B14288  34.623  30.346   8.428
  780POPC   C3B14289  34.680  30.417   7.954
  780POPC   C4B14290  34.344  30.435   7.651
  781POPC   NC314291  12.651  13.166   9.430
  781POPC   PO414292  13.137  13.709   9.575
  781POPC   GL114293  12.864  13.592   9.252
  781POPC   GL214294  13.084  13.308   9.189
  781POPC   C1A14295  12.648  13.734   8.895
  781POPC   D2A14296  12.868  13.833   8.527
  781POPC   C3A14297  12.762  13.618   8.157
  781POPC   C4A14298  12.440  13.729   7.856
  781POPC   C1B14299  12.804  13.273   8.809
  781POPC   C2B14300  12.620  13.167   8.429
  781POPC   C3B14301  12.507  13.145   8.035
  781POPC   C4B14302  12.749  13.333   7.729
  782POPC   NC314303  41.252  43.256   9.425
  782POPC   PO414304  41.816  42.855   9.559
  782POPC   GL114305  41.611  42.993   9.188
  782POPC   GL214306  41.895  42.955   8.991
  782POPC   C1A14307  41.338  43.096   8.814
  782POPC   D2A14308  41.505  43.071   8.427
  782POPC   C3A14309  41.376  43.147   8.000
  782POPC   C4A14310  41.328  43.159   7.542
  782POPC   C1B14311  41.995  43.169   8.590
  782POPC   C2B14312  41.918  43.059   8.150
  782POPC   C3B14313  41.863  43.175   7.724
  782POPC   C4B14314  42.133  43.030   7.359
  783POPC   NC314315  23.344   0.612   9.302
  783POPC   PO414316  23.818   0.187   9.545
  783POPC   GL114317  23.896   0.359   9.145
  783POPC   GL214318  23.973   0.684   9.077
  783POPC   C1A14319  23.932   0.240   8.740
  783POPC   D2A14320  23.652   0.309   8.404
  783POPC   C3A14321  23.840   0.266   8.030
  783POPC   C4A14322  23.851   0.094   7.642
  783POPC   C1B14323  23.734   0.731   8.709
  783POPC   C2B14324  23.506   0.939   8.379
  783POPC   C3B14325  23.379   0.704   8.036
  783POPC   C4B14326  23.639   0.604   7.682
  784POPC   NC314327  10.287  14.111   9.636
  784POPC   PO414328  10.408  14.700   9.399
  784POPC   GL114329  10.354  14.538   9.053
  784POPC   GL214330  10.705  14.482   9.034
  784POPC   C1A14331  10.388  14.397   8.662
  784POPC   D2A14332  10.609  14.153   8.419
  784POPC   C3A14333  10.452  14.287   8.043
  784POPC   C4A14334  10.352  14.606   7.786
  784POPC   C1B14335  10.805  14.674   8.683
  784POPC   C2B14336  10.612  14.736   8.295
  784POPC   C3B14337  10.829  14.699   7.911
  784POPC   C4B14338  10.845  14.657   7.494
  785POPC   NC314339  27.908  13.592   9.641
  785POPC   PO414340  27.380  13.674   9.513
  785POPC   GL114341  27.545  13.559   9.108
  785POPC   GL214342  27.591  13.221   9.070
  785POPC   C1A14343  27.376  13.500   8.677
  785POPC   D2A14344  27.502  13.433   8.224
  785POPC   C3A14345  27.639  13.746   7.887
  785POPC   C4A14346  27.472  14.072   7.582
  785POPC   C1B14347  27.797  13.225   8.618
  785POPC   C2B14348  27.942  13.170   8.161
  785POPC   C3B14349  27.887  13.325   7.727
  785POPC   C4B14350  28.098  13.679   7.501
  786POPC   NC314351   9.109   2.378   9.539
  786POPC   PO414352   9.300   3.060   9.501
  786POPC   GL114353   9.117   2.988   9.120
  786POPC   GL214354   9.107   2.625   9.093
  786POPC   C1A14355   9.066   2.899   8.672
  786POPC   D2A14356   9.414   2.697   8.421
  786POPC   C3A14357   9.311   2.710   7.977
  786POPC   C4A14358   9.004   2.930   7.777
  786POPC   C1B14359   9.087   2.392   8.679
  786POPC   C2B14360   8.932   2.595   8.286
  786POPC   C3B14361   8.806   2.436   7.872
  786POPC   C4B14362   8.939   2.502   7.440
  787POPC   NC314363   3.936  27.899   9.530
  787POPC   PO414364   3.750  27.390   9.467
  787POPC   GL114365   3.556  27.698   9.139
  787POPC   GL214366   3.781  27.952   9.046
  787POPC   C1A14367   3.401  27.853   8.700
  787POPC   D2A14368   3.535  28.012   8.267
  787POPC   C3A14369   3.512  27.800   7.836
  787POPC   C4A14370   3.341  27.392   7.631
  787POPC   C1B14371   3.903  27.730   8.673
  787POPC   C2B14372   3.862  27.624   8.227
  787POPC   C3B14373   4.024  27.839   7.864
  787POPC   C4B14374   3.925  28.010   7.429
  788POPC   NC314375  30.253  30.290   9.564
  788POPC   PO414376  29.952  29.768   9.339
  788POPC   GL114377  29.910  30.024   9.029
  788POPC   GL214378  30.172  30.252   9.072
  788POPC   C1A14379  29.936  29.811   8.665
  788POPC   D2A14380  29.804  29.614   8.315
  788POPC   C3A14381  29.923  29.766   7.959
  788POPC   C4A14382  29.742  29.824   7.547
  788POPC   C1B14383  30.152  30.282   8.651
  788POPC   C2B14384  30.201  30.276   8.198
  788POPC   C3B14385  30.049  30.249   7.794
  788POPC   C4B14386  30.223  30.299   7.412
  789POPC   NC314387   7.249  32.637   9.405
  789POPC   PO414388   7.724  33.082   9.465
  789POPC   GL114389   7.599  32.947   9.117
  789POPC   GL214390   7.269  33.096   9.110
  789POPC   C1A14391   7.590  33.236   8.730
  789POPC   D2A14392   7.388  33.318   8.365
  789POPC   C3A14393   7.521  33.155   7.973
  789POPC   C4A14394   7.575  33.257   7.549
  789POPC   C1B14395   7.312  32.817   8.751
  789POPC   C2B14396   7.316  32.823   8.344
  789POPC   C3B14397   7.157  32.793   7.970
  789POPC   C4B14398   7.051  33.058   7.663
  790POPC   NC314399   6.792  11.689   9.546
  790POPC   PO414400   6.650  11.005   9.460
  790POPC   GL114401   6.791  11.328   9.172
  790POPC   GL214402   6.563  11.473   8.901
  790POPC   C1A14403   7.029  11.271   8.816
  790POPC   D2A14404   6.766  11.260   8.462
  790POPC   C3A14405   6.995  11.325   8.121
  790POPC   C4A14406   7.015  10.984   7.866
  790POPC   C1B14407   6.284  11.213   8.653
  790POPC   C2B14408   6.229  11.158   8.230
  790POPC   C3B14409   6.534  11.151   7.901
  790POPC   C4B14410   6.721  11.527   7.730
  791POPC   NC314411  44.248  25.455   9.417
  791POPC   PO414412  43.783  25.012   9.652
  791POPC   GL114413  43.931  25.107   9.234
  791POPC   GL214414  44.269  24.963   9.168
  791POPC   C1A14415  43.838  25.451   8.907
  791POPC   D2A14416  43.595  25.615   8.523
  791POPC   C3A14417  43.572  25.321   8.154
  791POPC   C4A14418  43.713  25.208   7.715
  791POPC   C1B14419  44.312  25.185   8.796
  791POPC   C2B14420  44.020  25.253   8.469
  791POPC   C3B14421  44.102  25.171   8.056
  791POPC   C4B14422  44.121  25.518   7.810
  792POPC   NC314423  14.005  39.191   9.655
  792POPC   PO414424  13.390  38.936   9.446
  792POPC   GL114425  13.571  39.152   9.132
  792POPC   GL214426  13.939  39.183   9.136
  792POPC   C1A14427  13.599  39.281   8.738
  792POPC   D2A14428  13.619  39.475   8.373
  792POPC   C3A14429  13.626  39.205   8.026
  792POPC   C4A14430  13.553  39.382   7.622
  792POPC   C1B14431  13.956  38.917   8.769
  792POPC   C2B14432  13.834  38.876   8.389
  792POPC   C3B14433  13.971  38.814   8.001
  792POPC   C4B14434  13.925  39.032   7.648
  793POPC   NC314435  18.257   8.852   9.568
  793POPC   PO414436  18.497   9.287   9.166
  793POPC   GL114437  18.646   8.880   9.026
  793POPC   GL214438  18.525   8.581   9.172
  793POPC   C1A14439  18.496   8.889   8.629
  793POPC   D2A14440  18.350   9.110   8.278
  793POPC   C3A14441  18.266   9.133   7.846
  793POPC   C4A14442  17.982   9.458   7.759
  793POPC   C1B14443  18.490   8.407   8.731
  793POPC   C2B14444  18.501   8.547   8.254
  793POPC   C3B14445  18.417   8.630   7.803
  793POPC   C4B14446  18.554   8.502   7.378
  794POPC   NC314447  17.957  36.368   9.468
  794POPC   PO414448  18.664  36.360   9.358
  794POPC   GL114449  18.362  36.357   9.044
  794POPC   GL214450  18.097  36.104   9.051
  794POPC   C1A14451  18.384  36.268   8.600
  794POPC   D2A14452  18.320  36.504   8.207
  794POPC   C3A14453  18.390  36.227   7.872
  794POPC   C4A14454  18.696  35.881   7.801
  794POPC   C1B14455  17.886  36.336   8.766
  794POPC   C2B14456  17.824  36.536   8.375
  794POPC   C3B14457  17.859  36.362   7.948
  794POPC   C4B14458  18.042  36.401   7.513
  795POPC   NC314459  31.662  33.643   9.560
  795POPC   PO414460  31.694  34.246   9.409
  795POPC   GL114461  31.737  33.923   9.129
  795POPC   GL214462  31.445  33.722   9.102
  795POPC   C1A14463  31.682  33.954   8.716
  795POPC   D2A14464  31.754  34.145   8.330
  795POPC   C3A14465  31.578  33.986   7.927
  795POPC   C4A14466  31.792  34.023   7.524
  795POPC   C1B14467  31.237  33.679   8.749
  795POPC   C2B14468  31.316  33.866   8.373
  795POPC   C3B14469  31.182  33.669   8.065
  795POPC   C4B14470  31.148  33.528   7.716
  796POPC   NC314471  42.118  30.494   9.247
  796POPC   PO414472  41.547  30.645   9.524
  796POPC   GL114473  41.312  30.564   9.127
  796POPC   GL214474  41.331  30.280   9.124
  796POPC   C1A14475  41.231  30.702   8.700
  796POPC   D2A14476  41.462  30.976   8.423
  796POPC   C3A14477  41.617  30.861   8.020
  796POPC   C4A14478  41.653  30.589   7.689
  796POPC   C1B14479  41.640  30.390   8.780
  796POPC   C2B14480  41.570  30.460   8.343
  796POPC   C3B14481  41.786  30.232   8.007
  796POPC   C4B14482  41.914  30.117   7.599
  797POPC   NC314483  42.738  11.385   9.938
  797POPC   PO414484  42.949  11.002   9.443
  797POPC   GL114485  43.308  11.042   9.110
  797POPC   GL214486  43.539  11.327   9.210
  797POPC   C1A14487  43.232  11.006   8.644
  797POPC   D2A14488  42.911  11.063   8.315
  797POPC   C3A14489  42.967  11.106   7.882
  797POPC   C4A14490  43.303  11.292   7.705
  797POPC   C1B14491  43.464  11.480   8.774
  797POPC   C2B14492  43.354  11.411   8.316
  797POPC   C3B14493  43.589  11.622   7.971
  797POPC   C4B14494  43.374  11.782   7.615
  798POPC   NC314495  28.431   9.879   9.527
  798POPC   PO414496  28.697   9.319   9.557
  798POPC   GL114497  28.428   9.476   9.191
  798POPC   GL214498  28.053   9.483   9.227
  798POPC   C1A14499  28.403   9.374   8.730
  798POPC   D2A14500  28.577   9.637   8.392
  798POPC   C3A14501  28.507   9.504   7.969
  798POPC   C4A14502  28.134   9.450   7.769
  798POPC   C1B14503  28.108   9.759   8.871
  798POPC   C2B14504  28.047   9.736   8.427
  798POPC   C3B14505  28.195   9.894   8.014
  798POPC   C4B14506  27.978   9.907   7.626
  799POPC   NC314507   5.230  20.302   9.550
  799POPC   PO414508   5.108  19.680   9.770
  799POPC   GL114509   4.996  19.867   9.359
  799POPC   GL214510   5.306  19.890   9.196
  799POPC   C1A14511   4.880  19.868   8.887
  799POPC   D2A14512   4.873  19.897   8.443
  799POPC   C3A14513   4.981  19.588   8.098
  799POPC   C4A14514   5.047  19.750   7.657
  799POPC   C1B14515   5.347  20.066   8.767
  799POPC   C2B14516   5.450  20.004   8.358
  799POPC   C3B14517   5.185  20.049   8.036
  799POPC   C4B14518   5.150  20.244   7.657
  800POPC   NC314519  35.557  16.494   9.423
  800POPC   PO414520  35.549  15.896   9.723
  800POPC   GL114521  35.388  16.044   9.195
  800POPC   GL214522  35.024  16.122   9.050
  800POPC   C1A14523  35.382  15.845   8.761
  800POPC   D2A14524  35.137  15.788   8.417
  800POPC   C3A14525  35.357  15.843   8.058
  800POPC   C4A14526  35.081  15.953   7.748
  800POPC   C1B14527  35.310  16.339   8.788
  800POPC   C2B14528  35.459  16.242   8.392
  800POPC   C3B14529  35.137  16.346   8.138
  800POPC   C4B14530  35.019  16.468   7.755
  801POPC   NC314531   3.605  42.371   9.483
  801POPC   PO414532   3.615  41.712   9.452
  801POPC   GL114533   3.459  42.038   9.145
  801POPC   GL214534   3.735  42.128   9.033
  801POPC   C1A14535   3.392  42.425   8.827
  801POPC   D2A14536   3.318  42.343   8.385
  801POPC   C3A14537   3.482  42.486   7.988
  801POPC   C4A14538   3.384  42.281   7.591
  801POPC   C1B14539   3.906  42.344   8.680
  801POPC   C2B14540   3.928  42.311   8.236
  801POPC   C3B14541   3.811  42.091   7.858
  801POPC   C4B14542   3.875  42.263   7.456
  802POPC   NC314543  16.687  20.998   9.567
  802POPC   PO414544  16.984  20.460   9.673
  802POPC   GL114545  16.847  20.504   9.234
  802POPC   GL214546  16.505  20.447   9.100
  802POPC   C1A14547  16.886  20.560   8.790
  802POPC   D2A14548  16.962  20.276   8.482
  802POPC   C3A14549  17.043  20.504   8.128
  802POPC   C4A14550  16.923  20.617   7.723
  802POPC   C1B14551  16.364  20.693   8.773
  802POPC   C2B14552  16.561  20.736   8.392
  802POPC   C3B14553  16.508  20.552   8.007
  802POPC   C4B14554  16.487  20.891   7.703
  803POPC   NC314555  11.089  19.494   9.467
  803POPC   PO414556  10.908  18.895   9.371
  803POPC   GL114557  11.280  19.072   9.138
  803POPC   GL214558  11.516  19.330   9.164
  803POPC   C1A14559  11.496  19.010   8.748
  803POPC   D2A14560  11.288  18.820   8.412
  803POPC   C3A14561  11.349  18.961   7.994
  803POPC   C4A14562  11.116  18.839   7.627
  803POPC   C1B14563  11.266  19.463   8.793
  803POPC   C2B14564  11.221  19.343   8.367
  803POPC   C3B14565  11.273  19.468   7.932
  803POPC   C4B14566  11.400  19.281   7.541
  804POPC   NC314567   9.201  30.535   9.839
  804POPC   PO414568   8.848  30.897   9.353
  804POPC   GL114569   8.899  30.802   8.978
  804POPC   GL214570   9.259  30.952   9.038
  804POPC   C1A14571   8.604  30.755   8.632
  804POPC   D2A14572   8.456  30.671   8.211
  804POPC   C3A14573   8.842  30.758   7.964
  804POPC   C4A14574   9.063  30.757   7.588
  804POPC   C1B14575   9.282  30.723   8.681
  804POPC   C2B14576   9.251  30.713   8.281
  804POPC   C3B14577   9.257  30.413   7.995
  804POPC   C4B14578   9.504  30.477   7.690
  805POPC   NC314579  44.360  42.501   9.487
  805POPC   PO414580  44.852  41.875   9.560
  805POPC   GL114581  44.676  42.126   9.205
  805POPC   GL214582  44.335  42.243   9.055
  805POPC   C1A14583  44.860  42.243   8.807
  805POPC   D2A14584   0.131  42.336   8.461
  805POPC   C3A14585  44.932  42.290   8.062
  805POPC   C4A14586  44.814  42.393   7.649
  805POPC   C1B14587  44.185  42.083   8.700
  805POPC   C2B14588  44.502  42.141   8.382
  805POPC   C3B14589  44.418  42.358   8.006
  805POPC   C4B14590  44.313  42.398   7.600
  806POPC   NC314591  25.916  35.006   9.349
  806POPC   PO414592  26.268  34.538   9.752
  806POPC   GL114593  26.305  34.460   9.210
  806POPC   GL214594  26.104  34.683   8.994
  806POPC   C1A14595  26.478  34.456   8.747
  806POPC   D2A14596  26.318  34.651   8.360
  806POPC   C3A14597  26.168  34.544   7.940
  806POPC   C4A14598  26.167  34.609   7.490
  806POPC   C1B14599  25.770  34.867   8.738
  806POPC   C2B14600  25.518  34.950   8.412
  806POPC   C3B14601  25.695  34.923   8.059
  806POPC   C4B14602  25.704  34.726   7.698
  807POPC   NC314603  31.223  31.809   9.343
  807POPC   PO414604  31.239  32.568   9.456
  807POPC   GL114605  31.469  32.251   9.170
  807POPC   GL214606  31.674  32.487   8.995
  807POPC   C1A14607  31.445  32.102   8.744
  807POPC   D2A14608  31.343  32.234   8.334
  807POPC   C3A14609  31.689  32.230   8.026
  807POPC   C4A14610  31.682  32.365   7.575
  807POPC   C1B14611  31.277  32.588   8.787
  807POPC   C2B14612  31.162  32.761   8.399
  807POPC   C3B14613  30.982  32.511   8.070
  807POPC   C4B14614  30.665  32.633   7.757
  808POPC   NC314615  43.693   6.184   9.342
  808POPC   PO414616  43.417   6.725   9.778
  808POPC   GL114617  43.747   6.678   9.310
  808POPC   GL214618  43.672   6.507   8.971
  808POPC   C1A14619  43.974   6.901   8.921
  808POPC   D2A14620  44.085   6.787   8.464
  808POPC   C3A14621  43.888   7.058   8.139
  808POPC   C4A14622  43.786   7.199   7.720
  808POPC   C1B14623  44.011   6.290   8.719
  808POPC   C2B14624  44.136   6.158   8.304
  808POPC   C3B14625  44.019   6.452   7.979
  808POPC   C4B14626  44.087   6.793   7.712
  809POPC   NC314627  43.717  13.583  10.040
  809POPC   PO414628  44.261  13.407   9.571
  809POPC   GL114629  44.269  13.422   9.120
  809POPC   GL214630  44.246  13.754   9.123
  809POPC   C1A14631  44.279  13.252   8.672
  809POPC   D2A14632  44.185  13.432   8.246
  809POPC   C3A14633  43.910  13.247   7.957
  809POPC   C4A14634  43.746  13.326   7.523
  809POPC   C1B14635  44.030  13.713   8.713
  809POPC   C2B14636  43.733  13.654   8.351
  809POPC   C3B14637  43.873  13.760   7.935
  809POPC   C4B14638  44.214  13.598   7.708
  810POPC   NC314639  10.160  32.636   9.191
  810POPC   PO414640  10.547  32.845   9.675
  810POPC   GL114641  10.513  33.011   9.229
  810POPC   GL214642  10.643  33.309   9.124
  810POPC   C1A14643  10.591  32.953   8.750
  810POPC   D2A14644  10.657  32.774   8.315
  810POPC   C3A14645  10.400  32.956   8.004
  810POPC   C4A14646  10.512  33.048   7.577
  810POPC   C1B14647  10.675  33.477   8.725
  810POPC   C2B14648  10.615  33.305   8.332
  810POPC   C3B14649  10.616  33.433   7.911
  810POPC   C4B14650  10.990  33.442   7.702
  811POPC   NC314651  29.189  33.192   9.686
  811POPC   PO414652  28.638  32.893   9.483
  811POPC   GL114653  29.043  33.016   9.215
  811POPC   GL214654  29.305  33.306   9.179
  811POPC   C1A14655  29.078  33.053   8.778
  811POPC   D2A14656  28.909  32.887   8.393
  811POPC   C3A14657  29.074  33.107   8.034
  811POPC   C4A14658  29.037  33.280   7.602
  811POPC   C1B14659  29.435  33.439   8.722
  811POPC   C2B14660  29.444  33.408   8.230
  811POPC   C3B14661  29.524  33.314   7.809
  811POPC   C4B14662  29.495  33.247   7.343
  812POPC   NC314663  33.644  24.828   9.365
  812POPC   PO414664  34.051  25.447   9.415
  812POPC   GL114665  33.872  25.241   9.087
  812POPC   GL214666  33.506  25.207   9.081
  812POPC   C1A14667  33.933  25.289   8.656
  812POPC   D2A14668  33.760  25.440   8.274
  812POPC   C3A14669  33.857  25.220   7.918
  812POPC   C4A14670  33.885  25.260   7.492
  812POPC   C1B14671  33.448  25.397   8.712
  812POPC   C2B14672  33.303  25.200   8.354
  812POPC   C3B14673  33.365  25.331   7.984
  812POPC   C4B14674  33.417  25.176   7.623
  813POPC   NC314675  10.392  22.935   9.356
  813POPC   PO414676  10.745  22.536   9.716
  813POPC   GL114677  10.699  22.614   9.150
  813POPC   GL214678  10.767  22.986   9.046
  813POPC   C1A14679  10.557  22.727   8.669
  813POPC   D2A14680  10.132  22.785   8.405
  813POPC   C3A14681  10.178  22.599   7.973
  813POPC   C4A14682  10.559  22.639   7.687
  813POPC   C1B14683  10.819  23.267   8.753
  813POPC   C2B14684  10.652  23.235   8.384
  813POPC   C3B14685  10.516  23.002   8.067
  813POPC   C4B14686  10.645  23.133   7.694
  814POPC   NC314687  18.635  17.217   9.617
  814POPC   PO414688  18.418  17.712   9.514
  814POPC   GL114689  18.258  17.730   9.092
  814POPC   GL214690  18.267  17.369   9.095
  814POPC   C1A14691  18.241  17.858   8.633
  814POPC   D2A14692  18.388  17.764   8.203
  814POPC   C3A14693  18.180  17.832   7.807
  814POPC   C4A14694  18.094  17.765   7.339
  814POPC   C1B14695  18.447  17.380   8.676
  814POPC   C2B14696  18.423  17.261   8.234
  814POPC   C3B14697  18.534  17.437   7.823
  814POPC   C4B14698  18.625  17.328   7.383
  815POPC   NC314699  15.801  37.648   9.667
  815POPC   PO414700  16.367  37.946   9.697
  815POPC   GL114701  16.158  37.861   9.287
  815POPC   GL214702  16.068  37.520   9.223
  815POPC   C1A14703  16.088  37.941   8.825
  815POPC   D2A14704  15.967  38.042   8.380
  815POPC   C3A14705  15.985  37.803   7.976
  815POPC   C4A14706  15.626  37.714   7.678
  815POPC   C1B14707  16.245  37.460   8.806
  815POPC   C2B14708  16.278  37.637   8.397
  815POPC   C3B14709  16.311  37.389   8.026
  815POPC   C4B14710  16.012  37.364   7.692
  816POPC   NC314711  12.708  44.224   9.501
  816POPC   PO414712  13.186  43.748   9.505
  816POPC   GL114713  12.914  43.723   9.137
  816POPC   GL214714  12.766  44.054   9.018
  816POPC   C1A14715  12.720  43.639   8.726
  816POPC   D2A14716  12.717  43.914   8.339
  816POPC   C3A14717  12.624  43.667   7.986
  816POPC   C4A14718  12.816  43.576   7.591
  816POPC   C1B14719  13.106  43.962   8.701
  816POPC   C2B14720  13.189  44.149   8.291
  816POPC   C3B14721  13.066  43.979   7.903
  816POPC   C4B14722  13.274  43.837   7.535
  817POPC   NC314723  14.466  33.951   9.977
  817POPC   PO414724  14.709  33.745   9.616
  817POPC   GL114725  14.540  33.771   9.137
  817POPC   GL214726  14.180  33.690   9.094
  817POPC   C1A14727  14.508  33.842   8.635
  817POPC   D2A14728  14.549  33.861   8.141
  817POPC   C3A14729  14.306  34.181   7.866
  817POPC   C4A14730  14.173  34.161   7.396
  817POPC   C1B14731  13.995  33.891   8.715
  817POPC   C2B14732  14.050  33.893   8.255
  817POPC   C3B14733  14.111  33.720   7.821
  817POPC   C4B14734  13.931  33.712   7.397
  818POPC   NC314735   6.209  31.095   9.388
  818POPC   PO414736   5.828  31.754   9.584
  818POPC   GL114737   5.768  31.654   9.148
  818POPC   GL214738   5.810  31.286   9.108
  818POPC   C1A14739   5.695  31.549   8.693
  818POPC   D2A14740   5.895  31.624   8.346
  818POPC   C3A14741   5.663  31.599   8.016
  818POPC   C4A14742   5.782  31.718   7.655
  818POPC   C1B14743   5.561  31.079   8.781
  818POPC   C2B14744   5.480  31.230   8.335
  818POPC   C3B14745   5.451  31.161   7.867
  818POPC   C4B14746   5.780  31.239   7.573
  819POPC   NC314747  22.854  17.733   9.557
  819POPC   PO414748  22.788  17.193   9.233
  819POPC   GL114749  23.017  17.428   8.934
  819POPC   GL214750  22.986  17.812   9.043
  819POPC   C1A14751  23.341  17.278   8.614
  819POPC   D2A14752  23.431  17.209   8.158
  819POPC   C3A14753  23.170  17.476   7.872
  819POPC   C4A14754  23.119  17.917   7.833
  819POPC   C1B14755  22.758  17.744   8.646
  819POPC   C2B14756  22.829  17.782   8.235
  819POPC   C3B14757  22.656  17.556   7.922
  819POPC   C4B14758  22.771  17.449   7.538
  820POPC   NC314759   7.892  14.849   9.439
  820POPC   PO414760   8.064  15.530   9.473
  820POPC   GL114761   7.961  15.272   9.128
  820POPC   GL214762   8.269  15.135   9.160
  820POPC   C1A14763   8.137  15.360   8.696
  820POPC   D2A14764   8.253  15.497   8.254
  820POPC   C3A14765   7.958  15.401   7.938
  820POPC   C4A14766   7.815  15.058   7.678
  820POPC   C1B14767   8.148  14.850   8.835
  820POPC   C2B14768   8.293  14.790   8.446
  820POPC   C3B14769   8.081  14.846   8.079
  820POPC   C4B14770   8.311  14.857   7.727
  821POPC   NC314771  17.092   1.260   9.651
  821POPC   PO414772  16.442   1.307   9.621
  821POPC   GL114773  16.647   1.074   9.301
  821POPC   GL214774  16.672   1.355   9.121
  821POPC   C1A14775  16.530   0.981   8.847
  821POPC   D2A14776  16.589   1.211   8.444
  821POPC   C3A14777  16.795   1.106   8.054
  821POPC   C4A14778  16.558   1.082   7.665
  821POPC   C1B14779  16.856   1.535   8.780
  821POPC   C2B14780  16.743   1.712   8.457
  821POPC   C3B14781  16.770   1.735   8.069
  821POPC   C4B14782  16.844   1.508   7.705
  822POPC   NC314783  31.280   8.479   9.306
  822POPC   PO414784  30.780   8.254   9.663
  822POPC   GL114785  30.738   8.388   9.233
  822POPC   GL214786  30.395   8.458   9.211
  822POPC   C1A14787  30.939   8.342   8.791
  822POPC   D2A14788  30.917   8.360   8.360
  822POPC   C3A14789  30.663   8.071   8.148
  822POPC   C4A14790  30.643   8.070   7.746
  822POPC   C1B14791  30.512   8.606   8.799
  822POPC   C2B14792  30.414   8.429   8.387
  822POPC   C3B14793  30.498   8.509   7.952
  822POPC   C4B14794  30.328   8.466   7.552
  823POPC   NC314795  34.339  42.049   9.260
  823POPC   PO414796  34.914  42.391   9.387
  823POPC   GL114797  34.542  42.492   9.109
  823POPC   GL214798  34.366  42.802   9.015
  823POPC   C1A14799  34.525  42.315   8.679
  823POPC   D2A14800  34.720  42.430   8.306
  823POPC   C3A14801  34.569  42.308   7.909
  823POPC   C4A14802  34.709  42.704   7.763
  823POPC   C1B14803  34.062  42.506   8.773
  823POPC   C2B14804  34.088  42.309   8.359
  823POPC   C3B14805  34.053  42.274   7.897
  823POPC   C4B14806  34.235  41.989   7.568
  824POPC   NC314807  34.347   7.934   9.256
  824POPC   PO414808  34.177   7.434   9.760
  824POPC   GL114809  34.312   7.428   9.274
  824POPC   GL214810  34.636   7.381   9.150
  824POPC   C1A14811  34.280   7.481   8.784
  824POPC   D2A14812  34.517   7.360   8.378
  824POPC   C3A14813  34.459   7.374   7.941
  824POPC   C4A14814  34.287   7.172   7.595
  824POPC   C1B14815  34.852   7.489   8.754
  824POPC   C2B14816  34.897   7.748   8.381
  824POPC   C3B14817  34.751   7.799   7.964
  824POPC   C4B14818  34.774   7.559   7.547
  825POPC   NC314819   0.598   9.528   9.395
  825POPC   PO414820   0.160   9.861   9.778
  825POPC   GL114821   0.505  10.022   9.286
  825POPC   GL214822   0.278  10.113   9.004
  825POPC   C1A14823   0.637   9.811   8.820
  825POPC   D2A14824   0.563   9.577   8.421
  825POPC   C3A14825   0.747   9.430   8.051
  825POPC   C4A14826   0.636   9.671   7.732
  825POPC   C1B14827   0.150   9.736   8.684
  825POPC   C2B14828   0.069   9.502   8.342
  825POPC   C3B14829   0.185   9.570   7.946
  825POPC   C4B14830   0.073   9.487   7.543
  826POPC   NC314831   7.130  44.314   9.511
  826POPC   PO414832   7.312  44.958   9.670
  826POPC   GL114833   7.275  44.721   9.213
  826POPC   GL214834   6.977  44.873   9.119
  826POPC   C1A14835   7.563  44.641   8.806
  826POPC   D2A14836   7.740  44.731   8.400
  826POPC   C3A14837   7.547  44.602   8.019
  826POPC   C4A14838   7.779  44.458   7.700
  826POPC   C1B14839   7.066  44.685   8.718
  826POPC   C2B14840   7.107  44.619   8.295
  826POPC   C3B14841   7.004  44.634   7.869
  826POPC   C4B14842   7.278  44.707   7.551
  827POPC   NC314843  29.532  33.866   9.464
  827POPC   PO414844  30.131  33.509   9.486
  827POPC   GL114845  30.097  33.793   9.146
  827POPC   GL214846  29.771  33.941   9.046
  827POPC   C1A14847  30.007  33.636   8.732
  827POPC   D2A14848  29.818  33.724   8.341
  827POPC   C3A14849  30.024  33.620   7.973
  827POPC   C4A14850  29.791  33.721   7.644
  827POPC   C1B14851  29.785  34.114   8.657
  827POPC   C2B14852  29.974  34.228   8.280
  827POPC   C3B14853  29.855  34.181   7.865
  827POPC   C4B14854  29.669  34.164   7.415
  828POPC   NC314855  18.539  23.998   9.514
  828POPC   PO414856  18.186  23.419   9.445
  828POPC   GL114857  18.198  23.542   9.075
  828POPC   GL214858  18.542  23.639   9.104
  828POPC   C1A14859  18.047  23.596   8.651
  828POPC   D2A14860  18.007  23.829   8.267
  828POPC   C3A14861  18.380  23.689   8.053
  828POPC   C4A14862  18.367  23.315   7.839
  828POPC   C1B14863  18.324  23.989   8.856
  828POPC   C2B14864  18.438  24.061   8.429
  828POPC   C3B14865  18.531  24.180   8.005
  828POPC   C4B14866  18.695  24.207   7.574
  829POPC   NC314867  17.099  36.687   9.724
  829POPC   PO414868  16.623  37.117   9.619
  829POPC   GL114869  16.756  36.824   9.254
  829POPC   GL214870  17.112  36.680   9.228
  829POPC   C1A14871  16.625  36.762   8.809
  829POPC   D2A14872  16.388  36.950   8.445
  829POPC   C3A14873  16.564  36.907   8.011
  829POPC   C4A14874  16.677  36.737   7.549
  829POPC   C1B14875  17.098  36.901   8.841
  829POPC   C2B14876  16.912  36.943   8.416
  829POPC   C3B14877  17.070  36.843   8.014
  829POPC   C4B14878  17.188  36.759   7.596
  830POPC   NC314879  19.572  19.245   9.592
  830POPC   PO414880  20.182  19.075   9.585
  830POPC   GL114881  20.023  19.216   9.172
  830POPC   GL214882  19.705  19.361   9.125
  830POPC   C1A14883  19.847  19.034   8.752
  830POPC   D2A14884  19.985  18.970   8.325
  830POPC   C3A14885  19.760  18.829   7.959
  830POPC   C4A14886  19.894  18.766   7.522
  830POPC   C1B14887  19.888  19.531   8.770
  830POPC   C2B14888  19.773  19.452   8.384
  830POPC   C3B14889  19.858  19.339   7.979
  830POPC   C4B14890  19.600  19.201   7.646
  831POPC   NC314891  29.810  44.992   9.656
  831POPC   PO414892  30.282   0.554   9.478
  831POPC   GL114893  30.118   0.446   9.131
  831POPC   GL214894  29.959   0.145   9.132
  831POPC   C1A14895  29.913   0.575   8.779
  831POPC   D2A14896  30.077   0.499   8.376
  831POPC   C3A14897  29.732   0.515   8.123
  831POPC   C4A14898  29.506   0.732   7.845
  831POPC   C1B14899  30.160   0.108   8.716
  831POPC   C2B14900  30.103  44.928   8.297
  831POPC   C3B14901  29.923   0.088   7.899
  831POPC   C4B14902  29.502   0.226   7.763
  832POPC   NC314903   5.490  20.978   9.586
  832POPC   PO414904   4.823  20.601   9.505
  832POPC   GL114905   5.146  20.649   9.203
  832POPC   GL214906   5.007  20.313   9.097
  832POPC   C1A14907   5.270  20.584   8.786
  832POPC   D2A14908   5.059  20.363   8.450
  832POPC   C3A14909   5.093  20.546   8.054
  832POPC   C4A14910   5.336  20.714   7.713
  832POPC   C1B14911   4.755  20.553   8.830
  832POPC   C2B14912   4.554  20.516   8.446
  832POPC   C3B14913   4.606  20.771   8.098
  832POPC   C4B14914   4.731  20.571   7.703
  833POPC   NC314915  14.650  36.571   9.250
  833POPC   PO414916  14.278  36.850   9.749
  833POPC   GL114917  14.278  36.935   9.234
  833POPC   GL214918  14.049  36.766   9.048
  833POPC   C1A14919  14.452  36.962   8.798
  833POPC   D2A14920  14.493  36.687   8.442
  833POPC   C3A14921  14.576  36.845   8.068
  833POPC   C4A14922  14.392  37.081   7.744
  833POPC   C1B14923  14.073  36.578   8.716
  833POPC   C2B14924  13.974  36.547   8.350
  833POPC   C3B14925  14.087  36.741   8.020
  833POPC   C4B14926  14.258  36.600   7.640
  834POPC   NC314927  28.749  42.323   9.498
  834POPC   PO414928  29.310  42.629   9.431
  834POPC   GL114929  29.086  42.406   9.106
  834POPC   GL214930  28.730  42.526   9.030
  834POPC   C1A14931  29.260  42.217   8.739
  834POPC   D2A14932  29.384  42.439   8.338
  834POPC   C3A14933  29.332  42.245   7.929
  834POPC   C4A14934  29.224  41.807   7.827
  834POPC   C1B14935  28.893  42.532   8.623
  834POPC   C2B14936  28.953  42.145   8.349
  834POPC   C3B14937  28.818  42.119   7.954
  834POPC   C4B14938  28.754  42.507   7.721
  835POPC   NC314939  29.434   4.729   9.545
  835POPC   PO414940  30.086   4.547   9.664
  835POPC   GL114941  29.823   4.438   9.289
  835POPC   GL214942  29.666   4.682   9.106
  835POPC   C1A14943  29.746   4.240   8.898
  835POPC   D2A14944  29.841   4.459   8.536
  835POPC   C3A14945  29.836   4.328   8.110
  835POPC   C4A14946  30.001   4.065   7.757
  835POPC   C1B14947  29.447   4.681   8.753
  835POPC   C2B14948  29.541   4.881   8.344
  835POPC   C3B14949  29.684   4.814   7.924
  835POPC   C4B14950  29.745   4.485   7.640
  836POPC   NC314951  19.385  32.426   9.545
  836POPC   PO414952  18.953  31.974   9.423
  836POPC   GL114953  19.164  32.288   9.108
  836POPC   GL214954  19.528  32.386   9.049
  836POPC   C1A14955  19.163  32.433   8.675
  836POPC   D2A14956  19.168  32.209   8.290
  836POPC   C3A14957  18.870  32.130   7.979
  836POPC   C4A14958  19.010  32.087   7.588
  836POPC   C1B14959  19.584  32.720   8.700
  836POPC   C2B14960  19.372  32.708   8.268
  836POPC   C3B14961  19.277  32.469   7.865
  836POPC   C4B14962  19.257  32.600   7.448
  837POPC   NC314963   2.670  37.498   9.596
  837POPC   PO414964   2.570  38.109   9.535
  837POPC   GL114965   2.623  37.813   9.191
  837POPC   GL214966   2.423  37.531   9.081
  837POPC   C1A14967   2.858  37.687   8.843
  837POPC   D2A14968   2.857  37.786   8.427
  837POPC   C3A14969   3.101  37.527   8.141
  837POPC   C4A14970   3.193  37.816   7.873
  837POPC   C1B14971   2.537  37.290   8.771
  837POPC   C2B14972   2.777  37.274   8.446
  837POPC   C3B14973   2.586  37.478   8.100
  837POPC   C4B14974   2.744  37.489   7.689
  838POPC   NC314975   0.945   7.360   9.645
  838POPC   PO414976   1.482   7.663   9.427
  838POPC   GL114977   1.262   7.484   9.080
  838POPC   GL214978   0.898   7.497   9.147
  838POPC   C1A14979   1.121   7.641   8.668
  838POPC   D2A14980   0.804   7.677   8.351
  838POPC   C3A14981   0.975   7.559   7.964
  838POPC   C4A14982   1.240   7.305   7.715
  838POPC   C1B14983   0.942   7.175   8.791
  838POPC   C2B14984   1.042   7.135   8.314
  838POPC   C3B14985   0.796   7.091   7.907
  838POPC   C4B14986   0.807   7.183   7.457
  839POPC   NC314987  32.574  34.242   9.520
  839POPC   PO414988  32.407  33.554   9.518
  839POPC   GL114989  32.429  33.725   9.128
  839POPC   GL214990  32.737  33.876   9.177
  839POPC   C1A14991  32.176  33.768   8.749
  839POPC   D2A14992  31.922  33.669   8.377
  839POPC   C3A14993  32.069  33.868   8.005
  839POPC   C4A14994  32.327  33.883   7.625
  839POPC   C1B14995  32.651  34.040   8.768
  839POPC   C2B14996  32.669  34.156   8.325
  839POPC   C3B14997  32.750  34.028   7.905
  839POPC   C4B14998  32.685  34.212   7.478
  840POPC   NC314999   5.378  18.581   9.498
  840POPC   PO415000   4.876  18.128   9.454
  840POPC   GL115001   5.128  18.325   9.120
  840POPC   GL215002   5.517  18.294   9.115
  840POPC   C1A15003   5.000  18.460   8.700
  840POPC   D2A15004   4.825  18.189   8.399
  840POPC   C3A15005   4.825  18.379   8.053
  840POPC   C4A15006   5.058  18.079   7.869
  840POPC   C1B15007   5.407  18.138   8.727
  840POPC   C2B15008   5.322  18.239   8.330
  840POPC   C3B15009   5.528  18.212   7.990
  840POPC   C4B15010   5.688  18.326   7.663
  841POPC   NC315011   7.185   4.628   9.535
  841POPC   PO415012   7.364   5.366   9.451
  841POPC   GL115013   7.357   5.198   9.048
  841POPC   GL215014   7.451   4.856   9.148
  841POPC   C1A15015   7.518   5.030   8.651
  841POPC   D2A15016   7.717   4.823   8.296
  841POPC   C3A15017   7.713   5.102   7.993
  841POPC   C4A15018   7.420   5.311   7.754
  841POPC   C1B15019   7.192   4.660   8.816
  841POPC   C2B15020   7.234   4.636   8.335
  841POPC   C3B15021   7.215   4.865   7.911
  841POPC   C4B15022   7.185   4.972   7.465
  842POPC   NC315023  14.490  38.273   9.660
  842POPC   PO415024  14.233  38.836   9.461
  842POPC   GL115025  14.239  38.613   9.086
  842POPC   GL215026  14.405  38.301   9.140
  842POPC   C1A15027  14.061  38.371   8.723
  842POPC   D2A15028  14.056  38.064   8.362
  842POPC   C3A15029  14.108  38.319   7.986
  842POPC   C4A15030  14.401  38.636   7.764
  842POPC   C1B15031  14.623  38.476   8.768
  842POPC   C2B15032  14.739  38.464   8.327
  842POPC   C3B15033  14.615  38.226   7.981
  842POPC   C4B15034  14.817  37.950   7.738
  843POPC   NC315035   3.883  14.534   9.899
  843POPC   PO415036   3.304  14.201   9.656
  843POPC   GL115037   3.256  14.289   9.191
  843POPC   GL215038   3.576  14.295   9.077
  843POPC   C1A15039   3.289  14.519   8.742
  843POPC   D2A15040   3.388  14.326   8.330
  843POPC   C3A15041   3.718  14.498   8.031
  843POPC   C4A15042   3.697  14.769   7.683
  843POPC   C1B15043   3.780  14.327   8.678
  843POPC   C2B15044   3.841  14.073   8.292
  843POPC   C3B15045   3.570  14.031   7.929
  843POPC   C4B15046   3.506  14.314   7.571
  844POPC   NC315047  10.619  20.504   9.623
  844POPC   PO415048  10.107  20.864   9.500
  844POPC   GL115049  10.327  20.506   9.208
  844POPC   GL215050  10.736  20.409   9.145
  844POPC   C1A15051  10.227  20.530   8.776
  844POPC   D2A15052  10.112  20.899   8.530
  844POPC   C3A15053  10.295  20.944   8.098
  844POPC   C4A15054  10.405  20.629   7.805
  844POPC   C1B15055  10.749  20.509   8.719
  844POPC   C2B15056  10.535  20.526   8.332
  844POPC   C3B15057  10.830  20.692   8.042
  844POPC   C4B15058  10.866  20.603   7.605
  845POPC   NC315059   7.780   7.563   9.251
  845POPC   PO415060   8.488   7.456   9.441
  845POPC   GL115061   8.247   7.381   9.081
  845POPC   GL215062   8.370   7.745   9.010
  845POPC   C1A15063   7.974   7.174   8.729
  845POPC   D2A15064   8.232   7.207   8.387
  845POPC   C3A15065   8.073   7.301   8.038
  845POPC   C4A15066   8.131   7.393   7.641
  845POPC   C1B15067   8.134   7.650   8.659
  845POPC   C2B15068   7.841   7.630   8.334
  845POPC   C3B15069   7.972   7.800   7.906
  845POPC   C4B15070   8.121   7.864   7.457
  846POPC   NC315071  33.380  42.637   9.588
  846POPC   PO415072  32.797  43.025   9.578
  846POPC   GL115073  32.989  43.098   9.196
  846POPC   GL215074  33.137  42.792   9.165
  846POPC   C1A15075  32.850  43.362   8.849
  846POPC   D2A15076  32.895  43.170   8.456
  846POPC   C3A15077  32.828  43.304   8.041
  846POPC   C4A15078  33.146  43.336   7.760
  846POPC   C1B15079  33.231  42.905   8.778
  846POPC   C2B15080  33.354  42.948   8.394
  846POPC   C3B15081  33.090  42.888   8.070
  846POPC   C4B15082  33.087  42.787   7.663
  847POPC   NC315083  27.912  12.599   9.523
  847POPC   PO415084  27.341  12.862   9.560
  847POPC   GL115085  27.492  12.724   9.197
  847POPC   GL215086  27.461  12.384   9.294
  847POPC   C1A15087  27.408  12.877   8.757
  847POPC   D2A15088  27.569  12.847   8.334
  847POPC   C3A15089  27.503  13.034   7.924
  847POPC   C4A15090  27.285  13.381   7.765
  847POPC   C1B15091  27.533  12.379   8.816
  847POPC   C2B15092  27.542  12.332   8.342
  847POPC   C3B15093  27.628  12.536   7.936
  847POPC   C4B15094  27.768  12.714   7.532
  848POPC   NC315095  28.745  30.195   9.376
  848POPC   PO415096  28.102  29.954   9.494
  848POPC   GL115097  28.337  30.011   9.140
  848POPC   GL215098  28.108  30.233   8.986
  848POPC   C1A15099  28.559  29.925   8.746
  848POPC   D2A15100  28.576  29.761   8.326
  848POPC   C3A15101  28.575  29.964   7.925
  848POPC   C4A15102  28.500  29.849   7.474
  848POPC   C1B15103  28.060  29.815   8.769
  848POPC   C2B15104  28.034  29.774   8.345
  848POPC   C3B15105  28.090  29.778   7.915
  848POPC   C4B15106  28.110  30.190   7.776
  849POPC   NC315107  32.638  18.483   9.371
  849POPC   PO415108  33.305  18.408   9.497
  849POPC   GL115109  33.043  18.252   9.135
  849POPC   GL215110  32.788  18.418   8.900
  849POPC   C1A15111  33.153  18.108   8.738
  849POPC   D2A15112  32.898  18.094   8.423
  849POPC   C3A15113  33.126  18.179   8.061
  849POPC   C4A15114  33.021  18.367   7.688
  849POPC   C1B15115  32.686  17.945   8.870
  849POPC   C2B15116  32.510  17.769   8.487
  849POPC   C3B15117  32.673  17.885   8.034
  849POPC   C4B15118  33.043  17.750   7.769
  850POPC   NC315119  11.339  44.753   9.576
  850POPC   PO415120  11.421  44.231   9.163
  850POPC   GL115121  11.184  44.585   9.095
  850POPC   GL215122  11.480  44.786   9.096
  850POPC   C1A15123  11.026  44.623   8.680
  850POPC   D2A15124  11.180  44.356   8.311
  850POPC   C3A15125  11.086  44.218   7.875
  850POPC   C4A15126  11.385  44.229   7.590
  850POPC   C1B15127  11.483  44.850   8.664
  850POPC   C2B15128  11.249  44.876   8.259
  850POPC   C3B15129  11.312  44.669   7.863
  850POPC   C4B15130  11.258  44.750   7.408
  851POPC   NC315131  16.670  26.503   9.493
  851POPC   PO415132  16.235  26.869   9.459
  851POPC   GL115133  16.623  26.910   9.167
  851POPC   GL215134  16.974  26.770   9.169
  851POPC   C1A15135  16.836  27.024   8.765
  851POPC   D2A15136  16.726  26.835   8.371
  851POPC   C3A15137  16.923  26.980   8.032
  851POPC   C4A15138  16.799  27.127   7.632
  851POPC   C1B15139  16.963  26.528   8.787
  851POPC   C2B15140  16.992  26.395   8.342
  851POPC   C3B15141  16.934  26.476   7.909
  851POPC   C4B15142  16.530  26.668   7.832
  852POPC   NC315143   8.515  15.606   9.245
  852POPC   PO415144   9.024  15.375   9.639
  852POPC   GL115145   9.117  15.208   9.214
  852POPC   GL215146   8.787  15.147   9.096
  852POPC   C1A15147   9.181  14.960   8.799
  852POPC   D2A15148   9.035  14.982   8.347
  852POPC   C3A15149   9.178  15.246   7.975
  852POPC   C4A15150   8.999  15.073   7.568
  852POPC   C1B15151   8.935  15.427   8.744
  852POPC   C2B15152   8.828  15.505   8.299
  852POPC   C3B15153   8.670  15.388   7.879
  852POPC   C4B15154   8.760  15.528   7.452
  853POPC   NC315155  35.813  10.277   9.643
  853POPC   PO415156  36.223  10.784   9.525
  853POPC   GL115157  36.042  10.409   9.201
  853POPC   GL215158  35.726  10.154   9.151
  853POPC   C1A15159  36.025  10.291   8.746
  853POPC   D2A15160  36.332  10.496   8.491
  853POPC   C3A15161  36.232  10.677   8.110
  853POPC   C4A15162  36.399  10.375   7.817
  853POPC   C1B15163  35.742   9.837   8.784
  853POPC   C2B15164  35.946   9.848   8.389
  853POPC   C3B15165  35.984  10.233   8.192
  853POPC   C4B15166  35.895  10.422   7.804
  854POPC   NC315167  15.156  26.427   9.499
  854POPC   PO415168  15.601  25.849   9.534
  854POPC   GL115169  15.344  26.004   9.152
  854POPC   GL215170  15.013  26.168   9.105
  854POPC   C1A15171  15.169  25.822   8.778
  854POPC   D2A15172  15.360  25.811   8.404
  854POPC   C3A15173  15.090  25.789   8.057
  854POPC   C4A15174  15.396  25.819   7.753
  854POPC   C1B15175  15.228  26.318   8.729
  854POPC   C2B15176  15.041  26.225   8.353
  854POPC   C3B15177  15.214  26.295   7.971
  854POPC   C4B15178  14.992  26.539   7.700
  855POPC   NC315179  12.782  15.979   9.684
  855POPC   PO415180  12.391  16.403   9.327
  855POPC   GL115181  12.700  16.012   9.195
  855POPC   GL215182  13.035  15.965   9.184
  855POPC   C1A15183  12.763  15.667   8.833
  855POPC   D2A15184  12.743  15.787   8.353
  855POPC   C3A15185  12.694  15.805   7.875
  855POPC   C4A15186  12.748  16.192   7.644
  855POPC   C1B15187  13.176  15.958   8.755
  855POPC   C2B15188  13.201  15.558   8.505
  855POPC   C3B15189  13.105  15.526   8.058
  855POPC   C4B15190  13.209  15.818   7.727
  856POPC   NC315191  22.064  40.508   9.458
  856POPC   PO415192  22.324  41.138   9.554
  856POPC   GL115193  22.349  40.866   9.212
  856POPC   GL215194  22.561  40.578   9.233
  856POPC   C1A15195  22.153  40.806   8.826
  856POPC   D2A15196  22.166  41.019   8.429
  856POPC   C3A15197  22.098  40.795   8.078
  856POPC   C4A15198  22.334  40.900   7.781
  856POPC   C1B15199  22.430  40.350   8.847
  856POPC   C2B15200  22.237  40.451   8.458
  856POPC   C3B15201  22.467  40.453   8.097
  856POPC   C4B15202  22.518  40.304   7.708
  857POPC   NC315203  14.691  39.918   9.691
  857POPC   PO415204  15.337  40.049   9.566
  857POPC   GL115205  15.047  40.136   9.247
  857POPC   GL215206  14.834  40.425   9.318
  857POPC   C1A15207  15.165  40.062   8.825
  857POPC   D2A15208  15.389  40.146   8.457
  857POPC   C3A15209  15.214  39.941   8.093
  857POPC   C4A15210  15.199  40.112   7.684
  857POPC   C1B15211  14.777  40.396   8.868
  857POPC   C2B15212  14.907  40.354   8.434
  857POPC   C3B15213  14.797  40.229   7.987
  857POPC   C4B15214  14.757  40.254   7.500
  858POPC   NC315215  19.524  44.221   9.259
  858POPC   PO415216  19.959  43.700   9.508
  858POPC   GL115217  19.848  43.611   9.103
  858POPC   GL215218  19.915  43.963   9.045
  858POPC   C1A15219  19.718  43.655   8.670
  858POPC   D2A15220  19.823  43.995   8.384
  858POPC   C3A15221  19.517  43.962   8.052
  858POPC   C4A15222  19.686  43.767   7.711
  858POPC   C1B15223  20.227  43.762   8.775
  858POPC   C2B15224  20.424  43.741   8.362
  858POPC   C3B15225  20.150  43.795   8.015
  858POPC   C4B15226  20.222  43.995   7.625
  859POPC   NC315227  16.857  17.465   9.594
  859POPC   PO415228  16.806  18.092   9.537
  859POPC   GL115229  16.522  17.801   9.317
  859POPC   GL215230  16.312  18.013   9.147
  859POPC   C1A15231  16.526  17.506   8.938
  859POPC   D2A15232  16.766  17.564   8.514
  859POPC   C3A15233  16.574  17.451   8.090
  859POPC   C4A15234  16.649  17.166   7.750
  859POPC   C1B15235  16.631  17.977   8.810
  859POPC   C2B15236  16.772  18.134   8.417
  859POPC   C3B15237  16.790  17.922   8.016
  859POPC   C4B15238  16.645  17.720   7.627
  860POPC   NC315239  42.290   3.303   9.461
  860POPC   PO415240  42.793   3.693   9.480
  860POPC   GL115241  42.567   3.769   9.093
  860POPC   GL215242  42.189   3.662   9.070
  860POPC   C1A15243  42.609   3.625   8.657
  860POPC   D2A15244  42.573   3.264   8.371
  860POPC   C3A15245  42.482   3.404   7.948
  860POPC   C4A15246  42.336   3.782   7.714
  860POPC   C1B15247  42.250   3.297   8.799
  860POPC   C2B15248  42.089   3.052   8.453
  860POPC   C3B15249  41.907   3.151   8.051
  860POPC   C4B15250  42.044   3.346   7.657
  861POPC   NC315251  20.936  31.542   9.440
  861POPC   PO415252  20.509  31.072   9.434
  861POPC   GL115253  20.405  31.441   9.165
  861POPC   GL215254  20.656  31.694   9.036
  861POPC   C1A15255  20.285  31.436   8.722
  861POPC   D2A15256  20.333  31.612   8.301
  861POPC   C3A15257  20.444  31.382   7.966
  861POPC   C4A15258  20.866  31.308   7.842
  861POPC   C1B15259  21.084  31.824   8.840
  861POPC   C2B15260  21.105  31.865   8.340
  861POPC   C3B15261  20.868  31.803   7.900
  861POPC   C4B15262  20.919  31.787   7.414
  862POPC   NC315263  22.346   8.305   9.813
  862POPC   PO415264  22.030   8.747   9.679
  862POPC   GL115265  22.116   8.446   9.286
  862POPC   GL215266  21.831   8.273   9.084
  862POPC   C1A15267  22.259   8.343   8.818
  862POPC   D2A15268  22.162   8.066   8.445
  862POPC   C3A15269  22.277   8.206   7.997
  862POPC   C4A15270  22.202   8.416   7.587
  862POPC   C1B15271  21.786   8.395   8.627
  862POPC   C2B15272  21.803   8.321   8.163
  862POPC   C3B15273  21.841   8.078   7.758
  862POPC   C4B15274  21.845   8.163   7.290
  863POPC   NC315275   6.464   7.303   9.548
  863POPC   PO415276   6.992   7.758   9.493
  863POPC   GL115277   6.736   7.527   9.188
  863POPC   GL215278   6.858   7.177   9.214
  863POPC   C1A15279   6.490   7.457   8.801
  863POPC   D2A15280   6.201   7.592   8.472
  863POPC   C3A15281   6.339   7.424   8.099
  863POPC   C4A15282   6.627   7.567   7.776
  863POPC   C1B15283   6.784   7.036   8.791
  863POPC   C2B15284   6.578   7.080   8.407
  863POPC   C3B15285   6.717   7.099   7.967
  863POPC   C4B15286   6.619   7.118   7.529
  864POPC   NC315287  43.987  11.412   9.517
  864POPC   PO415288  43.761  10.783   9.532
  864POPC   GL115289  43.870  10.938   9.126
  864POPC   GL215290  44.023  11.260   9.055
  864POPC   C1A15291  43.733  11.061   8.716
  864POPC   D2A15292  43.839  11.315   8.381
  864POPC   C3A15293  43.679  11.115   8.009
  864POPC   C4A15294  43.903  11.274   7.680
  864POPC   C1B15295  44.135  11.522   8.754
  864POPC   C2B15296  44.266  11.604   8.346
  864POPC   C3B15297  44.112  11.667   7.958
  864POPC   C4B15298  44.339  11.581   7.583
  865POPC   NC315299  18.522  10.374   9.592
  865POPC   PO415300  17.861  10.419   9.421
  865POPC   GL115301  18.212  10.478   9.186
  865POPC   GL215302  18.008  10.627   8.954
  865POPC   C1A15303  18.524  10.420   8.867
  865POPC   D2A15304  18.442  10.547   8.441
  865POPC   C3A15305  18.524  10.306   8.065
  865POPC   C4A15306  18.627  10.576   7.726
  865POPC   C1B15307  18.063  10.305   8.675
  865POPC   C2B15308  18.021  10.322   8.230
  865POPC   C3B15309  18.124  10.553   7.851
  865POPC   C4B15310  18.042  10.620   7.391
  866POPC   NC315311  28.036  18.223   9.407
  866POPC   PO415312  28.404  18.618   9.837
  866POPC   GL115313  28.434  18.488   9.287
  866POPC   GL215314  28.162  18.667   9.089
  866POPC   C1A15315  28.332  18.274   8.830
  866POPC   D2A15316  28.045  18.008   8.546
  866POPC   C3A15317  27.969  18.206   8.160
  866POPC   C4A15318  28.117  18.254   7.740
  866POPC   C1B15319  28.327  18.745   8.668
  866POPC   C2B15320  28.633  18.567   8.398
  866POPC   C3B15321  28.777  18.443   7.969
  866POPC   C4B15322  28.587  18.354   7.556
  867POPC   NC315323  22.750  23.243   9.505
  867POPC   PO415324  22.831  23.831   9.548
  867POPC   GL115325  22.994  23.843   9.155
  867POPC   GL215326  23.027  23.502   9.157
  867POPC   C1A15327  22.831  23.888   8.747
  867POPC   D2A15328  22.909  23.646   8.385
  867POPC   C3A15329  22.869  23.798   7.998
  867POPC   C4A15330  22.766  23.932   7.597
  867POPC   C1B15331  22.888  23.375   8.812
  867POPC   C2B15332  22.855  23.151   8.434
  867POPC   C3B15333  22.668  23.303   8.023
  867POPC   C4B15334  22.818  23.441   7.641
  868POPC   NC315335   0.795  21.483   9.460
  868POPC   PO415336   0.153  21.263   9.656
  868POPC   GL115337   0.252  21.320   9.227
  868POPC   GL215338  44.926  21.209   9.158
  868POPC   C1A15339   0.532  21.383   8.850
  868POPC   D2A15340   0.706  21.547   8.437
  868POPC   C3A15341   0.581  21.323   8.079
  868POPC   C4A15342   0.352  21.464   7.740
  868POPC   C1B15343   0.096  21.126   8.765
  868POPC   C2B15344   0.202  21.379   8.430
  868POPC   C3B15345   0.069  21.204   8.072
  868POPC   C4B15346   0.017  21.077   7.707
  869POPC   NC315347  38.663  28.699   9.552
  869POPC   PO415348  38.745  29.323   9.804
  869POPC   GL115349  38.486  29.103   9.273
  869POPC   GL215350  38.131  29.089   9.282
  869POPC   C1A15351  38.493  29.155   8.761
  869POPC   D2A15352  38.617  29.222   8.261
  869POPC   C3A15353  38.603  29.140   7.769
  869POPC   C4A15354  38.576  28.800   7.424
  869POPC   C1B15355  38.044  28.957   8.877
  869POPC   C2B15356  38.238  28.756   8.499
  869POPC   C3B15357  38.288  28.853   8.065
  869POPC   C4B15358  38.132  28.870   7.645
  870POPC   NC315359  41.608  20.479   9.375
  870POPC   PO415360  41.194  20.931   9.472
  870POPC   GL115361  41.273  20.714   9.078
  870POPC   GL215362  41.137  20.386   9.067
  870POPC   C1A15363  41.636  20.747   8.766
  870POPC   D2A15364  41.751  20.523   8.394
  870POPC   C3A15365  41.664  20.653   7.958
  870POPC   C4A15366  41.494  20.854   7.576
  870POPC   C1B15367  41.351  20.323   8.719
  870POPC   C2B15368  41.333  20.230   8.318
  870POPC   C3B15369  41.242  20.183   7.924
  870POPC   C4B15370  41.431  20.354   7.582
  871POPC   NC315371  32.072  28.598   9.479
  871POPC   PO415372  32.480  28.119   9.492
  871POPC   GL115373  32.389  28.350   9.112
  871POPC   GL215374  32.064  28.494   8.988
  871POPC   C1A15375  32.487  28.286   8.699
  871POPC   D2A15376  32.578  28.507   8.334
  871POPC   C3A15377  32.402  28.495   7.975
  871POPC   C4A15378  32.323  28.258   7.609
  871POPC   C1B15379  32.172  28.661   8.595
  871POPC   C2B15380  32.093  28.304   8.346
  871POPC   C3B15381  31.930  28.253   7.966
  871POPC   C4B15382  31.989  28.615   7.733
  872POPC   NC315383  24.976  16.329   9.257
  872POPC   PO415384  25.419  16.761   9.512
  872POPC   GL115385  25.363  16.634   9.101
  872POPC   GL215386  25.051  16.792   9.060
  872POPC   C1A15387  25.222  16.456   8.677
  872POPC   D2A15388  25.142  16.646   8.264
  872POPC   C3A15389  25.062  16.430   7.902
  872POPC   C4A15390  25.454  16.389   7.694
  872POPC   C1B15391  25.221  16.957   8.707
  872POPC   C2B15392  25.076  17.140   8.325
  872POPC   C3B15393  25.313  17.164   7.985
  872POPC   C4B15394  25.244  16.870   7.730
  873POPC   NC315395   6.202   8.909   9.394
  873POPC   PO415396   5.513   8.854   9.639
  873POPC   GL115397   5.552   9.012   9.156
  873POPC   GL215398   5.865   9.106   9.087
  873POPC   C1A15399   5.644   8.842   8.707
  873POPC   D2A15400   5.730   8.996   8.304
  873POPC   C3A15401   5.915   8.660   8.039
  873POPC   C4A15402   6.065   8.715   7.610
  873POPC   C1B15403   6.059   9.225   8.671
  873POPC   C2B15404   6.334   9.214   8.272
  873POPC   C3B15405   6.235   9.148   7.837
  873POPC   C4B15406   5.789   9.093   7.797
  874POPC   NC315407  40.470  37.424   9.519
  874POPC   PO415408  39.879  37.754   9.652
  874POPC   GL115409  40.077  37.695   9.281
  874POPC   GL215410  39.980  37.334   9.295
  874POPC   C1A15411  40.022  37.804   8.830
  874POPC   D2A15412  39.772  37.675   8.461
  874POPC   C3A15413  39.911  37.639   8.016
  874POPC   C4A15414  39.889  37.836   7.562
  874POPC   C1B15415  40.228  37.356   8.930
  874POPC   C2B15416  40.137  37.322   8.512
  874POPC   C3B15417  40.231  37.255   8.124
  874POPC   C4B15418  40.174  37.236   7.696
  875POPC   NC315419  26.193   1.608   9.668
  875POPC   PO415420  25.809   2.104   9.717
  875POPC   GL115421  25.901   2.094   9.246
  875POPC   GL215422  26.166   1.845   9.174
  875POPC   C1A15423  25.908   2.227   8.796
  875POPC   D2A15424  25.712   2.071   8.404
  875POPC   C3A15425  25.750   2.202   7.953
  875POPC   C4A15426  25.811   2.071   7.511
  875POPC   C1B15427  26.360   1.555   8.879
  875POPC   C2B15428  26.305   1.423   8.463
  875POPC   C3B15429  26.402   1.615   8.066
  875POPC   C4B15430  26.220   1.848   7.706
  876POPC   NC315431  40.300  26.176   9.501
  876POPC   PO415432  39.901  25.637   9.430
  876POPC   GL115433  39.761  26.014   9.185
  876POPC   GL215434  40.025  26.283   9.078
  876POPC   C1A15435  39.780  26.018   8.736
  876POPC   D2A15436  40.121  26.008   8.422
  876POPC   C3A15437  40.041  26.113   8.005
  876POPC   C4A15438  39.844  26.442   7.791
  876POPC   C1B15439  40.332  25.943   8.885
  876POPC   C2B15440  40.635  25.898   8.509
  876POPC   C3B15441  40.549  25.681   8.107
  876POPC   C4B15442  40.200  25.670   7.757
  877POPC   NC315443  23.354  20.844   9.343
  877POPC   PO415444  23.532  21.527   9.494
  877POPC   GL115445  23.881  21.448   9.193
  877POPC   GL215446  23.829  21.093   9.191
  877POPC   C1A15447  24.034  21.345   8.770
  877POPC   D2A15448  24.092  21.181   8.366
  877POPC   C3A15449  23.950  21.440   8.002
  877POPC   C4A15450  23.497  21.576   7.914
  877POPC   C1B15451  23.536  21.285   8.837
  877POPC   C2B15452  23.582  21.302   8.369
  877POPC   C3B15453  23.751  20.973   8.046
  877POPC   C4B15454  23.935  21.063   7.631
  878POPC   NC315455  27.843   8.543   9.458
  878POPC   PO415456  27.371   9.068   9.459
  878POPC   GL115457  27.452   9.063   9.031
  878POPC   GL215458  27.791   9.023   9.083
  878POPC   C1A15459  27.552   8.838   8.641
  878POPC   D2A15460  27.719   8.732   8.263
  878POPC   C3A15461  27.405   8.820   7.953
  878POPC   C4A15462  27.462   8.863   7.501
  878POPC   C1B15463  27.827   9.336   8.734
  878POPC   C2B15464  27.843   9.250   8.264
  878POPC   C3B15465  27.822   9.054   7.817
  878POPC   C4B15466  27.946   9.208   7.370
  879POPC   NC315467  11.093  31.862   9.615
  879POPC   PO415468  11.216  31.251   9.469
  879POPC   GL115469  11.338  31.365   9.074
  879POPC   GL215470  11.615  31.529   9.159
  879POPC   C1A15471  11.255  31.268   8.636
  879POPC   D2A15472  11.280  31.627   8.423
  879POPC   C3A15473  11.215  31.577   8.032
  879POPC   C4A15474  10.954  31.305   7.886
  879POPC   C1B15475  11.711  31.484   8.699
  879POPC   C2B15476  11.697  31.417   8.221
  879POPC   C3B15477  11.661  31.638   7.795
  879POPC   C4B15478  11.555  31.844   7.401
  880POPC   NC315479  15.560   9.352   9.265
  880POPC   PO415480  16.028   9.123   9.573
  880POPC   GL115481  15.885   8.847   9.202
  880POPC   GL215482  15.901   9.098   9.006
  880POPC   C1A15483  15.980   8.700   8.731
  880POPC   D2A15484  15.851   8.879   8.317
  880POPC   C3A15485  15.881   8.681   7.901
  880POPC   C4A15486  16.032   8.723   7.476
  880POPC   C1B15487  15.738   9.262   8.630
  880POPC   C2B15488  15.569   9.429   8.264
  880POPC   C3B15489  15.812   9.270   7.930
  880POPC   C4B15490  15.781   9.160   7.499
  881POPC   NC315491   0.911  41.596   9.644
  881POPC   PO415492   1.361  42.035   9.581
  881POPC   GL115493   1.301  41.754   9.241
  881POPC   GL215494   0.968  41.633   9.109
  881POPC   C1A15495   1.417  41.646   8.828
  881POPC   D2A15496   1.334  41.459   8.459
  881POPC   C3A15497   1.444  41.550   8.033
  881POPC   C4A15498   1.417  41.308   7.657
  881POPC   C1B15499   0.885  41.685   8.645
  881POPC   C2B15500   0.944  41.602   8.169
  881POPC   C3B15501   0.953  41.480   7.747
  881POPC   C4B15502   1.123  41.642   7.348
  882POPC   NC315503  39.622   5.556   9.433
  882POPC   PO415504  39.174   6.091   9.513
  882POPC   GL115505  39.190   5.822   9.149
  882POPC   GL215506  39.142   5.447   9.230
  882POPC   C1A15507  39.089   5.948   8.717
  882POPC   D2A15508  39.310   6.235   8.466
  882POPC   C3A15509  39.302   6.048   8.070
  882POPC   C4A15510  39.065   5.981   7.707
  882POPC   C1B15511  39.275   5.456   8.792
  882POPC   C2B15512  39.228   5.608   8.371
  882POPC   C3B15513  39.402   5.556   7.991
  882POPC   C4B15514  39.223   5.486   7.599
  883POPC   NC315515  29.158  28.183   9.508
  883POPC   PO415516  28.923  28.808   9.397
  883POPC   GL115517  29.185  28.525   9.111
  883POPC   GL215518  29.367  28.159   9.061
  883POPC   C1A15519  29.331  28.498   8.680
  883POPC   D2A15520  29.149  28.388   8.329
  883POPC   C3A15521  29.172  28.564   7.912
  883POPC   C4A15522  28.976  28.513   7.488
  883POPC   C1B15523  28.969  28.145   8.801
  883POPC   C2B15524  28.868  27.930   8.407
  883POPC   C3B15525  29.062  28.026   8.008
  883POPC   C4B15526  29.190  27.829   7.691
  884POPC   NC315527  35.329  27.451   9.454
  884POPC   PO415528  35.037  28.021   9.325
  884POPC   GL115529  35.092  27.657   9.053
  884POPC   GL215530  35.469  27.594   8.997
  884POPC   C1A15531  35.109  27.355   8.723
  884POPC   D2A15532  35.343  27.408   8.344
  884POPC   C3A15533  35.169  27.489   7.947
  884POPC   C4A15534  35.008  27.809   7.685
  884POPC   C1B15535  35.398  27.832   8.636
  884POPC   C2B15536  35.730  27.767   8.326
  884POPC   C3B15537  35.670  27.604   7.937
  884POPC   C4B15538  35.431  27.966   7.880
  885POPC   NC315539   6.605  28.513   9.697
  885POPC   PO415540   6.463  27.839   9.540
  885POPC   GL115541   6.628  28.174   9.217
  885POPC   GL215542   6.612  28.547   9.197
  885POPC   C1A15543   6.822  28.288   8.783
  885POPC   D2A15544   6.875  28.515   8.358
  885POPC   C3A15545   6.611  28.267   8.042
  885POPC   C4A15546   6.798  28.030   7.660
  885POPC   C1B15547   6.576  28.729   8.784
  885POPC   C2B15548   6.402  28.665   8.370
  885POPC   C3B15549   6.518  28.780   7.948
  885POPC   C4B15550   6.865  28.566   7.734
  886POPC   NC315551  25.048  18.785   9.551
  886POPC   PO415552  25.237  19.420   9.296
  886POPC   GL115553  25.279  19.016   9.146
  886POPC   GL215554  24.947  19.001   9.118
  886POPC   C1A15555  25.478  18.992   8.764
  886POPC   D2A15556  25.621  19.278   8.454
  886POPC   C3A15557  25.532  19.056   8.102
  886POPC   C4A15558  25.493  19.043   7.681
  886POPC   C1B15559  24.911  18.875   8.734
  886POPC   C2B15560  25.128  18.849   8.368
  886POPC   C3B15561  25.047  18.996   7.946
  886POPC   C4B15562  25.031  18.871   7.511
  887POPC   NC315563  19.030  26.880   9.644
  887POPC   PO415564  18.453  27.006   9.349
  887POPC   GL115565  18.907  27.036   9.152
  887POPC   GL215566  19.159  26.743   9.177
  887POPC   C1A15567  19.122  27.041   8.728
  887POPC   D2A15568  18.849  27.085   8.316
  887POPC   C3A15569  18.834  26.784   7.939
  887POPC   C4A15570  19.186  26.827   7.630
  887POPC   C1B15571  19.146  26.523   8.798
  887POPC   C2B15572  19.056  26.615   8.377
  887POPC   C3B15573  19.299  26.537   8.026
  887POPC   C4B15574  19.613  26.505   7.726
  888POPC   NC315575  20.014  29.936   9.517
  888POPC   PO415576  19.548  29.471   9.383
  888POPC   GL115577  19.904  29.643   9.118
  888POPC   GL215578  20.136  29.944   9.038
  888POPC   C1A15579  20.018  29.526   8.693
  888POPC   D2A15580  20.049  29.778   8.326
  888POPC   C3A15581  19.710  29.699   8.037
  888POPC   C4A15582  19.792  29.502   7.621
  888POPC   C1B15583  19.822  29.982   8.735
  888POPC   C2B15584  19.734  30.213   8.385
  888POPC   C3B15585  19.892  30.193   8.017
  888POPC   C4B15586  19.791  30.021   7.651
  889POPC   NC315587  31.616  37.074   9.322
  889POPC   PO415588  31.127  36.621   9.283
  889POPC   GL115589  31.253  36.893   9.003
  889POPC   GL215590  31.581  36.703   8.990
  889POPC   C1A15591  31.043  36.951   8.637
  889POPC   D2A15592  31.206  36.679   8.345
  889POPC   C3A15593  31.040  36.650   7.969
  889POPC   C4A15594  31.313  36.929   7.776
  889POPC   C1B15595  31.611  36.910   8.591
  889POPC   C2B15596  31.733  37.057   8.165
  889POPC   C3B15597  31.855  36.869   7.786
  889POPC   C4B15598  32.011  36.844   7.333
  890POPC   NC315599  41.462  34.173   9.480
  890POPC   PO415600  41.740  34.770   9.589
  890POPC   GL115601  41.672  34.763   9.158
  890POPC   GL215602  41.347  34.601   9.160
  890POPC   C1A15603  41.504  34.931   8.780
  890POPC   D2A15604  41.336  34.899   8.377
  890POPC   C3A15605  41.581  34.961   8.042
  890POPC   C4A15606  41.766  34.710   7.763
  890POPC   C1B15607  41.549  34.388   8.797
  890POPC   C2B15608  41.470  34.397   8.352
  890POPC   C3B15609  41.274  34.560   7.977
  890POPC   C4B15610  41.369  34.459   7.535
  891POPC   NC315611   3.170  41.482   9.451
  891POPC   PO415612   3.660  41.165   9.735
  891POPC   GL115613   3.540  41.382   9.096
  891POPC   GL215614   3.254  41.607   8.989
  891POPC   C1A15615   3.547  41.468   8.608
  891POPC   D2A15616   3.715  41.839   8.343
  891POPC   C3A15617   3.775  41.591   7.983
  891POPC   C4A15618   3.510  41.305   7.778
  891POPC   C1B15619   3.317  41.920   8.675
  891POPC   C2B15620   3.210  41.852   8.233
  891POPC   C3B15621   3.334  41.814   7.775
  891POPC   C4B15622   3.089  41.910   7.371
  892POPC   NC315623  27.999  38.368   9.495
  892POPC   PO415624  28.583  38.842   9.534
  892POPC   GL115625  28.473  38.560   9.196
  892POPC   GL215626  28.131  38.687   9.109
  892POPC   C1A15627  28.399  38.414   8.748
  892POPC   D2A15628  28.091  38.575   8.423
  892POPC   C3A15629  28.220  38.413   8.025
  892POPC   C4A15630  28.583  38.183   7.858
  892POPC   C1B15631  28.441  38.919   8.840
  892POPC   C2B15632  28.523  38.827   8.417
  892POPC   C3B15633  28.509  38.980   8.020
  892POPC   C4B15634  28.517  38.673   7.697
  893POPC   NC315635  26.763   1.333   9.605
  893POPC   PO415636  26.342   0.789   9.525
  893POPC   GL115637  26.658   0.931   9.148
  893POPC   GL215638  26.800   1.298   9.119
  893POPC   C1A15639  26.684   1.112   8.688
  893POPC   D2A15640  26.667   0.911   8.331
  893POPC   C3A15641  26.806   1.168   8.054
  893POPC   C4A15642  26.932   1.025   7.671
  893POPC   C1B15643  26.876   1.661   8.853
  893POPC   C2B15644  26.732   1.822   8.446
  893POPC   C3B15645  26.897   1.752   8.029
  893POPC   C4B15646  26.794   1.521   7.689
  894POPC   NC315647  13.882  36.810   9.517
  894POPC   PO415648  13.305  36.671   9.603
  894POPC   GL115649  13.429  36.802   9.204
  894POPC   GL215650  13.644  37.051   9.086
  894POPC   C1A15651  13.566  36.648   8.815
  894POPC   D2A15652  13.629  36.911   8.487
  894POPC   C3A15653  13.562  36.710   8.103
  894POPC   C4A15654  13.367  36.879   7.810
  894POPC   C1B15655  13.986  37.209   8.837
  894POPC   C2B15656  14.125  37.075   8.430
  894POPC   C3B15657  14.049  37.260   8.050
  894POPC   C4B15658  13.873  37.050   7.686
  895POPC   NC315659  30.133   3.106   9.617
  895POPC   PO415660  29.646   2.637   9.799
  895POPC   GL115661  29.677   2.663   9.308
  895POPC   GL215662  30.050   2.675   9.211
  895POPC   C1A15663  29.613   2.548   8.845
  895POPC   D2A15664  29.676   2.427   8.391
  895POPC   C3A15665  29.677   2.733   8.022
  895POPC   C4A15666  29.943   3.023   7.771
  895POPC   C1B15667  30.139   2.497   8.770
  895POPC   C2B15668  30.179   2.404   8.324
  895POPC   C3B15669  30.145   2.518   7.884
  895POPC   C4B15670  30.308   2.353   7.488
  896POPC   NC315671  42.570  19.120   9.314
  896POPC   PO415672  42.024  19.433   9.542
  896POPC   GL115673  42.064  19.171   9.137
  896POPC   GL215674  42.176  18.812   9.102
  896POPC   C1A15675  41.952  19.016   8.699
  896POPC   D2A15676  42.142  19.058   8.303
  896POPC   C3A15677  42.071  18.757   7.995
  896POPC   C4A15678  42.125  18.993   7.632
  896POPC   C1B15679  42.452  18.930   8.718
  896POPC   C2B15680  42.617  19.227   8.400
  896POPC   C3B15681  42.554  19.167   7.983
  896POPC   C4B15682  42.560  18.776   7.854
  897POPC   NC315683  24.331  18.707   9.495
  897POPC   PO415684  24.761  19.195   9.596
  897POPC   GL115685  24.471  19.142   9.199
  897POPC   GL215686  24.480  18.792   9.018
  897POPC   C1A15687  24.553  19.263   8.746
  897POPC   D2A15688  24.678  19.099   8.316
  897POPC   C3A15689  24.641  19.329   7.906
  897POPC   C4A15690  24.591  19.221   7.447
  897POPC   C1B15691  24.287  18.773   8.604
  897POPC   C2B15692  24.346  18.747   8.161
  897POPC   C3B15693  24.593  18.841   7.800
  897POPC   C4B15694  24.546  18.714   7.352
  898POPC   NC315695  40.501  33.707   9.494
  898POPC   PO415696  41.162  33.828   9.439
  898POPC   GL115697  40.846  33.810   9.118
  898POPC   GL215698  40.592  34.055   9.140
  898POPC   C1A15699  40.748  33.623   8.721
  898POPC   D2A15700  40.944  33.577   8.309
  898POPC   C3A15701  40.857  33.863   7.936
  898POPC   C4A15702  41.001  34.092   7.532
  898POPC   C1B15703  40.698  34.139   8.728
  898POPC   C2B15704  40.553  33.945   8.365
  898POPC   C3B15705  40.349  34.073   8.020
  898POPC   C4B15706  40.509  34.135   7.646
  899POPC   NC315707  41.615  38.498   9.682
  899POPC   PO415708  42.064  38.828   9.257
  899POPC   GL115709  41.851  38.436   9.002
  899POPC   GL215710  41.456  38.362   9.050
  899POPC   C1A15711  41.671  38.494   8.598
  899POPC   D2A15712  41.539  38.742   8.274
  899POPC   C3A15713  41.818  38.598   7.979
  899POPC   C4A15714  41.698  38.462   7.583
  899POPC   C1B15715  41.371  38.116   8.720
  899POPC   C2B15716  41.241  38.271   8.342
  899POPC   C3B15717  41.401  38.294   7.970
  899POPC   C4B15718  41.216  38.126   7.627
  900POPC   NC315719   8.521   6.102   9.413
  900POPC   PO415720   8.008   5.624   9.331
  900POPC   GL115721   8.250   5.766   9.071
  900POPC   GL215722   8.159   6.083   9.014
  900POPC   C1A15723   8.088   5.668   8.660
  900POPC   D2A15724   7.908   5.814   8.312
  900POPC   C3A15725   8.067   5.679   7.935
  900POPC   C4A15726   7.976   6.043   7.712
  900POPC   C1B15727   8.505   5.939   8.688
  900POPC   C2B15728   8.468   5.808   8.241
  900POPC   C3B15729   8.474   6.033   7.829
  900POPC   C4B15730   8.664   6.105   7.390
  901POPC   NC315731  20.408  19.472   9.485
  901POPC   PO415732  20.896  19.023   9.555
  901POPC   GL115733  20.718  19.170   9.186
  901POPC   GL215734  20.649  18.843   9.055
  901POPC   C1A15735  20.419  19.270   8.849
  901POPC   D2A15736  20.376  19.281   8.422
  901POPC   C3A15737  20.646  19.425   8.113
  901POPC   C4A15738  20.550  19.307   7.711
  901POPC   C1B15739  20.859  18.929   8.678
  901POPC   C2B15740  20.809  18.963   8.226
  901POPC   C3B15741  20.536  18.828   7.902
  901POPC   C4B15742  20.698  18.631   7.553
  902POPC   NC315743  38.616  24.408   9.780
  902POPC   PO415744  38.097  24.221   9.434
  902POPC   GL115745  38.338  24.454   9.171
  902POPC   GL215746  38.697  24.471   9.278
  902POPC   C1A15747  38.275  24.348   8.736
  902POPC   D2A15748  38.115  24.535   8.400
  902POPC   C3A15749  38.469  24.654   8.209
  902POPC   C4A15750  38.424  24.565   7.808
  902POPC   C1B15751  38.702  24.159   8.955
  902POPC   C2B15752  38.719  24.149   8.508
  902POPC   C3B15753  38.528  24.152   8.108
  902POPC   C4B15754  38.553  24.063   7.676
  903POPC   NC315755  33.566  20.621   9.453
  903POPC   PO415756  34.173  20.711   9.482
  903POPC   GL115757  33.922  20.832   9.117
  903POPC   GL215758  34.128  21.067   8.926
  903POPC   C1A15759  33.791  20.634   8.724
  903POPC   D2A15760  33.974  20.421   8.363
  903POPC   C3A15761  33.654  20.295   8.072
  903POPC   C4A15762  33.779  20.355   7.661
  903POPC   C1B15763  33.693  21.141   8.739
  903POPC   C2B15764  33.473  20.907   8.387
  903POPC   C3B15765  33.705  20.801   8.004
  903POPC   C4B15766  33.709  20.861   7.551
  904POPC   NC315767  12.863   3.178   9.438
  904POPC   PO415768  13.176   3.818   9.468
  904POPC   GL115769  12.926   3.602   9.105
  904POPC   GL215770  13.027   3.270   8.957
  904POPC   C1A15771  12.685   3.811   8.758
  904POPC   D2A15772  12.492   3.909   8.340
  904POPC   C3A15773  12.750   3.767   7.972
  904POPC   C4A15774  12.933   3.419   7.727
  904POPC   C1B15775  12.645   3.281   8.677
  904POPC   C2B15776  12.556   3.019   8.285
  904POPC   C3B15777  12.589   3.018   7.808
  904POPC   C4B15778  12.774   3.079   7.362
  905POPC   NC315779  10.331  44.029   9.787
  905POPC   PO415780   9.680  43.886   9.486
  905POPC   GL115781   9.930  43.812   9.154
  905POPC   GL215782  10.005  43.469   9.169
  905POPC   C1A15783   9.964  43.973   8.740
  905POPC   D2A15784   9.701  43.826   8.392
  905POPC   C3A15785   9.833  44.009   8.050
  905POPC   C4A15786  10.044  43.869   7.702
  905POPC   C1B15787   9.702  43.531   8.813
  905POPC   C2B15788   9.432  43.414   8.482
  905POPC   C3B15789   9.350  43.486   8.063
  905POPC   C4B15790   9.634  43.554   7.766
  906POPC   NC315791   7.666   1.847   9.558
  906POPC   PO415792   7.948   2.466   9.485
  906POPC   GL115793   7.704   2.192   9.175
  906POPC   GL215794   7.462   1.908   9.107
  906POPC   C1A15795   7.809   2.065   8.764
  906POPC   D2A15796   7.697   2.162   8.365
  906POPC   C3A15797   7.448   1.895   8.148
  906POPC   C4A15798   7.601   1.757   7.778
  906POPC   C1B15799   7.301   2.155   8.761
  906POPC   C2B15800   7.081   2.221   8.368
  906POPC   C3B15801   7.090   2.188   7.929
  906POPC   C4B15802   7.138   1.926   7.607
  907POPC   NC315803   0.265  22.329   9.523
  907POPC   PO415804   0.885  21.932   9.527
  907POPC   GL115805   0.556  21.838   9.199
  907POPC   GL215806   0.595  22.152   9.148
  907POPC   C1A15807   0.436  21.878   8.753
  907POPC   D2A15808   0.654  22.059   8.426
  907POPC   C3A15809   0.527  21.880   8.018
  907POPC   C4A15810   0.246  21.986   7.671
  907POPC   C1B15811   0.395  22.384   8.863
  907POPC   C2B15812   0.438  22.528   8.469
  907POPC   C3B15813   0.392  22.474   8.071
  907POPC   C4B15814   0.601  22.337   7.769
  908POPC   NC315815  23.273  29.243   9.654
  908POPC   PO415816  22.745  29.442   9.616
  908POPC   GL115817  22.922  29.147   9.273
  908POPC   GL215818  23.187  28.874   9.241
  908POPC   C1A15819  22.737  28.922   8.910
  908POPC   D2A15820  22.692  29.045   8.472
  908POPC   C3A15821  22.631  28.724   8.144
  908POPC   C4A15822  22.811  28.776   7.742
  908POPC   C1B15823  23.218  29.051   8.789
  908POPC   C2B15824  23.214  29.104   8.320
  908POPC   C3B15825  23.237  29.071   7.862
  908POPC   C4B15826  23.269  29.471   7.689
  909POPC   NC315827  36.392  27.676   9.487
  909POPC   PO415828  35.809  27.424   9.387
  909POPC   GL115829  36.099  27.567   9.065
  909POPC   GL215830  36.410  27.361   9.081
  909POPC   C1A15831  36.077  27.848   8.702
  909POPC   D2A15832  36.323  27.867   8.319
  909POPC   C3A15833  36.096  27.919   7.940
  909POPC   C4A15834  36.257  27.820   7.520
  909POPC   C1B15835  36.357  27.384   8.631
  909POPC   C2B15836  36.095  27.411   8.271
  909POPC   C3B15837  36.130  27.422   7.816
  909POPC   C4B15838  35.849  27.511   7.453
  910POPC   NC315839   1.718   6.662   9.648
  910POPC   PO415840   1.141   6.974   9.469
  910POPC   GL115841   1.083   6.787   9.100
  910POPC   GL215842   1.087   6.489   9.234
  910POPC   C1A15843   1.224   6.725   8.719
  910POPC   D2A15844   1.309   6.675   8.317
  910POPC   C3A15845   1.507   6.914   8.033
  910POPC   C4A15846   1.203   6.802   7.749
  910POPC   C1B15847   1.015   6.271   8.868
  910POPC   C2B15848   1.238   6.213   8.516
  910POPC   C3B15849   1.202   6.241   8.070
  910POPC   C4B15850   1.006   6.318   7.704
  911POPC   NC315851   6.915  15.040   9.542
  911POPC   PO415852   6.352  15.312   9.528
  911POPC   GL115853   6.627  15.232   9.176
  911POPC   GL215854   6.956  15.443   9.224
  911POPC   C1A15855   6.490  15.183   8.749
  911POPC   D2A15856   6.372  15.432   8.380
  911POPC   C3A15857   6.540  15.228   8.072
  911POPC   C4A15858   6.636  15.043   7.693
  911POPC   C1B15859   6.978  15.345   8.794
  911POPC   C2B15860   6.902  15.127   8.404
  911POPC   C3B15861   7.019  15.287   7.947
  911POPC   C4B15862   7.049  15.310   7.482
  912POPC   NC315863   1.669  20.343   9.762
  912POPC   PO415864   2.242  20.710   9.605
  912POPC   GL115865   2.106  20.430   9.277
  912POPC   GL215866   2.101  20.717   9.083
  912POPC   C1A15867   2.119  20.268   8.823
  912POPC   D2A15868   2.135  20.517   8.426
  912POPC   C3A15869   2.037  20.387   8.029
  912POPC   C4A15870   2.155  20.572   7.636
  912POPC   C1B15871   2.278  21.091   8.857
  912POPC   C2B15872   2.285  20.997   8.420
  912POPC   C3B15873   2.395  20.780   8.045
  912POPC   C4B15874   2.348  21.032   7.663
  913POPC   NC315875   8.650   8.632   9.622
  913POPC   PO415876   9.044   9.118   9.460
  913POPC   GL115877   8.795   9.009   9.145
  913POPC   GL215878   9.052   8.853   8.983
  913POPC   C1A15879   8.703   9.179   8.727
  913POPC   D2A15880   8.959   9.132   8.364
  913POPC   C3A15881   8.887   9.077   7.961
  913POPC   C4A15882   8.979   9.385   7.652
  913POPC   C1B15883   9.384   8.739   8.737
  913POPC   C2B15884   9.391   8.838   8.327
  913POPC   C3B15885   9.278   8.669   7.945
  913POPC   C4B15886   9.139   8.829   7.569
  914POPC   NC315887  21.271  25.431   9.307
  914POPC   PO415888  21.839  25.104   9.461
  914POPC   GL115889  21.498  25.073   9.058
  914POPC   GL215890  21.324  25.422   8.829
  914POPC   C1A15891  21.104  24.985   8.766
  914POPC   D2A15892  21.011  25.156   8.361
  914POPC   C3A15893  21.314  24.938   8.083
  914POPC   C4A15894  21.502  25.072   7.704
  914POPC   C1B15895  21.400  25.809   8.601
  914POPC   C2B15896  21.674  25.679   8.342
  914POPC   C3B15897  21.363  25.517   8.097
  914POPC   C4B15898  21.462  25.575   7.715
  915POPC   NC315899  23.055   9.163   9.960
  915POPC   PO415900  22.979   9.780   9.642
  915POPC   GL115901  22.998   9.947   9.191
  915POPC   GL215902  22.861   9.652   8.997
  915POPC   C1A15903  22.864  10.061   8.733
  915POPC   D2A15904  22.854   9.730   8.374
  915POPC   C3A15905  23.046   9.695   7.942
  915POPC   C4A15906  23.119   9.604   7.494
  915POPC   C1B15907  22.464   9.706   8.694
  915POPC   C2B15908  22.360   9.491   8.277
  915POPC   C3B15909  22.467   9.327   7.854
  915POPC   C4B15910  22.329   9.271   7.393
  916POPC   NC315911  33.184   7.025   9.577
  916POPC   PO415912  32.639   6.575   9.622
  916POPC   GL115913  32.736   6.735   9.202
  916POPC   GL215914  32.818   7.093   9.222
  916POPC   C1A15915  32.950   6.572   8.794
  916POPC   D2A15916  33.375   6.573   8.534
  916POPC   C3A15917  33.378   6.529   8.070
  916POPC   C4A15918  33.143   6.568   7.670
  916POPC   C1B15919  32.803   7.068   8.795
  916POPC   C2B15920  33.052   6.939   8.445
  916POPC   C3B15921  32.932   6.799   8.077
  916POPC   C4B15922  32.747   6.960   7.716
  917POPC   NC315923  19.561  20.800   9.343
  917POPC   PO415924  20.216  20.539   9.433
  917POPC   GL115925  19.958  20.573   9.085
  917POPC   GL215926  19.684  20.346   9.164
  917POPC   C1A15927  19.842  20.881   8.747
  917POPC   D2A15928  19.742  20.997   8.334
  917POPC   C3A15929  19.831  20.808   7.915
  917POPC   C4A15930  19.676  20.750   7.473
  917POPC   C1B15931  19.565  20.442   8.765
  917POPC   C2B15932  19.864  20.454   8.455
  917POPC   C3B15933  19.726  20.347   8.089
  917POPC   C4B15934  19.857  20.320   7.678
  918POPC   NC315935  17.543  28.935   9.752
  918POPC   PO415936  17.030  28.975   9.502
  918POPC   GL115937  17.388  28.957   9.223
  918POPC   GL215938  17.593  29.290   9.134
  918POPC   C1A15939  17.428  28.987   8.777
  918POPC   D2A15940  17.592  28.885   8.406
  918POPC   C3A15941  17.355  29.055   8.076
  918POPC   C4A15942  17.601  29.062   7.748
  918POPC   C1B15943  17.737  29.373   8.660
  918POPC   C2B15944  17.741  29.404   8.174
  918POPC   C3B15945  17.439  29.533   7.841
  918POPC   C4B15946  17.023  29.331   7.763
  919POPC   NC315947  20.053   8.804   9.424
  919POPC   PO415948  19.417   9.042   9.472
  919POPC   GL115949  19.641   8.899   9.141
  919POPC   GL215950  19.885   9.128   9.041
  919POPC   C1A15951  19.653   8.821   8.704
  919POPC   D2A15952  19.827   9.155   8.447
  919POPC   C3A15953  20.089   9.006   8.124
  919POPC   C4A15954  19.946   8.682   7.794
  919POPC   C1B15955  20.227   9.222   8.731
  919POPC   C2B15956  20.259   9.490   8.345
  919POPC   C3B15957  20.284   9.436   7.898
  919POPC   C4B15958  20.063   9.149   7.635
  920POPC   NC315959  39.501  32.806   9.337
  920POPC   PO415960  38.996  33.152   9.608
  920POPC   GL115961  39.104  33.212   9.177
  920POPC   GL215962  39.455  33.276   9.169
  920POPC   C1A15963  39.139  32.959   8.790
  920POPC   D2A15964  38.965  32.763   8.421
  920POPC   C3A15965  39.156  32.880   8.035
  920POPC   C4A15966  39.040  32.960   7.630
  920POPC   C1B15967  39.393  33.403   8.756
  920POPC   C2B15968  39.428  33.187   8.365
  920POPC   C3B15969  39.571  33.206   7.956
  920POPC   C4B15970  39.520  33.085   7.530
  921POPC   NC315971  36.617  18.772   9.496
  921POPC   PO415972  36.907  18.166   9.449
  921POPC   GL115973  36.822  18.345   9.096
  921POPC   GL215974  37.149  18.432   8.933
  921POPC   C1A15975  36.795  18.168   8.708
  921POPC   D2A15976  37.004  18.377   8.391
  921POPC   C3A15977  36.861  18.108   8.075
  921POPC   C4A15978  36.638  18.182   7.675
  921POPC   C1B15979  37.294  18.765   8.674
  921POPC   C2B15980  37.308  18.793   8.252
  921POPC   C3B15981  37.292  18.471   7.965
  921POPC   C4B15982  37.141  18.239   7.680
  922POPC   NC315983   1.624  42.954   9.551
  922POPC   PO415984   1.928  43.438   9.347
  922POPC   GL115985   1.917  43.085   9.119
  922POPC   GL215986   2.238  42.915   9.211
  922POPC   C1A15987   1.940  43.086   8.688
  922POPC   D2A15988   2.257  43.127   8.354
  922POPC   C3A15989   2.017  43.279   8.027
  922POPC   C4A15990   1.587  43.163   8.070
  922POPC   C1B15991   2.279  42.717   8.798
  922POPC   C2B15992   2.020  42.666   8.412
  922POPC   C3B15993   2.038  42.777   8.004
  922POPC   C4B15994   2.251  42.546   7.711
  923POPC   NC315995  21.681  36.931   9.570
  923POPC   PO415996  21.169  36.587   9.699
  923POPC   GL115997  21.229  36.875   9.314
  923POPC   GL215998  21.396  37.210   9.269
  923POPC   C1A15999  21.398  36.864   8.886
  923POPC   D2A16000  21.433  36.686   8.471
  923POPC   C3A16001  21.247  36.834   8.106
  923POPC   C4A16002  21.381  36.704   7.693
  923POPC   C1B16003  21.677  37.291   8.870
  923POPC   C2B16004  21.816  37.039   8.467
  923POPC   C3B16005  21.682  37.137   8.017
  923POPC   C4B16006  21.651  37.188   7.551
  924POPC   NC316007   3.786  34.709   9.461
  924POPC   PO416008   3.735  34.082   9.473
  924POPC   GL116009   3.658  34.342   9.104
  924POPC   GL216010   3.387  34.145   8.998
  924POPC   C1A16011   3.773  34.680   8.761
  924POPC   D2A16012   3.867  34.988   8.384
  924POPC   C3A16013   3.558  34.950   8.039
  924POPC   C4A16014   3.550  34.763   7.613
  924POPC   C1B16015   3.564  34.234   8.584
  924POPC   C2B16016   3.730  34.495   8.251
  924POPC   C3B16017   3.862  34.382   7.840
  924POPC   C4B16018   3.919  34.067   7.486
  925POPC   NC316019  22.187  32.347   9.639
  925POPC   PO416020  22.277  31.639   9.483
  925POPC   GL116021  22.223  32.012   9.189
  925POPC   GL216022  21.993  32.364   9.168
  925POPC   C1A16023  22.459  32.040   8.810
  925POPC   D2A16024  22.344  32.189   8.396
  925POPC   C3A16025  22.389  32.006   7.993
  925POPC   C4A16026  22.195  31.942   7.580
  925POPC   C1B16027  21.865  32.650   8.790
  925POPC   C2B16028  21.940  32.526   8.335
  925POPC   C3B16029  22.121  32.468   7.893
  925POPC   C4B16030  22.241  32.769   7.523
  926POPC   NC316031  27.279  44.946   9.820
  926POPC   PO416032  27.489  44.422   9.481
  926POPC   GL116033  27.618  44.692   9.128
  926POPC   GL216034  27.786  44.991   9.194
  926POPC   C1A16035  27.840  44.575   8.745
  926POPC   D2A16036  27.804  44.359   8.356
  926POPC   C3A16037  27.410  44.473   8.138
  926POPC   C4A16038  27.433  44.530   7.689
  926POPC   C1B16039  27.667   0.066   8.755
  926POPC   C2B16040  27.662  44.867   8.368
  926POPC   C3B16041  27.544  44.939   7.985
  926POPC   C4B16042  27.304   0.020   7.660
  927POPC   NC316043  30.741   2.336   9.471
  927POPC   PO416044  30.512   2.959   9.417
  927POPC   GL116045  30.572   2.645   9.075
  927POPC   GL216046  30.930   2.600   9.069
  927POPC   C1A16047  30.647   2.585   8.604
  927POPC   D2A16048  30.519   2.766   8.190
  927POPC   C3A16049  30.629   2.629   7.774
  927POPC   C4A16050  30.475   2.857   7.420
  927POPC   C1B16051  30.932   2.971   8.814
  927POPC   C2B16052  30.912   3.040   8.367
  927POPC   C3B16053  30.909   3.026   7.906
  927POPC   C4B16054  31.052   2.797   7.510
  928POPC   NC316055  15.856  18.760   9.577
  928POPC   PO416056  16.173  19.397   9.552
  928POPC   GL116057  15.897  19.247   9.203
  928POPC   GL216058  15.898  18.900   9.094
  928POPC   C1A16059  15.829  19.228   8.725
  928POPC   D2A16060  15.738  19.383   8.310
  928POPC   C3A16061  15.733  19.094   7.987
  928POPC   C4A16062  15.913  19.147   7.628
  928POPC   C1B16063  16.078  18.736   8.734
  928POPC   C2B16064  15.997  18.781   8.320
  928POPC   C3B16065  16.230  18.888   7.965
  928POPC   C4B16066  16.099  18.674   7.609
  929POPC   NC316067  19.446  23.533   9.321
  929POPC   PO416068  19.019  23.944   9.621
  929POPC   GL116069  19.026  23.817   9.201
  929POPC   GL216070  19.317  23.949   9.011
  929POPC   C1A16071  18.844  23.960   8.811
  929POPC   D2A16072  18.934  24.208   8.449
  929POPC   C3A16073  18.964  23.955   8.121
  929POPC   C4A16074  19.058  23.884   7.732
  929POPC   C1B16075  19.290  23.841   8.567
  929POPC   C2B16076  19.297  23.546   8.218
  929POPC   C3B16077  19.459  23.544   7.791
  929POPC   C4B16078  19.478  23.861   7.442
  930POPC   NC316079  17.975  28.138   9.547
  930POPC   PO416080  18.561  28.262   9.497
  930POPC   GL116081  18.338  28.320   9.142
  930POPC   GL216082  18.558  28.603   9.051
  930POPC   C1A16083  17.967  28.246   8.850
  930POPC   D2A16084  17.739  28.377   8.454
  930POPC   C3A16085  17.955  28.481   8.084
  930POPC   C4A16086  17.999  28.191   7.745
  930POPC   C1B16087  18.595  28.339   8.702
  930POPC   C2B16088  18.270  28.231   8.421
  930POPC   C3B16089  18.420  28.253   8.016
  930POPC   C4B16090  18.517  28.056   7.643
  931POPC   NC316091  19.466  23.781   9.818
  931POPC   PO416092  19.904  23.496   9.377
  931POPC   GL116093  19.817  23.776   9.079
  931POPC   GL216094  19.638  23.550   8.865
  931POPC   C1A16095  19.767  24.013   8.731
  931POPC   D2A16096  19.758  23.833   8.344
  931POPC   C3A16097  19.887  24.060   8.018
  931POPC   C4A16098  19.757  24.274   7.637
  931POPC   C1B16099  19.482  23.252   8.608
  931POPC   C2B16100  19.792  23.349   8.307
  931POPC   C3B16101  20.013  23.549   7.967
  931POPC   C4B16102  19.904  23.605   7.530
  932POPC   NC316103  42.562   1.659   9.496
  932POPC   PO416104  42.173   1.150   9.580
  932POPC   GL116105  42.410   1.169   9.216
  932POPC   GL216106  42.440   0.850   9.082
  932POPC   C1A16107  42.204   1.223   8.815
  932POPC   D2A16108  42.351   1.358   8.438
  932POPC   C3A16109  42.180   1.337   8.042
  932POPC   C4A16110  42.449   1.582   7.764
  932POPC   C1B16111  42.630   0.953   8.691
  932POPC   C2B16112  42.518   0.888   8.254
  932POPC   C3B16113  42.566   1.082   7.834
  932POPC   C4B16114  42.795   1.197   7.444
  933POPC   NC316115  34.267   8.846   9.523
  933POPC   PO416116  34.858   8.474   9.469
  933POPC   GL116117  34.808   8.693   9.088
  933POPC   GL216118  34.559   8.925   9.103
  933POPC   C1A16119  34.800   8.648   8.672
  933POPC   D2A16120  34.882   8.903   8.319
  933POPC   C3A16121  34.680   8.805   7.975
  933POPC   C4A16122  34.478   8.880   7.604
  933POPC   C1B16123  34.649   9.125   8.727
  933POPC   C2B16124  34.426   9.101   8.310
  933POPC   C3B16125  34.502   9.297   7.900
  933POPC   C4B16126  34.561   9.352   7.443
  934POPC   NC316127  31.870  34.655   9.554
  934POPC   PO416128  31.201  34.767   9.448
  934POPC   GL116129  31.419  34.571   9.112
  934POPC   GL216130  31.750  34.685   9.043
  934POPC   C1A16131  31.488  34.436   8.687
  934POPC   D2A16132  31.818  34.644   8.445
  934POPC   C3A16133  31.716  34.526   8.014
  934POPC   C4A16134  31.440  34.402   7.656
  934POPC   C1B16135  31.410  34.936   8.778
  934POPC   C2B16136  31.363  34.839   8.337
  934POPC   C3B16137  31.162  34.708   7.959
  934POPC   C4B16138  31.144  34.808   7.513
  935POPC   NC316139  33.806  37.419   9.503
  935POPC   PO416140  33.986  36.849   9.781
  935POPC   GL116141  33.901  36.879   9.336
  935POPC   GL216142  33.561  36.857   9.232
  935POPC   C1A16143  33.966  36.838   8.894
  935POPC   D2A16144  33.919  37.008   8.475
  935POPC   C3A16145  33.721  36.739   8.174
  935POPC   C4A16146  33.955  36.604   7.796
  935POPC   C1B16147  33.547  37.114   8.830
  935POPC   C2B16148  33.400  37.071   8.453
  935POPC   C3B16149  33.439  37.213   8.075
  935POPC   C4B16150  33.761  37.091   7.809
  936POPC   NC316151  24.775  33.665   9.398
  936POPC   PO416152  24.087  33.575   9.450
  936POPC   GL116153  24.361  33.785   9.071
  936POPC   GL216154  24.659  34.023   9.054
  936POPC   C1A16155  24.419  33.999   8.627
  936POPC   D2A16156  24.321  34.010   8.216
  936POPC   C3A16157  24.501  33.796   7.940
  936POPC   C4A16158  24.537  33.907   7.554
  936POPC   C1B16159  24.815  33.690   8.743
  936POPC   C2B16160  24.765  33.543   8.319
  936POPC   C3B16161  24.802  33.342   7.911
  936POPC   C4B16162  24.859  33.533   7.488
  937POPC   NC316163   2.422  38.543   9.612
  937POPC   PO416164   3.057  38.967   9.687
  937POPC   GL116165   2.836  38.722   9.320
  937POPC   GL216166   2.882  38.367   9.217
  937POPC   C1A16167   2.808  38.709   8.847
  937POPC   D2A16168   2.923  38.478   8.463
  937POPC   C3A16169   2.838  38.686   8.084
  937POPC   C4A16170   2.629  38.536   7.715
  937POPC   C1B16171   2.645  38.215   8.837
  937POPC   C2B16172   2.424  38.372   8.458
  937POPC   C3B16173   2.597  38.191   8.080
  937POPC   C4B16174   2.763  38.032   7.688
  938POPC   NC316175  10.289  25.049   9.425
  938POPC   PO416176  10.803  25.449   9.491
  938POPC   GL116177  10.638  25.246   9.131
  938POPC   GL216178  10.375  25.440   9.100
  938POPC   C1A16179  10.522  25.043   8.748
  938POPC   D2A16180  10.430  25.202   8.324
  938POPC   C3A16181  10.653  25.066   7.938
  938POPC   C4A16182  10.575  25.145   7.478
  938POPC   C1B16183  10.559  25.703   8.834
  938POPC   C2B16184  10.591  25.737   8.419
  938POPC   C3B16185  10.694  25.548   8.043
  938POPC   C4B16186  10.685  25.630   7.646
  939POPC   NC316187  22.268  34.679   9.559
  939POPC   PO416188  22.920  34.855   9.625
  939POPC   GL116189  22.733  34.656   9.290
  939POPC   GL216190  22.568  34.930   9.244
  939POPC   C1A16191  22.802  34.568   8.854
  939POPC   D2A16192  23.071  34.562   8.481
  939POPC   C3A16193  22.833  34.626   8.136
  939POPC   C4A16194  22.943  34.677   7.726
  939POPC   C1B16195  22.617  35.108   8.890
  939POPC   C2B16196  22.542  34.909   8.542
  939POPC   C3B16197  22.431  34.993   8.157
  939POPC   C4B16198  22.654  35.119   7.811
  940POPC   NC316199  25.686  13.676   9.640
  940POPC   PO416200  25.092  13.542   9.576
  940POPC   GL116201  25.295  13.788   9.268
  940POPC   GL216202  25.533  13.550   9.182
  940POPC   C1A16203  25.397  13.848   8.809
  940POPC   D2A16204  25.204  13.651   8.431
  940POPC   C3A16205  25.227  13.709   7.984
  940POPC   C4A16206  25.604  13.609   7.810
  940POPC   C1B16207  25.545  13.184   8.930
  940POPC   C2B16208  25.678  13.165   8.524
  940POPC   C3B16209  25.435  13.240   8.148
  940POPC   C4B16210  25.195  13.247   7.770
  941POPC   NC316211  30.028  22.897   9.330
  941POPC   PO416212  29.457  23.300   9.470
  941POPC   GL116213  29.632  23.148   9.087
  941POPC   GL216214  29.389  23.208   8.845
  941POPC   C1A16215  29.827  22.969   8.664
  941POPC   D2A16216  30.220  22.908   8.418
  941POPC   C3A16217  30.190  22.737   7.986
  941POPC   C4A16218  30.158  22.901   7.533
  941POPC   C1B16219  29.382  22.760   8.860
  941POPC   C2B16220  29.552  22.534   8.522
  941POPC   C3B16221  29.696  22.734   8.156
  941POPC   C4B16222  29.764  22.582   7.730
  942POPC   NC316223  19.143   9.400   9.598
  942POPC   PO416224  18.854  10.039   9.460
  942POPC   GL116225  19.077   9.778   9.182
  942POPC   GL216226  19.351   9.988   9.110
  942POPC   C1A16227  18.896   9.785   8.785
  942POPC   D2A16228  18.740  10.098   8.500
  942POPC   C3A16229  18.809   9.884   8.099
  942POPC   C4A16230  19.004   9.870   7.700
  942POPC   C1B16231  19.398   9.766   8.724
  942POPC   C2B16232  19.297   9.698   8.297
  942POPC   C3B16233  19.333   9.530   7.860
  942POPC   C4B16234  19.438   9.778   7.472
  943POPC   NC316235  38.757  44.885   9.518
  943POPC   PO416236  38.483  44.235   9.439
  943POPC   GL116237  38.418  44.581   9.166
  943POPC   GL216238  38.738  44.658   9.062
  943POPC   C1A16239  38.285  44.582   8.723
  943POPC   D2A16240  38.311  44.471   8.245
  943POPC   C3A16241  38.000  44.462   7.884
  943POPC   C4A16242  38.032  44.619   7.430
  943POPC   C1B16243  38.697  44.902   8.699
  943POPC   C2B16244  38.679  44.844   8.232
  943POPC   C3B16245  38.636  44.775   7.791
  943POPC   C4B16246  38.837  44.990   7.480
  944POPC   NC316247  22.889  19.518   9.436
  944POPC   PO416248  23.178  18.872   9.443
  944POPC   GL116249  23.122  19.105   9.078
  944POPC   GL216250  23.229  19.445   9.080
  944POPC   C1A16251  22.943  19.063   8.667
  944POPC   D2A16252  22.739  19.175   8.264
  944POPC   C3A16253  22.734  18.871   7.955
  944POPC   C4A16254  23.154  18.800   7.906
  944POPC   C1B16255  23.306  19.431   8.669
  944POPC   C2B16256  23.279  19.174   8.271
  944POPC   C3B16257  23.088  19.313   7.886
  944POPC   C4B16258  23.116  19.514   7.483
  945POPC   NC316259  16.828  10.053   9.974
  945POPC   PO416260  16.876   9.494   9.589
  945POPC   GL116261  16.900   9.488   9.166
  945POPC   GL216262  16.564   9.649   9.159
  945POPC   C1A16263  16.875   9.671   8.740
  945POPC   D2A16264  16.627   9.747   8.388
  945POPC   C3A16265  16.796   9.676   7.992
  945POPC   C4A16266  16.971   9.290   7.849
  945POPC   C1B16267  16.434   9.961   8.828
  945POPC   C2B16268  16.240  10.068   8.401
  945POPC   C3B16269  16.431  10.058   7.974
  945POPC   C4B16270  16.514   9.868   7.575
  946POPC   NC316271  39.899   3.019   9.367
  946POPC   PO416272  40.510   2.736   9.445
  946POPC   GL116273  40.312   2.871   9.089
  946POPC   GL216274  40.037   2.601   9.028
  946POPC   C1A16275  40.091   2.996   8.724
  946POPC   D2A16276  40.105   2.663   8.470
  946POPC   C3A16277  40.423   2.675   8.175
  946POPC   C4A16278  40.285   2.618   7.759
  946POPC   C1B16279  39.672   2.656   8.774
  946POPC   C2B16280  39.615   2.774   8.358
  946POPC   C3B16281  39.863   2.822   8.003
  946POPC   C4B16282  39.816   2.597   7.605
  947POPC   NC316283  37.863  36.384   9.422
  947POPC   PO416284  37.310  35.964   9.517
  947POPC   GL116285  37.538  36.098   9.157
  947POPC   GL216286  37.874  35.991   9.070
  947POPC   C1A16287  37.557  36.250   8.746
  947POPC   D2A16288  37.303  36.230   8.429
  947POPC   C3A16289  37.522  36.256   8.050
  947POPC   C4A16290  37.755  36.412   7.742
  947POPC   C1B16291  38.134  35.872   8.708
  947POPC   C2B16292  38.246  35.893   8.257
  947POPC   C3B16293  37.928  35.943   7.918
  947POPC   C4B16294  37.938  36.006   7.473
  948POPC   NC316295  42.820  28.157   9.394
  948POPC   PO416296  42.200  28.341   9.607
  948POPC   GL116297  42.237  28.246   9.178
  948POPC   GL216298  42.545  28.413   9.077
  948POPC   C1A16299  42.155  28.357   8.757
  948POPC   D2A16300  42.142  28.522   8.334
  948POPC   C3A16301  41.960  28.260   8.017
  948POPC   C4A16302  41.986  28.165   7.593
  948POPC   C1B16303  42.645  28.220   8.692
  948POPC   C2B16304  42.700  28.387   8.313
  948POPC   C3B16305  42.563  28.427   7.910
  948POPC   C4B16306  42.423  28.366   7.455
  949POPC   NC316307  21.104  33.542   9.445
  949POPC   PO416308  20.604  33.967   9.551
  949POPC   GL116309  20.652  33.821   9.160
  949POPC   GL216310  20.356  33.555   9.068
  949POPC   C1A16311  20.822  34.063   8.792
  949POPC   D2A16312  20.950  33.846   8.437
  949POPC   C3A16313  20.958  34.100   8.073
  949POPC   C4A16314  20.846  33.995   7.684
  949POPC   C1B16315  20.351  33.909   8.767
  949POPC   C2B16316  20.501  34.071   8.345
  949POPC   C3B16317  20.496  33.792   7.990
  949POPC   C4B16318  20.246  33.448   7.794
  950POPC   NC316319  25.335   8.503   9.551
  950POPC   PO416320  25.073   7.914   9.621
  950POPC   GL116321  25.242   8.139   9.207
  950POPC   GL216322  25.112   8.482   9.096
  950POPC   C1A16323  25.430   8.229   8.783
  950POPC   D2A16324  25.514   8.382   8.354
  950POPC   C3A16325  25.434   8.106   8.009
  950POPC   C4A16326  25.605   7.955   7.603
  950POPC   C1B16327  25.044   8.598   8.647
  950POPC   C2B16328  25.017   8.534   8.188
  950POPC   C3B16329  25.243   8.538   7.789
  950POPC   C4B16330  25.133   8.530   7.324
  951POPC   NC316331  35.057  16.040   9.546
  951POPC   PO416332  34.347  15.832   9.606
  951POPC   GL116333  34.549  16.124   9.324
  951POPC   GL216334  34.595  15.834   9.132
  951POPC   C1A16335  34.498  16.248   8.882
  951POPC   D2A16336  34.815  16.283   8.545
  951POPC   C3A16337  34.738  16.030   8.150
  951POPC   C4A16338  34.609  16.177   7.723
  951POPC   C1B16339  34.681  15.778   8.667
  951POPC   C2B16340  34.482  15.597   8.259
  951POPC   C3B16341  34.537  15.682   7.802
  951POPC   C4B16342  34.754  15.791   7.405
  952POPC   NC316343  38.119  25.266   9.650
  952POPC   PO416344  37.523  24.920   9.424
  952POPC   GL116345  37.640  25.260   9.090
  952POPC   GL216346  37.939  25.425   9.139
  952POPC   C1A16347  37.772  25.247   8.641
  952POPC   D2A16348  37.748  24.905   8.292
  952POPC   C3A16349  37.531  25.000   7.923
  952POPC   C4A16350  37.470  25.355   7.672
  952POPC   C1B16351  38.148  25.599   8.751
  952POPC   C2B16352  38.053  25.558   8.320
  952POPC   C3B16353  37.908  25.394   7.950
  952POPC   C4B16354  37.894  25.608   7.565
  953POPC   NC316355  10.226  23.629   9.652
  953POPC   PO416356  10.815  23.704   9.503
  953POPC   GL116357  10.525  23.738   9.179
  953POPC   GL216358  10.426  23.401   9.130
  953POPC   C1A16359  10.748  23.760   8.800
  953POPC   D2A16360  10.884  23.727   8.391
  953POPC   C3A16361  10.544  23.674   8.082
  953POPC   C4A16362  10.617  23.718   7.634
  953POPC   C1B16363  10.318  23.456   8.700
  953POPC   C2B16364  10.146  23.301   8.267
  953POPC   C3B16365  10.219  23.379   7.809
  953POPC   C4B16366  10.293  23.473   7.347
  954POPC   NC316367  39.101  19.251   9.474
  954POPC   PO416368  39.419  18.646   9.513
  954POPC   GL116369  39.422  18.958   9.179
  954POPC   GL216370  39.247  19.285   9.010
  954POPC   C1A16371  39.381  18.876   8.762
  954POPC   D2A16372  39.596  19.003   8.434
  954POPC   C3A16373  39.333  19.104   8.097
  954POPC   C4A16374  38.953  19.281   7.956
  954POPC   C1B16375  39.361  19.416   8.626
  954POPC   C2B16376  39.240  19.594   8.253
  954POPC   C3B16377  39.364  19.563   7.814
  954POPC   C4B16378  39.321  19.424   7.366
  955POPC   NC316379  21.585  32.949   9.909
  955POPC   PO416380  21.647  32.321   9.614
  955POPC   GL116381  21.461  32.304   9.170
  955POPC   GL216382  21.097  32.287   9.122
  955POPC   C1A16383  21.418  32.408   8.724
  955POPC   D2A16384  21.332  32.322   8.300
  955POPC   C3A16385  21.590  32.456   7.959
  955POPC   C4A16386  21.759  32.220   7.608
  955POPC   C1B16387  20.921  32.557   8.792
  955POPC   C2B16388  20.837  32.531   8.339
  955POPC   C3B16389  21.073  32.622   7.984
  955POPC   C4B16390  21.249  32.644   7.612
  956POPC   NC316391  43.525  32.671   9.376
  956POPC   PO416392  44.165  32.655   9.412
  956POPC   GL116393  43.929  32.725   9.023
  956POPC   GL216394  43.715  33.036   9.049
  956POPC   C1A16395  43.994  32.944   8.612
  956POPC   D2A16396  43.847  33.178   8.224
  956POPC   C3A16397  44.149  33.093   7.829
  956POPC   C4A16398  44.294  33.034   7.364
  956POPC   C1B16399  43.516  33.086   8.663
  956POPC   C2B16400  43.332  33.383   8.421
  956POPC   C3B16401  43.355  33.259   8.020
  956POPC   C4B16402  43.663  32.931   7.821
  957POPC   NC316403  31.262  40.744   9.385
  957POPC   PO416404  31.897  40.617   9.549
  957POPC   GL116405  31.719  40.747   9.087
  957POPC   GL216406  31.408  40.970   8.929
  957POPC   C1A16407  31.801  40.878   8.630
  957POPC   D2A16408  31.752  40.539   8.329
  957POPC   C3A16409  31.731  40.594   7.900
  957POPC   C4A16410  31.737  40.889   7.591
  957POPC   C1B16411  31.363  40.641   8.667
  957POPC   C2B16412  31.268  40.789   8.279
  957POPC   C3B16413  31.245  40.827   7.858
  957POPC   C4B16414  31.316  40.498   7.568
  958POPC   NC316415  30.735  44.936   9.763
  958POPC   PO416416  30.457  44.519   9.298
  958POPC   GL116417  30.468  44.663   8.929
  958POPC   GL216418  30.839  44.707   9.035
  958POPC   C1A16419  30.343  44.430   8.555
  958POPC   D2A16420  30.593  44.142   8.277
  958POPC   C3A16421  30.788  44.279   7.879
  958POPC   C4A16422  30.601  44.531   7.529
  958POPC   C1B16423  30.847  44.483   8.652
  958POPC   C2B16424  30.686  44.655   8.256
  958POPC   C3B16425  30.875  44.802   7.894
  958POPC   C4B16426  31.085  44.617   7.566
  959POPC   NC316427  41.371  35.042   9.454
  959POPC   PO416428  41.425  35.679   9.713
  959POPC   GL116429  41.642  35.450   9.293
  959POPC   GL216430  41.892  35.211   9.363
  959POPC   C1A16431  41.636  35.448   8.822
  959POPC   D2A16432  41.441  35.411   8.410
  959POPC   C3A16433  41.692  35.458   8.037
  959POPC   C4A16434  41.484  35.328   7.652
  959POPC   C1B16435  42.016  35.132   8.921
  959POPC   C2B16436  41.889  35.103   8.478
  959POPC   C3B16437  42.073  35.017   8.076
  959POPC   C4B16438  41.967  35.179   7.677
  960POPC   NC316439  13.224  40.909   9.682
  960POPC   PO416440  12.559  40.659   9.595
  960POPC   GL116441  12.754  40.859   9.249
  960POPC   GL216442  13.088  40.732   9.182
  960POPC   C1A16443  12.838  40.950   8.795
  960POPC   D2A16444  13.062  40.884   8.417
  960POPC   C3A16445  12.980  41.125   8.054
  960POPC   C4A16446  12.681  40.939   7.792
  960POPC   C1B16447  13.068  40.428   8.824
  960POPC   C2B16448  13.090  40.330   8.366
  960POPC   C3B16449  13.106  40.571   7.955
  960POPC   C4B16450  13.162  40.920   7.628
  961POPC   NC316451  41.109  39.204   9.606
  961POPC   PO416452  40.473  39.421   9.425
  961POPC   GL116453  40.726  39.175   9.170
  961POPC   GL216454  40.928  39.474   9.191
  961POPC   C1A16455  40.822  39.059   8.721
  961POPC   D2A16456  40.682  39.267   8.315
  961POPC   C3A16457  40.756  39.036   7.909
  961POPC   C4A16458  40.932  38.903   7.511
  961POPC   C1B16459  40.775  39.560   8.765
  961POPC   C2B16460  40.976  39.711   8.385
  961POPC   C3B16461  40.983  39.564   7.971
  961POPC   C4B16462  40.603  39.501   7.698
  962POPC   NC316463  12.546  26.407   9.574
  962POPC   PO416464  12.944  25.849   9.461
  962POPC   GL116465  12.961  26.123   9.152
  962POPC   GL216466  12.617  26.226   9.116
  962POPC   C1A16467  13.085  26.027   8.723
  962POPC   D2A16468  13.087  25.802   8.309
  962POPC   C3A16469  12.975  26.112   7.989
  962POPC   C4A16470  12.916  26.338   7.626
  962POPC   C1B16471  12.463  26.237   8.721
  962POPC   C2B16472  12.560  26.070   8.312
  962POPC   C3B16473  12.470  26.264   7.915
  962POPC   C4B16474  12.423  26.534   7.582
  963POPC   NC316475  34.740  42.660   9.707
  963POPC   PO416476  34.407  43.225   9.462
  963POPC   GL116477  34.733  43.180   9.130
  963POPC   GL216478  34.905  42.874   9.177
  963POPC   C1A16479  34.913  43.262   8.713
  963POPC   D2A16480  34.889  43.038   8.313
  963POPC   C3A16481  34.771  43.271   7.945
  963POPC   C4A16482  34.452  43.161   7.696
  963POPC   C1B16483  34.804  42.763   8.750
  963POPC   C2B16484  34.417  42.788   8.507
  963POPC   C3B16485  34.304  42.710   8.100
  963POPC   C4B16486  34.222  42.718   7.665
  964POPC   NC316487  32.065  27.598   9.465
  964POPC   PO416488  32.598  27.297   9.609
  964POPC   GL116489  32.487  27.450   9.192
  964POPC   GL216490  32.496  27.811   9.091
  964POPC   C1A16491  32.208  27.438   8.824
  964POPC   D2A16492  32.138  27.246   8.436
  964POPC   C3A16493  32.057  27.440   8.061
  964POPC   C4A16494  32.373  27.416   7.748
  964POPC   C1B16495  32.124  27.954   8.846
  964POPC   C2B16496  32.179  27.806   8.422
  964POPC   C3B16497  32.305  27.895   7.992
  964POPC   C4B16498  32.047  27.828   7.645
  965POPC   NC316499  14.589  21.721   9.273
  965POPC   PO416500  14.090  21.420   9.675
  965POPC   GL116501  14.099  21.469   9.195
  965POPC   GL216502  14.331  21.215   9.065
  965POPC   C1A16503  14.048  21.472   8.710
  965POPC   D2A16504  14.257  21.745   8.390
  965POPC   C3A16505  14.304  21.544   7.947
  965POPC   C4A16506  14.188  21.220   7.623
  965POPC   C1B16507  14.544  21.388   8.688
  965POPC   C2B16508  14.697  21.508   8.297
  965POPC   C3B16509  14.892  21.572   7.939
  965POPC   C4B16510  14.686  21.429   7.569
  966POPC   NC316511  33.599   8.602   9.568
  966POPC   PO416512  33.923   9.152   9.583
  966POPC   GL116513  33.732   8.951   9.204
  966POPC   GL216514  33.986   8.737   9.103
  966POPC   C1A16515  33.744   9.019   8.736
  966POPC   D2A16516  33.891   8.782   8.352
  966POPC   C3A16517  33.874   9.011   7.997
  966POPC   C4A16518  33.552   9.131   7.700
  966POPC   C1B16519  34.240   8.826   8.724
  966POPC   C2B16520  34.365   8.579   8.334
  966POPC   C3B16521  34.175   8.583   7.899
  966POPC   C4B16522  34.110   8.603   7.404
  967POPC   NC316523  31.220  27.064   9.469
  967POPC   PO416524  31.607  27.631   9.475
  967POPC   GL116525  31.449  27.521   9.100
  967POPC   GL216526  31.567  27.167   9.112
  967POPC   C1A16527  31.692  27.654   8.729
  967POPC   D2A16528  31.672  27.909   8.352
  967POPC   C3A16529  31.346  27.724   8.109
  967POPC   C4A16530  31.633  27.605   7.810
  967POPC   C1B16531  31.417  27.192   8.705
  967POPC   C2B16532  31.601  27.323   8.319
  967POPC   C3B16533  31.584  27.121   7.921
  967POPC   C4B16534  31.931  27.185   7.630
  968POPC   NC316535  27.523   3.483   9.584
  968POPC   PO416536  28.058   3.308   9.822
  968POPC   GL116537  27.932   3.512   9.304
  968POPC   GL216538  27.596   3.423   9.114
  968POPC   C1A16539  27.968   3.508   8.838
  968POPC   D2A16540  27.944   3.329   8.417
  968POPC   C3A16541  27.867   3.496   8.004
  968POPC   C4A16542  27.640   3.833   7.793
  968POPC   C1B16543  27.492   3.569   8.670
  968POPC   C2B16544  27.411   3.502   8.221
  968POPC   C3B16545  27.347   3.418   7.775
  968POPC   C4B16546  27.333   3.253   7.365
  969POPC   NC316547   2.154  15.878   9.790
  969POPC   PO416548   1.591  15.942   9.464
  969POPC   GL116549   1.911  16.091   9.215
  969POPC   GL216550   2.134  15.835   9.183
  969POPC   C1A16551   1.894  16.094   8.778
  969POPC   D2A16552   2.174  16.022   8.449
  969POPC   C3A16553   2.105  16.189   8.064
  969POPC   C4A16554   1.808  16.055   7.769
  969POPC   C1B16555   2.131  15.627   8.768
  969POPC   C2B16556   2.364  15.494   8.414
  969POPC   C3B16557   2.315  15.691   7.998
  969POPC   C4B16558   1.959  15.549   7.775
  970POPC   NC316559  39.408  28.931   9.454
  970POPC   PO416560  39.002  28.372   9.552
  970POPC   GL116561  39.091  28.593   9.196
  970POPC   GL216562  39.303  28.359   9.080
  970POPC   C1A16563  39.145  28.709   8.760
  970POPC   D2A16564  39.250  28.493   8.383
  970POPC   C3A16565  39.355  28.678   7.979
  970POPC   C4A16566  39.497  28.436   7.644
  970POPC   C1B16567  38.900  28.224   8.897
  970POPC   C2B16568  38.866  28.155   8.478
  970POPC   C3B16569  39.010  28.141   8.046
  970POPC   C4B16570  38.910  28.482   7.769
  971POPC   NC316571  44.523  23.937   9.470
  971POPC   PO416572   0.082  23.610   9.492
  971POPC   GL116573  44.791  23.614   9.121
  971POPC   GL216574  44.434  23.669   9.059
  971POPC   C1A16575  44.733  23.470   8.673
  971POPC   D2A16576  44.856  23.247   8.294
  971POPC   C3A16577  44.783  23.484   7.939
  971POPC   C4A16578  44.350  23.421   7.804
  971POPC   C1B16579  44.533  23.937   8.707
  971POPC   C2B16580  44.547  23.788   8.277
  971POPC   C3B16581  44.486  23.909   7.857
  971POPC   C4B16582  44.638  24.039   7.442
  972POPC   NC316583  10.520  16.964   9.522
  972POPC   PO416584  10.583  16.250   9.448
  972POPC   GL116585  10.477  16.568   9.185
  972POPC   GL216586  10.160  16.591   9.287
  972POPC   C1A16587  10.584  16.742   8.812
  972POPC   D2A16588  10.769  16.577   8.465
  972POPC   C3A16589  10.575  16.705   8.096
  972POPC   C4A16590  10.831  16.754   7.779
  972POPC   C1B16591  10.153  16.973   8.973
  972POPC   C2B16592  10.270  17.092   8.553
  972POPC   C3B16593  10.130  17.093   8.129
  972POPC   C4B16594  10.309  16.992   7.744
  973POPC   NC316595  42.019  23.645   9.449
  973POPC   PO416596  42.454  24.103   9.515
  973POPC   GL116597  42.322  23.897   9.138
  973POPC   GL216598  42.002  24.020   9.085
  973POPC   C1A16599  42.409  23.613   8.790
  973POPC   D2A16600  42.325  23.372   8.423
  973POPC   C3A16601  42.402  23.601   8.039
  973POPC   C4A16602  42.503  23.747   7.642
  973POPC   C1B16603  42.065  23.981   8.639
  973POPC   C2B16604  42.063  24.054   8.198
  973POPC   C3B16605  42.193  24.141   7.792
  973POPC   C4B16606  42.191  24.073   7.357
  974POPC   NC316607   1.384  34.986   9.439
  974POPC   PO416608   0.775  34.889   9.476
  974POPC   GL116609   1.049  34.782   9.084
  974POPC   GL216610   1.385  34.601   9.093
  974POPC   C1A16611   1.178  34.753   8.634
  974POPC   D2A16612   1.421  34.871   8.263
  974POPC   C3A16613   1.173  34.802   7.887
  974POPC   C4A16614   0.928  34.898   7.498
  974POPC   C1B16615   1.480  34.348   8.715
  974POPC   C2B16616   1.338  34.357   8.277
  974POPC   C3B16617   1.254  34.289   7.828
  974POPC   C4B16618   1.102  34.366   7.381
  975POPC   NC316619  14.033  15.046   9.572
  975POPC   PO416620  13.497  15.413   9.824
  975POPC   GL116621  13.383  15.299   9.319
  975POPC   GL216622  13.359  14.894   9.205
  975POPC   C1A16623  13.495  15.298   8.887
  975POPC   D2A16624  13.759  15.195   8.550
  975POPC   C3A16625  13.548  15.308   8.177
  975POPC   C4A16626  13.474  15.321   7.719
  975POPC   C1B16627  13.704  14.821   8.911
  975POPC   C2B16628  13.874  14.694   8.500
  975POPC   C3B16629  13.656  14.812   8.118
  975POPC   C4B16630  13.794  14.905   7.700
  976POPC   NC316631  36.511  42.396   9.400
  976POPC   PO416632  37.142  42.074   9.447
  976POPC   GL116633  36.876  42.190   9.098
  976POPC   GL216634  36.815  42.528   9.037
  976POPC   C1A16635  36.948  42.201   8.646
  976POPC   D2A16636  37.143  42.124   8.228
  976POPC   C3A16637  36.839  42.194   7.885
  976POPC   C4A16638  36.616  42.555   7.691
  976POPC   C1B16639  36.675  42.662   8.655
  976POPC   C2B16640  36.807  42.555   8.251
  976POPC   C3B16641  37.028  42.713   7.913
  976POPC   C4B16642  37.143  42.721   7.462
  977POPC   NC316643  38.365  40.647   9.655
  977POPC   PO416644  38.314  41.274   9.539
  977POPC   GL116645  38.562  40.960   9.315
  977POPC   GL216646  38.265  40.777   9.173
  977POPC   C1A16647  38.715  40.718   8.950
  977POPC   D2A16648  38.551  40.817   8.538
  977POPC   C3A16649  38.622  40.699   8.107
  977POPC   C4A16650  38.474  40.868   7.708
  977POPC   C1B16651  38.091  40.807   8.746
  977POPC   C2B16652  38.125  40.657   8.281
  977POPC   C3B16653  38.070  40.611   7.815
  977POPC   C4B16654  38.060  40.912   7.408
  978POPC   NC316655  30.907  39.648   9.515
  978POPC   PO416656  30.677  40.297   9.597
  978POPC   GL116657  30.796  40.077   9.218
  978POPC   GL216658  30.673  40.413   9.086
  978POPC   C1A16659  30.652  39.971   8.783
  978POPC   D2A16660  30.454  39.731   8.448
  978POPC   C3A16661  30.631  39.847   8.023
  978POPC   C4A16662  30.585  39.874   7.552
  978POPC   C1B16663  30.489  40.452   8.683
  978POPC   C2B16664  30.409  40.243   8.318
  978POPC   C3B16665  30.212  40.143   7.926
  978POPC   C4B16666  30.419  40.348   7.583
  979POPC   NC316667  13.948  17.168  10.066
  979POPC   PO416668  14.198  16.786   9.561
  979POPC   GL116669  14.431  16.853   9.155
  979POPC   GL216670  14.302  17.139   9.050
  979POPC   C1A16671  14.650  16.666   8.794
  979POPC   D2A16672  14.590  16.336   8.541
  979POPC   C3A16673  14.582  16.421   8.104
  979POPC   C4A16674  14.362  16.603   7.745
  979POPC   C1B16675  14.265  16.961   8.637
  979POPC   C2B16676  14.369  16.879   8.201
  979POPC   C3B16677  14.428  17.099   7.806
  979POPC   C4B16678  14.533  17.074   7.381
  980POPC   NC316679  10.964  32.562   9.578
  980POPC   PO416680  11.071  33.176   9.424
  980POPC   GL116681  11.008  32.947   9.072
  980POPC   GL216682  10.816  32.613   9.090
  980POPC   C1A16683  11.069  33.164   8.671
  980POPC   D2A16684  11.388  33.338   8.403
  980POPC   C3A16685  11.401  33.227   7.947
  980POPC   C4A16686  11.413  33.243   7.488
  980POPC   C1B16687  11.000  32.653   8.670
  980POPC   C2B16688  11.166  32.835   8.286
  980POPC   C3B16689  11.520  32.721   8.094
  980POPC   C4B16690  11.505  32.707   7.699
  981POPC   NC316691  38.038  18.726   9.324
  981POPC   PO416692  37.420  18.912   9.470
  981POPC   GL116693  37.526  18.951   9.081
  981POPC   GL216694  37.603  18.611   9.078
  981POPC   C1A16695  37.636  19.209   8.708
  981POPC   D2A16696  37.415  19.287   8.321
  981POPC   C3A16697  37.666  19.261   7.961
  981POPC   C4A16698  38.111  19.367   8.046
  981POPC   C1B16699  37.831  18.735   8.703
  981POPC   C2B16700  37.814  18.912   8.291
  981POPC   C3B16701  37.703  18.763   7.883
  981POPC   C4B16702  37.614  18.633   7.457
  982POPC   NC316703  37.205  25.252   9.353
  982POPC   PO416704  36.530  25.172   9.401
  982POPC   GL116705  36.620  25.315   9.014
  982POPC   GL216706  36.889  25.560   9.070
  982POPC   C1A16707  36.964  25.181   8.725
  982POPC   D2A16708  37.309  25.230   8.408
  982POPC   C3A16709  37.096  25.248   8.028
  982POPC   C4A16710  36.689  25.093   7.908
  982POPC   C1B16711  37.159  25.663   8.680
  982POPC   C2B16712  37.238  25.749   8.212
  982POPC   C3B16713  37.077  25.663   7.747
  982POPC   C4B16714  37.137  25.482   7.295
  983POPC   NC316715  25.900   0.780   9.405
  983POPC   PO416716  26.357   1.217   9.827
  983POPC   GL116717  26.309   1.257   9.324
  983POPC   GL216718  25.971   1.317   9.255
  983POPC   C1A16719  26.216   1.056   8.879
  983POPC   D2A16720  26.155   0.892   8.439
  983POPC   C3A16721  26.271   1.115   8.048
  983POPC   C4A16722  26.300   1.359   7.644
  983POPC   C1B16723  25.846   1.400   8.809
  983POPC   C2B16724  25.666   1.572   8.440
  983POPC   C3B16725  25.868   1.696   8.075
  983POPC   C4B16726  25.803   1.555   7.683
  984POPC   NC316727  14.029  25.056   9.463
  984POPC   PO416728  13.567  25.537   9.521
  984POPC   GL116729  13.743  25.362   9.147
  984POPC   GL216730  13.625  25.020   9.076
  984POPC   C1A16731  13.821  25.428   8.714
  984POPC   D2A16732  13.717  25.641   8.336
  984POPC   C3A16733  13.885  25.385   8.013
  984POPC   C4A16734  14.116  25.436   7.671
  984POPC   C1B16735  13.549  24.852   8.641
  984POPC   C2B16736  13.645  24.948   8.190
  984POPC   C3B16737  13.560  25.034   7.746
  984POPC   C4B16738  13.088  25.111   7.712
  985POPC   NC316739   2.510  13.079   9.341
  985POPC   PO416740   3.114  13.328   9.563
  985POPC   GL116741   3.004  13.512   9.125
  985POPC   GL216742   2.617  13.538   9.058
  985POPC   C1A16743   2.994  13.640   8.674
  985POPC   D2A16744   2.617  13.563   8.425
  985POPC   C3A16745   2.567  13.423   8.005
  985POPC   C4A16746   2.790  13.423   7.655
  985POPC   C1B16747   2.510  13.911   8.783
  985POPC   C2B16748   2.422  14.010   8.325
  985POPC   C3B16749   2.636  13.928   7.939
  985POPC   C4B16750   2.637  14.209   7.635
  986POPC   NC316751  21.858  33.970   9.338
  986POPC   PO416752  22.317  33.466   9.364
  986POPC   GL116753  22.389  33.846   9.097
  986POPC   GL216754  22.113  33.935   8.919
  986POPC   C1A16755  22.522  33.972   8.666
  986POPC   D2A16756  22.312  34.062   8.269
  986POPC   C3A16757  22.464  33.841   7.925
  986POPC   C4A16758  22.321  33.633   7.592
  986POPC   C1B16759  22.083  33.557   8.734
  986POPC   C2B16760  21.886  33.546   8.346
  986POPC   C3B16761  21.954  33.815   7.978
  986POPC   C4B16762  21.727  33.830   7.593
  987POPC   NC316763  29.328  40.028   9.496
  987POPC   PO416764  28.657  40.224   9.423
  987POPC   GL116765  28.992  40.262   9.118
  987POPC   GL216766  29.151  39.941   9.019
  987POPC   C1A16767  29.127  40.310   8.674
  987POPC   D2A16768  29.040  40.029   8.326
  987POPC   C3A16769  29.197  40.007   7.882
  987POPC   C4A16770  29.351  40.362   7.603
  987POPC   C1B16771  29.375  39.638   8.755
  987POPC   C2B16772  29.575  39.547   8.376
  987POPC   C3B16773  29.422  39.506   7.978
  987POPC   C4B16774  29.430  39.608   7.574
  988POPC   NC316775  17.254   5.888   9.491
  988POPC   PO416776  17.856   6.010   9.427
  988POPC   GL116777  17.583   5.992   9.069
  988POPC   GL216778  17.315   6.205   9.054
  988POPC   C1A16779  17.664   5.866   8.626
  988POPC   D2A16780  17.459   5.899   8.223
  988POPC   C3A16781  17.655   5.641   7.899
  988POPC   C4A16782  18.024   5.723   7.597
  988POPC   C1B16783  17.180   5.989   8.683
  988POPC   C2B16784  17.226   6.336   8.412
  988POPC   C3B16785  17.304   6.355   8.015
  988POPC   C4B16786  17.198   5.980   7.770
  989POPC   NC316787  24.491  14.888   9.455
  989POPC   PO416788  24.567  14.190   9.493
  989POPC   GL116789  24.648  14.414   9.085
  989POPC   GL216790  24.791  14.743   9.080
  989POPC   C1A16791  24.649  14.526   8.647
  989POPC   D2A16792  24.555  14.277   8.303
  989POPC   C3A16793  24.263  14.511   8.057
  989POPC   C4A16794  24.180  14.581   7.634
  989POPC   C1B16795  24.834  15.023   8.731
  989POPC   C2B16796  24.748  14.939   8.331
  989POPC   C3B16797  24.756  14.643   8.017
  989POPC   C4B16798  24.686  14.596   7.573
  990POPC   NC316799  38.563  36.359   9.595
  990POPC   PO416800  38.062  35.930   9.528
  990POPC   GL116801  38.391  35.920   9.199
  990POPC   GL216802  38.355  36.282   9.121
  990POPC   C1A16803  38.647  35.978   8.808
  990POPC   D2A16804  38.690  36.291   8.462
  990POPC   C3A16805  38.737  36.143   8.010
  990POPC   C4A16806  38.400  36.000   7.734
  990POPC   C1B16807  38.057  36.380   8.784
  990POPC   C2B16808  37.947  36.294   8.356
  990POPC   C3B16809  38.199  36.389   7.984
  990POPC   C4B16810  38.190  36.443   7.501
  991POPC   NC316811  27.854  28.193   9.596
  991POPC   PO416812  27.270  28.610   9.642
  991POPC   GL116813  27.550  28.585   9.289
  991POPC   GL216814  27.605  28.247   9.159
  991POPC   C1A16815  27.706  28.620   8.850
  991POPC   D2A16816  27.614  28.474   8.449
  991POPC   C3A16817  27.617  28.739   8.112
  991POPC   C4A16818  27.476  28.856   7.709
  991POPC   C1B16819  27.885  28.147   8.806
  991POPC   C2B16820  27.827  28.017   8.350
  991POPC   C3B16821  27.702  28.233   7.977
  991POPC   C4B16822  27.806  28.179   7.562
  992POPC   NC316823  20.088  23.077   9.473
  992POPC   PO416824  19.373  23.067   9.353
  992POPC   GL116825  19.734  23.074   9.105
  992POPC   GL216826  19.898  22.712   9.094
  992POPC   C1A16827  19.966  23.090   8.741
  992POPC   D2A16828  19.845  22.866   8.375
  992POPC   C3A16829  20.056  23.022   8.026
  992POPC   C4A16830  20.309  22.807   7.805
  992POPC   C1B16831  19.536  22.729   8.758
  992POPC   C2B16832  19.347  22.822   8.340
  992POPC   C3B16833  19.530  23.061   7.982
  992POPC   C4B16834  19.809  23.078   7.589
  993POPC   NC316835  23.636  11.609   9.379
  993POPC   PO416836  23.952  11.038   9.439
  993POPC   GL116837  23.953  11.296   9.090
  993POPC   GL216838  24.090  11.665   9.135
  993POPC   C1A16839  23.978  11.110   8.686
  993POPC   D2A16840  23.725  11.003   8.351
  993POPC   C3A16841  23.790  11.312   8.045
  993POPC   C4A16842  23.450  11.352   7.825
  993POPC   C1B16843  23.949  11.620   8.706
  993POPC   C2B16844  24.154  11.551   8.335
  993POPC   C3B16845  24.040  11.823   8.012
  993POPC   C4B16846  23.779  11.711   7.691
  994POPC   NC316847  24.757  42.389   9.399
  994POPC   PO416848  24.235  42.023   9.295
  994POPC   GL116849  24.517  42.193   8.989
  994POPC   GL216850  24.456  42.590   8.993
  994POPC   C1A16851  24.590  42.280   8.566
  994POPC   D2A16852  24.548  42.664   8.345
  994POPC   C3A16853  24.710  42.567   7.960
  994POPC   C4A16854  24.503  42.297   7.669
  994POPC   C1B16855  24.086  42.365   8.765
  994POPC   C2B16856  24.136  41.971   8.518
  994POPC   C3B16857  24.245  42.138   8.097
  994POPC   C4B16858  24.180  42.578   7.930
  995POPC   NC316859   3.146   7.843   9.221
  995POPC   PO416860   3.651   8.230   9.463
  995POPC   GL116861   3.666   8.342   9.054
  995POPC   GL216862   3.291   8.278   9.007
  995POPC   C1A16863   3.572   8.516   8.660
  995POPC   D2A16864   3.310   8.426   8.310
  995POPC   C3A16865   3.558   8.588   7.983
  995POPC   C4A16866   3.850   8.351   7.832
  995POPC   C1B16867   3.051   8.108   8.642
  995POPC   C2B16868   3.200   7.880   8.289
  995POPC   C3B16869   3.293   8.061   7.904
  995POPC   C4B16870   3.105   8.461   7.816
  996POPC   NC316871  18.111  29.566   9.225
  996POPC   PO416872  18.658  29.748   9.445
  996POPC   GL116873  18.681  29.956   9.072
  996POPC   GL216874  18.648  30.312   9.112
  996POPC   C1A16875  18.522  29.727   8.710
  996POPC   D2A16876  18.164  29.599   8.451
  996POPC   C3A16877  18.174  29.669   8.008
  996POPC   C4A16878  18.522  29.566   7.759
  996POPC   C1B16879  18.390  30.220   8.719
  996POPC   C2B16880  18.421  30.039   8.285
  996POPC   C3B16881  18.482  30.066   7.823
  996POPC   C4B16882  18.237  30.347   7.525
  997POPC   NC316883   5.623  12.785   9.651
  997POPC   PO416884   6.239  12.707   9.684
  997POPC   GL116885   5.956  12.625   9.269
  997POPC   GL216886   5.588  12.618   9.165
  997POPC   C1A16887   5.905  12.840   8.825
  997POPC   D2A16888   6.068  12.747   8.465
  997POPC   C3A16889   6.158  13.040   8.155
  997POPC   C4A16890   6.143  12.958   7.719
  997POPC   C1B16891   5.572  12.504   8.686
  997POPC   C2B16892   5.600  12.746   8.276
  997POPC   C3B16893   5.700  12.688   7.829
  997POPC   C4B16894   5.693  12.461   7.394
  998POPC   NC316895  24.625  26.286   9.460
  998POPC   PO416896  24.158  25.933   9.671
  998POPC   GL116897  24.270  26.083   9.214
  998POPC   GL216898  24.528  25.822   9.250
  998POPC   C1A16899  24.204  26.243   8.805
  998POPC   D2A16900  24.256  26.594   8.485
  998POPC   C3A16901  24.443  26.433   8.085
  998POPC   C4A16902  24.360  26.242   7.720
  998POPC   C1B16903  24.553  25.817   8.820
  998POPC   C2B16904  24.539  26.069   8.455
  998POPC   C3B16905  24.568  25.916   8.053
  998POPC   C4B16906  24.426  25.723   7.685
  999POPC   NC316907  38.932  42.756   9.543
  999POPC   PO416908  38.976  43.479   9.558
  999POPC   GL116909  39.212  43.313   9.184
  999POPC   GL216910  39.179  42.968   9.119
  999POPC   C1A16911  39.395  43.222   8.772
  999POPC   D2A16912  39.292  43.350   8.418
  999POPC   C3A16913  39.411  43.131   8.089
  999POPC   C4A16914  39.373  43.246   7.706
  999POPC   C1B16915  38.922  42.779   8.836
  999POPC   C2B16916  39.077  42.865   8.436
  999POPC   C3B16917  39.064  42.722   8.025
  999POPC   C4B16918  39.363  42.742   7.709
 1000POPC   NC316919  19.398   3.803   9.822
 1000POPC   PO416920  18.867   3.463   9.553
 1000POPC   GL116921  19.054   3.753   9.266
 1000POPC   GL216922  19.240   3.487   9.193
 1000POPC   C1A16923  18.987   3.871   8.825
 1000POPC   D2A16924  18.752   3.676   8.490
 1000POPC   C3A16925  18.924   3.664   8.106
 1000POPC   C4A16926  18.797   3.523   7.732
 1000POPC   C1B16927  19.036   3.372   8.817
 1000POPC   C2B16928  19.248   3.523   8.491
 1000POPC   C3B16929  19.484   3.491   8.148
 1000POPC   C4B16930  19.309   3.502   7.758
 1001POPC   NC316931  39.835  27.281   9.361
 1001POPC   PO416932  40.115  26.613   9.480
 1001POPC   GL116933  39.931  26.808   9.148
 1001POPC   GL216934  39.606  26.787   9.184
 1001POPC   C1A16935  39.995  26.987   8.772
 1001POPC   D2A16936  40.175  26.824   8.432
 1001POPC   C3A16937  40.234  27.065   8.104
 1001POPC   C4A16938  40.093  26.911   7.736
 1001POPC   C1B16939  39.486  26.905   8.766
 1001POPC   C2B16940  39.648  26.751   8.387
 1001POPC   C3B16941  39.632  26.885   7.973
 1001POPC   C4B16942  39.604  26.815   7.536
 1002POPC   NC316943   1.905  39.056   9.562
 1002POPC   PO416944   2.268  39.561   9.842
 1002POPC   GL116945   2.253  39.483   9.365
 1002POPC   GL216946   1.897  39.464   9.262
 1002POPC   C1A16947   2.230  39.395   8.880
 1002POPC   D2A16948   2.309  39.485   8.419
 1002POPC   C3A16949   2.125  39.226   8.052
 1002POPC   C4A16950   2.297  39.240   7.619
 1002POPC   C1B16951   1.577  39.439   8.919
 1002POPC   C2B16952   1.515  39.485   8.486
 1002POPC   C3B16953   1.733  39.575   8.099
 1002POPC   C4B16954   1.705  39.442   7.698
 1003POPC   NC316955  14.468   1.657   9.637
 1003POPC   PO416956  14.363   2.257   9.818
 1003POPC   GL116957  14.425   2.100   9.338
 1003POPC   GL216958  14.260   1.832   9.223
 1003POPC   C1A16959  14.253   2.095   8.826
 1003POPC   D2A16960  14.267   1.953   8.452
 1003POPC   C3A16961  14.504   2.247   8.228
 1003POPC   C4A16962  14.516   2.292   7.798
 1003POPC   C1B16963  14.694   1.886   8.973
 1003POPC   C2B16964  14.755   1.840   8.521
 1003POPC   C3B16965  14.584   1.759   8.099
 1003POPC   C4B16966  14.803   1.669   7.737
 1004POPC   NC316967  14.020  43.208   9.472
 1004POPC   PO416968  13.373  42.923   9.556
 1004POPC   GL116969  13.572  42.861   9.206
 1004POPC   GL216970  13.298  42.609   9.138
 1004POPC   C1A16971  13.711  43.156   8.869
 1004POPC   D2A16972  13.556  43.278   8.457
 1004POPC   C3A16973  13.750  43.229   8.061
 1004POPC   C4A16974  13.833  43.540   7.733
 1004POPC   C1B16975  13.377  42.784   8.749
 1004POPC   C2B16976  13.141  43.005   8.508
 1004POPC   C3B16977  13.224  43.072   8.119
 1004POPC   C4B16978  13.454  42.889   7.817
 1005POPC   NC316979   8.126  21.447   9.720
 1005POPC   PO416980   8.575  20.985   9.628
 1005POPC   GL116981   8.418  21.274   9.254
 1005POPC   GL216982   8.077  21.443   9.210
 1005POPC   C1A16983   8.450  21.239   8.778
 1005POPC   D2A16984   8.633  21.223   8.344
 1005POPC   C3A16985   8.385  21.113   7.998
 1005POPC   C4A16986   8.558  21.267   7.642
 1005POPC   C1B16987   8.110  21.626   8.785
 1005POPC   C2B16988   8.134  21.438   8.355
 1005POPC   C3B16989   8.133  21.579   7.924
 1005POPC   C4B16990   7.840  21.660   7.568
 1006POPC   NC316991  18.598  31.820   9.663
 1006POPC   PO416992  18.212  31.321   9.581
 1006POPC   GL116993  18.483  31.502   9.253
 1006POPC   GL216994  18.543  31.204   9.066
 1006POPC   C1A16995  18.646  31.664   8.827
 1006POPC   D2A16996  18.726  31.477   8.369
 1006POPC   C3A16997  18.463  31.370   7.970
 1006POPC   C4A16998  18.340  31.609   7.561
 1006POPC   C1B16999  18.278  31.351   8.677
 1006POPC   C2B17000  18.094  31.543   8.272
 1006POPC   C3B17001  17.955  31.416   7.836
 1006POPC   C4B17002  17.881  31.468   7.377
 1007POPC   NC317003  23.603  44.779   9.437
 1007POPC   PO417004  23.911  44.193   9.606
 1007POPC   GL117005  23.954  44.476   9.202
 1007POPC   GL217006  24.061  44.838   9.170
 1007POPC   C1A17007  23.713  44.595   8.813
 1007POPC   D2A17008  23.448  44.530   8.446
 1007POPC   C3A17009  23.490  44.852   8.138
 1007POPC   C4A17010  23.463  44.751   7.741
 1007POPC   C1B17011  24.169  44.787   8.730
 1007POPC   C2B17012  23.951  44.858   8.363
 1007POPC   C3B17013  23.958  44.686   7.964
 1007POPC   C4B17014  24.177  44.699   7.568
 1008POPC   NC317015  38.320  29.159   9.741
 1008POPC   PO417016  37.679  29.080   9.640
 1008POPC   GL117017  37.674  28.844   9.250
 1008POPC   GL217018  37.654  29.177   9.134
 1008POPC   C1A17019  37.494  28.786   8.834
 1008POPC   D2A17020  37.402  29.025   8.457
 1008POPC   C3A17021  37.427  28.791   8.083
 1008POPC   C4A17022  37.656  28.868   7.790
 1008POPC   C1B17023  37.692  29.319   8.762
 1008POPC   C2B17024  37.912  29.180   8.406
 1008POPC   C3B17025  37.926  29.254   7.980
 1008POPC   C4B17026  38.220  29.480   7.733
 1009POPC   NC317027  24.925  27.715   9.781
 1009POPC   PO417028  25.379  27.788   9.324
 1009POPC   GL117029  25.478  27.680   8.974
 1009POPC   GL217030  25.735  27.428   9.119
 1009POPC   C1A17031  25.188  27.810   8.647
 1009POPC   D2A17032  24.908  27.998   8.358
 1009POPC   C3A17033  25.196  27.849   8.050
 1009POPC   C4A17034  25.284  27.512   7.720
 1009POPC   C1B17035  25.794  27.442   8.676
 1009POPC   C2B17036  25.519  27.499   8.342
 1009POPC   C3B17037  25.718  27.501   7.977
 1009POPC   C4B17038  25.757  27.361   7.594
 1010POPC   NC317039   9.639  23.551   9.311
 1010POPC   PO417040   9.934  24.022   9.644
 1010POPC   GL117041   9.906  23.987   9.208
 1010POPC   GL217042   9.540  24.030   9.182
 1010POPC   C1A17043   9.904  23.792   8.784
 1010POPC   D2A17044  10.105  23.788   8.386
 1010POPC   C3A17045   9.904  23.732   8.028
 1010POPC   C4A17046  10.155  23.888   7.742
 1010POPC   C1B17047   9.494  24.122   8.781
 1010POPC   C2B17048   9.637  23.993   8.398
 1010POPC   C3B17049   9.611  24.145   7.997
 1010POPC   C4B17050   9.549  23.963   7.651
 1011POPC   NC317051   9.423  19.661   9.628
 1011POPC   PO417052  10.010  20.093   9.490
 1011POPC   GL117053   9.867  19.884   9.179
 1011POPC   GL217054   9.543  19.986   9.229
 1011POPC   C1A17055  10.000  19.854   8.800
 1011POPC   D2A17056   9.761  19.779   8.495
 1011POPC   C3A17057   9.936  19.793   8.112
 1011POPC   C4A17058   9.691  20.097   7.859
 1011POPC   C1B17059   9.457  19.665   8.917
 1011POPC   C2B17060   9.309  19.534   8.507
 1011POPC   C3B17061   9.467  19.612   8.093
 1011POPC   C4B17062   9.499  19.665   7.656
 1012POPC   NC317063  11.742  14.678   9.478
 1012POPC   PO417064  12.354  14.308   9.407
 1012POPC   GL117065  12.182  14.327   9.022
 1012POPC   GL217066  11.829  14.338   9.095
 1012POPC   C1A17067  12.310  14.612   8.651
 1012POPC   D2A17068  12.199  14.862   8.304
 1012POPC   C3A17069  12.137  14.631   7.928
 1012POPC   C4A17070  12.330  14.229   7.842
 1012POPC   C1B17071  11.828  14.460   8.689
 1012POPC   C2B17072  11.981  14.321   8.311
 1012POPC   C3B17073  11.754  14.301   7.935
 1012POPC   C4B17074  11.925  14.257   7.545
 1013POPC   NC317075   6.253  18.839   9.336
 1013POPC   PO417076   5.789  19.296   9.563
 1013POPC   GL117077   5.912  19.191   9.140
 1013POPC   GL217078   5.905  18.838   8.968
 1013POPC   C1A17079   6.141  19.233   8.753
 1013POPC   D2A17080   6.061  18.883   8.465
 1013POPC   C3A17081   5.873  19.092   8.123
 1013POPC   C4A17082   6.018  19.263   7.713
 1013POPC   C1B17083   5.635  19.139   8.680
 1013POPC   C2B17084   5.377  19.257   8.288
 1013POPC   C3B17085   5.417  19.104   7.861
 1013POPC   C4B17086   5.749  18.823   7.715
 1014POPC   NC317087  35.155  26.495   9.665
 1014POPC   PO417088  35.331  27.130   9.776
 1014POPC   GL117089  35.222  26.875   9.309
 1014POPC   GL217090  35.426  27.082   9.070
 1014POPC   C1A17091  35.049  26.854   8.850
 1014POPC   D2A17092  35.174  26.921   8.445
 1014POPC   C3A17093  35.009  26.752   8.067
 1014POPC   C4A17094  35.016  27.040   7.708
 1014POPC   C1B17095  35.535  26.717   8.769
 1014POPC   C2B17096  35.496  26.552   8.301
 1014POPC   C3B17097  35.656  26.591   7.859
 1014POPC   C4B17098  35.431  26.728   7.424
 1015POPC   NC317099  28.891   6.295   9.442
 1015POPC   PO417100  29.232   6.850   9.301
 1015POPC   GL117101  28.957   6.641   9.068
 1015POPC   GL217102  29.213   6.385   9.040
 1015POPC   C1A17103  28.838   6.822   8.700
 1015POPC   D2A17104  29.117   6.939   8.388
 1015POPC   C3A17105  28.939   6.838   8.041
 1015POPC   C4A17106  28.960   6.656   7.664
 1015POPC   C1B17107  29.369   6.642   8.717
 1015POPC   C2B17108  29.510   6.562   8.326
 1015POPC   C3B17109  29.443   6.704   7.939
 1015POPC   C4B17110  29.420   6.429   7.579
 1016POPC   NC317111   8.422  18.038   9.550
 1016POPC   PO417112   9.077  18.366   9.519
 1016POPC   GL117113   8.970  18.490   9.135
 1016POPC   GL217114   8.655  18.357   9.180
 1016POPC   C1A17115   8.961  18.243   8.762
 1016POPC   D2A17116   8.859  17.962   8.411
 1016POPC   C3A17117   8.969  18.153   8.045
 1016POPC   C4A17118   9.103  18.023   7.643
 1016POPC   C1B17119   8.476  18.543   8.843
 1016POPC   C2B17120   8.597  18.394   8.452
 1016POPC   C3B17121   8.526  18.415   8.041
 1016POPC   C4B17122   8.776  18.435   7.657
 1017POPC   NC317123   6.864  30.758   9.776
 1017POPC   PO417124   6.248  30.754   9.692
 1017POPC   GL117125   6.585  30.755   9.332
 1017POPC   GL217126   6.753  30.452   9.380
 1017POPC   C1A17127   6.641  30.890   8.874
 1017POPC   D2A17128   6.410  30.773   8.492
 1017POPC   C3A17129   6.378  30.903   8.069
 1017POPC   C4A17130   6.451  30.692   7.703
 1017POPC   C1B17131   6.917  30.438   8.993
 1017POPC   C2B17132   6.879  30.527   8.569
 1017POPC   C3B17133   6.825  30.629   8.154
 1017POPC   C4B17134   7.031  30.412   7.843
 1018POPC   NC317135  10.335  11.556   9.431
 1018POPC   PO417136   9.783  11.259   9.501
 1018POPC   GL117137   9.721  11.461   9.103
 1018POPC   GL217138   9.946  11.732   9.110
 1018POPC   C1A17139   9.477  11.320   8.714
 1018POPC   D2A17140   9.353  11.229   8.291
 1018POPC   C3A17141   9.750  11.258   8.047
 1018POPC   C4A17142   9.933  10.954   7.739
 1018POPC   C1B17143   9.933  11.617   8.675
 1018POPC   C2B17144  10.189  11.487   8.365
 1018POPC   C3B17145  10.129  11.695   8.008
 1018POPC   C4B17146  10.053  11.829   7.582
 1019POPC   NC317147  41.648   3.017   9.516
 1019POPC   PO417148  41.398   2.379   9.733
 1019POPC   GL117149  41.400   2.606   9.312
 1019POPC   GL217150  41.723   2.543   9.205
 1019POPC   C1A17151  41.438   2.894   8.906
 1019POPC   D2A17152  41.578   3.093   8.511
 1019POPC   C3A17153  41.383   2.986   8.130
 1019POPC   C4A17154  41.223   2.937   7.728
 1019POPC   C1B17155  41.573   2.421   8.775
 1019POPC   C2B17156  41.628   2.588   8.345
 1019POPC   C3B17157  41.526   2.553   7.877
 1019POPC   C4B17158  41.680   2.397   7.475
 1020POPC   NC317159  36.718  20.891   9.527
 1020POPC   PO417160  37.291  20.597   9.504
 1020POPC   GL117161  36.977  20.565   9.212
 1020POPC   GL217162  36.957  20.896   9.049
 1020POPC   C1A17163  36.660  20.421   8.911
 1020POPC   D2A17164  36.586  20.684   8.564
 1020POPC   C3A17165  36.822  20.713   8.168
 1020POPC   C4A17166  36.795  20.680   7.731
 1020POPC   C1B17167  37.094  20.598   8.720
 1020POPC   C2B17168  37.153  20.382   8.365
 1020POPC   C3B17169  37.281  20.504   7.988
 1020POPC   C4B17170  37.229  20.414   7.571
 1021POPC   NC317171  33.170  23.106   9.763
 1021POPC   PO417172  32.679  22.592   9.747
 1021POPC   GL117173  32.915  22.621   9.352
 1021POPC   GL217174  32.922  22.986   9.237
 1021POPC   C1A17175  32.830  22.606   8.902
 1021POPC   D2A17176  32.930  22.852   8.560
 1021POPC   C3A17177  32.836  22.832   8.150
 1021POPC   C4A17178  33.107  22.977   7.827
 1021POPC   C1B17179  32.643  23.143   8.874
 1021POPC   C2B17180  32.647  23.258   8.401
 1021POPC   C3B17181  32.743  23.358   7.944
 1021POPC   C4B17182  32.561  23.384   7.502
 1022POPC   NC317183   7.601   5.792   9.435
 1022POPC   PO417184   7.274   6.361   9.490
 1022POPC   GL117185   7.396   6.128   9.107
 1022POPC   GL217186   7.280   5.757   9.041
 1022POPC   C1A17187   7.673   6.075   8.744
 1022POPC   D2A17188   7.420   5.958   8.377
 1022POPC   C3A17189   7.291   6.188   7.999
 1022POPC   C4A17190   6.975   5.973   7.728
 1022POPC   C1B17191   7.549   5.562   8.728
 1022POPC   C2B17192   7.524   5.467   8.291
 1022POPC   C3B17193   7.560   5.753   7.918
 1022POPC   C4B17194   7.740   5.642   7.510
 1023POPC   NC317195  19.251  24.402   9.437
 1023POPC   PO417196  18.773  24.857   9.438
 1023POPC   GL117197  18.906  24.802   9.012
 1023POPC   GL217198  19.280  24.801   8.961
 1023POPC   C1A17199  18.952  24.704   8.567
 1023POPC   D2A17200  19.195  24.607   8.255
 1023POPC   C3A17201  18.955  24.464   7.956
 1023POPC   C4A17202  18.899  24.678   7.594
 1023POPC   C1B17203  19.351  24.404   8.744
 1023POPC   C2B17204  19.556  24.287   8.369
 1023POPC   C3B17205  19.395  24.175   7.981
 1023POPC   C4B17206  19.257  24.321   7.564
 1024POPC   NC317207  32.191  31.758   9.590
 1024POPC   PO417208  31.767  31.297   9.617
 1024POPC   GL117209  32.074  31.406   9.226
 1024POPC   GL217210  32.199  31.746   9.093
 1024POPC   C1A17211  32.156  31.375   8.759
 1024POPC   D2A17212  31.925  31.395   8.376
 1024POPC   C3A17213  32.089  31.577   8.032
 1024POPC   C4A17214  32.356  31.439   7.740
 1024POPC   C1B17215  32.405  31.854   8.740
 1024POPC   C2B17216  32.509  31.735   8.354
 1024POPC   C3B17217  32.675  31.990   8.039
 1024POPC   C4B17218  32.410  32.026   7.673
 1025POPC   NC317219  43.344  27.308   9.465
 1025POPC   PO417220  43.105  27.921   9.671
 1025POPC   GL117221  43.029  27.708   9.257
 1025POPC   GL217222  43.134  27.408   9.030
 1025POPC   C1A17223  43.046  27.867   8.838
 1025POPC   D2A17224  43.243  27.830   8.455
 1025POPC   C3A17225  43.171  27.507   8.160
 1025POPC   C4A17226  43.267  27.515   7.716
 1025POPC   C1B17227  42.949  27.394   8.636
 1025POPC   C2B17228  42.727  27.747   8.452
 1025POPC   C3B17229  42.869  27.961   8.098
 1025POPC   C4B17230  42.788  27.635   7.835
 1026POPC   NC317231  31.937  17.824   9.416
 1026POPC   PO417232  32.358  17.261   9.487
 1026POPC   GL117233  32.117  17.401   9.169
 1026POPC   GL217234  32.331  17.675   9.110
 1026POPC   C1A17235  32.121  17.356   8.720
 1026POPC   D2A17236  32.001  17.325   8.289
 1026POPC   C3A17237  32.286  17.560   8.050
 1026POPC   C4A17238  32.504  17.565   7.683
 1026POPC   C1B17239  32.065  17.855   8.797
 1026POPC   C2B17240  32.009  17.845   8.386
 1026POPC   C3B17241  31.999  18.039   8.013
 1026POPC   C4B17242  32.211  17.963   7.664
 1027POPC   NC317243  35.765  29.893   9.430
 1027POPC   PO417244  36.339  29.572   9.340
 1027POPC   GL117245  36.157  29.890   9.042
 1027POPC   GL217246  35.803  30.006   8.953
 1027POPC   C1A17247  36.159  30.033   8.596
 1027POPC   D2A17248  36.371  30.209   8.227
 1027POPC   C3A17249  36.188  30.074   7.841
 1027POPC   C4A17250  36.379  30.062   7.406
 1027POPC   C1B17251  35.583  30.037   8.563
 1027POPC   C2B17252  35.742  29.805   8.220
 1027POPC   C3B17253  35.925  29.607   7.879
 1027POPC   C4B17254  35.898  29.496   7.443
 1028POPC   NC317255  30.226  21.319   9.484
 1028POPC   PO417256  29.675  21.522   9.179
 1028POPC   GL117257  29.870  21.216   9.019
 1028POPC   GL217258  29.561  21.033   8.980
 1028POPC   C1A17259  30.120  21.293   8.657
 1028POPC   D2A17260  30.008  21.711   8.491
 1028POPC   C3A17261  30.207  21.871   8.140
 1028POPC   C4A17262  30.123  21.650   7.763
 1028POPC   C1B17263  29.603  21.191   8.570
 1028POPC   C2B17264  29.826  21.267   8.205
 1028POPC   C3B17265  29.822  21.257   7.775
 1028POPC   C4B17266  29.705  21.270   7.318
 1029POPC   NC317267  11.606   0.432   9.513
 1029POPC   PO417268  11.028   0.143   9.549
 1029POPC   GL117269  11.205   0.459   9.205
 1029POPC   GL217270  11.470   0.295   9.034
 1029POPC   C1A17271  11.121   0.672   8.803
 1029POPC   D2A17272  10.898   0.786   8.440
 1029POPC   C3A17273  11.136   0.781   8.065
 1029POPC   C4A17274  11.134   0.615   7.623
 1029POPC   C1B17275  11.425   0.336   8.586
 1029POPC   C2B17276  11.432   0.346   8.145
 1029POPC   C3B17277  11.394   0.146   7.738
 1029POPC   C4B17278  11.709  44.969   7.425
 1030POPC   NC317279   7.809  20.025   9.215
 1030POPC   PO417280   7.538  19.434   9.502
 1030POPC   GL117281   7.466  19.632   9.083
 1030POPC   GL217282   7.337  19.969   9.001
 1030POPC   C1A17283   7.567  19.734   8.637
 1030POPC   D2A17284   7.439  19.819   8.240
 1030POPC   C3A17285   7.780  19.763   7.933
 1030POPC   C4A17286   7.719  19.807   7.480
 1030POPC   C1B17287   7.388  20.259   8.648
 1030POPC   C2B17288   7.439  20.345   8.201
 1030POPC   C3B17289   7.415  20.090   7.805
 1030POPC   C4B17290   7.233  19.956   7.431
 1031POPC   NC317291  30.674  18.998   9.485
 1031POPC   PO417292  30.254  19.363   9.169
 1031POPC   GL117293  30.536  19.033   9.010
 1031POPC   GL217294  30.903  19.134   9.030
 1031POPC   C1A17295  30.756  18.799   8.697
 1031POPC   D2A17296  30.655  18.819   8.289
 1031POPC   C3A17297  30.908  18.872   7.948
 1031POPC   C4A17298  30.763  18.877   7.497
 1031POPC   C1B17299  30.692  19.337   8.636
 1031POPC   C2B17300  30.348  19.223   8.318
 1031POPC   C3B17301  30.473  19.118   7.884
 1031POPC   C4B17302  30.858  19.333   7.723
 1032POPC   NC317303  16.506   9.205   9.553
 1032POPC   PO417304  17.014   8.773   9.556
 1032POPC   GL117305  16.791   8.939   9.206
 1032POPC   GL217306  16.405   8.905   9.150
 1032POPC   C1A17307  16.744   8.777   8.780
 1032POPC   D2A17308  16.914   9.049   8.482
 1032POPC   C3A17309  16.779   8.875   8.104
 1032POPC   C4A17310  16.814   8.631   7.751
 1032POPC   C1B17311  16.575   9.236   8.852
 1032POPC   C2B17312  16.441   9.252   8.427
 1032POPC   C3B17313  16.274   9.045   8.058
 1032POPC   C4B17314  16.472   9.014   7.676
 1033POPC   NC317315  23.475  19.224   9.490
 1033POPC   PO417316  23.872  18.761   9.450
 1033POPC   GL117317  23.639  18.967   9.094
 1033POPC   GL217318  23.722  19.354   9.056
 1033POPC   C1A17319  23.561  19.003   8.663
 1033POPC   D2A17320  23.780  18.974   8.284
 1033POPC   C3A17321  23.632  18.975   7.883
 1033POPC   C4A17322  23.576  19.367   7.682
 1033POPC   C1B17323  24.032  19.173   8.801
 1033POPC   C2B17324  24.191  19.248   8.389
 1033POPC   C3B17325  24.129  19.184   7.969
 1033POPC   C4B17326  24.144  18.927   7.622
 1034POPC   NC317327  42.332  22.716   9.703
 1034POPC   PO417328  41.895  23.225   9.624
 1034POPC   GL117329  42.069  23.036   9.209
 1034POPC   GL217330  42.395  22.820   9.186
 1034POPC   C1A17331  42.174  22.955   8.737
 1034POPC   D2A17332  42.207  22.882   8.286
 1034POPC   C3A17333  42.102  23.192   7.981
 1034POPC   C4A17334  42.168  23.205   7.555
 1034POPC   C1B17335  42.692  22.864   8.805
 1034POPC   C2B17336  42.734  23.009   8.344
 1034POPC   C3B17337  42.574  22.972   7.891
 1034POPC   C4B17338  42.708  22.688   7.510
 1035POPC   NC317339  10.976  14.711   9.388
 1035POPC   PO417340  11.544  14.190   9.504
 1035POPC   GL117341  11.315  14.373   9.131
 1035POPC   GL217342  11.045  14.150   9.189
 1035POPC   C1A17343  11.349  14.625   8.670
 1035POPC   D2A17344  11.662  14.801   8.337
 1035POPC   C3A17345  11.570  14.751   7.935
 1035POPC   C4A17346  11.271  14.454   7.793
 1035POPC   C1B17347  11.035  14.235   8.734
 1035POPC   C2B17348  11.035  14.389   8.304
 1035POPC   C3B17349  10.930  14.137   7.984
 1035POPC   C4B17350  10.736  14.183   7.621
 1036POPC   NC317351  16.621   5.842   9.584
 1036POPC   PO417352  17.156   6.338   9.516
 1036POPC   GL117353  16.846   6.107   9.223
 1036POPC   GL217354  16.965   5.779   9.110
 1036POPC   C1A17355  16.526   5.931   8.928
 1036POPC   D2A17356  16.547   5.828   8.504
 1036POPC   C3A17357  16.878   5.944   8.210
 1036POPC   C4A17358  16.507   6.051   7.939
 1036POPC   C1B17359  16.894   5.546   8.763
 1036POPC   C2B17360  16.800   5.366   8.387
 1036POPC   C3B17361  16.594   5.543   8.073
 1036POPC   C4B17362  16.773   5.712   7.700
 1037POPC   NC317363  30.711  36.692   9.494
 1037POPC   PO417364  30.817  37.436   9.520
 1037POPC   GL117365  30.784  37.095   9.149
 1037POPC   GL217366  30.736  36.739   8.993
 1037POPC   C1A17367  30.504  37.103   8.764
 1037POPC   D2A17368  30.584  36.861   8.395
 1037POPC   C3A17369  30.659  37.019   7.994
 1037POPC   C4A17370  30.834  36.993   7.593
 1037POPC   C1B17371  30.332  36.624   8.815
 1037POPC   C2B17372  30.288  36.462   8.430
 1037POPC   C3B17373  30.562  36.418   8.110
 1037POPC   C4B17374  30.592  36.576   7.721
 1038POPC   NC317375   1.172  36.923   9.617
 1038POPC   PO417376   1.761  36.927   9.676
 1038POPC   GL117377   1.505  36.940   9.237
 1038POPC   GL217378   1.139  36.727   9.164
 1038POPC   C1A17379   1.254  37.077   8.837
 1038POPC   D2A17380   1.393  37.128   8.406
 1038POPC   C3A17381   1.231  37.124   8.016
 1038POPC   C4A17382   1.390  37.096   7.584
 1038POPC   C1B17383   1.441  36.581   8.881
 1038POPC   C2B17384   1.434  36.588   8.467
 1038POPC   C3B17385   1.489  36.631   8.053
 1038POPC   C4B17386   1.359  36.584   7.630
 1039POPC   NC317387  25.872  33.131   9.553
 1039POPC   PO417388  26.448  33.273   9.369
 1039POPC   GL117389  26.179  33.112   9.093
 1039POPC   GL217390  25.827  33.256   9.063
 1039POPC   C1A17391  26.163  33.217   8.674
 1039POPC   D2A17392  26.100  33.005   8.329
 1039POPC   C3A17393  26.056  33.216   7.976
 1039POPC   C4A17394  26.102  33.056   7.565
 1039POPC   C1B17395  25.796  32.873   8.805
 1039POPC   C2B17396  25.737  32.675   8.388
 1039POPC   C3B17397  25.817  32.768   7.960
 1039POPC   C4B17398  25.886  32.573   7.598
 1040POPC   NC317399  24.304  41.442   9.443
 1040POPC   PO417400  25.002  41.617   9.463
 1040POPC   GL117401  24.745  41.395   9.127
 1040POPC   GL217402  24.482  41.658   9.015
 1040POPC   C1A17403  24.591  41.297   8.683
 1040POPC   D2A17404  24.494  41.609   8.368
 1040POPC   C3A17405  24.317  41.421   8.009
 1040POPC   C4A17406  24.415  41.534   7.621
 1040POPC   C1B17407  24.850  41.764   8.775
 1040POPC   C2B17408  24.931  41.926   8.373
 1040POPC   C3B17409  24.726  41.975   8.025
 1040POPC   C4B17410  24.839  41.780   7.691
 1041POPC   NC317411  10.637   6.628   9.513
 1041POPC   PO417412  10.249   6.199   9.199
 1041POPC   GL117413  10.290   6.621   9.114
 1041POPC   GL217414  10.640   6.535   9.026
 1041POPC   C1A17415  10.297   6.669   8.688
 1041POPC   D2A17416  10.400   6.354   8.427
 1041POPC   C3A17417  10.433   6.593   8.080
 1041POPC   C4A17418  10.298   6.865   7.775
 1041POPC   C1B17419  10.737   6.914   8.825
 1041POPC   C2B17420  10.712   7.110   8.414
 1041POPC   C3B17421  10.754   6.999   8.015
 1041POPC   C4B17422  10.964   6.934   7.650
 1042POPC   NC317423  43.724  40.391   9.426
 1042POPC   PO417424  44.371  40.108   9.543
 1042POPC   GL117425  44.080  40.084   9.166
 1042POPC   GL217426  43.725  39.970   9.148
 1042POPC   C1A17427  43.990  40.171   8.718
 1042POPC   D2A17428  44.255  40.148   8.334
 1042POPC   C3A17429  44.081  39.946   7.968
 1042POPC   C4A17430  44.034  40.195   7.623
 1042POPC   C1B17431  43.720  39.701   8.797
 1042POPC   C2B17432  43.763  39.764   8.358
 1042POPC   C3B17433  43.582  39.673   7.965
 1042POPC   C4B17434  43.706  39.792   7.579
 1043POPC   NC317435  25.655  24.125   9.240
 1043POPC   PO417436  25.094  24.514   9.455
 1043POPC   GL117437  25.008  24.561   9.063
 1043POPC   GL217438  25.328  24.698   8.982
 1043POPC   C1A17439  25.136  24.258   8.807
 1043POPC   D2A17440  25.398  24.281   8.476
 1043POPC   C3A17441  25.203  24.311   8.075
 1043POPC   C4A17442  25.102  24.694   7.887
 1043POPC   C1B17443  25.113  24.711   8.556
 1043POPC   C2B17444  25.434  24.780   8.259
 1043POPC   C3B17445  25.616  24.783   7.853
 1043POPC   C4B17446  25.706  24.775   7.398
 1044POPC   NC317447  32.269  22.742   9.557
 1044POPC   PO417448  31.674  22.728   9.450
 1044POPC   GL117449  32.026  22.569   9.159
 1044POPC   GL217450  32.200  22.897   9.036
 1044POPC   C1A17451  32.253  22.491   8.757
 1044POPC   D2A17452  32.265  22.727   8.360
 1044POPC   C3A17453  32.407  22.611   7.941
 1044POPC   C4A17454  32.619  22.905   7.670
 1044POPC   C1B17455  32.170  23.178   8.636
 1044POPC   C2B17456  32.194  23.235   8.156
 1044POPC   C3B17457  31.983  23.130   7.747
 1044POPC   C4B17458  32.202  23.037   7.360
 1045POPC   NC317459  30.714   0.749   9.510
 1045POPC   PO417460  31.242   0.888   9.233
 1045POPC   GL117461  30.804   0.913   9.023
 1045POPC   GL217462  30.676   1.270   9.054
 1045POPC   C1A17463  30.651   1.003   8.590
 1045POPC   D2A17464  30.732   0.958   8.157
 1045POPC   C3A17465  30.798   1.251   7.821
 1045POPC   C4A17466  30.622   1.180   7.382
 1045POPC   C1B17467  30.420   1.450   8.692
 1045POPC   C2B17468  30.496   1.421   8.235
 1045POPC   C3B17469  30.302   1.304   7.838
 1045POPC   C4B17470  30.267   1.524   7.450
 1046POPC   NC317471  31.255  26.065   9.437
 1046POPC   PO417472  30.742  25.846   9.799
 1046POPC   GL117473  30.784  25.977   9.301
 1046POPC   GL217474  30.856  26.323   9.158
 1046POPC   C1A17475  30.932  25.931   8.853
 1046POPC   D2A17476  30.907  25.878   8.410
 1046POPC   C3A17477  30.616  25.642   8.179
 1046POPC   C4A17478  30.536  25.929   7.859
 1046POPC   C1B17479  30.538  26.303   8.795
 1046POPC   C2B17480  30.461  26.163   8.362
 1046POPC   C3B17481  30.445  26.400   7.978
 1046POPC   C4B17482  30.520  26.364   7.527
 1047POPC   NC317483  14.719  27.419   9.520
 1047POPC   PO417484  14.055  27.229   9.440
 1047POPC   GL117485  14.256  27.260   9.030
 1047POPC   GL217486  14.613  27.375   9.041
 1047POPC   C1A17487  14.402  27.335   8.599
 1047POPC   D2A17488  14.625  27.214   8.273
 1047POPC   C3A17489  14.446  27.408   7.942
 1047POPC   C4A17490  14.539  27.625   7.608
 1047POPC   C1B17491  14.791  27.660   8.711
 1047POPC   C2B17492  14.583  27.739   8.303
 1047POPC   C3B17493  14.380  27.955   7.965
 1047POPC   C4B17494  14.497  28.317   7.705
 1048POPC   NC317495  27.003   2.739   9.419
 1048POPC   PO417496  26.387   2.776   9.478
 1048POPC   GL117497  26.584   2.803   9.102
 1048POPC   GL217498  26.862   3.010   9.018
 1048POPC   C1A17499  26.725   2.644   8.717
 1048POPC   D2A17500  26.604   3.001   8.477
 1048POPC   C3A17501  26.507   2.927   8.049
 1048POPC   C4A17502  26.635   2.589   7.802
 1048POPC   C1B17503  27.178   2.877   8.748
 1048POPC   C2B17504  27.246   2.592   8.440
 1048POPC   C3B17505  27.053   2.704   8.071
 1048POPC   C4B17506  27.064   2.942   7.705
 1049POPC   NC317507  42.442  31.397   9.527
 1049POPC   PO417508  42.179  32.027   9.544
 1049POPC   GL117509  42.233  31.714   9.171
 1049POPC   GL217510  42.482  31.430   9.029
 1049POPC   C1A17511  42.250  31.798   8.734
 1049POPC   D2A17512  42.289  31.573   8.324
 1049POPC   C3A17513  42.219  31.815   7.973
 1049POPC   C4A17514  42.466  31.627   7.671
 1049POPC   C1B17515  42.150  31.294   8.722
 1049POPC   C2B17516  41.895  31.246   8.307
 1049POPC   C3B17517  42.004  31.160   7.824
 1049POPC   C4B17518  41.902  30.932   7.391
 1050POPC   NC317519  33.508   7.961   9.442
 1050POPC   PO417520  34.014   8.399   9.556
 1050POPC   GL117521  33.878   8.234   9.182
 1050POPC   GL217522  33.582   8.381   9.122
 1050POPC   C1A17523  33.761   7.999   8.803
 1050POPC   D2A17524  33.587   8.136   8.407
 1050POPC   C3A17525  33.762   8.277   8.056
 1050POPC   C4A17526  33.585   7.978   7.754
 1050POPC   C1B17527  33.670   8.517   8.743
 1050POPC   C2B17528  33.404   8.620   8.403
 1050POPC   C3B17529  33.436   8.734   8.010
 1050POPC   C4B17530  33.690   8.629   7.678
 1051POPC   NC317531  24.859  37.632   9.473
 1051POPC   PO417532  24.273  37.972   9.598
 1051POPC   GL117533  24.476  37.825   9.231
 1051POPC   GL217534  24.361  37.537   9.102
 1051POPC   C1A17535  24.497  37.948   8.792
 1051POPC   D2A17536  24.584  38.135   8.374
 1051POPC   C3A17537  24.628  37.819   8.063
 1051POPC   C4A17538  24.488  37.812   7.667
 1051POPC   C1B17539  24.095  37.612   8.759
 1051POPC   C2B17540  24.222  37.632   8.346
 1051POPC   C3B17541  24.265  37.406   7.971
 1051POPC   C4B17542  24.042  37.570   7.665
 1052POPC   NC317543  32.895  25.255   9.662
 1052POPC   PO417544  32.225  25.124   9.475
 1052POPC   GL117545  32.217  25.208   9.085
 1052POPC   GL217546  32.069  24.848   9.069
 1052POPC   C1A17547  32.062  25.411   8.692
 1052POPC   D2A17548  32.029  25.148   8.250
 1052POPC   C3A17549  31.945  25.337   7.865
 1052POPC   C4A17550  31.635  25.381   7.548
 1052POPC   C1B17551  32.147  24.921   8.692
 1052POPC   C2B17552  32.461  25.176   8.479
 1052POPC   C3B17553  32.506  25.075   8.048
 1052POPC   C4B17554  32.456  25.421   7.802
 1053POPC   NC317555   4.134  12.283   9.537
 1053POPC   PO417556   4.768  12.074   9.525
 1053POPC   GL117557   4.459  12.027   9.229
 1053POPC   GL217558   4.394  12.355   9.095
 1053POPC   C1A17559   4.467  11.932   8.810
 1053POPC   D2A17560   4.677  12.071   8.463
 1053POPC   C3A17561   4.431  12.105   8.088
 1053POPC   C4A17562   4.096  11.890   7.820
 1053POPC   C1B17563   4.014  12.133   8.905
 1053POPC   C2B17564   4.044  11.980   8.488
 1053POPC   C3B17565   3.953  12.244   8.165
 1053POPC   C4B17566   4.105  12.396   7.781
 1054POPC   NC317567  28.169  34.605   9.498
 1054POPC   PO417568  28.847  34.461   9.448
 1054POPC   GL117569  28.565  34.634   9.136
 1054POPC   GL217570  28.235  34.488   9.018
 1054POPC   C1A17571  28.616  34.637   8.698
 1054POPC   D2A17572  28.325  34.642   8.362
 1054POPC   C3A17573  28.491  34.775   7.959
 1054POPC   C4A17574  28.418  34.586   7.567
 1054POPC   C1B17575  28.210  34.928   8.822
 1054POPC   C2B17576  28.117  35.126   8.445
 1054POPC   C3B17577  28.012  34.951   8.051
 1054POPC   C4B17578  27.891  34.627   7.759
 1055POPC   NC317579  12.439   6.345   9.383
 1055POPC   PO417580  11.802   6.772   9.485
 1055POPC   GL117581  11.815   6.797   9.082
 1055POPC   GL217582  11.893   6.420   9.098
 1055POPC   C1A17583  12.077   6.742   8.737
 1055POPC   D2A17584  12.004   6.460   8.393
 1055POPC   C3A17585  12.101   6.752   8.097
 1055POPC   C4A17586  12.273   6.943   7.744
 1055POPC   C1B17587  12.219   6.259   8.807
 1055POPC   C2B17588  12.517   6.489   8.539
 1055POPC   C3B17589  12.452   6.371   8.114
 1055POPC   C4B17590  12.222   6.428   7.732
 1056POPC   NC317591  23.422  37.393   9.327
 1056POPC   PO417592  23.713  36.845   9.445
 1056POPC   GL117593  23.870  36.924   9.091
 1056POPC   GL217594  23.917  37.275   9.149
 1056POPC   C1A17595  23.796  36.741   8.708
 1056POPC   D2A17596  23.564  36.832   8.370
 1056POPC   C3A17597  23.779  36.649   8.080
 1056POPC   C4A17598  23.670  36.744   7.711
 1056POPC   C1B17599  23.726  37.255   8.740
 1056POPC   C2B17600  23.915  37.207   8.329
 1056POPC   C3B17601  23.751  37.193   7.935
 1056POPC   C4B17602  23.720  37.225   7.486
 1057POPC   NC317603  28.865  16.818   9.507
 1057POPC   PO417604  29.399  16.373   9.410
 1057POPC   GL117605  29.064  16.472   9.141
 1057POPC   GL217606  29.208  16.798   9.115
 1057POPC   C1A17607  28.932  16.571   8.693
 1057POPC   D2A17608  28.784  16.663   8.234
 1057POPC   C3A17609  29.095  16.766   7.947
 1057POPC   C4A17610  29.134  16.995   7.595
 1057POPC   C1B17611  29.176  17.037   8.746
 1057POPC   C2B17612  29.031  17.096   8.331
 1057POPC   C3B17613  29.341  17.215   8.015
 1057POPC   C4B17614  29.470  17.366   7.609
 1058POPC   NC317615  11.895   9.691   9.551
 1058POPC   PO417616  12.233  10.180   9.343
 1058POPC   GL117617  12.094   9.971   9.109
 1058POPC   GL217618  11.756  10.088   9.120
 1058POPC   C1A17619  12.264   9.849   8.723
 1058POPC   D2A17620  12.144   9.601   8.407
 1058POPC   C3A17621  12.320   9.756   8.048
 1058POPC   C4A17622  12.188   9.677   7.673
 1058POPC   C1B17623  11.779   9.737   8.828
 1058POPC   C2B17624  11.665   9.714   8.456
 1058POPC   C3B17625  11.761   9.593   8.054
 1058POPC   C4B17626  11.668   9.723   7.670
 1059POPC   NC317627  33.386  34.660   9.461
 1059POPC   PO417628  32.718  34.626   9.292
 1059POPC   GL117629  33.010  34.324   9.074
 1059POPC   GL217630  33.397  34.338   9.050
 1059POPC   C1A17631  33.071  34.305   8.610
 1059POPC   D2A17632  33.220  34.502   8.228
 1059POPC   C3A17633  33.010  34.457   7.836
 1059POPC   C4A17634  32.892  34.689   7.471
 1059POPC   C1B17635  33.252  34.733   8.800
 1059POPC   C2B17636  33.249  34.990   8.397
 1059POPC   C3B17637  33.061  34.949   7.968
 1059POPC   C4B17638  33.115  35.127   7.546
 1060POPC   NC317639   1.030  13.126   9.360
 1060POPC   PO417640   1.493  12.592   9.469
 1060POPC   GL117641   1.453  12.783   9.058
 1060POPC   GL217642   1.614  13.060   8.912
 1060POPC   C1A17643   1.453  12.673   8.614
 1060POPC   D2A17644   1.407  12.854   8.196
 1060POPC   C3A17645   1.034  12.795   7.924
 1060POPC   C4A17646   0.940  12.612   7.471
 1060POPC   C1B17647   1.239  13.130   8.661
 1060POPC   C2B17648   1.091  13.292   8.257
 1060POPC   C3B17649   1.286  13.238   7.854
 1060POPC   C4B17650   1.325  12.935   7.507
 1061POPC   NC317651  39.896   8.757   9.412
 1061POPC   PO417652  40.099   9.384   9.356
 1061POPC   GL117653  40.026   9.072   9.037
 1061POPC   GL217654  40.212   8.717   9.023
 1061POPC   C1A17655  39.975   8.955   8.608
 1061POPC   D2A17656  40.221   8.774   8.287
 1061POPC   C3A17657  40.130   8.983   7.876
 1061POPC   C4A17658  39.751   9.229   7.756
 1061POPC   C1B17659  39.996   8.443   8.708
 1061POPC   C2B17660  39.688   8.559   8.385
 1061POPC   C3B17661  39.805   8.608   7.971
 1061POPC   C4B17662  40.225   8.486   7.860
 1062POPC   NC317663  36.515  30.756   9.533
 1062POPC   PO417664  36.993  30.312   9.501
 1062POPC   GL117665  36.834  30.564   9.184
 1062POPC   GL217666  36.696  30.309   8.977
 1062POPC   C1A17667  36.719  30.850   8.830
 1062POPC   D2A17668  36.609  30.844   8.386
 1062POPC   C3A17669  36.780  31.102   8.072
 1062POPC   C4A17670  36.707  30.938   7.647
 1062POPC   C1B17671  37.103  30.461   8.777
 1062POPC   C2B17672  37.225  30.401   8.356
 1062POPC   C3B17673  36.937  30.593   8.026
 1062POPC   C4B17674  37.079  30.551   7.627
 1063POPC   NC317675   0.588   8.541   9.489
 1063POPC   PO417676  44.998   8.165   9.512
 1063POPC   GL117677   0.255   8.250   9.127
 1063POPC   GL217678   0.559   8.013   9.030
 1063POPC   C1A17679   0.245   8.222   8.673
 1063POPC   D2A17680   0.595   8.148   8.415
 1063POPC   C3A17681   0.513   7.992   8.032
 1063POPC   C4A17682   0.329   8.165   7.670
 1063POPC   C1B17683   0.692   8.418   8.841
 1063POPC   C2B17684   0.863   8.586   8.464
 1063POPC   C3B17685   0.808   8.443   8.028
 1063POPC   C4B17686   0.740   8.487   7.568
 1064POPC   NC317687  44.276  22.215   9.614
 1064POPC   PO417688  44.901  22.035   9.627
 1064POPC   GL117689  44.814  22.232   9.225
 1064POPC   GL217690   0.084  22.045   9.118
 1064POPC   C1A17691  44.556  22.399   8.847
 1064POPC   D2A17692  44.347  22.141   8.501
 1064POPC   C3A17693  44.423  22.193   8.047
 1064POPC   C4A17694  44.628  21.909   7.743
 1064POPC   C1B17695  44.978  22.151   8.710
 1064POPC   C2B17696   0.158  22.111   8.334
 1064POPC   C3B17697  44.941  22.235   7.991
 1064POPC   C4B17698  44.785  22.378   7.620
 1065POPC   NC317699  27.272   7.746   9.411
 1065POPC   PO417700  26.586   7.855   9.449
 1065POPC   GL117701  26.881   7.902   9.064
 1065POPC   GL217702  27.177   8.141   9.051
 1065POPC   C1A17703  26.936   8.050   8.607
 1065POPC   D2A17704  26.716   8.435   8.410
 1065POPC   C3A17705  26.608   8.367   7.987
 1065POPC   C4A17706  26.812   8.010   7.821
 1065POPC   C1B17707  27.118   8.511   8.753
 1065POPC   C2B17708  27.214   8.485   8.285
 1065POPC   C3B17709  27.098   8.440   7.813
 1065POPC   C4B17710  27.199   8.464   7.338
 1066POPC   NC317711  21.207  32.119   9.594
 1066POPC   PO417712  21.380  31.394   9.500
 1066POPC   GL117713  21.395  31.465   9.071
 1066POPC   GL217714  21.527  31.788   9.137
 1066POPC   C1A17715  21.351  31.471   8.601
 1066POPC   D2A17716  21.660  31.534   8.301
 1066POPC   C3A17717  21.579  31.353   7.885
 1066POPC   C4A17718  21.294  31.544   7.612
 1066POPC   C1B17719  21.599  31.919   8.704
 1066POPC   C2B17720  21.787  32.024   8.292
 1066POPC   C3B17721  21.511  31.916   7.943
 1066POPC   C4B17722  21.188  32.164   7.763
 1067POPC   NC317723   3.081  16.003   9.437
 1067POPC   PO417724   2.526  15.645   9.658
 1067POPC   GL117725   2.651  15.799   9.225
 1067POPC   GL217726   2.583  16.160   9.222
 1067POPC   C1A17727   2.560  15.915   8.779
 1067POPC   D2A17728   2.652  15.891   8.341
 1067POPC   C3A17729   2.778  15.959   7.973
 1067POPC   C4A17730   2.459  16.122   7.701
 1067POPC   C1B17731   2.893  16.295   8.884
 1067POPC   C2B17732   3.056  16.152   8.494
 1067POPC   C3B17733   3.112  16.332   8.105
 1067POPC   C4B17734   2.957  16.344   7.687
 1068POPC   NC317735  25.282  41.235   9.471
 1068POPC   PO417736  25.796  41.728   9.323
 1068POPC   GL117737  25.426  41.766   9.098
 1068POPC   GL217738  25.413  41.395   9.020
 1068POPC   C1A17739  25.368  41.745   8.655
 1068POPC   D2A17740  25.501  41.531   8.291
 1068POPC   C3A17741  25.254  41.740   7.986
 1068POPC   C4A17742  25.312  41.866   7.532
 1068POPC   C1B17743  25.105  41.215   8.752
 1068POPC   C2B17744  24.993  41.423   8.388
 1068POPC   C3B17745  24.837  41.372   7.999
 1068POPC   C4B17746  25.114  41.354   7.663
 1069POPC   NC317747   3.854  10.346   9.468
 1069POPC   PO417748   3.278  10.760   9.488
 1069POPC   GL117749   3.509  10.612   9.198
 1069POPC   GL217750   3.780  10.865   9.221
 1069POPC   C1A17751   3.396  10.416   8.817
 1069POPC   D2A17752   3.467  10.285   8.407
 1069POPC   C3A17753   3.369  10.484   8.027
 1069POPC   C4A17754   3.539  10.230   7.721
 1069POPC   C1B17755   3.602  10.889   8.786
 1069POPC   C2B17756   3.618  10.832   8.356
 1069POPC   C3B17757   3.624  11.058   7.962
 1069POPC   C4B17758   3.451  10.880   7.578
 1070POPC   NC317759  24.230   0.935   9.436
 1070POPC   PO417760  24.443   1.508   9.665
 1070POPC   GL117761  24.410   1.375   9.214
 1070POPC   GL217762  24.612   1.111   9.089
 1070POPC   C1A17763  24.312   1.391   8.743
 1070POPC   D2A17764  24.551   1.445   8.328
 1070POPC   C3A17765  24.316   1.397   7.951
 1070POPC   C4A17766  24.186   1.255   7.547
 1070POPC   C1B17767  24.722   0.870   8.733
 1070POPC   C2B17768  24.789   0.993   8.324
 1070POPC   C3B17769  24.655   1.017   7.923
 1070POPC   C4B17770  24.835   0.795   7.589
 1071POPC   NC317771  18.616  31.126   9.608
 1071POPC   PO417772  18.941  30.596   9.494
 1071POPC   GL117773  19.059  30.851   9.148
 1071POPC   GL217774  19.102  30.514   8.990
 1071POPC   C1A17775  19.304  30.897   8.749
 1071POPC   D2A17776  19.315  30.558   8.393
 1071POPC   C3A17777  19.163  30.706   7.998
 1071POPC   C4A17778  18.861  30.794   7.677
 1071POPC   C1B17779  18.893  30.279   8.635
 1071POPC   C2B17780  18.873  30.265   8.177
 1071POPC   C3B17781  18.934  30.302   7.747
 1071POPC   C4B17782  18.707  30.402   7.353
 1072POPC   NC317783  11.378  10.511   9.797
 1072POPC   PO417784  10.772  10.493   9.901
 1072POPC   GL117785  11.047  10.554   9.399
 1072POPC   GL217786  11.395  10.449   9.281
 1072POPC   C1A17787  11.076  10.455   8.890
 1072POPC   D2A17788  11.121  10.600   8.424
 1072POPC   C3A17789  11.052  10.364   7.991
 1072POPC   C4A17790  11.192  10.441   7.520
 1072POPC   C1B17791  11.566  10.582   8.871
 1072POPC   C2B17792  11.653  10.579   8.428
 1072POPC   C3B17793  11.464  10.646   8.028
 1072POPC   C4B17794  11.640  10.775   7.652
 1073POPC   NC317795  41.527  22.943   9.460
 1073POPC   PO417796  41.253  23.545   9.503
 1073POPC   GL117797  41.195  23.210   9.127
 1073POPC   GL217798  41.211  22.839   9.095
 1073POPC   C1A17799  41.480  23.086   8.749
 1073POPC   D2A17800  41.728  22.773   8.490
 1073POPC   C3A17801  41.724  22.847   8.040
 1073POPC   C4A17802  41.603  23.224   7.838
 1073POPC   C1B17803  41.259  22.594   8.740
 1073POPC   C2B17804  41.229  22.796   8.374
 1073POPC   C3B17805  41.212  22.943   8.000
 1073POPC   C4B17806  41.307  22.793   7.645
 1074POPC   NC317807   5.496  16.449   9.553
 1074POPC   PO417808   6.052  16.978   9.446
 1074POPC   GL117809   5.818  16.732   9.203
 1074POPC   GL217810   5.886  16.398   9.203
 1074POPC   C1A17811   5.669  16.670   8.793
 1074POPC   D2A17812   5.793  16.929   8.439
 1074POPC   C3A17813   5.761  16.760   8.024
 1074POPC   C4A17814   5.851  16.949   7.642
 1074POPC   C1B17815   6.116  16.454   8.809
 1074POPC   C2B17816   6.206  16.609   8.403
 1074POPC   C3B17817   6.176  16.430   8.005
 1074POPC   C4B17818   6.138  16.390   7.559
 1075POPC   NC317819  20.948  24.498   9.467
 1075POPC   PO417820  20.321  24.332   9.538
 1075POPC   GL117821  20.407  24.613   9.189
 1075POPC   GL217822  20.752  24.734   9.067
 1075POPC   C1A17823  20.384  24.611   8.764
 1075POPC   D2A17824  20.729  24.686   8.488
 1075POPC   C3A17825  20.590  24.595   8.086
 1075POPC   C4A17826  20.533  24.750   7.663
 1075POPC   C1B17827  20.746  24.278   8.883
 1075POPC   C2B17828  20.744  24.153   8.444
 1075POPC   C3B17829  21.042  24.365   8.166
 1075POPC   C4B17830  21.013  24.572   7.768
 1076POPC   NC317831  11.985  22.419   9.507
 1076POPC   PO417832  12.255  21.837   9.677
 1076POPC   GL117833  11.983  21.991   9.273
 1076POPC   GL217834  12.199  22.236   9.077
 1076POPC   C1A17835  11.782  22.043   8.850
 1076POPC   D2A17836  11.903  22.272   8.469
 1076POPC   C3A17837  11.890  22.075   8.063
 1076POPC   C4A17838  11.873  22.244   7.639
 1076POPC   C1B17839  12.402  22.235   8.674
 1076POPC   C2B17840  12.446  22.515   8.328
 1076POPC   C3B17841  12.220  22.479   7.973
 1076POPC   C4B17842  12.371  22.124   7.772
 1077POPC   NC317843  16.224  28.171   9.684
 1077POPC   PO417844  15.681  28.397   9.504
 1077POPC   GL117845  15.983  28.178   9.228
 1077POPC   GL217846  16.008  28.464   9.014
 1077POPC   C1A17847  16.201  28.029   8.856
 1077POPC   D2A17848  16.064  28.081   8.422
 1077POPC   C3A17849  16.249  28.178   7.988
 1077POPC   C4A17850  16.131  28.406   7.566
 1077POPC   C1B17851  15.690  28.206   8.774
 1077POPC   C2B17852  15.555  28.074   8.340
 1077POPC   C3B17853  15.575  28.203   7.882
 1077POPC   C4B17854  15.565  28.483   7.484
 1078POPC   NC317855  24.882  17.155   9.404
 1078POPC   PO417856  24.220  17.280   9.470
 1078POPC   GL117857  24.455  17.294   9.125
 1078POPC   GL217858  24.675  17.552   9.061
 1078POPC   C1A17859  24.331  17.356   8.720
 1078POPC   D2A17860  24.364  17.137   8.370
 1078POPC   C3A17861  24.477  17.314   8.007
 1078POPC   C4A17862  24.624  17.440   7.619
 1078POPC   C1B17863  24.493  17.843   8.721
 1078POPC   C2B17864  24.271  17.687   8.323
 1078POPC   C3B17865  24.269  17.757   7.882
 1078POPC   C4B17866  24.626  17.944   7.741
 1079POPC   NC317867  26.288  29.562   9.489
 1079POPC   PO417868  25.775  29.097   9.466
 1079POPC   GL117869  25.926  29.230   9.116
 1079POPC   GL217870  26.263  29.142   9.161
 1079POPC   C1A17871  26.032  29.061   8.727
 1079POPC   D2A17872  26.164  28.816   8.428
 1079POPC   C3A17873  26.152  29.087   8.122
 1079POPC   C4A17874  25.938  29.180   7.763
 1079POPC   C1B17875  26.263  29.525   8.863
 1079POPC   C2B17876  26.152  29.629   8.465
 1079POPC   C3B17877  26.431  29.523   8.148
 1079POPC   C4B17878  26.506  29.233   7.814
 1080POPC   NC317879  39.103  35.125   9.436
 1080POPC   PO417880  39.626  35.598   9.455
 1080POPC   GL117881  39.413  35.374   9.121
 1080POPC   GL217882  39.536  35.518   8.875
 1080POPC   C1A17883  39.131  35.148   8.775
 1080POPC   D2A17884  38.885  35.241   8.386
 1080POPC   C3A17885  38.978  35.176   7.947
 1080POPC   C4A17886  39.071  35.413   7.564
 1080POPC   C1B17887  39.615  35.167   8.641
 1080POPC   C2B17888  39.436  35.062   8.283
 1080POPC   C3B17889  39.469  35.318   7.945
 1080POPC   C4B17890  39.421  35.058   7.636
 1081POPC   NC317891  39.628  44.381   9.350
 1081POPC   PO417892  39.836  44.960   9.650
 1081POPC   GL117893  40.076  44.842   9.256
 1081POPC   GL217894  40.234  44.509   9.238
 1081POPC   C1A17895  40.017   0.056   8.864
 1081POPC   D2A17896  39.810   0.126   8.471
 1081POPC   C3A17897  39.952  44.922   8.118
 1081POPC   C4A17898  39.958  44.821   7.699
 1081POPC   C1B17899  40.098  44.526   8.793
 1081POPC   C2B17900  39.979  44.347   8.362
 1081POPC   C3B17901  40.080  44.378   7.910
 1081POPC   C4B17902  40.007  44.310   7.443
 1082POPC   NC317903  17.128  20.115   9.952
 1082POPC   PO417904  17.677  19.989   9.448
 1082POPC   GL117905  17.503  19.855   9.063
 1082POPC   GL217906  17.196  19.640   9.157
 1082POPC   C1A17907  17.553  20.083   8.666
 1082POPC   D2A17908  17.529  20.234   8.222
 1082POPC   C3A17909  17.609  19.942   7.912
 1082POPC   C4A17910  17.533  19.468   7.860
 1082POPC   C1B17911  17.224  19.552   8.738
 1082POPC   C2B17912  17.284  19.787   8.369
 1082POPC   C3B17913  17.096  20.000   8.084
 1082POPC   C4B17914  17.164  19.827   7.742
 1083POPC   NC317915  17.534  41.723   9.730
 1083POPC   PO417916  17.946  41.279   9.907
 1083POPC   GL117917  17.789  41.400   9.422
 1083POPC   GL217918  17.831  41.744   9.268
 1083POPC   C1A17919  17.796  41.331   8.946
 1083POPC   D2A17920  17.748  41.307   8.465
 1083POPC   C3A17921  17.791  41.682   8.197
 1083POPC   C4A17922  17.630  41.903   7.815
 1083POPC   C1B17923  17.443  41.713   8.977
 1083POPC   C2B17924  17.352  41.663   8.506
 1083POPC   C3B17925  17.307  41.568   8.051
 1083POPC   C4B17926  17.110  41.773   7.683
 1084POPC   NC317927  26.653  16.907   9.532
 1084POPC   PO417928  27.133  16.361   9.539
 1084POPC   GL117929  26.831  16.537   9.201
 1084POPC   GL217930  26.839  16.919   9.063
 1084POPC   C1A17931  26.604  16.559   8.792
 1084POPC   D2A17932  26.546  16.691   8.346
 1084POPC   C3A17933  26.699  16.449   7.969
 1084POPC   C4A17934  27.123  16.314   7.826
 1084POPC   C1B17935  26.567  17.074   8.708
 1084POPC   C2B17936  26.463  17.202   8.271
 1084POPC   C3B17937  26.576  16.971   7.878
 1084POPC   C4B17938  26.468  16.826   7.441
 1085POPC   NC317939  36.450  36.919   9.546
 1085POPC   PO417940  37.120  36.782   9.383
 1085POPC   GL117941  36.779  36.708   9.111
 1085POPC   GL217942  36.735  37.045   9.135
 1085POPC   C1A17943  36.633  36.759   8.682
 1085POPC   D2A17944  36.706  37.039   8.336
 1085POPC   C3A17945  36.773  36.807   7.952
 1085POPC   C4A17946  36.486  36.593   7.724
 1085POPC   C1B17947  36.933  37.157   8.777
 1085POPC   C2B17948  37.211  37.151   8.454
 1085POPC   C3B17949  37.100  37.200   8.038
 1085POPC   C4B17950  36.728  37.310   7.786
 1086POPC   NC317951   1.910   7.641   9.580
 1086POPC   PO417952   2.070   8.261   9.578
 1086POPC   GL117953   1.968   8.138   9.178
 1086POPC   GL217954   2.190   7.891   9.087
 1086POPC   C1A17955   2.063   8.351   8.775
 1086POPC   D2A17956   1.918   8.227   8.357
 1086POPC   C3A17957   2.121   8.327   7.963
 1086POPC   C4A17958   1.712   8.374   7.819
 1086POPC   C1B17959   2.021   7.857   8.712
 1086POPC   C2B17960   2.029   7.718   8.351
 1086POPC   C3B17961   1.885   7.857   7.955
 1086POPC   C4B17962   1.761   7.873   7.540
 1087POPC   NC317963  17.254  20.197   9.373
 1087POPC   PO417964  17.507  20.854   9.388
 1087POPC   GL117965  17.347  20.615   9.051
 1087POPC   GL217966  17.652  20.449   8.999
 1087POPC   C1A17967  17.383  20.593   8.586
 1087POPC   D2A17968  17.667  20.710   8.243
 1087POPC   C3A17969  17.438  20.726   7.865
 1087POPC   C4A17970  17.305  20.308   7.716
 1087POPC   C1B17971  17.810  20.859   8.758
 1087POPC   C2B17972  18.023  21.044   8.351
 1087POPC   C3B17973  17.977  20.952   7.898
 1087POPC   C4B17974  17.801  20.861   7.460
 1088POPC   NC317975  24.370  12.380   9.557
 1088POPC   PO417976  25.082  12.281   9.580
 1088POPC   GL117977  24.720  12.281   9.182
 1088POPC   GL217978  24.303  12.250   9.092
 1088POPC   C1A17979  24.633  12.024   8.800
 1088POPC   D2A17980  24.348  12.004   8.444
 1088POPC   C3A17981  24.524  12.019   8.033
 1088POPC   C4A17982  24.766  11.736   7.815
 1088POPC   C1B17983  24.355  12.466   8.729
 1088POPC   C2B17984  24.289  12.500   8.323
 1088POPC   C3B17985  24.174  12.376   7.916
 1088POPC   C4B17986  24.315  12.366   7.490
 1089POPC   NC317987  28.596  44.157   9.927
 1089POPC   PO417988  28.064  43.925   9.527
 1089POPC   GL117989  28.175  43.859   9.099
 1089POPC   GL217990  28.498  43.622   9.063
 1089POPC   C1A17991  28.055  44.050   8.708
 1089POPC   D2A17992  28.173  43.816   8.355
 1089POPC   C3A17993  28.134  44.007   7.979
 1089POPC   C4A17994  28.466  44.228   7.830
 1089POPC   C1B17995  28.546  43.934   8.737
 1089POPC   C2B17996  28.608  44.089   8.334
 1089POPC   C3B17997  28.601  43.780   8.059
 1089POPC   C4B17998  28.724  43.435   7.876
 1090POPC   NC317999  25.797  31.107   9.864
 1090POPC   PO418000  25.359  31.442   9.489
 1090POPC   GL118001  25.388  31.599   9.121
 1090POPC   GL218002  25.035  31.674   9.125
 1090POPC   C1A18003  25.513  31.473   8.738
 1090POPC   D2A18004  25.438  31.582   8.368
 1090POPC   C3A18005  25.597  31.367   8.060
 1090POPC   C4A18006  25.364  31.523   7.698
 1090POPC   C1B18007  25.045  31.279   8.880
 1090POPC   C2B18008  25.030  31.256   8.450
 1090POPC   C3B18009  25.025  31.466   8.088
 1090POPC   C4B18010  24.817  31.448   7.722
 1091POPC   NC318011  26.914  12.632   9.588
 1091POPC   PO418012  26.862  12.041   9.872
 1091POPC   GL118013  26.736  12.158   9.413
 1091POPC   GL218014  26.962  12.344   9.164
 1091POPC   C1A18015  26.544  12.114   8.977
 1091POPC   D2A18016  26.587  12.257   8.530
 1091POPC   C3A18017  26.542  11.997   8.169
 1091POPC   C4A18018  26.698  12.093   7.767
 1091POPC   C1B18019  27.036  12.519   8.726
 1091POPC   C2B18020  27.068  12.508   8.249
 1091POPC   C3B18021  27.198  12.242   7.870
 1091POPC   C4B18022  27.488  12.266   7.507
 1092POPC   NC318023  43.341  24.941   9.769
 1092POPC   PO418024  43.373  24.293   9.583
 1092POPC   GL118025  43.264  24.530   9.219
 1092POPC   GL218026  43.522  24.790   9.190
 1092POPC   C1A18027  43.057  24.362   8.797
 1092POPC   D2A18028  42.876  24.334   8.362
 1092POPC   C3A18029  42.985  24.521   7.936
 1092POPC   C4A18030  42.849  24.924   7.744
 1092POPC   C1B18031  43.485  24.608   8.745
 1092POPC   C2B18032  43.348  24.585   8.310
 1092POPC   C3B18033  43.490  24.403   7.892
 1092POPC   C4B18034  43.335  24.274   7.504
 1093POPC   NC318035  36.430  11.683   9.467
 1093POPC   PO418036  36.144  12.384   9.548
 1093POPC   GL118037  36.071  12.273   9.114
 1093POPC   GL218038  36.380  12.301   8.959
 1093POPC   C1A18039  35.939  12.112   8.724
 1093POPC   D2A18040  36.131  12.114   8.331
 1093POPC   C3A18041  35.972  11.998   7.963
 1093POPC   C4A18042  36.140  12.090   7.586
 1093POPC   C1B18043  36.411  11.891   8.711
 1093POPC   C2B18044  36.498  11.762   8.272
 1093POPC   C3B18045  36.525  12.068   7.946
 1093POPC   C4B18046  36.624  11.999   7.513
 1094POPC   NC318047  39.035  34.366   9.484
 1094POPC   PO418048  39.538  34.821   9.506
 1094POPC   GL118049  39.490  34.870   9.078
 1094POPC   GL218050  39.167  34.726   9.104
 1094POPC   C1A18051  39.430  34.685   8.659
 1094POPC   D2A18052  39.261  34.440   8.316
 1094POPC   C3A18053  39.169  34.693   7.932
 1094POPC   C4A18054  39.175  34.631   7.484
 1094POPC   C1B18055  38.940  34.481   8.793
 1094POPC   C2B18056  38.656  34.489   8.458
 1094POPC   C3B18057  38.812  34.341   8.068
 1094POPC   C4B18058  38.910  34.239   7.652
 1095POPC   NC318059  19.531  21.703   9.376
 1095POPC   PO418060  18.838  21.699   9.478
 1095POPC   GL118061  19.090  21.499   9.146
 1095POPC   GL218062  19.208  21.150   9.129
 1095POPC   C1A18063  19.275  21.465   8.725
 1095POPC   D2A18064  19.059  21.635   8.371
 1095POPC   C3A18065  19.123  21.507   7.956
 1095POPC   C4A18066  18.746  21.511   7.746
 1095POPC   C1B18067  19.324  20.946   8.725
 1095POPC   C2B18068  19.254  21.140   8.326
 1095POPC   C3B18069  19.081  21.005   7.949
 1095POPC   C4B18070  19.262  21.060   7.560
 1096POPC   NC318071  37.264  32.348   9.512
 1096POPC   PO418072  36.736  31.885   9.355
 1096POPC   GL118073  37.072  32.068   9.123
 1096POPC   GL218074  36.993  32.442   9.093
 1096POPC   C1A18075  37.023  32.170   8.688
 1096POPC   D2A18076  36.766  32.221   8.341
 1096POPC   C3A18077  36.832  32.128   7.903
 1096POPC   C4A18078  36.532  32.105   7.538
 1096POPC   C1B18079  36.659  32.518   8.770
 1096POPC   C2B18080  36.616  32.726   8.365
 1096POPC   C3B18081  36.872  32.619   8.048
 1096POPC   C4B18082  37.067  32.548   7.664
 1097POPC   NC318083  27.300   5.382   9.373
 1097POPC   PO418084  27.798   5.940   9.535
 1097POPC   GL118085  27.692   6.085   9.187
 1097POPC   GL218086  27.579   5.747   9.089
 1097POPC   C1A18087  27.722   6.229   8.803
 1097POPC   D2A18088  27.577   6.031   8.446
 1097POPC   C3A18089  27.655   5.990   8.037
 1097POPC   C4A18090  27.731   6.141   7.671
 1097POPC   C1B18091  27.310   5.700   8.713
 1097POPC   C2B18092  27.297   5.677   8.222
 1097POPC   C3B18093  27.328   5.429   7.870
 1097POPC   C4B18094  27.656   5.566   7.617
 1098POPC   NC318095  11.281  11.471   9.534
 1098POPC   PO418096  11.637  10.846   9.588
 1098POPC   GL118097  11.333  10.964   9.230
 1098POPC   GL218098  11.434  11.274   9.101
 1098POPC   C1A18099  11.191  10.990   8.769
 1098POPC   D2A18100  11.297  11.245   8.402
 1098POPC   C3A18101  11.137  11.232   7.990
 1098POPC   C4A18102  11.167  10.928   7.690
 1098POPC   C1B18103  11.532  11.545   8.786
 1098POPC   C2B18104  11.696  11.546   8.394
 1098POPC   C3B18105  11.585  11.465   7.997
 1098POPC   C4B18106  11.759  11.523   7.643
 1099POPC   NC318107   8.841  17.130   9.534
 1099POPC   PO418108   9.163  16.522   9.533
 1099POPC   GL118109   9.200  16.825   9.166
 1099POPC   GL218110   8.867  16.899   9.057
 1099POPC   C1A18111   9.207  16.725   8.697
 1099POPC   D2A18112   8.947  16.506   8.378
 1099POPC   C3A18113   8.979  16.585   7.932
 1099POPC   C4A18114   8.741  16.655   7.556
 1099POPC   C1B18115   8.748  17.019   8.630
 1099POPC   C2B18116   8.765  16.966   8.176
 1099POPC   C3B18117   8.808  17.117   7.765
 1099POPC   C4B18118   8.785  17.124   7.295
 1100POPC   NC318119  33.083  41.683   9.626
 1100POPC   PO418120  32.707  41.201   9.492
 1100POPC   GL118121  32.986  41.473   9.181
 1100POPC   GL218122  33.315  41.716   9.181
 1100POPC   C1A18123  33.015  41.565   8.768
 1100POPC   D2A18124  33.181  41.507   8.377
 1100POPC   C3A18125  32.945  41.464   7.996
 1100POPC   C4A18126  33.118  41.304   7.613
 1100POPC   C1B18127  33.309  41.977   8.830
 1100POPC   C2B18128  33.146  42.002   8.461
 1100POPC   C3B18129  33.246  42.001   8.047
 1100POPC   C4B18130  33.220  41.789   7.676
 1101POPC   NC318131   9.322  31.365   9.350
 1101POPC   PO418132   9.982  31.453   9.451
 1101POPC   GL118133   9.755  31.213   9.115
 1101POPC   GL218134   9.713  31.566   9.021
 1101POPC   C1A18135   9.491  31.262   8.705
 1101POPC   D2A18136   9.625  31.506   8.334
 1101POPC   C3A18137   9.711  31.214   8.025
 1101POPC   C4A18138   9.422  30.966   7.852
 1101POPC   C1B18139   9.999  31.678   8.686
 1101POPC   C2B18140  10.070  31.889   8.255
 1101POPC   C3B18141   9.863  31.698   7.873
 1101POPC   C4B18142   9.438  31.519   7.724
 1102POPC   NC318143  40.494  34.423   9.494
 1102POPC   PO418144  40.972  34.810   9.469
 1102POPC   GL118145  40.813  34.580   9.111
 1102POPC   GL218146  40.436  34.514   9.009
 1102POPC   C1A18147  41.046  34.507   8.749
 1102POPC   D2A18148  40.918  34.598   8.375
 1102POPC   C3A18149  40.772  34.363   8.065
 1102POPC   C4A18150  40.837  34.519   7.717
 1102POPC   C1B18151  40.512  34.806   8.755
 1102POPC   C2B18152  40.532  34.942   8.370
 1102POPC   C3B18153  40.729  34.910   8.018
 1102POPC   C4B18154  40.644  34.972   7.617
 1103POPC   NC318155  23.561  12.580   9.762
 1103POPC   PO418156  23.435  12.018   9.399
 1103POPC   GL118157  23.713  12.175   9.112
 1103POPC   GL218158  23.508  12.333   8.848
 1103POPC   C1A18159  23.957  12.126   8.751
 1103POPC   D2A18160  23.868  12.189   8.320
 1103POPC   C3A18161  23.660  12.168   7.939
 1103POPC   C4A18162  23.849  12.200   7.553
 1103POPC   C1B18163  23.498  11.899   8.687
 1103POPC   C2B18164  23.484  11.721   8.244
 1103POPC   C3B18165  23.277  11.829   7.841
 1103POPC   C4B18166  23.390  12.023   7.487
 1104POPC   NC318167  15.971  38.962   9.444
 1104POPC   PO418168  15.870  39.610   9.476
 1104POPC   GL118169  16.107  39.548   9.081
 1104POPC   GL218170  16.133  39.207   9.010
 1104POPC   C1A18171  16.147  39.559   8.637
 1104POPC   D2A18172  15.796  39.368   8.410
 1104POPC   C3A18173  15.773  39.463   7.967
 1104POPC   C4A18174  16.141  39.450   7.722
 1104POPC   C1B18175  15.858  38.976   8.791
 1104POPC   C2B18176  15.780  38.847   8.389
 1104POPC   C3B18177  16.052  39.003   8.085
 1104POPC   C4B18178  15.865  38.985   7.730
 1105POPC   NC318179   3.290  16.535   9.708
 1105POPC   PO418180   3.573  17.172   9.613
 1105POPC   GL118181   3.622  16.838   9.278
 1105POPC   GL218182   3.459  16.501   9.230
 1105POPC   C1A18183   3.774  16.676   8.875
 1105POPC   D2A18184   3.489  16.711   8.500
 1105POPC   C3A18185   3.590  16.752   8.096
 1105POPC   C4A18186   3.325  16.709   7.732
 1105POPC   C1B18187   3.413  16.322   8.817
 1105POPC   C2B18188   3.557  16.181   8.372
 1105POPC   C3B18189   3.566  16.286   7.901
 1105POPC   C4B18190   3.847  16.609   7.673
 1106POPC   NC318191  12.161  38.757   9.607
 1106POPC   PO418192  11.897  38.141   9.521
 1106POPC   GL118193  12.165  38.368   9.251
 1106POPC   GL218194  11.932  38.598   9.148
 1106POPC   C1A18195  12.321  38.331   8.861
 1106POPC   D2A18196  12.454  38.412   8.433
 1106POPC   C3A18197  12.257  38.619   8.068
 1106POPC   C4A18198  12.249  38.430   7.665
 1106POPC   C1B18199  11.841  38.479   8.720
 1106POPC   C2B18200  11.846  38.391   8.273
 1106POPC   C3B18201  11.766  38.378   7.837
 1106POPC   C4B18202  11.458  38.598   7.606
 1107POPC   NC318203  27.280  36.733   9.486
 1107POPC   PO418204  27.551  37.245   9.717
 1107POPC   GL118205  27.570  37.066   9.246
 1107POPC   GL218206  27.308  37.024   9.040
 1107POPC   C1A18207  27.763  36.827   8.898
 1107POPC   D2A18208  28.041  36.910   8.552
 1107POPC   C3A18209  27.919  36.912   8.112
 1107POPC   C4A18210  27.634  36.827   7.766
 1107POPC   C1B18211  27.356  36.948   8.617
 1107POPC   C2B18212  27.386  36.906   8.197
 1107POPC   C3B18213  27.172  37.005   7.815
 1107POPC   C4B18214  27.286  37.029   7.362
 1108POPC   NC318215  15.053  12.682   9.577
 1108POPC   PO418216  15.695  12.758   9.586
 1108POPC   GL118217  15.380  12.808   9.214
 1108POPC   GL218218  15.118  13.083   9.210
 1108POPC   C1A18219  15.077  12.653   8.888
 1108POPC   D2A18220  15.057  12.792   8.458
 1108POPC   C3A18221  14.924  12.673   8.040
 1108POPC   C4A18222  15.254  12.711   7.741
 1108POPC   C1B18223  14.967  13.213   8.769
 1108POPC   C2B18224  14.802  13.199   8.303
 1108POPC   C3B18225  15.078  13.172   7.914
 1108POPC   C4B18226  15.310  13.141   7.476
 1109POPC   NC318227  38.966  20.509   9.550
 1109POPC   PO418228  39.554  20.602   9.324
 1109POPC   GL118229  39.167  20.674   9.124
 1109POPC   GL218230  39.017  20.322   9.082
 1109POPC   C1A18231  39.093  20.847   8.722
 1109POPC   D2A18232  39.396  20.758   8.410
 1109POPC   C3A18233  39.348  20.971   8.035
 1109POPC   C4A18234  39.087  20.915   7.687
 1109POPC   C1B18235  39.311  20.373   8.751
 1109POPC   C2B18236  39.287  20.226   8.386
 1109POPC   C3B18237  39.335  20.404   8.027
 1109POPC   C4B18238  39.135  20.415   7.671
 1110POPC   NC318239  19.240   3.094   9.577
 1110POPC   PO418240  18.713   2.686   9.500
 1110POPC   GL118241  18.910   2.688   9.152
 1110POPC   GL218242  18.908   3.057   9.183
 1110POPC   C1A18243  18.834   2.646   8.726
 1110POPC   D2A18244  18.810   2.756   8.296
 1110POPC   C3A18245  19.184   2.661   8.070
 1110POPC   C4A18246  19.287   2.442   7.687
 1110POPC   C1B18247  19.273   2.939   8.927
 1110POPC   C2B18248  19.257   2.996   8.485
 1110POPC   C3B18249  19.083   3.172   8.117
 1110POPC   C4B18250  19.147   3.020   7.701
 1111POPC   NC318251   9.487  24.280   9.623
 1111POPC   PO418252   9.913  24.778   9.455
 1111POPC   GL118253   9.787  24.491   9.205
 1111POPC   GL218254   9.431  24.546   9.162
 1111POPC   C1A18255   9.941  24.343   8.837
 1111POPC   D2A18256   9.876  24.447   8.426
 1111POPC   C3A18257  10.081  24.235   8.131
 1111POPC   C4A18258  10.004  24.409   7.758
 1111POPC   C1B18259   9.608  24.731   8.767
 1111POPC   C2B18260   9.566  24.872   8.316
 1111POPC   C3B18261   9.613  24.797   7.830
 1111POPC   C4B18262   9.630  24.931   7.352
 1112POPC   NC318263   9.841   8.166   9.515
 1112POPC   PO418264   9.196   8.144   9.288
 1112POPC   GL118265   9.575   8.366   9.091
 1112POPC   GL218266   9.933   8.512   9.170
 1112POPC   C1A18267   9.821   8.149   8.782
 1112POPC   D2A18268   9.645   7.901   8.427
 1112POPC   C3A18269   9.580   8.116   8.022
 1112POPC   C4A18270   9.837   8.036   7.674
 1112POPC   C1B18271   9.925   8.651   8.762
 1112POPC   C2B18272  10.073   8.529   8.349
 1112POPC   C3B18273  10.009   8.435   7.921
 1112POPC   C4B18274   9.940   8.469   7.465
 1113POPC   NC318275  12.608  17.924   9.537
 1113POPC   PO418276  12.687  17.203   9.506
 1113POPC   GL118277  12.798  17.259   9.084
 1113POPC   GL218278  12.857  17.622   9.090
 1113POPC   C1A18279  13.024  17.343   8.681
 1113POPC   D2A18280  13.182  17.384   8.264
 1113POPC   C3A18281  12.833  17.300   7.973
 1113POPC   C4A18282  12.568  17.136   7.656
 1113POPC   C1B18283  12.829  17.821   8.704
 1113POPC   C2B18284  12.749  17.676   8.319
 1113POPC   C3B18285  12.935  17.811   7.949
 1113POPC   C4B18286  12.871  18.093   7.625
 1114POPC   NC318287  32.668  20.191   9.549
 1114POPC   PO418288  32.250  20.770   9.547
 1114POPC   GL118289  32.328  20.619   9.135
 1114POPC   GL218290  32.636  20.849   9.135
 1114POPC   C1A18291  32.109  20.487   8.723
 1114POPC   D2A18292  32.170  20.309   8.299
 1114POPC   C3A18293  32.190  20.615   7.934
 1114POPC   C4A18294  31.885  20.907   7.819
 1114POPC   C1B18295  32.431  20.906   8.734
 1114POPC   C2B18296  32.464  20.743   8.346
 1114POPC   C3B18297  32.654  20.856   7.971
 1114POPC   C4B18298  32.570  20.715   7.593
 1115POPC   NC318299  33.355  23.321   9.233
 1115POPC   PO418300  32.921  23.676   9.603
 1115POPC   GL118301  32.876  23.899   9.189
 1115POPC   GL218302  33.214  23.804   9.046
 1115POPC   C1A18303  32.856  23.953   8.727
 1115POPC   D2A18304  32.894  23.727   8.320
 1115POPC   C3A18305  33.001  23.944   7.965
 1115POPC   C4A18306  32.771  23.844   7.625
 1115POPC   C1B18307  33.020  23.469   8.731
 1115POPC   C2B18308  33.165  23.263   8.344
 1115POPC   C3B18309  33.269  23.452   7.969
 1115POPC   C4B18310  33.237  23.631   7.569
 1116POPC   NC318311  28.037   7.103   9.458
 1116POPC   PO418312  28.479   7.668   9.475
 1116POPC   GL118313  28.373   7.395   9.171
 1116POPC   GL218314  28.059   7.584   9.162
 1116POPC   C1A18315  28.584   7.289   8.767
 1116POPC   D2A18316  28.737   7.291   8.332
 1116POPC   C3A18317  28.609   7.643   8.069
 1116POPC   C4A18318  28.870   7.642   7.721
 1116POPC   C1B18319  28.022   7.295   8.813
 1116POPC   C2B18320  28.212   7.353   8.414
 1116POPC   C3B18321  28.171   7.368   7.977
 1116POPC   C4B18322  28.556   7.201   7.803
 1117POPC   NC318323  43.908  30.538   9.512
 1117POPC   PO418324  43.277  30.678   9.579
 1117POPC   GL118325  43.541  30.708   9.163
 1117POPC   GL218326  43.585  31.082   9.111
 1117POPC   C1A18327  43.752  30.468   8.779
 1117POPC   D2A18328  44.120  30.301   8.518
 1117POPC   C3A18329  44.077  30.307   8.068
 1117POPC   C4A18330  43.741  30.538   7.893
 1117POPC   C1B18331  43.656  30.946   8.662
 1117POPC   C2B18332  43.909  30.757   8.322
 1117POPC   C3B18333  44.169  30.793   7.919
 1117POPC   C4B18334  44.040  30.836   7.473
 1118POPC   NC318335  25.416  22.467   9.529
 1118POPC   PO418336  25.486  23.116   9.707
 1118POPC   GL118337  25.436  23.190   9.272
 1118POPC   GL218338  25.061  23.145   9.207
 1118POPC   C1A18339  25.453  22.879   8.936
 1118POPC   D2A18340  25.225  22.859   8.539
 1118POPC   C3A18341  25.444  22.943   8.160
 1118POPC   C4A18342  25.264  22.755   7.797
 1118POPC   C1B18343  25.195  23.299   8.806
 1118POPC   C2B18344  25.136  23.354   8.368
 1118POPC   C3B18345  24.970  23.108   8.029
 1118POPC   C4B18346  24.974  23.192   7.591
 1119POPC   NC318347  24.268   0.232   9.462
 1119POPC   PO418348  24.681   0.782   9.468
 1119POPC   GL118349  24.497   0.561   9.124
 1119POPC   GL218350  24.718   0.239   9.180
 1119POPC   C1A18351  24.282   0.622   8.700
 1119POPC   D2A18352  24.326   0.756   8.274
 1119POPC   C3A18353  24.662   0.531   8.052
 1119POPC   C4A18354  24.832   0.302   7.702
 1119POPC   C1B18355  24.493   0.168   8.794
 1119POPC   C2B18356  24.335   0.198   8.385
 1119POPC   C3B18357  24.321   0.069   7.961
 1119POPC   C4B18358  24.322   0.333   7.615
 1120POPC   NC318359  36.661  40.188   9.391
 1120POPC   PO418360  36.848  39.556   9.372
 1120POPC   GL118361  36.670  39.747   9.030
 1120POPC   GL218362  36.893  40.030   8.973
 1120POPC   C1A18363  36.755  39.598   8.608
 1120POPC   D2A18364  37.114  39.551   8.312
 1120POPC   C3A18365  37.080  39.799   7.898
 1120POPC   C4A18366  36.651  39.695   7.679
 1120POPC   C1B18367  36.654  40.121   8.627
 1120POPC   C2B18368  36.704  39.941   8.236
 1120POPC   C3B18369  36.702  40.149   7.875
 1120POPC   C4B18370  36.928  40.472   7.715
 1121POPC   NC318371  22.588  31.298   9.503
 1121POPC   PO418372  23.203  31.286   9.348
 1121POPC   GL118373  22.884  31.401   9.041
 1121POPC   GL218374  22.575  31.598   9.070
 1121POPC   C1A18375  23.056  31.526   8.639
 1121POPC   D2A18376  23.297  31.775   8.368
 1121POPC   C3A18377  23.208  31.479   8.067
 1121POPC   C4A18378  22.953  31.498   7.735
 1121POPC   C1B18379  22.552  31.543   8.641
 1121POPC   C2B18380  22.686  31.530   8.224
 1121POPC   C3B18381  22.453  31.516   7.843
 1121POPC   C4B18382  22.535  31.460   7.398
 1122POPC   NC318383  29.583   8.579   9.342
 1122POPC   PO418384  29.175   8.968   9.777
 1122POPC   GL118385  29.116   9.072   9.338
 1122POPC   GL218386  29.113   8.763   9.222
 1122POPC   C1A18387  29.093   9.140   8.862
 1122POPC   D2A18388  29.115   8.914   8.460
 1122POPC   C3A18389  29.198   9.094   8.096
 1122POPC   C4A18390  29.292   9.048   7.682
 1122POPC   C1B18391  29.022   8.585   8.840
 1122POPC   C2B18392  28.816   8.478   8.459
 1122POPC   C3B18393  28.893   8.640   8.086
 1122POPC   C4B18394  28.931   8.637   7.680
 1123POPC   NC318395  10.635  36.316   9.548
 1123POPC   PO418396  10.834  35.632   9.475
 1123POPC   GL118397  10.806  35.959   9.181
 1123POPC   GL218398  10.465  35.977   9.151
 1123POPC   C1A18399  10.780  35.890   8.744
 1123POPC   D2A18400  10.642  36.025   8.350
 1123POPC   C3A18401  10.779  35.831   7.989
 1123POPC   C4A18402  10.647  36.111   7.697
 1123POPC   C1B18403  10.177  36.161   8.840
 1123POPC   C2B18404  10.269  36.367   8.447
 1123POPC   C3B18405  10.215  36.217   8.020
 1123POPC   C4B18406  10.143  35.979   7.639
 1124POPC   NC318407  15.599  15.058   9.686
 1124POPC   PO418408  16.221  15.093   9.719
 1124POPC   GL118409  15.996  15.144   9.258
 1124POPC   GL218410  15.664  14.991   9.184
 1124POPC   C1A18411  15.851  15.228   8.768
 1124POPC   D2A18412  15.949  15.129   8.296
 1124POPC   C3A18413  15.869  15.282   7.851
 1124POPC   C4A18414  16.026  15.132   7.461
 1124POPC   C1B18415  15.507  14.816   8.791
 1124POPC   C2B18416  15.628  14.721   8.353
 1124POPC   C3B18417  15.779  14.777   7.919
 1124POPC   C4B18418  15.907  14.650   7.459
 1125POPC   NC318419  20.824  25.307   9.644
 1125POPC   PO418420  20.184  25.406   9.582
 1125POPC   GL118421  20.465  25.136   9.240
 1125POPC   GL218422  20.812  25.281   9.133
 1125POPC   C1A18423  20.560  25.102   8.756
 1125POPC   D2A18424  20.512  25.342   8.374
 1125POPC   C3A18425  20.604  25.113   8.023
 1125POPC   C4A18426  20.961  25.089   7.755
 1125POPC   C1B18427  20.823  25.564   8.778
 1125POPC   C2B18428  20.919  25.734   8.378
 1125POPC   C3B18429  20.855  25.563   7.987
 1125POPC   C4B18430  20.612  25.458   7.638
 1126POPC   NC318431  31.759  21.943   9.446
 1126POPC   PO418432  31.076  22.131   9.421
 1126POPC   GL118433  31.179  22.297   9.075
 1126POPC   GL218434  31.550  22.317   9.139
 1126POPC   C1A18435  31.288  22.051   8.734
 1126POPC   D2A18436  31.159  21.975   8.336
 1126POPC   C3A18437  31.400  22.232   8.107
 1126POPC   C4A18438  31.367  22.348   7.741
 1126POPC   C1B18439  31.792  22.256   8.778
 1126POPC   C2B18440  31.784  22.463   8.376
 1126POPC   C3B18441  31.879  22.642   7.987
 1126POPC   C4B18442  31.963  22.601   7.565
 1127POPC   NC318443  15.189  21.201   9.366
 1127POPC   PO418444  15.098  20.571   9.631
 1127POPC   GL118445  15.005  20.634   9.205
 1127POPC   GL218446  14.796  20.885   9.067
 1127POPC   C1A18447  15.262  20.736   8.867
 1127POPC   D2A18448  15.339  20.766   8.463
 1127POPC   C3A18449  15.081  20.630   8.164
 1127POPC   C4A18450  15.213  20.714   7.772
 1127POPC   C1B18451  14.943  21.077   8.684
 1127POPC   C2B18452  14.759  21.005   8.300
 1127POPC   C3B18453  14.879  21.074   7.874
 1127POPC   C4B18454  15.096  21.097   7.465
 1128POPC   NC318455  11.442  33.436   9.492
 1128POPC   PO418456  10.924  33.785   9.616
 1128POPC   GL118457  11.245  33.889   9.271
 1128POPC   GL218458  11.488  34.184   9.256
 1128POPC   C1A18459  11.221  33.682   8.853
 1128POPC   D2A18460  11.208  33.875   8.441
 1128POPC   C3A18461  11.396  33.737   8.095
 1128POPC   C4A18462  11.397  33.744   7.700
 1128POPC   C1B18463  11.465  34.138   8.798
 1128POPC   C2B18464  11.683  34.057   8.380
 1128POPC   C3B18465  11.641  34.176   7.954
 1128POPC   C4B18466  11.211  34.246   7.816
 1129POPC   NC318467  37.027  33.943   9.489
 1129POPC   PO418468  36.548  33.487   9.518
 1129POPC   GL118469  36.771  33.708   9.116
 1129POPC   GL218470  36.782  34.073   9.039
 1129POPC   C1A18471  36.822  33.741   8.662
 1129POPC   D2A18472  36.544  33.733   8.305
 1129POPC   C3A18473  36.834  33.746   7.937
 1129POPC   C4A18474  36.848  33.847   7.503
 1129POPC   C1B18475  36.546  34.177   8.673
 1129POPC   C2B18476  36.817  34.163   8.313
 1129POPC   C3B18477  37.132  34.202   8.000
 1129POPC   C4B18478  37.268  34.127   7.587
 1130POPC   NC318479   4.149   9.716   9.597
 1130POPC   PO418480   4.765   9.802   9.535
 1130POPC   GL118481   4.417   9.800   9.185
 1130POPC   GL218482   4.036   9.963   9.150
 1130POPC   C1A18483   4.362   9.893   8.763
 1130POPC   D2A18484   4.239   9.664   8.396
 1130POPC   C3A18485   4.271   9.808   7.977
 1130POPC   C4A18486   4.235   9.778   7.487
 1130POPC   C1B18487   3.935  10.171   8.698
 1130POPC   C2B18488   3.916  10.127   8.198
 1130POPC   C3B18489   4.026  10.169   7.744
 1130POPC   C4B18490   3.860  10.122   7.335
 1131POPC   NC318491  36.456  22.998   9.540
 1131POPC   PO418492  35.907  22.494   9.682
 1131POPC   GL118493  35.950  22.784   9.267
 1131POPC   GL218494  36.157  23.029   9.147
 1131POPC   C1A18495  35.929  22.830   8.759
 1131POPC   D2A18496  36.185  22.628   8.389
 1131POPC   C3A18497  36.036  22.713   7.976
 1131POPC   C4A18498  36.069  23.067   7.725
 1131POPC   C1B18499  36.276  23.212   8.764
 1131POPC   C2B18500  36.124  23.147   8.375
 1131POPC   C3B18501  36.414  23.038   8.116
 1131POPC   C4B18502  36.515  23.322   7.834
 1132POPC   NC318503  29.463  27.240   9.381
 1132POPC   PO418504  29.437  26.596   9.483
 1132POPC   GL118505  29.320  26.792   9.144
 1132POPC   GL218506  29.047  26.577   9.117
 1132POPC   C1A18507  29.242  26.883   8.740
 1132POPC   D2A18508  29.114  26.682   8.428
 1132POPC   C3A18509  29.168  27.003   8.162
 1132POPC   C4A18510  29.302  26.866   7.800
 1132POPC   C1B18511  28.750  26.616   8.785
 1132POPC   C2B18512  28.639  26.537   8.337
 1132POPC   C3B18513  28.829  26.686   7.976
 1132POPC   C4B18514  28.877  26.735   7.546
 1133POPC   NC318515  37.226  18.497   9.430
 1133POPC   PO418516  37.934  18.262   9.387
 1133POPC   GL118517  37.844  18.165   9.017
 1133POPC   GL218518  37.495  18.084   9.165
 1133POPC   C1A18519  37.579  18.287   8.694
 1133POPC   D2A18520  37.643  18.434   8.325
 1133POPC   C3A18521  38.001  18.384   8.093
 1133POPC   C4A18522  37.767  18.248   7.748
 1133POPC   C1B18523  37.222  17.954   8.852
 1133POPC   C2B18524  37.283  17.950   8.428
 1133POPC   C3B18525  37.448  17.971   8.032
 1133POPC   C4B18526  37.365  17.761   7.656
 1134POPC   NC318527   0.807  17.644   9.496
 1134POPC   PO418528   1.082  17.129   9.313
 1134POPC   GL118529   1.001  17.502   9.050
 1134POPC   GL218530   1.342  17.678   9.020
 1134POPC   C1A18531   0.970  17.754   8.669
 1134POPC   D2A18532   1.326  17.763   8.354
 1134POPC   C3A18533   1.183  17.746   7.953
 1134POPC   C4A18534   0.744  17.708   7.856
 1134POPC   C1B18535   1.321  17.360   8.664
 1134POPC   C2B18536   1.146  17.290   8.223
 1134POPC   C3B18537   1.085  17.285   7.757
 1134POPC   C4B18538   1.372  17.163   7.426
 1135POPC   NC318539  43.595   4.568   9.485
 1135POPC   PO418540  44.152   4.139   9.374
 1135POPC   GL118541  43.835   4.304   9.101
 1135POPC   GL218542  43.656   4.028   9.058
 1135POPC   C1A18543  43.850   4.447   8.670
 1135POPC   D2A18544  43.851   4.514   8.244
 1135POPC   C3A18545  43.736   4.372   7.856
 1135POPC   C4A18546  44.134   4.506   7.695
 1135POPC   C1B18547  43.832   3.944   8.671
 1135POPC   C2B18548  43.781   3.977   8.231
 1135POPC   C3B18549  44.063   3.993   7.892
 1135POPC   C4B18550  44.112   4.054   7.461
 1136POPC   NC318551  32.048  43.129   9.341
 1136POPC   PO418552  32.527  43.484   9.688
 1136POPC   GL118553  32.520  43.319   9.248
 1136POPC   GL218554  32.496  42.967   9.184
 1136POPC   C1A18555  32.356  43.205   8.779
 1136POPC   D2A18556  32.399  43.138   8.354
 1136POPC   C3A18557  32.352  43.463   8.076
 1136POPC   C4A18558  32.238  43.329   7.649
 1136POPC   C1B18559  32.719  42.843   8.809
 1136POPC   C2B18560  32.653  42.693   8.372
 1136POPC   C3B18561  32.586  42.851   7.950
 1136POPC   C4B18562  32.600  42.887   7.516
 1137POPC   NC318563  13.914  41.521   9.616
 1137POPC   PO418564  14.574  41.802   9.595
 1137POPC   GL118565  14.582  41.707   9.183
 1137POPC   GL218566  14.290  41.549   9.207
 1137POPC   C1A18567  14.674  41.550   8.774
 1137POPC   D2A18568  14.511  41.778   8.409
 1137POPC   C3A18569  14.642  41.599   8.040
 1137POPC   C4A18570  14.902  41.569   7.723
 1137POPC   C1B18571  14.196  41.746   8.826
 1137POPC   C2B18572  14.012  41.598   8.454
 1137POPC   C3B18573  14.132  41.604   8.047
 1137POPC   C4B18574  13.937  41.586   7.673
 1138POPC   NC318575   2.591  42.576   9.440
 1138POPC   PO418576   3.123  42.089   9.527
 1138POPC   GL118577   2.943  42.060   9.101
 1138POPC   GL218578   2.602  42.189   9.095
 1138POPC   C1A18579   2.904  42.234   8.683
 1138POPC   D2A18580   2.801  42.454   8.305
 1138POPC   C3A18581   3.013  42.260   7.975
 1138POPC   C4A18582   2.876  42.300   7.583
 1138POPC   C1B18583   2.429  42.016   8.732
 1138POPC   C2B18584   2.614  41.983   8.316
 1138POPC   C3B18585   2.509  42.175   7.920
 1138POPC   C4B18586   2.431  42.150   7.422
 1139POPC   NC318587  28.952  18.483   9.393
 1139POPC   PO418588  29.232  17.916   9.560
 1139POPC   GL118589  29.151  18.049   9.125
 1139POPC   GL218590  28.814  18.191   9.001
 1139POPC   C1A18591  29.287  18.300   8.761
 1139POPC   D2A18592  29.204  18.408   8.311
 1139POPC   C3A18593  29.272  18.258   7.877
 1139POPC   C4A18594  29.084  18.280   7.454
 1139POPC   C1B18595  28.956  17.941   8.630
 1139POPC   C2B18596  28.965  17.973   8.179
 1139POPC   C3B18597  28.833  17.947   7.756
 1139POPC   C4B18598  28.881  17.830   7.290
 1140POPC   NC318599  42.923  44.599   9.544
 1140POPC   PO418600  43.453   0.025   9.371
 1140POPC   GL118601  43.179  44.778   9.143
 1140POPC   GL218602  42.851  44.902   9.091
 1140POPC   C1A18603  43.220  44.620   8.753
 1140POPC   D2A18604  43.540  44.682   8.448
 1140POPC   C3A18605  43.485  44.502   8.041
 1140POPC   C4A18606  43.193  44.499   7.660
 1140POPC   C1B18607  43.042   0.120   8.739
 1140POPC   C2B18608  43.093  44.916   8.348
 1140POPC   C3B18609  42.884  44.714   8.030
 1140POPC   C4B18610  42.840  44.862   7.620
 1141POPC   NC318611  43.570  29.608   9.702
 1141POPC   PO418612  43.995  30.089   9.488
 1141POPC   GL118613  43.771  30.074   9.100
 1141POPC   GL218614  43.570  29.793   9.041
 1141POPC   C1A18615  43.908  29.874   8.693
 1141POPC   D2A18616  44.067  29.554   8.451
 1141POPC   C3A18617  44.071  29.722   8.063
 1141POPC   C4A18618  44.188  29.939   7.718
 1141POPC   C1B18619  43.432  30.072   8.703
 1141POPC   C2B18620  43.634  30.192   8.324
 1141POPC   C3B18621  43.678  30.029   7.915
 1141POPC   C4B18622  43.723  29.791   7.571
 1142POPC   NC318623  25.498  29.793   9.528
 1142POPC   PO418624  24.921  30.280   9.559
 1142POPC   GL118625  25.256  30.203   9.252
 1142POPC   GL218626  25.130  29.891   9.171
 1142POPC   C1A18627  25.423  30.132   8.823
 1142POPC   D2A18628  25.307  30.002   8.434
 1142POPC   C3A18629  25.542  30.039   8.090
 1142POPC   C4A18630  25.443  30.122   7.690
 1142POPC   C1B18631  25.227  29.628   8.806
 1142POPC   C2B18632  25.092  29.548   8.365
 1142POPC   C3B18633  25.170  29.732   7.923
 1142POPC   C4B18634  24.976  29.792   7.491
 1143POPC   NC318635  37.528  21.001   9.561
 1143POPC   PO418636  37.997  21.491   9.377
 1143POPC   GL118637  37.722  21.243   9.086
 1143POPC   GL218638  37.347  21.297   9.160
 1143POPC   C1A18639  37.826  21.213   8.623
 1143POPC   D2A18640  37.873  21.456   8.234
 1143POPC   C3A18641  37.671  21.283   7.865
 1143POPC   C4A18642  37.759  21.081   7.476
 1143POPC   C1B18643  37.405  21.520   8.744
 1143POPC   C2B18644  37.360  21.374   8.298
 1143POPC   C3B18645  37.208  21.494   7.854
 1143POPC   C4B18646  37.440  21.551   7.448
 1144POPC   NC318647  18.050  22.586   9.495
 1144POPC   PO418648  18.215  21.970   9.698
 1144POPC   GL118649  18.277  21.901   9.263
 1144POPC   GL218650  18.306  22.230   9.175
 1144POPC   C1A18651  18.135  21.882   8.811
 1144POPC   D2A18652  18.148  22.163   8.467
 1144POPC   C3A18653  18.133  21.927   8.074
 1144POPC   C4A18654  17.781  21.856   7.803
 1144POPC   C1B18655  18.607  22.021   8.870
 1144POPC   C2B18656  18.664  22.104   8.440
 1144POPC   C3B18657  18.460  22.319   8.093
 1144POPC   C4B18658  18.558  22.013   7.764
 1145POPC   NC318659  34.112  23.091   9.430
 1145POPC   PO418660  33.407  22.892   9.418
 1145POPC   GL118661  33.736  22.992   9.104
 1145POPC   GL218662  33.944  22.712   9.065
 1145POPC   C1A18663  33.995  23.200   8.776
 1145POPC   D2A18664  33.768  23.219   8.399
 1145POPC   C3A18665  33.977  23.205   8.021
 1145POPC   C4A18666  33.599  23.042   7.858
 1145POPC   C1B18667  33.797  22.748   8.643
 1145POPC   C2B18668  33.951  22.739   8.227
 1145POPC   C3B18669  33.957  22.696   7.785
 1145POPC   C4B18670  33.943  22.630   7.316
 1146POPC   NC318671  37.439  38.875   9.594
 1146POPC   PO418672  37.881  39.305   9.748
 1146POPC   GL118673  37.899  39.053   9.302
 1146POPC   GL218674  37.589  39.010   9.109
 1146POPC   C1A18675  38.003  39.126   8.814
 1146POPC   D2A18676  37.822  38.924   8.416
 1146POPC   C3A18677  37.776  39.118   8.006
 1146POPC   C4A18678  38.001  39.169   7.650
 1146POPC   C1B18679  37.540  39.287   8.741
 1146POPC   C2B18680  37.734  39.441   8.403
 1146POPC   C3B18681  37.536  39.571   8.038
 1146POPC   C4B18682  37.422  39.428   7.647
 1147POPC   NC318683  35.583  44.008   9.326
 1147POPC   PO418684  35.126  43.549   9.367
 1147POPC   GL118685  35.103  43.892   9.067
 1147POPC   GL218686  35.383  43.741   8.950
 1147POPC   C1A18687  35.216  44.120   8.655
 1147POPC   D2A18688  35.088  43.957   8.231
 1147POPC   C3A18689  35.274  44.005   7.838
 1147POPC   C4A18690  35.679  44.163   7.706
 1147POPC   C1B18691  35.287  43.619   8.575
 1147POPC   C2B18692  35.194  43.464   8.191
 1147POPC   C3B18693  35.232  43.475   7.769
 1147POPC   C4B18694  35.289  43.364   7.326
 1148POPC   NC318695   4.771  34.971   9.594
 1148POPC   PO418696   4.153  34.990   9.480
 1148POPC   GL118697   4.489  35.203   9.216
 1148POPC   GL218698   4.687  34.933   9.051
 1148POPC   C1A18699   4.458  35.481   8.859
 1148POPC   D2A18700   4.211  35.546   8.463
 1148POPC   C3A18701   4.318  35.344   8.062
 1148POPC   C4A18702   4.160  35.337   7.650
 1148POPC   C1B18703   4.564  35.043   8.640
 1148POPC   C2B18704   4.673  34.987   8.230
 1148POPC   C3B18705   4.423  34.756   7.952
 1148POPC   C4B18706   4.011  34.878   7.829
 1149POPC   NC318707  13.706  44.157   9.499
 1149POPC   PO418708  14.175  43.650   9.393
 1149POPC   GL118709  13.751  43.771   9.176
 1149POPC   GL218710  13.396  44.013   9.131
 1149POPC   C1A18711  13.603  43.672   8.809
 1149POPC   D2A18712  13.517  43.779   8.437
 1149POPC   C3A18713  13.851  43.744   8.203
 1149POPC   C4A18714  13.619  43.978   7.926
 1149POPC   C1B18715  13.556  44.199   8.781
 1149POPC   C2B18716  13.677  44.279   8.384
 1149POPC   C3B18717  13.559  44.467   8.034
 1149POPC   C4B18718  13.354  44.361   7.679
 1150POPC   NC318719  10.552  43.053   9.597
 1150POPC   PO418720   9.932  43.080   9.492
 1150POPC   GL118721  10.290  43.021   9.167
 1150POPC   GL218722  10.594  43.267   9.131
 1150POPC   C1A18723  10.437  42.912   8.732
 1150POPC   D2A18724  10.761  42.820   8.444
 1150POPC   C3A18725  10.912  43.117   8.187
 1150POPC   C4A18726  10.679  43.251   7.839
 1150POPC   C1B18727  10.724  43.332   8.699
 1150POPC   C2B18728  10.466  43.302   8.354
 1150POPC   C3B18729  10.316  42.980   8.136
 1150POPC   C4B18730  10.281  42.900   7.702
 1151POPC   NC318731  35.117  25.984   9.364
 1151POPC   PO418732  35.573  26.518   9.472
 1151POPC   GL118733  35.370  26.340   9.094
 1151POPC   GL218734  35.034  26.417   9.082
 1151POPC   C1A18735  35.342  26.017   8.742
 1151POPC   D2A18736  35.536  26.020   8.325
 1151POPC   C3A18737  35.433  25.910   7.902
 1151POPC   C4A18738  35.073  25.681   7.792
 1151POPC   C1B18739  35.086  26.425   8.593
 1151POPC   C2B18740  35.083  26.244   8.165
 1151POPC   C3B18741  35.212  26.379   7.750
 1151POPC   C4B18742  35.575  26.249   7.460
 1152POPC   NC318743  15.629  36.065   9.481
 1152POPC   PO418744  15.083  36.530   9.421
 1152POPC   GL118745  15.127  36.219   9.134
 1152POPC   GL218746  14.916  36.354   8.874
 1152POPC   C1A18747  15.367  36.138   8.769
 1152POPC   D2A18748  15.142  36.102   8.402
 1152POPC   C3A18749  15.323  36.122   7.978
 1152POPC   C4A18750  15.216  35.785   7.706
 1152POPC   C1B18751  15.024  36.591   8.522
 1152POPC   C2B18752  14.930  36.463   8.113
 1152POPC   C3B18753  14.788  36.493   7.718
 1152POPC   C4B18754  14.602  36.311   7.388
 1153POPC   NC318755  43.209   3.445   9.538
 1153POPC   PO418756  43.393   4.082   9.489
 1153POPC   GL118757  43.196   3.811   9.160
 1153POPC   GL218758  43.029   3.478   9.071
 1153POPC   C1A18759  43.058   3.879   8.758
 1153POPC   D2A18760  43.297   3.779   8.398
 1153POPC   C3A18761  43.012   3.642   8.099
 1153POPC   C4A18762  42.839   3.908   7.753
 1153POPC   C1B18763  43.059   3.368   8.648
 1153POPC   C2B18764  43.294   3.217   8.337
 1153POPC   C3B18765  43.185   3.175   7.928
 1153POPC   C4B18766  42.957   3.418   7.642
 1154POPC   NC318767  31.689   2.483   9.756
 1154POPC   PO418768  31.182   2.286   9.627
 1154POPC   GL118769  31.400   2.496   9.278
 1154POPC   GL218770  31.353   2.339   8.939
 1154POPC   C1A18771  31.423   2.844   8.952
 1154POPC   D2A18772  31.389   3.109   8.557
 1154POPC   C3A18773  31.359   2.920   8.145
 1154POPC   C4A18774  31.423   2.648   7.816
 1154POPC   C1B18775  31.180   2.598   8.563
 1154POPC   C2B18776  30.995   2.555   8.139
 1154POPC   C3B18777  31.039   2.313   7.740
 1154POPC   C4B18778  31.307   2.334   7.363
 1155POPC   NC318779  35.479  24.682   9.428
 1155POPC   PO418780  35.071  24.204   9.458
 1155POPC   GL118781  35.347  24.292   9.128
 1155POPC   GL218782  35.098  24.587   9.084
 1155POPC   C1A18783  35.494  24.504   8.740
 1155POPC   D2A18784  35.573  24.430   8.302
 1155POPC   C3A18785  35.328  24.328   7.961
 1155POPC   C4A18786  35.460  24.634   7.687
 1155POPC   C1B18787  35.028  24.308   8.747
 1155POPC   C2B18788  35.067  24.532   8.379
 1155POPC   C3B18789  35.160  24.806   8.073
 1155POPC   C4B18790  35.026  24.903   7.677
 1156POPC   NC318791  42.925  42.875   9.759
 1156POPC   PO418792  43.329  43.400   9.658
 1156POPC   GL118793  43.225  43.168   9.281
 1156POPC   GL218794  42.933  42.934   9.260
 1156POPC   C1A18795  43.093  43.183   8.846
 1156POPC   D2A18796  42.911  43.047   8.452
 1156POPC   C3A18797  43.181  43.161   8.112
 1156POPC   C4A18798  43.458  43.276   7.778
 1156POPC   C1B18799  42.809  42.744   8.876
 1156POPC   C2B18800  42.884  42.523   8.493
 1156POPC   C3B18801  42.986  42.666   8.084
 1156POPC   C4B18802  42.808  42.957   7.814
 1157POPC   NC318803  30.261  24.110   9.304
 1157POPC   PO418804  30.233  23.404   9.411
 1157POPC   GL118805  30.530  23.684   9.129
 1157POPC   GL218806  30.905  23.730   9.116
 1157POPC   C1A18807  30.619  23.763   8.673
 1157POPC   D2A18808  30.792  23.561   8.291
 1157POPC   C3A18809  30.622  23.658   7.877
 1157POPC   C4A18810  30.332  23.956   7.636
 1157POPC   C1B18811  31.068  23.988   8.780
 1157POPC   C2B18812  31.042  24.030   8.343
 1157POPC   C3B18813  30.788  24.139   8.007
 1157POPC   C4B18814  30.852  24.009   7.593
 1158POPC   NC318815  10.490  22.153   9.651
 1158POPC   PO418816  10.193  22.540   9.196
 1158POPC   GL118817  10.471  22.150   9.152
 1158POPC   GL218818  10.842  22.139   9.277
 1158POPC   C1A18819  10.579  21.868   8.831
 1158POPC   D2A18820  10.329  21.992   8.473
 1158POPC   C3A18821  10.490  21.965   8.072
 1158POPC   C4A18822  10.461  22.152   7.665
 1158POPC   C1B18823  10.911  22.281   8.839
 1158POPC   C2B18824  10.888  22.079   8.422
 1158POPC   C3B18825  10.966  22.178   7.973
 1158POPC   C4B18826  11.040  22.464   7.633
 1159POPC   NC318827  26.867   3.785   9.449
 1159POPC   PO418828  27.188   3.160   9.554
 1159POPC   GL118829  27.096   3.430   9.154
 1159POPC   GL218830  27.219   3.775   9.076
 1159POPC   C1A18831  27.025   3.368   8.688
 1159POPC   D2A18832  27.054   3.152   8.301
 1159POPC   C3A18833  26.837   3.322   7.975
 1159POPC   C4A18834  26.886   3.406   7.555
 1159POPC   C1B18835  27.033   3.885   8.686
 1159POPC   C2B18836  26.942   3.736   8.264
 1159POPC   C3B18837  27.080   3.842   7.838
 1159POPC   C4B18838  26.906   3.890   7.415
 1160POPC   NC318839  40.660  19.238   9.559
 1160POPC   PO418840  40.763  18.640   9.441
 1160POPC   GL118841  40.695  18.939   9.071
 1160POPC   GL218842  40.842  19.289   9.069
 1160POPC   C1A18843  40.645  19.000   8.609
 1160POPC   D2A18844  40.903  18.864   8.289
 1160POPC   C3A18845  40.734  18.847   7.924
 1160POPC   C4A18846  40.328  18.864   7.723
 1160POPC   C1B18847  40.894  19.456   8.633
 1160POPC   C2B18848  40.798  19.358   8.186
 1160POPC   C3B18849  40.677  19.341   7.757
 1160POPC   C4B18850  40.591  19.387   7.318
 1161POPC   NC318851  14.000  20.917   9.350
 1161POPC   PO418852  13.520  20.498   9.510
 1161POPC   GL118853  13.411  20.585   9.082
 1161POPC   GL218854  13.673  20.783   8.991
 1161POPC   C1A18855  13.485  20.534   8.596
 1161POPC   D2A18856  13.752  20.652   8.235
 1161POPC   C3A18857  13.748  20.480   7.824
 1161POPC   C4A18858  13.397  20.486   7.524
 1161POPC   C1B18859  13.744  21.028   8.616
 1161POPC   C2B18860  13.480  21.085   8.255
 1161POPC   C3B18861  13.418  20.889   7.855
 1161POPC   C4B18862  13.768  20.892   7.521
 1162POPC   NC318863  30.784  42.331   9.611
 1162POPC   PO418864  31.488  42.188   9.632
 1162POPC   GL118865  31.229  42.240   9.296
 1162POPC   GL218866  31.238  41.965   9.162
 1162POPC   C1A18867  31.256  42.338   8.821
 1162POPC   D2A18868  31.583  42.302   8.498
 1162POPC   C3A18869  31.466  42.409   8.089
 1162POPC   C4A18870  31.492  42.722   7.775
 1162POPC   C1B18871  31.574  41.904   8.848
 1162POPC   C2B18872  31.662  41.789   8.397
 1162POPC   C3B18873  31.708  41.968   7.967
 1162POPC   C4B18874  31.684  42.188   7.551
 1163POPC   NC318875  14.805  37.570   9.617
 1163POPC   PO418876  15.386  37.776   9.787
 1163POPC   GL118877  15.291  37.597   9.346
 1163POPC   GL218878  15.586  37.658   9.195
 1163POPC   C1A18879  15.198  37.688   8.852
 1163POPC   D2A18880  15.052  37.522   8.414
 1163POPC   C3A18881  15.193  37.721   7.999
 1163POPC   C4A18882  15.150  37.602   7.544
 1163POPC   C1B18883  15.721  37.585   8.798
 1163POPC   C2B18884  15.565  37.708   8.413
 1163POPC   C3B18885  15.608  37.443   8.094
 1163POPC   C4B18886  15.417  37.216   7.784
 1164POPC   NC318887  29.551  30.022   9.411
 1164POPC   PO418888  28.835  29.725   9.436
 1164POPC   GL118889  29.043  29.838   9.060
 1164POPC   GL218890  28.979  30.156   8.883
 1164POPC   C1A18891  29.042  29.721   8.626
 1164POPC   D2A18892  29.308  29.861   8.321
 1164POPC   C3A18893  29.088  30.011   8.008
 1164POPC   C4A18894  28.994  29.876   7.632
 1164POPC   C1B18895  29.448  30.089   8.752
 1164POPC   C2B18896  29.718  30.164   8.359
 1164POPC   C3B18897  29.572  30.153   7.925
 1164POPC   C4B18898  29.273  30.309   7.618
 1165POPC   NC318899   5.427   5.933   9.369
 1165POPC   PO418900   4.936   6.301   9.503
 1165POPC   GL118901   5.060   6.154   9.064
 1165POPC   GL218902   4.974   5.816   9.116
 1165POPC   C1A18903   5.288   5.904   8.712
 1165POPC   D2A18904   5.484   5.736   8.328
 1165POPC   C3A18905   5.358   5.881   7.941
 1165POPC   C4A18906   5.411   5.664   7.577
 1165POPC   C1B18907   4.786   5.894   8.704
 1165POPC   C2B18908   4.966   6.058   8.312
 1165POPC   C3B18909   4.847   5.949   7.900
 1165POPC   C4B18910   4.505   5.677   7.752
 1166POPC   NC318911  37.863  41.332   9.553
 1166POPC   PO418912  37.883  40.622   9.605
 1166POPC   GL118913  37.766  40.883   9.215
 1166POPC   GL218914  37.454  41.087   9.191
 1166POPC   C1A18915  37.595  40.711   8.804
 1166POPC   D2A18916  37.665  40.472   8.408
 1166POPC   C3A18917  37.592  40.661   7.996
 1166POPC   C4A18918  37.650  40.633   7.538
 1166POPC   C1B18919  37.703  41.215   8.812
 1166POPC   C2B18920  37.766  41.030   8.401
 1166POPC   C3B18921  37.895  41.092   7.986
 1166POPC   C4B18922  37.657  41.131   7.628
 1167POPC   NC318923  13.080  43.301   9.534
 1167POPC   PO418924  12.627  42.823   9.533
 1167POPC   GL118925  12.854  42.940   9.181
 1167POPC   GL218926  13.145  43.105   9.073
 1167POPC   C1A18927  12.707  43.095   8.780
 1167POPC   D2A18928  12.678  42.888   8.381
 1167POPC   C3A18929  12.718  43.171   8.094
 1167POPC   C4A18930  12.509  43.190   7.736
 1167POPC   C1B18931  13.168  43.428   8.779
 1167POPC   C2B18932  13.073  43.530   8.336
 1167POPC   C3B18933  13.335  43.538   7.954
 1167POPC   C4B18934  13.415  43.323   7.540
 1168POPC   NC318935  16.651  15.091   9.602
 1168POPC   PO418936  17.197  15.092   9.503
 1168POPC   GL118937  16.893  15.113   9.123
 1168POPC   GL218938  16.517  15.180   9.107
 1168POPC   C1A18939  16.856  15.109   8.643
 1168POPC   D2A18940  17.009  14.906   8.245
 1168POPC   C3A18941  16.713  14.911   7.904
 1168POPC   C4A18942  16.254  14.897   7.872
 1168POPC   C1B18943  16.361  15.268   8.666
 1168POPC   C2B18944  16.463  15.205   8.228
 1168POPC   C3B18945  16.417  15.368   7.774
 1168POPC   C4B18946  16.577  15.502   7.346
 1169POPC   NC318947   3.606  37.184   9.757
 1169POPC   PO418948   3.869  36.596   9.486
 1169POPC   GL118949   3.603  36.892   9.235
 1169POPC   GL218950   3.302  36.772   9.051
 1169POPC   C1A18951   3.624  37.169   8.843
 1169POPC   D2A18952   3.473  37.321   8.426
 1169POPC   C3A18953   3.590  37.153   8.010
 1169POPC   C4A18954   3.716  37.020   7.600
 1169POPC   C1B18955   3.644  36.670   8.753
 1169POPC   C2B18956   3.613  36.739   8.329
 1169POPC   C3B18957   3.582  36.621   7.907
 1169POPC   C4B18958   3.316  36.688   7.562
 1170POPC   NC318959  40.145  29.249   9.431
 1170POPC   PO418960  39.474  29.408   9.488
 1170POPC   GL118961  39.716  29.205   9.153
 1170POPC   GL218962  39.866  29.491   9.030
 1170POPC   C1A18963  39.886  29.062   8.743
 1170POPC   D2A18964  40.128  29.108   8.360
 1170POPC   C3A18965  40.117  28.794   8.037
 1170POPC   C4A18966  39.891  28.796   7.662
 1170POPC   C1B18967  40.180  29.511   8.706
 1170POPC   C2B18968  40.499  29.482   8.383
 1170POPC   C3B18969  40.362  29.495   7.950
 1170POPC   C4B18970  40.016  29.284   7.725
 1171POPC   NC318971   6.497  17.143   9.422
 1171POPC   PO418972   7.084  17.429   9.538
 1171POPC   GL118973   6.875  17.405   9.141
 1171POPC   GL218974   6.614  17.634   9.078
 1171POPC   C1A18975   6.649  17.236   8.768
 1171POPC   D2A18976   6.757  17.096   8.376
 1171POPC   C3A18977   6.605  17.318   8.032
 1171POPC   C4A18978   6.881  17.188   7.740
 1171POPC   C1B18979   6.827  17.895   8.800
 1171POPC   C2B18980   6.791  17.675   8.418
 1171POPC   C3B18981   6.996  17.644   8.026
 1171POPC   C4B18982   6.815  17.686   7.605
 1172POPC   NC318983  22.528  11.044   9.258
 1172POPC   PO418984  22.542  11.653   9.570
 1172POPC   GL118985  22.404  11.547   9.136
 1172POPC   GL218986  22.140  11.334   9.088
 1172POPC   C1A18987  22.487  11.362   8.691
 1172POPC   D2A18988  22.296  11.197   8.322
 1172POPC   C3A18989  22.271  11.497   8.005
 1172POPC   C4A18990  22.139  11.572   7.610
 1172POPC   C1B18991  21.972  11.174   8.727
 1172POPC   C2B18992  21.873  10.916   8.357
 1172POPC   C3B18993  21.875  11.085   7.917
 1172POPC   C4B18994  21.852  10.976   7.426
 1173POPC   NC318995  39.362   7.950   9.533
 1173POPC   PO418996  38.832   8.431   9.728
 1173POPC   GL118997  38.975   8.258   9.235
 1173POPC   GL218998  39.117   8.541   9.024
 1173POPC   C1A18999  39.209   8.091   8.837
 1173POPC   D2A19000  39.219   8.335   8.444
 1173POPC   C3A19001  39.365   8.142   8.052
 1173POPC   C4A19002  39.267   7.930   7.677
 1173POPC   C1B19003  38.839   8.595   8.690
 1173POPC   C2B19004  38.788   8.682   8.239
 1173POPC   C3B19005  38.850   8.373   7.976
 1173POPC   C4B19006  38.965   8.335   7.562
 1174POPC   NC319007  22.138  26.516   9.782
 1174POPC   PO419008  21.388  26.664   9.566
 1174POPC   GL119009  21.253  26.902   9.154
 1174POPC   GL219010  21.522  27.133   9.052
 1174POPC   C1A19011  21.173  26.794   8.715
 1174POPC   D2A19012  21.405  26.737   8.323
 1174POPC   C3A19013  21.321  26.615   7.891
 1174POPC   C4A19014  21.280  26.647   7.402
 1174POPC   C1B19015  21.805  27.274   8.748
 1174POPC   C2B19016  21.889  27.182   8.332
 1174POPC   C3B19017  21.691  26.963   7.980
 1174POPC   C4B19018  21.484  27.051   7.648
 1175POPC   NC319019  34.209  34.093   9.498
 1175POPC   PO419020  34.647  34.637   9.518
 1175POPC   GL119021  34.604  34.464   9.147
 1175POPC   GL219022  34.511  34.820   9.036
 1175POPC   C1A19023  34.360  34.389   8.787
 1175POPC   D2A19024  34.315  34.613   8.425
 1175POPC   C3A19025  34.505  34.394   8.132
 1175POPC   C4A19026  34.367  34.165   7.839
 1175POPC   C1B19027  34.566  35.040   8.632
 1175POPC   C2B19028  34.785  34.898   8.252
 1175POPC   C3B19029  34.626  34.782   7.846
 1175POPC   C4B19030  34.775  34.781   7.442
 1176POPC   NC319031  44.454  17.942   9.868
 1176POPC   PO419032  44.487  17.335   9.534
 1176POPC   GL119033  44.782  17.481   9.230
 1176POPC   GL219034   0.071  17.306   9.260
 1176POPC   C1A19035  44.790  17.642   8.812
 1176POPC   D2A19036  44.650  17.820   8.439
 1176POPC   C3A19037  44.562  17.547   8.131
 1176POPC   C4A19038  44.704  17.530   7.724
 1176POPC   C1B19039   0.100  17.225   8.834
 1176POPC   C2B19040  44.871  17.287   8.436
 1176POPC   C3B19041  44.965  17.163   8.006
 1176POPC   C4B19042   0.062  17.179   7.575
 1177POPC   NC319043  32.994  43.448   9.563
 1177POPC   PO419044  32.851  44.152   9.345
 1177POPC   GL119045  33.103  43.852   9.124
 1177POPC   GL219046  33.270  43.530   9.137
 1177POPC   C1A19047  33.015  43.857   8.701
 1177POPC   D2A19048  32.894  43.679   8.358
 1177POPC   C3A19049  33.058  43.811   7.972
 1177POPC   C4A19050  33.102  44.192   7.744
 1177POPC   C1B19051  33.340  43.404   8.696
 1177POPC   C2B19052  33.328  43.431   8.246
 1177POPC   C3B19053  33.622  43.571   7.937
 1177POPC   C4B19054  33.560  43.506   7.531
 1178POPC   NC319055  16.126  10.380   9.538
 1178POPC   PO419056  16.762  10.486   9.535
 1178POPC   GL119057  16.720  10.402   9.122
 1178POPC   GL219058  16.363  10.413   9.090
 1178POPC   C1A19059  16.895  10.215   8.756
 1178POPC   D2A19060  16.759  10.240   8.336
 1178POPC   C3A19061  16.858  10.530   8.032
 1178POPC   C4A19062  16.895  10.210   7.740
 1178POPC   C1B19063  16.449  10.457   8.665
 1178POPC   C2B19064  16.367  10.518   8.221
 1178POPC   C3B19065  16.404  10.548   7.808
 1178POPC   C4B19066  16.499  10.411   7.434
 1179POPC   NC319067  41.505  24.482   9.638
 1179POPC   PO419068  41.952  24.973   9.672
 1179POPC   GL119069  41.755  24.826   9.293
 1179POPC   GL219070  41.851  24.489   9.247
 1179POPC   C1A19071  41.535  24.805   8.881
 1179POPC   D2A19072  41.309  24.496   8.614
 1179POPC   C3A19073  41.338  24.507   8.179
 1179POPC   C4A19074  41.311  24.403   7.763
 1179POPC   C1B19075  41.945  24.467   8.817
 1179POPC   C2B19076  41.821  24.514   8.400
 1179POPC   C3B19077  41.801  24.460   7.968
 1179POPC   C4B19078  41.691  24.076   7.827
 1180POPC   NC319079  33.492  26.559   9.285
 1180POPC   PO419080  34.010  26.902   9.592
 1180POPC   GL119081  33.989  26.688   9.220
 1180POPC   GL219082  33.752  26.961   9.089
 1180POPC   C1A19083  34.024  26.670   8.775
 1180POPC   D2A19084  33.690  26.803   8.503
 1180POPC   C3A19085  33.665  26.513   8.176
 1180POPC   C4A19086  33.814  26.591   7.757
 1180POPC   C1B19087  33.395  27.107   8.816
 1180POPC   C2B19088  33.410  27.267   8.398
 1180POPC   C3B19089  33.557  27.022   8.034
 1180POPC   C4B19090  33.644  27.039   7.591
 1181POPC   NC319091  15.146  44.589   9.624
 1181POPC   PO419092  14.820  44.694   9.094
 1181POPC   GL119093  15.247  44.523   9.086
 1181POPC   GL219094  15.374  44.849   9.191
 1181POPC   C1A19095  15.346  44.434   8.631
 1181POPC   D2A19096  14.965  44.571   8.368
 1181POPC   C3A19097  14.979  44.649   7.903
 1181POPC   C4A19098  15.351  44.559   7.667
 1181POPC   C1B19099  15.425  44.936   8.753
 1181POPC   C2B19100  15.280  44.999   8.312
 1181POPC   C3B19101  15.507   0.035   7.910
 1181POPC   C4B19102  15.664  44.940   7.486
 1182POPC   NC319103  26.034  21.171   9.529
 1182POPC   PO419104  26.517  21.650   9.551
 1182POPC   GL119105  26.332  21.430   9.178
 1182POPC   GL219106  25.993  21.531   9.136
 1182POPC   C1A19107  26.170  21.201   8.796
 1182POPC   D2A19108  25.869  21.060   8.477
 1182POPC   C3A19109  25.990  21.193   8.072
 1182POPC   C4A19110  26.143  21.224   7.649
 1182POPC   C1B19111  25.840  21.608   8.696
 1182POPC   C2B19112  25.843  21.781   8.263
 1182POPC   C3B19113  25.902  21.638   7.829
 1182POPC   C4B19114  25.816  21.570   7.364
 1183POPC   NC319115   9.310  35.453   9.345
 1183POPC   PO419116   9.914  35.327   9.528
 1183POPC   GL119117   9.760  35.362   9.125
 1183POPC   GL219118   9.795  35.033   9.138
 1183POPC   C1A19119   9.971  35.243   8.722
 1183POPC   D2A19120  10.193  35.341   8.392
 1183POPC   C3A19121  10.046  35.247   8.012
 1183POPC   C4A19122   9.911  35.515   7.692
 1183POPC   C1B19123   9.503  35.044   8.782
 1183POPC   C2B19124   9.633  35.100   8.355
 1183POPC   C3B19125   9.549  35.267   7.958
 1183POPC   C4B19126   9.709  35.068   7.572
 1184POPC   NC319127   8.529  15.554   9.750
 1184POPC   PO419128   8.198  16.153   9.439
 1184POPC   GL119129   8.276  16.021   9.041
 1184POPC   GL219130   8.079  15.747   9.013
 1184POPC   C1A19131   8.311  15.869   8.601
 1184POPC   D2A19132   8.043  15.990   8.265
 1184POPC   C3A19133   8.214  15.932   7.890
 1184POPC   C4A19134   8.443  16.274   7.717
 1184POPC   C1B19135   7.790  15.790   8.676
 1184POPC   C2B19136   7.681  15.653   8.275
 1184POPC   C3B19137   7.712  15.870   7.854
 1184POPC   C4B19138   7.886  15.675   7.465
 1185POPC   NC319139  30.560  37.829   9.496
 1185POPC   PO419140  30.989  37.987   9.084
 1185POPC   GL119141  30.577  37.878   8.979
 1185POPC   GL219142  30.548  37.539   9.090
 1185POPC   C1A19143  30.432  38.100   8.622
 1185POPC   D2A19144  30.648  38.190   8.227
 1185POPC   C3A19145  30.576  37.987   7.818
 1185POPC   C4A19146  30.964  37.841   7.652
 1185POPC   C1B19147  30.858  37.452   8.775
 1185POPC   C2B19148  30.784  37.342   8.391
 1185POPC   C3B19149  30.875  37.497   8.026
 1185POPC   C4B19150  30.627  37.469   7.718
 1186POPC   NC319151   0.200   6.001   9.452
 1186POPC   PO419152   0.837   5.998   9.450
 1186POPC   GL119153   0.588   5.853   9.109
 1186POPC   GL219154   0.228   5.734   9.029
 1186POPC   C1A19155   0.537   6.111   8.758
 1186POPC   D2A19156   0.384   6.093   8.371
 1186POPC   C3A19157   0.582   6.159   7.980
 1186POPC   C4A19158   0.496   5.800   7.737
 1186POPC   C1B19159   0.436   5.631   8.647
 1186POPC   C2B19160   0.661   5.459   8.333
 1186POPC   C3B19161   0.456   5.304   7.987
 1186POPC   C4B19162   0.524   5.322   7.567
 1187POPC   NC319163  24.847   1.310   9.508
 1187POPC   PO419164  25.506   0.963   9.591
 1187POPC   GL119165  25.214   1.064   9.245
 1187POPC   GL219166  25.509   1.117   9.078
 1187POPC   C1A19167  25.057   1.260   8.827
 1187POPC   D2A19168  25.215   1.293   8.394
 1187POPC   C3A19169  25.021   1.374   7.983
 1187POPC   C4A19170  25.246   1.326   7.583
 1187POPC   C1B19171  25.704   0.883   8.757
 1187POPC   C2B19172  25.679   1.071   8.375
 1187POPC   C3B19173  25.584   1.223   7.992
 1187POPC   C4B19174  25.887   1.051   7.705
 1188POPC   NC319175  36.435   6.356   9.507
 1188POPC   PO419176  36.056   6.935   9.457
 1188POPC   GL119177  36.132   6.858   9.061
 1188POPC   GL219178  36.122   6.495   9.070
 1188POPC   C1A19179  36.379   6.842   8.667
 1188POPC   D2A19180  36.670   6.866   8.314
 1188POPC   C3A19181  36.492   6.829   7.896
 1188POPC   C4A19182  36.128   6.866   7.635
 1188POPC   C1B19183  36.288   6.356   8.659
 1188POPC   C2B19184  36.383   6.388   8.222
 1188POPC   C3B19185  36.159   6.414   7.856
 1188POPC   C4B19186  36.221   6.307   7.426
 1189POPC   NC319187   3.683  41.595   9.883
 1189POPC   PO419188   4.311  41.537   9.561
 1189POPC   GL119189   4.228  41.647   9.137
 1189POPC   GL219190   4.193  41.335   8.945
 1189POPC   C1A19191   3.928  41.721   8.809
 1189POPC   D2A19192   4.063  41.479   8.433
 1189POPC   C3A19193   4.224  41.793   8.112
 1189POPC   C4A19194   4.278  41.692   7.668
 1189POPC   C1B19195   4.558  41.359   8.675
 1189POPC   C2B19196   4.812  41.186   8.318
 1189POPC   C3B19197   4.725  41.240   7.886
 1189POPC   C4B19198   4.783  41.619   7.668
 1190POPC   NC319199  43.123  39.103   9.587
 1190POPC   PO419200  43.477  39.665   9.472
 1190POPC   GL119201  43.292  39.320   9.165
 1190POPC   GL219202  42.994  39.065   9.102
 1190POPC   C1A19203  43.410  39.205   8.740
 1190POPC   D2A19204  43.597  39.257   8.314
 1190POPC   C3A19205  43.288  39.236   7.965
 1190POPC   C4A19206  43.258  39.468   7.556
 1190POPC   C1B19207  42.932  39.415   8.809
 1190POPC   C2B19208  42.892  39.464   8.363
 1190POPC   C3B19209  42.778  39.223   7.986
 1190POPC   C4B19210  42.726  39.373   7.572
 1191POPC   NC319211   3.549  36.241   9.564
 1191POPC   PO419212   4.023  35.890   9.435
 1191POPC   GL119213   3.860  36.182   9.112
 1191POPC   GL219214   3.511  36.300   9.080
 1191POPC   C1A19215   3.775  36.174   8.654
 1191POPC   D2A19216   3.568  36.251   8.281
 1191POPC   C3A19217   3.863  36.170   8.002
 1191POPC   C4A19218   3.910  35.810   7.732
 1191POPC   C1B19219   3.272  36.325   8.720
 1191POPC   C2B19220   3.101  36.448   8.365
 1191POPC   C3B19221   3.117  36.408   7.948
 1191POPC   C4B19222   3.043  36.117   7.667
 1192POPC   NC319223   9.465  15.483   9.535
 1192POPC   PO419224   9.971  14.999   9.643
 1192POPC   GL119225  10.036  15.048   9.170
 1192POPC   GL219226   9.818  15.340   9.125
 1192POPC   C1A19227   9.739  14.917   8.813
 1192POPC   D2A19228   9.533  15.100   8.439
 1192POPC   C3A19229   9.638  15.001   8.041
 1192POPC   C4A19230   9.978  14.939   7.798
 1192POPC   C1B19231   9.448  15.409   8.843
 1192POPC   C2B19232   9.347  15.577   8.408
 1192POPC   C3B19233   9.712  15.637   8.145
 1192POPC   C4B19234   9.790  15.434   7.737
 1193POPC   NC319235  33.236  35.539   9.366
 1193POPC   PO419236  33.122  35.008   9.665
 1193POPC   GL119237  33.100  35.050   9.188
 1193POPC   GL219238  33.383  35.188   8.996
 1193POPC   C1A19239  32.922  35.159   8.753
 1193POPC   D2A19240  32.748  35.215   8.312
 1193POPC   C3A19241  32.864  35.425   7.903
 1193POPC   C4A19242  33.165  35.648   7.629
 1193POPC   C1B19243  33.339  35.527   8.692
 1193POPC   C2B19244  33.214  35.544   8.258
 1193POPC   C3B19245  33.404  35.320   7.911
 1193POPC   C4B19246  33.581  35.437   7.476
 1194POPC   NC319247  10.066   1.176   9.718
 1194POPC   PO419248  10.706   1.088   9.601
 1194POPC   GL119249  10.451   1.243   9.305
 1194POPC   GL219250  10.276   1.019   9.219
 1194POPC   C1A19251  10.370   1.389   8.860
 1194POPC   D2A19252  10.600   1.408   8.455
 1194POPC   C3A19253  10.460   1.224   8.070
 1194POPC   C4A19254  10.400   1.380   7.665
 1194POPC   C1B19255  10.471   0.897   8.867
 1194POPC   C2B19256  10.405   0.872   8.453
 1194POPC   C3B19257  10.547   0.718   8.033
 1194POPC   C4B19258  10.365   0.868   7.614
 1195POPC   NC319259  37.216  24.235   9.490
 1195POPC   PO419260  36.614  24.400   9.357
 1195POPC   GL119261  36.969  24.447   9.094
 1195POPC   GL219262  37.014  24.103   9.047
 1195POPC   C1A19263  37.063  24.651   8.693
 1195POPC   D2A19264  36.929  24.866   8.321
 1195POPC   C3A19265  37.074  24.714   7.933
 1195POPC   C4A19266  36.765  24.637   7.627
 1195POPC   C1B19267  36.803  24.190   8.687
 1195POPC   C2B19268  36.805  24.370   8.288
 1195POPC   C3B19269  36.886  24.232   7.888
 1195POPC   C4B19270  37.147  24.311   7.502
 1196POPC   NC319271  10.818  28.607   9.634
 1196POPC   PO419272  10.709  28.003   9.476
 1196POPC   GL119273  10.704  28.411   9.175
 1196POPC   GL219274  10.804  28.806   9.171
 1196POPC   C1A19275  10.447  28.480   8.799
 1196POPC   D2A19276  10.270  28.196   8.467
 1196POPC   C3A19277  10.221  28.346   8.045
 1196POPC   C4A19278  10.559  28.389   7.784
 1196POPC   C1B19279  10.937  28.642   8.773
 1196POPC   C2B19280  10.760  28.478   8.374
 1196POPC   C3B19281  10.927  28.652   8.020
 1196POPC   C4B19282  10.847  28.995   7.754
 1197POPC   NC319283  41.472  31.474   9.452
 1197POPC   PO419284  42.049  31.137   9.416
 1197POPC   GL119285  41.780  31.259   9.091
 1197POPC   GL219286  41.456  31.056   9.145
 1197POPC   C1A19287  41.764  31.628   8.809
 1197POPC   D2A19288  41.851  31.829   8.403
 1197POPC   C3A19289  41.746  31.615   7.993
 1197POPC   C4A19290  41.766  31.662   7.552
 1197POPC   C1B19291  41.369  31.313   8.786
 1197POPC   C2B19292  41.412  31.518   8.395
 1197POPC   C3B19293  41.355  31.299   8.021
 1197POPC   C4B19294  41.534  31.180   7.621
 1198POPC   NC319295  27.035  40.103   9.585
 1198POPC   PO419296  26.565  39.582   9.546
 1198POPC   GL119297  26.688  39.826   9.202
 1198POPC   GL219298  26.733  40.193   9.191
 1198POPC   C1A19299  26.795  39.733   8.781
 1198POPC   D2A19300  27.039  39.870   8.446
 1198POPC   C3A19301  26.869  39.955   8.075
 1198POPC   C4A19302  27.102  40.114   7.772
 1198POPC   C1B19303  26.869  40.241   8.800
 1198POPC   C2B19304  26.678  40.271   8.432
 1198POPC   C3B19305  26.888  40.458   8.116
 1198POPC   C4B19306  27.020  40.658   7.747
 1199POPC   NC319307  15.819   9.785   9.749
 1199POPC   PO419308  16.411  10.037   9.708
 1199POPC   GL119309  16.146   9.933   9.279
 1199POPC   GL219310  16.013   9.593   9.280
 1199POPC   C1A19311  15.923   9.926   8.821
 1199POPC   D2A19312  15.732   9.990   8.359
 1199POPC   C3A19313  15.832   9.788   7.963
 1199POPC   C4A19314  16.015   9.941   7.578
 1199POPC   C1B19315  16.157   9.499   8.852
 1199POPC   C2B19316  16.062   9.594   8.416
 1199POPC   C3B19317  16.285   9.568   8.034
 1199POPC   C4B19318  16.191   9.449   7.635
 1200POPC   NC319319  16.917  11.935   9.485
 1200POPC   PO419320  16.474  12.371   9.612
 1200POPC   GL119321  16.581  12.157   9.183
 1200POPC   GL219322  16.534  11.775   9.171
 1200POPC   C1A19323  16.488  12.124   8.740
 1200POPC   D2A19324  16.735  12.063   8.365
 1200POPC   C3A19325  16.489  12.057   7.959
 1200POPC   C4A19326  16.471  12.344   7.615
 1200POPC   C1B19327  16.669  11.656   8.760
 1200POPC   C2B19328  16.779  11.544   8.310
 1200POPC   C3B19329  16.929  11.811   7.955
 1200POPC   C4B19330  16.803  11.938   7.509
 1201POPC   NC319331  22.735  43.643   9.430
 1201POPC   PO419332  22.446  44.236   9.438
 1201POPC   GL119333  22.720  44.066   9.121
 1201POPC   GL219334  23.088  44.000   9.146
 1201POPC   C1A19335  22.692  43.814   8.757
 1201POPC   D2A19336  22.827  43.669   8.377
 1201POPC   C3A19337  22.722  43.938   8.070
 1201POPC   C4A19338  22.493  43.886   7.715
 1201POPC   C1B19339  23.200  43.815   8.730
 1201POPC   C2B19340  23.198  43.995   8.293
 1201POPC   C3B19341  23.175  43.859   7.840
 1201POPC   C4B19342  23.176  43.882   7.356
 1202POPC   NC319343  11.000  16.032   9.480
 1202POPC   PO419344  11.654  15.770   9.567
 1202POPC   GL119345  11.452  15.827   9.174
 1202POPC   GL219346  11.154  15.689   9.147
 1202POPC   C1A19347  11.358  15.931   8.718
 1202POPC   D2A19348  11.056  16.124   8.391
 1202POPC   C3A19349  11.272  16.216   7.983
 1202POPC   C4A19350  11.464  15.879   7.768
 1202POPC   C1B19351  11.011  15.550   8.792
 1202POPC   C2B19352  11.002  15.589   8.343
 1202POPC   C3B19353  11.083  15.569   7.903
 1202POPC   C4B19354  11.029  15.717   7.493
 1203POPC   NC319355  43.399  31.852   9.502
 1203POPC   PO419356  44.090  31.919   9.642
 1203POPC   GL119357  43.936  32.216   9.229
 1203POPC   GL219358  43.595  32.158   9.135
 1203POPC   C1A19359  43.798  32.335   8.718
 1203POPC   D2A19360  43.657  32.151   8.280
 1203POPC   C3A19361  43.764  32.391   7.886
 1203POPC   C4A19362  44.034  32.639   7.594
 1203POPC   C1B19363  43.422  31.988   8.743
 1203POPC   C2B19364  43.481  31.685   8.418
 1203POPC   C3B19365  43.278  31.794   8.021
 1203POPC   C4B19366  43.528  31.970   7.681
 1204POPC   NC319367  41.179   7.041   9.555
 1204POPC   PO419368  40.573   7.456   9.534
 1204POPC   GL119369  40.856   7.457   9.248
 1204POPC   GL219370  40.818   7.129   9.210
 1204POPC   C1A19371  40.846   7.602   8.844
 1204POPC   D2A19372  40.822   7.402   8.462
 1204POPC   C3A19373  40.542   7.559   8.136
 1204POPC   C4A19374  40.712   7.605   7.729
 1204POPC   C1B19375  40.528   7.123   8.890
 1204POPC   C2B19376  40.480   7.043   8.479
 1204POPC   C3B19377  40.693   7.081   8.087
 1204POPC   C4B19378  40.566   7.098   7.697
 1205POPC   NC319379  21.408   2.942  10.023
 1205POPC   PO419380  21.125   2.470   9.754
 1205POPC   GL119381  21.204   2.418   9.264
 1205POPC   GL219382  21.547   2.325   9.116
 1205POPC   C1A19383  21.016   2.698   8.913
 1205POPC   D2A19384  21.011   2.727   8.430
 1205POPC   C3A19385  21.271   2.572   8.059
 1205POPC   C4A19386  21.267   2.724   7.649
 1205POPC   C1B19387  21.400   2.453   8.712
 1205POPC   C2B19388  21.599   2.733   8.395
 1205POPC   C3B19389  21.696   2.852   7.939
 1205POPC   C4B19390  21.755   2.609   7.534
 1206POPC   NC319391  43.771  19.729   9.779
 1206POPC   PO419392  43.988  20.263   9.431
 1206POPC   GL119393  43.881  19.945   9.143
 1206POPC   GL219394  43.834  19.585   9.190
 1206POPC   C1A19395  43.744  19.859   8.732
 1206POPC   D2A19396  43.777  19.971   8.318
 1206POPC   C3A19397  44.046  20.273   8.140
 1206POPC   C4A19398  43.963  20.039   7.751
 1206POPC   C1B19399  43.714  19.356   8.788
 1206POPC   C2B19400  43.550  19.513   8.374
 1206POPC   C3B19401  43.764  19.582   7.965
 1206POPC   C4B19402  43.817  19.348   7.557
 1207POPC   NC319403  23.403  30.724   9.426
 1207POPC   PO419404  22.816  30.435   9.704
 1207POPC   GL119405  22.741  30.583   9.251
 1207POPC   GL219406  22.650  30.930   9.145
 1207POPC   C1A19407  22.874  30.535   8.801
 1207POPC   D2A19408  22.992  30.206   8.481
 1207POPC   C3A19409  23.148  30.352   8.095
 1207POPC   C4A19410  22.925  30.620   7.784
 1207POPC   C1B19411  22.731  31.045   8.681
 1207POPC   C2B19412  22.868  31.042   8.208
 1207POPC   C3B19413  22.702  31.074   7.766
 1207POPC   C4B19414  22.668  30.948   7.301
 1208POPC   NC319415   8.545  24.813   9.268
 1208POPC   PO419416   9.064  24.500   9.568
 1208POPC   GL119417   8.857  24.397   9.142
 1208POPC   GL219418   8.791  24.674   8.863
 1208POPC   C1A19419   8.757  24.184   8.717
 1208POPC   D2A19420   8.833  24.374   8.284
 1208POPC   C3A19421   8.837  24.088   7.908
 1208POPC   C4A19422   8.621  24.129   7.485
 1208POPC   C1B19423   9.158  24.487   8.730
 1208POPC   C2B19424   9.345  24.413   8.346
 1208POPC   C3B19425   9.220  24.440   7.905
 1208POPC   C4B19426   9.160  24.697   7.525
 1209POPC   NC319427   2.567  20.374   9.645
 1209POPC   PO419428   2.971  20.906   9.493
 1209POPC   GL119429   2.613  20.695   9.206
 1209POPC   GL219430   2.616  20.322   9.127
 1209POPC   C1A19431   2.481  20.635   8.761
 1209POPC   D2A19432   2.756  20.669   8.389
 1209POPC   C3A19433   2.856  20.496   7.991
 1209POPC   C4A19434   2.671  20.621   7.614
 1209POPC   C1B19435   2.744  20.227   8.659
 1209POPC   C2B19436   2.512  20.194   8.265
 1209POPC   C3B19437   2.457  20.213   7.813
 1209POPC   C4B19438   2.468  20.245   7.353
 1210POPC   NC319439  35.184  43.118   9.546
 1210POPC   PO419440  35.830  43.008   9.827
 1210POPC   GL119441  35.700  43.041   9.336
 1210POPC   GL219442  35.619  43.397   9.261
 1210POPC   C1A19443  35.362  43.055   8.955
 1210POPC   D2A19444  35.383  43.128   8.529
 1210POPC   C3A19445  35.366  42.992   8.106
 1210POPC   C4A19446  35.384  42.681   7.818
 1210POPC   C1B19447  35.782  43.306   8.848
 1210POPC   C2B19448  35.797  43.422   8.419
 1210POPC   C3B19449  35.864  43.202   8.048
 1210POPC   C4B19450  35.608  43.159   7.694
 1211POPC   NC319451   1.719  37.758   9.535
 1211POPC   PO419452   1.147  37.372   9.490
 1211POPC   GL119453   1.396  37.527   9.168
 1211POPC   GL219454   1.297  37.888   9.134
 1211POPC   C1A19455   1.458  37.516   8.723
 1211POPC   D2A19456   1.260  37.610   8.280
 1211POPC   C3A19457   1.512  37.536   7.882
 1211POPC   C4A19458   1.431  37.571   7.418
 1211POPC   C1B19459   1.038  38.164   8.819
 1211POPC   C2B19460   0.773  38.181   8.437
 1211POPC   C3B19461   0.891  37.944   8.066
 1211POPC   C4B19462   1.262  37.971   7.787
 1212POPC   NC319463  15.748  20.688   9.724
 1212POPC   PO419464  16.320  20.792   9.417
 1212POPC   GL119465  15.920  20.769   9.170
 1212POPC   GL219466  15.545  20.758   9.271
 1212POPC   C1A19467  15.791  20.744   8.741
 1212POPC   D2A19468  16.026  20.586   8.393
 1212POPC   C3A19469  16.125  20.880   8.078
 1212POPC   C4A19470  16.032  20.583   7.769
 1212POPC   C1B19471  15.582  20.363   9.009
 1212POPC   C2B19472  15.591  20.311   8.530
 1212POPC   C3B19473  15.585  20.483   8.088
 1212POPC   C4B19474  15.532  20.328   7.653
 1213POPC   NC319475   4.765   8.753   9.603
 1213POPC   PO419476   4.379   9.256   9.574
 1213POPC   GL119477   4.360   9.110   9.175
 1213POPC   GL219478   4.522   8.778   9.114
 1213POPC   C1A19479   4.321   9.317   8.787
 1213POPC   D2A19480   4.220   9.151   8.386
 1213POPC   C3A19481   4.434   9.151   8.029
 1213POPC   C4A19482   4.171   9.344   7.785
 1213POPC   C1B19483   4.408   8.540   8.719
 1213POPC   C2B19484   4.462   8.690   8.296
 1213POPC   C3B19485   4.550   8.681   7.847
 1213POPC   C4B19486   4.279   8.572   7.500
 1214POPC   NC319487  20.358  34.416   9.603
 1214POPC   PO419488  20.985  34.733   9.579
 1214POPC   GL119489  21.060  34.543   9.201
 1214POPC   GL219490  20.737  34.352   9.223
 1214POPC   C1A19491  20.882  34.577   8.798
 1214POPC   D2A19492  20.605  34.560   8.475
 1214POPC   C3A19493  20.722  34.615   8.058
 1214POPC   C4A19494  20.908  34.490   7.684
 1214POPC   C1B19495  20.371  34.392   8.935
 1214POPC   C2B19496  20.140  34.381   8.544
 1214POPC   C3B19497  20.215  34.511   8.132
 1214POPC   C4B19498  20.296  34.286   7.738
 1215POPC   NC319499  35.059  13.059   9.436
 1215POPC   PO419500  35.452  12.543   9.463
 1215POPC   GL119501  35.421  12.869   9.128
 1215POPC   GL219502  35.080  12.897   8.949
 1215POPC   C1A19503  35.562  12.934   8.713
 1215POPC   D2A19504  35.434  12.849   8.297
 1215POPC   C3A19505  35.689  12.809   7.939
 1215POPC   C4A19506  35.313  12.648   7.712
 1215POPC   C1B19507  35.175  13.266   8.689
 1215POPC   C2B19508  35.459  13.342   8.375
 1215POPC   C3B19509  35.381  13.231   7.930
 1215POPC   C4B19510  35.338  13.111   7.520
 1216POPC   NC319511   5.295   5.046   9.811
 1216POPC   PO419512   5.588   5.545   9.567
 1216POPC   GL119513   5.366   5.470   9.132
 1216POPC   GL219514   5.021   5.302   9.103
 1216POPC   C1A19515   5.281   5.399   8.671
 1216POPC   D2A19516   4.985   5.557   8.348
 1216POPC   C3A19517   4.974   5.429   7.921
 1216POPC   C4A19518   5.172   5.207   7.584
 1216POPC   C1B19519   4.803   5.201   8.679
 1216POPC   C2B19520   4.938   5.032   8.266
 1216POPC   C3B19521   4.818   4.910   7.834
 1216POPC   C4B19522   4.909   4.791   7.370
 1217POPC   NC319523  43.301  10.684   9.499
 1217POPC   PO419524  42.897  10.309   9.888
 1217POPC   GL119525  42.880  10.318   9.391
 1217POPC   GL219526  42.972  10.026   9.235
 1217POPC   C1A19527  42.834  10.384   8.899
 1217POPC   D2A19528  42.979  10.565   8.483
 1217POPC   C3A19529  42.869  10.592   8.020
 1217POPC   C4A19530  43.270  10.709   7.802
 1217POPC   C1B19531  43.313  10.085   8.898
 1217POPC   C2B19532  43.440  10.311   8.521
 1217POPC   C3B19533  43.232  10.265   8.125
 1217POPC   C4B19534  43.285  10.201   7.708
 1218POPC   NC319535  11.521   4.621   9.887
 1218POPC   PO419536  12.098   4.997   9.619
 1218POPC   GL119537  11.992   5.130   9.204
 1218POPC   GL219538  11.679   5.020   9.097
 1218POPC   C1A19539  12.157   5.076   8.792
 1218POPC   D2A19540  12.003   4.981   8.389
 1218POPC   C3A19541  12.129   4.996   7.998
 1218POPC   C4A19542  11.938   5.018   7.627
 1218POPC   C1B19543  11.679   5.223   8.709
 1218POPC   C2B19544  11.809   5.460   8.367
 1218POPC   C3B19545  11.814   5.434   7.915
 1218POPC   C4B19546  11.818   5.526   7.488
 1219POPC   NC319547  20.649  39.774   9.349
 1219POPC   PO419548  20.160  40.215   9.385
 1219POPC   GL119549  20.450  40.160   9.040
 1219POPC   GL219550  20.816  40.167   9.011
 1219POPC   C1A19551  20.482  40.007   8.616
 1219POPC   D2A19552  20.254  40.100   8.222
 1219POPC   C3A19553  20.434  40.099   7.815
 1219POPC   C4A19554  20.782  40.361   7.739
 1219POPC   C1B19555  20.926  39.752   8.758
 1219POPC   C2B19556  20.856  39.644   8.342
 1219POPC   C3B19557  20.876  39.883   7.973
 1219POPC   C4B19558  20.822  39.825   7.550
 1220POPC   NC319559  27.719  22.409   9.483
 1220POPC   PO419560  27.986  23.057   9.500
 1220POPC   GL119561  27.832  22.913   9.142
 1220POPC   GL219562  27.491  23.045   9.062
 1220POPC   C1A19563  27.814  22.640   8.816
 1220POPC   D2A19564  27.546  22.692   8.467
 1220POPC   C3A19565  27.741  22.795   8.060
 1220POPC   C4A19566  27.831  22.529   7.692
 1220POPC   C1B19567  27.190  23.014   8.708
 1220POPC   C2B19568  26.998  23.158   8.327
 1220POPC   C3B19569  27.200  23.235   7.932
 1220POPC   C4B19570  27.493  23.074   7.627
 1221POPC   NC319571  34.942  40.354   9.362
 1221POPC   PO419572  34.357  39.914   9.543
 1221POPC   GL119573  34.352  40.111   9.140
 1221POPC   GL219574  34.047  40.293   9.091
 1221POPC   C1A19575  34.586  40.072   8.760
 1221POPC   D2A19576  34.844  39.857   8.460
 1221POPC   C3A19577  34.872  40.037   8.049
 1221POPC   C4A19578  34.566  39.792   7.869
 1221POPC   C1B19579  34.216  40.412   8.694
 1221POPC   C2B19580  34.441  40.337   8.309
 1221POPC   C3B19581  34.279  40.202   7.941
 1221POPC   C4B19582  34.143  40.201   7.505
 1222POPC   NC319583  29.299  22.574   9.523
 1222POPC   PO419584  29.237  21.858   9.527
 1222POPC   GL119585  29.129  22.168   9.251
 1222POPC   GL219586  28.864  21.999   9.154
 1222POPC   C1A19587  29.192  22.279   8.818
 1222POPC   D2A19588  29.060  22.403   8.406
 1222POPC   C3A19589  29.338  22.372   8.067
 1222POPC   C4A19590  29.437  22.113   7.761
 1222POPC   C1B19591  28.963  21.813   8.817
 1222POPC   C2B19592  28.865  21.914   8.428
 1222POPC   C3B19593  29.087  21.897   8.062
 1222POPC   C4B19594  29.120  21.674   7.688
 1223POPC   NC319595  37.143  44.342   9.649
 1223POPC   PO419596  36.849  43.675   9.811
 1223POPC   GL119597  36.878  43.732   9.366
 1223POPC   GL219598  36.537  43.862   9.313
 1223POPC   C1A19599  37.146  43.722   8.967
 1223POPC   D2A19600  37.180  43.993   8.622
 1223POPC   C3A19601  37.048  43.975   8.177
 1223POPC   C4A19602  37.174  43.779   7.793
 1223POPC   C1B19603  36.753  44.084   8.963
 1223POPC   C2B19604  36.724  44.199   8.511
 1223POPC   C3B19605  36.547  44.038   8.105
 1223POPC   C4B19606  36.679  43.975   7.710
 1224POPC   NC319607   5.317  19.307   9.596
 1224POPC   PO419608   4.955  18.756   9.451
 1224POPC   GL119609   5.130  18.825   9.083
 1224POPC   GL219610   5.445  18.932   9.135
 1224POPC   C1A19611   5.116  19.013   8.701
 1224POPC   D2A19612   4.866  19.163   8.394
 1224POPC   C3A19613   4.910  19.031   7.982
 1224POPC   C4A19614   4.817  19.317   7.664
 1224POPC   C1B19615   5.477  18.655   8.727
 1224POPC   C2B19616   5.278  18.737   8.284
 1224POPC   C3B19617   5.246  18.623   7.826
 1224POPC   C4B19618   5.106  18.921   7.483
 1225POPC   NC319619  39.962  20.441   9.495
 1225POPC   PO419620  39.904  21.099   9.568
 1225POPC   GL119621  39.971  20.830   9.152
 1225POPC   GL219622  40.231  20.550   9.100
 1225POPC   C1A19623  39.777  20.644   8.745
 1225POPC   D2A19624  39.791  20.355   8.401
 1225POPC   C3A19625  39.785  20.626   8.080
 1225POPC   C4A19626  39.583  20.681   7.676
 1225POPC   C1B19627  40.169  20.334   8.757
 1225POPC   C2B19628  40.336  20.249   8.373
 1225POPC   C3B19629  40.114  20.231   7.983
 1225POPC   C4B19630  40.071  20.565   7.676
 1226POPC   NC319631  10.990   4.142   9.318
 1226POPC   PO419632  10.428   4.584   9.495
 1226POPC   GL119633  10.529   4.349   9.169
 1226POPC   GL219634  10.774   4.516   9.033
 1226POPC   C1A19635  10.434   4.204   8.743
 1226POPC   D2A19636  10.504   4.135   8.301
 1226POPC   C3A19637  10.242   4.304   7.966
 1226POPC   C4A19638  10.373   4.422   7.533
 1226POPC   C1B19639  10.426   4.717   8.809
 1226POPC   C2B19640  10.328   4.618   8.392
 1226POPC   C3B19641  10.642   4.592   8.061
 1226POPC   C4B19642  10.636   4.814   7.705
 1227POPC   NC319643  27.211  36.013   9.753
 1227POPC   PO419644  27.669  36.440   9.551
 1227POPC   GL119645  27.579  36.264   9.181
 1227POPC   GL219646  27.292  36.007   9.224
 1227POPC   C1A19647  27.828  36.327   8.792
 1227POPC   D2A19648  27.785  36.507   8.363
 1227POPC   C3A19649  27.977  36.439   7.932
 1227POPC   C4A19650  27.914  36.138   7.614
 1227POPC   C1B19651  27.384  36.048   8.779
 1227POPC   C2B19652  27.634  36.023   8.425
 1227POPC   C3B19653  27.572  36.136   8.021
 1227POPC   C4B19654  27.235  36.006   7.798
 1228POPC   NC319655  37.907  33.767   9.388
 1228POPC   PO419656  37.299  33.506   9.606
 1228POPC   GL119657  37.465  33.929   9.255
 1228POPC   GL219658  37.281  34.154   9.049
 1228POPC   C1A19659  37.719  33.993   8.818
 1228POPC   D2A19660  38.063  33.825   8.556
 1228POPC   C3A19661  38.026  33.814   8.108
 1228POPC   C4A19662  37.758  33.626   7.790
 1228POPC   C1B19663  37.273  34.117   8.608
 1228POPC   C2B19664  37.657  34.224   8.361
 1228POPC   C3B19665  37.638  34.115   7.954
 1228POPC   C4B19666  37.776  34.056   7.558
 1229POPC   NC319667  25.454  17.184   9.675
 1229POPC   PO419668  24.931  17.634   9.493
 1229POPC   GL119669  25.256  17.591   9.209
 1229POPC   GL219670  25.344  17.226   9.139
 1229POPC   C1A19671  25.510  17.633   8.825
 1229POPC   D2A19672  25.468  17.433   8.420
 1229POPC   C3A19673  25.470  17.652   8.019
 1229POPC   C4A19674  25.530  17.902   7.667
 1229POPC   C1B19675  25.050  17.415   8.778
 1229POPC   C2B19676  24.760  17.512   8.435
 1229POPC   C3B19677  24.930  17.562   8.017
 1229POPC   C4B19678  25.159  17.499   7.637
 1230POPC   NC319679  36.898  15.665   9.744
 1230POPC   PO419680  36.518  16.129   9.648
 1230POPC   GL119681  36.727  16.144   9.231
 1230POPC   GL219682  36.649  15.834   9.104
 1230POPC   C1A19683  36.895  16.231   8.800
 1230POPC   D2A19684  37.035  16.041   8.385
 1230POPC   C3A19685  36.867  16.216   7.992
 1230POPC   C4A19686  36.709  16.121   7.596
 1230POPC   C1B19687  36.670  15.767   8.662
 1230POPC   C2B19688  36.732  15.608   8.246
 1230POPC   C3B19689  36.811  15.621   7.807
 1230POPC   C4B19690  36.933  15.375   7.445
 1231POPC   NC319691   4.000  33.726   9.441
 1231POPC   PO419692   4.316  33.286   9.301
 1231POPC   GL119693   4.222  33.607   8.988
 1231POPC   GL219694   4.330  33.940   9.082
 1231POPC   C1A19695   4.213  33.778   8.574
 1231POPC   D2A19696   4.044  34.083   8.298
 1231POPC   C3A19697   4.216  34.022   7.901
 1231POPC   C4A19698   4.381  34.294   7.598
 1231POPC   C1B19699   4.542  34.150   8.701
 1231POPC   C2B19700   4.592  34.066   8.247
 1231POPC   C3B19701   4.686  33.812   7.860
 1231POPC   C4B19702   4.529  33.394   7.730
 1232POPC   NC319703  30.313  40.132   9.357
 1232POPC   PO419704  29.679  40.323   9.546
 1232POPC   GL119705  29.845  40.160   9.158
 1232POPC   GL219706  29.663  39.863   9.123
 1232POPC   C1A19707  30.094  39.988   8.786
 1232POPC   D2A19708  29.991  39.952   8.382
 1232POPC   C3A19709  30.056  39.616   8.142
 1232POPC   C4A19710  30.134  39.624   7.727
 1232POPC   C1B19711  29.591  40.096   8.715
 1232POPC   C2B19712  29.533  40.081   8.257
 1232POPC   C3B19713  29.717  39.975   7.822
 1232POPC   C4B19714  29.640  40.054   7.345
 1233POPC   NC319715  26.497  32.090   9.892
 1233POPC   PO419716  26.112  32.516   9.540
 1233POPC   GL119717  26.084  32.600   9.132
 1233POPC   GL219718  26.424  32.532   9.078
 1233POPC   C1A19719  25.992  32.389   8.741
 1233POPC   D2A19720  26.153  32.090   8.441
 1233POPC   C3A19721  26.103  32.260   8.044
 1233POPC   C4A19722  26.044  32.086   7.651
 1233POPC   C1B19723  26.398  32.747   8.692
 1233POPC   C2B19724  26.443  32.625   8.257
 1233POPC   C3B19725  26.344  32.652   7.824
 1233POPC   C4B19726  26.356  32.420   7.418
 1234POPC   NC319727  16.381  44.468   9.515
 1234POPC   PO419728  15.631  44.599   9.546
 1234POPC   GL119729  15.884  44.699   9.171
 1234POPC   GL219730  16.154  44.477   9.068
 1234POPC   C1A19731  15.957  44.852   8.748
 1234POPC   D2A19732  15.785  44.914   8.345
 1234POPC   C3A19733  15.551  44.581   8.159
 1234POPC   C4A19734  15.839  44.609   7.822
 1234POPC   C1B19735  15.865  44.351   8.750
 1234POPC   C2B19736  16.010  44.450   8.338
 1234POPC   C3B19737  16.139  44.233   7.980
 1234POPC   C4B19738  16.149  44.312   7.566
 1235POPC   NC319739  33.206  19.862   9.322
 1235POPC   PO419740  32.653  19.743   9.685
 1235POPC   GL119741  32.730  19.795   9.197
 1235POPC   GL219742  32.768  19.476   9.021
 1235POPC   C1A19743  32.840  19.957   8.791
 1235POPC   D2A19744  33.139  20.226   8.562
 1235POPC   C3A19745  33.145  20.205   8.091
 1235POPC   C4A19746  33.348  20.071   7.675
 1235POPC   C1B19747  33.071  19.510   8.692
 1235POPC   C2B19748  33.010  19.772   8.341
 1235POPC   C3B19749  32.900  19.788   7.921
 1235POPC   C4B19750  32.970  19.752   7.489
 1236POPC   NC319751   4.466  15.276   9.568
 1236POPC   PO419752   3.981  15.740   9.451
 1236POPC   GL119753   4.159  15.404   9.186
 1236POPC   GL219754   4.191  14.983   9.240
 1236POPC   C1A19755   4.220  15.421   8.756
 1236POPC   D2A19756   4.078  15.231   8.375
 1236POPC   C3A19757   4.269  15.441   8.038
 1236POPC   C4A19758   4.155  15.676   7.700
 1236POPC   C1B19759   4.259  14.909   8.777
 1236POPC   C2B19760   4.501  14.894   8.382
 1236POPC   C3B19761   4.602  14.721   7.963
 1236POPC   C4B19762   4.545  15.102   7.754
 1237POPC   NC319763  35.398  41.017   9.575
 1237POPC   PO419764  35.268  40.293   9.707
 1237POPC   GL119765  35.346  40.620   9.273
 1237POPC   GL219766  35.634  40.805   9.193
 1237POPC   C1A19767  35.247  40.862   8.862
 1237POPC   D2A19768  35.156  40.719   8.432
 1237POPC   C3A19769  35.179  40.932   8.005
 1237POPC   C4A19770  35.289  40.675   7.635
 1237POPC   C1B19771  35.760  40.808   8.772
 1237POPC   C2B19772  35.616  40.921   8.373
 1237POPC   C3B19773  35.678  40.837   7.956
 1237POPC   C4B19774  35.620  41.119   7.645
 1238POPC   NC319775  19.827  11.762   9.469
 1238POPC   PO419776  19.892  12.421   9.552
 1238POPC   GL119777  20.003  12.165   9.173
 1238POPC   GL219778  20.075  11.838   9.023
 1238POPC   C1A19779  20.025  12.270   8.732
 1238POPC   D2A19780  19.703  12.206   8.405
 1238POPC   C3A19781  19.817  12.168   7.966
 1238POPC   C4A19782  20.193  12.320   7.768
 1238POPC   C1B19783  19.936  11.777   8.577
 1238POPC   C2B19784  19.983  11.655   8.134
 1238POPC   C3B19785  19.932  11.738   7.709
 1238POPC   C4B19786  19.912  11.606   7.265
 1239POPC   NC319787  40.424  43.975   9.799
 1239POPC   PO419788  40.736  43.467   9.454
 1239POPC   GL119789  40.836  43.856   9.160
 1239POPC   GL219790  40.545  44.119   9.101
 1239POPC   C1A19791  41.011  43.973   8.745
 1239POPC   D2A19792  41.210  43.849   8.332
 1239POPC   C3A19793  40.911  43.888   8.030
 1239POPC   C4A19794  40.932  44.039   7.629
 1239POPC   C1B19795  40.503  43.931   8.720
 1239POPC   C2B19796  40.652  43.671   8.429
 1239POPC   C3B19797  40.549  43.477   8.072
 1239POPC   C4B19798  40.581  43.672   7.677
 1240POPC   NC319799  23.040  11.775   9.480
 1240POPC   PO419800  22.900  12.464   9.469
 1240POPC   GL119801  22.819  12.114   9.165
 1240POPC   GL219802  23.115  12.026   9.031
 1240POPC   C1A19803  22.720  11.807   8.827
 1240POPC   D2A19804  23.021  11.696   8.524
 1240POPC   C3A19805  22.916  11.974   8.160
 1240POPC   C4A19806  22.668  11.803   7.801
 1240POPC   C1B19807  23.061  12.185   8.669
 1240POPC   C2B19808  23.329  12.227   8.332
 1240POPC   C3B19809  23.215  12.419   7.946
 1240POPC   C4B19810  22.963  12.236   7.644
 1241POPC   NC319811  44.604   4.205   9.454
 1241POPC   PO419812  44.967   4.688   9.667
 1241POPC   GL119813  44.805   4.657   9.227
 1241POPC   GL219814  44.744   4.351   8.982
 1241POPC   C1A19815  44.831   4.849   8.818
 1241POPC   D2A19816  44.575   4.753   8.449
 1241POPC   C3A19817  44.760   4.488   8.151
 1241POPC   C4A19818  44.896   4.523   7.750
 1241POPC   C1B19819  44.353   4.244   8.706
 1241POPC   C2B19820  44.300   4.273   8.244
 1241POPC   C3B19821  44.516   4.186   7.830
 1241POPC   C4B19822  44.623   3.910   7.495
 1242POPC   NC319823  11.263  15.456   9.580
 1242POPC   PO419824  11.385  14.858   9.256
 1242POPC   GL119825  11.335  15.223   9.126
 1242POPC   GL219826  11.132  15.079   8.887
 1242POPC   C1A19827  11.520  15.440   8.797
 1242POPC   D2A19828  11.428  15.275   8.421
 1242POPC   C3A19829  11.567  15.484   8.075
 1242POPC   C4A19830  11.518  15.353   7.653
 1242POPC   C1B19831  10.950  15.116   8.540
 1242POPC   C2B19832  11.122  14.890   8.275
 1242POPC   C3B19833  11.210  15.083   7.953
 1242POPC   C4B19834  11.269  14.924   7.556
 1243POPC   NC319835  15.707  11.371   9.711
 1243POPC   PO419836  16.108  10.868   9.525
 1243POPC   GL119837  15.920  11.193   9.218
 1243POPC   GL219838  16.135  11.454   9.367
 1243POPC   C1A19839  15.860  11.262   8.729
 1243POPC   D2A19840  15.692  11.105   8.280
 1243POPC   C3A19841  15.708  11.380   7.894
 1243POPC   C4A19842  15.892  11.457   7.448
 1243POPC   C1B19843  16.378  11.298   9.008
 1243POPC   C2B19844  16.418  11.273   8.566
 1243POPC   C3B19845  16.164  11.316   8.192
 1243POPC   C4B19846  16.224  11.259   7.765
 1244POPC   NC319847  39.126  30.438   9.518
 1244POPC   PO419848  39.028  31.123   9.426
 1244POPC   GL119849  39.260  30.811   9.179
 1244POPC   GL219850  39.608  30.884   9.135
 1244POPC   C1A19851  39.232  30.773   8.724
 1244POPC   D2A19852  39.073  30.783   8.293
 1244POPC   C3A19853  39.235  30.467   7.974
 1244POPC   C4A19854  39.086  30.456   7.554
 1244POPC   C1B19855  39.759  30.775   8.722
 1244POPC   C2B19856  39.587  30.714   8.289
 1244POPC   C3B19857  39.410  30.936   7.907
 1244POPC   C4B19858  39.550  30.996   7.486
 1245POPC   NC319859  13.783  38.714   9.327
 1245POPC   PO419860  13.434  38.236   9.509
 1245POPC   GL119861  13.206  38.224   9.135
 1245POPC   GL219862  13.202  38.579   9.067
 1245POPC   C1A19863  13.385  38.250   8.712
 1245POPC   D2A19864  13.651  38.399   8.361
 1245POPC   C3A19865  13.584  38.218   7.954
 1245POPC   C4A19866  13.519  38.332   7.521
 1245POPC   C1B19867  13.455  38.754   8.715
 1245POPC   C2B19868  13.354  38.828   8.269
 1245POPC   C3B19869  13.453  38.718   7.876
 1245POPC   C4B19870  13.484  38.868   7.474
 1246POPC   NC319871  39.755  34.373   9.532
 1246POPC   PO419872  40.255  34.821   9.427
 1246POPC   GL119873  39.959  34.651   9.149
 1246POPC   GL219874  39.960  34.262   9.082
 1246POPC   C1A19875  39.953  34.627   8.706
 1246POPC   D2A19876  39.897  34.416   8.309
 1246POPC   C3A19877  39.703  34.684   8.004
 1246POPC   C4A19878  39.661  34.617   7.588
 1246POPC   C1B19879  40.185  34.166   8.713
 1246POPC   C2B19880  40.403  34.438   8.424
 1246POPC   C3B19881  40.321  34.595   8.024
 1246POPC   C4B19882  40.100  34.418   7.717
 1247POPC   NC319883  12.809   7.655   9.546
 1247POPC   PO419884  13.311   7.176   9.595
 1247POPC   GL119885  12.986   7.121   9.213
 1247POPC   GL219886  12.704   7.379   9.129
 1247POPC   C1A19887  12.956   7.185   8.733
 1247POPC   D2A19888  12.743   7.486   8.402
 1247POPC   C3A19889  12.922   7.655   7.980
 1247POPC   C4A19890  12.986   7.437   7.531
 1247POPC   C1B19891  12.441   7.201   8.771
 1247POPC   C2B19892  12.446   7.062   8.328
 1247POPC   C3B19893  12.609   7.267   7.925
 1247POPC   C4B19894  12.504   7.295   7.447
 1248POPC   NC319895   1.762  42.025   9.340
 1248POPC   PO419896   1.596  41.366   9.455
 1248POPC   GL119897   1.843  41.565   9.168
 1248POPC   GL219898   2.034  41.333   9.091
 1248POPC   C1A19899   1.931  41.758   8.770
 1248POPC   D2A19900   1.725  41.847   8.394
 1248POPC   C3A19901   1.900  41.777   7.995
 1248POPC   C4A19902   2.268  41.781   7.743
 1248POPC   C1B19903   1.749  41.261   8.765
 1248POPC   C2B19904   1.815  41.334   8.360
 1248POPC   C3B19905   1.793  41.166   7.973
 1248POPC   C4B19906   1.939  41.408   7.643
 1249POPC   NC319907  39.886  18.644   9.598
 1249POPC   PO419908  40.239  19.172   9.738
 1249POPC   GL119909  39.960  19.104   9.361
 1249POPC   GL219910  40.255  19.212   9.208
 1249POPC   C1A19911  39.879  19.019   8.913
 1249POPC   D2A19912  40.108  19.011   8.485
 1249POPC   C3A19913  39.905  18.919   8.052
 1249POPC   C4A19914  39.687  19.183   7.742
 1249POPC   C1B19915  40.372  19.360   8.839
 1249POPC   C2B19916  40.375  19.453   8.434
 1249POPC   C3B19917  40.246  19.296   8.043
 1249POPC   C4B19918  40.174  19.325   7.598
 1250POPC   NC319919  33.794  40.266   9.531
 1250POPC   PO419920  33.547  39.620   9.552
 1250POPC   GL119921  33.762  39.819   9.230
 1250POPC   GL219922  33.556  40.075   9.109
 1250POPC   C1A19923  34.045  39.787   8.897
 1250POPC   D2A19924  34.150  39.946   8.488
 1250POPC   C3A19925  33.947  39.855   8.096
 1250POPC   C4A19926  34.063  39.741   7.687
 1250POPC   C1B19927  33.634  39.963   8.670
 1250POPC   C2B19928  33.489  39.930   8.279
 1250POPC   C3B19929  33.487  40.212   7.938
 1250POPC   C4B19930  33.648  40.110   7.542
 1251POPC   NC319931  44.203  18.746   9.730
 1251POPC   PO419932  43.828  19.297   9.638
 1251POPC   GL119933  44.045  19.109   9.226
 1251POPC   GL219934  44.040  18.739   9.193
 1251POPC   C1A19935  44.203  19.208   8.779
 1251POPC   D2A19936  44.092  19.437   8.357
 1251POPC   C3A19937  44.086  19.151   7.963
 1251POPC   C4A19938  43.841  18.794   7.734
 1251POPC   C1B19939  43.812  18.854   8.799
 1251POPC   C2B19940  43.753  19.024   8.376
 1251POPC   C3B19941  43.545  19.122   7.986
 1251POPC   C4B19942  43.414  19.049   7.543
 1252POPC   NC319943  33.394  22.396   9.418
 1252POPC   PO419944  33.900  21.873   9.476
 1252POPC   GL119945  33.865  22.194   9.156
 1252POPC   GL219946  33.551  22.263   8.962
 1252POPC   C1A19947  34.003  22.280   8.732
 1252POPC   D2A19948  33.722  22.303   8.373
 1252POPC   C3A19949  33.997  22.244   8.019
 1252POPC   C4A19950  34.263  21.948   7.803
 1252POPC   C1B19951  33.330  22.587   8.737
 1252POPC   C2B19952  33.397  22.785   8.307
 1252POPC   C3B19953  33.503  22.540   7.946
 1252POPC   C4B19954  33.689  22.274   7.616
 1253POPC   NC319955  43.564   9.759   9.453
 1253POPC   PO419956  44.252  10.033   9.448
 1253POPC   GL119957  44.205   9.627   9.168
 1253POPC   GL219958  43.842   9.501   9.122
 1253POPC   C1A19959  44.151   9.452   8.725
 1253POPC   D2A19960  44.097   9.791   8.448
 1253POPC   C3A19961  44.282   9.900   8.059
 1253POPC   C4A19962  43.985  10.111   7.813
 1253POPC   C1B19963  43.655   9.699   8.721
 1253POPC   C2B19964  43.660   9.626   8.241
 1253POPC   C3B19965  43.581   9.748   7.787
 1253POPC   C4B19966  43.617   9.546   7.356
 1254POPC   NC319967  33.228  16.199   9.450
 1254POPC   PO419968  32.661  15.876   9.474
 1254POPC   GL119969  32.937  15.909   9.141
 1254POPC   GL219970  33.272  15.762   9.153
 1254POPC   C1A19971  32.925  16.209   8.844
 1254POPC   D2A19972  32.779  16.109   8.477
 1254POPC   C3A19973  32.962  16.108   8.108
 1254POPC   C4A19974  32.826  15.996   7.707
 1254POPC   C1B19975  33.259  15.835   8.703
 1254POPC   C2B19976  33.380  15.865   8.270
 1254POPC   C3B19977  33.227  15.724   7.875
 1254POPC   C4B19978  33.436  15.482   7.524
 1255POPC   NC319979  41.181  21.382   9.429
 1255POPC   PO419980  41.757  21.750   9.581
 1255POPC   GL119981  41.627  21.531   9.203
 1255POPC   GL219982  41.578  21.146   9.183
 1255POPC   C1A19983  41.720  21.407   8.770
 1255POPC   D2A19984  41.639  21.154   8.414
 1255POPC   C3A19985  41.702  21.386   8.036
 1255POPC   C4A19986  41.759  21.294   7.608
 1255POPC   C1B19987  41.294  21.131   8.808
 1255POPC   C2B19988  41.223  20.841   8.452
 1255POPC   C3B19989  41.301  21.027   8.030
 1255POPC   C4B19990  41.249  21.285   7.648
 1256POPC   NC319991   7.848  29.232   9.393
 1256POPC   PO419992   8.405  29.243   9.743
 1256POPC   GL119993   8.340  29.327   9.283
 1256POPC   GL219994   8.275  29.035   9.151
 1256POPC   C1A19995   8.103  29.379   8.838
 1256POPC   D2A19996   8.027  29.101   8.491
 1256POPC   C3A19997   8.011  29.284   8.094
 1256POPC   C4A19998   8.122  29.108   7.703
 1256POPC   C1B19999   8.470  28.968   8.773
 1256POPC   C2B20000   8.710  28.948   8.425
 1256POPC   C3B20001   8.466  28.989   8.074
 1256POPC   C4B20002   8.547  28.829   7.639
 1257POPC   NC320003  18.870  33.283   9.549
 1257POPC   PO420004  19.349  32.877   9.592
 1257POPC   GL120005  19.378  32.869   9.151
 1257POPC   GL220006  19.596  33.134   9.133
 1257POPC   C1A20007  19.155  32.976   8.725
 1257POPC   D2A20008  18.983  33.119   8.305
 1257POPC   C3A20009  19.025  32.932   7.853
 1257POPC   C4A20010  18.895  32.953   7.387
 1257POPC   C1B20011  19.508  33.362   8.773
 1257POPC   C2B20012  19.492  33.198   8.369
 1257POPC   C3B20013  19.311  33.332   7.975
 1257POPC   C4B20014  19.212  33.319   7.547
 1258POPC   NC320015  26.486  27.698   9.598
 1258POPC   PO420016  27.081  27.818   9.673
 1258POPC   GL120017  26.841  27.825   9.245
 1258POPC   GL220018  26.702  27.476   9.186
 1258POPC   C1A20019  26.902  27.733   8.771
 1258POPC   D2A20020  26.704  27.508   8.360
 1258POPC   C3A20021  26.645  27.715   7.945
 1258POPC   C4A20022  26.925  27.860   7.620
 1258POPC   C1B20023  26.753  27.232   8.806
 1258POPC   C2B20024  26.635  26.976   8.463
 1258POPC   C3B20025  26.569  27.095   8.021
 1258POPC   C4B20026  26.767  27.305   7.644
 1259POPC   NC320027  37.237   4.679   9.420
 1259POPC   PO420028  37.850   4.840   9.636
 1259POPC   GL120029  37.693   4.512   9.277
 1259POPC   GL220030  37.482   4.653   8.977
 1259POPC   C1A20031  37.846   4.337   8.843
 1259POPC   D2A20032  38.048   4.476   8.431
 1259POPC   C3A20033  37.886   4.444   8.040
 1259POPC   C4A20034  37.797   4.064   7.825
 1259POPC   C1B20035  37.528   4.659   8.509
 1259POPC   C2B20036  37.397   4.383   8.155
 1259POPC   C3B20037  37.284   4.127   7.788
 1259POPC   C4B20038  37.511   4.035   7.379
 1260POPC   NC320039   9.229  44.016   9.503
 1260POPC   PO420040   8.582  44.079   9.372
 1260POPC   GL120041   8.921  43.851   9.109
 1260POPC   GL220042   9.316  43.713   9.103
 1260POPC   C1A20043   8.972  43.867   8.708
 1260POPC   D2A20044   9.008  43.711   8.339
 1260POPC   C3A20045   8.753  43.926   8.057
 1260POPC   C4A20046   8.733  43.934   7.632
 1260POPC   C1B20047   9.450  44.017   8.813
 1260POPC   C2B20048   9.306  44.124   8.388
 1260POPC   C3B20049   9.296  44.003   7.937
 1260POPC   C4B20050   9.604  44.194   7.649
 1261POPC   NC320051   4.089   8.045   9.462
 1261POPC   PO420052   4.684   8.305   9.531
 1261POPC   GL120053   4.467   8.162   9.131
 1261POPC   GL220054   4.655   7.900   9.033
 1261POPC   C1A20055   4.088   8.068   8.821
 1261POPC   D2A20056   3.990   8.246   8.422
 1261POPC   C3A20057   4.287   8.280   8.078
 1261POPC   C4A20058   4.251   8.097   7.679
 1261POPC   C1B20059   4.538   8.055   8.610
 1261POPC   C2B20060   4.416   7.831   8.265
 1261POPC   C3B20061   4.655   7.942   7.921
 1261POPC   C4B20062   4.608   7.788   7.503
 1262POPC   NC320063  10.953  42.404   9.587
 1262POPC   PO420064  10.342  42.648   9.711
 1262POPC   GL120065  10.232  42.494   9.278
 1262POPC   GL220066  10.267  42.104   9.189
 1262POPC   C1A20067  10.271  42.437   8.826
 1262POPC   D2A20068  10.568  42.356   8.506
 1262POPC   C3A20069  10.430  42.491   8.127
 1262POPC   C4A20070  10.720  42.723   7.893
 1262POPC   C1B20071  10.443  41.926   8.747
 1262POPC   C2B20072  10.578  41.901   8.273
 1262POPC   C3B20073  10.679  42.117   7.866
 1262POPC   C4B20074  10.405  42.393   7.620
 1263POPC   NC320075   0.042  18.496   9.651
 1263POPC   PO420076   0.541  18.027   9.455
 1263POPC   GL120077   0.483  18.240   9.068
 1263POPC   GL220078   0.212  18.432   9.174
 1263POPC   C1A20079   0.648  18.240   8.614
 1263POPC   D2A20080   0.550  17.989   8.271
 1263POPC   C3A20081   0.296  18.150   7.947
 1263POPC   C4A20082   0.512  18.110   7.610
 1263POPC   C1B20083   0.217  18.499   8.729
 1263POPC   C2B20084   0.365  18.646   8.320
 1263POPC   C3B20085   0.297  18.660   7.856
 1263POPC   C4B20086   0.158  18.446   7.443
 1264POPC   NC320087  22.440  12.118   9.526
 1264POPC   PO420088  22.250  12.697   9.459
 1264POPC   GL120089  22.426  12.422   9.085
 1264POPC   GL220090  22.303  12.045   9.031
 1264POPC   C1A20091  22.552  12.245   8.638
 1264POPC   D2A20092  22.456  11.854   8.354
 1264POPC   C3A20093  22.238  12.025   7.955
 1264POPC   C4A20094  22.083  12.468   7.822
 1264POPC   C1B20095  22.108  11.703   8.728
 1264POPC   C2B20096  21.873  11.507   8.349
 1264POPC   C3B20097  21.787  11.724   7.947
 1264POPC   C4B20098  21.901  12.019   7.562
 1265POPC   NC320099  29.006  41.358   9.451
 1265POPC   PO420100  29.510  41.771   9.475
 1265POPC   GL120101  29.211  41.814   9.116
 1265POPC   GL220102  28.847  41.939   9.130
 1265POPC   C1A20103  29.224  41.533   8.750
 1265POPC   D2A20104  29.492  41.362   8.442
 1265POPC   C3A20105  29.375  41.354   8.052
 1265POPC   C4A20106  29.487  41.382   7.633
 1265POPC   C1B20107  28.764  41.754   8.704
 1265POPC   C2B20108  28.970  41.627   8.295
 1265POPC   C3B20109  28.883  41.404   7.907
 1265POPC   C4B20110  28.865  41.637   7.496
 1266POPC   NC320111  41.854  25.428   9.753
 1266POPC   PO420112  41.596  26.146   9.561
 1266POPC   GL120113  41.670  26.116   9.136
 1266POPC   GL220114  41.600  25.787   9.183
 1266POPC   C1A20115  41.436  26.129   8.745
 1266POPC   D2A20116  41.280  25.932   8.353
 1266POPC   C3A20117  41.348  26.096   7.914
 1266POPC   C4A20118  41.644  26.249   7.589
 1266POPC   C1B20119  41.742  25.714   8.769
 1266POPC   C2B20120  41.790  25.918   8.354
 1266POPC   C3B20121  41.679  25.706   7.946
 1266POPC   C4B20122  41.390  25.590   7.624
 1267POPC   NC320123  13.488  21.771   9.349
 1267POPC   PO420124  14.102  22.044   9.617
 1267POPC   GL120125  13.848  22.212   9.257
 1267POPC   GL220126  13.570  22.465   9.268
 1267POPC   C1A20127  13.813  22.299   8.810
 1267POPC   D2A20128  13.829  22.055   8.420
 1267POPC   C3A20129  13.819  22.322   8.046
 1267POPC   C4A20130  13.675  22.221   7.637
 1267POPC   C1B20131  13.300  22.443   8.859
 1267POPC   C2B20132  13.426  22.383   8.430
 1267POPC   C3B20133  13.302  22.321   7.978
 1267POPC   C4B20134  13.188  22.253   7.549
 1268POPC   NC320135  14.125  35.320   9.558
 1268POPC   PO420136  14.684  35.083   9.740
 1268POPC   GL120137  14.555  35.194   9.269
 1268POPC   GL220138  14.551  35.526   9.141
 1268POPC   C1A20139  14.411  35.126   8.800
 1268POPC   D2A20140  14.512  35.299   8.348
 1268POPC   C3A20141  14.383  35.107   7.933
 1268POPC   C4A20142  14.477  35.048   7.475
 1268POPC   C1B20143  14.403  35.628   8.736
 1268POPC   C2B20144  14.340  35.800   8.331
 1268POPC   C3B20145  14.394  35.637   7.956
 1268POPC   C4B20146  14.200  35.483   7.622
 1269POPC   NC320147  27.785  29.164   9.633
 1269POPC   PO420148  27.282  29.275   9.270
 1269POPC   GL120149  27.536  29.060   9.046
 1269POPC   GL220150  27.847  28.989   9.162
 1269POPC   C1A20151  27.486  28.994   8.616
 1269POPC   D2A20152  27.174  28.958   8.341
 1269POPC   C3A20153  27.382  29.190   8.066
 1269POPC   C4A20154  27.275  29.332   7.680
 1269POPC   C1B20155  28.003  29.101   8.787
 1269POPC   C2B20156  27.994  28.901   8.428
 1269POPC   C3B20157  28.024  29.045   8.039
 1269POPC   C4B20158  27.817  29.225   7.730
 1270POPC   NC320159   6.711  22.100   9.550
 1270POPC   PO420160   7.241  21.830   9.216
 1270POPC   GL120161   6.894  22.064   9.075
 1270POPC   GL220162   6.519  21.996   9.088
 1270POPC   C1A20163   6.756  22.170   8.672
 1270POPC   D2A20164   6.600  21.971   8.314
 1270POPC   C3A20165   6.812  22.095   7.938
 1270POPC   C4A20166   6.771  22.138   7.494
 1270POPC   C1B20167   6.279  21.801   8.747
 1270POPC   C2B20168   6.104  21.845   8.331
 1270POPC   C3B20169   6.178  21.990   7.916
 1270POPC   C4B20170   6.351  21.851   7.521
 1271POPC   NC320171  38.733  25.373   9.545
 1271POPC   PO420172  38.326  24.824   9.626
 1271POPC   GL120173  38.541  24.961   9.221
 1271POPC   GL220174  38.425  25.276   9.073
 1271POPC   C1A20175  38.436  24.856   8.753
 1271POPC   D2A20176  38.220  25.071   8.393
 1271POPC   C3A20177  38.299  25.061   7.925
 1271POPC   C4A20178  38.400  25.449   7.693
 1271POPC   C1B20179  38.591  25.350   8.636
 1271POPC   C2B20180  38.580  25.398   8.189
 1271POPC   C3B20181  38.870  25.313   7.867
 1271POPC   C4B20182  38.917  25.393   7.435
 1272POPC   NC320183  35.195  20.100   9.373
 1272POPC   PO420184  35.463  19.531   9.380
 1272POPC   GL120185  35.400  19.688   9.028
 1272POPC   GL220186  35.057  19.714   9.064
 1272POPC   C1A20187  35.554  19.645   8.627
 1272POPC   D2A20188  35.650  19.905   8.305
 1272POPC   C3A20189  35.680  19.641   7.978
 1272POPC   C4A20190  35.587  19.688   7.553
 1272POPC   C1B20191  35.112  19.963   8.707
 1272POPC   C2B20192  35.208  20.158   8.338
 1272POPC   C3B20193  35.329  20.029   7.895
 1272POPC   C4B20194  35.217  20.027   7.442
 1273POPC   NC320195  27.896  44.300   9.309
 1273POPC   PO420196  28.464  44.543   9.669
 1273POPC   GL120197  28.395  44.419   9.250
 1273POPC   GL220198  28.208  44.716   9.198
 1273POPC   C1A20199  28.413  44.433   8.789
 1273POPC   D2A20200  28.701  44.567   8.460
 1273POPC   C3A20201  28.559  44.681   8.042
 1273POPC   C4A20202  28.625  44.989   7.742
 1273POPC   C1B20203  28.206  44.931   8.803
 1273POPC   C2B20204  28.178  44.748   8.396
 1273POPC   C3B20205  27.990  44.676   7.985
 1273POPC   C4B20206  27.974  44.389   7.666
 1274POPC   NC320207   3.371   8.592   9.389
 1274POPC   PO420208   3.215   9.070   9.787
 1274POPC   GL120209   3.549   9.081   9.381
 1274POPC   GL220210   3.871   8.876   9.275
 1274POPC   C1A20211   3.576   9.018   8.894
 1274POPC   D2A20212   3.742   9.214   8.519
 1274POPC   C3A20213   3.609   9.092   8.105
 1274POPC   C4A20214   3.274   9.286   7.858
 1274POPC   C1B20215   4.040   8.867   8.813
 1274POPC   C2B20216   3.933   8.744   8.360
 1274POPC   C3B20217   4.037   8.828   7.919
 1274POPC   C4B20218   3.816   8.735   7.515
 1275POPC   NC320219  19.998   0.097   9.339
 1275POPC   PO420220  19.735   0.650   9.393
 1275POPC   GL120221  19.615   0.590   9.030
 1275POPC   GL220222  19.488   0.912   8.989
 1275POPC   C1A20223  19.785   0.354   8.681
 1275POPC   D2A20224  19.607   0.295   8.269
 1275POPC   C3A20225  19.853   0.241   7.891
 1275POPC   C4A20226  19.630   0.192   7.472
 1275POPC   C1B20227  19.472   0.765   8.581
 1275POPC   C2B20228  19.351   0.744   8.197
 1275POPC   C3B20229  19.497   0.567   7.813
 1275POPC   C4B20230  19.548   0.714   7.392
 1276POPC   NC320231  19.993  26.444   9.678
 1276POPC   PO420232  19.492  26.834   9.591
 1276POPC   GL120233  19.683  26.921   9.219
 1276POPC   GL220234  20.034  26.809   9.271
 1276POPC   C1A20235  19.642  26.688   8.857
 1276POPC   D2A20236  19.528  26.760   8.448
 1276POPC   C3A20237  19.834  26.758   8.138
 1276POPC   C4A20238  19.904  26.929   7.741
 1276POPC   C1B20239  20.159  26.831   8.833
 1276POPC   C2B20240  20.198  27.045   8.440
 1276POPC   C3B20241  20.327  26.901   8.036
 1276POPC   C4B20242  20.479  26.783   7.631
 1277POPC   NC320243  12.188   7.021   9.387
 1277POPC   PO420244  12.326   7.617   9.594
 1277POPC   GL120245  12.212   7.540   9.204
 1277POPC   GL220246  11.888   7.458   9.260
 1277POPC   C1A20247  12.272   7.713   8.809
 1277POPC   D2A20248  12.217   7.519   8.441
 1277POPC   C3A20249  12.329   7.705   8.078
 1277POPC   C4A20250  12.181   7.500   7.756
 1277POPC   C1B20251  11.931   7.258   8.841
 1277POPC   C2B20252  11.908   7.105   8.415
 1277POPC   C3B20253  11.835   7.214   7.994
 1277POPC   C4B20254  11.495   7.485   7.861
 1278POPC   NC320255  41.455  42.585   9.665
 1278POPC   PO420256  41.841  42.089   9.538
 1278POPC   GL120257  41.605  42.148   9.218
 1278POPC   GL220258  41.662  42.486   9.203
 1278POPC   C1A20259  41.637  42.089   8.803
 1278POPC   D2A20260  41.318  42.127   8.518
 1278POPC   C3A20261  41.386  42.161   8.056
 1278POPC   C4A20262  41.222  42.455   7.759
 1278POPC   C1B20263  41.480  42.599   8.785
 1278POPC   C2B20264  41.409  42.591   8.323
 1278POPC   C3B20265  41.606  42.711   7.949
 1278POPC   C4B20266  41.902  42.671   7.642
 1279POPC   NC320267   8.455  11.391   9.511
 1279POPC   PO420268   7.962  11.978   9.331
 1279POPC   GL120269   8.027  11.693   8.928
 1279POPC   GL220270   8.312  11.467   9.027
 1279POPC   C1A20271   7.999  11.242   8.708
 1279POPC   D2A20272   7.945  11.029   8.304
 1279POPC   C3A20273   8.105  11.299   7.971
 1279POPC   C4A20274   7.955  11.541   7.585
 1279POPC   C1B20275   8.501  11.077   8.861
 1279POPC   C2B20276   8.475  11.028   8.428
 1279POPC   C3B20277   8.667  11.165   8.095
 1279POPC   C4B20278   8.519  11.169   7.697
 1280POPC   NC320279  26.387  37.835   9.428
 1280POPC   PO420280  26.150  37.262   9.660
 1280POPC   GL120281  26.082  37.446   9.235
 1280POPC   GL220282  25.911  37.808   9.161
 1280POPC   C1A20283  26.149  37.500   8.790
 1280POPC   D2A20284  26.012  37.716   8.416
 1280POPC   C3A20285  26.089  37.611   7.967
 1280POPC   C4A20286  26.034  37.564   7.507
 1280POPC   C1B20287  26.170  38.041   8.817
 1280POPC   C2B20288  26.382  38.069   8.393
 1280POPC   C3B20289  26.203  38.116   7.972
 1280POPC   C4B20290  26.320  37.982   7.546
 1281POPC   NC320291  32.423  19.457   9.401
 1281POPC   PO420292  32.326  20.087   9.261
 1281POPC   GL120293  32.333  20.012   8.863
 1281POPC   GL220294  32.301  19.651   8.929
 1281POPC   C1A20295  32.012  19.867   8.589
 1281POPC   D2A20296  32.085  19.567   8.310
 1281POPC   C3A20297  32.341  19.828   8.051
 1281POPC   C4A20298  32.120  20.120   7.819
 1281POPC   C1B20299  32.550  19.615   8.536
 1281POPC   C2B20300  32.610  19.403   8.124
 1281POPC   C3B20301  32.518  19.510   7.666
 1281POPC   C4B20302  32.574  19.567   7.230
 1282POPC   NC320303  20.991  17.876   9.702
 1282POPC   PO420304  20.667  17.350   9.686
 1282POPC   GL120305  20.564  17.490   9.258
 1282POPC   GL220306  20.820  17.749   9.217
 1282POPC   C1A20307  20.571  17.536   8.784
 1282POPC   D2A20308  20.719  17.491   8.335
 1282POPC   C3A20309  20.481  17.309   7.967
 1282POPC   C4A20310  20.447  17.257   7.493
 1282POPC   C1B20311  20.840  18.002   8.830
 1282POPC   C2B20312  20.777  18.060   8.372
 1282POPC   C3B20313  20.806  17.861   7.972
 1282POPC   C4B20314  20.503  17.731   7.681
 1283POPC   NC320315  24.985  42.991   9.526
 1283POPC   PO420316  25.523  43.127   9.777
 1283POPC   GL120317  25.406  43.152   9.296
 1283POPC   GL220318  25.467  42.850   9.060
 1283POPC   C1A20319  25.187  43.252   8.909
 1283POPC   D2A20320  25.302  43.104   8.493
 1283POPC   C3A20321  25.267  43.425   8.201
 1283POPC   C4A20322  25.227  43.230   7.807
 1283POPC   C1B20323  25.092  42.737   8.806
 1283POPC   C2B20324  25.064  42.605   8.385
 1283POPC   C3B20325  25.266  42.751   8.023
 1283POPC   C4B20326  25.048  42.770   7.647
 1284POPC   NC320327   1.964  19.592   9.487
 1284POPC   PO420328   1.488  20.075   9.440
 1284POPC   GL120329   1.769  19.958   9.093
 1284POPC   GL220330   2.040  19.689   9.010
 1284POPC   C1A20331   1.761  19.935   8.657
 1284POPC   D2A20332   2.039  19.979   8.351
 1284POPC   C3A20333   1.847  19.911   7.963
 1284POPC   C4A20334   2.027  20.054   7.605
 1284POPC   C1B20335   2.027  19.499   8.625
 1284POPC   C2B20336   1.849  19.489   8.263
 1284POPC   C3B20337   1.920  19.396   7.846
 1284POPC   C4B20338   1.948  19.547   7.413
 1285POPC   NC320339   0.360  44.197   9.285
 1285POPC   PO420340   0.343  43.541   9.552
 1285POPC   GL120341   0.509  43.674   9.203
 1285POPC   GL220342   0.128  43.768   9.139
 1285POPC   C1A20343   0.769  43.847   8.872
 1285POPC   D2A20344   0.562  44.031   8.514
 1285POPC   C3A20345   0.728  44.219   8.140
 1285POPC   C4A20346   0.476  44.238   7.797
 1285POPC   C1B20347   0.272  43.656   8.753
 1285POPC   C2B20348   0.108  43.805   8.393
 1285POPC   C3B20349   0.076  43.992   8.013
 1285POPC   C4B20350   0.273  43.799   7.684
 1286POPC   NC320351  14.623   7.356   9.503
 1286POPC   PO420352  13.977   7.288   9.673
 1286POPC   GL120353  14.154   7.041   9.207
 1286POPC   GL220354  14.476   7.154   9.081
 1286POPC   C1A20355  14.178   7.132   8.691
 1286POPC   D2A20356  14.492   7.266   8.378
 1286POPC   C3A20357  14.303   7.355   7.991
 1286POPC   C4A20358  14.395   7.198   7.580
 1286POPC   C1B20359  14.583   7.488   8.836
 1286POPC   C2B20360  14.524   7.760   8.538
 1286POPC   C3B20361  14.560   7.784   8.120
 1286POPC   C4B20362  14.706   7.575   7.779
 1287POPC   NC320363  40.952  22.487   9.337
 1287POPC   PO420364  40.955  21.818   9.426
 1287POPC   GL120365  40.657  22.039   9.093
 1287POPC   GL220366  40.493  22.353   9.153
 1287POPC   C1A20367  40.515  21.927   8.685
 1287POPC   D2A20368  40.695  21.716   8.296
 1287POPC   C3A20369  40.966  21.999   7.973
 1287POPC   C4A20370  41.069  21.970   7.497
 1287POPC   C1B20371  40.733  22.402   8.734
 1287POPC   C2B20372  40.754  22.602   8.350
 1287POPC   C3B20373  40.945  22.517   7.967
 1287POPC   C4B20374  40.928  22.478   7.542
 1288POPC   NC320375  24.948  44.761   9.376
 1288POPC   PO420376  25.475  44.326   9.487
 1288POPC   GL120377  25.403  44.576   9.094
 1288POPC   GL220378  25.052  44.562   8.922
 1288POPC   C1A20379  25.435  44.766   8.683
 1288POPC   D2A20380  25.133  44.679   8.359
 1288POPC   C3A20381  25.380  44.528   7.992
 1288POPC   C4A20382  25.502  44.818   7.652
 1288POPC   C1B20383  25.005   0.033   8.783
 1288POPC   C2B20384  24.874   0.375   8.518
 1288POPC   C3B20385  24.802   0.069   8.198
 1288POPC   C4B20386  25.086  44.925   7.901
 1289POPC   NC320387  22.372  30.506   9.614
 1289POPC   PO420388  21.728  30.470   9.341
 1289POPC   GL120389  22.088  30.680   9.185
 1289POPC   GL220390  21.842  30.938   9.163
 1289POPC   C1A20391  22.371  30.652   8.823
 1289POPC   D2A20392  22.450  30.409   8.438
 1289POPC   C3A20393  22.489  30.683   8.064
 1289POPC   C4A20394  22.330  30.765   7.640
 1289POPC   C1B20395  21.875  30.675   8.729
 1289POPC   C2B20396  22.029  30.700   8.309
 1289POPC   C3B20397  21.942  30.557   7.882
 1289POPC   C4B20398  21.701  30.421   7.515
 1290POPC   NC320399  17.698  22.042   9.225
 1290POPC   PO420400  17.272  22.300   9.664
 1290POPC   GL120401  17.223  22.238   9.163
 1290POPC   GL220402  17.193  21.926   9.108
 1290POPC   C1A20403  17.446  22.066   8.683
 1290POPC   D2A20404  17.704  21.928   8.349
 1290POPC   C3A20405  17.760  22.288   8.110
 1290POPC   C4A20406  17.559  22.373   7.745
 1290POPC   C1B20407  16.961  22.094   8.725
 1290POPC   C2B20408  17.147  22.196   8.302
 1290POPC   C3B20409  17.289  21.954   7.967
 1290POPC   C4B20410  17.128  22.126   7.592
 1291POPC   NC320411  16.038  26.466   9.290
 1291POPC   PO420412  15.560  26.778   9.668
 1291POPC   GL120413  15.783  26.889   9.170
 1291POPC   GL220414  16.133  26.834   8.975
 1291POPC   C1A20415  15.755  26.659   8.710
 1291POPC   D2A20416  15.994  26.564   8.372
 1291POPC   C3A20417  15.781  26.627   8.013
 1291POPC   C4A20418  16.006  26.756   7.686
 1291POPC   C1B20419  16.339  27.024   8.662
 1291POPC   C2B20420  16.239  27.188   8.267
 1291POPC   C3B20421  16.325  27.145   7.840
 1291POPC   C4B20422  16.372  26.955   7.417
 1292POPC   NC320423  35.695  18.500   9.573
 1292POPC   PO420424  35.284  18.065   9.627
 1292POPC   GL120425  35.471  18.127   9.191
 1292POPC   GL220426  35.569  18.481   9.093
 1292POPC   C1A20427  35.441  18.179   8.714
 1292POPC   D2A20428  35.614  17.963   8.356
 1292POPC   C3A20429  35.303  18.098   8.092
 1292POPC   C4A20430  35.124  18.212   7.697
 1292POPC   C1B20431  35.334  18.679   8.769
 1292POPC   C2B20432  35.459  18.712   8.354
 1292POPC   C3B20433  35.366  18.575   7.980
 1292POPC   C4B20434  35.533  18.510   7.578
 1293POPC   NC320435  13.662   7.194   9.303
 1293POPC   PO420436  13.585   6.514   9.491
 1293POPC   GL120437  13.731   6.685   9.166
 1293POPC   GL220438  14.042   6.544   9.247
 1293POPC   C1A20439  13.534   6.793   8.773
 1293POPC   D2A20440  13.465   6.910   8.349
 1293POPC   C3A20441  13.344   6.684   7.967
 1293POPC   C4A20442  13.712   6.794   7.719
 1293POPC   C1B20443  14.103   6.654   8.834
 1293POPC   C2B20444  13.884   6.554   8.474
 1293POPC   C3B20445  13.831   6.427   8.062
 1293POPC   C4B20446  14.097   6.435   7.689
 1294POPC   NC320447  43.866  12.256  10.019
 1294POPC   PO420448  43.750  11.778   9.629
 1294POPC   GL120449  43.856  11.754   9.144
 1294POPC   GL220450  44.212  11.756   9.196
 1294POPC   C1A20451  43.807  11.883   8.661
 1294POPC   D2A20452  43.809  12.203   8.307
 1294POPC   C3A20453  43.733  12.123   7.849
 1294POPC   C4A20454  43.561  12.205   7.406
 1294POPC   C1B20455  44.230  12.078   8.911
 1294POPC   C2B20456  44.282  12.105   8.482
 1294POPC   C3B20457  44.255  12.158   8.052
 1294POPC   C4B20458  44.263  12.075   7.631
 1295POPC   NC320459  39.260  27.971   9.422
 1295POPC   PO420460  39.803  27.672   9.590
 1295POPC   GL120461  39.490  27.615   9.156
 1295POPC   GL220462  39.146  27.535   9.137
 1295POPC   C1A20463  39.242  27.848   8.765
 1295POPC   D2A20464  39.077  27.692   8.353
 1295POPC   C3A20465  39.424  27.734   8.051
 1295POPC   C4A20466  39.395  27.944   7.659
 1295POPC   C1B20467  39.229  27.341   8.723
 1295POPC   C2B20468  39.290  27.207   8.270
 1295POPC   C3B20469  39.361  27.285   7.800
 1295POPC   C4B20470  39.319  27.172   7.348
 1296POPC   NC320471  26.940  21.721   9.365
 1296POPC   PO420472  27.105  21.070   9.645
 1296POPC   GL120473  27.055  21.200   9.220
 1296POPC   GL220474  26.720  21.093   9.131
 1296POPC   C1A20475  27.166  21.243   8.768
 1296POPC   D2A20476  27.209  21.086   8.333
 1296POPC   C3A20477  26.905  21.227   8.016
 1296POPC   C4A20478  27.038  21.400   7.618
 1296POPC   C1B20479  26.663  21.322   8.746
 1296POPC   C2B20480  26.468  21.386   8.335
 1296POPC   C3B20481  26.406  21.556   7.914
 1296POPC   C4B20482  26.608  21.629   7.512
 1297POPC   NC320483  26.155  12.799   9.532
 1297POPC   PO420484  25.946  13.372   9.429
 1297POPC   GL120485  26.010  13.064   9.118
 1297POPC   GL220486  26.356  13.180   9.183
 1297POPC   C1A20487  25.980  12.776   8.738
 1297POPC   D2A20488  25.797  12.737   8.296
 1297POPC   C3A20489  26.080  12.735   7.964
 1297POPC   C4A20490  26.044  12.930   7.597
 1297POPC   C1B20491  26.376  13.122   8.752
 1297POPC   C2B20492  26.259  13.036   8.328
 1297POPC   C3B20493  26.439  13.094   7.884
 1297POPC   C4B20494  26.477  13.085   7.388
 1298POPC   NC320495   6.108   6.572   9.430
 1298POPC   PO420496   5.587   6.981   9.405
 1298POPC   GL120497   5.833   6.885   9.079
 1298POPC   GL220498   5.878   6.549   9.005
 1298POPC   C1A20499   5.655   6.844   8.679
 1298POPC   D2A20500   5.751   6.616   8.360
 1298POPC   C3A20501   5.697   6.810   8.019
 1298POPC   C4A20502   5.710   6.639   7.628
 1298POPC   C1B20503   6.066   6.390   8.684
 1298POPC   C2B20504   6.243   6.500   8.306
 1298POPC   C3B20505   6.062   6.450   7.929
 1298POPC   C4B20506   6.117   6.356   7.505
 1299POPC   NC320507  16.955   4.149   9.483
 1299POPC   PO420508  16.820   4.775   9.505
 1299POPC   GL120509  16.821   4.536   9.093
 1299POPC   GL220510  16.776   4.162   9.021
 1299POPC   C1A20511  17.083   4.483   8.698
 1299POPC   D2A20512  17.066   4.451   8.239
 1299POPC   C3A20513  16.661   4.559   8.017
 1299POPC   C4A20514  16.727   4.744   7.618
 1299POPC   C1B20515  16.561   4.351   8.689
 1299POPC   C2B20516  16.650   4.139   8.329
 1299POPC   C3B20517  16.650   4.062   7.900
 1299POPC   C4B20518  16.433   4.333   7.603
 1300POPC   NC320519  43.025  42.015   9.453
 1300POPC   PO420520  43.255  42.610   9.565
 1300POPC   GL120521  43.084  42.434   9.162
 1300POPC   GL220522  43.368  42.271   9.135
 1300POPC   C1A20523  42.981  42.095   8.802
 1300POPC   D2A20524  42.750  42.009   8.389
 1300POPC   C3A20525  42.974  41.853   7.999
 1300POPC   C4A20526  43.010  41.984   7.565
 1300POPC   C1B20527  43.351  42.417   8.688
 1300POPC   C2B20528  43.255  42.238   8.240
 1300POPC   C3B20529  43.329  42.331   7.774
 1300POPC   C4B20530  43.471  42.699   7.385
 1301POPC   NC320531  33.228  39.964   9.513
 1301POPC   PO420532  32.575  39.889   9.446
 1301POPC   GL120533  32.742  40.070   9.082
 1301POPC   GL220534  33.058  39.921   9.033
 1301POPC   C1A20535  32.738  39.971   8.630
 1301POPC   D2A20536  32.980  39.940   8.247
 1301POPC   C3A20537  32.838  39.637   7.948
 1301POPC   C4A20538  32.812  39.649   7.483
 1301POPC   C1B20539  33.192  40.222   8.769
 1301POPC   C2B20540  33.274  40.377   8.377
 1301POPC   C3B20541  33.020  40.409   8.008
 1301POPC   C4B20542  32.888  40.104   7.706
 1302POPC   NC320543  13.430  25.974   9.400
 1302POPC   PO420544  14.025  26.423   9.458
 1302POPC   GL120545  13.803  26.166   9.142
 1302POPC   GL220546  13.436  26.299   9.004
 1302POPC   C1A20547  13.628  25.915   8.763
 1302POPC   D2A20548  13.489  26.124   8.394
 1302POPC   C3A20549  13.473  25.966   7.987
 1302POPC   C4A20550  13.435  26.174   7.581
 1302POPC   C1B20551  13.820  26.419   8.723
 1302POPC   C2B20552  13.990  26.543   8.328
 1302POPC   C3B20553  13.810  26.355   7.972
 1302POPC   C4B20554  13.952  26.205   7.551
 1303POPC   NC320555  17.829  18.748   9.441
 1303POPC   PO420556  18.025  19.351   9.488
 1303POPC   GL120557  18.163  19.349   9.080
 1303POPC   GL220558  18.079  19.012   9.065
 1303POPC   C1A20559  18.382  19.474   8.706
 1303POPC   D2A20560  18.293  19.611   8.319
 1303POPC   C3A20561  18.067  19.241   8.136
 1303POPC   C4A20562  18.056  19.144   7.731
 1303POPC   C1B20563  18.388  18.962   8.745
 1303POPC   C2B20564  18.526  19.131   8.324
 1303POPC   C3B20565  18.508  18.942   7.906
 1303POPC   C4B20566  18.388  18.722   7.526
 1304POPC   NC320567  26.261  40.735   9.630
 1304POPC   PO420568  25.598  40.874   9.578
 1304POPC   GL120569  25.833  41.010   9.193
 1304POPC   GL220570  26.015  40.723   9.203
 1304POPC   C1A20571  26.107  40.957   8.779
 1304POPC   D2A20572  25.912  40.765   8.419
 1304POPC   C3A20573  25.837  40.990   8.062
 1304POPC   C4A20574  26.109  41.021   7.696
 1304POPC   C1B20575  25.945  40.483   8.837
 1304POPC   C2B20576  26.123  40.296   8.459
 1304POPC   C3B20577  26.067  40.449   8.022
 1304POPC   C4B20578  25.932  40.321   7.596
 1305POPC   NC320579  39.844  22.428   9.759
 1305POPC   PO420580  40.150  21.918   9.284
 1305POPC   GL120581  40.024  22.135   8.964
 1305POPC   GL220582  39.992  22.394   9.221
 1305POPC   C1A20583  40.181  22.297   8.549
 1305POPC   D2A20584  40.487  22.174   8.219
 1305POPC   C3A20585  40.241  21.987   7.881
 1305POPC   C4A20586  39.808  21.995   7.826
 1305POPC   C1B20587  39.899  22.614   8.840
 1305POPC   C2B20588  39.664  22.475   8.510
 1305POPC   C3B20589  39.633  22.431   8.076
 1305POPC   C4B20590  39.908  22.510   7.755
 1306POPC   NC320591  12.328  37.145   9.381
 1306POPC   PO420592  11.868  36.686   9.613
 1306POPC   GL120593  11.995  36.776   9.210
 1306POPC   GL220594  11.711  36.980   9.189
 1306POPC   C1A20595  12.221  36.673   8.810
 1306POPC   D2A20596  12.479  36.866   8.465
 1306POPC   C3A20597  12.266  36.981   8.078
 1306POPC   C4A20598  12.211  36.728   7.710
 1306POPC   C1B20599  11.869  37.069   8.778
 1306POPC   C2B20600  11.891  36.827   8.399
 1306POPC   C3B20601  11.777  36.868   7.954
 1306POPC   C4B20602  11.890  37.216   7.695
 1307POPC   NC320603  25.867  34.789   9.794
 1307POPC   PO420604  25.908  35.442   9.510
 1307POPC   GL120605  25.894  35.401   9.050
 1307POPC   GL220606  26.224  35.369   8.999
 1307POPC   C1A20607  25.854  35.365   8.611
 1307POPC   D2A20608  25.557  35.452   8.298
 1307POPC   C3A20609  25.772  35.421   7.933
 1307POPC   C4A20610  26.045  35.519   7.622
 1307POPC   C1B20611  26.264  35.062   8.668
 1307POPC   C2B20612  26.135  35.129   8.216
 1307POPC   C3B20613  26.108  35.038   7.764
 1307POPC   C4B20614  26.266  35.123   7.328
 1308POPC   NC320615  40.125  28.268   9.240
 1308POPC   PO420616  39.870  28.885   9.535
 1308POPC   GL120617  39.764  28.654   9.191
 1308POPC   GL220618  40.088  28.733   9.056
 1308POPC   C1A20619  39.646  28.609   8.776
 1308POPC   D2A20620  39.705  28.746   8.372
 1308POPC   C3A20621  39.778  28.409   8.095
 1308POPC   C4A20622  39.991  28.320   7.723
 1308POPC   C1B20623  40.156  28.621   8.586
 1308POPC   C2B20624  40.419  28.395   8.249
 1308POPC   C3B20625  40.414  28.108   7.860
 1308POPC   C4B20626  40.282  28.120   7.368
 1309POPC   NC320627  12.415  41.391   9.527
 1309POPC   PO420628  13.124  41.216   9.344
 1309POPC   GL120629  12.798  41.445   9.192
 1309POPC   GL220630  12.526  41.273   9.058
 1309POPC   C1A20631  12.812  41.660   8.833
 1309POPC   D2A20632  12.930  41.439   8.470
 1309POPC   C3A20633  12.828  41.625   8.088
 1309POPC   C4A20634  13.170  41.705   7.825
 1309POPC   C1B20635  12.476  41.304   8.648
 1309POPC   C2B20636  12.497  41.224   8.234
 1309POPC   C3B20637  12.411  41.391   7.864
 1309POPC   C4B20638  12.782  41.403   7.622
 1310POPC   NC320639  28.226  16.560   9.443
 1310POPC   PO420640  28.544  17.192   9.528
 1310POPC   GL120641  28.391  16.993   9.158
 1310POPC   GL220642  28.620  16.753   9.069
 1310POPC   C1A20643  28.131  16.850   8.806
 1310POPC   D2A20644  27.963  16.986   8.409
 1310POPC   C3A20645  28.081  16.789   7.987
 1310POPC   C4A20646  28.355  16.695   7.611
 1310POPC   C1B20647  28.615  16.936   8.647
 1310POPC   C2B20648  28.479  17.097   8.232
 1310POPC   C3B20649  28.668  17.050   7.814
 1310POPC   C4B20650  28.715  16.938   7.345
 1311POPC   NC320651   7.481   2.546   9.497
 1311POPC   PO420652   7.631   3.212   9.515
 1311POPC   GL120653   7.718   3.031   9.082
 1311POPC   GL220654   7.766   2.694   9.075
 1311POPC   C1A20655   7.786   3.071   8.601
 1311POPC   D2A20656   7.720   3.176   8.126
 1311POPC   C3A20657   7.390   2.915   7.881
 1311POPC   C4A20658   6.982   2.682   7.814
 1311POPC   C1B20659   7.600   2.564   8.683
 1311POPC   C2B20660   7.428   2.567   8.248
 1311POPC   C3B20661   7.564   2.356   7.860
 1311POPC   C4B20662   7.616   2.564   7.459
 1312POPC   NC320663  26.832  25.082   9.605
 1312POPC   PO420664  26.588  25.696   9.496
 1312POPC   GL120665  26.740  25.387   9.181
 1312POPC   GL220666  26.567  25.019   9.192
 1312POPC   C1A20667  26.839  25.572   8.776
 1312POPC   D2A20668  27.017  25.659   8.371
 1312POPC   C3A20669  26.814  25.465   8.034
 1312POPC   C4A20670  27.036  25.526   7.699
 1312POPC   C1B20671  26.855  24.912   8.872
 1312POPC   C2B20672  26.976  25.160   8.504
 1312POPC   C3B20673  27.086  25.047   8.078
 1312POPC   C4B20674  26.939  25.033   7.653
 1313POPC   NC320675  15.880  27.104   9.631
 1313POPC   PO420676  16.048  27.762   9.560
 1313POPC   GL120677  16.006  27.648   9.155
 1313POPC   GL220678  16.077  27.314   9.141
 1313POPC   C1A20679  15.811  27.706   8.767
 1313POPC   D2A20680  15.901  27.554   8.378
 1313POPC   C3A20681  15.883  27.798   8.030
 1313POPC   C4A20682  15.895  27.614   7.665
 1313POPC   C1B20683  15.858  27.184   8.738
 1313POPC   C2B20684  15.691  27.067   8.333
 1313POPC   C3B20685  15.807  27.178   7.922
 1313POPC   C4B20686  15.874  27.182   7.446
 1314POPC   NC320687  13.535  10.456   9.687
 1314POPC   PO420688  14.103  10.793   9.632
 1314POPC   GL120689  13.867  10.497   9.305
 1314POPC   GL220690  13.534  10.366   9.197
 1314POPC   C1A20691  13.915  10.247   8.912
 1314POPC   D2A20692  13.734  10.151   8.515
 1314POPC   C3A20693  13.748  10.453   8.169
 1314POPC   C4A20694  13.912  10.474   7.768
 1314POPC   C1B20695  13.299  10.240   8.839
 1314POPC   C2B20696  13.286  10.327   8.370
 1314POPC   C3B20697  13.373  10.149   7.960
 1314POPC   C4B20698  13.556  10.132   7.524
 1315POPC   NC320699  18.237  26.600   9.466
 1315POPC   PO420700  18.862  26.381   9.569
 1315POPC   GL120701  18.649  26.589   9.148
 1315POPC   GL220702  18.286  26.678   8.977
 1315POPC   C1A20703  18.692  26.759   8.717
 1315POPC   D2A20704  18.544  26.542   8.353
 1315POPC   C3A20705  18.264  26.724   8.062
 1315POPC   C4A20706  18.372  26.889   7.675
 1315POPC   C1B20707  18.039  26.710   8.592
 1315POPC   C2B20708  17.835  26.496   8.240
 1315POPC   C3B20709  17.922  26.397   7.791
 1315POPC   C4B20710  17.967  26.722   7.419
 1316POPC   NC320711  26.036   2.482   9.540
 1316POPC   PO420712  25.662   3.089   9.624
 1316POPC   GL120713  25.759   3.011   9.137
 1316POPC   GL220714  26.025   2.779   9.124
 1316POPC   C1A20715  25.713   2.745   8.729
 1316POPC   D2A20716  25.721   2.575   8.326
 1316POPC   C3A20717  25.829   2.836   7.978
 1316POPC   C4A20718  26.094   2.852   7.597
 1316POPC   C1B20719  26.222   2.627   8.786
 1316POPC   C2B20720  26.354   2.521   8.400
 1316POPC   C3B20721  26.182   2.504   8.052
 1316POPC   C4B20722  26.177   2.365   7.674
 1317POPC   NC320723  22.652  11.176   9.787
 1317POPC   PO420724  23.257  11.332   9.450
 1317POPC   GL120725  23.236  11.523   9.057
 1317POPC   GL220726  22.893  11.433   9.097
 1317POPC   C1A20727  23.452  11.392   8.677
 1317POPC   D2A20728  23.278  11.230   8.304
 1317POPC   C3A20729  22.996  11.463   8.073
 1317POPC   C4A20730  22.986  11.407   7.660
 1317POPC   C1B20731  22.971  11.176   8.732
 1317POPC   C2B20732  22.787  11.068   8.336
 1317POPC   C3B20733  22.624  11.136   7.920
 1317POPC   C4B20734  22.300  11.104   7.646
 1318POPC   NC320735  19.553  27.292   9.586
 1318POPC   PO420736  20.033  27.668   9.482
 1318POPC   GL120737  19.847  27.725   9.072
 1318POPC   GL220738  19.675  27.438   9.106
 1318POPC   C1A20739  19.747  27.697   8.624
 1318POPC   D2A20740  19.903  27.436   8.295
 1318POPC   C3A20741  19.832  27.447   7.869
 1318POPC   C4A20742  19.846  27.696   7.509
 1318POPC   C1B20743  19.688  27.196   8.737
 1318POPC   C2B20744  19.429  27.261   8.380
 1318POPC   C3B20745  19.449  27.067   7.989
 1318POPC   C4B20746  19.452  27.257   7.575
 1319POPC   NC320747  26.691  39.198   9.335
 1319POPC   PO420748  26.090  39.230   9.651
 1319POPC   GL120749  26.144  39.287   9.210
 1319POPC   GL220750  26.334  39.028   9.045
 1319POPC   C1A20751  26.218  39.499   8.803
 1319POPC   D2A20752  26.049  39.362   8.398
 1319POPC   C3A20753  26.069  39.500   7.952
 1319POPC   C4A20754  25.905  39.322   7.523
 1319POPC   C1B20755  26.004  38.980   8.752
 1319POPC   C2B20756  25.676  38.941   8.444
 1319POPC   C3B20757  25.797  39.067   8.040
 1319POPC   C4B20758  26.153  38.959   7.778
 1320POPC   NC320759  44.106  14.542   9.963
 1320POPC   PO420760  43.609  14.624   9.528
 1320POPC   GL120761  43.927  14.531   9.177
 1320POPC   GL220762  43.999  14.189   9.135
 1320POPC   C1A20763  43.955  14.456   8.696
 1320POPC   D2A20764  43.965  14.113   8.372
 1320POPC   C3A20765  43.838  14.293   7.975
 1320POPC   C4A20766  43.852  14.747   7.890
 1320POPC   C1B20767  44.333  14.145   8.804
 1320POPC   C2B20768  44.438  14.317   8.388
 1320POPC   C3B20769  44.301  14.083   7.996
 1320POPC   C4B20770  44.152  14.106   7.619
 1321POPC   NC320771   4.586  11.615   9.528
 1321POPC   PO420772   4.249  10.967   9.481
 1321POPC   GL120773   4.372  11.234   9.200
 1321POPC   GL220774   4.717  11.138   9.221
 1321POPC   C1A20775   4.462  11.410   8.811
 1321POPC   D2A20776   4.359  11.598   8.437
 1321POPC   C3A20777   4.487  11.569   8.050
 1321POPC   C4A20778   4.199  11.392   7.775
 1321POPC   C1B20779   4.647  10.934   8.814
 1321POPC   C2B20780   4.461  11.054   8.422
 1321POPC   C3B20781   4.196  10.997   8.074
 1321POPC   C4B20782   4.282  10.863   7.659
 1322POPC   NC320783   7.115  41.578   9.436
 1322POPC   PO420784   7.556  41.241   9.436
 1322POPC   GL120785   7.517  41.532   9.083
 1322POPC   GL220786   7.175  41.559   8.930
 1322POPC   C1A20787   7.596  41.714   8.673
 1322POPC   D2A20788   7.432  41.711   8.241
 1322POPC   C3A20789   7.711  41.620   7.882
 1322POPC   C4A20790   7.792  41.796   7.442
 1322POPC   C1B20791   7.391  41.243   8.660
 1322POPC   C2B20792   7.387  41.185   8.211
 1322POPC   C3B20793   7.170  41.437   7.889
 1322POPC   C4B20794   6.979  41.541   7.470
 1323POPC   NC320795  30.947  30.914   9.578
 1323POPC   PO420796  30.367  30.678   9.337
 1323POPC   GL120797  30.608  30.544   9.051
 1323POPC   GL220798  30.913  30.459   9.220
 1323POPC   C1A20799  30.648  30.773   8.674
 1323POPC   D2A20800  30.509  30.709   8.256
 1323POPC   C3A20801  30.612  30.984   7.916
 1323POPC   C4A20802  30.342  30.679   7.738
 1323POPC   C1B20803  31.051  30.412   8.785
 1323POPC   C2B20804  31.001  30.582   8.354
 1323POPC   C3B20805  30.908  30.556   7.911
 1323POPC   C4B20806  31.031  30.811   7.581
 1324POPC   NC320807  20.421  30.678   9.659
 1324POPC   PO420808  20.822  30.232   9.691
 1324POPC   GL120809  20.520  30.298   9.303
 1324POPC   GL220810  20.336  30.641   9.165
 1324POPC   C1A20811  20.610  30.334   8.876
 1324POPC   D2A20812  20.638  30.594   8.479
 1324POPC   C3A20813  20.959  30.494   8.165
 1324POPC   C4A20814  20.837  30.333   7.759
 1324POPC   C1B20815  20.300  30.881   8.747
 1324POPC   C2B20816  20.544  31.087   8.399
 1324POPC   C3B20817  20.640  30.880   8.001
 1324POPC   C4B20818  20.507  31.015   7.599
 1325POPC   NC320819  40.346  24.406   9.404
 1325POPC   PO420820  39.638  24.146   9.395
 1325POPC   GL120821  39.904  24.389   9.127
 1325POPC   GL220822  39.731  24.680   9.107
 1325POPC   C1A20823  40.218  24.354   8.784
 1325POPC   D2A20824  40.071  24.303   8.384
 1325POPC   C3A20825  40.346  24.298   8.028
 1325POPC   C4A20826  40.334  24.491   7.616
 1325POPC   C1B20827  39.901  24.735   8.706
 1325POPC   C2B20828  39.814  24.831   8.280
 1325POPC   C3B20829  39.952  24.666   7.914
 1325POPC   C4B20830  39.683  24.492   7.602
 1326POPC   NC320831   2.624   7.210   9.283
 1326POPC   PO420832   2.866   6.723   9.669
 1326POPC   GL120833   2.898   6.699   9.196
 1326POPC   GL220834   2.587   6.777   9.011
 1326POPC   C1A20835   2.948   6.505   8.754
 1326POPC   D2A20836   2.780   6.309   8.401
 1326POPC   C3A20837   2.863   6.443   8.021
 1326POPC   C4A20838   2.491   6.483   7.812
 1326POPC   C1B20839   2.905   7.007   8.716
 1326POPC   C2B20840   2.999   6.880   8.276
 1326POPC   C3B20841   2.858   6.930   7.832
 1326POPC   C4B20842   3.067   7.012   7.451
 1327POPC   NC320843   9.227   4.292   9.579
 1327POPC   PO420844   8.583   4.351   9.555
 1327POPC   GL120845   8.884   4.331   9.196
 1327POPC   GL220846   8.935   3.996   9.042
 1327POPC   C1A20847   9.017   4.433   8.757
 1327POPC   D2A20848   9.065   4.295   8.326
 1327POPC   C3A20849   9.213   4.560   7.994
 1327POPC   C4A20850   8.898   4.620   7.673
 1327POPC   C1B20851   8.724   3.995   8.602
 1327POPC   C2B20852   8.643   4.063   8.135
 1327POPC   C3B20853   8.597   4.199   7.675
 1327POPC   C4B20854   8.641   3.936   7.286
 1328POPC   NC320855  29.767  36.432   9.448
 1328POPC   PO420856  29.996  35.795   9.520
 1328POPC   GL120857  29.999  36.042   9.147
 1328POPC   GL220858  29.709  36.263   8.991
 1328POPC   C1A20859  30.121  36.107   8.742
 1328POPC   D2A20860  29.867  36.191   8.412
 1328POPC   C3A20861  30.066  36.241   8.021
 1328POPC   C4A20862  29.809  36.510   7.783
 1328POPC   C1B20863  29.622  35.902   8.804
 1328POPC   C2B20864  29.596  35.771   8.414
 1328POPC   C3B20865  29.708  35.883   8.011
 1328POPC   C4B20866  29.584  35.808   7.630
 1329POPC   NC320867  30.393  44.979   9.334
 1329POPC   PO420868  30.950   0.352   9.551
 1329POPC   GL120869  30.649   0.402   9.159
 1329POPC   GL220870  30.615   0.152   8.926
 1329POPC   C1A20871  30.444   0.585   8.772
 1329POPC   D2A20872  30.610   0.459   8.384
 1329POPC   C3A20873  30.437   0.583   7.992
 1329POPC   C4A20874  30.716   0.761   7.679
 1329POPC   C1B20875  30.888   0.006   8.619
 1329POPC   C2B20876  31.058   0.202   8.258
 1329POPC   C3B20877  30.900   0.308   7.854
 1329POPC   C4B20878  30.903   0.103   7.419
 1330POPC   NC320879  38.463  16.958   9.504
 1330POPC   PO420880  38.397  17.680   9.428
 1330POPC   GL120881  38.398  17.908   9.033
 1330POPC   GL220882  38.741  17.872   9.087
 1330POPC   C1A20883  38.285  17.872   8.599
 1330POPC   D2A20884  38.073  17.515   8.404
 1330POPC   C3A20885  38.187  17.383   8.010
 1330POPC   C4A20886  38.400  17.652   7.754
 1330POPC   C1B20887  38.754  17.662   8.684
 1330POPC   C2B20888  38.608  17.647   8.242
 1330POPC   C3B20889  38.862  17.818   7.884
 1330POPC   C4B20890  38.752  17.849   7.439
 1331POPC   NC320891  31.956  20.341   9.393
 1331POPC   PO420892  31.436  20.786   9.431
 1331POPC   GL120893  31.633  20.683   9.076
 1331POPC   GL220894  31.388  20.459   9.046
 1331POPC   C1A20895  31.593  20.623   8.612
 1331POPC   D2A20896  31.285  20.551   8.281
 1331POPC   C3A20897  31.383  20.748   7.889
 1331POPC   C4A20898  31.424  21.167   7.772
 1331POPC   C1B20899  31.615  20.145   8.810
 1331POPC   C2B20900  31.663  20.155   8.364
 1331POPC   C3B20901  31.736  20.411   8.023
 1331POPC   C4B20902  31.760  20.462   7.573
 1332POPC   NC320903  22.688  44.572   9.622
 1332POPC   PO420904  23.339  44.402   9.456
 1332POPC   GL120905  22.969  44.538   9.162
 1332POPC   GL220906  22.778  44.871   9.203
 1332POPC   C1A20907  22.969  44.750   8.732
 1332POPC   D2A20908  23.007  44.772   8.281
 1332POPC   C3A20909  23.110  44.427   8.021
 1332POPC   C4A20910  22.879  44.239   7.688
 1332POPC   C1B20911  22.489  44.960   8.859
 1332POPC   C2B20912  22.531  44.846   8.450
 1332POPC   C3B20913  22.605  44.965   8.030
 1332POPC   C4B20914  22.941  44.824   7.749
 1333POPC   NC320915  40.658  29.753   9.449
 1333POPC   PO420916  41.043  30.259   9.559
 1333POPC   GL120917  40.817  30.213   9.197
 1333POPC   GL220918  40.974  29.905   9.056
 1333POPC   C1A20919  40.523  30.073   8.873
 1333POPC   D2A20920  40.515  30.218   8.474
 1333POPC   C3A20921  40.685  29.947   8.188
 1333POPC   C4A20922  40.502  29.959   7.784
 1333POPC   C1B20923  41.001  30.233   8.718
 1333POPC   C2B20924  41.007  30.408   8.300
 1333POPC   C3B20925  40.956  30.262   7.864
 1333POPC   C4B20926  40.992  29.802   7.801
 1334POPC   NC320927  20.122   0.899   9.486
 1334POPC   PO420928  19.503   1.193   9.582
 1334POPC   GL120929  19.815   1.215   9.213
 1334POPC   GL220930  20.131   1.382   9.269
 1334POPC   C1A20931  19.848   1.150   8.731
 1334POPC   D2A20932  19.892   0.944   8.300
 1334POPC   C3A20933  19.648   1.040   7.917
 1334POPC   C4A20934  19.717   1.169   7.524
 1334POPC   C1B20935  19.979   1.629   8.912
 1334POPC   C2B20936  19.880   1.594   8.473
 1334POPC   C3B20937  19.891   1.456   8.056
 1334POPC   C4B20938  19.812   1.635   7.642
 1335POPC   NC320939   3.526   6.837   9.505
 1335POPC   PO420940   3.243   6.267   9.267
 1335POPC   GL120941   3.390   6.677   9.037
 1335POPC   GL220942   3.297   7.044   9.083
 1335POPC   C1A20943   3.378   6.792   8.614
 1335POPC   D2A20944   3.292   6.444   8.331
 1335POPC   C3A20945   3.447   6.445   7.906
 1335POPC   C4A20946   3.166   6.541   7.610
 1335POPC   C1B20947   3.729   7.067   8.867
 1335POPC   C2B20948   3.875   6.940   8.447
 1335POPC   C3B20949   3.542   6.893   8.132
 1335POPC   C4B20950   3.506   7.000   7.723
 1336POPC   NC320951  16.105   1.004   9.601
 1336POPC   PO420952  15.506   1.085   9.347
 1336POPC   GL120953  15.833   1.240   9.049
 1336POPC   GL220954  16.173   1.267   9.148
 1336POPC   C1A20955  16.063   1.115   8.633
 1336POPC   D2A20956  16.156   1.082   8.163
 1336POPC   C3A20957  15.925   1.047   7.756
 1336POPC   C4A20958  15.826   0.819   7.323
 1336POPC   C1B20959  16.347   1.511   8.776
 1336POPC   C2B20960  16.246   1.619   8.345
 1336POPC   C3B20961  16.359   1.479   7.922
 1336POPC   C4B20962  16.166   1.424   7.510
 1337POPC   NC320963  31.252  24.105   9.443
 1337POPC   PO420964  31.670  24.687   9.415
 1337POPC   GL120965  31.430  24.473   9.130
 1337POPC   GL220966  31.585  24.152   9.084
 1337POPC   C1A20967  31.215  24.483   8.755
 1337POPC   D2A20968  31.424  24.375   8.400
 1337POPC   C3A20969  31.395  24.608   8.043
 1337POPC   C4A20970  31.119  24.451   7.748
 1337POPC   C1B20971  31.568  24.004   8.718
 1337POPC   C2B20972  31.523  23.864   8.329
 1337POPC   C3B20973  31.464  24.095   7.967
 1337POPC   C4B20974  31.671  24.379   7.679
 1338POPC   NC320975  20.833  22.979   9.640
 1338POPC   PO420976  20.245  22.605   9.514
 1338POPC   GL120977  20.539  22.807   9.232
 1338POPC   GL220978  20.527  23.144   9.230
 1338POPC   C1A20979  20.861  22.863   8.896
 1338POPC   D2A20980  20.859  23.028   8.464
 1338POPC   C3A20981  20.677  22.785   8.151
 1338POPC   C4A20982  20.845  22.758   7.727
 1338POPC   C1B20983  20.494  23.219   8.808
 1338POPC   C2B20984  20.361  23.151   8.400
 1338POPC   C3B20985  20.532  23.260   7.986
 1338POPC   C4B20986  20.302  23.313   7.599
 1339POPC   NC320987  44.005  16.341   9.588
 1339POPC   PO420988  43.691  16.879   9.402
 1339POPC   GL120989  43.800  16.617   9.111
 1339POPC   GL220990  44.146  16.525   9.120
 1339POPC   C1A20991  43.845  16.699   8.691
 1339POPC   D2A20992  43.843  16.968   8.355
 1339POPC   C3A20993  43.881  16.752   7.940
 1339POPC   C4A20994  43.740  16.983   7.571
 1339POPC   C1B20995  44.344  16.709   8.747
 1339POPC   C2B20996  44.261  16.686   8.308
 1339POPC   C3B20997  44.372  16.594   7.875
 1339POPC   C4B20998  44.506  16.358   7.519
 1340POPC   NC320999  20.067  31.081   9.318
 1340POPC   PO421000  19.808  31.678   9.520
 1340POPC   GL121001  19.684  31.741   9.122
 1340POPC   GL221002  19.869  31.458   9.023
 1340POPC   C1A21003  19.740  31.884   8.744
 1340POPC   D2A21004  19.855  31.603   8.469
 1340POPC   C3A21005  19.810  31.679   8.038
 1340POPC   C4A21006  20.002  31.480   7.690
 1340POPC   C1B21007  19.843  31.131   8.696
 1340POPC   C2B21008  20.053  31.165   8.301
 1340POPC   C3B21009  20.111  30.969   7.923
 1340POPC   C4B21010  20.013  31.009   7.501
 1341POPC   NC321011  31.099  20.438   9.494
 1341POPC   PO421012  30.608  21.024   9.471
 1341POPC   GL121013  30.898  20.801   9.178
 1341POPC   GL221014  30.845  20.447   9.080
 1341POPC   C1A21015  31.070  20.732   8.750
 1341POPC   D2A21016  30.988  20.954   8.403
 1341POPC   C3A21017  30.697  20.856   8.071
 1341POPC   C4A21018  30.919  20.795   7.686
 1341POPC   C1B21019  30.618  20.442   8.769
 1341POPC   C2B21020  30.761  20.482   8.394
 1341POPC   C3B21021  30.844  20.369   7.984
 1341POPC   C4B21022  30.721  19.996   7.781
 1342POPC   NC321023  29.442  20.765   9.389
 1342POPC   PO421024  28.831  20.639   9.497
 1342POPC   GL121025  28.997  20.631   9.122
 1342POPC   GL221026  28.818  20.368   9.013
 1342POPC   C1A21027  29.138  20.822   8.756
 1342POPC   D2A21028  29.145  21.061   8.387
 1342POPC   C3A21029  29.395  20.889   8.050
 1342POPC   C4A21030  29.143  20.770   7.683
 1342POPC   C1B21031  29.200  20.304   8.759
 1342POPC   C2B21032  29.263  20.495   8.372
 1342POPC   C3B21033  29.310  20.375   7.959
 1342POPC   C4B21034  29.144  20.281   7.551
 1343POPC   NC321035  29.354  15.950   9.584
 1343POPC   PO421036  28.851  15.554   9.576
 1343POPC   GL121037  28.954  15.945   9.268
 1343POPC   GL221038  29.304  15.990   9.081
 1343POPC   C1A21039  28.872  16.070   8.818
 1343POPC   D2A21040  28.704  16.196   8.407
 1343POPC   C3A21041  28.750  15.974   7.993
 1343POPC   C4A21042  28.712  15.653   7.641
 1343POPC   C1B21043  29.329  16.281   8.734
 1343POPC   C2B21044  29.188  16.355   8.294
 1343POPC   C3B21045  29.210  16.193   7.873
 1343POPC   C4B21046  29.437  16.066   7.493
 1344POPC   NC321047  36.583   9.672   9.410
 1344POPC   PO421048  35.938   9.831   9.626
 1344POPC   GL121049  36.092   9.799   9.203
 1344POPC   GL221050  36.034   9.470   9.223
 1344POPC   C1A21051  36.305   9.856   8.773
 1344POPC   D2A21052  36.454  10.029   8.355
 1344POPC   C3A21053  36.282   9.873   7.959
 1344POPC   C4A21054  35.831   9.901   7.834
 1344POPC   C1B21055  36.054   9.412   8.805
 1344POPC   C2B21056  36.217   9.409   8.404
 1344POPC   C3B21057  35.982   9.420   8.040
 1344POPC   C4B21058  36.098   9.512   7.635
 1345POPC   NC321059  11.889  19.463   9.540
 1345POPC   PO421060  12.226  20.096   9.510
 1345POPC   GL121061  12.192  19.748   9.212
 1345POPC   GL221062  11.857  19.710   9.084
 1345POPC   C1A21063  12.315  19.854   8.816
 1345POPC   D2A21064  12.118  19.721   8.460
 1345POPC   C3A21065  12.085  19.926   8.057
 1345POPC   C4A21066  12.387  19.786   7.767
 1345POPC   C1B21067  11.783  19.442   8.713
 1345POPC   C2B21068  11.694  19.538   8.239
 1345POPC   C3B21069  11.779  19.557   7.766
 1345POPC   C4B21070  11.891  19.338   7.336
 1346POPC   NC321071  14.077  14.354   9.614
 1346POPC   PO421072  14.570  14.729   9.386
 1346POPC   GL121073  14.328  14.426   9.179
 1346POPC   GL221074  14.123  14.619   9.105
 1346POPC   C1A21075  14.281  14.202   8.774
 1346POPC   D2A21076  14.295  13.954   8.378
 1346POPC   C3A21077  14.254  14.181   7.993
 1346POPC   C4A21078  14.070  14.383   7.625
 1346POPC   C1B21079  14.474  14.673   8.761
 1346POPC   C2B21080  14.392  14.530   8.367
 1346POPC   C3B21081  14.156  14.679   8.040
 1346POPC   C4B21082  14.451  14.694   7.731
 1347POPC   NC321083  28.474   3.177   9.557
 1347POPC   PO421084  28.616   3.869   9.462
 1347POPC   GL121085  28.394   3.668   9.090
 1347POPC   GL221086  28.442   3.337   9.086
 1347POPC   C1A21087  28.356   3.629   8.584
 1347POPC   D2A21088  28.474   3.848   8.262
 1347POPC   C3A21089  28.237   3.894   7.965
 1347POPC   C4A21090  28.114   3.764   7.625
 1347POPC   C1B21091  28.306   3.128   8.742
 1347POPC   C2B21092  28.422   3.127   8.358
 1347POPC   C3B21093  28.400   3.379   8.021
 1347POPC   C4B21094  28.174   3.267   7.669
 1348POPC   NC321095  36.098  33.584   9.585
 1348POPC   PO421096  36.518  34.111   9.451
 1348POPC   GL121097  36.281  33.780   9.146
 1348POPC   GL221098  36.102  33.412   9.122
 1348POPC   C1A21099  36.144  33.797   8.726
 1348POPC   D2A21100  35.869  33.980   8.415
 1348POPC   C3A21101  36.130  33.929   8.057
 1348POPC   C4A21102  36.498  34.131   7.895
 1348POPC   C1B21103  35.959  33.308   8.707
 1348POPC   C2B21104  36.074  33.468   8.312
 1348POPC   C3B21105  36.025  33.322   7.907
 1348POPC   C4B21106  35.958  33.390   7.492
 1349POPC   NC321107   5.101  11.947   9.808
 1349POPC   PO421108   5.568  12.323   9.622
 1349POPC   GL121109   5.251  12.095   9.325
 1349POPC   GL221110   5.359  12.189   9.021
 1349POPC   C1A21111   4.967  11.919   8.936
 1349POPC   D2A21112   5.189  11.920   8.529
 1349POPC   C3A21113   5.034  12.039   8.106
 1349POPC   C4A21114   4.805  12.103   7.744
 1349POPC   C1B21115   5.059  12.394   8.754
 1349POPC   C2B21116   5.199  12.452   8.354
 1349POPC   C3B21117   5.476  12.287   8.071
 1349POPC   C4B21118   5.336  12.192   7.668
 1350POPC   NC321119   8.679  19.584   9.492
 1350POPC   PO421120   9.100  20.017   9.714
 1350POPC   GL121121   9.051  19.847   9.232
 1350POPC   GL221122   8.707  19.851   9.078
 1350POPC   C1A21123   9.069  19.946   8.742
 1350POPC   D2A21124   8.824  19.844   8.359
 1350POPC   C3A21125   9.057  19.863   7.945
 1350POPC   C4A21126   8.996  19.640   7.521
 1350POPC   C1B21127   8.536  20.140   8.782
 1350POPC   C2B21128   8.681  20.375   8.467
 1350POPC   C3B21129   8.740  20.257   8.051
 1350POPC   C4B21130   8.707  20.045   7.639
 1351POPC   NC321131  20.490  18.751   9.526
 1351POPC   PO421132  20.802  18.293   9.662
 1351POPC   GL121133  20.602  18.301   9.235
 1351POPC   GL221134  20.399  18.017   9.107
 1351POPC   C1A21135  20.534  18.414   8.768
 1351POPC   D2A21136  20.548  18.536   8.327
 1351POPC   C3A21137  20.538  18.291   7.917
 1351POPC   C4A21138  20.533  18.176   7.455
 1351POPC   C1B21139  20.344  17.957   8.626
 1351POPC   C2B21140  20.318  17.883   8.152
 1351POPC   C3B21141  20.112  18.067   7.729
 1351POPC   C4B21142  20.077  18.330   7.304
 1352POPC   NC321143  21.180  23.552   9.605
 1352POPC   PO421144  21.323  24.228   9.482
 1352POPC   GL121145  21.436  23.844   9.243
 1352POPC   GL221146  21.113  23.758   9.129
 1352POPC   C1A21147  21.526  23.601   8.857
 1352POPC   D2A21148  21.621  23.721   8.434
 1352POPC   C3A21149  21.579  23.456   8.073
 1352POPC   C4A21150  21.417  23.587   7.671
 1352POPC   C1B21151  21.145  23.905   8.683
 1352POPC   C2B21152  21.195  23.878   8.227
 1352POPC   C3B21153  21.075  23.995   7.806
 1352POPC   C4B21154  20.994  23.861   7.384
 1353POPC   NC321155  27.919  21.806   9.547
 1353POPC   PO421156  27.313  22.251   9.622
 1353POPC   GL121157  27.491  22.080   9.177
 1353POPC   GL221158  27.845  22.054   9.127
 1353POPC   C1A21159  27.522  22.197   8.755
 1353POPC   D2A21160  27.321  22.075   8.385
 1353POPC   C3A21161  27.520  22.302   8.096
 1353POPC   C4A21162  27.405  22.230   7.710
 1353POPC   C1B21163  27.903  21.801   8.807
 1353POPC   C2B21164  27.807  21.930   8.413
 1353POPC   C3B21165  27.771  21.826   8.013
 1353POPC   C4B21166  28.131  21.681   7.835
 1354POPC   NC321167   7.150  19.281   9.328
 1354POPC   PO421168   7.483  18.733   9.438
 1354POPC   GL121169   7.338  18.871   9.071
 1354POPC   GL221170   7.585  19.120   9.067
 1354POPC   C1A21171   7.508  18.761   8.673
 1354POPC   D2A21172   7.764  18.959   8.350
 1354POPC   C3A21173   7.641  18.900   7.922
 1354POPC   C4A21174   7.610  18.692   7.484
 1354POPC   C1B21175   7.394  19.263   8.711
 1354POPC   C2B21176   7.237  19.343   8.331
 1354POPC   C3B21177   7.441  19.378   7.962
 1354POPC   C4B21178   7.303  19.482   7.579
 1355POPC   NC321179   9.550  25.108   9.370
 1355POPC   PO421180  10.036  25.537   9.461
 1355POPC   GL121181   9.869  25.388   9.077
 1355POPC   GL221182   9.982  25.036   9.009
 1355POPC   C1A21183   9.597  25.263   8.734
 1355POPC   D2A21184   9.287  25.315   8.422
 1355POPC   C3A21185   9.483  25.315   8.050
 1355POPC   C4A21186   9.765  25.277   7.715
 1355POPC   C1B21187  10.045  24.922   8.560
 1355POPC   C2B21188  10.016  24.998   8.092
 1355POPC   C3B21189  10.109  24.906   7.643
 1355POPC   C4B21190  10.125  25.089   7.206
 1356POPC   NC321191  13.356  20.066   9.484
 1356POPC   PO421192  13.839  19.562   9.340
 1356POPC   GL121193  13.816  19.868   9.016
 1356POPC   GL221194  13.729  20.194   9.127
 1356POPC   C1A21195  13.805  20.085   8.608
 1356POPC   D2A21196  13.854  20.099   8.154
 1356POPC   C3A21197  13.639  19.732   8.031
 1356POPC   C4A21198  13.252  19.611   7.834
 1356POPC   C1B21199  13.344  20.101   8.841
 1356POPC   C2B21200  13.227  20.128   8.381
 1356POPC   C3B21201  13.329  20.126   7.923
 1356POPC   C4B21202  13.646  20.034   7.611
 1357POPC   NC321203   8.765  13.203   9.463
 1357POPC   PO421204   8.790  12.482   9.578
 1357POPC   GL121205   8.904  12.743   9.190
 1357POPC   GL221206   9.173  12.954   9.184
 1357POPC   C1A21207   8.886  12.793   8.743
 1357POPC   D2A21208   8.729  12.736   8.293
 1357POPC   C3A21209   9.025  12.696   7.911
 1357POPC   C4A21210   9.012  12.632   7.423
 1357POPC   C1B21211   9.079  13.251   8.837
 1357POPC   C2B21212   9.096  13.142   8.407
 1357POPC   C3B21213   9.320  13.165   8.021
 1357POPC   C4B21214   9.236  13.070   7.607
 1358POPC   NC321215  13.172  20.833   9.493
 1358POPC   PO421216  12.872  20.185   9.418
 1358POPC   GL121217  12.945  20.379   9.056
 1358POPC   GL221218  12.872  20.722   9.100
 1358POPC   C1A21219  12.772  20.494   8.660
 1358POPC   D2A21220  12.767  20.329   8.251
 1358POPC   C3A21221  13.018  20.520   7.927
 1358POPC   C4A21222  12.650  20.621   7.752
 1358POPC   C1B21223  13.156  20.890   8.778
 1358POPC   C2B21224  13.079  20.792   8.353
 1358POPC   C3B21225  12.903  21.007   7.984
 1358POPC   C4B21226  12.990  20.942   7.526
 1359POPC   NC321227  25.974   9.547   9.418
 1359POPC   PO421228  26.287  10.166   9.308
 1359POPC   GL121229  26.148   9.855   9.026
 1359POPC   GL221230  25.910  10.107   8.873
 1359POPC   C1A21231  25.802   9.621   8.780
 1359POPC   D2A21232  25.652   9.729   8.361
 1359POPC   C3A21233  25.971   9.681   8.064
 1359POPC   C4A21234  25.947   9.393   7.706
 1359POPC   C1B21235  26.146   9.876   8.519
 1359POPC   C2B21236  26.442   9.684   8.234
 1359POPC   C3B21237  26.382   9.626   7.778
 1359POPC   C4B21238  26.441   9.967   7.467
 1360POPC   NC321239  13.992  11.166   9.344
 1360POPC   PO421240  13.370  11.234   9.618
 1360POPC   GL121241  13.468  11.228   9.197
 1360POPC   GL221242  13.562  10.893   9.102
 1360POPC   C1A21243  13.586  11.366   8.793
 1360POPC   D2A21244  13.492  11.277   8.377
 1360POPC   C3A21245  13.217  11.481   8.099
 1360POPC   C4A21246  13.334  11.542   7.681
 1360POPC   C1B21247  13.523  10.675   8.693
 1360POPC   C2B21248  13.385  10.802   8.268
 1360POPC   C3B21249  13.597  11.031   7.940
 1360POPC   C4B21250  13.848  10.961   7.579
 1361POPC   NC321251  37.681  35.730   9.688
 1361POPC   PO421252  37.866  35.135   9.455
 1361POPC   GL121253  37.606  35.228   9.123
 1361POPC   GL221254  37.529  35.579   9.182
 1361POPC   C1A21255  37.582  35.112   8.699
 1361POPC   D2A21256  37.489  35.367   8.347
 1361POPC   C3A21257  37.656  35.283   7.976
 1361POPC   C4A21258  37.574  35.021   7.667
 1361POPC   C1B21259  37.640  35.679   8.758
 1361POPC   C2B21260  37.665  35.858   8.364
 1361POPC   C3B21261  37.450  35.757   7.975
 1361POPC   C4B21262  37.608  35.621   7.579
 1362POPC   NC321263   9.969  28.988   9.539
 1362POPC   PO421264   9.388  29.280   9.565
 1362POPC   GL121265   9.774  29.395   9.308
 1362POPC   GL221266   9.732  29.078   9.109
 1362POPC   C1A21267   9.990  29.451   8.901
 1362POPC   D2A21268  10.132  29.222   8.496
 1362POPC   C3A21269  10.094  29.301   8.033
 1362POPC   C4A21270   9.837  29.167   7.658
 1362POPC   C1B21271  10.041  28.830   8.864
 1362POPC   C2B21272  10.160  28.714   8.438
 1362POPC   C3B21273   9.946  28.788   8.027
 1362POPC   C4B21274   9.931  28.639   7.600
 1363POPC   NC321275  33.535  18.918   9.293
 1363POPC   PO421276  33.140  19.441   9.516
 1363POPC   GL121277  33.066  19.113   9.188
 1363POPC   GL221278  33.052  18.761   9.213
 1363POPC   C1A21279  32.956  19.016   8.754
 1363POPC   D2A21280  33.265  19.048   8.436
 1363POPC   C3A21281  33.121  19.324   8.140
 1363POPC   C4A21282  32.962  19.278   7.739
 1363POPC   C1B21283  33.243  18.609   8.811
 1363POPC   C2B21284  33.042  18.572   8.423
 1363POPC   C3B21285  33.102  18.758   8.023
 1363POPC   C4B21286  33.430  19.018   7.887
 1364POPC   NC321287  38.726  24.907   9.922
 1364POPC   PO421288  39.227  25.247   9.527
 1364POPC   GL121289  39.111  25.043   9.159
 1364POPC   GL221290  38.924  25.313   9.086
 1364POPC   C1A21291  38.931  24.975   8.725
 1364POPC   D2A21292  38.861  24.981   8.282
 1364POPC   C3A21293  39.263  24.962   8.035
 1364POPC   C4A21294  39.195  24.940   7.612
 1364POPC   C1B21295  39.206  25.449   8.820
 1364POPC   C2B21296  39.232  25.292   8.423
 1364POPC   C3B21297  39.299  25.496   8.039
 1364POPC   C4B21298  39.399  25.436   7.621
 1365POPC   NC321299  21.641  42.368   9.576
 1365POPC   PO421300  21.001  42.329   9.618
 1365POPC   GL121301  21.359  42.361   9.167
 1365POPC   GL221302  21.476  42.095   8.997
 1365POPC   C1A21303  21.345  42.428   8.656
 1365POPC   D2A21304  21.584  42.415   8.248
 1365POPC   C3A21305  21.404  42.648   7.887
 1365POPC   C4A21306  21.001  42.647   7.691
 1365POPC   C1B21307  21.639  41.896   8.654
 1365POPC   C2B21308  21.372  41.952   8.341
 1365POPC   C3B21309  21.194  42.164   8.002
 1365POPC   C4B21310  21.527  42.180   7.688
 1366POPC   NC321311  23.074  26.223   9.535
 1366POPC   PO421312  22.506  26.227   9.127
 1366POPC   GL121313  22.929  26.238   9.044
 1366POPC   GL221314  23.008  25.939   9.090
 1366POPC   C1A21315  23.128  26.206   8.629
 1366POPC   D2A21316  22.881  26.039   8.265
 1366POPC   C3A21317  22.915  26.248   7.855
 1366POPC   C4A21318  22.727  26.405   7.460
 1366POPC   C1B21319  22.928  25.723   8.726
 1366POPC   C2B21320  23.136  25.581   8.349
 1366POPC   C3B21321  23.035  25.669   7.926
 1366POPC   C4B21322  23.176  25.608   7.536
 1367POPC   NC321323  41.018  42.319   9.275
 1367POPC   PO421324  40.335  42.552   9.424
 1367POPC   GL121325  40.622  42.595   9.096
 1367POPC   GL221326  40.583  42.219   9.056
 1367POPC   C1A21327  40.642  42.540   8.633
 1367POPC   D2A21328  40.917  42.430   8.287
 1367POPC   C3A21329  40.682  42.522   7.946
 1367POPC   C4A21330  40.767  42.454   7.544
 1367POPC   C1B21331  40.816  42.064   8.681
 1367POPC   C2B21332  40.926  41.927   8.264
 1367POPC   C3B21333  40.898  42.061   7.844
 1367POPC   C4B21334  40.764  41.984   7.381
 1368POPC   NC321335  13.983   2.085   9.613
 1368POPC   PO421336  13.327   1.943   9.671
 1368POPC   GL121337  13.504   2.055   9.305
 1368POPC   GL221338  13.803   2.033   9.115
 1368POPC   C1A21339  13.356   2.078   8.894
 1368POPC   D2A21340  13.491   1.857   8.555
 1368POPC   C3A21341  13.352   1.761   8.142
 1368POPC   C4A21342  13.283   1.857   7.708
 1368POPC   C1B21343  13.790   2.286   8.721
 1368POPC   C2B21344  13.829   2.181   8.313
 1368POPC   C3B21345  14.068   2.062   7.965
 1368POPC   C4B21346  14.021   2.447   7.782
 1369POPC   NC321347   1.564   5.025   9.589
 1369POPC   PO421348   0.888   4.901   9.524
 1369POPC   GL121349   1.120   5.108   9.143
 1369POPC   GL221350   1.489   5.184   9.105
 1369POPC   C1A21351   1.191   5.014   8.705
 1369POPC   D2A21352   1.302   5.047   8.273
 1369POPC   C3A21353   0.985   5.213   7.975
 1369POPC   C4A21354   1.121   4.855   7.751
 1369POPC   C1B21355   1.411   5.464   8.760
 1369POPC   C2B21356   1.196   5.520   8.366
 1369POPC   C3B21357   1.434   5.447   7.968
 1369POPC   C4B21358   1.401   5.540   7.545
 1370POPC   NC321359  29.646  40.807   9.511
 1370POPC   PO421360  30.202  40.580   9.256
 1370POPC   GL121361  29.919  40.861   9.049
 1370POPC   GL221362  29.620  40.613   9.032
 1370POPC   C1A21363  29.912  41.029   8.608
 1370POPC   D2A21364  29.685  40.927   8.233
 1370POPC   C3A21365  29.947  40.890   7.871
 1370POPC   C4A21366  29.943  40.982   7.410
 1370POPC   C1B21367  29.926  40.492   8.691
 1370POPC   C2B21368  29.922  40.455   8.283
 1370POPC   C3B21369  29.656  40.485   7.975
 1370POPC   C4B21370  29.890  40.430   7.618
 1371POPC   NC321371  25.718  12.302   9.505
 1371POPC   PO421372  25.374  11.754   9.541
 1371POPC   GL121373  25.371  12.047   9.202
 1371POPC   GL221374  25.614  12.253   9.013
 1371POPC   C1A21375  25.146  12.129   8.842
 1371POPC   D2A21376  25.289  12.095   8.465
 1371POPC   C3A21377  25.076  11.962   8.160
 1371POPC   C4A21378  25.196  12.024   7.747
 1371POPC   C1B21379  25.712  11.887   8.823
 1371POPC   C2B21380  25.668  11.756   8.419
 1371POPC   C3B21381  25.577  11.903   8.061
 1371POPC   C4B21382  25.735  11.995   7.690
 1372POPC   NC321383  10.736  11.876   9.751
 1372POPC   PO421384  10.156  11.978   9.504
 1372POPC   GL121385  10.376  12.067   9.177
 1372POPC   GL221386  10.679  11.894   9.240
 1372POPC   C1A21387  10.405  12.218   8.774
 1372POPC   D2A21388  10.246  11.998   8.437
 1372POPC   C3A21389  10.476  12.055   8.063
 1372POPC   C4A21390  10.323  12.247   7.714
 1372POPC   C1B21391  10.860  11.990   8.839
 1372POPC   C2B21392  10.804  12.194   8.447
 1372POPC   C3B21393  10.980  12.144   8.048
 1372POPC   C4B21394  10.826  12.109   7.638
 1373POPC   NC321395  33.816  33.169   9.529
 1373POPC   PO421396  33.572  32.490   9.519
 1373POPC   GL121397  33.730  32.781   9.171
 1373POPC   GL221398  34.010  33.043   9.088
 1373POPC   C1A21399  33.620  33.014   8.770
 1373POPC   D2A21400  33.735  33.203   8.346
 1373POPC   C3A21401  33.810  32.996   7.910
 1373POPC   C4A21402  33.787  32.852   7.426
 1373POPC   C1B21403  34.225  32.996   8.714
 1373POPC   C2B21404  34.245  33.066   8.283
 1373POPC   C3B21405  34.226  33.279   7.913
 1373POPC   C4B21406  34.000  33.303   7.525
 1374POPC   NC321407  41.731   1.140   9.460
 1374POPC   PO421408  41.300   1.638   9.562
 1374POPC   GL121409  41.323   1.420   9.120
 1374POPC   GL221410  41.413   1.071   9.059
 1374POPC   C1A21411  41.491   1.413   8.689
 1374POPC   D2A21412  41.495   1.167   8.301
 1374POPC   C3A21413  41.547   1.437   7.940
 1374POPC   C4A21414  41.729   1.572   7.575
 1374POPC   C1B21415  41.761   0.976   8.746
 1374POPC   C2B21416  41.992   0.970   8.346
 1374POPC   C3B21417  41.843   0.896   7.925
 1374POPC   C4B21418  41.464   0.668   7.794
 1375POPC   NC321419  34.148  41.157   9.452
 1375POPC   PO421420  33.470  41.411   9.576
 1375POPC   GL121421  33.664  41.337   9.193
 1375POPC   GL221422  33.851  41.644   9.149
 1375POPC   C1A21423  33.543  41.486   8.766
 1375POPC   D2A21424  33.649  41.283   8.375
 1375POPC   C3A21425  33.476  41.420   7.973
 1375POPC   C4A21426  33.589  41.457   7.544
 1375POPC   C1B21427  34.048  41.391   8.818
 1375POPC   C2B21428  34.133  41.529   8.422
 1375POPC   C3B21429  34.022  41.370   8.030
 1375POPC   C4B21430  34.076  41.496   7.624
 1376POPC   NC321431  35.822  12.820   9.475
 1376POPC   PO421432  36.418  13.126   9.616
 1376POPC   GL121433  36.184  13.086   9.232
 1376POPC   GL221434  36.225  12.750   9.187
 1376POPC   C1A21435  35.979  13.207   8.818
 1376POPC   D2A21436  35.922  13.075   8.374
 1376POPC   C3A21437  35.868  13.330   8.002
 1376POPC   C4A21438  35.857  13.152   7.593
 1376POPC   C1B21439  36.019  12.679   8.792
 1376POPC   C2B21440  36.165  12.617   8.369
 1376POPC   C3B21441  36.175  12.477   7.940
 1376POPC   C4B21442  36.514  12.473   7.621
 1377POPC   NC321443  38.794  43.927   9.599
 1377POPC   PO421444  38.093  43.592   9.435
 1377POPC   GL121445  38.418  43.816   9.171
 1377POPC   GL221446  38.770  43.679   9.122
 1377POPC   C1A21447  38.391  44.073   8.766
 1377POPC   D2A21448  38.536  44.013   8.316
 1377POPC   C3A21449  38.313  44.054   7.921
 1377POPC   C4A21450  38.415  44.322   7.575
 1377POPC   C1B21451  38.510  43.584   8.743
 1377POPC   C2B21452  38.345  43.555   8.352
 1377POPC   C3B21453  38.552  43.605   7.983
 1377POPC   C4B21454  38.805  43.940   7.806
 1378POPC   NC321455  26.772  22.726   9.536
 1378POPC   PO421456  27.103  23.201   9.393
 1378POPC   GL121457  26.845  23.008   9.093
 1378POPC   GL221458  27.063  22.721   9.108
 1378POPC   C1A21459  26.682  22.801   8.709
 1378POPC   D2A21460  26.575  22.642   8.282
 1378POPC   C3A21461  26.752  22.912   7.958
 1378POPC   C4A21462  26.718  23.345   7.806
 1378POPC   C1B21463  27.093  22.492   8.720
 1378POPC   C2B21464  27.078  22.642   8.304
 1378POPC   C3B21465  27.247  22.715   7.889
 1378POPC   C4B21466  27.298  22.655   7.427
 1379POPC   NC321467   7.400   7.550   9.628
 1379POPC   PO421468   7.889   7.141   9.385
 1379POPC   GL121469   7.505   7.251   9.004
 1379POPC   GL221470   7.276   7.505   9.131
 1379POPC   C1A21471   7.472   7.335   8.577
 1379POPC   D2A21472   7.550   7.135   8.191
 1379POPC   C3A21473   7.600   7.439   7.916
 1379POPC   C4A21474   7.491   7.862   7.781
 1379POPC   C1B21475   7.024   7.501   8.781
 1379POPC   C2B21476   6.969   7.403   8.368
 1379POPC   C3B21477   7.093   7.492   7.976
 1379POPC   C4B21478   7.211   7.428   7.581
 1380POPC   NC321479   1.455  21.319   9.796
 1380POPC   PO421480   0.975  21.067   9.375
 1380POPC   GL121481   1.175  21.351   9.148
 1380POPC   GL221482   1.467  21.398   9.292
 1380POPC   C1A21483   1.047  21.364   8.759
 1380POPC   D2A21484   1.182  21.228   8.391
 1380POPC   C3A21485   1.073  21.463   8.041
 1380POPC   C4A21486   0.956  21.211   7.720
 1380POPC   C1B21487   1.522  21.559   8.832
 1380POPC   C2B21488   1.639  21.448   8.377
 1380POPC   C3B21489   1.530  21.255   7.934
 1380POPC   C4B21490   1.715  21.429   7.504
 1381POPC   NC321491  11.785  43.796   9.602
 1381POPC   PO421492  12.277  44.149   9.386
 1381POPC   GL121493  12.212  43.920   9.091
 1381POPC   GL221494  11.849  43.907   9.101
 1381POPC   C1A21495  12.356  43.978   8.693
 1381POPC   D2A21496  12.205  43.832   8.295
 1381POPC   C3A21497  12.250  44.031   7.930
 1381POPC   C4A21498  12.610  44.103   7.689
 1381POPC   C1B21499  11.921  43.743   8.709
 1381POPC   C2B21500  11.818  43.508   8.394
 1381POPC   C3B21501  11.787  43.705   8.021
 1381POPC   C4B21502  11.738  44.149   7.983
 1382POPC   NC321503  41.156  40.591   9.805
 1382POPC   PO421504  40.570  40.974   9.703
 1382POPC   GL121505  40.703  40.898   9.276
 1382POPC   GL221506  41.027  40.721   9.284
 1382POPC   C1A21507  40.811  40.898   8.854
 1382POPC   D2A21508  41.035  40.967   8.493
 1382POPC   C3A21509  40.854  40.852   8.116
 1382POPC   C4A21510  40.781  41.036   7.715
 1382POPC   C1B21511  41.134  40.517   8.875
 1382POPC   C2B21512  40.869  40.488   8.527
 1382POPC   C3B21513  40.837  40.330   8.133
 1382POPC   C4B21514  40.880  40.515   7.728
 1383POPC   NC321515  40.198   9.244   9.781
 1383POPC   PO421516  40.879   9.117   9.573
 1383POPC   GL121517  40.598   8.995   9.240
 1383POPC   GL221518  40.882   8.870   9.038
 1383POPC   C1A21519  40.472   9.089   8.805
 1383POPC   D2A21520  40.507   9.337   8.450
 1383POPC   C3A21521  40.603   9.105   8.111
 1383POPC   C4A21522  40.581   9.154   7.687
 1383POPC   C1B21523  40.887   8.916   8.579
 1383POPC   C2B21524  41.103   8.957   8.220
 1383POPC   C3B21525  41.061   9.139   7.847
 1383POPC   C4B21526  40.959   8.902   7.438
 1384POPC   NC321527  15.805  35.297   9.574
 1384POPC   PO421528  16.380  35.570   9.639
 1384POPC   GL121529  16.213  35.509   9.227
 1384POPC   GL221530  15.868  35.628   9.195
 1384POPC   C1A21531  16.157  35.473   8.765
 1384POPC   D2A21532  16.079  35.636   8.339
 1384POPC   C3A21533  16.039  35.354   7.988
 1384POPC   C4A21534  15.962  35.421   7.551
 1384POPC   C1B21535  15.652  35.354   8.855
 1384POPC   C2B21536  15.627  35.369   8.368
 1384POPC   C3B21537  15.494  35.235   7.920
 1384POPC   C4B21538  15.694  34.993   7.542
 1385POPC   NC321539  36.554  16.560   9.468
 1385POPC   PO421540  37.023  16.987   9.499
 1385POPC   GL121541  36.925  17.116   9.081
 1385POPC   GL221542  36.690  16.906   9.116
 1385POPC   C1A21543  37.057  16.804   8.746
 1385POPC   D2A21544  36.911  16.561   8.400
 1385POPC   C3A21545  36.890  16.747   7.999
 1385POPC   C4A21546  37.035  16.577   7.605
 1385POPC   C1B21547  36.556  16.743   8.763
 1385POPC   C2B21548  36.478  16.819   8.346
 1385POPC   C3B21549  36.421  16.523   8.047
 1385POPC   C4B21550  36.525  16.636   7.635
 1386POPC   NC321551   0.263  42.074   9.525
 1386POPC   PO421552   0.584  42.601   9.692
 1386POPC   GL121553   0.399  42.611   9.254
 1386POPC   GL221554   0.427  42.268   9.078
 1386POPC   C1A21555   0.132  42.707   8.865
 1386POPC   D2A21556  44.981  42.809   8.418
 1386POPC   C3A21557   0.258  42.709   8.052
 1386POPC   C4A21558   0.589  42.424   7.878
 1386POPC   C1B21559   0.621  42.555   8.783
 1386POPC   C2B21560   0.620  42.466   8.375
 1386POPC   C3B21561   0.745  42.065   8.201
 1386POPC   C4B21562   0.968  42.003   7.788
 1387POPC   NC321563   0.514  40.083   9.842
 1387POPC   PO421564   0.203  39.553   9.543
 1387POPC   GL121565   0.272  39.772   9.183
 1387POPC   GL221566   0.507  40.054   9.284
 1387POPC   C1A21567   0.219  39.986   8.827
 1387POPC   D2A21568   0.353  40.151   8.468
 1387POPC   C3A21569   0.255  39.958   8.068
 1387POPC   C4A21570   0.291  39.832   7.622
 1387POPC   C1B21571   0.714  39.898   8.895
 1387POPC   C2B21572   0.854  40.068   8.550
 1387POPC   C3B21573   0.751  40.078   8.134
 1387POPC   C4B21574   0.857  39.850   7.783
 1388POPC   NC321575  33.448  21.670   9.533
 1388POPC   PO421576  32.799  21.418   9.580
 1388POPC   GL121577  32.810  21.365   9.176
 1388POPC   GL221578  33.182  21.382   9.142
 1388POPC   C1A21579  32.848  21.185   8.797
 1388POPC   D2A21580  32.682  21.231   8.406
 1388POPC   C3A21581  33.014  21.176   8.148
 1388POPC   C4A21582  32.845  21.286   7.772
 1388POPC   C1B21583  33.256  21.521   8.706
 1388POPC   C2B21584  33.323  21.745   8.310
 1388POPC   C3B21585  33.327  21.551   7.938
 1388POPC   C4B21586  33.405  21.169   7.807
 1389POPC   NC321587   5.336  44.258   9.709
 1389POPC   PO421588   4.783  44.030   9.612
 1389POPC   GL121589   4.979  44.380   9.278
 1389POPC   GL221590   5.335  44.360   9.189
 1389POPC   C1A21591   5.044  44.532   8.803
 1389POPC   D2A21592   5.274  44.641   8.391
 1389POPC   C3A21593   5.162  44.567   7.920
 1389POPC   C4A21594   5.247  44.814   7.518
 1389POPC   C1B21595   5.561  44.406   8.779
 1389POPC   C2B21596   5.745  44.417   8.372
 1389POPC   C3B21597   5.676  44.554   7.969
 1389POPC   C4B21598   5.614  44.478   7.563
 1390POPC   NC321599  37.401   9.316   9.524
 1390POPC   PO421600  37.924   8.819   9.570
 1390POPC   GL121601  37.797   9.063   9.203
 1390POPC   GL221602  37.963   9.365   9.325
 1390POPC   C1A21603  37.682   9.128   8.713
 1390POPC   D2A21604  37.397   9.143   8.340
 1390POPC   C3A21605  37.477   8.875   7.988
 1390POPC   C4A21606  37.918   8.655   7.953
 1390POPC   C1B21607  38.044   9.427   8.880
 1390POPC   C2B21608  38.153   9.284   8.495
 1390POPC   C3B21609  37.889   9.116   8.199
 1390POPC   C4B21610  37.773   9.261   7.823
 1391POPC   NC321611  31.280   7.735   9.477
 1391POPC   PO421612  31.503   7.189   9.664
 1391POPC   GL121613  31.460   7.232   9.145
 1391POPC   GL221614  31.285   7.534   9.001
 1391POPC   C1A21615  31.531   7.154   8.703
 1391POPC   D2A21616  31.280   6.959   8.382
 1391POPC   C3A21617  31.431   7.091   7.994
 1391POPC   C4A21618  31.258   7.294   7.695
 1391POPC   C1B21619  31.081   7.370   8.622
 1391POPC   C2B21620  31.404   7.467   8.311
 1391POPC   C3B21621  31.406   7.701   7.940
 1391POPC   C4B21622  30.970   7.693   7.808
 1392POPC   NC321623   5.412  34.639   9.931
 1392POPC   PO421624   5.081  34.754   9.337
 1392POPC   GL121625   5.228  34.625   8.986
 1392POPC   GL221626   5.491  34.412   9.126
 1392POPC   C1A21627   4.963  34.492   8.613
 1392POPC   D2A21628   4.837  34.508   8.180
 1392POPC   C3A21629   5.126  34.743   7.979
 1392POPC   C4A21630   5.246  34.805   7.538
 1392POPC   C1B21631   5.431  34.279   8.684
 1392POPC   C2B21632   5.295  34.279   8.243
 1392POPC   C3B21633   5.261  34.292   7.784
 1392POPC   C4B21634   5.366  34.326   7.337
 1393POPC   NC321635  15.560   8.883   9.598
 1393POPC   PO421636  15.108   9.385   9.281
 1393POPC   GL121637  15.278   8.959   9.162
 1393POPC   GL221638  15.316   9.202   8.868
 1393POPC   C1A21639  15.472   8.752   8.782
 1393POPC   D2A21640  15.329   8.976   8.408
 1393POPC   C3A21641  15.441   8.917   7.990
 1393POPC   C4A21642  15.173   8.764   7.694
 1393POPC   C1B21643  15.110   9.410   8.588
 1393POPC   C2B21644  14.842   9.215   8.386
 1393POPC   C3B21645  14.973   9.111   8.015
 1393POPC   C4B21646  14.856   9.179   7.600
 1394POPC   NC321647   8.726  32.041   9.489
 1394POPC   PO421648   9.273  31.779   9.149
 1394POPC   GL121649   9.046  32.075   8.927
 1394POPC   GL221650   8.948  32.345   9.142
 1394POPC   C1A21651   9.082  32.304   8.516
 1394POPC   D2A21652   8.874  32.332   8.129
 1394POPC   C3A21653   9.149  32.277   7.863
 1394POPC   C4A21654   9.420  32.022   7.657
 1394POPC   C1B21655   8.637  32.357   8.801
 1394POPC   C2B21656   8.458  32.418   8.407
 1394POPC   C3B21657   8.468  32.581   7.976
 1394POPC   C4B21658   8.711  32.402   7.594
 1395POPC   NC321659  35.293  22.278   9.276
 1395POPC   PO421660  35.693  21.735   9.391
 1395POPC   GL121661  35.659  22.027   9.071
 1395POPC   GL221662  35.840  22.292   9.198
 1395POPC   C1A21663  35.397  22.123   8.659
 1395POPC   D2A21664  35.187  22.413   8.367
 1395POPC   C3A21665  35.059  22.265   7.968
 1395POPC   C4A21666  35.250  22.321   7.591
 1395POPC   C1B21667  35.869  22.340   8.742
 1395POPC   C2B21668  35.695  22.488   8.379
 1395POPC   C3B21669  35.579  22.362   7.999
 1395POPC   C4B21670  35.791  22.360   7.627
 1396POPC   NC321671  32.722  26.854   9.584
 1396POPC   PO421672  32.294  26.348   9.693
 1396POPC   GL121673  32.319  26.646   9.333
 1396POPC   GL221674  32.606  26.520   9.215
 1396POPC   C1A21675  32.395  26.892   8.915
 1396POPC   D2A21676  32.302  26.748   8.468
 1396POPC   C3A21677  32.273  26.948   8.034
 1396POPC   C4A21678  32.319  26.704   7.649
 1396POPC   C1B21679  32.752  26.485   8.839
 1396POPC   C2B21680  32.782  26.531   8.417
 1396POPC   C3B21681  32.694  26.654   8.015
 1396POPC   C4B21682  32.868  26.587   7.612
 1397POPC   NC321683  44.126   8.946   9.606
 1397POPC   PO421684  43.617   9.315   9.588
 1397POPC   GL121685  43.780   8.994   9.239
 1397POPC   GL221686  43.554   8.712   9.143
 1397POPC   C1A21687  43.989   8.857   8.842
 1397POPC   D2A21688  44.057   8.703   8.403
 1397POPC   C3A21689  44.078   8.970   8.025
 1397POPC   C4A21690  43.849   9.311   7.855
 1397POPC   C1B21691  43.676   8.444   8.783
 1397POPC   C2B21692  43.598   8.492   8.348
 1397POPC   C3B21693  43.639   8.708   7.972
 1397POPC   C4B21694  43.606   8.563   7.552
 1398POPC   NC321695  27.619   0.825   9.589
 1398POPC   PO421696  27.281   1.517   9.567
 1398POPC   GL121697  27.298   1.197   9.264
 1398POPC   GL221698  27.633   1.166   9.201
 1398POPC   C1A21699  27.245   1.237   8.810
 1398POPC   D2A21700  27.102   1.460   8.412
 1398POPC   C3A21701  27.294   1.375   7.984
 1398POPC   C4A21702  27.744   1.445   7.859
 1398POPC   C1B21703  27.774   1.252   8.789
 1398POPC   C2B21704  27.619   1.230   8.367
 1398POPC   C3B21705  27.724   0.965   8.015
 1398POPC   C4B21706  28.077   1.049   7.765
 1399POPC   NC321707   9.573  10.134   9.629
 1399POPC   PO421708   9.907   9.616   9.535
 1399POPC   GL121709   9.580   9.728   9.248
 1399POPC   GL221710   9.646  10.051   9.135
 1399POPC   C1A21711   9.578   9.663   8.797
 1399POPC   D2A21712   9.481   9.871   8.408
 1399POPC   C3A21713   9.643   9.705   8.030
 1399POPC   C4A21714   9.460   9.756   7.639
 1399POPC   C1B21715  10.011   9.949   8.885
 1399POPC   C2B21716  10.029   9.691   8.518
 1399POPC   C3B21717  10.149   9.798   8.117
 1399POPC   C4B21718   9.966  10.069   7.829
 1400POPC   NC321719  25.587  33.685   9.421
 1400POPC   PO421720  25.012  34.065   9.405
 1400POPC   GL121721  25.193  33.796   9.090
 1400POPC   GL221722  25.097  33.432   9.085
 1400POPC   C1A21723  25.487  33.898   8.759
 1400POPC   D2A21724  25.709  33.940   8.353
 1400POPC   C3A21725  25.379  33.938   8.047
 1400POPC   C4A21726  24.982  33.910   7.839
 1400POPC   C1B21727  25.414  33.389   8.782
 1400POPC   C2B21728  25.693  33.279   8.475
 1400POPC   C3B21729  25.617  33.467   8.101
 1400POPC   C4B21730  25.290  33.508   7.787
 1401POPC   NC321731  34.465  40.358   9.578
 1401POPC   PO421732  34.940  40.826   9.519
 1401POPC   GL121733  34.806  40.750   9.094
 1401POPC   GL221734  34.462  40.631   9.130
 1401POPC   C1A21735  34.711  40.606   8.677
 1401POPC   D2A21736  34.687  40.786   8.256
 1401POPC   C3A21737  34.833  40.567   7.894
 1401POPC   C4A21738  34.783  40.702   7.443
 1401POPC   C1B21739  34.188  40.880   8.858
 1401POPC   C2B21740  34.084  41.002   8.449
 1401POPC   C3B21741  34.210  40.835   8.080
 1401POPC   C4B21742  34.346  40.656   7.692
 1402POPC   NC321743  35.463  15.453   9.328
 1402POPC   PO421744  34.879  15.002   9.445
 1402POPC   GL121745  35.169  15.101   9.073
 1402POPC   GL221746  35.538  15.037   9.016
 1402POPC   C1A21747  35.200  15.327   8.680
 1402POPC   D2A21748  35.431  15.372   8.292
 1402POPC   C3A21749  35.469  15.090   7.992
 1402POPC   C4A21750  35.192  15.050   7.637
 1402POPC   C1B21751  35.688  15.423   8.741
 1402POPC   C2B21752  35.768  15.712   8.425
 1402POPC   C3B21753  35.856  15.550   8.023
 1402POPC   C4B21754  35.560  15.499   7.733
 1403POPC   NC321755  28.124   2.573   9.456
 1403POPC   PO421756  28.735   2.709   9.531
 1403POPC   GL121757  28.606   2.567   9.145
 1403POPC   GL221758  28.407   2.809   9.111
 1403POPC   C1A21759  28.541   2.625   8.679
 1403POPC   D2A21760  28.732   2.730   8.302
 1403POPC   C3A21761  28.538   2.837   7.940
 1403POPC   C4A21762  28.682   2.727   7.550
 1403POPC   C1B21763  28.052   2.689   8.831
 1403POPC   C2B21764  27.990   2.811   8.460
 1403POPC   C3B21765  28.019   2.961   8.061
 1403POPC   C4B21766  28.099   2.732   7.716
 1404POPC   NC321767  36.638  34.633   9.537
 1404POPC   PO421768  37.221  34.372   9.500
 1404POPC   GL121769  36.972  34.575   9.153
 1404POPC   GL221770  36.569  34.544   9.056
 1404POPC   C1A21771  36.952  34.497   8.729
 1404POPC   D2A21772  36.681  34.641   8.407
 1404POPC   C3A21773  36.778  34.577   8.007
 1404POPC   C4A21774  36.832  34.372   7.606
 1404POPC   C1B21775  36.678  34.928   8.813
 1404POPC   C2B21776  37.081  34.984   8.551
 1404POPC   C3B21777  37.227  35.009   8.100
 1404POPC   C4B21778  37.156  34.760   7.741
 1405POPC   NC321779   8.342  30.295   9.437
 1405POPC   PO421780   8.370  30.934   9.620
 1405POPC   GL121781   8.376  30.719   9.169
 1405POPC   GL221782   8.434  30.999   9.079
 1405POPC   C1A21783   8.254  30.401   8.762
 1405POPC   D2A21784   8.357  30.142   8.347
 1405POPC   C3A21785   8.246  30.273   7.933
 1405POPC   C4A21786   8.417  30.624   7.693
 1405POPC   C1B21787   8.094  30.902   8.756
 1405POPC   C2B21788   7.952  30.668   8.377
 1405POPC   C3B21789   7.953  30.690   7.925
 1405POPC   C4B21790   8.079  31.004   7.635
 1406POPC   NC321791  39.252   0.147   9.871
 1406POPC   PO421792  39.397   0.757   9.644
 1406POPC   GL121793  39.205   0.581   9.272
 1406POPC   GL221794  39.192   0.224   9.246
 1406POPC   C1A21795  39.102   0.566   8.822
 1406POPC   D2A21796  38.889   0.676   8.444
 1406POPC   C3A21797  39.049   0.797   8.096
 1406POPC   C4A21798  39.068   0.604   7.736
 1406POPC   C1B21799  39.254   0.093   8.808
 1406POPC   C2B21800  39.044   0.175   8.420
 1406POPC   C3B21801  39.070   0.142   7.967
 1406POPC   C4B21802  39.490   0.028   7.795
 1407POPC   NC321803   0.727  15.913   9.528
 1407POPC   PO421804   0.112  15.806   9.601
 1407POPC   GL121805   0.217  15.779   9.223
 1407POPC   GL221806   0.325  16.129   9.253
 1407POPC   C1A21807   0.528  15.805   8.897
 1407POPC   D2A21808   0.703  15.992   8.541
 1407POPC   C3A21809   0.616  15.769   8.176
 1407POPC   C4A21810   0.578  15.902   7.761
 1407POPC   C1B21811   0.364  16.357   8.879
 1407POPC   C2B21812   0.196  16.445   8.474
 1407POPC   C3B21813   0.401  16.253   8.135
 1407POPC   C4B21814   0.234  16.310   7.751
 1408POPC   NC321815  18.659   9.608   9.443
 1408POPC   PO421816  18.231  10.041   9.768
 1408POPC   GL121817  18.233   9.981   9.306
 1408POPC   GL221818  17.924  10.041   9.096
 1408POPC   C1A21819  18.380   9.925   8.863
 1408POPC   D2A21820  18.277   9.920   8.403
 1408POPC   C3A21821  18.368   9.609   8.091
 1408POPC   C4A21822  18.496   9.754   7.691
 1408POPC   C1B21823  17.821   9.853   8.679
 1408POPC   C2B21824  17.802   9.834   8.212
 1408POPC   C3B21825  18.084   9.985   7.864
 1408POPC   C4B21826  18.318  10.205   7.526
 1409POPC   NC321827  20.250  10.546   9.651
 1409POPC   PO421828  19.607  10.575   9.682
 1409POPC   GL121829  19.725  10.370   9.269
 1409POPC   GL221830  20.083  10.327   9.204
 1409POPC   C1A21831  19.688  10.552   8.829
 1409POPC   D2A21832  19.877  10.625   8.406
 1409POPC   C3A21833  19.678  10.518   7.984
 1409POPC   C4A21834  19.573  10.763   7.597
 1409POPC   C1B21835  20.236  10.457   8.787
 1409POPC   C2B21836  20.389  10.636   8.387
 1409POPC   C3B21837  20.164  10.780   8.009
 1409POPC   C4B21838  20.187  10.392   7.836
 1410POPC   NC321839  28.087   7.883   9.617
 1410POPC   PO421840  27.545   8.138   9.404
 1410POPC   GL121841  27.782   8.231   9.064
 1410POPC   GL221842  27.566   8.522   9.023
 1410POPC   C1A21843  27.964   8.464   8.710
 1410POPC   D2A21844  28.023   8.314   8.324
 1410POPC   C3A21845  27.671   8.229   8.074
 1410POPC   C4A21846  27.600   8.411   7.679
 1410POPC   C1B21847  27.526   8.245   8.632
 1410POPC   C2B21848  27.450   7.897   8.416
 1410POPC   C3B21849  27.182   7.756   8.102
 1410POPC   C4B21850  27.327   7.980   7.732
 1411POPC   NC321851  37.615  27.945   9.547
 1411POPC   PO421852  37.778  27.280   9.468
 1411POPC   GL121853  37.653  27.527   9.148
 1411POPC   GL221854  37.886  27.773   9.147
 1411POPC   C1A21855  37.600  27.578   8.700
 1411POPC   D2A21856  37.789  27.795   8.341
 1411POPC   C3A21857  37.630  27.816   7.919
 1411POPC   C4A21858  37.706  27.649   7.508
 1411POPC   C1B21859  37.938  27.986   8.788
 1411POPC   C2B21860  38.107  28.205   8.414
 1411POPC   C3B21861  38.123  28.040   8.015
 1411POPC   C4B21862  37.967  28.094   7.620
 1412POPC   NC321863  21.592  29.064   9.356
 1412POPC   PO421864  21.085  29.492   9.672
 1412POPC   GL121865  21.148  29.239   9.219
 1412POPC   GL221866  21.448  29.278   8.933
 1412POPC   C1A21867  21.101  29.013   8.741
 1412POPC   D2A21868  21.315  29.232   8.357
 1412POPC   C3A21869  21.224  29.055   7.924
 1412POPC   C4A21870  21.139  29.200   7.487
 1412POPC   C1B21871  21.809  29.384   8.672
 1412POPC   C2B21872  21.894  29.287   8.241
 1412POPC   C3B21873  21.728  29.153   7.856
 1412POPC   C4B21874  21.847  29.214   7.376
 1413POPC   NC321875  19.908   2.351   9.544
 1413POPC   PO421876  19.359   1.977   9.418
 1413POPC   GL121877  19.636   2.052   9.066
 1413POPC   GL221878  19.999   2.085   9.129
 1413POPC   C1A21879  19.787   2.076   8.639
 1413POPC   D2A21880  20.175   2.031   8.395
 1413POPC   C3A21881  20.040   1.956   7.996
 1413POPC   C4A21882  19.719   2.128   7.741
 1413POPC   C1B21883  20.047   2.436   8.883
 1413POPC   C2B21884  20.085   2.533   8.474
 1413POPC   C3B21885  19.862   2.466   8.114
 1413POPC   C4B21886  19.780   2.634   7.712
 1414POPC   NC321887  11.458  27.152   9.280
 1414POPC   PO421888  11.651  27.702   9.626
 1414POPC   GL121889  11.272  27.708   9.227
 1414POPC   GL221890  11.206  27.424   8.948
 1414POPC   C1A21891  11.076  27.866   8.787
 1414POPC   D2A21892  11.074  27.594   8.396
 1414POPC   C3A21893  11.054  27.747   7.974
 1414POPC   C4A21894  11.006  28.165   7.836
 1414POPC   C1B21895  11.588  27.534   8.695
 1414POPC   C2B21896  11.733  27.435   8.267
 1414POPC   C3B21897  11.511  27.540   7.887
 1414POPC   C4B21898  11.353  27.276   7.529
 1415POPC   NC321899   9.173  34.500   9.532
 1415POPC   PO421900   8.982  35.114   9.385
 1415POPC   GL121901   8.814  34.713   9.146
 1415POPC   GL221902   8.991  34.389   9.057
 1415POPC   C1A21903   8.649  34.585   8.708
 1415POPC   D2A21904   8.603  34.700   8.258
 1415POPC   C3A21905   8.906  34.655   7.968
 1415POPC   C4A21906   9.091  34.315   7.837
 1415POPC   C1B21907   9.160  34.660   8.762
 1415POPC   C2B21908   9.171  34.843   8.391
 1415POPC   C3B21909   9.406  34.767   8.019
 1415POPC   C4B21910   9.342  34.715   7.614
 1416POPC   NC321911  30.430   5.579   9.313
 1416POPC   PO421912  30.783   6.087   9.557
 1416POPC   GL121913  30.851   6.000   9.158
 1416POPC   GL221914  31.158   6.218   9.179
 1416POPC   C1A21915  30.618   5.912   8.744
 1416POPC   D2A21916  30.612   6.151   8.336
 1416POPC   C3A21917  30.457   5.969   7.930
 1416POPC   C4A21918  30.540   5.819   7.503
 1416POPC   C1B21919  30.989   6.289   8.773
 1416POPC   C2B21920  31.110   6.397   8.388
 1416POPC   C3B21921  30.996   6.326   7.973
 1416POPC   C4B21922  30.947   6.029   7.685
 1417POPC   NC321923  33.064  31.270   9.619
 1417POPC   PO421924  32.578  31.600   9.405
 1417POPC   GL121925  32.948  31.442   9.156
 1417POPC   GL221926  33.143  31.758   9.189
 1417POPC   C1A21927  33.135  31.218   8.774
 1417POPC   D2A21928  32.911  30.984   8.476
 1417POPC   C3A21929  32.963  30.999   8.047
 1417POPC   C4A21930  32.743  31.101   7.648
 1417POPC   C1B21931  32.988  31.710   8.730
 1417POPC   C2B21932  33.081  31.476   8.333
 1417POPC   C3B21933  32.783  31.465   8.025
 1417POPC   C4B21934  32.776  31.669   7.658
 1418POPC   NC321935  34.041  12.659   9.777
 1418POPC   PO421936  33.964  13.240   9.638
 1418POPC   GL121937  34.046  13.002   9.223
 1418POPC   GL221938  34.139  12.630   9.235
 1418POPC   C1A21939  34.077  13.113   8.751
 1418POPC   D2A21940  33.893  13.000   8.334
 1418POPC   C3A21941  34.040  12.994   7.913
 1418POPC   C4A21942  34.022  13.256   7.507
 1418POPC   C1B21943  34.023  12.594   8.781
 1418POPC   C2B21944  33.976  12.491   8.303
 1418POPC   C3B21945  33.756  12.525   7.875
 1418POPC   C4B21946  33.580  12.386   7.457
 1419POPC   NC321947   9.816  20.497   9.407
 1419POPC   PO421948   9.507  20.931   9.739
 1419POPC   GL121949   9.452  20.836   9.269
 1419POPC   GL221950   9.380  20.483   9.139
 1419POPC   C1A21951   9.688  20.772   8.855
 1419POPC   D2A21952   9.623  20.676   8.438
 1419POPC   C3A21953   9.779  20.981   8.154
 1419POPC   C4A21954   9.827  20.835   7.750
 1419POPC   C1B21955   9.630  20.244   8.786
 1419POPC   C2B21956   9.960  20.250   8.440
 1419POPC   C3B21957   9.997  20.473   8.061
 1419POPC   C4B21958  10.048  20.370   7.584
 1420POPC   NC321959  29.107   9.430   9.718
 1420POPC   PO421960  28.873  10.025   9.636
 1420POPC   GL121961  28.883   9.720   9.301
 1420POPC   GL221962  29.194   9.564   9.232
 1420POPC   C1A21963  28.835   9.604   8.870
 1420POPC   D2A21964  29.091   9.623   8.510
 1420POPC   C3A21965  28.997   9.571   8.096
 1420POPC   C4A21966  28.918   9.870   7.793
 1420POPC   C1B21967  29.453   9.507   8.864
 1420POPC   C2B21968  29.481   9.306   8.471
 1420POPC   C3B21969  29.509   9.503   8.078
 1420POPC   C4B21970  29.326   9.569   7.699
 1421POPC   NC321971  33.416  38.159   9.354
 1421POPC   PO421972  33.152  38.720   9.734
 1421POPC   GL121973  33.131  38.780   9.240
 1421POPC   GL221974  33.236  38.494   9.020
 1421POPC   C1A21975  32.821  38.707   8.857
 1421POPC   D2A21976  32.955  38.458   8.521
 1421POPC   C3A21977  32.848  38.585   8.108
 1421POPC   C4A21978  32.622  38.344   7.836
 1421POPC   C1B21979  33.470  38.555   8.635
 1421POPC   C2B21980  33.356  38.539   8.216
 1421POPC   C3B21981  33.214  38.295   7.913
 1421POPC   C4B21982  33.466  38.431   7.603
 1422POPC   NC321983  40.541  26.832   9.549
 1422POPC   PO421984  40.510  27.488   9.444
 1422POPC   GL121985  40.696  27.223   9.129
 1422POPC   GL221986  40.416  26.982   9.087
 1422POPC   C1A21987  40.826  26.902   8.790
 1422POPC   D2A21988  40.684  26.863   8.340
 1422POPC   C3A21989  40.871  26.627   8.008
 1422POPC   C4A21990  41.291  26.602   7.820
 1422POPC   C1B21991  40.393  26.597   8.842
 1422POPC   C2B21992  40.479  26.395   8.431
 1422POPC   C3B21993  40.351  26.547   8.026
 1422POPC   C4B21994  40.491  26.550   7.618
 1423POPC   NC321995  20.976  10.716   9.506
 1423POPC   PO421996  20.516  10.174   9.564
 1423POPC   GL121997  20.747  10.298   9.234
 1423POPC   GL221998  20.559  10.577   9.184
 1423POPC   C1A21999  20.715  10.223   8.788
 1423POPC   D2A22000  20.975  10.231   8.413
 1423POPC   C3A22001  20.703  10.296   8.066
 1423POPC   C4A22002  20.640  10.381   7.603
 1423POPC   C1B22003  20.726  10.734   8.787
 1423POPC   C2B22004  20.894  10.725   8.337
 1423POPC   C3B22005  20.663  10.782   7.950
 1423POPC   C4B22006  20.440  10.980   7.612
 1424POPC   NC322007  26.396  19.322   9.799
 1424POPC   PO422008  26.988  19.300   9.414
 1424POPC   GL122009  26.661  19.086   9.156
 1424POPC   GL222010  26.554  19.328   8.881
 1424POPC   C1A22011  26.738  18.865   8.756
 1424POPC   D2A22012  26.996  18.963   8.387
 1424POPC   C3A22013  26.792  19.015   8.015
 1424POPC   C4A22014  26.818  18.742   7.707
 1424POPC   C1B22015  27.013  19.330   8.742
 1424POPC   C2B22016  27.182  19.517   8.342
 1424POPC   C3B22017  27.048  19.478   7.897
 1424POPC   C4B22018  26.994  19.183   7.525
 1425POPC   NC322019  42.800   5.842   9.340
 1425POPC   PO422020  43.425   5.738   9.637
 1425POPC   GL122021  43.352   5.753   9.165
 1425POPC   GL222022  43.399   6.062   8.951
 1425POPC   C1A22023  43.143   5.650   8.777
 1425POPC   D2A22024  43.140   5.467   8.373
 1425POPC   C3A22025  43.269   5.698   8.013
 1425POPC   C4A22026  42.922   5.645   7.744
 1425POPC   C1B22027  43.348   6.305   8.592
 1425POPC   C2B22028  43.090   6.139   8.276
 1425POPC   C3B22029  43.119   6.141   7.846
 1425POPC   C4B22030  43.472   6.097   7.620
 1426POPC   NC322031  24.199  32.012   9.653
 1426POPC   PO422032  24.222  32.657   9.489
 1426POPC   GL122033  24.520  32.500   9.175
 1426POPC   GL222034  24.817  32.281   9.236
 1426POPC   C1A22035  24.400  32.369   8.775
 1426POPC   D2A22036  24.339  32.101   8.427
 1426POPC   C3A22037  24.382  32.289   8.012
 1426POPC   C4A22038  24.235  32.571   7.666
 1426POPC   C1B22039  24.929  32.433   8.812
 1426POPC   C2B22040  24.785  32.349   8.395
 1426POPC   C3B22041  24.914  32.303   7.966
 1426POPC   C4B22042  24.674  32.297   7.589
 1427POPC   NC322043  19.152  19.904   9.462
 1427POPC   PO422044  18.587  19.606   9.290
 1427POPC   GL122045  18.905  19.846   9.022
 1427POPC   GL222046  19.277  20.061   9.007
 1427POPC   C1A22047  18.949  19.952   8.612
 1427POPC   D2A22048  19.191  20.104   8.281
 1427POPC   C3A22049  19.003  19.890   7.964
 1427POPC   C4A22050  18.938  20.151   7.616
 1427POPC   C1B22051  19.401  19.714   8.824
 1427POPC   C2B22052  19.264  19.574   8.433
 1427POPC   C3B22053  19.366  19.485   8.033
 1427POPC   C4B22054  19.305  19.606   7.641
 1428POPC   NC322055  25.749  32.196   9.471
 1428POPC   PO422056  25.206  32.429   9.552
 1428POPC   GL122057  25.325  32.452   9.153
 1428POPC   GL222058  25.327  32.112   9.131
 1428POPC   C1A22059  25.444  32.417   8.722
 1428POPC   D2A22060  25.299  32.458   8.278
 1428POPC   C3A22061  25.599  32.306   7.959
 1428POPC   C4A22062  25.530  32.082   7.556
 1428POPC   C1B22063  25.215  31.939   8.740
 1428POPC   C2B22064  25.123  31.980   8.352
 1428POPC   C3B22065  25.265  31.923   7.990
 1428POPC   C4B22066  25.016  31.903   7.649
 1429POPC   NC322067  25.847  28.000   9.440
 1429POPC   PO422068  26.217  27.397   9.396
 1429POPC   GL122069  26.264  27.774   9.143
 1429POPC   GL222070  25.984  27.872   8.956
 1429POPC   C1A22071  26.402  27.638   8.759
 1429POPC   D2A22072  26.244  27.318   8.469
 1429POPC   C3A22073  26.197  27.548   8.101
 1429POPC   C4A22074  26.097  27.760   7.694
 1429POPC   C1B22075  26.037  27.888   8.502
 1429POPC   C2B22076  25.721  27.956   8.219
 1429POPC   C3B22077  25.646  27.979   7.830
 1429POPC   C4B22078  25.681  27.856   7.405
 1430POPC   NC322079   2.199  40.012   9.782
 1430POPC   PO422080   1.750  39.961   9.250
 1430POPC   GL122081   1.944  39.838   8.908
 1430POPC   GL222082   2.019  40.170   8.830
 1430POPC   C1A22083   1.915  39.844   8.479
 1430POPC   D2A22084   1.642  40.161   8.311
 1430POPC   C3A22085   1.695  40.221   7.904
 1430POPC   C4A22086   1.890  39.909   7.702
 1430POPC   C1B22087   2.247  40.505   8.691
 1430POPC   C2B22088   2.288  40.509   8.288
 1430POPC   C3B22089   2.403  40.443   7.888
 1430POPC   C4B22090   2.340  40.132   7.667
 1431POPC   NC322091  21.148  41.952   9.381
 1431POPC   PO422092  21.329  41.357   9.496
 1431POPC   GL122093  21.138  41.493   9.120
 1431POPC   GL222094  21.452  41.601   9.064
 1431POPC   C1A22095  21.177  41.515   8.654
 1431POPC   D2A22096  21.021  41.613   8.257
 1431POPC   C3A22097  21.275  41.653   7.894
 1431POPC   C4A22098  21.306  41.322   7.610
 1431POPC   C1B22099  21.653  41.369   8.749
 1431POPC   C2B22100  21.594  41.476   8.314
 1431POPC   C3B22101  21.769  41.782   8.034
 1431POPC   C4B22102  21.751  41.639   7.632
 1432POPC   NC322103  36.448  35.237   9.385
 1432POPC   PO422104  35.840  35.586   9.535
 1432POPC   GL122105  35.924  35.306   9.218
 1432POPC   GL222106  36.163  35.513   9.075
 1432POPC   C1A22107  35.847  35.212   8.784
 1432POPC   D2A22108  35.828  35.464   8.427
 1432POPC   C3A22109  35.798  35.241   8.070
 1432POPC   C4A22110  35.943  35.341   7.649
 1432POPC   C1B22111  36.286  35.484   8.677
 1432POPC   C2B22112  36.249  35.117   8.403
 1432POPC   C3B22113  36.280  35.132   7.955
 1432POPC   C4B22114  36.533  35.492   7.815
 1433POPC   NC322115  38.954   9.269   9.456
 1433POPC   PO422116  39.255   9.905   9.350
 1433POPC   GL122117  39.263   9.541   9.095
 1433POPC   GL222118  38.962   9.571   9.048
 1433POPC   C1A22119  39.584   9.544   8.764
 1433POPC   D2A22120  39.761   9.837   8.471
 1433POPC   C3A22121  39.443   9.895   8.128
 1433POPC   C4A22122  39.302   9.638   7.768
 1433POPC   C1B22123  38.980   9.762   8.652
 1433POPC   C2B22124  39.037   9.583   8.231
 1433POPC   C3B22125  38.781   9.660   7.867
 1433POPC   C4B22126  38.686   9.986   7.572
 1434POPC   NC322127  39.513  40.439   9.565
 1434POPC   PO422128  38.868  40.620   9.617
 1434POPC   GL122129  39.092  40.897   9.275
 1434POPC   GL222130  39.469  40.873   9.294
 1434POPC   C1A22131  39.109  40.996   8.812
 1434POPC   D2A22132  39.040  40.719   8.447
 1434POPC   C3A22133  39.048  40.978   8.063
 1434POPC   C4A22134  38.963  40.779   7.685
 1434POPC   C1B22135  39.467  40.669   8.898
 1434POPC   C2B22136  39.524  40.858   8.467
 1434POPC   C3B22137  39.428  40.660   8.074
 1434POPC   C4B22138  39.462  40.807   7.694
 1435POPC   NC322139  35.102  33.647   9.559
 1435POPC   PO422140  35.679  33.977   9.447
 1435POPC   GL122141  35.329  33.863   9.107
 1435POPC   GL222142  35.108  33.540   9.080
 1435POPC   C1A22143  35.468  33.663   8.694
 1435POPC   D2A22144  35.560  33.358   8.356
 1435POPC   C3A22145  35.655  33.660   8.073
 1435POPC   C4A22146  35.775  33.820   7.719
 1435POPC   C1B22147  34.955  33.666   8.710
 1435POPC   C2B22148  35.098  33.595   8.304
 1435POPC   C3B22149  35.182  33.656   7.867
 1435POPC   C4B22150  35.027  33.421   7.532
 1436POPC   NC322151  36.043  11.205   9.599
 1436POPC   PO422152  36.043  11.765   9.252
 1436POPC   GL122153  36.043  11.353   9.117
 1436POPC   GL222154  36.347  11.156   9.165
 1436POPC   C1A22155  36.053  11.230   8.710
 1436POPC   D2A22156  36.047  11.597   8.450
 1436POPC   C3A22157  35.891  11.510   8.052
 1436POPC   C4A22158  35.834  11.146   7.793
 1436POPC   C1B22159  36.530  11.386   8.807
 1436POPC   C2B22160  36.447  11.255   8.370
 1436POPC   C3B22161  36.327  11.241   7.941
 1436POPC   C4B22162  36.322  11.644   7.767
 1437POPC   NC322163  41.201  25.744   9.533
 1437POPC   PO422164  40.670  26.158   9.800
 1437POPC   GL122165  40.788  26.039   9.322
 1437POPC   GL222166  41.144  26.060   9.156
 1437POPC   C1A22167  40.767  26.236   8.878
 1437POPC   D2A22168  40.997  26.349   8.490
 1437POPC   C3A22169  40.862  26.124   8.106
 1437POPC   C4A22170  40.519  26.096   7.825
 1437POPC   C1B22171  41.123  25.722   8.809
 1437POPC   C2B22172  40.985  25.501   8.428
 1437POPC   C3B22173  41.074  25.609   8.013
 1437POPC   C4B22174  40.913  25.819   7.672
 1438POPC   NC322175  22.396  22.378   9.655
 1438POPC   PO422176  21.848  22.545   9.255
 1438POPC   GL122177  22.236  22.728   9.117
 1438POPC   GL222178  22.345  23.072   9.222
 1438POPC   C1A22179  22.142  22.724   8.652
 1438POPC   D2A22180  21.824  23.020   8.434
 1438POPC   C3A22181  21.908  23.052   8.001
 1438POPC   C4A22182  21.881  23.315   7.661
 1438POPC   C1B22183  22.508  23.037   8.797
 1438POPC   C2B22184  22.345  23.076   8.335
 1438POPC   C3B22185  22.374  22.816   7.917
 1438POPC   C4B22186  22.426  22.638   7.452
 1439POPC   NC322187  15.306   8.075   9.378
 1439POPC   PO422188  15.016   8.681   9.603
 1439POPC   GL122189  15.040   8.498   9.176
 1439POPC   GL222190  14.893   8.177   9.136
 1439POPC   C1A22191  15.143   8.355   8.742
 1439POPC   D2A22192  15.317   8.065   8.431
 1439POPC   C3A22193  15.263   8.283   8.029
 1439POPC   C4A22194  15.501   8.351   7.660
 1439POPC   C1B22195  14.959   7.865   8.800
 1439POPC   C2B22196  15.003   7.629   8.434
 1439POPC   C3B22197  15.080   7.796   8.046
 1439POPC   C4B22198  15.118   7.952   7.645
 1440POPC   NC322199  26.643  37.219   9.600
 1440POPC   PO422200  26.844  37.902   9.453
 1440POPC   GL122201  26.735  37.602   9.147
 1440POPC   GL222202  26.943  37.326   9.209
 1440POPC   C1A22203  26.632  37.745   8.741
 1440POPC   D2A22204  26.852  37.798   8.357
 1440POPC   C3A22205  26.596  37.750   7.987
 1440POPC   C4A22206  26.509  37.488   7.642
 1440POPC   C1B22207  27.080  37.441   8.793
 1440POPC   C2B22208  27.071  37.302   8.380
 1440POPC   C3B22209  26.800  37.273   8.052
 1440POPC   C4B22210  27.008  37.481   7.758
 1441POPC   NC322211  13.858   8.835   9.377
 1441POPC   PO422212  13.485   9.419   9.491
 1441POPC   GL122213  13.740   9.289   9.123
 1441POPC   GL222214  13.458   9.061   9.107
 1441POPC   C1A22215  13.823   8.954   8.731
 1441POPC   D2A22216  13.716   8.738   8.298
 1441POPC   C3A22217  13.648   9.085   7.993
 1441POPC   C4A22218  13.850   9.164   7.588
 1441POPC   C1B22219  13.437   9.294   8.727
 1441POPC   C2B22220  13.337   9.031   8.411
 1441POPC   C3B22221  13.215   8.692   8.151
 1441POPC   C4B22222  13.262   8.726   7.730
 1442POPC   NC322223  44.890  43.609   9.614
 1442POPC   PO422224  44.243  43.858   9.483
 1442POPC   GL122225  44.471  43.802   9.102
 1442POPC   GL222226  44.679  43.495   9.143
 1442POPC   C1A22227  44.605  44.058   8.718
 1442POPC   D2A22228  44.694  44.246   8.290
 1442POPC   C3A22229  44.501  44.074   7.910
 1442POPC   C4A22230  44.402  43.742   7.586
 1442POPC   C1B22231  44.721  43.581   8.695
 1442POPC   C2B22232  44.636  43.725   8.252
 1442POPC   C3B22233  44.815  43.605   7.846
 1442POPC   C4B22234  44.975  43.528   7.388
 1443POPC   NC322235  34.399  20.293   9.553
 1443POPC   PO422236  35.117  20.441   9.671
 1443POPC   GL122237  34.865  20.429   9.175
 1443POPC   GL222238  34.569  20.617   9.164
 1443POPC   C1A22239  34.712  20.303   8.756
 1443POPC   D2A22240  34.522  20.442   8.348
 1443POPC   C3A22241  34.831  20.364   8.046
 1443POPC   C4A22242  34.935  20.375   7.651
 1443POPC   C1B22243  34.290  20.592   8.811
 1443POPC   C2B22244  34.194  20.875   8.448
 1443POPC   C3B22245  34.217  20.802   7.992
 1443POPC   C4B22246  34.402  20.451   7.768
 1444POPC   NC322247   9.809   7.187   9.547
 1444POPC   PO422248  10.190   7.852   9.474
 1444POPC   GL122249   9.930   7.565   9.198
 1444POPC   GL222250  10.078   7.225   9.125
 1444POPC   C1A22251   9.808   7.470   8.753
 1444POPC   D2A22252  10.029   7.533   8.367
 1444POPC   C3A22253   9.792   7.630   7.984
 1444POPC   C4A22254   9.544   7.336   7.745
 1444POPC   C1B22255  10.298   7.224   8.735
 1444POPC   C2B22256  10.214   7.028   8.338
 1444POPC   C3B22257   9.935   7.148   8.052
 1444POPC   C4B22258  10.039   7.277   7.652
 1445POPC   NC322259  26.519  42.471   9.556
 1445POPC   PO422260  26.967  41.889   9.758
 1445POPC   GL122261  26.898  42.168   9.314
 1445POPC   GL222262  26.767  42.518   9.127
 1445POPC   C1A22263  26.860  42.138   8.840
 1445POPC   D2A22264  26.810  42.486   8.575
 1445POPC   C3A22265  26.736  42.433   8.155
 1445POPC   C4A22266  26.778  42.440   7.715
 1445POPC   C1B22267  26.440  42.689   8.849
 1445POPC   C2B22268  26.400  42.794   8.381
 1445POPC   C3B22269  26.404  42.699   7.901
 1445POPC   C4B22270  26.330  42.420   7.465
 1446POPC   NC322271  23.158  40.017   9.577
 1446POPC   PO422272  22.412  40.146   9.464
 1446POPC   GL122273  22.813  40.118   9.197
 1446POPC   GL222274  23.179  40.233   9.123
 1446POPC   C1A22275  22.879  39.981   8.783
 1446POPC   D2A22276  22.642  40.085   8.425
 1446POPC   C3A22277  22.863  40.122   8.065
 1446POPC   C4A22278  22.918  39.926   7.674
 1446POPC   C1B22279  23.123  40.516   8.797
 1446POPC   C2B22280  23.018  40.571   8.391
 1446POPC   C3B22281  23.241  40.494   8.076
 1446POPC   C4B22282  23.110  40.378   7.690
 1447POPC   NC322283  12.504  31.022   9.323
 1447POPC   PO422284  13.066  31.007   9.403
 1447POPC   GL122285  12.866  31.316   9.089
 1447POPC   GL222286  12.558  31.517   9.126
 1447POPC   C1A22287  12.742  31.338   8.647
 1447POPC   D2A22288  12.917  31.206   8.248
 1447POPC   C3A22289  12.794  31.441   7.927
 1447POPC   C4A22290  13.008  31.737   7.666
 1447POPC   C1B22291  12.523  31.791   8.741
 1447POPC   C2B22292  12.544  31.703   8.296
 1447POPC   C3B22293  12.530  31.859   7.848
 1447POPC   C4B22294  12.582  32.005   7.399
 1448POPC   NC322295  15.527  44.145   9.384
 1448POPC   PO422296  16.179  44.063   9.388
 1448POPC   GL122297  15.875  43.877   9.119
 1448POPC   GL222298  15.529  43.672   9.174
 1448POPC   C1A22299  16.005  43.857   8.740
 1448POPC   D2A22300  16.159  43.963   8.402
 1448POPC   C3A22301  15.951  43.750   8.053
 1448POPC   C4A22302  16.041  43.836   7.629
 1448POPC   C1B22303  15.489  43.843   8.747
 1448POPC   C2B22304  15.640  44.080   8.352
 1448POPC   C3B22305  15.647  44.138   7.885
 1448POPC   C4B22306  15.567  43.954   7.496
 1449POPC   NC322307   9.702   1.763   9.625
 1449POPC   PO422308   8.984   1.926   9.532
 1449POPC   GL122309   8.884   2.128   9.152
 1449POPC   GL222310   9.235   2.128   9.107
 1449POPC   C1A22311   8.811   1.971   8.743
 1449POPC   D2A22312   8.711   2.139   8.335
 1449POPC   C3A22313   8.850   1.871   8.027
 1449POPC   C4A22314   9.158   1.778   7.736
 1449POPC   C1B22315   9.352   1.916   8.772
 1449POPC   C2B22316   9.203   1.927   8.390
 1449POPC   C3B22317   9.215   2.221   8.106
 1449POPC   C4B22318   9.301   2.274   7.695
 1450POPC   NC322319  31.995   5.449   9.768
 1450POPC   PO422320  32.351   5.962   9.709
 1450POPC   GL122321  32.176   5.971   9.287
 1450POPC   GL222322  31.970   5.679   9.209
 1450POPC   C1A22323  32.255   5.905   8.845
 1450POPC   D2A22324  32.129   5.956   8.420
 1450POPC   C3A22325  32.472   5.879   8.137
 1450POPC   C4A22326  32.394   5.795   7.701
 1450POPC   C1B22327  31.774   5.735   8.761
 1450POPC   C2B22328  31.721   5.698   8.262
 1450POPC   C3B22329  31.879   5.797   7.811
 1450POPC   C4B22330  32.021   5.556   7.418
 1451POPC   NC322331   2.852  40.916   9.393
 1451POPC   PO422332   2.274  40.637   9.364
 1451POPC   GL122333   2.481  40.802   9.052
 1451POPC   GL222334   2.492  41.135   9.100
 1451POPC   C1A22335   2.739  40.665   8.733
 1451POPC   D2A22336   2.751  40.387   8.400
 1451POPC   C3A22337   2.805  40.673   8.098
 1451POPC   C4A22338   2.742  40.807   7.711
 1451POPC   C1B22339   2.815  41.195   8.788
 1451POPC   C2B22340   3.023  41.029   8.413
 1451POPC   C3B22341   3.032  41.139   7.965
 1451POPC   C4B22342   3.179  41.028   7.520
 1452POPC   NC322343  39.005  11.098   9.896
 1452POPC   PO422344  38.488  11.212   9.610
 1452POPC   GL122345  38.412  11.047   9.164
 1452POPC   GL222346  38.605  11.307   9.026
 1452POPC   C1A22347  38.252  11.162   8.702
 1452POPC   D2A22348  38.304  10.945   8.313
 1452POPC   C3A22349  38.370  11.196   7.977
 1452POPC   C4A22350  38.122  11.580   7.895
 1452POPC   C1B22351  38.729  10.986   8.694
 1452POPC   C2B22352  38.828  11.022   8.253
 1452POPC   C3B22353  38.899  11.251   7.840
 1452POPC   C4B22354  38.779  11.563   7.514
 1453POPC   NC322355  17.700   3.754   9.402
 1453POPC   PO422356  17.375   3.163   9.423
 1453POPC   GL122357  17.516   3.393   9.083
 1453POPC   GL222358  17.276   3.707   9.105
 1453POPC   C1A22359  17.783   3.525   8.726
 1453POPC   D2A22360  17.724   3.782   8.349
 1453POPC   C3A22361  17.869   3.575   7.956
 1453POPC   C4A22362  17.765   3.595   7.508
 1453POPC   C1B22363  17.269   3.548   8.671
 1453POPC   C2B22364  17.391   3.385   8.275
 1453POPC   C3B22365  17.376   3.560   7.876
 1453POPC   C4B22366  17.245   3.804   7.523
 1454POPC   NC322367  26.290  38.808   9.636
 1454POPC   PO422368  25.863  38.269   9.492
 1454POPC   GL122369  25.840  38.388   9.128
 1454POPC   GL222370  25.961  38.723   9.201
 1454POPC   C1A22371  25.802  38.495   8.731
 1454POPC   D2A22372  25.924  38.289   8.387
 1454POPC   C3A22373  25.921  38.562   8.069
 1454POPC   C4A22374  25.740  38.516   7.692
 1454POPC   C1B22375  26.274  38.543   8.905
 1454POPC   C2B22376  26.327  38.598   8.468
 1454POPC   C3B22377  26.437  38.590   8.029
 1454POPC   C4B22378  26.260  38.488   7.614
 1455POPC   NC322379  10.515  30.139   9.494
 1455POPC   PO422380  10.205  29.528   9.660
 1455POPC   GL122381  10.310  29.702   9.233
 1455POPC   GL222382  10.596  29.884   9.061
 1455POPC   C1A22383  10.171  29.947   8.836
 1455POPC   D2A22384  10.432  30.065   8.479
 1455POPC   C3A22385  10.270  29.978   8.069
 1455POPC   C4A22386  10.310  29.856   7.621
 1455POPC   C1B22387  10.851  29.820   8.694
 1455POPC   C2B22388  10.907  29.926   8.286
 1455POPC   C3B22389  10.741  29.829   7.924
 1455POPC   C4B22390  10.810  29.846   7.502
 1456POPC   NC322391  34.483  33.344   9.505
 1456POPC   PO422392  34.752  33.957   9.542
 1456POPC   GL122393  34.752  33.920   9.155
 1456POPC   GL222394  34.423  33.750   9.144
 1456POPC   C1A22395  34.814  34.146   8.799
 1456POPC   D2A22396  34.609  33.995   8.448
 1456POPC   C3A22397  34.822  33.975   8.066
 1456POPC   C4A22398  34.700  33.780   7.699
 1456POPC   C1B22399  34.200  33.480   8.851
 1456POPC   C2B22400  34.090  33.568   8.417
 1456POPC   C3B22401  34.329  33.731   8.081
 1456POPC   C4B22402  34.190  33.736   7.653
 1457POPC   NC322403  22.314  14.973   9.515
 1457POPC   PO422404  22.061  14.296   9.464
 1457POPC   GL122405  22.291  14.330   9.081
 1457POPC   GL222406  22.399  14.653   9.109
 1457POPC   C1A22407  22.282  14.373   8.618
 1457POPC   D2A22408  22.482  14.324   8.185
 1457POPC   C3A22409  22.238  14.303   7.798
 1457POPC   C4A22410  22.365  14.466   7.383
 1457POPC   C1B22411  22.301  14.872   8.742
 1457POPC   C2B22412  22.208  14.769   8.295
 1457POPC   C3B22413  22.357  14.775   7.881
 1457POPC   C4B22414  22.200  14.982   7.510
 1458POPC   NC322415  23.365  34.826   9.535
 1458POPC   PO422416  23.890  34.419   9.584
 1458POPC   GL122417  23.580  34.460   9.264
 1458POPC   GL222418  23.795  34.376   9.087
 1458POPC   C1A22419  23.460  34.631   8.820
 1458POPC   D2A22420  23.615  34.575   8.386
 1458POPC   C3A22421  23.351  34.529   8.028
 1458POPC   C4A22422  23.459  34.286   7.653
 1458POPC   C1B22423  23.834  34.258   8.737
 1458POPC   C2B22424  24.045  34.349   8.432
 1458POPC   C3B22425  23.928  34.312   8.012
 1458POPC   C4B22426  24.318  34.301   7.800
 1459POPC   NC322427  43.799  24.541   9.598
 1459POPC   PO422428  44.311  24.272   9.237
 1459POPC   GL122429  43.997  24.546   9.145
 1459POPC   GL222430  43.735  24.310   9.139
 1459POPC   C1A22431  43.909  24.853   8.812
 1459POPC   D2A22432  44.017  24.758   8.402
 1459POPC   C3A22433  43.748  24.808   8.080
 1459POPC   C4A22434  43.906  24.704   7.697
 1459POPC   C1B22435  43.924  24.342   8.703
 1459POPC   C2B22436  43.777  24.308   8.310
 1459POPC   C3B22437  43.853  24.037   7.964
 1459POPC   C4B22438  43.828  24.059   7.523
 1460POPC   NC322439  31.840  26.414   9.631
 1460POPC   PO422440  31.211  26.557   9.506
 1460POPC   GL122441  31.511  26.501   9.197
 1460POPC   GL222442  31.829  26.698   9.168
 1460POPC   C1A22443  31.498  26.646   8.778
 1460POPC   D2A22444  31.479  26.408   8.427
 1460POPC   C3A22445  31.379  26.620   8.057
 1460POPC   C4A22446  31.383  26.678   7.621
 1460POPC   C1B22447  31.898  26.943   8.760
 1460POPC   C2B22448  31.814  26.837   8.298
 1460POPC   C3B22449  31.852  26.695   7.843
 1460POPC   C4B22450  31.844  26.722   7.375
 1461POPC   NC322451  16.755  25.809   9.523
 1461POPC   PO422452  17.133  26.436   9.537
 1461POPC   GL122453  16.844  26.173   9.152
 1461POPC   GL222454  16.567  25.842   9.074
 1461POPC   C1A22455  16.632  26.160   8.714
 1461POPC   D2A22456  16.476  26.389   8.377
 1461POPC   C3A22457  16.600  26.137   8.071
 1461POPC   C4A22458  16.635  25.928   7.710
 1461POPC   C1B22459  16.992  25.766   8.894
 1461POPC   C2B22460  17.076  25.935   8.525
 1461POPC   C3B22461  17.029  25.865   8.102
 1461POPC   C4B22462  17.129  25.842   7.698
 1462POPC   NC322463  12.698   0.894   9.538
 1462POPC   PO422464  13.104   0.364   9.451
 1462POPC   GL122465  12.677   0.380   9.200
 1462POPC   GL222466  12.665   0.717   9.052
 1462POPC   C1A22467  12.495   0.352   8.748
 1462POPC   D2A22468  12.569   0.633   8.373
 1462POPC   C3A22469  12.810   0.735   7.977
 1462POPC   C4A22470  12.816   0.524   7.559
 1462POPC   C1B22471  12.998   0.540   8.783
 1462POPC   C2B22472  13.135   0.608   8.356
 1462POPC   C3B22473  13.117   0.336   7.977
 1462POPC   C4B22474  13.278   0.245   7.594
 1463POPC   NC322475  23.448   2.194   9.489
 1463POPC   PO422476  22.793   1.917   9.404
 1463POPC   GL122477  23.026   1.845   9.080
 1463POPC   GL222478  23.164   2.173   9.071
 1463POPC   C1A22479  22.819   1.884   8.676
 1463POPC   D2A22480  22.654   1.962   8.237
 1463POPC   C3A22481  22.949   1.901   7.863
 1463POPC   C4A22482  22.771   1.848   7.449
 1463POPC   C1B22483  23.351   2.048   8.709
 1463POPC   C2B22484  23.166   2.003   8.322
 1463POPC   C3B22485  23.119   2.346   8.018
 1463POPC   C4B22486  23.141   2.331   7.569
 1464POPC   NC322487  18.510  19.140   9.402
 1464POPC   PO422488  19.141  19.140   9.641
 1464POPC   GL122489  19.168  19.378   9.216
 1464POPC   GL222490  18.862  19.306   8.977
 1464POPC   C1A22491  19.348  19.212   8.803
 1464POPC   D2A22492  19.415  19.072   8.371
 1464POPC   C3A22493  19.022  19.114   8.122
 1464POPC   C4A22494  18.959  19.207   7.695
 1464POPC   C1B22495  18.906  18.975   8.630
 1464POPC   C2B22496  18.773  18.678   8.263
 1464POPC   C3B22497  18.929  18.685   7.800
 1464POPC   C4B22498  18.873  18.828   7.354
 1465POPC   NC322499  34.106  16.273   9.627
 1465POPC   PO422500  33.603  15.913   9.517
 1465POPC   GL122501  33.738  16.006   9.081
 1465POPC   GL222502  34.067  15.996   9.190
 1465POPC   C1A22503  33.759  16.088   8.585
 1465POPC   D2A22504  33.886  15.829   8.213
 1465POPC   C3A22505  33.662  15.941   7.807
 1465POPC   C4A22506  33.402  15.995   7.413
 1465POPC   C1B22507  34.184  15.849   8.801
 1465POPC   C2B22508  34.300  16.049   8.443
 1465POPC   C3B22509  34.187  16.226   8.071
 1465POPC   C4B22510  34.135  16.023   7.716
 1466POPC   NC322511  38.321  34.454   9.392
 1466POPC   PO422512  38.806  34.774   9.503
 1466POPC   GL122513  38.645  34.749   9.089
 1466POPC   GL222514  38.398  34.524   8.913
 1466POPC   C1A22515  38.573  34.967   8.696
 1466POPC   D2A22516  38.382  35.091   8.311
 1466POPC   C3A22517  38.585  34.811   8.046
 1466POPC   C4A22518  38.481  34.597   7.688
 1466POPC   C1B22519  38.131  34.343   8.614
 1466POPC   C2B22520  38.160  34.493   8.211
 1466POPC   C3B22521  38.025  34.411   7.819
 1466POPC   C4B22522  38.154  34.331   7.369
 1467POPC   NC322523  22.908  25.206   9.702
 1467POPC   PO422524  23.224  25.746   9.515
 1467POPC   GL122525  22.932  25.478   9.274
 1467POPC   GL222526  23.229  25.453   9.071
 1467POPC   C1A22527  22.791  25.253   8.879
 1467POPC   D2A22528  22.663  25.388   8.428
 1467POPC   C3A22529  22.841  25.223   8.114
 1467POPC   C4A22530  22.770  25.077   7.755
 1467POPC   C1B22531  23.291  25.225   8.689
 1467POPC   C2B22532  23.297  25.072   8.257
 1467POPC   C3B22533  23.256  25.166   7.823
 1467POPC   C4B22534  23.169  25.121   7.367
 1468POPC   NC322535  41.226  18.547   9.369
 1468POPC   PO422536  41.766  18.113   9.491
 1468POPC   GL122537  41.598  18.176   9.115
 1468POPC   GL222538  41.908  18.352   9.032
 1468POPC   C1A22539  41.352  18.262   8.738
 1468POPC   D2A22540  41.313  18.604   8.426
 1468POPC   C3A22541  41.559  18.552   8.058
 1468POPC   C4A22542  41.886  18.269   7.877
 1468POPC   C1B22543  41.969  17.958   8.779
 1468POPC   C2B22544  42.180  17.914   8.367
 1468POPC   C3B22545  41.986  17.786   7.994
 1468POPC   C4B22546  41.785  17.830   7.615
 1469POPC   NC322547   5.380   8.577   9.301
 1469POPC   PO422548   5.397   7.881   9.436
 1469POPC   GL122549   5.096   8.120   9.156
 1469POPC   GL222550   4.924   8.445   9.102
 1469POPC   C1A22551   5.025   8.053   8.714
 1469POPC   D2A22552   4.939   7.818   8.334
 1469POPC   C3A22553   5.170   7.920   7.964
 1469POPC   C4A22554   5.071   7.932   7.600
 1469POPC   C1B22555   4.915   8.581   8.674
 1469POPC   C2B22556   4.874   8.352   8.296
 1469POPC   C3B22557   4.987   8.390   7.887
 1469POPC   C4B22558   4.722   8.299   7.545
 1470POPC   NC322559  41.019   4.345   9.537
 1470POPC   PO422560  40.344   4.494   9.579
 1470POPC   GL122561  40.613   4.335   9.189
 1470POPC   GL222562  40.934   4.228   9.065
 1470POPC   C1A22563  40.571   4.066   8.755
 1470POPC   D2A22564  40.389   4.151   8.308
 1470POPC   C3A22565  40.650   4.328   7.980
 1470POPC   C4A22566  40.829   4.204   7.579
 1470POPC   C1B22567  40.853   4.601   8.826
 1470POPC   C2B22568  41.023   4.716   8.431
 1470POPC   C3B22569  40.906   4.783   8.033
 1470POPC   C4B22570  40.861   4.703   7.613
 1471POPC   NC322571  38.596  31.749   9.352
 1471POPC   PO422572  38.562  32.343   9.657
 1471POPC   GL122573  38.533  32.287   9.256
 1471POPC   GL222574  38.249  32.115   9.216
 1471POPC   C1A22575  38.594  32.497   8.890
 1471POPC   D2A22576  38.421  32.370   8.518
 1471POPC   C3A22577  38.671  32.369   8.176
 1471POPC   C4A22578  38.502  32.471   7.799
 1471POPC   C1B22579  38.050  32.315   8.888
 1471POPC   C2B22580  37.916  32.209   8.481
 1471POPC   C3B22581  38.113  32.268   8.076
 1471POPC   C4B22582  38.096  31.990   7.737
 1472POPC   NC322583  28.442  37.400   9.460
 1472POPC   PO422584  28.393  38.127   9.461
 1472POPC   GL122585  28.286  37.788   9.155
 1472POPC   GL222586  28.588  37.590   9.033
 1472POPC   C1A22587  28.049  37.824   8.764
 1472POPC   D2A22588  28.196  38.051   8.398
 1472POPC   C3A22589  28.222  37.847   8.012
 1472POPC   C4A22590  28.319  37.575   7.660
 1472POPC   C1B22591  28.577  37.907   8.741
 1472POPC   C2B22592  28.620  37.733   8.341
 1472POPC   C3B22593  28.729  37.675   7.932
 1472POPC   C4B22594  28.748  37.246   7.768
 1473POPC   NC322595  31.400  42.640   9.558
 1473POPC   PO422596  31.653  43.233   9.564
 1473POPC   GL122597  31.354  43.075   9.241
 1473POPC   GL222598  31.643  42.882   9.134
 1473POPC   C1A22599  31.271  42.876   8.812
 1473POPC   D2A22600  31.530  42.830   8.439
 1473POPC   C3A22601  31.334  43.030   8.123
 1473POPC   C4A22602  31.180  43.280   7.815
 1473POPC   C1B22603  31.675  43.206   8.778
 1473POPC   C2B22604  31.935  43.384   8.448
 1473POPC   C3B22605  31.942  43.161   8.071
 1473POPC   C4B22606  31.704  43.191   7.731
 1474POPC   NC322607  12.335  33.838   9.675
 1474POPC   PO422608  11.873  33.470   9.643
 1474POPC   GL122609  11.856  33.785   9.265
 1474POPC   GL222610  12.182  33.948   9.159
 1474POPC   C1A22611  11.861  33.790   8.775
 1474POPC   D2A22612  12.073  33.735   8.321
 1474POPC   C3A22613  11.870  33.677   7.881
 1474POPC   C4A22614  11.781  33.579   7.413
 1474POPC   C1B22615  12.331  34.024   8.706
 1474POPC   C2B22616  12.165  34.241   8.318
 1474POPC   C3B22617  12.169  34.112   7.888
 1474POPC   C4B22618  12.600  34.078   7.731
 1475POPC   NC322619  32.690  35.034   9.503
 1475POPC   PO422620  32.264  34.518   9.742
 1475POPC   GL122621  32.217  34.489   9.228
 1475POPC   GL222622  32.258  34.828   9.063
 1475POPC   C1A22623  32.170  34.359   8.760
 1475POPC   D2A22624  32.279  34.483   8.305
 1475POPC   C3A22625  32.208  34.342   7.864
 1475POPC   C4A22626  31.924  34.505   7.544
 1475POPC   C1B22627  32.559  34.735   8.700
 1475POPC   C2B22628  32.767  34.693   8.328
 1475POPC   C3B22629  32.557  34.746   7.953
 1475POPC   C4B22630  32.097  34.850   7.879
 1476POPC   NC322631  21.890  25.595   9.482
 1476POPC   PO422632  22.496  25.374   9.596
 1476POPC   GL122633  22.263  25.380   9.195
 1476POPC   GL222634  22.084  25.060   9.036
 1476POPC   C1A22635  22.312  25.393   8.767
 1476POPC   D2A22636  22.146  25.098   8.445
 1476POPC   C3A22637  22.304  25.199   8.039
 1476POPC   C4A22638  22.524  25.528   7.852
 1476POPC   C1B22639  21.819  25.321   8.776
 1476POPC   C2B22640  21.576  25.185   8.453
 1476POPC   C3B22641  21.792  25.242   8.079
 1476POPC   C4B22642  21.932  25.383   7.681
 1477POPC   NC322643  36.960  43.238   9.698
 1477POPC   PO422644  36.738  42.597   9.745
 1477POPC   GL122645  36.907  42.933   9.317
 1477POPC   GL222646  36.710  43.257   9.245
 1477POPC   C1A22647  36.988  43.052   8.875
 1477POPC   D2A22648  36.678  43.168   8.562
 1477POPC   C3A22649  36.784  43.086   8.147
 1477POPC   C4A22650  37.075  43.210   7.825
 1477POPC   C1B22651  36.679  43.562   8.903
 1477POPC   C2B22652  36.692  43.686   8.466
 1477POPC   C3B22653  36.757  43.573   8.024
 1477POPC   C4B22654  36.772  43.513   7.555
 1478POPC   NC322655  36.045  26.319   9.529
 1478POPC   PO422656  35.540  25.804   9.481
 1478POPC   GL122657  35.812  26.045   9.157
 1478POPC   GL222658  35.878  26.414   9.064
 1478POPC   C1A22659  36.164  25.998   8.844
 1478POPC   D2A22660  36.287  26.141   8.425
 1478POPC   C3A22661  35.976  26.076   8.059
 1478POPC   C4A22662  36.212  25.828   7.878
 1478POPC   C1B22663  35.819  26.307   8.634
 1478POPC   C2B22664  36.000  26.519   8.272
 1478POPC   C3B22665  36.167  26.491   7.829
 1478POPC   C4B22666  35.940  26.609   7.427
 1479POPC   NC322667  30.223  25.867   9.671
 1479POPC   PO422668  29.863  26.322   9.845
 1479POPC   GL122669  29.874  26.292   9.304
 1479POPC   GL222670  29.555  26.283   9.113
 1479POPC   C1A22671  29.935  26.130   8.827
 1479POPC   D2A22672  29.746  25.977   8.392
 1479POPC   C3A22673  30.053  26.007   8.046
 1479POPC   C4A22674  30.050  26.258   7.683
 1479POPC   C1B22675  29.605  26.536   8.738
 1479POPC   C2B22676  29.603  26.715   8.309
 1479POPC   C3B22677  29.673  26.374   8.030
 1479POPC   C4B22678  29.567  25.996   7.831
 1480POPC   NC322679   4.212  16.142   9.465
 1480POPC   PO422680   4.687  15.610   9.320
 1480POPC   GL122681   4.422  15.864   9.085
 1480POPC   GL222682   4.597  16.198   9.141
 1480POPC   C1A22683   4.444  15.998   8.669
 1480POPC   D2A22684   4.459  16.246   8.310
 1480POPC   C3A22685   4.486  15.974   7.961
 1480POPC   C4A22686   4.668  15.643   7.703
 1480POPC   C1B22687   4.271  16.432   8.873
 1480POPC   C2B22688   4.006  16.389   8.514
 1480POPC   C3B22689   4.035  16.348   8.067
 1480POPC   C4B22690   4.143  16.179   7.640
 1481POPC   NC322691  40.496   6.310   9.547
 1481POPC   PO422692  39.948   5.886   9.496
 1481POPC   GL122693  39.847   5.876   9.109
 1481POPC   GL222694  39.607   6.152   9.072
 1481POPC   C1A22695  40.053   5.694   8.721
 1481POPC   D2A22696  40.257   5.776   8.326
 1481POPC   C3A22697  40.256   5.705   7.885
 1481POPC   C4A22698  40.035   5.684   7.530
 1481POPC   C1B22699  39.571   5.872   8.716
 1481POPC   C2B22700  39.747   5.920   8.355
 1481POPC   C3B22701  39.805   5.897   7.976
 1481POPC   C4B22702  39.578   5.879   7.638
 1482POPC   NC322703  15.203   1.431   9.425
 1482POPC   PO422704  15.218   2.047   9.350
 1482POPC   GL122705  15.486   2.121   9.025
 1482POPC   GL222706  15.603   1.771   9.137
 1482POPC   C1A22707  15.406   2.141   8.562
 1482POPC   D2A22708  15.017   2.246   8.385
 1482POPC   C3A22709  14.996   2.101   7.977
 1482POPC   C4A22710  15.359   2.095   7.675
 1482POPC   C1B22711  15.336   1.692   8.792
 1482POPC   C2B22712  15.231   1.594   8.389
 1482POPC   C3B22713  15.330   1.697   7.986
 1482POPC   C4B22714  15.262   1.513   7.585
 1483POPC   NC322715  44.678  39.744   9.532
 1483POPC   PO422716   0.172  40.318   9.611
 1483POPC   GL122717  44.909  40.128   9.253
 1483POPC   GL222718  44.597  40.288   9.138
 1483POPC   C1A22719  44.722  39.862   8.861
 1483POPC   D2A22720  44.511  39.696   8.448
 1483POPC   C3A22721  44.609  39.823   8.005
 1483POPC   C4A22722  44.491  39.847   7.542
 1483POPC   C1B22723  44.862  40.350   8.803
 1483POPC   C2B22724  44.844  40.154   8.417
 1483POPC   C3B22725  44.855  40.284   8.018
 1483POPC   C4B22726  44.507  40.326   7.729
 1484POPC   NC322727  20.009  39.020   9.492
 1484POPC   PO422728  19.493  39.507   9.469
 1484POPC   GL122729  19.763  39.345   9.189
 1484POPC   GL222730  19.708  39.581   8.988
 1484POPC   C1A22731  19.958  39.106   8.852
 1484POPC   D2A22732  19.748  38.924   8.523
 1484POPC   C3A22733  19.889  38.941   8.108
 1484POPC   C4A22734  19.985  38.904   7.713
 1484POPC   C1B22735  19.748  39.512   8.578
 1484POPC   C2B22736  19.713  39.415   8.177
 1484POPC   C3B22737  19.923  39.427   7.802
 1484POPC   C4B22738  20.002  39.300   7.376
 1485POPC   NC322739  36.599  37.738   9.673
 1485POPC   PO422740  37.128  38.040   9.700
 1485POPC   GL122741  36.871  37.859   9.274
 1485POPC   GL222742  36.921  37.530   9.119
 1485POPC   C1A22743  36.783  37.911   8.816
 1485POPC   D2A22744  36.674  37.584   8.486
 1485POPC   C3A22745  36.590  37.743   8.048
 1485POPC   C4A22746  36.748  37.891   7.620
 1485POPC   C1B22747  37.167  37.606   8.693
 1485POPC   C2B22748  37.338  37.635   8.288
 1485POPC   C3B22749  37.097  37.684   7.927
 1485POPC   C4B22750  37.195  37.490   7.523
 1486POPC   NC322751  16.826   7.432   9.504
 1486POPC   PO422752  16.297   7.709   9.226
 1486POPC   GL122753  16.533   7.308   9.091
 1486POPC   GL222754  16.897   7.126   9.116
 1486POPC   C1A22755  16.542   7.316   8.670
 1486POPC   D2A22756  16.634   7.704   8.455
 1486POPC   C3A22757  16.649   7.633   8.009
 1486POPC   C4A22758  16.553   7.362   7.701
 1486POPC   C1B22759  17.021   7.182   8.698
 1486POPC   C2B22760  16.966   7.337   8.300
 1486POPC   C3B22761  17.146   7.198   7.925
 1486POPC   C4B22762  17.013   7.160   7.523
 1487POPC   NC322763  15.750   4.127   9.808
 1487POPC   PO422764  15.645   4.414   9.240
 1487POPC   GL122765  15.972   4.380   8.968
 1487POPC   GL222766  16.289   4.299   9.153
 1487POPC   C1A22767  15.859   4.494   8.565
 1487POPC   D2A22768  15.656   4.297   8.241
 1487POPC   C3A22769  15.735   4.331   7.796
 1487POPC   C4A22770  15.955   4.450   7.438
 1487POPC   C1B22771  16.244   3.964   8.838
 1487POPC   C2B22772  16.078   4.040   8.443
 1487POPC   C3B22773  16.168   4.170   8.037
 1487POPC   C4B22774  16.080   3.982   7.631
 1488POPC   NC322775  26.962  30.297   9.420
 1488POPC   PO422776  26.899  30.939   9.355
 1488POPC   GL122777  26.603  30.743   9.092
 1488POPC   GL222778  26.887  30.550   8.984
 1488POPC   C1A22779  26.493  30.501   8.682
 1488POPC   D2A22780  26.791  30.430   8.330
 1488POPC   C3A22781  26.735  30.739   8.019
 1488POPC   C4A22782  26.875  31.017   7.728
 1488POPC   C1B22783  27.152  30.335   8.712
 1488POPC   C2B22784  27.324  30.420   8.309
 1488POPC   C3B22785  27.124  30.420   7.897
 1488POPC   C4B22786  27.127  30.314   7.470
 1489POPC   NC322787  20.708  36.738   9.572
 1489POPC   PO422788  20.890  37.312   9.417
 1489POPC   GL122789  20.750  36.967   9.116
 1489POPC   GL222790  20.866  36.586   9.096
 1489POPC   C1A22791  20.462  36.719   8.835
 1489POPC   D2A22792  20.370  36.762   8.394
 1489POPC   C3A22793  20.298  37.149   8.190
 1489POPC   C4A22794  20.415  37.280   7.773
 1489POPC   C1B22795  20.947  36.799   8.663
 1489POPC   C2B22796  20.823  37.053   8.310
 1489POPC   C3B22797  20.762  36.923   7.883
 1489POPC   C4B22798  20.921  36.698   7.492
 1490POPC   NC322799  15.191   3.241   9.291
 1490POPC   PO422800  15.346   2.741   9.743
 1490POPC   GL122801  15.210   2.712   9.267
 1490POPC   GL222802  15.364   2.906   8.974
 1490POPC   C1A22803  15.143   2.501   8.839
 1490POPC   D2A22804  15.251   2.740   8.461
 1490POPC   C3A22805  15.401   2.492   8.145
 1490POPC   C4A22806  15.305   2.616   7.743
 1490POPC   C1B22807  15.647   3.050   8.698
 1490POPC   C2B22808  15.540   3.235   8.366
 1490POPC   C3B22809  15.535   3.011   7.981
 1490POPC   C4B22810  15.358   3.100   7.573
 1491POPC   NC322811  12.653  10.335   9.446
 1491POPC   PO422812  12.760   9.705   9.607
 1491POPC   GL122813  12.819   9.898   9.214
 1491POPC   GL222814  12.550   9.708   9.115
 1491POPC   C1A22815  12.819  10.001   8.772
 1491POPC   D2A22816  12.992   9.944   8.363
 1491POPC   C3A22817  12.834   9.867   7.982
 1491POPC   C4A22818  12.629   9.913   7.604
 1491POPC   C1B22819  12.496   9.401   8.792
 1491POPC   C2B22820  12.633   9.573   8.413
 1491POPC   C3B22821  12.656   9.369   8.021
 1491POPC   C4B22822  12.838   9.457   7.639
 1492POPC   NC322823  12.293  39.571   9.480
 1492POPC   PO422824  11.905  40.131   9.698
 1492POPC   GL122825  12.178  40.185   9.292
 1492POPC   GL222826  12.300  39.905   9.087
 1492POPC   C1A22827  12.147  40.329   8.820
 1492POPC   D2A22828  12.185  40.157   8.358
 1492POPC   C3A22829  12.080  40.351   7.933
 1492POPC   C4A22830  11.965  40.280   7.482
 1492POPC   C1B22831  12.433  39.804   8.657
 1492POPC   C2B22832  12.280  39.659   8.222
 1492POPC   C3B22833  12.092  39.804   7.833
 1492POPC   C4B22834  12.176  39.779   7.395
 1493POPC   NC322835  22.398  27.397   9.665
 1493POPC   PO422836  22.355  28.112   9.733
 1493POPC   GL122837  22.154  27.809   9.367
 1493POPC   GL222838  21.979  27.451   9.365
 1493POPC   C1A22839  21.959  27.735   8.922
 1493POPC   D2A22840  22.051  27.934   8.532
 1493POPC   C3A22841  22.061  27.653   8.192
 1493POPC   C4A22842  21.766  27.451   7.896
 1493POPC   C1B22843  22.237  27.334   9.008
 1493POPC   C2B22844  22.319  27.386   8.568
 1493POPC   C3B22845  22.495  27.376   8.150
 1493POPC   C4B22846  22.264  27.471   7.772
 1494POPC   NC322847  43.998  37.083   9.642
 1494POPC   PO422848  43.825  36.450   9.468
 1494POPC   GL122849  44.114  36.650   9.158
 1494POPC   GL222850  44.273  37.000   9.151
 1494POPC   C1A22851  43.905  36.808   8.813
 1494POPC   D2A22852  43.761  37.015   8.452
 1494POPC   C3A22853  43.929  36.820   8.108
 1494POPC   C4A22854  43.850  36.780   7.700
 1494POPC   C1B22855  44.383  36.982   8.701
 1494POPC   C2B22856  44.417  36.970   8.238
 1494POPC   C3B22857  44.296  37.064   7.824
 1494POPC   C4B22858  44.120  37.114   7.425
 1495POPC   NC322859   7.696  18.276   9.404
 1495POPC   PO422860   8.332  18.501   9.536
 1495POPC   GL122861   8.096  18.508   9.175
 1495POPC   GL222862   8.165  18.179   9.138
 1495POPC   C1A22863   7.974  18.362   8.737
 1495POPC   D2A22864   8.158  18.161   8.371
 1495POPC   C3A22865   7.954  18.096   7.985
 1495POPC   C4A22866   7.808  18.156   7.545
 1495POPC   C1B22867   8.467  18.005   8.831
 1495POPC   C2B22868   8.395  17.722   8.480
 1495POPC   C3B22869   8.450  17.812   8.087
 1495POPC   C4B22870   8.573  17.989   7.745
 1496POPC   NC322871  24.115  16.798   9.458
 1496POPC   PO422872  24.801  16.683   9.501
 1496POPC   GL122873  24.544  16.780   9.159
 1496POPC   GL222874  24.485  16.432   9.087
 1496POPC   C1A22875  24.238  16.844   8.796
 1496POPC   D2A22876  24.183  16.641   8.382
 1496POPC   C3A22877  24.326  16.809   7.994
 1496POPC   C4A22878  24.779  16.912   7.918
 1496POPC   C1B22879  24.689  16.303   8.682
 1496POPC   C2B22880  24.485  16.219   8.307
 1496POPC   C3B22881  24.538  16.356   7.913
 1496POPC   C4B22882  24.261  16.474   7.595
 1497POPC   NC322883  11.763  24.807   9.405
 1497POPC   PO422884  12.206  24.337   9.653
 1497POPC   GL122885  12.197  24.400   9.207
 1497POPC   GL222886  12.448  24.135   9.192
 1497POPC   C1A22887  11.925  24.434   8.805
 1497POPC   D2A22888  11.941  24.674   8.403
 1497POPC   C3A22889  11.982  24.532   7.977
 1497POPC   C4A22890  12.272  24.693   7.636
 1497POPC   C1B22891  12.289  24.083   8.776
 1497POPC   C2B22892  12.311  24.231   8.369
 1497POPC   C3B22893  12.457  24.354   7.977
 1497POPC   C4B22894  12.294  24.201   7.618
 1498POPC   NC322895  10.586  10.752   9.567
 1498POPC   PO422896  10.766  11.432   9.558
 1498POPC   GL122897  10.574  11.213   9.138
 1498POPC   GL222898  10.206  11.294   9.024
 1498POPC   C1A22899  10.546  11.227   8.675
 1498POPC   D2A22900  10.781  11.220   8.366
 1498POPC   C3A22901  10.532  11.254   8.033
 1498POPC   C4A22902  10.742  11.232   7.652
 1498POPC   C1B22903  10.424  11.688   8.815
 1498POPC   C2B22904  10.660  11.710   8.427
 1498POPC   C3B22905  10.841  11.659   8.026
 1498POPC   C4B22906  10.554  11.694   7.710
 1499POPC   NC322907  28.247  43.253   9.596
 1499POPC   PO422908  28.418  42.627   9.442
 1499POPC   GL122909  28.424  42.977   9.181
 1499POPC   GL222910  28.179  43.250   9.097
 1499POPC   C1A22911  28.309  42.812   8.798
 1499POPC   D2A22912  28.088  42.672   8.438
 1499POPC   C3A22913  28.266  42.836   8.066
 1499POPC   C4A22914  28.380  43.075   7.727
 1499POPC   C1B22915  28.349  43.334   8.666
 1499POPC   C2B22916  28.377  43.333   8.222
 1499POPC   C3B22917  28.159  43.506   7.863
 1499POPC   C4B22918  28.122  43.421   7.399
 1500POPC   NC322919   0.746  29.282   9.922
 1500POPC   PO422920   0.323  29.037   9.634
 1500POPC   GL122921   0.229  29.003   9.177
 1500POPC   GL222922   0.561  28.888   9.093
 1500POPC   C1A22923   0.237  29.000   8.705
 1500POPC   D2A22924   0.136  29.116   8.283
 1500POPC   C3A22925   0.348  28.978   7.878
 1500POPC   C4A22926   0.562  28.885   7.487
 1500POPC   C1B22927   0.775  29.023   8.691
 1500POPC   C2B22928   0.654  29.106   8.270
 1500POPC   C3B22929   0.838  29.105   7.852
 1500POPC   C4B22930   0.819  29.370   7.482
 1501POPC   NC322931  43.974  29.646   9.316
 1501POPC   PO422932  43.783  29.115   9.705
 1501POPC   GL122933  43.929  29.034   9.194
 1501POPC   GL222934  43.963  29.326   8.943
 1501POPC   C1A22935  43.894  28.903   8.719
 1501POPC   D2A22936  43.844  29.126   8.296
 1501POPC   C3A22937  43.965  28.884   7.939
 1501POPC   C4A22938  44.238  28.996   7.551
 1501POPC   C1B22939  43.622  29.425   8.676
 1501POPC   C2B22940  43.531  29.685   8.368
 1501POPC   C3B22941  43.596  29.535   8.002
 1501POPC   C4B22942  43.892  29.349   7.763
 1502POPC   NC322943  14.217   0.845   9.455
 1502POPC   PO422944  14.008   1.572   9.584
 1502POPC   GL122945  14.254   1.333   9.246
 1502POPC   GL222946  14.089   1.131   9.001
 1502POPC   C1A22947  14.387   1.527   8.817
 1502POPC   D2A22948  14.278   1.396   8.386
 1502POPC   C3A22949  14.476   1.271   7.977
 1502POPC   C4A22950  14.407   1.149   7.553
 1502POPC   C1B22951  14.525   1.062   8.759
 1502POPC   C2B22952  14.509   0.897   8.369
 1502POPC   C3B22953  14.113   0.930   8.169
 1502POPC   C4B22954  13.956   0.954   7.769
 1503POPC   NC322955  27.339  31.077   9.418
 1503POPC   PO422956  27.470  30.389   9.497
 1503POPC   GL122957  27.442  30.478   9.107
 1503POPC   GL222958  27.591  30.806   9.070
 1503POPC   C1A22959  27.661  30.455   8.718
 1503POPC   D2A22960  27.710  30.822   8.458
 1503POPC   C3A22961  27.923  30.626   8.138
 1503POPC   C4A22962  27.734  30.619   7.760
 1503POPC   C1B22963  27.267  30.816   8.753
 1503POPC   C2B22964  27.110  30.896   8.357
 1503POPC   C3B22965  27.347  30.872   8.009
 1503POPC   C4B22966  27.302  30.803   7.572
 1504POPC   NC322967   2.447   8.015   9.488
 1504POPC   PO422968   3.088   8.194   9.515
 1504POPC   GL122969   2.779   8.228   9.127
 1504POPC   GL222970   2.435   8.397   9.134
 1504POPC   C1A22971   2.538   8.046   8.760
 1504POPC   D2A22972   2.417   8.145   8.350
 1504POPC   C3A22973   2.780   8.135   8.074
 1504POPC   C4A22974   2.828   8.088   7.626
 1504POPC   C1B22975   2.544   8.531   8.661
 1504POPC   C2B22976   2.654   8.629   8.201
 1504POPC   C3B22977   2.590   8.531   7.723
 1504POPC   C4B22978   2.933   8.517   7.344
 1505POPC   NC322979   0.449  19.391   9.190
 1505POPC   PO422980   0.382  18.796   9.558
 1505POPC   GL122981   0.571  18.868   9.181
 1505POPC   GL222982   0.256  18.939   9.084
 1505POPC   C1A22983   0.617  18.867   8.748
 1505POPC   D2A22984   0.496  19.179   8.452
 1505POPC   C3A22985   0.758  19.263   8.130
 1505POPC   C4A22986   0.781  18.896   7.890
 1505POPC   C1B22987   0.098  18.984   8.698
 1505POPC   C2B22988  44.992  19.067   8.285
 1505POPC   C3B22989   0.079  19.135   7.863
 1505POPC   C4B22990  44.883  18.859   7.539
 1506POPC   NC322991  44.734  34.287   9.702
 1506POPC   PO422992  44.576  34.901   9.698
 1506POPC   GL122993  44.536  34.893   9.226
 1506POPC   GL222994  44.373  34.569   9.127
 1506POPC   C1A22995  44.652  34.762   8.745
 1506POPC   D2A22996  44.449  34.519   8.357
 1506POPC   C3A22997  44.519  34.591   7.876
 1506POPC   C4A22998  44.345  34.451   7.474
 1506POPC   C1B22999  44.186  34.917   8.856
 1506POPC   C2B23000  44.287  35.013   8.431
 1506POPC   C3B23001  44.079  34.776   8.091
 1506POPC   C4B23002  44.095  34.864   7.672
 1507POPC   NC323003  17.005  10.101   9.473
 1507POPC   PO423004  17.421   9.678   9.679
 1507POPC   GL123005  17.444   9.889   9.267
 1507POPC   GL223006  17.629   9.615   9.121
 1507POPC   C1A23007  17.332   9.946   8.820
 1507POPC   D2A23008  17.165   9.961   8.387
 1507POPC   C3A23009  17.272   9.859   7.964
 1507POPC   C4A23010  17.621   9.813   7.729
 1507POPC   C1B23011  17.321   9.436   8.823
 1507POPC   C2B23012  17.228   9.444   8.355
 1507POPC   C3B23013  17.480   9.368   7.966
 1507POPC   C4B23014  17.395   9.340   7.526
 1508POPC   NC323015  35.482  37.281   9.580
 1508POPC   PO423016  35.629  37.856   9.345
 1508POPC   GL123017  35.570  37.479   9.114
 1508POPC   GL223018  35.241  37.490   9.139
 1508POPC   C1A23019  35.529  37.501   8.707
 1508POPC   D2A23020  35.601  37.850   8.483
 1508POPC   C3A23021  35.598  37.803   8.052
 1508POPC   C4A23022  35.501  37.527   7.735
 1508POPC   C1B23023  35.033  37.642   8.756
 1508POPC   C2B23024  35.156  37.504   8.347
 1508POPC   C3B23025  35.061  37.644   7.945
 1508POPC   C4B23026  35.065  37.447   7.530
 1509POPC   NC323027  42.444  29.841   9.575
 1509POPC   PO423028  43.114  29.697   9.684
 1509POPC   GL123029  43.113  29.717   9.243
 1509POPC   GL223030  43.166  30.055   9.200
 1509POPC   C1A23031  43.143  29.643   8.804
 1509POPC   D2A23032  43.035  29.835   8.433
 1509POPC   C3A23033  43.092  29.618   8.047
 1509POPC   C4A23034  43.228  29.840   7.711
 1509POPC   C1B23035  42.985  30.247   8.863
 1509POPC   C2B23036  42.969  30.345   8.424
 1509POPC   C3B23037  42.871  30.134   8.045
 1509POPC   C4B23038  42.682  30.316   7.719
 1510POPC   NC323039   2.093  21.822   9.614
 1510POPC   PO423040   2.315  22.462   9.571
 1510POPC   GL123041   2.057  22.176   9.256
 1510POPC   GL223042   2.242  21.877   9.136
 1510POPC   C1A23043   1.779  22.037   8.881
 1510POPC   D2A23044   1.816  22.343   8.502
 1510POPC   C3A23045   1.898  22.273   8.032
 1510POPC   C4A23046   1.688  22.452   7.657
 1510POPC   C1B23047   2.258  22.148   8.772
 1510POPC   C2B23048   2.118  21.957   8.390
 1510POPC   C3B23049   2.218  21.877   7.970
 1510POPC   C4B23050   1.963  21.990   7.580
 1511POPC   NC323051  18.717  27.829   9.609
 1511POPC   PO423052  19.132  27.327   9.750
 1511POPC   GL123053  19.174  27.474   9.268
 1511POPC   GL223054  18.912  27.702   9.145
 1511POPC   C1A23055  19.287  27.578   8.799
 1511POPC   D2A23056  19.309  27.812   8.356
 1511POPC   C3A23057  19.312  27.564   7.975
 1511POPC   C4A23058  18.977  27.264   7.828
 1511POPC   C1B23059  18.908  27.914   8.740
 1511POPC   C2B23060  18.664  27.918   8.378
 1511POPC   C3B23061  18.642  27.724   7.999
 1511POPC   C4B23062  18.947  27.754   7.679
 1512POPC   NC323063  26.725  23.475   9.367
 1512POPC   PO423064  27.365  23.841   9.489
 1512POPC   GL123065  27.040  23.832   9.182
 1512POPC   GL223066  27.223  23.558   9.066
 1512POPC   C1A23067  26.796  23.947   8.795
 1512POPC   D2A23068  26.606  23.681   8.429
 1512POPC   C3A23069  26.548  23.831   7.995
 1512POPC   C4A23070  26.568  23.812   7.542
 1512POPC   C1B23071  27.051  23.516   8.688
 1512POPC   C2B23072  27.146  23.662   8.274
 1512POPC   C3B23073  27.050  23.723   7.825
 1512POPC   C4B23074  27.209  23.495   7.476
 1513POPC   NC323075  41.832  32.363   9.508
 1513POPC   PO423076  41.233  31.917   9.563
 1513POPC   GL123077  41.453  32.133   9.236
 1513POPC   GL223078  41.362  32.461   9.247
 1513POPC   C1A23079  41.525  32.074   8.793
 1513POPC   D2A23080  41.402  32.079   8.375
 1513POPC   C3A23081  41.641  32.105   8.015
 1513POPC   C4A23082  41.415  31.999   7.668
 1513POPC   C1B23083  41.572  32.591   8.889
 1513POPC   C2B23084  41.497  32.602   8.440
 1513POPC   C3B23085  41.649  32.605   8.020
 1513POPC   C4B23086  41.464  32.556   7.612
 1514POPC   NC323087  40.034  31.963   9.413
 1514POPC   PO423088  40.502  32.480   9.624
 1514POPC   GL123089  40.404  32.333   9.229
 1514POPC   GL223090  40.086  32.524   9.227
 1514POPC   C1A23091  40.232  32.264   8.810
 1514POPC   D2A23092  39.999  32.273   8.421
 1514POPC   C3A23093  40.162  32.057   8.047
 1514POPC   C4A23094  39.870  31.912   7.735
 1514POPC   C1B23095  39.800  32.533   8.845
 1514POPC   C2B23096  39.532  32.716   8.544
 1514POPC   C3B23097  39.623  32.711   8.135
 1514POPC   C4B23098  39.773  32.361   7.948
 1515POPC   NC323099  17.693  38.826   9.394
 1515POPC   PO423100  17.335  39.354   9.610
 1515POPC   GL123101  17.433  39.261   9.209
 1515POPC   GL223102  17.254  38.951   9.138
 1515POPC   C1A23103  17.488  39.479   8.831
 1515POPC   D2A23104  17.383  39.323   8.420
 1515POPC   C3A23105  17.568  39.499   8.049
 1515POPC   C4A23106  17.738  39.347   7.683
 1515POPC   C1B23107  17.521  38.903   8.756
 1515POPC   C2B23108  17.622  38.909   8.280
 1515POPC   C3B23109  17.397  39.032   7.917
 1515POPC   C4B23110  17.345  38.939   7.491
 1516POPC   NC323111  11.611  29.093   9.620
 1516POPC   PO423112  11.753  29.746   9.531
 1516POPC   GL123113  11.499  29.402   9.210
 1516POPC   GL223114  11.154  29.216   9.191
 1516POPC   C1A23115  11.461  29.100   8.802
 1516POPC   D2A23116  11.222  28.899   8.436
 1516POPC   C3A23117  11.286  29.028   8.021
 1516POPC   C4A23118  11.626  28.925   7.813
 1516POPC   C1B23119  10.976  29.279   8.731
 1516POPC   C2B23120  11.056  29.429   8.278
 1516POPC   C3B23121  11.066  29.451   7.786
 1516POPC   C4B23122  10.990  29.420   7.306
 1517POPC   NC323123  29.087  35.868   9.339
 1517POPC   PO423124  29.073  35.313   9.535
 1517POPC   GL123125  29.109  35.339   9.110
 1517POPC   GL223126  29.380  35.543   9.050
 1517POPC   C1A23127  28.953  35.508   8.719
 1517POPC   D2A23128  29.085  35.821   8.418
 1517POPC   C3A23129  29.266  35.625   8.048
 1517POPC   C4A23130  29.130  35.585   7.645
 1517POPC   C1B23131  29.569  35.336   8.676
 1517POPC   C2B23132  29.481  34.989   8.392
 1517POPC   C3B23133  29.303  35.116   7.996
 1517POPC   C4B23134  29.311  34.999   7.573
 1518POPC   NC323135   7.453  43.626   9.474
 1518POPC   PO423136   7.611  44.318   9.377
 1518POPC   GL123137   7.575  43.953   9.101
 1518POPC   GL223138   7.248  43.971   9.112
 1518POPC   C1A23139   7.347  43.715   8.709
 1518POPC   D2A23140   7.117  43.666   8.310
 1518POPC   C3A23141   7.285  43.687   7.875
 1518POPC   C4A23142   7.550  43.708   7.516
 1518POPC   C1B23143   7.288  44.219   8.763
 1518POPC   C2B23144   7.421  44.238   8.372
 1518POPC   C3B23145   7.157  44.161   8.035
 1518POPC   C4B23146   7.327  44.206   7.646
 1519POPC   NC323147  40.488  43.041   9.465
 1519POPC   PO423148  41.127  42.776   9.403
 1519POPC   GL123149  40.871  43.074   9.134
 1519POPC   GL223150  40.544  43.311   9.018
 1519POPC   C1A23151  40.810  42.987   8.754
 1519POPC   D2A23152  41.019  42.896   8.440
 1519POPC   C3A23153  40.811  43.002   8.099
 1519POPC   C4A23154  40.946  42.901   7.735
 1519POPC   C1B23155  40.951  43.465   8.785
 1519POPC   C2B23156  41.064  43.384   8.323
 1519POPC   C3B23157  40.994  43.424   7.831
 1519POPC   C4B23158  41.086  43.608   7.391
 1520POPC   NC323159  11.235  25.678   9.491
 1520POPC   PO423160  11.517  25.139   9.182
 1520POPC   GL123161  11.347  25.505   8.995
 1520POPC   GL223162  11.007  25.592   9.059
 1520POPC   C1A23163  11.500  25.653   8.589
 1520POPC   D2A23164  11.572  25.480   8.171
 1520POPC   C3A23165  11.620  25.017   8.100
 1520POPC   C4A23166  11.337  24.803   7.815
 1520POPC   C1B23167  10.923  25.362   8.718
 1520POPC   C2B23168  10.938  25.105   8.387
 1520POPC   C3B23169  11.136  25.223   8.026
 1520POPC   C4B23170  11.052  25.283   7.616
 1521POPC   NC323171  15.182  42.843   9.545
 1521POPC   PO423172  15.490  43.395   9.676
 1521POPC   GL123173  15.456  43.153   9.223
 1521POPC   GL223174  15.208  42.857   9.046
 1521POPC   C1A23175  15.378  43.255   8.773
 1521POPC   D2A23176  15.151  43.095   8.388
 1521POPC   C3A23177  15.266  43.242   7.954
 1521POPC   C4A23178  15.528  43.277   7.552
 1521POPC   C1B23179  14.913  42.724   8.665
 1521POPC   C2B23180  14.932  42.618   8.251
 1521POPC   C3B23181  15.263  42.732   7.997
 1521POPC   C4B23182  15.227  42.871   7.590
 1522POPC   NC323183  36.291  25.567   9.432
 1522POPC   PO423184  35.825  25.004   9.465
 1522POPC   GL123185  36.043  25.216   9.181
 1522POPC   GL223186  35.853  25.516   9.182
 1522POPC   C1A23187  36.148  25.395   8.775
 1522POPC   D2A23188  35.918  25.222   8.426
 1522POPC   C3A23189  36.148  25.125   8.084
 1522POPC   C4A23190  36.244  25.351   7.762
 1522POPC   C1B23191  35.740  25.699   8.795
 1522POPC   C2B23192  35.935  25.720   8.410
 1522POPC   C3B23193  35.785  25.522   8.017
 1522POPC   C4B23194  35.814  25.626   7.585
 1523POPC   NC323195  35.722   6.591   9.448
 1523POPC   PO423196  35.088   6.711   9.493
 1523POPC   GL123197  35.333   6.724   9.092
 1523POPC   GL223198  35.602   6.461   8.984
 1523POPC   C1A23199  35.316   6.671   8.631
 1523POPC   D2A23200  35.478   6.938   8.309
 1523POPC   C3A23201  35.217   6.831   7.969
 1523POPC   C4A23202  35.302   6.772   7.551
 1523POPC   C1B23203  35.845   6.700   8.676
 1523POPC   C2B23204  36.004   6.757   8.257
 1523POPC   C3B23205  35.726   6.709   7.894
 1523POPC   C4B23206  35.740   6.495   7.493
 1524POPC   NC323207  18.846  30.154   9.563
 1524POPC   PO423208  19.511  30.085   9.519
 1524POPC   GL123209  19.186  30.035   9.189
 1524POPC   GL223210  19.441  29.862   9.060
 1524POPC   C1A23211  19.036  29.797   8.754
 1524POPC   D2A23212  18.826  29.720   8.316
 1524POPC   C3A23213  19.015  29.761   7.918
 1524POPC   C4A23214  18.889  29.856   7.515
 1524POPC   C1B23215  19.374  30.175   8.745
 1524POPC   C2B23216  19.276  30.000   8.344
 1524POPC   C3B23217  19.378  30.131   7.947
 1524POPC   C4B23218  19.449  30.444   7.647
 1525POPC   NC323219  20.455  22.063   9.505
 1525POPC   PO423220  21.108  22.112   9.623
 1525POPC   GL123221  20.865  22.068   9.205
 1525POPC   GL223222  20.588  22.311   9.074
 1525POPC   C1A23223  20.816  22.003   8.738
 1525POPC   D2A23224  20.532  22.150   8.448
 1525POPC   C3A23225  20.365  21.843   8.183
 1525POPC   C4A23226  20.557  21.853   7.823
 1525POPC   C1B23227  20.400  22.620   8.769
 1525POPC   C2B23228  20.244  22.578   8.352
 1525POPC   C3B23229  20.292  22.327   8.014
 1525POPC   C4B23230  20.541  22.348   7.680
 1526POPC   NC323231   3.450  20.805   9.566
 1526POPC   PO423232   3.335  20.167   9.492
 1526POPC   GL123233   3.607  20.442   9.231
 1526POPC   GL223234   3.885  20.776   9.313
 1526POPC   C1A23235   3.467  20.410   8.764
 1526POPC   D2A23236   3.182  20.353   8.390
 1526POPC   C3A23237   3.384  20.512   8.028
 1526POPC   C4A23238   3.813  20.442   7.843
 1526POPC   C1B23239   3.679  20.830   8.935
 1526POPC   C2B23240   3.672  20.803   8.494
 1526POPC   C3B23241   3.704  20.894   8.089
 1526POPC   C4B23242   3.660  20.886   7.654
 1527POPC   NC323243   2.009  22.816   9.610
 1527POPC   PO423244   1.348  22.710   9.638
 1527POPC   GL123245   1.160  22.715   9.234
 1527POPC   GL223246   0.854  22.575   9.223
 1527POPC   C1A23247   1.165  22.796   8.785
 1527POPC   D2A23248   1.442  22.700   8.449
 1527POPC   C3A23249   1.417  22.802   8.009
 1527POPC   C4A23250   1.142  23.057   7.752
 1527POPC   C1B23251   0.888  22.369   8.775
 1527POPC   C2B23252   0.956  22.455   8.296
 1527POPC   C3B23253   1.082  22.482   7.822
 1527POPC   C4B23254   0.871  22.575   7.412
 1528POPC   NC323255  33.511  29.012   9.441
 1528POPC   PO423256  33.930  29.643   9.494
 1528POPC   GL123257  33.663  29.449   9.191
 1528POPC   GL223258  33.927  29.200   9.196
 1528POPC   C1A23259  33.600  29.173   8.818
 1528POPC   D2A23260  33.896  28.952   8.563
 1528POPC   C3A23261  33.798  28.870   8.125
 1528POPC   C4A23262  33.883  28.934   7.704
 1528POPC   C1B23263  34.045  29.405   8.803
 1528POPC   C2B23264  33.866  29.438   8.362
 1528POPC   C3B23265  34.021  29.366   7.939
 1528POPC   C4B23266  34.057  29.568   7.500
 1529POPC   NC323267  31.646  29.453   9.205
 1529POPC   PO423268  32.222  29.085   9.485
 1529POPC   GL123269  32.372  28.864   9.154
 1529POPC   GL223270  32.170  29.006   8.977
 1529POPC   C1A23271  32.628  28.819   8.808
 1529POPC   D2A23272  32.730  28.967   8.433
 1529POPC   C3A23273  32.411  28.983   8.175
 1529POPC   C4A23274  32.321  28.974   7.752
 1529POPC   C1B23275  32.347  29.252   8.682
 1529POPC   C2B23276  32.447  29.481   8.350
 1529POPC   C3B23277  32.196  29.441   8.042
 1529POPC   C4B23278  32.279  29.457   7.668
 1530POPC   NC323279  26.099  36.795   9.580
 1530POPC   PO423280  26.827  36.776   9.595
 1530POPC   GL123281  26.859  36.810   9.143
 1530POPC   GL223282  26.670  36.565   8.912
 1530POPC   C1A23283  26.845  36.990   8.726
 1530POPC   D2A23284  26.917  36.760   8.339
 1530POPC   C3A23285  26.708  36.778   7.950
 1530POPC   C4A23286  26.339  37.038   7.831
 1530POPC   C1B23287  27.132  36.533   8.816
 1530POPC   C2B23288  27.297  36.435   8.406
 1530POPC   C3B23289  27.182  36.500   7.945
 1530POPC   C4B23290  26.992  36.622   7.509
 1531POPC   NC323291  26.716  43.458   9.471
 1531POPC   PO423292  26.908  42.780   9.551
 1531POPC   GL123293  26.754  43.022   9.188
 1531POPC   GL223294  27.049  43.227   9.158
 1531POPC   C1A23295  26.705  43.117   8.728
 1531POPC   D2A23296  26.924  43.356   8.438
 1531POPC   C3A23297  26.799  43.401   8.001
 1531POPC   C4A23298  26.518  43.180   7.743
 1531POPC   C1B23299  27.158  42.907   8.844
 1531POPC   C2B23300  27.185  42.795   8.427
 1531POPC   C3B23301  26.859  42.915   8.162
 1531POPC   C4B23302  26.964  42.940   7.760
 1532POPC   NC323303   6.545  12.504   9.399
 1532POPC   PO423304   6.153  13.074   9.327
 1532POPC   GL123305   6.366  12.876   9.070
 1532POPC   GL223306   6.678  12.960   9.140
 1532POPC   C1A23307   6.425  13.010   8.672
 1532POPC   D2A23308   6.611  12.827   8.310
 1532POPC   C3A23309   6.845  13.113   8.075
 1532POPC   C4A23310   6.578  13.218   7.754
 1532POPC   C1B23311   6.741  12.635   8.774
 1532POPC   C2B23312   6.947  12.439   8.441
 1532POPC   C3B23313   6.784  12.416   8.036
 1532POPC   C4B23314   6.881  12.726   7.743
 1533POPC   NC323315  29.027   0.614   9.655
 1533POPC   PO423316  29.374   0.090   9.834
 1533POPC   GL123317  29.304   0.353   9.326
 1533POPC   GL223318  28.979   0.561   9.157
 1533POPC   C1A23319  29.297   0.342   8.819
 1533POPC   D2A23320  28.998   0.490   8.460
 1533POPC   C3A23321  29.119   0.406   8.035
 1533POPC   C4A23322  28.972   0.319   7.602
 1533POPC   C1B23323  29.163   0.827   8.826
 1533POPC   C2B23324  29.393   0.817   8.437
 1533POPC   C3B23325  29.129   0.927   8.115
 1533POPC   C4B23326  29.007   0.807   7.720
 1534POPC   NC323327  12.735  16.735   9.365
 1534POPC   PO423328  13.194  16.230   9.593
 1534POPC   GL123329  13.164  16.456   9.152
 1534POPC   GL223330  12.856  16.438   8.976
 1534POPC   C1A23331  13.203  16.627   8.663
 1534POPC   D2A23332  12.956  16.911   8.347
 1534POPC   C3A23333  12.913  16.797   7.888
 1534POPC   C4A23334  13.087  17.048   7.542
 1534POPC   C1B23335  12.635  16.774   8.741
 1534POPC   C2B23336  12.480  16.638   8.377
 1534POPC   C3B23337  12.384  16.769   7.977
 1534POPC   C4B23338  12.503  16.640   7.550
 1535POPC   NC323339  43.553  23.837   9.688
 1535POPC   PO423340  44.140  24.206   9.726
 1535POPC   GL123341  44.009  23.884   9.346
 1535POPC   GL223342  43.696  23.799   9.217
 1535POPC   C1A23343  44.011  23.852   8.848
 1535POPC   D2A23344  44.089  23.935   8.430
 1535POPC   C3A23345  44.054  23.591   8.171
 1535POPC   C4A23346  43.863  23.547   7.778
 1535POPC   C1B23347  43.593  23.557   8.848
 1535POPC   C2B23348  43.625  23.671   8.442
 1535POPC   C3B23349  43.362  23.570   8.133
 1535POPC   C4B23350  43.417  23.318   7.792
 1536POPC   NC323351  13.331  35.064   9.356
 1536POPC   PO423352  13.734  35.534   9.669
 1536POPC   GL123353  13.588  35.492   9.191
 1536POPC   GL223354  13.490  35.797   8.971
 1536POPC   C1A23355  13.599  35.299   8.755
 1536POPC   D2A23356  13.694  35.071   8.323
 1536POPC   C3A23357  13.824  35.256   7.902
 1536POPC   C4A23358  13.927  35.091   7.489
 1536POPC   C1B23359  13.910  35.707   8.835
 1536POPC   C2B23360  13.930  35.528   8.436
 1536POPC   C3B23361  13.642  35.662   8.142
 1536POPC   C4B23362  13.831  35.817   7.752
 1537POPC   NC323363   7.521   9.226   9.331
 1537POPC   PO423364   7.353   8.680   9.596
 1537POPC   GL123365   7.219   8.724   9.185
 1537POPC   GL223366   7.539   8.762   9.085
 1537POPC   C1A23367   7.069   8.816   8.748
 1537POPC   D2A23368   7.124   9.039   8.345
 1537POPC   C3A23369   7.276   9.094   7.899
 1537POPC   C4A23370   7.529   8.816   7.661
 1537POPC   C1B23371   7.552   8.996   8.686
 1537POPC   C2B23372   7.643   8.995   8.251
 1537POPC   C3B23373   7.802   9.198   7.890
 1537POPC   C4B23374   7.737   9.301   7.464
 1538POPC   NC323375  28.820   2.246   9.491
 1538POPC   PO423376  29.372   1.991   9.810
 1538POPC   GL123377  29.366   1.826   9.245
 1538POPC   GL223378  28.992   1.887   9.163
 1538POPC   C1A23379  29.232   1.776   8.742
 1538POPC   D2A23380  28.896   1.779   8.411
 1538POPC   C3A23381  29.083   1.912   8.008
 1538POPC   C4A23382  29.438   1.716   7.803
 1538POPC   C1B23383  28.856   2.185   8.818
 1538POPC   C2B23384  28.689   2.234   8.395
 1538POPC   C3B23385  28.810   2.347   7.987
 1538POPC   C4B23386  28.766   2.237   7.578
 1539POPC   NC323387  25.982   8.814   9.559
 1539POPC   PO423388  26.400   9.357   9.501
 1539POPC   GL123389  26.143   9.123   9.199
 1539POPC   GL223390  26.208   8.807   9.019
 1539POPC   C1A23391  25.823   9.108   8.896
 1539POPC   D2A23392  25.942   8.856   8.517
 1539POPC   C3A23393  25.826   8.728   8.135
 1539POPC   C4A23394  25.905   8.902   7.770
 1539POPC   C1B23395  26.304   9.142   8.716
 1539POPC   C2B23396  26.515   9.192   8.349
 1539POPC   C3B23397  26.347   9.125   7.952
 1539POPC   C4B23398  26.388   8.738   7.701
 1540POPC   NC323399  32.722  38.630   9.507
 1540POPC   PO423400  32.153  38.260   9.548
 1540POPC   GL123401  32.350  38.394   9.193
 1540POPC   GL223402  32.099  38.670   9.174
 1540POPC   C1A23403  32.527  38.247   8.802
 1540POPC   D2A23404  32.476  38.332   8.378
 1540POPC   C3A23405  32.267  38.092   8.077
 1540POPC   C4A23406  32.167  38.171   7.630
 1540POPC   C1B23407  32.304  38.733   8.776
 1540POPC   C2B23408  32.537  38.859   8.410
 1540POPC   C3B23409  32.309  38.702   8.055
 1540POPC   C4B23410  31.870  38.729   7.977
 1541POPC   NC323411  23.942  39.020   9.449
 1541POPC   PO423412  23.526  39.517   9.693
 1541POPC   GL123413  23.495  39.353   9.295
 1541POPC   GL223414  23.136  39.471   9.230
 1541POPC   C1A23415  23.766  39.352   8.907
 1541POPC   D2A23416  24.059  39.154   8.573
 1541POPC   C3A23417  23.891  39.238   8.155
 1541POPC   C4A23418  23.758  39.017   7.777
 1541POPC   C1B23419  23.244  39.196   8.884
 1541POPC   C2B23420  23.492  39.171   8.506
 1541POPC   C3B23421  23.375  39.228   8.085
 1541POPC   C4B23422  23.402  39.507   7.723
 1542POPC   NC323423  38.155  39.562   9.467
 1542POPC   PO423424  38.328  40.196   9.676
 1542POPC   GL123425  38.526  40.352   9.259
 1542POPC   GL223426  38.666  40.037   9.136
 1542POPC   C1A23427  38.371  40.365   8.823
 1542POPC   D2A23428  38.513  40.281   8.397
 1542POPC   C3A23429  38.215  40.176   8.066
 1542POPC   C4A23430  38.277  39.947   7.693
 1542POPC   C1B23431  38.806  39.760   8.824
 1542POPC   C2B23432  38.673  39.773   8.411
 1542POPC   C3B23433  38.688  39.913   8.001
 1542POPC   C4B23434  38.722  39.740   7.595
 1543POPC   NC323435  14.980   4.699   9.710
 1543POPC   PO423436  15.365   5.279   9.541
 1543POPC   GL123437  15.272   5.227   9.174
 1543POPC   GL223438  15.062   4.950   9.241
 1543POPC   C1A23439  15.444   5.101   8.801
 1543POPC   D2A23440  15.333   4.846   8.479
 1543POPC   C3A23441  15.463   5.010   8.113
 1543POPC   C4A23442  15.400   5.262   7.788
 1543POPC   C1B23443  14.918   5.068   8.855
 1543POPC   C2B23444  14.821   4.976   8.474
 1543POPC   C3B23445  14.861   4.972   8.048
 1543POPC   C4B23446  14.756   5.288   7.755
 1544POPC   NC323447  44.207  20.685   9.559
 1544POPC   PO423448  44.784  20.380   9.447
 1544POPC   GL123449  44.508  20.541   9.164
 1544POPC   GL223450  44.535  20.893   9.209
 1544POPC   C1A23451  44.388  20.378   8.752
 1544POPC   D2A23452  44.424  20.576   8.382
 1544POPC   C3A23453  44.627  20.353   8.082
 1544POPC   C4A23454  44.363  20.333   7.715
 1544POPC   C1B23455  44.661  20.838   8.781
 1544POPC   C2B23456  44.871  20.813   8.403
 1544POPC   C3B23457  44.644  20.896   8.035
 1544POPC   C4B23458  44.703  20.694   7.666
 1545POPC   NC323459  15.660   5.667   9.503
 1545POPC   PO423460  16.233   6.108   9.540
 1545POPC   GL123461  16.045   5.902   9.172
 1545POPC   GL223462  15.749   6.062   9.099
 1545POPC   C1A23463  16.040   5.884   8.693
 1545POPC   D2A23464  16.103   5.596   8.337
 1545POPC   C3A23465  16.109   5.733   7.903
 1545POPC   C4A23466  16.026   6.162   7.769
 1545POPC   C1B23467  15.587   5.687   8.853
 1545POPC   C2B23468  15.604   5.449   8.445
 1545POPC   C3B23469  15.641   5.608   8.047
 1545POPC   C4B23470  15.442   5.864   7.743
 1546POPC   NC323471  26.647  16.122   9.562
 1546POPC   PO423472  27.097  15.576   9.698
 1546POPC   GL123473  26.984  15.933   9.257
 1546POPC   GL223474  26.590  15.903   9.114
 1546POPC   C1A23475  26.918  16.164   8.857
 1546POPC   D2A23476  26.737  16.226   8.438
 1546POPC   C3A23477  26.832  15.941   8.091
 1546POPC   C4A23478  26.784  15.911   7.644
 1546POPC   C1B23479  26.521  15.803   8.654
 1546POPC   C2B23480  26.344  15.606   8.281
 1546POPC   C3B23481  26.445  15.622   7.871
 1546POPC   C4B23482  26.405  15.679   7.407
 1547POPC   NC323483  26.255  21.971   9.750
 1547POPC   PO423484  25.804  22.266   9.343
 1547POPC   GL123485  26.019  22.035   9.033
 1547POPC   GL223486  26.354  21.948   9.171
 1547POPC   C1A23487  26.039  22.146   8.609
 1547POPC   D2A23488  26.144  22.381   8.229
 1547POPC   C3A23489  25.974  22.160   7.879
 1547POPC   C4A23490  26.152  21.934   7.505
 1547POPC   C1B23491  26.364  21.753   8.757
 1547POPC   C2B23492  26.373  21.889   8.322
 1547POPC   C3B23493  26.478  22.068   7.934
 1547POPC   C4B23494  26.612  22.137   7.511
 1548POPC   NC323495  42.041  19.949   9.493
 1548POPC   PO423496  42.573  19.575   9.339
 1548POPC   GL123497  42.316  19.830   9.079
 1548POPC   GL223498  41.982  19.674   9.056
 1548POPC   C1A23499  42.419  20.000   8.681
 1548POPC   D2A23500  42.618  19.982   8.251
 1548POPC   C3A23501  42.290  19.990   7.907
 1548POPC   C4A23502  42.455  20.015   7.505
 1548POPC   C1B23503  42.217  19.463   8.732
 1548POPC   C2B23504  42.278  19.608   8.334
 1548POPC   C3B23505  42.181  19.491   7.957
 1548POPC   C4B23506  41.873  19.456   7.734
 1549POPC   NC323507  44.867  27.040   9.226
 1549POPC   PO423508  44.421  26.674   9.647
 1549POPC   GL123509  44.547  26.615   9.199
 1549POPC   GL223510  44.750  26.336   9.099
 1549POPC   C1A23511  44.495  26.729   8.754
 1549POPC   D2A23512  44.684  26.616   8.346
 1549POPC   C3A23513  44.645  26.867   7.990
 1549POPC   C4A23514  44.288  26.676   7.834
 1549POPC   C1B23515  44.963  26.566   8.787
 1549POPC   C2B23516   0.027  26.955   8.542
 1549POPC   C3B23517   0.176  26.709   8.187
 1549POPC   C4B23518  44.939  26.452   7.887
 1550POPC   NC323519  43.345   5.273   9.563
 1550POPC   PO423520  42.644   5.427   9.529
 1550POPC   GL123521  42.928   5.228   9.209
 1550POPC   GL223522  43.293   5.228   9.073
 1550POPC   C1A23523  42.896   5.170   8.768
 1550POPC   D2A23524  43.013   4.970   8.406
 1550POPC   C3A23525  42.836   5.162   8.044
 1550POPC   C4A23526  42.932   4.971   7.678
 1550POPC   C1B23527  43.506   5.251   8.684
 1550POPC   C2B23528  43.625   5.334   8.257
 1550POPC   C3B23529  43.340   5.218   7.933
 1550POPC   C4B23530  43.390   5.128   7.562
 1551POPC   NC323531  12.541   2.545   9.429
 1551POPC   PO423532  13.150   2.854   9.299
 1551POPC   GL123533  12.891   2.715   9.061
 1551POPC   GL223534  12.618   2.930   9.054
 1551POPC   C1A23535  12.894   2.824   8.650
 1551POPC   D2A23536  12.920   2.652   8.301
 1551POPC   C3A23537  13.077   2.934   8.035
 1551POPC   C4A23538  13.117   2.829   7.650
 1551POPC   C1B23539  12.488   2.557   8.783
 1551POPC   C2B23540  12.591   2.280   8.400
 1551POPC   C3B23541  12.518   2.437   7.995
 1551POPC   C4B23542  12.699   2.542   7.643
 1552POPC   NC323543  18.108  43.546   9.696
 1552POPC   PO423544  18.137  44.124   9.438
 1552POPC   GL123545  18.229  43.899   9.091
 1552POPC   GL223546  18.370  43.582   9.226
 1552POPC   C1A23547  18.245  44.024   8.680
 1552POPC   D2A23548  18.051  44.003   8.279
 1552POPC   C3A23549  18.299  44.025   7.900
 1552POPC   C4A23550  18.568  44.296   7.628
 1552POPC   C1B23551  18.589  43.643   8.831
 1552POPC   C2B23552  18.426  43.589   8.419
 1552POPC   C3B23553  18.641  43.671   8.037
 1552POPC   C4B23554  18.704  43.583   7.620
 1553POPC   NC323555  24.296  31.150   9.607
 1553POPC   PO423556  23.880  30.614   9.520
 1553POPC   GL123557  23.872  30.529   9.078
 1553POPC   GL223558  24.169  30.325   9.099
 1553POPC   C1A23559  23.588  30.547   8.691
 1553POPC   D2A23560  23.223  30.735   8.450
 1553POPC   C3A23561  23.334  30.827   8.004
 1553POPC   C4A23562  23.409  30.489   7.670
 1553POPC   C1B23563  24.025  30.278   8.653
 1553POPC   C2B23564  24.028  30.594   8.340
 1553POPC   C3B23565  24.097  30.603   7.914
 1553POPC   C4B23566  23.854  30.281   7.742
 1554POPC   NC323567  43.142  36.623   9.405
 1554POPC   PO423568  43.155  37.226   9.443
 1554POPC   GL123569  43.102  37.014   9.055
 1554POPC   GL223570  42.775  37.043   9.030
 1554POPC   C1A23571  42.971  36.670   8.745
 1554POPC   D2A23572  43.155  36.512   8.360
 1554POPC   C3A23573  43.300  36.888   8.152
 1554POPC   C4A23574  43.371  36.919   7.718
 1554POPC   C1B23575  42.864  37.293   8.675
 1554POPC   C2B23576  42.992  37.311   8.246
 1554POPC   C3B23577  42.922  37.117   7.839
 1554POPC   C4B23578  43.070  37.140   7.377
 1555POPC   NC323579  10.964  26.639   9.453
 1555POPC   PO423580  10.398  27.049   9.622
 1555POPC   GL123581  10.491  26.837   9.223
 1555POPC   GL223582  10.688  26.574   9.044
 1555POPC   C1A23583  10.488  26.958   8.775
 1555POPC   D2A23584  10.629  26.688   8.477
 1555POPC   C3A23585  10.691  26.925   8.119
 1555POPC   C4A23586  10.646  26.967   7.692
 1555POPC   C1B23587  10.277  26.512   8.863
 1555POPC   C2B23588  10.172  26.460   8.438
 1555POPC   C3B23589  10.359  26.545   8.034
 1555POPC   C4B23590  10.815  26.487   7.881
 1556POPC   NC323591  10.072   5.812   9.394
 1556POPC   PO423592  10.589   6.181   9.663
 1556POPC   GL123593  10.564   5.819   9.230
 1556POPC   GL223594  10.881   5.655   9.124
 1556POPC   C1A23595  10.394   5.719   8.810
 1556POPC   D2A23596  10.503   5.849   8.385
 1556POPC   C3A23597  10.593   6.084   8.014
 1556POPC   C4A23598  10.479   5.933   7.575
 1556POPC   C1B23599  10.825   5.495   8.695
 1556POPC   C2B23600  10.892   5.555   8.282
 1556POPC   C3B23601  10.773   5.619   7.869
 1556POPC   C4B23602  10.992   5.703   7.472
 1557POPC   NC323603   0.891  36.161   9.574
 1557POPC   PO423604   1.389  36.506   9.555
 1557POPC   GL123605   1.257  36.225   9.188
 1557POPC   GL223606   0.906  36.268   9.083
 1557POPC   C1A23607   1.366  36.110   8.723
 1557POPC   D2A23608   1.612  36.135   8.309
 1557POPC   C3A23609   1.395  36.107   7.921
 1557POPC   C4A23610   1.236  35.707   7.727
 1557POPC   C1B23611   0.940  36.403   8.683
 1557POPC   C2B23612   1.059  36.257   8.280
 1557POPC   C3B23613   0.837  36.197   7.874
 1557POPC   C4B23614   0.904  36.422   7.486
 1558POPC   NC323615   9.551   0.021   9.381
 1558POPC   PO423616  10.135  44.700   9.572
 1558POPC   GL123617   9.847  44.621   9.193
 1558POPC   GL223618   9.900  44.878   8.958
 1558POPC   C1A23619   9.744  44.450   8.735
 1558POPC   D2A23620   9.734  44.741   8.349
 1558POPC   C3A23621   9.784  44.590   7.944
 1558POPC   C4A23622  10.126  44.374   7.755
 1558POPC   C1B23623   9.451  44.851   8.787
 1558POPC   C2B23624   9.250  44.860   8.420
 1558POPC   C3B23625   9.386   0.026   8.052
 1558POPC   C4B23626   9.606   0.029   7.675
 1559POPC   NC323627  18.273   6.147   9.297
 1559POPC   PO423628  18.070   6.743   9.487
 1559POPC   GL123629  18.139   6.625   9.110
 1559POPC   GL223630  18.228   6.949   9.004
 1559POPC   C1A23631  18.242   6.490   8.705
 1559POPC   D2A23632  18.180   6.701   8.329
 1559POPC   C3A23633  18.398   6.576   7.957
 1559POPC   C4A23634  18.208   6.533   7.549
 1559POPC   C1B23635  17.930   6.982   8.687
 1559POPC   C2B23636  17.896   7.142   8.248
 1559POPC   C3B23637  18.010   6.904   7.881
 1559POPC   C4B23638  18.369   7.000   7.645
 1560POPC   NC323639   2.573  15.159   9.610
 1560POPC   PO423640   3.274  15.173   9.424
 1560POPC   GL123641   2.868  15.249   9.199
 1560POPC   GL223642   2.631  14.931   9.165
 1560POPC   C1A23643   2.761  15.446   8.802
 1560POPC   D2A23644   3.039  15.620   8.493
 1560POPC   C3A23645   3.143  15.359   8.154
 1560POPC   C4A23646   2.817  15.407   7.871
 1560POPC   C1B23647   2.862  14.941   8.797
 1560POPC   C2B23648   2.744  15.113   8.395
 1560POPC   C3B23649   2.792  14.927   8.010
 1560POPC   C4B23650   2.916  14.643   7.703
 1561POPC   NC323651  20.743  11.490   9.519
 1561POPC   PO423652  20.559  10.877   9.621
 1561POPC   GL123653  20.685  11.080   9.225
 1561POPC   GL223654  20.421  11.362   9.154
 1561POPC   C1A23655  20.800  11.241   8.818
 1561POPC   D2A23656  20.580  11.110   8.452
 1561POPC   C3A23657  20.838  11.214   8.143
 1561POPC   C4A23658  20.914  11.163   7.724
 1561POPC   C1B23659  20.321  11.468   8.742
 1561POPC   C2B23660  20.453  11.575   8.323
 1561POPC   C3B23661  20.369  11.346   7.961
 1561POPC   C4B23662  20.356  11.487   7.559
 1562POPC   NC323663  40.544  39.862   9.303
 1562POPC   PO423664  41.006  40.263   9.501
 1562POPC   GL123665  40.842  40.207   9.105
 1562POPC   GL223666  40.574  40.384   9.068
 1562POPC   C1A23667  40.696  40.048   8.682
 1562POPC   D2A23668  40.403  39.820   8.452
 1562POPC   C3A23669  40.547  39.860   8.062
 1562POPC   C4A23670  40.822  40.003   7.733
 1562POPC   C1B23671  40.262  40.263   8.760
 1562POPC   C2B23672  40.361  40.328   8.314
 1562POPC   C3B23673  40.400  40.311   7.843
 1562POPC   C4B23674  40.345  39.930   7.589
 1563POPC   NC323675  31.233  28.060   9.556
 1563POPC   PO423676  31.621  28.629   9.537
 1563POPC   GL123677  31.573  28.411   9.114
 1563POPC   GL223678  31.574  28.039   9.111
 1563POPC   C1A23679  31.680  28.445   8.644
 1563POPC   D2A23680  31.456  28.742   8.372
 1563POPC   C3A23681  31.286  28.810   8.000
 1563POPC   C4A23682  31.511  28.631   7.743
 1563POPC   C1B23683  31.344  28.071   8.707
 1563POPC   C2B23684  31.305  28.263   8.286
 1563POPC   C3B23685  31.445  28.148   7.867
 1563POPC   C4B23686  31.405  27.906   7.475
 1564POPC   NC323687   2.525   4.767   9.497
 1564POPC   PO423688   2.017   5.140   9.584
 1564POPC   GL123689   2.288   5.329   9.222
 1564POPC   GL223690   2.632   5.171   9.176
 1564POPC   C1A23691   2.432   5.371   8.758
 1564POPC   D2A23692   2.701   5.368   8.358
 1564POPC   C3A23693   2.601   5.237   7.938
 1564POPC   C4A23694   2.654   4.898   7.622
 1564POPC   C1B23695   2.884   5.107   8.771
 1564POPC   C2B23696   2.981   4.948   8.335
 1564POPC   C3B23697   3.099   5.080   7.906
 1564POPC   C4B23698   3.165   4.911   7.465
 1565POPC   NC323699  38.511  43.446   9.517
 1565POPC   PO423700  38.393  42.779   9.557
 1565POPC   GL123701  38.534  42.909   9.178
 1565POPC   GL223702  38.728  43.156   9.190
 1565POPC   C1A23703  38.381  43.092   8.808
 1565POPC   D2A23704  38.130  43.108   8.444
 1565POPC   C3A23705  38.349  43.126   8.046
 1565POPC   C4A23706  38.652  42.908   7.798
 1565POPC   C1B23707  38.887  43.271   8.796
 1565POPC   C2B23708  38.726  43.231   8.418
 1565POPC   C3B23709  38.915  43.236   8.062
 1565POPC   C4B23710  38.907  43.425   7.674
 1566POPC   NC323711  21.156  37.630   9.639
 1566POPC   PO423712  21.807  37.394   9.573
 1566POPC   GL123713  21.584  37.671   9.200
 1566POPC   GL223714  21.237  37.708   9.155
 1566POPC   C1A23715  21.439  37.738   8.710
 1566POPC   D2A23716  21.544  38.031   8.370
 1566POPC   C3A23717  21.712  37.804   7.997
 1566POPC   C4A23718  21.401  37.636   7.700
 1566POPC   C1B23719  21.156  37.333   8.849
 1566POPC   C2B23720  21.321  37.211   8.478
 1566POPC   C3B23721  21.210  37.371   8.101
 1566POPC   C4B23722  21.176  37.171   7.722
 1567POPC   NC323723  24.116  34.718   9.323
 1567POPC   PO423724  24.714  34.912   9.495
 1567POPC   GL123725  24.601  34.588   9.141
 1567POPC   GL223726  24.284  34.383   8.973
 1567POPC   C1A23727  24.560  34.694   8.702
 1567POPC   D2A23728  24.453  34.591   8.286
 1567POPC   C3A23729  24.652  34.688   7.907
 1567POPC   C4A23730  24.803  34.345   7.629
 1567POPC   C1B23731  24.006  34.746   8.728
 1567POPC   C2B23732  24.028  34.933   8.364
 1567POPC   C3B23733  24.127  34.779   7.951
 1567POPC   C4B23734  24.166  34.713   7.520
 1568POPC   NC323735  44.201  28.841   9.588
 1568POPC   PO423736  44.361  29.413   9.265
 1568POPC   GL123737  44.418  29.043   9.038
 1568POPC   GL223738  44.688  28.906   9.250
 1568POPC   C1A23739  44.393  28.913   8.582
 1568POPC   D2A23740  44.443  28.907   8.121
 1568POPC   C3A23741  44.375  29.312   7.935
 1568POPC   C4A23742  44.641  29.650   7.761
 1568POPC   C1B23743  44.803  28.757   8.855
 1568POPC   C2B23744  44.955  28.619   8.460
 1568POPC   C3B23745  44.933  28.739   8.018
 1568POPC   C4B23746  44.868  29.174   7.846
 1569POPC   NC323747  38.144   4.510   9.765
 1569POPC   PO423748  38.312   3.896   9.642
 1569POPC   GL123749  38.314   4.335   9.302
 1569POPC   GL223750  38.695   4.451   9.167
 1569POPC   C1A23751  38.340   4.480   8.841
 1569POPC   D2A23752  38.569   4.337   8.461
 1569POPC   C3A23753  38.400   4.406   8.050
 1569POPC   C4A23754  38.357   4.067   7.757
 1569POPC   C1B23755  38.832   4.642   8.761
 1569POPC   C2B23756  39.021   4.690   8.345
 1569POPC   C3B23757  38.918   4.453   7.974
 1569POPC   C4B23758  38.656   4.441   7.599
 1570POPC   NC323759  18.505   7.868   9.405
 1570POPC   PO423760  18.178   8.404   9.510
 1570POPC   GL123761  18.207   8.152   9.132
 1570POPC   GL223762  17.917   7.937   9.044
 1570POPC   C1A23763  18.340   7.921   8.742
 1570POPC   D2A23764  18.604   8.042   8.377
 1570POPC   C3A23765  18.444   8.112   7.956
 1570POPC   C4A23766  18.476   7.924   7.549
 1570POPC   C1B23767  17.965   8.265   8.728
 1570POPC   C2B23768  18.108   8.225   8.352
 1570POPC   C3B23769  17.958   8.074   7.993
 1570POPC   C4B23770  17.990   8.331   7.665
 1571POPC   NC323771  19.680  43.249   9.443
 1571POPC   PO423772  20.112  42.762   9.483
 1571POPC   GL123773  19.993  42.956   9.126
 1571POPC   GL223774  19.667  42.858   9.055
 1571POPC   C1A23775  19.963  43.214   8.785
 1571POPC   D2A23776  20.106  43.358   8.414
 1571POPC   C3A23777  19.771  43.486   8.153
 1571POPC   C4A23778  19.724  43.279   7.780
 1571POPC   C1B23779  19.690  42.604   8.682
 1571POPC   C2B23780  19.813  42.572   8.235
 1571POPC   C3B23781  19.675  42.718   7.814
 1571POPC   C4B23782  19.768  42.616   7.334
 1572POPC   NC323783   4.514  37.769   9.809
 1572POPC   PO423784   3.987  37.375   9.573
 1572POPC   GL123785   4.178  37.728   9.326
 1572POPC   GL223786   4.411  37.501   9.238
 1572POPC   C1A23787   4.321  37.866   8.875
 1572POPC   D2A23788   4.405  37.982   8.409
 1572POPC   C3A23789   4.095  37.911   8.050
 1572POPC   C4A23790   3.991  38.200   7.721
 1572POPC   C1B23791   4.081  37.417   8.893
 1572POPC   C2B23792   4.101  37.566   8.459
 1572POPC   C3B23793   4.420  37.521   8.144
 1572POPC   C4B23794   4.521  37.788   7.799
 1573POPC   NC323795  34.538  16.996   9.660
 1573POPC   PO423796  35.083  16.533   9.430
 1573POPC   GL123797  34.796  16.589   9.110
 1573POPC   GL223798  34.458  16.651   9.233
 1573POPC   C1A23799  34.572  16.723   8.748
 1573POPC   D2A23800  34.349  16.547   8.448
 1573POPC   C3A23801  34.605  16.519   8.106
 1573POPC   C4A23802  34.578  16.720   7.739
 1573POPC   C1B23803  34.160  16.920   8.973
 1573POPC   C2B23804  34.119  16.986   8.551
 1573POPC   C3B23805  34.370  16.999   8.173
 1573POPC   C4B23806  34.182  17.029   7.754
 1574POPC   NC323807   3.178   9.479   9.552
 1574POPC   PO423808   3.658   9.931   9.517
 1574POPC   GL123809   3.601   9.590   9.228
 1574POPC   GL223810   3.936   9.412   9.224
 1574POPC   C1A23811   3.409   9.499   8.810
 1574POPC   D2A23812   3.300   9.485   8.364
 1574POPC   C3A23813   3.403   9.855   8.103
 1574POPC   C4A23814   3.257   9.769   7.718
 1574POPC   C1B23815   3.917   9.612   8.825
 1574POPC   C2B23816   3.733   9.739   8.479
 1574POPC   C3B23817   3.815   9.560   8.089
 1574POPC   C4B23818   3.763   9.737   7.691
 1575POPC   NC323819  40.848  28.562   9.428
 1575POPC   PO423820  40.781  29.296   9.501
 1575POPC   GL123821  40.583  28.993   9.206
 1575POPC   GL223822  40.843  28.823   8.979
 1575POPC   C1A23823  40.391  29.032   8.803
 1575POPC   D2A23824  40.598  28.858   8.453
 1575POPC   C3A23825  40.551  29.045   8.086
 1575POPC   C4A23826  40.485  29.076   7.644
 1575POPC   C1B23827  40.841  29.223   8.743
 1575POPC   C2B23828  40.977  29.237   8.332
 1575POPC   C3B23829  40.939  29.275   7.884
 1575POPC   C4B23830  41.001  29.178   7.446
 1576POPC   NC323831   9.236  16.045   9.670
 1576POPC   PO423832   9.812  15.769   9.429
 1576POPC   GL123833   9.618  15.829   9.095
 1576POPC   GL223834   9.833  16.108   9.046
 1576POPC   C1A23835   9.737  15.811   8.656
 1576POPC   D2A23836   9.932  16.165   8.434
 1576POPC   C3A23837   9.783  16.149   8.043
 1576POPC   C4A23838   9.893  15.935   7.715
 1576POPC   C1B23839   9.528  16.295   8.733
 1576POPC   C2B23840   9.477  16.486   8.312
 1576POPC   C3B23841   9.479  16.514   7.846
 1576POPC   C4B23842   9.522  16.212   7.528
 1577POPC   NC323843   9.765  18.888   9.405
 1577POPC   PO423844   9.806  19.450   9.773
 1577POPC   GL123845   9.575  19.332   9.274
 1577POPC   GL223846   9.314  18.994   9.209
 1577POPC   C1A23847   9.699  19.232   8.791
 1577POPC   D2A23848   9.782  19.299   8.365
 1577POPC   C3A23849   9.934  19.062   8.045
 1577POPC   C4A23850   9.870  19.317   7.709
 1577POPC   C1B23851   9.217  19.133   8.810
 1577POPC   C2B23852   9.321  19.012   8.392
 1577POPC   C3B23853   9.430  19.122   7.972
 1577POPC   C4B23854   9.590  18.873   7.654
 1578POPC   NC323855  30.354  44.156   9.586
 1578POPC   PO423856  30.265  44.810   9.747
 1578POPC   GL123857  29.981  44.650   9.334
 1578POPC   GL223858  29.974  44.309   9.232
 1578POPC   C1A23859  29.951  44.649   8.848
 1578POPC   D2A23860  29.841  44.455   8.444
 1578POPC   C3A23861  29.703  44.652   8.065
 1578POPC   C4A23862  29.597  44.748   7.648
 1578POPC   C1B23863  29.995  44.109   8.820
 1578POPC   C2B23864  30.091  44.008   8.371
 1578POPC   C3B23865  30.168  44.326   8.022
 1578POPC   C4B23866  30.117  44.662   7.686
 1579POPC   NC323867  14.608  24.863   9.628
 1579POPC   PO423868  14.336  25.479   9.564
 1579POPC   GL123869  14.419  25.390   9.164
 1579POPC   GL223870  14.587  25.074   9.169
 1579POPC   C1A23871  14.367  25.461   8.738
 1579POPC   D2A23872  14.239  25.591   8.347
 1579POPC   C3A23873  14.519  25.484   8.012
 1579POPC   C4A23874  14.594  25.285   7.639
 1579POPC   C1B23875  14.491  24.979   8.743
 1579POPC   C2B23876  14.409  25.073   8.304
 1579POPC   C3B23877  14.489  24.878   7.896
 1579POPC   C4B23878  14.623  24.855   7.398
 1580POPC   NC323879   3.832  17.622   9.560
 1580POPC   PO423880   3.203  17.872   9.549
 1580POPC   GL123881   3.435  17.714   9.174
 1580POPC   GL223882   3.518  17.377   9.165
 1580POPC   C1A23883   3.584  17.630   8.731
 1580POPC   D2A23884   3.458  17.760   8.333
 1580POPC   C3A23885   3.631  17.635   7.956
 1580POPC   C4A23886   3.297  17.628   7.660
 1580POPC   C1B23887   3.548  17.128   8.801
 1580POPC   C2B23888   3.621  17.229   8.354
 1580POPC   C3B23889   3.373  17.194   7.971
 1580POPC   C4B23890   3.461  17.158   7.546
 1581POPC   NC323891  10.974  10.010   9.344
 1581POPC   PO423892  11.602  10.124   9.613
 1581POPC   GL123893  11.423   9.758   9.286
 1581POPC   GL223894  11.606   9.430   9.180
 1581POPC   C1A23895  11.288   9.824   8.824
 1581POPC   D2A23896  11.386  10.155   8.541
 1581POPC   C3A23897  11.442  10.022   8.124
 1581POPC   C4A23898  11.207   9.931   7.770
 1581POPC   C1B23899  11.428   9.338   8.714
 1581POPC   C2B23900  11.241   9.521   8.264
 1581POPC   C3B23901  11.275   9.410   7.794
 1581POPC   C4B23902  11.411   9.463   7.322
 1582POPC   NC323903  15.412  39.601   9.380
 1582POPC   PO423904  15.256  38.884   9.511
 1582POPC   GL123905  15.277  39.100   9.163
 1582POPC   GL223906  14.955  39.239   9.104
 1582POPC   C1A23907  15.402  39.233   8.767
 1582POPC   D2A23908  15.339  39.136   8.353
 1582POPC   C3A23909  15.258  39.414   8.035
 1582POPC   C4A23910  15.404  39.178   7.721
 1582POPC   C1B23911  14.971  38.872   8.822
 1582POPC   C2B23912  14.836  38.951   8.453
 1582POPC   C3B23913  14.966  38.924   8.039
 1582POPC   C4B23914  14.895  39.187   7.739
 1583POPC   NC323915  12.707   3.950   9.419
 1583POPC   PO423916  12.945   4.523   9.610
 1583POPC   GL123917  12.699   4.438   9.246
 1583POPC   GL223918  13.009   4.493   9.081
 1583POPC   C1A23919  12.567   4.337   8.814
 1583POPC   D2A23920  12.433   4.454   8.373
 1583POPC   C3A23921  12.679   4.288   8.015
 1583POPC   C4A23922  13.094   4.119   7.824
 1583POPC   C1B23923  12.916   4.677   8.671
 1583POPC   C2B23924  12.991   4.633   8.245
 1583POPC   C3B23925  13.065   4.630   7.829
 1583POPC   C4B23926  12.911   4.821   7.500
 1584POPC   NC323927  29.855   4.112   9.671
 1584POPC   PO423928  30.044   3.548   9.690
 1584POPC   GL123929  29.922   3.791   9.268
 1584POPC   GL223930  29.569   3.876   9.259
 1584POPC   C1A23931  29.982   3.801   8.792
 1584POPC   D2A23932  29.967   3.642   8.340
 1584POPC   C3A23933  30.305   3.719   8.012
 1584POPC   C4A23934  30.385   3.398   7.683
 1584POPC   C1B23935  29.462   3.819   8.838
 1584POPC   C2B23936  29.620   4.002   8.447
 1584POPC   C3B23937  29.623   3.866   8.029
 1584POPC   C4B23938  29.866   3.539   7.832
 1585POPC   NC323939  34.022  39.462   9.550
 1585POPC   PO423940  33.738  38.824   9.530
 1585POPC   GL123941  33.970  39.065   9.213
 1585POPC   GL223942  33.692  39.282   9.181
 1585POPC   C1A23943  34.044  39.250   8.802
 1585POPC   D2A23944  33.833  39.510   8.507
 1585POPC   C3A23945  33.857  39.357   8.107
 1585POPC   C4A23946  33.746  39.322   7.702
 1585POPC   C1B23947  33.551  39.060   8.788
 1585POPC   C2B23948  33.473  39.016   8.322
 1585POPC   C3B23949  33.322  38.891   7.853
 1585POPC   C4B23950  33.274  38.905   7.383
 1586POPC   NC323951  29.864  28.890   9.458
 1586POPC   PO423952  29.619  28.277   9.574
 1586POPC   GL123953  29.845  28.345   9.174
 1586POPC   GL223954  29.680  28.614   9.050
 1586POPC   C1A23955  29.767  28.185   8.724
 1586POPC   D2A23956  29.665  28.309   8.262
 1586POPC   C3A23957  29.895  28.176   7.851
 1586POPC   C4A23958  30.186  28.125   7.466
 1586POPC   C1B23959  29.790  28.690   8.618
 1586POPC   C2B23960  29.570  28.818   8.284
 1586POPC   C3B23961  29.700  28.682   7.910
 1586POPC   C4B23962  30.086  28.871   7.767
 1587POPC   NC323963  24.715  20.403   9.551
 1587POPC   PO423964  24.050  20.722   9.560
 1587POPC   GL123965  24.267  20.792   9.146
 1587POPC   GL223966  24.582  20.641   9.108
 1587POPC   C1A23967  24.247  20.693   8.702
 1587POPC   D2A23968  24.138  20.647   8.270
 1587POPC   C3A23969  24.467  20.682   7.930
 1587POPC   C4A23970  24.348  20.805   7.522
 1587POPC   C1B23971  24.728  20.427   8.736
 1587POPC   C2B23972  24.846  20.541   8.313
 1587POPC   C3B23973  24.818  20.303   7.942
 1587POPC   C4B23974  24.563  20.294   7.570
 1588POPC   NC323975   8.218  17.279   9.454
 1588POPC   PO423976   7.960  17.890   9.516
 1588POPC   GL123977   8.162  17.679   9.153
 1588POPC   GL223978   7.983  17.353   9.015
 1588POPC   C1A23979   7.992  17.815   8.774
 1588POPC   D2A23980   7.784  17.531   8.530
 1588POPC   C3A23981   7.949  17.498   8.133
 1588POPC   C4A23982   8.090  17.678   7.751
 1588POPC   C1B23983   8.323  17.309   8.767
 1588POPC   C2B23984   8.318  17.176   8.352
 1588POPC   C3B23985   8.389  17.312   7.956
 1588POPC   C4B23986   8.540  17.507   7.566
 1589POPC   NC323987  21.679  30.003   9.391
 1589POPC   PO423988  22.366  29.971   9.631
 1589POPC   GL123989  22.222  30.002   9.211
 1589POPC   GL223990  22.137  29.671   9.093
 1589POPC   C1A23991  22.061  30.196   8.816
 1589POPC   D2A23992  21.814  30.244   8.427
 1589POPC   C3A23993  22.054  30.074   8.097
 1589POPC   C4A23994  22.353  30.256   7.817
 1589POPC   C1B23995  22.457  29.823   8.746
 1589POPC   C2B23996  22.589  29.918   8.289
 1589POPC   C3B23997  22.443  29.730   7.912
 1589POPC   C4B23998  22.084  29.502   7.773
 1590POPC   NC323999  43.167  34.319   9.617
 1590POPC   PO424000  43.094  34.966   9.341
 1590POPC   GL124001  43.199  34.587   9.105
 1590POPC   GL224002  42.955  34.292   9.133
 1590POPC   C1A24003  43.286  34.709   8.679
 1590POPC   D2A24004  42.936  34.817   8.404
 1590POPC   C3A24005  43.026  34.701   8.007
 1590POPC   C4A24006  43.324  34.639   7.725
 1590POPC   C1B24007  43.162  34.216   8.723
 1590POPC   C2B24008  43.201  34.350   8.318
 1590POPC   C3B24009  43.106  34.187   7.911
 1590POPC   C4B24010  43.002  33.993   7.543
 1591POPC   NC324011   6.475  21.130   9.493
 1591POPC   PO424012   6.673  21.724   9.825
 1591POPC   GL124013   6.732  21.597   9.310
 1591POPC   GL224014   6.483  21.419   9.085
 1591POPC   C1A24015   6.786  21.652   8.785
 1591POPC   D2A24016   6.659  21.466   8.383
 1591POPC   C3A24017   6.481  21.584   7.988
 1591POPC   C4A24018   6.801  21.661   7.675
 1591POPC   C1B24019   6.620  21.119   8.754
 1591POPC   C2B24020   6.527  20.980   8.303
 1591POPC   C3B24021   6.647  21.107   7.881
 1591POPC   C4B24022   6.509  21.297   7.470
 1592POPC   NC324023   8.010  24.102   9.232
 1592POPC   PO424024   8.317  23.668   9.514
 1592POPC   GL124025   8.325  23.548   9.080
 1592POPC   GL224026   8.011  23.667   8.982
 1592POPC   C1A24027   8.228  23.440   8.610
 1592POPC   D2A24028   8.445  23.527   8.267
 1592POPC   C3A24029   8.221  23.378   7.943
 1592POPC   C4A24030   8.068  23.550   7.563
 1592POPC   C1B24031   8.306  23.940   8.689
 1592POPC   C2B24032   8.411  24.072   8.264
 1592POPC   C3B24033   8.377  23.871   7.855
 1592POPC   C4B24034   8.128  24.063   7.527
 1593POPC   NC324035  36.560  44.028   9.838
 1593POPC   PO424036  35.991  43.903   9.522
 1593POPC   GL124037  36.079  43.990   9.126
 1593POPC   GL224038  35.887  43.775   8.984
 1593POPC   C1A24039  36.306  43.943   8.742
 1593POPC   D2A24040  36.138  43.830   8.341
 1593POPC   C3A24041  36.040  44.147   8.057
 1593POPC   C4A24042  36.209  44.177   7.633
 1593POPC   C1B24043  35.723  43.933   8.624
 1593POPC   C2B24044  35.599  43.861   8.214
 1593POPC   C3B24045  35.721  43.661   7.845
 1593POPC   C4B24046  35.949  43.771   7.483
 1594POPC   NC324047  16.921  41.238   9.317
 1594POPC   PO424048  17.097  41.848   9.568
 1594POPC   GL124049  16.874  41.777   9.166
 1594POPC   GL224050  16.539  41.625   9.186
 1594POPC   C1A24051  16.895  41.557   8.750
 1594POPC   D2A24052  17.004  41.280   8.394
 1594POPC   C3A24053  16.829  41.404   7.993
 1594POPC   C4A24054  16.787  41.409   7.538
 1594POPC   C1B24055  16.354  41.512   8.783
 1594POPC   C2B24056  16.537  41.616   8.391
 1594POPC   C3B24057  16.520  41.806   8.017
 1594POPC   C4B24058  16.407  41.812   7.607
 1595POPC   NC324059  17.664  24.475   9.590
 1595POPC   PO424060  17.354  23.885   9.587
 1595POPC   GL124061  17.413  24.212   9.216
 1595POPC   GL224062  17.708  24.426   9.088
 1595POPC   C1A24063  17.313  24.359   8.778
 1595POPC   D2A24064  17.420  24.516   8.338
 1595POPC   C3A24065  17.398  24.257   7.969
 1595POPC   C4A24066  17.067  24.143   7.683
 1595POPC   C1B24067  17.694  24.721   8.722
 1595POPC   C2B24068  17.841  24.808   8.281
 1595POPC   C3B24069  17.555  24.886   7.907
 1595POPC   C4B24070  17.421  24.607   7.548
 1596POPC   NC324071  16.123   2.717   9.507
 1596POPC   PO424072  15.620   3.081   9.373
 1596POPC   GL124073  15.737   2.651   9.173
 1596POPC   GL224074  15.980   2.822   9.020
 1596POPC   C1A24075  15.666   2.547   8.719
 1596POPC   D2A24076  15.860   2.757   8.333
 1596POPC   C3A24077  15.827   2.609   7.897
 1596POPC   C4A24078  15.728   2.758   7.474
 1596POPC   C1B24079  16.181   2.536   8.729
 1596POPC   C2B24080  16.386   2.632   8.363
 1596POPC   C3B24081  16.274   2.814   7.986
 1596POPC   C4B24082  16.219   2.675   7.565
 1597POPC   NC324083  24.992  30.521   9.953
 1597POPC   PO424084  24.716  30.966   9.403
 1597POPC   GL124085  24.456  30.767   9.144
 1597POPC   GL224086  24.668  30.449   9.072
 1597POPC   C1A24087  24.316  30.701   8.754
 1597POPC   D2A24088  24.508  30.403   8.485
 1597POPC   C3A24089  24.593  30.488   8.041
 1597POPC   C4A24090  24.513  30.596   7.577
 1597POPC   C1B24091  24.829  30.761   8.752
 1597POPC   C2B24092  24.915  30.770   8.332
 1597POPC   C3B24093  24.773  30.973   7.947
 1597POPC   C4B24094  24.760  31.005   7.488
 1598POPC   NC324095  13.575  41.075   9.292
 1598POPC   PO424096  13.363  40.449   9.580
 1598POPC   GL124097  13.554  40.532   9.185
 1598POPC   GL224098  13.879  40.657   9.175
 1598POPC   C1A24099  13.460  40.735   8.782
 1598POPC   D2A24100  13.494  40.631   8.392
 1598POPC   C3A24101  13.483  40.927   8.059
 1598POPC   C4A24102  13.656  40.824   7.666
 1598POPC   C1B24103  13.972  40.809   8.735
 1598POPC   C2B24104  13.933  41.046   8.328
 1598POPC   C3B24105  13.961  41.137   7.883
 1598POPC   C4B24106  13.971  41.145   7.397
 1599POPC   NC324107  42.154  36.486   9.331
 1599POPC   PO424108  42.310  35.831   9.485
 1599POPC   GL124109  42.397  36.008   9.072
 1599POPC   GL224110  42.090  36.160   8.942
 1599POPC   C1A24111  42.557  35.957   8.637
 1599POPC   D2A24112  42.680  36.315   8.335
 1599POPC   C3A24113  42.609  36.180   7.940
 1599POPC   C4A24114  42.252  36.051   7.703
 1599POPC   C1B24115  42.378  36.443   8.721
 1599POPC   C2B24116  42.265  36.623   8.326
 1599POPC   C3B24117  42.129  36.520   7.934
 1599POPC   C4B24118  42.269  36.513   7.509
 1600POPC   NC324119  25.409   2.195   9.500
 1600POPC   PO424120  25.031   1.714   9.371
 1600POPC   GL124121  25.134   1.977   9.069
 1600POPC   GL224122  25.060   2.326   9.165
 1600POPC   C1A24123  25.256   1.836   8.658
 1600POPC   D2A24124  25.198   1.779   8.245
 1600POPC   C3A24125  25.354   1.754   7.843
 1600POPC   C4A24126  24.999   1.774   7.503
 1600POPC   C1B24127  25.392   2.305   8.785
 1600POPC   C2B24128  25.263   2.296   8.342
 1600POPC   C3B24129  25.091   2.176   7.939
 1600POPC   C4B24130  25.325   2.182   7.551
 1601POPC   NC324131  21.009   1.490   9.454
 1601POPC   PO424132  20.502   1.149   9.584
 1601POPC   GL124133  20.550   1.079   9.159
 1601POPC   GL224134  20.261   0.952   8.985
 1601POPC   C1A24135  20.778   0.981   8.794
 1601POPC   D2A24136  20.608   0.788   8.432
 1601POPC   C3A24137  20.509   1.067   8.096
 1601POPC   C4A24138  20.626   1.117   7.682
 1601POPC   C1B24139  20.372   1.337   8.714
 1601POPC   C2B24140  20.353   1.534   8.277
 1601POPC   C3B24141  20.333   1.569   7.815
 1601POPC   C4B24142  20.218   1.350   7.450
 1602POPC   NC324143  15.714  26.278   9.682
 1602POPC   PO424144  16.377  26.148   9.433
 1602POPC   GL124145  16.081  26.025   9.051
 1602POPC   GL224146  16.151  26.329   8.821
 1602POPC   C1A24147  15.696  26.055   8.756
 1602POPC   D2A24148  15.586  26.249   8.346
 1602POPC   C3A24149  15.777  26.116   7.949
 1602POPC   C4A24150  16.174  26.294   7.879
 1602POPC   C1B24151  16.148  26.024   8.519
 1602POPC   C2B24152  15.963  25.737   8.268
 1602POPC   C3B24153  16.197  25.766   7.918
 1602POPC   C4B24154  16.157  25.898   7.513
 1603POPC   NC324155  16.682   2.395   9.512
 1603POPC   PO424156  16.437   3.059   9.497
 1603POPC   GL124157  16.671   2.841   9.230
 1603POPC   GL224158  16.454   2.639   9.124
 1603POPC   C1A24159  16.854   2.731   8.820
 1603POPC   D2A24160  16.896   2.536   8.414
 1603POPC   C3A24161  16.791   2.719   8.016
 1603POPC   C4A24162  16.743   2.534   7.591
 1603POPC   C1B24163  16.413   3.023   8.833
 1603POPC   C2B24164  16.374   3.137   8.417
 1603POPC   C3B24165  16.584   3.209   8.058
 1603POPC   C4B24166  16.601   3.014   7.647
 1604POPC   NC324167  27.089  21.905   9.833
 1604POPC   PO424168  26.563  22.291   9.578
 1604POPC   GL124169  26.710  22.346   9.143
 1604POPC   GL224170  27.003  22.213   9.196
 1604POPC   C1A24171  26.577  22.282   8.700
 1604POPC   D2A24172  26.818  22.163   8.344
 1604POPC   C3A24173  26.911  22.334   7.939
 1604POPC   C4A24174  26.825  22.580   7.585
 1604POPC   C1B24175  27.013  21.991   8.796
 1604POPC   C2B24176  26.965  21.663   8.477
 1604POPC   C3B24177  26.851  21.734   8.065
 1604POPC   C4B24178  27.012  21.896   7.703
 1605POPC   NC324179   7.468  30.151   9.496
 1605POPC   PO424180   6.829  29.949   9.573
 1605POPC   GL124181   7.095  29.981   9.187
 1605POPC   GL224182   7.452  29.786   9.140
 1605POPC   C1A24183   7.245  30.105   8.792
 1605POPC   D2A24184   7.405  29.912   8.439
 1605POPC   C3A24185   7.250  29.969   8.065
 1605POPC   C4A24186   7.533  29.719   7.856
 1605POPC   C1B24187   7.760  29.948   8.812
 1605POPC   C2B24188   7.846  30.170   8.410
 1605POPC   C3B24189   7.699  30.233   7.983
 1605POPC   C4B24190   7.873  30.099   7.579
 1606POPC   NC324191  38.714   5.952   9.568
 1606POPC   PO424192  38.122   5.625   9.486
 1606POPC   GL124193  38.358   5.886   9.146
 1606POPC   GL224194  38.702   6.042   9.091
 1606POPC   C1A24195  38.387   5.991   8.692
 1606POPC   D2A24196  38.250   5.817   8.298
 1606POPC   C3A24197  38.269   6.106   7.978
 1606POPC   C4A24198  38.621   6.273   7.860
 1606POPC   C1B24199  38.764   5.635   8.898
 1606POPC   C2B24200  38.722   5.649   8.458
 1606POPC   C3B24201  38.719   5.777   8.034
 1606POPC   C4B24202  38.448   5.728   7.692
 1607POPC   NC324203  25.146  27.354   9.301
 1607POPC   PO424204  25.326  26.893   9.715
 1607POPC   GL124205  25.291  26.785   9.286
 1607POPC   GL224206  25.620  26.880   9.224
 1607POPC   C1A24207  25.154  26.629   8.882
 1607POPC   D2A24208  25.186  26.827   8.472
 1607POPC   C3A24209  25.345  26.594   8.145
 1607POPC   C4A24210  25.252  26.489   7.727
 1607POPC   C1B24211  25.547  26.997   8.803
 1607POPC   C2B24212  25.676  26.998   8.358
 1607POPC   C3B24213  25.513  27.040   7.957
 1607POPC   C4B24214  25.572  26.868   7.558
 1608POPC   NC324215  31.675   6.941   9.993
 1608POPC   PO424216  31.478   6.446   9.642
 1608POPC   GL124217  31.511   6.591   9.226
 1608POPC   GL224218  31.709   6.831   9.320
 1608POPC   C1A24219  31.371   6.645   8.797
 1608POPC   D2A24220  31.628   6.586   8.439
 1608POPC   C3A24221  31.425   6.597   8.047
 1608POPC   C4A24222  31.516   6.732   7.645
 1608POPC   C1B24223  31.852   6.818   8.868
 1608POPC   C2B24224  31.996   6.917   8.407
 1608POPC   C3B24225  31.926   6.720   7.938
 1608POPC   C4B24226  31.966   6.747   7.437
 1609POPC   NC324227  16.506  35.911   9.937
 1609POPC   PO424228  16.830  36.365   9.523
 1609POPC   GL124229  16.780  36.299   9.104
 1609POPC   GL224230  16.431  36.404   9.154
 1609POPC   C1A24231  16.927  36.029   8.756
 1609POPC   D2A24232  17.188  35.994   8.381
 1609POPC   C3A24233  16.977  36.096   7.997
 1609POPC   C4A24234  16.680  35.831   7.812
 1609POPC   C1B24235  16.448  36.300   8.710
 1609POPC   C2B24236  16.575  36.461   8.309
 1609POPC   C3B24237  16.477  36.305   7.887
 1609POPC   C4B24238  16.468  36.261   7.442
 1610POPC   NC324239   0.724  18.474   9.458
 1610POPC   PO424240   1.399  18.538   9.501
 1610POPC   GL124241   1.293  18.248   9.155
 1610POPC   GL224242   0.967  18.092   9.115
 1610POPC   C1A24243   1.303  18.122   8.728
 1610POPC   D2A24244   1.139  18.235   8.331
 1610POPC   C3A24245   1.467  18.169   8.038
 1610POPC   C4A24246   1.722  18.403   7.786
 1610POPC   C1B24247   0.992  18.517   8.838
 1610POPC   C2B24248   0.887  18.673   8.379
 1610POPC   C3B24249   0.743  18.412   8.033
 1610POPC   C4B24250   0.993  18.176   7.758
 1611POPC   NC324251  13.193  44.913   9.431
 1611POPC   PO424252  12.580  44.669   9.530
 1611POPC   GL124253  12.777  44.693   9.165
 1611POPC   GL224254  13.041  44.461   9.189
 1611POPC   C1A24255  12.841  44.957   8.822
 1611POPC   D2A24256  12.917   0.153   8.431
 1611POPC   C3A24257  12.767  44.945   8.063
 1611POPC   C4A24258  12.835  44.973   7.624
 1611POPC   C1B24259  13.012  44.461   8.732
 1611POPC   C2B24260  12.776  44.456   8.335
 1611POPC   C3B24261  12.891  44.474   7.896
 1611POPC   C4B24262  12.884  44.451   7.431
 1612POPC   NC324263  13.398   6.069   9.453
 1612POPC   PO424264  13.936   5.687   9.455
 1612POPC   GL124265  13.736   5.800   9.132
 1612POPC   GL224266  13.800   6.123   9.136
 1612POPC   C1A24267  13.825   5.766   8.724
 1612POPC   D2A24268  13.772   6.017   8.382
 1612POPC   C3A24269  13.681   5.725   8.081
 1612POPC   C4A24270  13.463   5.640   7.720
 1612POPC   C1B24271  13.565   6.272   8.807
 1612POPC   C2B24272  13.407   6.380   8.405
 1612POPC   C3B24273  13.391   6.158   8.008
 1612POPC   C4B24274  13.570   6.317   7.617
 1613POPC   NC324275  28.708  40.717   9.337
 1613POPC   PO424276  28.152  41.012   9.714
 1613POPC   GL124277  28.196  40.846   9.232
 1613POPC   GL224278  28.475  40.946   8.968
 1613POPC   C1A24279  28.127  40.675   8.759
 1613POPC   D2A24280  28.340  40.823   8.389
 1613POPC   C3A24281  28.358  40.640   7.976
 1613POPC   C4A24282  28.234  40.861   7.594
 1613POPC   C1B24283  28.850  41.183   8.799
 1613POPC   C2B24284  29.034  41.126   8.409
 1613POPC   C3B24285  28.782  40.922   8.125
 1613POPC   C4B24286  28.744  40.859   7.703
 1614POPC   NC324287  31.205   6.869   9.514
 1614POPC   PO424288  30.484   6.773   9.498
 1614POPC   GL124289  30.654   6.506   9.167
 1614POPC   GL224290  30.956   6.690   9.098
 1614POPC   C1A24291  30.458   6.398   8.776
 1614POPC   D2A24292  30.414   6.644   8.403
 1614POPC   C3A24293  30.413   6.485   8.000
 1614POPC   C4A24294  30.656   6.548   7.671
 1614POPC   C1B24295  30.854   6.777   8.654
 1614POPC   C2B24296  30.847   6.773   8.165
 1614POPC   C3B24297  31.047   6.829   7.781
 1614POPC   C4B24298  31.108   6.528   7.422
 1615POPC   NC324299   8.908   7.813   9.451
 1615POPC   PO424300   9.394   7.404   9.559
 1615POPC   GL124301   9.136   7.453   9.146
 1615POPC   GL224302   8.810   7.273   9.098
 1615POPC   C1A24303   9.171   7.366   8.695
 1615POPC   D2A24304   9.368   7.482   8.291
 1615POPC   C3A24305   9.111   7.297   7.985
 1615POPC   C4A24306   9.074   7.399   7.549
 1615POPC   C1B24307   8.631   7.369   8.704
 1615POPC   C2B24308   8.722   7.167   8.287
 1615POPC   C3B24309   8.595   7.368   7.900
 1615POPC   C4B24310   8.577   7.482   7.447
 1616POPC   NC324311  35.864  30.704   9.300
 1616POPC   PO424312  36.389  30.321   9.417
 1616POPC   GL124313  36.320  30.649   9.080
 1616POPC   GL224314  36.135  30.403   8.973
 1616POPC   C1A24315  36.169  30.827   8.664
 1616POPC   D2A24316  36.171  31.175   8.349
 1616POPC   C3A24317  36.260  30.973   7.936
 1616POPC   C4A24318  36.408  30.548   7.817
 1616POPC   C1B24319  35.835  30.450   8.688
 1616POPC   C2B24320  35.880  30.351   8.276
 1616POPC   C3B24321  35.874  30.499   7.873
 1616POPC   C4B24322  36.014  30.404   7.471
 1617POPC   NC324323  38.305  19.586   9.548
 1617POPC   PO424324  38.775  20.080   9.483
 1617POPC   GL124325  38.864  19.703   9.183
 1617POPC   GL224326  38.515  19.663   9.073
 1617POPC   C1A24327  38.845  19.480   8.723
 1617POPC   D2A24328  38.592  19.352   8.313
 1617POPC   C3A24329  38.571  19.681   7.971
 1617POPC   C4A24330  38.578  20.146   7.955
 1617POPC   C1B24331  38.094  19.760   8.880
 1617POPC   C2B24332  37.921  19.983   8.518
 1617POPC   C3B24333  38.110  19.917   8.105
 1617POPC   C4B24334  37.945  19.736   7.730
 1618POPC   NC324335  29.346  39.029   9.445
 1618POPC   PO424336  29.372  38.270   9.445
 1618POPC   GL124337  29.163  38.538   9.158
 1618POPC   GL224338  29.389  38.766   9.041
 1618POPC   C1A24339  28.923  38.671   8.789
 1618POPC   D2A24340  29.115  38.603   8.357
 1618POPC   C3A24341  28.878  38.594   8.040
 1618POPC   C4A24342  29.062  38.555   7.655
 1618POPC   C1B24343  29.446  38.580   8.715
 1618POPC   C2B24344  29.523  38.243   8.474
 1618POPC   C3B24345  29.614  38.282   8.055
 1618POPC   C4B24346  29.443  38.220   7.669
 1619POPC   NC324347  41.255  35.973   9.378
 1619POPC   PO424348  41.675  36.563   9.426
 1619POPC   GL124349  41.571  36.302   9.082
 1619POPC   GL224350  41.638  35.930   9.047
 1619POPC   C1A24351  41.611  36.301   8.651
 1619POPC   D2A24352  41.897  36.217   8.318
 1619POPC   C3A24353  41.613  35.994   8.033
 1619POPC   C4A24354  41.210  36.185   7.852
 1619POPC   C1B24355  41.318  35.847   8.715
 1619POPC   C2B24356  41.073  35.807   8.340
 1619POPC   C3B24357  41.208  35.677   7.947
 1619POPC   C4B24358  41.292  35.789   7.537
 1620POPC   NC324359  19.442  41.478   9.567
 1620POPC   PO424360  18.719  41.647   9.743
 1620POPC   GL124361  18.774  41.460   9.339
 1620POPC   GL224362  19.038  41.698   9.219
 1620POPC   C1A24363  18.757  41.423   8.871
 1620POPC   D2A24364  19.111  41.355   8.580
 1620POPC   C3A24365  19.134  41.343   8.130
 1620POPC   C4A24366  19.497  41.254   7.846
 1620POPC   C1B24367  19.071  41.840   8.779
 1620POPC   C2B24368  18.968  41.811   8.360
 1620POPC   C3B24369  19.180  41.829   7.998
 1620POPC   C4B24370  19.054  41.599   7.646
 1621POPC   NC324371  38.786  40.142   9.621
 1621POPC   PO424372  39.408  39.970   9.590
 1621POPC   GL124373  39.165  40.000   9.229
 1621POPC   GL224374  39.071  40.365   9.198
 1621POPC   C1A24375  39.273  39.933   8.790
 1621POPC   D2A24376  39.456  39.826   8.417
 1621POPC   C3A24377  39.145  39.680   8.151
 1621POPC   C4A24378  39.184  39.863   7.754
 1621POPC   C1B24379  38.913  40.291   8.762
 1621POPC   C2B24380  39.031  40.155   8.349
 1621POPC   C3B24381  38.986  40.338   7.953
 1621POPC   C4B24382  38.566  40.363   7.725
 1622POPC   NC324383  23.246  22.743   9.479
 1622POPC   PO424384  22.603  22.820   9.612
 1622POPC   GL124385  22.767  22.752   9.212
 1622POPC   GL224386  23.013  22.976   9.090
 1622POPC   C1A24387  22.821  22.605   8.793
 1622POPC   D2A24388  22.622  22.648   8.385
 1622POPC   C3A24389  22.881  22.829   8.045
 1622POPC   C4A24390  22.789  22.936   7.621
 1622POPC   C1B24391  23.319  23.159   8.798
 1622POPC   C2B24392  23.415  23.277   8.402
 1622POPC   C3B24393  23.179  23.369   8.054
 1622POPC   C4B24394  23.222  23.146   7.698
 1623POPC   NC324395  35.772  39.037   9.543
 1623POPC   PO424396  35.103  39.250   9.606
 1623POPC   GL124397  35.383  39.266   9.274
 1623POPC   GL224398  35.466  39.611   9.212
 1623POPC   C1A24399  35.448  39.163   8.848
 1623POPC   D2A24400  35.355  38.993   8.432
 1623POPC   C3A24401  35.302  39.164   8.009
 1623POPC   C4A24402  35.250  39.024   7.603
 1623POPC   C1B24403  35.273  39.645   8.766
 1623POPC   C2B24404  35.237  39.547   8.335
 1623POPC   C3B24405  35.257  39.682   7.907
 1623POPC   C4B24406  35.331  39.547   7.467
 1624POPC   NC324407  44.978   5.106   9.456
 1624POPC   PO424408  44.527   5.568   9.788
 1624POPC   GL124409  44.511   5.317   9.310
 1624POPC   GL224410  44.776   5.381   9.069
 1624POPC   C1A24411  44.442   5.188   8.772
 1624POPC   D2A24412  44.584   5.249   8.284
 1624POPC   C3A24413  44.610   4.947   7.887
 1624POPC   C4A24414  44.774   4.887   7.435
 1624POPC   C1B24415  44.853   5.578   8.679
 1624POPC   C2B24416   0.050   5.491   8.285
 1624POPC   C3B24417  44.934   5.365   7.858
 1624POPC   C4B24418  44.592   5.364   7.514
 1625POPC   NC324419   6.976  44.967  10.008
 1625POPC   PO424420   6.689  44.467   9.678
 1625POPC   GL124421   6.656  44.477   9.228
 1625POPC   GL224422   6.899  44.339   9.061
 1625POPC   C1A24423   6.558  44.679   8.819
 1625POPC   D2A24424   6.682  44.870   8.401
 1625POPC   C3A24425   6.509  44.784   7.962
 1625POPC   C4A24426   6.574  44.737   7.516
 1625POPC   C1B24427   6.785  44.266   8.626
 1625POPC   C2B24428   6.662  44.369   8.213
 1625POPC   C3B24429   6.611  44.277   7.784
 1625POPC   C4B24430   6.902  44.355   7.433
 1626POPC   NC324431  31.702  32.528   9.513
 1626POPC   PO424432  31.723  33.171   9.606
 1626POPC   GL124433  31.633  33.245   9.198
 1626POPC   GL224434  31.494  32.936   9.120
 1626POPC   C1A24435  31.740  33.431   8.804
 1626POPC   D2A24436  31.502  33.371   8.423
 1626POPC   C3A24437  31.635  33.470   8.013
 1626POPC   C4A24438  31.501  33.153   7.779
 1626POPC   C1B24439  31.644  32.937   8.704
 1626POPC   C2B24440  31.679  32.621   8.397
 1626POPC   C3B24441  31.495  32.684   7.978
 1626POPC   C4B24442  31.178  32.760   7.676
 1627POPC   NC324443  25.611  21.841   9.289
 1627POPC   PO424444  25.045  22.172   9.496
 1627POPC   GL124445  25.232  22.116   9.091
 1627POPC   GL224446  25.102  21.781   9.090
 1627POPC   C1A24447  25.522  22.192   8.711
 1627POPC   D2A24448  25.645  22.308   8.269
 1627POPC   C3A24449  25.357  22.264   7.921
 1627POPC   C4A24450  25.069  22.026   7.642
 1627POPC   C1B24451  25.327  21.716   8.707
 1627POPC   C2B24452  25.326  21.884   8.308
 1627POPC   C3B24453  25.426  21.754   7.914
 1627POPC   C4B24454  25.619  21.990   7.555
 1628POPC   NC324455  11.630  31.045   9.408
 1628POPC   PO424456  11.260  30.505   9.397
 1628POPC   GL124457  11.061  30.657   9.009
 1628POPC   GL224458  10.997  31.011   9.001
 1628POPC   C1A24459  11.292  30.753   8.616
 1628POPC   D2A24460  11.621  30.666   8.270
 1628POPC   C3A24461  11.449  30.635   7.850
 1628POPC   C4A24462  11.018  30.637   7.779
 1628POPC   C1B24463  10.788  31.008   8.618
 1628POPC   C2B24464  10.980  30.879   8.245
 1628POPC   C3B24465  11.332  31.066   8.127
 1628POPC   C4B24466  11.414  31.145   7.714
 1629POPC   NC324467  27.560  16.528   9.602
 1629POPC   PO424468  27.950  16.938   9.425
 1629POPC   GL124469  27.747  16.677   9.118
 1629POPC   GL224470  27.369  16.653   9.144
 1629POPC   C1A24471  27.669  16.639   8.669
 1629POPC   D2A24472  27.409  16.524   8.315
 1629POPC   C3A24473  27.677  16.460   7.962
 1629POPC   C4A24474  27.945  16.426   7.600
 1629POPC   C1B24475  27.141  16.638   8.774
 1629POPC   C2B24476  26.981  16.888   8.505
 1629POPC   C3B24477  27.023  16.824   8.099
 1629POPC   C4B24478  27.379  16.837   7.877
 1630POPC   NC324479  28.713  21.765   9.567
 1630POPC   PO424480  28.150  22.235   9.519
 1630POPC   GL124481  28.210  22.421   9.128
 1630POPC   GL224482  28.558  22.401   9.164
 1630POPC   C1A24483  28.140  22.242   8.726
 1630POPC   D2A24484  27.965  22.412   8.368
 1630POPC   C3A24485  28.112  22.212   8.017
 1630POPC   C4A24486  28.358  22.231   7.665
 1630POPC   C1B24487  28.662  22.271   8.765
 1630POPC   C2B24488  28.552  22.318   8.341
 1630POPC   C3B24489  28.806  22.328   7.964
 1630POPC   C4B24490  28.829  22.075   7.607
 1631POPC   NC324491  42.220  21.722   9.712
 1631POPC   PO424492  42.611  21.231   9.630
 1631POPC   GL124493  42.369  21.333   9.261
 1631POPC   GL224494  42.331  21.024   9.061
 1631POPC   C1A24495  42.223  21.492   8.856
 1631POPC   D2A24496  42.083  21.451   8.415
 1631POPC   C3A24497  42.335  21.565   8.079
 1631POPC   C4A24498  42.282  21.480   7.678
 1631POPC   C1B24499  42.085  21.008   8.696
 1631POPC   C2B24500  42.072  20.917   8.267
 1631POPC   C3B24501  42.297  21.002   7.906
 1631POPC   C4B24502  42.453  21.039   7.480
 1632POPC   NC324503  41.613  19.453   9.346
 1632POPC   PO424504  41.389  20.069   9.412
 1632POPC   GL124505  41.538  19.943   9.086
 1632POPC   GL224506  41.251  19.689   9.038
 1632POPC   C1A24507  41.831  20.098   8.778
 1632POPC   D2A24508  41.842  19.906   8.394
 1632POPC   C3A24509  41.769  20.140   8.041
 1632POPC   C4A24510  41.681  19.922   7.719
 1632POPC   C1B24511  41.377  19.814   8.629
 1632POPC   C2B24512  41.322  19.718   8.228
 1632POPC   C3B24513  41.359  19.565   7.840
 1632POPC   C4B24514  41.223  19.859   7.522
 1633POPC   NC324515  10.482   8.539   9.560
 1633POPC   PO424516  10.675   8.035   9.780
 1633POPC   GL124517  10.623   8.102   9.313
 1633POPC   GL224518  10.868   7.875   9.189
 1633POPC   C1A24519  10.401   8.279   8.918
 1633POPC   D2A24520  10.569   8.277   8.477
 1633POPC   C3A24521  10.501   8.413   8.067
 1633POPC   C4A24522  10.446   8.282   7.666
 1633POPC   C1B24523  10.774   7.936   8.806
 1633POPC   C2B24524  10.948   7.921   8.422
 1633POPC   C3B24525  10.733   7.959   8.073
 1633POPC   C4B24526  10.778   7.897   7.676
 1634POPC   NC324527  33.868  18.030   9.610
 1634POPC   PO424528  33.837  18.606   9.467
 1634POPC   GL124529  33.891  18.269   9.169
 1634POPC   GL224530  33.561  18.236   9.059
 1634POPC   C1A24531  33.989  18.056   8.784
 1634POPC   D2A24532  33.926  18.219   8.350
 1634POPC   C3A24533  34.040  18.027   7.939
 1634POPC   C4A24534  33.906  18.299   7.645
 1634POPC   C1B24535  33.736  18.523   8.728
 1634POPC   C2B24536  33.554  18.633   8.298
 1634POPC   C3B24537  33.496  18.484   7.860
 1634POPC   C4B24538  33.435  18.461   7.378
 1635POPC   NC324539  35.492  21.956   9.727
 1635POPC   PO424540  35.424  21.223   9.646
 1635POPC   GL124541  35.344  21.379   9.197
 1635POPC   GL224542  35.259  21.732   9.157
 1635POPC   C1A24543  35.104  21.356   8.821
 1635POPC   D2A24544  35.043  21.185   8.434
 1635POPC   C3A24545  35.047  21.441   8.051
 1635POPC   C4A24546  35.460  21.467   7.831
 1635POPC   C1B24547  35.539  21.621   8.786
 1635POPC   C2B24548  35.366  21.608   8.412
 1635POPC   C3B24549  35.354  21.889   8.100
 1635POPC   C4B24550  35.548  21.935   7.700
 1636POPC   NC324551  41.204  24.024   9.346
 1636POPC   PO424552  40.523  23.936   9.384
 1636POPC   GL124553  40.615  23.772   9.007
 1636POPC   GL224554  40.962  23.656   9.045
 1636POPC   C1A24555  40.802  23.905   8.629
 1636POPC   D2A24556  40.873  23.668   8.280
 1636POPC   C3A24557  40.717  23.795   7.919
 1636POPC   C4A24558  40.547  24.033   7.618
 1636POPC   C1B24559  41.129  23.449   8.672
 1636POPC   C2B24560  41.306  23.403   8.236
 1636POPC   C3B24561  41.007  23.381   7.861
 1636POPC   C4B24562  40.810  23.523   7.460
 1637POPC   NC324563  23.725  40.577   9.591
 1637POPC   PO424564  23.982  41.169   9.700
 1637POPC   GL124565  23.876  40.937   9.266
 1637POPC   GL224566  23.582  40.765   9.148
 1637POPC   C1A24567  24.009  40.632   8.893
 1637POPC   D2A24568  24.019  40.704   8.439
 1637POPC   C3A24569  23.755  40.450   8.179
 1637POPC   C4A24570  23.627  40.429   7.748
 1637POPC   C1B24571  23.728  41.022   8.773
 1637POPC   C2B24572  23.506  40.840   8.429
 1637POPC   C3B24573  23.674  40.940   8.036
 1637POPC   C4B24574  23.737  41.109   7.620
 1638POPC   NC324575   5.216  14.855   9.426
 1638POPC   PO424576   4.883  15.352   9.770
 1638POPC   GL124577   4.882  15.168   9.279
 1638POPC   GL224578   4.608  15.176   9.052
 1638POPC   C1A24579   5.052  15.286   8.849
 1638POPC   D2A24580   4.967  15.443   8.439
 1638POPC   C3A24581   5.305  15.501   8.137
 1638POPC   C4A24582   5.162  15.434   7.747
 1638POPC   C1B24583   4.797  14.836   8.801
 1638POPC   C2B24584   5.058  14.918   8.440
 1638POPC   C3B24585   5.010  15.037   8.014
 1638POPC   C4B24586   5.150  14.948   7.580
 1639POPC   NC324587  25.351  21.015   9.538
 1639POPC   PO424588  25.183  20.373   9.592
 1639POPC   GL124589  25.058  20.431   9.170
 1639POPC   GL224590  25.067  20.774   9.183
 1639POPC   C1A24591  25.264  20.463   8.763
 1639POPC   D2A24592  25.343  20.623   8.344
 1639POPC   C3A24593  25.344  20.276   8.061
 1639POPC   C4A24594  25.561  20.386   7.693
 1639POPC   C1B24595  24.954  20.891   8.772
 1639POPC   C2B24596  25.053  21.051   8.375
 1639POPC   C3B24597  24.916  21.003   7.977
 1639POPC   C4B24598  25.146  20.691   7.848
 1640POPC   NC324599   4.162  40.263   9.549
 1640POPC   PO424600   4.582  39.847   9.310
 1640POPC   GL124601   4.197  40.033   9.103
 1640POPC   GL224602   4.334  40.380   9.097
 1640POPC   C1A24603   4.011  40.112   8.698
 1640POPC   D2A24604   4.175  39.956   8.304
 1640POPC   C3A24605   3.986  40.104   7.920
 1640POPC   C4A24606   4.046  40.521   7.727
 1640POPC   C1B24607   4.518  40.228   8.748
 1640POPC   C2B24608   4.417  40.430   8.435
 1640POPC   C3B24609   4.411  40.355   8.035
 1640POPC   C4B24610   4.469  39.968   7.846
 1641POPC   NC324611  26.642   7.569  10.055
 1641POPC   PO424612  27.051   7.333   9.470
 1641POPC   GL124613  27.126   7.434   9.039
 1641POPC   GL224614  27.019   7.124   8.907
 1641POPC   C1A24615  27.168   7.524   8.613
 1641POPC   D2A24616  26.950   7.271   8.356
 1641POPC   C3A24617  27.047   7.251   7.935
 1641POPC   C4A24618  26.937   7.574   7.618
 1641POPC   C1B24619  26.648   6.966   8.673
 1641POPC   C2B24620  26.480   7.111   8.284
 1641POPC   C3B24621  26.579   7.447   8.000
 1641POPC   C4B24622  26.430   7.430   7.598
 1642POPC   NC324623  15.317  18.220   9.567
 1642POPC   PO424624  15.959  18.269   9.676
 1642POPC   GL124625  15.929  18.363   9.239
 1642POPC   GL224626  15.597  18.483   9.205
 1642POPC   C1A24627  15.873  18.222   8.817
 1642POPC   D2A24628  15.837  18.017   8.397
 1642POPC   C3A24629  15.961  18.280   8.080
 1642POPC   C4A24630  15.904  18.209   7.672
 1642POPC   C1B24631  15.580  18.633   8.782
 1642POPC   C2B24632  15.538  18.485   8.334
 1642POPC   C3B24633  15.602  18.574   7.862
 1642POPC   C4B24634  15.511  18.417   7.411
 1643POPC   NC324635  24.651   1.909   9.535
 1643POPC   PO424636  24.046   1.729   9.308
 1643POPC   GL124637  24.378   1.857   9.040
 1643POPC   GL224638  24.628   2.089   9.077
 1643POPC   C1A24639  24.707   1.743   8.724
 1643POPC   D2A24640  24.730   1.950   8.324
 1643POPC   C3A24641  24.699   1.778   7.938
 1643POPC   C4A24642  24.293   1.901   7.884
 1643POPC   C1B24643  24.875   2.247   8.709
 1643POPC   C2B24644  24.775   2.449   8.310
 1643POPC   C3B24645  24.611   2.310   7.933
 1643POPC   C4B24646  24.643   2.136   7.557
 1644POPC   NC324647  28.152  27.559   9.517
 1644POPC   PO424648  28.699  28.101   9.404
 1644POPC   GL124649  28.563  27.766   9.082
 1644POPC   GL224650  28.227  27.658   9.038
 1644POPC   C1A24651  28.578  27.491   8.689
 1644POPC   D2A24652  28.241  27.324   8.403
 1644POPC   C3A24653  28.283  27.517   8.019
 1644POPC   C4A24654  28.657  27.755   7.877
 1644POPC   C1B24655  28.169  27.772   8.628
 1644POPC   C2B24656  28.365  27.985   8.288
 1644POPC   C3B24657  28.185  28.026   7.898
 1644POPC   C4B24658  27.907  27.715   7.721
 1645POPC   NC324659  28.858  38.246   9.447
 1645POPC   PO424660  28.941  37.552   9.463
 1645POPC   GL124661  29.008  37.852   9.141
 1645POPC   GL224662  29.346  37.967   9.012
 1645POPC   C1A24663  29.033  37.671   8.749
 1645POPC   D2A24664  29.257  37.809   8.430
 1645POPC   C3A24665  29.183  37.520   8.139
 1645POPC   C4A24666  29.179  37.567   7.727
 1645POPC   C1B24667  29.059  38.191   8.758
 1645POPC   C2B24668  28.844  38.180   8.375
 1645POPC   C3B24669  29.074  38.074   8.006
 1645POPC   C4B24670  28.968  38.016   7.574
 1646POPC   NC324671   9.178   8.587   9.395
 1646POPC   PO424672   8.682   8.172   9.645
 1646POPC   GL124673   8.675   8.142   9.164
 1646POPC   GL224674   8.722   8.482   9.125
 1646POPC   C1A24675   8.883   7.828   8.805
 1646POPC   D2A24676   8.875   7.639   8.357
 1646POPC   C3A24677   8.988   7.794   7.957
 1646POPC   C4A24678   9.099   8.188   7.808
 1646POPC   C1B24679   8.957   8.382   8.745
 1646POPC   C2B24680   8.995   8.134   8.376
 1646POPC   C3B24681   8.682   8.218   8.085
 1646POPC   C4B24682   8.765   8.584   7.816
 1647POPC   NC324683  26.674  31.823   9.390
 1647POPC   PO424684  26.783  32.422   9.700
 1647POPC   GL124685  26.905  32.422   9.279
 1647POPC   GL224686  27.081  32.086   9.266
 1647POPC   C1A24687  26.907  32.496   8.838
 1647POPC   D2A24688  26.988  32.252   8.454
 1647POPC   C3A24689  26.874  32.417   8.026
 1647POPC   C4A24690  26.565  32.172   7.805
 1647POPC   C1B24691  27.251  31.963   8.849
 1647POPC   C2B24692  27.107  31.726   8.450
 1647POPC   C3B24693  27.027  31.898   8.030
 1647POPC   C4B24694  27.277  32.187   7.786
 1648POPC   NC324695  29.500   8.563   9.841
 1648POPC   PO424696  30.027   8.775   9.392
 1648POPC   GL124697  29.909   8.881   9.026
 1648POPC   GL224698  29.576   9.048   9.105
 1648POPC   C1A24699  30.010   8.677   8.657
 1648POPC   D2A24700  30.147   8.819   8.274
 1648POPC   C3A24701  29.976   8.588   7.989
 1648POPC   C4A24702  29.847   8.774   7.640
 1648POPC   C1B24703  29.502   8.806   8.743
 1648POPC   C2B24704  29.633   8.820   8.348
 1648POPC   C3B24705  29.702   9.045   8.026
 1648POPC   C4B24706  29.784   9.308   7.671
 1649POPC   NC324707   8.875   9.529   9.340
 1649POPC   PO424708   9.126  10.113   9.510
 1649POPC   GL124709   9.098   9.975   9.124
 1649POPC   GL224710   8.737   9.993   9.081
 1649POPC   C1A24711   9.084   9.781   8.749
 1649POPC   D2A24712   8.898   9.634   8.411
 1649POPC   C3A24713   9.122   9.683   8.053
 1649POPC   C4A24714   8.970   9.911   7.707
 1649POPC   C1B24715   8.506   9.702   8.774
 1649POPC   C2B24716   8.415   9.454   8.391
 1649POPC   C3B24717   8.619   9.524   7.975
 1649POPC   C4B24718   8.544   9.623   7.506
 1650POPC   NC324719   3.955  13.931   9.639
 1650POPC   PO424720   4.557  13.645   9.483
 1650POPC   GL124721   4.365  13.719   9.124
 1650POPC   GL224722   4.574  14.033   9.064
 1650POPC   C1A24723   4.045  13.538   8.842
 1650POPC   D2A24724   4.065  13.138   8.547
 1650POPC   C3A24725   4.224  13.242   8.122
 1650POPC   C4A24726   4.192  13.405   7.693
 1650POPC   C1B24727   4.657  13.814   8.718
 1650POPC   C2B24728   4.396  13.598   8.427
 1650POPC   C3B24729   4.195  13.773   8.045
 1650POPC   C4B24730   4.361  13.886   7.629
 1651POPC   NC324731   9.844  22.611   9.480
 1651POPC   PO424732  10.027  23.258   9.442
 1651POPC   GL124733   9.918  22.977   9.129
 1651POPC   GL224734  10.179  22.988   8.889
 1651POPC   C1A24735   9.677  22.753   8.817
 1651POPC   D2A24736   9.475  22.906   8.463
 1651POPC   C3A24737   9.661  22.809   8.083
 1651POPC   C4A24738   9.448  22.847   7.718
 1651POPC   C1B24739   9.839  23.257   8.708
 1651POPC   C2B24740   9.637  23.409   8.344
 1651POPC   C3B24741   9.716  23.270   7.918
 1651POPC   C4B24742   9.963  22.963   7.665
 1652POPC   NC324743  31.629  23.187   9.321
 1652POPC   PO424744  31.193  23.651   9.542
 1652POPC   GL124745  31.428  23.655   9.152
 1652POPC   GL224746  31.795  23.687   9.228
 1652POPC   C1A24747  31.335  23.550   8.717
 1652POPC   D2A24748  31.289  23.404   8.294
 1652POPC   C3A24749  31.159  23.680   7.935
 1652POPC   C4A24750  31.122  23.564   7.489
 1652POPC   C1B24751  31.859  23.575   8.800
 1652POPC   C2B24752  32.011  23.664   8.391
 1652POPC   C3B24753  31.801  23.572   8.030
 1652POPC   C4B24754  31.633  23.702   7.664
 1653POPC   NC324755  25.179   0.639   9.543
 1653POPC   PO424756  25.323   0.020   9.377
 1653POPC   GL124757  25.273   0.333   9.115
 1653POPC   GL224758  25.504   0.601   9.153
 1653POPC   C1A24759  25.455   0.329   8.716
 1653POPC   D2A24760  25.315   0.154   8.354
 1653POPC   C3A24761  25.198   0.402   8.058
 1653POPC   C4A24762  25.356   0.324   7.672
 1653POPC   C1B24763  25.204   0.754   8.843
 1653POPC   C2B24764  25.227   0.772   8.416
 1653POPC   C3B24765  25.193   0.895   7.969
 1653POPC   C4B24766  25.404   0.843   7.556
 1654POPC   NC324767  32.451  30.283   9.444
 1654POPC   PO424768  32.847  30.876   9.507
 1654POPC   GL124769  32.912  30.881   9.086
 1654POPC   GL224770  33.268  30.998   9.198
 1654POPC   C1A24771  32.843  30.552   8.729
 1654POPC   D2A24772  32.786  30.331   8.304
 1654POPC   C3A24773  32.675  30.591   7.950
 1654POPC   C4A24774  32.799  30.581   7.505
 1654POPC   C1B24775  33.327  30.694   8.826
 1654POPC   C2B24776  33.235  30.613   8.370
 1654POPC   C3B24777  33.195  30.557   7.926
 1654POPC   C4B24778  33.209  30.871   7.605
 1655POPC   NC324779  43.029   9.869   9.973
 1655POPC   PO424780  43.148   9.580   9.376
 1655POPC   GL124781  42.950   9.491   9.033
 1655POPC   GL224782  42.653   9.651   9.063
 1655POPC   C1A24783  43.180   9.480   8.659
 1655POPC   D2A24784  43.236   9.845   8.405
 1655POPC   C3A24785  43.084   9.764   7.985
 1655POPC   C4A24786  42.965   9.352   7.773
 1655POPC   C1B24787  42.852   9.899   8.742
 1655POPC   C2B24788  42.718  10.138   8.384
 1655POPC   C3B24789  42.603   9.988   7.991
 1655POPC   C4B24790  42.787  10.149   7.645
 1656POPC   NC324791  25.905  23.339   9.523
 1656POPC   PO424792  26.372  23.852   9.372
 1656POPC   GL124793  26.067  23.707   9.083
 1656POPC   GL224794  26.216  23.399   9.099
 1656POPC   C1A24795  26.114  23.614   8.635
 1656POPC   D2A24796  26.097  23.827   8.254
 1656POPC   C3A24797  25.892  23.689   7.894
 1656POPC   C4A24798  26.054  23.849   7.538
 1656POPC   C1B24799  26.522  23.290   8.774
 1656POPC   C2B24800  26.483  23.163   8.353
 1656POPC   C3B24801  26.263  23.374   8.064
 1656POPC   C4B24802  26.244  23.381   7.627
 1657POPC   NC324803  43.435   6.246   9.774
 1657POPC   PO424804  43.971   5.914   9.590
 1657POPC   GL124805  43.890   5.744   9.208
 1657POPC   GL224806  43.742   5.458   9.292
 1657POPC   C1A24807  43.811   5.808   8.767
 1657POPC   D2A24808  43.520   5.825   8.442
 1657POPC   C3A24809  43.665   6.058   8.085
 1657POPC   C4A24810  43.982   6.000   7.730
 1657POPC   C1B24811  43.963   5.344   8.906
 1657POPC   C2B24812  44.100   5.439   8.483
 1657POPC   C3B24813  44.018   5.657   8.115
 1657POPC   C4B24814  43.741   5.545   7.776
 1658POPC   NC324815   7.146  35.152   9.443
 1658POPC   PO424816   7.337  35.846   9.583
 1658POPC   GL124817   7.449  35.593   9.212
 1658POPC   GL224818   7.579  35.254   9.184
 1658POPC   C1A24819   7.409  35.494   8.770
 1658POPC   D2A24820   7.239  35.439   8.369
 1658POPC   C3A24821   7.441  35.616   8.039
 1658POPC   C4A24822   7.514  35.433   7.707
 1658POPC   C1B24823   7.445  34.977   8.830
 1658POPC   C2B24824   7.617  34.869   8.441
 1658POPC   C3B24825   7.460  35.048   8.071
 1658POPC   C4B24826   7.724  34.965   7.753
 1659POPC   NC324827  25.103  28.139   9.224
 1659POPC   PO424828  25.655  28.481   9.464
 1659POPC   GL124829  25.439  28.489   9.083
 1659POPC   GL224830  25.594  28.191   9.047
 1659POPC   C1A24831  25.140  28.619   8.742
 1659POPC   D2A24832  24.905  28.586   8.320
 1659POPC   C3A24833  25.029  28.751   7.894
 1659POPC   C4A24834  25.054  28.532   7.488
 1659POPC   C1B24835  25.597  28.134   8.674
 1659POPC   C2B24836  25.335  28.279   8.392
 1659POPC   C3B24837  25.338  28.369   7.992
 1659POPC   C4B24838  25.545  28.457   7.619
 1660POPC   NC324839  17.283  34.676   9.566
 1660POPC   PO424840  17.853  34.902   9.575
 1660POPC   GL124841  17.617  34.765   9.200
 1660POPC   GL224842  17.614  35.052   9.075
 1660POPC   C1A24843  17.424  34.504   8.807
 1660POPC   D2A24844  17.319  34.618   8.326
 1660POPC   C3A24845  17.463  34.395   7.932
 1660POPC   C4A24846  17.664  34.251   7.508
 1660POPC   C1B24847  17.511  34.972   8.670
 1660POPC   C2B24848  17.765  34.992   8.300
 1660POPC   C3B24849  17.703  34.858   7.888
 1660POPC   C4B24850  17.262  34.896   7.874
 1661POPC   NC324851  20.894  21.351  10.053
 1661POPC   PO424852  20.691  21.651   9.497
 1661POPC   GL124853  20.749  21.376   9.174
 1661POPC   GL224854  20.873  21.594   9.017
 1661POPC   C1A24855  20.660  21.276   8.708
 1661POPC   D2A24856  20.840  21.138   8.294
 1661POPC   C3A24857  20.607  21.325   7.921
 1661POPC   C4A24858  20.316  21.166   7.586
 1661POPC   C1B24859  21.079  21.540   8.647
 1661POPC   C2B24860  20.846  21.677   8.324
 1661POPC   C3B24861  21.022  21.926   8.037
 1661POPC   C4B24862  21.010  21.763   7.616
 1662POPC   NC324863  36.009   8.606   9.381
 1662POPC   PO424864  36.307   9.220   9.572
 1662POPC   GL124865  36.298   9.015   9.162
 1662POPC   GL224866  35.971   8.982   9.069
 1662POPC   C1A24867  36.287   8.964   8.684
 1662POPC   D2A24868  36.190   8.717   8.323
 1662POPC   C3A24869  36.320   8.939   7.943
 1662POPC   C4A24870  36.359   9.060   7.502
 1662POPC   C1B24871  35.798   8.814   8.739
 1662POPC   C2B24872  35.830   9.050   8.372
 1662POPC   C3B24873  35.786   8.897   7.997
 1662POPC   C4B24874  35.890   9.067   7.646
 1663POPC   NC324875  21.225  21.040   9.547
 1663POPC   PO424876  21.212  20.459   9.415
 1663POPC   GL124877  21.264  20.723   9.095
 1663POPC   GL224878  20.997  20.937   9.124
 1663POPC   C1A24879  21.590  20.684   8.802
 1663POPC   D2A24880  21.744  20.478   8.442
 1663POPC   C3A24881  21.581  20.588   8.042
 1663POPC   C4A24882  21.488  20.539   7.619
 1663POPC   C1B24883  20.904  20.844   8.740
 1663POPC   C2B24884  21.147  20.680   8.447
 1663POPC   C3B24885  21.044  20.601   8.056
 1663POPC   C4B24886  21.051  20.790   7.681
 1664POPC   NC324887  43.540  28.218   9.629
 1664POPC   PO424888  42.972  28.598   9.429
 1664POPC   GL124889  43.122  28.445   9.063
 1664POPC   GL224890  43.292  28.165   9.186
 1664POPC   C1A24891  43.129  28.345   8.634
 1664POPC   D2A24892  43.302  28.279   8.238
 1664POPC   C3A24893  43.073  28.439   7.918
 1664POPC   C4A24894  42.880  28.564   7.542
 1664POPC   C1B24895  43.528  28.057   8.834
 1664POPC   C2B24896  43.756  27.981   8.463
 1664POPC   C3B24897  43.575  27.884   8.062
 1664POPC   C4B24898  43.321  28.041   7.731
 1665POPC   NC324899  43.940  39.571   9.484
 1665POPC   PO424900  43.571  39.004   9.507
 1665POPC   GL124901  43.785  39.207   9.161
 1665POPC   GL224902  44.115  39.102   9.199
 1665POPC   C1A24903  43.930  39.239   8.737
 1665POPC   D2A24904  44.204  39.223   8.396
 1665POPC   C3A24905  44.031  39.405   8.011
 1665POPC   C4A24906  43.721  39.262   7.692
 1665POPC   C1B24907  44.259  38.840   8.856
 1665POPC   C2B24908  44.480  38.778   8.457
 1665POPC   C3B24909  44.269  38.762   8.087
 1665POPC   C4B24910  44.168  38.979   7.728
 1666POPC   NC324911  24.278  21.210   9.446
 1666POPC   PO424912  24.915  21.163   9.533
 1666POPC   GL124913  24.683  21.140   9.157
 1666POPC   GL224914  24.634  21.468   9.127
 1666POPC   C1A24915  24.493  21.135   8.755
 1666POPC   D2A24916  24.552  20.964   8.360
 1666POPC   C3A24917  24.407  21.177   7.980
 1666POPC   C4A24918  24.591  21.224   7.616
 1666POPC   C1B24919  24.445  21.662   8.796
 1666POPC   C2B24920  24.438  21.539   8.386
 1666POPC   C3B24921  24.512  21.672   7.976
 1666POPC   C4B24922  24.283  21.628   7.632
 1667POPC   NC324923  34.006   7.095   9.479
 1667POPC   PO424924  33.940   7.798   9.434
 1667POPC   GL124925  33.800   7.479   9.191
 1667POPC   GL224926  33.532   7.261   9.252
 1667POPC   C1A24927  33.749   7.418   8.781
 1667POPC   D2A24928  33.555   7.638   8.474
 1667POPC   C3A24929  33.810   7.745   8.132
 1667POPC   C4A24930  34.050   7.613   7.755
 1667POPC   C1B24931  33.454   6.988   8.884
 1667POPC   C2B24932  33.552   7.082   8.456
 1667POPC   C3B24933  33.403   7.309   8.114
 1667POPC   C4B24934  33.275   7.064   7.797
 1668POPC   NC324935  36.161  14.637   9.465
 1668POPC   PO424936  35.998  13.967   9.526
 1668POPC   GL124937  35.856  14.176   9.133
 1668POPC   GL224938  35.683  14.517   9.183
 1668POPC   C1A24939  36.159  14.233   8.768
 1668POPC   D2A24940  36.359  13.927   8.493
 1668POPC   C3A24941  36.417  13.993   8.066
 1668POPC   C4A24942  36.210  14.289   7.838
 1668POPC   C1B24943  35.741  14.533   8.721
 1668POPC   C2B24944  36.060  14.517   8.343
 1668POPC   C3B24945  36.411  14.699   8.074
 1668POPC   C4B24946  36.259  14.782   7.687
 1669POPC   NC324947  18.625  40.935   9.372
 1669POPC   PO424948  19.241  41.124   9.331
 1669POPC   GL124949  19.183  40.832   9.036
 1669POPC   GL224950  19.290  40.498   9.067
 1669POPC   C1A24951  19.323  40.892   8.632
 1669POPC   D2A24952  19.096  40.788   8.243
 1669POPC   C3A24953  19.081  40.954   7.825
 1669POPC   C4A24954  19.030  41.109   7.422
 1669POPC   C1B24955  19.069  40.465   8.657
 1669POPC   C2B24956  18.982  40.291   8.226
 1669POPC   C3B24957  18.952  40.470   7.843
 1669POPC   C4B24958  19.065  40.568   7.430
 1670POPC   NC324959   4.420  31.567   9.636
 1670POPC   PO424960   3.909  31.730   9.454
 1670POPC   GL124961   4.289  31.676   9.144
 1670POPC   GL224962   4.461  31.358   9.154
 1670POPC   C1A24963   4.558  31.691   8.741
 1670POPC   D2A24964   4.490  31.797   8.275
 1670POPC   C3A24965   4.557  31.527   7.922
 1670POPC   C4A24966   4.515  31.232   7.562
 1670POPC   C1B24967   4.243  31.292   8.735
 1670POPC   C2B24968   4.228  31.316   8.257
 1670POPC   C3B24969   4.065  31.418   7.831
 1670POPC   C4B24970   4.009  31.274   7.405
 1671POPC   NC324971  42.759  35.726   9.569
 1671POPC   PO424972  43.203  36.249   9.650
 1671POPC   GL124973  43.053  36.128   9.215
 1671POPC   GL224974  43.301  35.944   9.073
 1671POPC   C1A24975  43.014  36.160   8.719
 1671POPC   D2A24976  42.999  35.935   8.275
 1671POPC   C3A24977  43.139  36.154   7.929
 1671POPC   C4A24978  43.044  36.549   7.828
 1671POPC   C1B24979  43.470  36.367   8.862
 1671POPC   C2B24980  43.676  36.513   8.453
 1671POPC   C3B24981  43.552  36.471   8.019
 1671POPC   C4B24982  43.491  36.441   7.593
 1672POPC   NC324983  28.892   5.302   9.625
 1672POPC   PO424984  28.996   4.682   9.418
 1672POPC   GL124985  29.199   4.932   9.119
 1672POPC   GL224986  28.952   5.164   9.136
 1672POPC   C1A24987  29.203   5.114   8.683
 1672POPC   D2A24988  29.001   5.020   8.307
 1672POPC   C3A24989  29.209   4.980   7.886
 1672POPC   C4A24990  29.371   4.805   7.473
 1672POPC   C1B24991  28.736   5.281   8.782
 1672POPC   C2B24992  28.713   5.462   8.381
 1672POPC   C3B24993  28.831   5.341   7.974
 1672POPC   C4B24994  28.674   5.430   7.626
 1673POPC   NC324995  36.600  33.061   9.688
 1673POPC   PO424996  35.986  33.111   9.597
 1673POPC   GL124997  36.139  32.882   9.232
 1673POPC   GL224998  35.866  32.912   9.023
 1673POPC   C1A24999  36.297  32.889   8.769
 1673POPC   D2A25000  36.077  32.916   8.355
 1673POPC   C3A25001  36.304  32.875   7.961
 1673POPC   C4A25002  36.154  32.907   7.510
 1673POPC   C1B25003  35.628  32.857   8.662
 1673POPC   C2B25004  35.523  32.825   8.233
 1673POPC   C3B25005  35.781  32.846   7.856
 1673POPC   C4B25006  35.744  32.613   7.426
 1674POPC   NC325007  15.417  21.626   9.624
 1674POPC   PO425008  14.739  21.283   9.364
 1674POPC   GL125009  14.947  21.493   8.990
 1674POPC   GL225010  15.294  21.515   9.007
 1674POPC   C1A25011  15.124  21.565   8.547
 1674POPC   D2A25012  15.215  21.233   8.244
 1674POPC   C3A25013  15.362  21.380   7.855
 1674POPC   C4A25014  15.183  21.588   7.494
 1674POPC   C1B25015  15.479  21.209   8.706
 1674POPC   C2B25016  15.714  21.061   8.312
 1674POPC   C3B25017  15.662  20.965   7.831
 1674POPC   C4B25018  15.603  21.235   7.415
 1675POPC   NC325019   6.065  20.454   9.406
 1675POPC   PO425020   5.547  20.560   9.761
 1675POPC   GL125021   5.677  20.730   9.209
 1675POPC   GL225022   6.003  20.843   9.072
 1675POPC   C1A25023   5.757  20.580   8.728
 1675POPC   D2A25024   5.521  20.566   8.342
 1675POPC   C3A25025   5.598  20.342   7.981
 1675POPC   C4A25026   5.826  20.588   7.762
 1675POPC   C1B25027   6.173  20.872   8.707
 1675POPC   C2B25028   6.126  20.668   8.348
 1675POPC   C3B25029   6.091  20.919   8.028
 1675POPC   C4B25030   6.241  20.889   7.639
 1676POPC   NC325031  20.258  36.112   9.377
 1676POPC   PO425032  19.659  36.298   9.431
 1676POPC   GL125033  19.646  35.949   9.095
 1676POPC   GL225034  19.996  35.797   9.022
 1676POPC   C1A25035  19.536  35.987   8.638
 1676POPC   D2A25036  19.771  36.172   8.274
 1676POPC   C3A25037  19.674  36.110   7.835
 1676POPC   C4A25038  19.321  36.201   7.552
 1676POPC   C1B25039  20.083  36.176   8.749
 1676POPC   C2B25040  20.307  36.260   8.371
 1676POPC   C3B25041  20.206  36.124   7.978
 1676POPC   C4B25042  20.097  35.832   7.696
 1677POPC   NC325043  27.309   6.143   9.573
 1677POPC   PO425044  27.678   6.751   9.622
 1677POPC   GL125045  27.731   6.614   9.215
 1677POPC   GL225046  27.380   6.506   9.218
 1677POPC   C1A25047  27.947   6.719   8.828
 1677POPC   D2A25048  27.897   6.942   8.442
 1677POPC   C3A25049  27.946   6.702   8.072
 1677POPC   C4A25050  28.098   6.911   7.719
 1677POPC   C1B25051  27.444   6.655   8.822
 1677POPC   C2B25052  27.569   6.551   8.427
 1677POPC   C3B25053  27.433   6.646   8.039
 1677POPC   C4B25054  27.183   6.733   7.697
 1678POPC   NC325055  26.230  41.770   9.482
 1678POPC   PO425056  26.551  41.176   9.607
 1678POPC   GL125057  26.252  41.337   9.167
 1678POPC   GL225058  26.214  41.697   9.002
 1678POPC   C1A25059  25.891  41.397   8.778
 1678POPC   D2A25060  26.089  41.320   8.363
 1678POPC   C3A25061  25.943  41.503   7.965
 1678POPC   C4A25062  25.589  41.415   7.776
 1678POPC   C1B25063  26.371  41.687   8.622
 1678POPC   C2B25064  26.309  41.769   8.202
 1678POPC   C3B25065  26.446  41.583   7.838
 1678POPC   C4B25066  26.273  41.492   7.427
 1679POPC   NC325067  35.504  25.346   9.532
 1679POPC   PO425068  35.066  24.899   9.489
 1679POPC   GL125069  35.224  25.135   9.138
 1679POPC   GL225070  35.346  25.522   9.089
 1679POPC   C1A25071  35.152  25.279   8.713
 1679POPC   D2A25072  35.423  25.493   8.440
 1679POPC   C3A25073  35.262  25.315   8.096
 1679POPC   C4A25074  35.389  25.269   7.695
 1679POPC   C1B25075  35.630  25.187   8.848
 1679POPC   C2B25076  35.495  24.945   8.463
 1679POPC   C3B25077  35.650  24.970   8.031
 1679POPC   C4B25078  35.838  25.063   7.624
 1680POPC   NC325079  44.312  38.815   9.590
 1680POPC   PO425080  44.990  38.636   9.496
 1680POPC   GL125081  44.654  38.538   9.219
 1680POPC   GL225082  44.842  38.236   9.134
 1680POPC   C1A25083  44.510  38.385   8.807
 1680POPC   D2A25084  44.692  38.262   8.422
 1680POPC   C3A25085  44.438  38.247   8.047
 1680POPC   C4A25086  44.456  38.504   7.691
 1680POPC   C1B25087   0.016  38.520   8.819
 1680POPC   C2B25088  44.988  38.714   8.407
 1680POPC   C3B25089  44.891  38.526   8.003
 1680POPC   C4B25090  44.947  38.560   7.552
 1681POPC   NC325091  19.129  25.153   9.315
 1681POPC   PO425092  18.599  25.537   9.384
 1681POPC   GL125093  18.837  25.398   8.997
 1681POPC   GL225094  19.250  25.490   8.978
 1681POPC   C1A25095  19.048  25.170   8.679
 1681POPC   D2A25096  19.269  25.114   8.339
 1681POPC   C3A25097  19.097  25.009   7.953
 1681POPC   C4A25098  19.077  25.237   7.572
 1681POPC   C1B25099  19.302  25.583   8.566
 1681POPC   C2B25100  19.069  25.675   8.263
 1681POPC   C3B25101  19.255  25.509   7.968
 1681POPC   C4B25102  19.350  25.673   7.618
 1682POPC   NC325103  42.911   4.146   9.416
 1682POPC   PO425104  43.199   4.795   9.392
 1682POPC   GL125105  43.025   4.617   9.028
 1682POPC   GL225106  43.233   4.329   9.053
 1682POPC   C1A25107  42.963   4.463   8.598
 1682POPC   D2A25108  42.889   4.128   8.290
 1682POPC   C3A25109  42.937   4.390   7.936
 1682POPC   C4A25110  43.301   4.642   7.801
 1682POPC   C1B25111  43.405   4.224   8.665
 1682POPC   C2B25112  43.367   4.324   8.254
 1682POPC   C3B25113  43.331   4.029   7.947
 1682POPC   C4B25114  43.619   3.893   7.669
 1683POPC   NC325115  21.011  29.901   9.439
 1683POPC   PO425116  21.569  29.542   9.337
 1683POPC   GL125117  21.314  29.756   9.061
 1683POPC   GL225118  21.045  29.982   8.937
 1683POPC   C1A25119  21.380  29.686   8.642
 1683POPC   D2A25120  21.654  29.756   8.323
 1683POPC   C3A25121  21.470  29.590   7.986
 1683POPC   C4A25122  21.608  29.596   7.593
 1683POPC   C1B25123  21.459  30.163   8.791
 1683POPC   C2B25124  21.290  30.129   8.394
 1683POPC   C3B25125  21.119  29.991   8.037
 1683POPC   C4B25126  21.429  30.072   7.759
 1684POPC   NC325127  20.426  28.658   9.453
 1684POPC   PO425128  20.757  28.021   9.381
 1684POPC   GL125129  20.731  28.376   9.131
 1684POPC   GL225130  20.383  28.423   8.998
 1684POPC   C1A25131  20.791  28.594   8.722
 1684POPC   D2A25132  20.538  28.546   8.362
 1684POPC   C3A25133  20.789  28.538   8.006
 1684POPC   C4A25134  21.113  28.599   7.697
 1684POPC   C1B25135  20.606  28.119   8.714
 1684POPC   C2B25136  20.589  28.018   8.312
 1684POPC   C3B25137  20.399  28.208   7.983
 1684POPC   C4B25138  20.633  28.265   7.612
 1685POPC   NC325139  16.211  24.192   9.246
 1685POPC   PO425140  15.664  24.249   9.645
 1685POPC   GL125141  15.757  24.437   9.221
 1685POPC   GL225142  16.037  24.662   9.091
 1685POPC   C1A25143  15.708  24.308   8.782
 1685POPC   D2A25144  15.670  24.502   8.381
 1685POPC   C3A25145  15.467  24.323   8.047
 1685POPC   C4A25146  15.603  24.246   7.630
 1685POPC   C1B25147  16.286  24.567   8.726
 1685POPC   C2B25148  16.483  24.334   8.422
 1685POPC   C3B25149  16.159  24.326   8.141
 1685POPC   C4B25150  16.000  24.567   7.827
 1686POPC   NC325151  37.199  23.275   9.212
 1686POPC   PO425152  36.983  23.828   9.477
 1686POPC   GL125153  36.813  23.617   9.115
 1686POPC   GL225154  36.579  23.353   9.153
 1686POPC   C1A25155  36.594  23.652   8.719
 1686POPC   D2A25156  36.707  23.855   8.323
 1686POPC   C3A25157  36.580  23.835   7.905
 1686POPC   C4A25158  36.951  23.813   7.582
 1686POPC   C1B25159  36.783  23.183   8.743
 1686POPC   C2B25160  36.763  23.338   8.337
 1686POPC   C3B25161  36.966  23.489   7.984
 1686POPC   C4B25162  36.916  23.320   7.530
 1687POPC   NC325163  23.038  42.807   9.527
 1687POPC   PO425164  22.542  43.250   9.581
 1687POPC   GL125165  22.839  43.205   9.206
 1687POPC   GL225166  22.869  42.895   9.068
 1687POPC   C1A25167  22.912  43.340   8.770
 1687POPC   D2A25168  23.229  43.378   8.450
 1687POPC   C3A25169  23.103  43.350   7.997
 1687POPC   C4A25170  23.288  42.958   7.791
 1687POPC   C1B25171  22.630  42.909   8.715
 1687POPC   C2B25172  22.787  43.101   8.316
 1687POPC   C3B25173  22.745  43.009   7.850
 1687POPC   C4B25174  22.884  42.651   7.594
 1688POPC   NC325175  12.960  36.430   9.444
 1688POPC   PO425176  13.258  35.871   9.403
 1688POPC   GL125177  12.914  36.014   9.184
 1688POPC   GL225178  12.674  35.801   9.104
 1688POPC   C1A25179  12.664  36.265   8.883
 1688POPC   D2A25180  12.591  36.363   8.448
 1688POPC   C3A25181  12.913  36.233   8.188
 1688POPC   C4A25182  13.116  36.427   7.864
 1688POPC   C1B25183  12.986  35.777   8.764
 1688POPC   C2B25184  13.286  35.846   8.483
 1688POPC   C3B25185  13.117  35.748   8.090
 1688POPC   C4B25186  12.872  35.928   7.775
 1689POPC   NC325187   5.887  42.712   9.675
 1689POPC   PO425188   6.219  43.321   9.769
 1689POPC   GL125189   6.136  43.238   9.275
 1689POPC   GL225190   5.944  42.983   9.230
 1689POPC   C1A25191   5.967  43.312   8.826
 1689POPC   D2A25192   5.759  43.413   8.425
 1689POPC   C3A25193   5.858  43.261   8.040
 1689POPC   C4A25194   5.705  43.117   7.663
 1689POPC   C1B25195   6.193  42.864   8.828
 1689POPC   C2B25196   6.172  43.055   8.405
 1689POPC   C3B25197   6.144  42.834   7.984
 1689POPC   C4B25198   6.265  42.581   7.615
 1690POPC   NC325199  30.383  28.483   9.368
 1690POPC   PO425200  30.814  28.110   9.816
 1690POPC   GL125201  30.869  28.369   9.333
 1690POPC   GL225202  31.073  28.235   9.092
 1690POPC   C1A25203  30.709  28.588   8.851
 1690POPC   D2A25204  30.312  28.829   8.628
 1690POPC   C3A25205  30.130  28.608   8.229
 1690POPC   C4A25206  30.355  28.437   7.848
 1690POPC   C1B25207  31.197  28.565   8.777
 1690POPC   C2B25208  30.953  28.675   8.372
 1690POPC   C3B25209  30.938  28.416   7.948
 1690POPC   C4B25210  30.977  27.958   7.792
 1691POPC   NC325211   3.215  43.284   9.598
 1691POPC   PO425212   3.726  42.822   9.841
 1691POPC   GL125213   3.675  42.897   9.335
 1691POPC   GL225214   3.324  42.922   9.186
 1691POPC   C1A25215   3.792  42.817   8.869
 1691POPC   D2A25216   3.650  42.726   8.432
 1691POPC   C3A25217   3.701  42.975   8.043
 1691POPC   C4A25218   3.624  43.396   7.874
 1691POPC   C1B25219   3.384  43.078   8.746
 1691POPC   C2B25220   3.354  43.272   8.358
 1691POPC   C3B25221   3.165  43.249   7.966
 1691POPC   C4B25222   3.303  43.008   7.697
 1692POPC   NC325223  24.881  21.622   9.538
 1692POPC   PO425224  25.613  21.399   9.479
 1692POPC   GL125225  25.475  21.383   9.088
 1692POPC   GL225226  25.158  21.282   9.106
 1692POPC   C1A25227  25.430  21.206   8.697
 1692POPC   D2A25228  25.466  21.378   8.312
 1692POPC   C3A25229  25.476  21.056   8.030
 1692POPC   C4A25230  25.580  21.244   7.668
 1692POPC   C1B25231  24.925  21.410   8.720
 1692POPC   C2B25232  24.941  21.537   8.273
 1692POPC   C3B25233  24.984  21.494   7.827
 1692POPC   C4B25234  25.070  21.181   7.486
 1693POPC   NC325235  38.791  22.239   9.502
 1693POPC   PO425236  38.146  22.475   9.283
 1693POPC   GL125237  38.418  22.183   9.061
 1693POPC   GL225238  38.721  22.329   9.010
 1693POPC   C1A25239  38.446  21.973   8.668
 1693POPC   D2A25240  38.402  22.160   8.250
 1693POPC   C3A25241  38.439  21.916   7.824
 1693POPC   C4A25242  38.216  22.011   7.414
 1693POPC   C1B25243  38.721  22.401   8.593
 1693POPC   C2B25244  38.691  22.630   8.226
 1693POPC   C3B25245  38.436  22.535   7.922
 1693POPC   C4B25246  38.524  22.351   7.600
 1694POPC   NC325247  31.540  31.613   9.867
 1694POPC   PO425248  31.133  31.343   9.400
 1694POPC   GL125249  31.540  31.424   9.175
 1694POPC   GL225250  31.720  31.757   9.288
 1694POPC   C1A25251  31.644  31.229   8.770
 1694POPC   D2A25252  31.444  31.152   8.367
 1694POPC   C3A25253  31.628  31.240   7.954
 1694POPC   C4A25254  31.413  31.478   7.560
 1694POPC   C1B25255  31.769  31.719   8.817
 1694POPC   C2B25256  31.524  31.713   8.401
 1694POPC   C3B25257  31.582  31.747   7.957
 1694POPC   C4B25258  31.901  31.900   7.674
 1695POPC   NC325259  28.053  26.672   9.659
 1695POPC   PO425260  28.504  27.235   9.605
 1695POPC   GL125261  28.463  26.990   9.240
 1695POPC   GL225262  28.311  26.654   9.200
 1695POPC   C1A25263  28.357  27.024   8.823
 1695POPC   D2A25264  28.253  26.823   8.448
 1695POPC   C3A25265  28.415  26.962   8.074
 1695POPC   C4A25266  28.240  27.110   7.698
 1695POPC   C1B25267  28.274  26.454   8.791
 1695POPC   C2B25268  28.197  26.291   8.402
 1695POPC   C3B25269  28.117  26.494   8.044
 1695POPC   C4B25270  28.376  26.592   7.727
 1696POPC   NC325271  10.169   4.976   9.388
 1696POPC   PO425272  10.664   5.372   9.579
 1696POPC   GL125273  10.540   5.266   9.130
 1696POPC   GL225274  10.699   4.967   9.237
 1696POPC   C1A25275  10.357   5.224   8.665
 1696POPC   D2A25276  10.420   5.363   8.192
 1696POPC   C3A25277  10.278   5.298   7.736
 1696POPC   C4A25278  10.085   5.443   7.311
 1696POPC   C1B25279  10.871   4.977   8.811
 1696POPC   C2B25280  10.748   5.033   8.384
 1696POPC   C3B25281  10.951   5.107   7.981
 1696POPC   C4B25282  10.833   5.238   7.540
 1697POPC   NC325283  23.533  28.506   9.486
 1697POPC   PO425284  24.118  28.251   9.422
 1697POPC   GL125285  23.808  28.240   9.131
 1697POPC   GL225286  23.551  28.053   9.233
 1697POPC   C1A25287  23.780  28.378   8.736
 1697POPC   D2A25288  23.924  28.318   8.342
 1697POPC   C3A25289  23.676  28.377   7.986
 1697POPC   C4A25290  23.940  28.278   7.647
 1697POPC   C1B25291  23.437  28.010   8.793
 1697POPC   C2B25292  23.359  28.239   8.419
 1697POPC   C3B25293  23.270  28.074   8.021
 1697POPC   C4B25294  23.499  28.009   7.626
 1698POPC   NC325295  41.582   9.354   9.476
 1698POPC   PO425296  41.958   8.791   9.435
 1698POPC   GL125297  41.725   8.995   9.086
 1698POPC   GL225298  41.355   9.099   9.096
 1698POPC   C1A25299  41.698   9.352   8.787
 1698POPC   D2A25300  41.502   9.385   8.392
 1698POPC   C3A25301  41.592   9.098   8.045
 1698POPC   C4A25302  41.878   9.195   7.688
 1698POPC   C1B25303  41.404   8.929   8.648
 1698POPC   C2B25304  41.472   8.626   8.262
 1698POPC   C3B25305  41.240   8.623   7.858
 1698POPC   C4B25306  41.433   8.943   7.570
 1699POPC   NC325307  23.102  41.863   9.674
 1699POPC   PO425308  22.755  42.400   9.552
 1699POPC   GL125309  22.698  42.415   9.130
 1699POPC   GL225310  22.490  42.108   9.118
 1699POPC   C1A25311  22.969  42.503   8.744
 1699POPC   D2A25312  23.099  42.214   8.390
 1699POPC   C3A25313  22.942  42.246   7.936
 1699POPC   C4A25314  23.029  42.187   7.432
 1699POPC   C1B25315  22.827  42.026   8.820
 1699POPC   C2B25316  22.630  41.958   8.422
 1699POPC   C3B25317  22.633  41.856   8.011
 1699POPC   C4B25318  22.556  42.118   7.632
 1700POPC   NC325319  16.583   0.440   9.389
 1700POPC   PO425320  17.151   0.661   9.258
 1700POPC   GL125321  16.943   0.447   9.025
 1700POPC   GL225322  16.952   0.122   9.159
 1700POPC   C1A25323  16.746   0.562   8.664
 1700POPC   D2A25324  16.398   0.711   8.426
 1700POPC   C3A25325  16.492   0.687   8.011
 1700POPC   C4A25326  16.859   0.588   7.749
 1700POPC   C1B25327  16.728   0.061   8.770
 1700POPC   C2B25328  16.714   0.201   8.310
 1700POPC   C3B25329  16.552   0.194   7.885
 1700POPC   C4B25330  16.555   0.298   7.443
 1701POPC   NC325331  26.422   8.272   9.378
 1701POPC   PO425332  25.775   8.438   9.392
 1701POPC   GL125333  25.995   8.348   9.070
 1701POPC   GL225334  26.115   8.017   9.052
 1701POPC   C1A25335  25.945   8.365   8.660
 1701POPC   D2A25336  26.199   8.390   8.313
 1701POPC   C3A25337  25.952   8.224   8.020
 1701POPC   C4A25338  25.730   8.421   7.730
 1701POPC   C1B25339  26.418   8.110   8.708
 1701POPC   C2B25340  26.532   7.942   8.278
 1701POPC   C3B25341  26.325   7.891   7.869
 1701POPC   C4B25342  26.203   8.191   7.575
 1702POPC   NC325343  20.493  27.663   9.524
 1702POPC   PO425344  20.967  27.215   9.505
 1702POPC   GL125345  20.700  27.464   9.121
 1702POPC   GL225346  20.402  27.761   9.053
 1702POPC   C1A25347  20.746  27.626   8.710
 1702POPC   D2A25348  21.044  27.775   8.474
 1702POPC   C3A25349  20.886  27.679   8.083
 1702POPC   C4A25350  20.795  27.790   7.665
 1702POPC   C1B25351  20.240  27.530   8.703
 1702POPC   C2B25352  20.405  27.529   8.282
 1702POPC   C3B25353  20.332  27.719   7.876
 1702POPC   C4B25354  20.340  27.697   7.400
 1703POPC   NC325355  19.219   1.551   9.514
 1703POPC   PO425356  18.878   1.038   9.346
 1703POPC   GL125357  19.051   1.313   9.077
 1703POPC   GL225358  18.921   1.679   9.143
 1703POPC   C1A25359  19.188   1.181   8.695
 1703POPC   D2A25360  19.441   1.257   8.341
 1703POPC   C3A25361  19.151   1.203   7.990
 1703POPC   C4A25362  19.107   0.858   7.721
 1703POPC   C1B25363  18.766   1.651   8.763
 1703POPC   C2B25364  18.955   1.508   8.402
 1703POPC   C3B25365  18.922   1.685   8.044
 1703POPC   C4B25366  18.807   1.615   7.668
 1704POPC   NC325367   7.691  20.027   9.719
 1704POPC   PO425368   8.255  20.105   9.364
 1704POPC   GL125369   8.212  19.738   9.101
 1704POPC   GL225370   7.972  19.497   9.238
 1704POPC   C1A25371   8.319  19.693   8.654
 1704POPC   D2A25372   8.277  20.062   8.345
 1704POPC   C3A25373   8.291  19.909   7.947
 1704POPC   C4A25374   8.601  19.603   7.885
 1704POPC   C1B25375   7.917  19.388   8.802
 1704POPC   C2B25376   7.910  19.450   8.354
 1704POPC   C3B25377   8.026  19.281   7.956
 1704POPC   C4B25378   8.123  19.536   7.604
 1705POPC   NC325379  13.099  41.749   9.475
 1705POPC   PO425380  13.525  41.287   9.703
 1705POPC   GL125381  13.526  41.577   9.282
 1705POPC   GL225382  13.800  41.787   9.159
 1705POPC   C1A25383  13.349  41.674   8.851
 1705POPC   D2A25384  13.344  41.768   8.391
 1705POPC   C3A25385  13.603  41.505   8.091
 1705POPC   C4A25386  13.499  41.315   7.689
 1705POPC   C1B25387  13.751  41.994   8.716
 1705POPC   C2B25388  13.768  42.003   8.239
 1705POPC   C3B25389  13.649  41.970   7.811
 1705POPC   C4B25390  13.872  41.991   7.381
 1706POPC   NC325391  43.461  35.242   9.371
 1706POPC   PO425392  44.066  35.086   9.461
 1706POPC   GL125393  43.957  35.379   9.138
 1706POPC   GL225394  43.710  35.646   9.207
 1706POPC   C1A25395  43.984  35.379   8.683
 1706POPC   D2A25396  43.831  35.178   8.304
 1706POPC   C3A25397  44.031  35.318   7.906
 1706POPC   C4A25398  44.141  35.292   7.416
 1706POPC   C1B25399  43.496  35.470   8.800
 1706POPC   C2B25400  43.576  35.599   8.391
 1706POPC   C3B25401  43.528  35.471   7.985
 1706POPC   C4B25402  43.705  35.494   7.585
 1707POPC   NC325403  10.060  30.938   9.524
 1707POPC   PO425404   9.367  30.874   9.564
 1707POPC   GL125405   9.647  30.683   9.264
 1707POPC   GL225406   9.893  30.435   9.343
 1707POPC   C1A25407   9.759  30.743   8.853
 1707POPC   D2A25408   9.742  30.915   8.455
 1707POPC   C3A25409   9.766  30.703   8.109
 1707POPC   C4A25410   9.896  30.821   7.706
 1707POPC   C1B25411  10.173  30.454   8.948
 1707POPC   C2B25412  10.094  30.451   8.471
 1707POPC   C3B25413  10.212  30.487   7.989
 1707POPC   C4B25414  10.229  30.478   7.495
 1708POPC   NC325415  32.781   6.125   9.740
 1708POPC   PO425416  33.336   5.904   9.873
 1708POPC   GL125417  33.088   5.928   9.378
 1708POPC   GL225418  32.695   5.933   9.285
 1708POPC   C1A25419  32.994   6.050   8.874
 1708POPC   D2A25420  33.040   6.225   8.396
 1708POPC   C3A25421  33.094   6.091   7.924
 1708POPC   C4A25422  33.186   6.118   7.434
 1708POPC   C1B25423  32.541   6.289   9.008
 1708POPC   C2B25424  32.554   6.245   8.548
 1708POPC   C3B25425  32.651   6.365   8.090
 1708POPC   C4B25426  32.683   6.212   7.645
 1709POPC   NC325427  40.387   1.387   9.438
 1709POPC   PO425428  39.765   1.571   9.246
 1709POPC   GL125429  39.877   1.173   9.049
 1709POPC   GL225430  40.239   1.125   8.997
 1709POPC   C1A25431  39.801   1.055   8.618
 1709POPC   D2A25432  39.595   1.390   8.334
 1709POPC   C3A25433  39.751   1.339   7.903
 1709POPC   C4A25434  39.996   0.932   7.875
 1709POPC   C1B25435  40.132   1.433   8.702
 1709POPC   C2B25436  40.122   1.300   8.279
 1709POPC   C3B25437  40.262   1.374   7.883
 1709POPC   C4B25438  40.225   1.195   7.504
 1710POPC   NC325439  19.140  43.952   9.904
 1710POPC   PO425440  18.787  43.606   9.534
 1710POPC   GL125441  19.007  43.813   9.206
 1710POPC   GL225442  19.336  43.669   9.180
 1710POPC   C1A25443  18.932  44.051   8.827
 1710POPC   D2A25444  18.694  44.032   8.435
 1710POPC   C3A25445  18.913  44.133   8.071
 1710POPC   C4A25446  18.988  43.983   7.681
 1710POPC   C1B25447  19.144  43.593   8.766
 1710POPC   C2B25448  19.296  43.519   8.365
 1710POPC   C3B25449  19.157  43.588   7.966
 1710POPC   C4B25450  19.252  43.503   7.565
 1711POPC   NC325451  40.365  43.706   9.314
 1711POPC   PO425452  40.028  44.200   9.631
 1711POPC   GL125453  39.980  44.023   9.214
 1711POPC   GL225454  39.841  43.657   9.182
 1711POPC   C1A25455  40.001  44.012   8.764
 1711POPC   D2A25456  40.125  43.700   8.419
 1711POPC   C3A25457  40.190  43.864   7.983
 1711POPC   C4A25458  40.108  43.817   7.525
 1711POPC   C1B25459  39.688  43.623   8.739
 1711POPC   C2B25460  39.620  43.775   8.299
 1711POPC   C3B25461  39.758  43.545   7.909
 1711POPC   C4B25462  39.768  43.438   7.452
 1712POPC   NC325463  44.921  25.447   9.613
 1712POPC   PO425464   0.507  25.101   9.560
 1712POPC   GL125465   0.393  25.326   9.189
 1712POPC   GL225466   0.124  25.531   9.148
 1712POPC   C1A25467   0.265  25.172   8.780
 1712POPC   D2A25468   0.498  25.206   8.403
 1712POPC   C3A25469   0.411  25.070   7.984
 1712POPC   C4A25470   0.561  25.347   7.682
 1712POPC   C1B25471   0.303  25.677   8.791
 1712POPC   C2B25472   0.147  25.653   8.425
 1712POPC   C3B25473   0.271  25.548   8.056
 1712POPC   C4B25474   0.101  25.595   7.669
 1713POPC   NC325475  40.957  32.326   9.545
 1713POPC   PO425476  40.478  31.859   9.519
 1713POPC   GL125477  40.716  31.899   9.135
 1713POPC   GL225478  40.961  32.144   9.093
 1713POPC   C1A25479  40.677  32.067   8.701
 1713POPC   D2A25480  40.506  32.266   8.370
 1713POPC   C3A25481  40.668  32.177   7.990
 1713POPC   C4A25482  40.530  31.937   7.683
 1713POPC   C1B25483  41.118  32.353   8.753
 1713POPC   C2B25484  40.997  32.395   8.352
 1713POPC   C3B25485  41.163  32.318   7.975
 1713POPC   C4B25486  40.979  32.397   7.602
 1714POPC   NC325487  21.972  33.532   9.652
 1714POPC   PO425488  21.980  32.815   9.690
 1714POPC   GL125489  22.096  32.913   9.259
 1714POPC   GL225490  22.365  32.743   9.197
 1714POPC   C1A25491  22.209  33.052   8.806
 1714POPC   D2A25492  22.055  33.045   8.355
 1714POPC   C3A25493  22.131  33.295   7.959
 1714POPC   C4A25494  22.037  33.223   7.509
 1714POPC   C1B25495  22.353  32.534   8.813
 1714POPC   C2B25496  22.422  32.697   8.402
 1714POPC   C3B25497  22.424  32.865   7.988
 1714POPC   C4B25498  22.556  33.170   7.656
 1715POPC   NC325499   9.130   7.045   9.459
 1715POPC   PO425500   8.788   6.503   9.443
 1715POPC   GL125501   8.834   6.750   9.106
 1715POPC   GL225502   9.187   6.658   9.092
 1715POPC   C1A25503   8.925   6.896   8.685
 1715POPC   D2A25504   9.031   6.642   8.331
 1715POPC   C3A25505   8.794   6.607   7.950
 1715POPC   C4A25506   8.824   6.967   7.713
 1715POPC   C1B25507   9.409   6.723   8.731
 1715POPC   C2B25508   9.409   6.972   8.339
 1715POPC   C3B25509   9.300   6.809   7.922
 1715POPC   C4B25510   9.268   6.889   7.477
 1716POPC   NC325511  26.952  41.404   9.785
 1716POPC   PO425512  26.783  41.626   9.199
 1716POPC   GL125513  27.134  41.482   8.959
 1716POPC   GL225514  27.281  41.803   8.867
 1716POPC   C1A25515  27.000  41.258   8.602
 1716POPC   D2A25516  26.688  41.425   8.311
 1716POPC   C3A25517  26.926  41.465   7.963
 1716POPC   C4A25518  26.929  41.598   7.559
 1716POPC   C1B25519  27.050  41.771   8.525
 1716POPC   C2B25520  26.732  41.973   8.363
 1716POPC   C3B25521  26.803  41.969   7.942
 1716POPC   C4B25522  26.609  41.983   7.557
 1717POPC   NC325523  10.922  30.886   9.475
 1717POPC   PO425524  10.300  30.523   9.634
 1717POPC   GL125525  10.591  30.564   9.246
 1717POPC   GL225526  10.532  30.808   9.005
 1717POPC   C1A25527  10.663  30.355   8.842
 1717POPC   D2A25528  10.603  30.566   8.453
 1717POPC   C3A25529  10.693  30.351   8.098
 1717POPC   C4A25530  10.637  30.281   7.696
 1717POPC   C1B25531  10.223  30.912   8.719
 1717POPC   C2B25532  10.234  30.911   8.301
 1717POPC   C3B25533  10.544  31.054   8.090
 1717POPC   C4B25534  10.547  30.801   7.751
 1718POPC   NC325535  35.832  21.285   9.418
 1718POPC   PO425536  36.318  21.670   9.643
 1718POPC   GL125537  36.217  21.541   9.232
 1718POPC   GL225538  36.338  21.198   9.277
 1718POPC   C1A25539  36.079  21.365   8.832
 1718POPC   D2A25540  36.064  21.514   8.445
 1718POPC   C3A25541  35.934  21.260   8.129
 1718POPC   C4A25542  35.943  21.361   7.688
 1718POPC   C1B25543  36.494  21.078   8.877
 1718POPC   C2B25544  36.393  21.128   8.435
 1718POPC   C3B25545  36.396  20.989   8.030
 1718POPC   C4B25546  36.416  21.144   7.661
 1719POPC   NC325547  25.107  34.562   9.435
 1719POPC   PO425548  25.832  34.530   9.403
 1719POPC   GL125549  25.538  34.653   9.140
 1719POPC   GL225550  25.421  34.304   9.086
 1719POPC   C1A25551  25.234  34.781   8.821
 1719POPC   D2A25552  25.020  34.783   8.415
 1719POPC   C3A25553  25.248  34.658   8.039
 1719POPC   C4A25554  25.079  34.774   7.649
 1719POPC   C1B25555  25.774  34.337   8.761
 1719POPC   C2B25556  25.820  34.474   8.326
 1719POPC   C3B25557  25.725  34.280   7.919
 1719POPC   C4B25558  25.322  34.318   7.653
 1720POPC   NC325559  43.608  44.585   9.407
 1720POPC   PO425560  44.247  44.773   9.459
 1720POPC   GL125561  44.034  44.819   9.060
 1720POPC   GL225562  43.670  44.802   8.950
 1720POPC   C1A25563  44.025  44.568   8.663
 1720POPC   D2A25564  43.978  44.631   8.209
 1720POPC   C3A25565  44.047  44.343   7.906
 1720POPC   C4A25566  44.014  44.077   7.570
 1720POPC   C1B25567  43.869   0.048   8.623
 1720POPC   C2B25568  43.966   0.151   8.226
 1720POPC   C3B25569  43.801  44.974   7.898
 1720POPC   C4B25570  43.705  44.672   7.633
 1721POPC   NC325571  12.155  25.487   9.593
 1721POPC   PO425572  11.994  26.160   9.502
 1721POPC   GL125573  12.064  26.240   9.115
 1721POPC   GL225574  12.169  25.891   9.049
 1721POPC   C1A25575  11.951  26.415   8.750
 1721POPC   D2A25576  12.086  26.292   8.358
 1721POPC   C3A25577  11.985  26.458   8.006
 1721POPC   C4A25578  11.926  26.212   7.664
 1721POPC   C1B25579  11.965  25.901   8.639
 1721POPC   C2B25580  11.763  25.946   8.184
 1721POPC   C3B25581  11.691  25.773   7.737
 1721POPC   C4B25582  11.788  25.884   7.267
 1722POPC   NC325583  43.003  33.413   9.228
 1722POPC   PO425584  43.350  33.999   9.334
 1722POPC   GL125585  43.204  33.810   9.026
 1722POPC   GL225586  43.407  33.494   8.948
 1722POPC   C1A25587  43.003  33.728   8.656
 1722POPC   D2A25588  42.855  33.938   8.323
 1722POPC   C3A25589  42.953  33.595   8.072
 1722POPC   C4A25590  42.975  33.510   7.660
 1722POPC   C1B25591  43.513  33.829   8.652
 1722POPC   C2B25592  43.353  33.878   8.255
 1722POPC   C3B25593  43.409  33.758   7.850
 1722POPC   C4B25594  43.697  33.460   7.712
 1723POPC   NC325595  19.236  26.105   9.512
 1723POPC   PO425596  19.878  25.981   9.644
 1723POPC   GL125597  19.923  25.884   9.223
 1723POPC   GL225598  19.585  25.795   9.186
 1723POPC   C1A25599  19.761  26.161   8.860
 1723POPC   D2A25600  19.917  26.403   8.509
 1723POPC   C3A25601  19.869  26.230   8.085
 1723POPC   C4A25602  20.123  26.366   7.715
 1723POPC   C1B25603  19.756  25.663   8.779
 1723POPC   C2B25604  19.714  25.801   8.351
 1723POPC   C3B25605  19.777  25.688   7.919
 1723POPC   C4B25606  19.732  26.018   7.617
 1724POPC   NC325607  36.183   7.982   9.554
 1724POPC   PO425608  36.448   8.508   9.213
 1724POPC   GL125609  36.209   8.208   9.070
 1724POPC   GL225610  36.389   7.884   9.098
 1724POPC   C1A25611  36.077   8.364   8.679
 1724POPC   D2A25612  36.054   8.188   8.264
 1724POPC   C3A25613  36.299   8.385   7.967
 1724POPC   C4A25614  36.062   8.583   7.646
 1724POPC   C1B25615  36.220   7.870   8.683
 1724POPC   C2B25616  36.448   7.871   8.296
 1724POPC   C3B25617  36.231   7.786   7.930
 1724POPC   C4B25618  35.958   8.061   7.750
 1725POPC   NC325619  28.804  17.593   9.523
 1725POPC   PO425620  29.336  17.139   9.507
 1725POPC   GL125621  29.158  17.361   9.182
 1725POPC   GL225622  28.863  17.201   9.119
 1725POPC   C1A25623  29.302  17.597   8.836
 1725POPC   D2A25624  29.219  17.561   8.405
 1725POPC   C3A25625  29.395  17.739   8.018
 1725POPC   C4A25626  29.293  17.835   7.602
 1725POPC   C1B25627  28.829  17.390   8.699
 1725POPC   C2B25628  28.701  17.556   8.341
 1725POPC   C3B25629  28.919  17.489   8.015
 1725POPC   C4B25630  28.953  17.461   7.656
 1726POPC   NC325631  32.474  31.122   9.402
 1726POPC   PO425632  32.048  30.658   9.477
 1726POPC   GL125633  32.299  30.680   9.165
 1726POPC   GL225634  32.122  30.938   9.045
 1726POPC   C1A25635  32.354  30.438   8.798
 1726POPC   D2A25636  32.373  30.620   8.389
 1726POPC   C3A25637  32.195  30.384   8.049
 1726POPC   C4A25638  32.302  30.453   7.621
 1726POPC   C1B25639  32.475  30.968   8.760
 1726POPC   C2B25640  32.450  31.182   8.355
 1726POPC   C3B25641  32.354  30.983   7.988
 1726POPC   C4B25642  32.212  30.962   7.591
 1727POPC   NC325643  13.128   6.692   9.484
 1727POPC   PO425644  12.546   6.783   9.260
 1727POPC   GL125645  12.847   6.566   9.038
 1727POPC   GL225646  12.714   6.231   8.983
 1727POPC   C1A25647  13.036   6.675   8.644
 1727POPC   D2A25648  12.953   6.922   8.292
 1727POPC   C3A25649  12.719   6.774   7.983
 1727POPC   C4A25650  12.820   6.899   7.596
 1727POPC   C1B25651  13.021   6.177   8.705
 1727POPC   C2B25652  12.932   6.271   8.293
 1727POPC   C3B25653  12.909   6.321   7.889
 1727POPC   C4B25654  12.693   6.404   7.526
 1728POPC   NC325655  38.410   3.374   9.710
 1728POPC   PO425656  38.984   3.749   9.510
 1728POPC   GL125657  38.784   3.718   9.100
 1728POPC   GL225658  38.525   3.950   9.060
 1728POPC   C1A25659  38.660   3.722   8.620
 1728POPC   D2A25660  38.664   3.928   8.192
 1728POPC   C3A25661  38.655   3.677   7.831
 1728POPC   C4A25662  38.488   3.277   7.777
 1728POPC   C1B25663  38.237   4.010   8.671
 1728POPC   C2B25664  38.141   3.957   8.203
 1728POPC   C3B25665  38.081   3.638   7.802
 1728POPC   C4B25666  37.922   3.465   7.346
 1729POPC   NC325667  27.880  36.920   9.615
 1729POPC   PO425668  28.593  36.919   9.502
 1729POPC   GL125669  28.600  37.046   9.080
 1729POPC   GL225670  28.245  36.971   9.044
 1729POPC   C1A25671  28.556  36.920   8.631
 1729POPC   D2A25672  28.402  37.083   8.231
 1729POPC   C3A25673  28.409  36.788   7.915
 1729POPC   C4A25674  28.539  36.857   7.506
 1729POPC   C1B25675  28.248  37.333   8.762
 1729POPC   C2B25676  28.146  37.500   8.380
 1729POPC   C3B25677  27.983  37.385   7.984
 1729POPC   C4B25678  28.082  37.093   7.655
 1730POPC   NC325679  14.898   0.130   9.296
 1730POPC   PO425680  14.686   0.829   9.373
 1730POPC   GL125681  14.458   0.471   9.190
 1730POPC   GL225682  14.337   0.688   8.993
 1730POPC   C1A25683  14.170   0.270   8.837
 1730POPC   D2A25684  14.456   0.404   8.502
 1730POPC   C3A25685  14.506   0.171   8.112
 1730POPC   C4A25686  14.579   0.307   7.657
 1730POPC   C1B25687  14.049   0.723   8.652
 1730POPC   C2B25688  13.986   0.381   8.323
 1730POPC   C3B25689  14.153   0.480   7.925
 1730POPC   C4B25690  14.537   0.764   7.870
 1731POPC   NC325691  12.250  36.451   9.537
 1731POPC   PO425692  12.427  35.837   9.548
 1731POPC   GL125693  12.175  35.910   9.145
 1731POPC   GL225694  12.056  36.264   9.093
 1731POPC   C1A25695  12.261  36.009   8.687
 1731POPC   D2A25696  12.078  36.352   8.418
 1731POPC   C3A25697  12.080  36.276   7.967
 1731POPC   C4A25698  12.282  35.933   7.737
 1731POPC   C1B25699  11.775  36.064   8.791
 1731POPC   C2B25700  11.719  35.971   8.321
 1731POPC   C3B25701  11.608  35.957   7.886
 1731POPC   C4B25702  11.778  35.968   7.461
 1732POPC   NC325703  39.982   4.692   9.785
 1732POPC   PO425704  39.837   4.167   9.377
 1732POPC   GL125705  39.819   4.323   8.979
 1732POPC   GL225706  40.159   4.299   8.989
 1732POPC   C1A25707  39.942   4.188   8.567
 1732POPC   D2A25708  39.987   3.818   8.302
 1732POPC   C3A25709  39.860   4.075   7.996
 1732POPC   C4A25710  40.073   4.390   7.832
 1732POPC   C1B25711  40.361   4.534   8.675
 1732POPC   C2B25712  40.272   4.684   8.256
 1732POPC   C3B25713  40.417   4.760   7.848
 1732POPC   C4B25714  40.407   4.471   7.456
 1733POPC   NC325715  42.274  40.697   9.666
 1733POPC   PO425716  42.108  40.458   9.088
 1733POPC   GL125717  42.469  40.736   9.006
 1733POPC   GL225718  42.275  40.982   8.839
 1733POPC   C1A25719  42.738  41.001   8.669
 1733POPC   D2A25720  42.555  41.119   8.280
 1733POPC   C3A25721  42.340  40.771   8.101
 1733POPC   C4A25722  42.486  40.555   7.745
 1733POPC   C1B25723  41.886  41.146   8.679
 1733POPC   C2B25724  41.883  40.938   8.337
 1733POPC   C3B25725  41.999  41.171   8.022
 1733POPC   C4B25726  42.146  41.005   7.688
 1734POPC   NC325727  23.891  26.284   9.495
 1734POPC   PO425728  24.043  25.659   9.205
 1734POPC   GL125729  23.796  25.987   9.051
 1734POPC   GL225730  23.488  26.056   9.186
 1734POPC   C1A25731  23.718  26.226   8.658
 1734POPC   D2A25732  24.025  26.181   8.295
 1734POPC   C3A25733  23.853  26.071   7.879
 1734POPC   C4A25734  23.401  26.055   7.806
 1734POPC   C1B25735  23.431  25.810   8.760
 1734POPC   C2B25736  23.555  25.862   8.311
 1734POPC   C3B25737  23.554  25.586   7.963
 1734POPC   C4B25738  23.680  25.678   7.571
 1735POPC   NC325739   6.184  31.496   9.717
 1735POPC   PO425740   6.799  31.232   9.468
 1735POPC   GL125741   6.587  31.467   9.143
 1735POPC   GL225742   6.258  31.559   9.204
 1735POPC   C1A25743   6.671  31.450   8.690
 1735POPC   D2A25744   6.764  31.128   8.331
 1735POPC   C3A25745   6.683  31.394   7.974
 1735POPC   C4A25746   6.749  31.845   8.109
 1735POPC   C1B25747   6.176  31.416   8.768
 1735POPC   C2B25748   6.314  31.352   8.326
 1735POPC   C3B25749   6.140  31.343   7.918
 1735POPC   C4B25750   6.306  31.164   7.525
 1736POPC   NC325751  30.703  32.519   9.569
 1736POPC   PO425752  30.927  31.833   9.693
 1736POPC   GL125753  30.724  32.062   9.304
 1736POPC   GL225754  30.956  32.294   9.146
 1736POPC   C1A25755  30.502  32.322   8.936
 1736POPC   D2A25756  30.255  32.426   8.555
 1736POPC   C3A25757  30.504  32.352   8.176
 1736POPC   C4A25758  30.625  32.042   7.842
 1736POPC   C1B25759  30.914  32.031   8.779
 1736POPC   C2B25760  30.832  31.978   8.344
 1736POPC   C3B25761  31.095  31.934   8.006
 1736POPC   C4B25762  31.224  32.227   7.723
 1737POPC   NC325763   3.125  39.954   9.410
 1737POPC   PO425764   3.711  40.188   9.603
 1737POPC   GL125765   3.582  40.037   9.130
 1737POPC   GL225766   3.303  39.764   8.988
 1737POPC   C1A25767   3.492  40.139   8.679
 1737POPC   D2A25768   3.672  40.239   8.303
 1737POPC   C3A25769   3.488  40.035   7.941
 1737POPC   C4A25770   3.181  39.772   7.874
 1737POPC   C1B25771   3.615  39.664   8.702
 1737POPC   C2B25772   3.720  39.702   8.253
 1737POPC   C3B25773   3.640  39.542   7.820
 1737POPC   C4B25774   3.857  39.562   7.425
 1738POPC   NC325775  37.227  22.520   9.405
 1738POPC   PO425776  36.835  22.157   9.844
 1738POPC   GL125777  36.836  22.152   9.344
 1738POPC   GL225778  37.143  22.046   9.195
 1738POPC   C1A25779  36.824  22.351   8.893
 1738POPC   D2A25780  36.788  22.192   8.431
 1738POPC   C3A25781  36.589  22.054   8.021
 1738POPC   C4A25782  36.770  22.263   7.678
 1738POPC   C1B25783  36.993  21.870   8.809
 1738POPC   C2B25784  37.074  21.775   8.377
 1738POPC   C3B25785  37.077  21.967   7.979
 1738POPC   C4B25786  37.082  21.906   7.527
 1739POPC   NC325787  36.691  19.497   9.394
 1739POPC   PO425788  37.201  19.804   9.462
 1739POPC   GL125789  37.029  19.759   9.075
 1739POPC   GL225790  36.648  19.875   9.054
 1739POPC   C1A25791  37.000  20.041   8.720
 1739POPC   D2A25792  36.695  20.026   8.375
 1739POPC   C3A25793  36.840  20.200   7.978
 1739POPC   C4A25794  37.235  20.024   7.888
 1739POPC   C1B25795  36.724  19.565   8.721
 1739POPC   C2B25796  37.048  19.616   8.440
 1739POPC   C3B25797  37.075  19.572   8.025
 1739POPC   C4B25798  36.824  19.759   7.703
 1740POPC   NC325799  22.703  18.717   9.459
 1740POPC   PO425800  23.129  18.107   9.462
 1740POPC   GL125801  23.012  18.410   9.203
 1740POPC   GL225802  22.676  18.251   9.232
 1740POPC   C1A25803  22.862  18.540   8.815
 1740POPC   D2A25804  22.948  18.225   8.517
 1740POPC   C3A25805  22.857  18.381   8.130
 1740POPC   C4A25806  22.947  18.384   7.730
 1740POPC   C1B25807  22.527  18.145   8.838
 1740POPC   C2B25808  22.449  18.166   8.380
 1740POPC   C3B25809  22.502  18.048   7.932
 1740POPC   C4B25810  22.697  17.951   7.549
 1741POPC   NC325811  41.203   6.221   9.339
 1741POPC   PO425812  40.771   6.737   9.533
 1741POPC   GL125813  40.545   6.671   9.185
 1741POPC   GL225814  40.827   6.482   9.037
 1741POPC   C1A25815  40.409   6.602   8.792
 1741POPC   D2A25816  40.723   6.595   8.490
 1741POPC   C3A25817  40.480   6.626   8.136
 1741POPC   C4A25818  40.564   6.585   7.699
 1741POPC   C1B25819  40.967   6.902   8.801
 1741POPC   C2B25820  41.095   6.950   8.390
 1741POPC   C3B25821  40.989   6.675   8.046
 1741POPC   C4B25822  41.013   6.826   7.628
 1742POPC   NC325823  21.669  38.620   9.450
 1742POPC   PO425824  21.387  38.043   9.613
 1742POPC   GL125825  21.319  38.293   9.244
 1742POPC   GL225826  21.553  38.152   9.016
 1742POPC   C1A25827  21.351  38.603   8.856
 1742POPC   D2A25828  21.190  38.723   8.445
 1742POPC   C3A25829  21.279  38.468   8.125
 1742POPC   C4A25830  21.536  38.683   7.883
 1742POPC   C1B25831  21.108  38.136   8.810
 1742POPC   C2B25832  20.931  38.168   8.387
 1742POPC   C3B25833  21.095  38.005   7.977
 1742POPC   C4B25834  21.467  38.166   7.732
 1743POPC   NC325835  42.554  38.165   9.599
 1743POPC   PO425836  43.012  38.661   9.528
 1743POPC   GL125837  43.139  38.563   9.122
 1743POPC   GL225838  43.146  38.202   9.163
 1743POPC   C1A25839  43.213  38.729   8.716
 1743POPC   D2A25840  43.013  38.960   8.370
 1743POPC   C3A25841  43.078  38.734   7.969
 1743POPC   C4A25842  43.329  38.340   7.893
 1743POPC   C1B25843  42.911  38.237   8.767
 1743POPC   C2B25844  42.914  38.443   8.375
 1743POPC   C3B25845  42.806  38.297   7.981
 1743POPC   C4B25846  42.902  38.106   7.639
 1744POPC   NC325847  38.583  28.158   9.525
 1744POPC   PO425848  38.198  28.695   9.650
 1744POPC   GL125849  38.315  28.589   9.191
 1744POPC   GL225850  38.344  28.208   9.069
 1744POPC   C1A25851  38.630  28.670   8.866
 1744POPC   D2A25852  38.759  28.709   8.415
 1744POPC   C3A25853  38.536  28.395   8.148
 1744POPC   C4A25854  38.383  28.416   7.726
 1744POPC   C1B25855  38.442  27.943   8.691
 1744POPC   C2B25856  38.542  27.843   8.252
 1744POPC   C3B25857  38.572  27.952   7.810
 1744POPC   C4B25858  38.420  28.011   7.362
 1745POPC   NC325859  11.821   4.665   9.434
 1745POPC   PO425860  12.261   4.122   9.402
 1745POPC   GL125861  12.098   4.320   9.081
 1745POPC   GL225862  12.232   4.669   9.110
 1745POPC   C1A25863  12.133   4.116   8.679
 1745POPC   D2A25864  11.957   3.918   8.331
 1745POPC   C3A25865  12.138   4.141   8.003
 1745POPC   C4A25866  12.376   4.023   7.664
 1745POPC   C1B25867  11.893   4.647   8.763
 1745POPC   C2B25868  11.911   4.468   8.339
 1745POPC   C3B25869  11.820   4.587   7.897
 1745POPC   C4B25870  11.614   4.655   7.485
 1746POPC   NC325871  23.278  21.927   9.445
 1746POPC   PO425872  22.595  21.875   9.520
 1746POPC   GL125873  22.736  22.212   9.248
 1746POPC   GL225874  23.091  22.341   9.173
 1746POPC   C1A25875  22.813  22.067   8.826
 1746POPC   D2A25876  22.929  22.247   8.438
 1746POPC   C3A25877  22.697  22.104   8.100
 1746POPC   C4A25878  22.937  21.917   7.792
 1746POPC   C1B25879  23.311  22.157   8.806
 1746POPC   C2B25880  23.439  22.312   8.415
 1746POPC   C3B25881  23.262  22.259   8.002
 1746POPC   C4B25882  23.534  22.048   7.688
 1747POPC   NC325883  42.045  32.932   9.428
 1747POPC   PO425884  42.546  32.573   9.736
 1747POPC   GL125885  42.573  32.824   9.187
 1747POPC   GL225886  42.342  33.108   9.070
 1747POPC   C1A25887  42.284  32.768   8.723
 1747POPC   D2A25888  42.021  32.792   8.337
 1747POPC   C3A25889  42.321  32.751   7.985
 1747POPC   C4A25890  42.450  32.808   7.553
 1747POPC   C1B25891  42.081  33.337   8.762
 1747POPC   C2B25892  41.947  33.438   8.309
 1747POPC   C3B25893  42.047  33.176   7.941
 1747POPC   C4B25894  42.075  33.170   7.495
 1748POPC   NC325895  33.908  43.838   9.615
 1748POPC   PO425896  33.289  43.994   9.597
 1748POPC   GL125897  33.593  43.946   9.234
 1748POPC   GL225898  33.772  43.642   9.168
 1748POPC   C1A25899  33.509  43.888   8.802
 1748POPC   D2A25900  33.656  43.778   8.419
 1748POPC   C3A25901  33.507  44.061   8.106
 1748POPC   C4A25902  33.565  44.005   7.661
 1748POPC   C1B25903  34.003  43.864   8.851
 1748POPC   C2B25904  34.193  43.788   8.471
 1748POPC   C3B25905  34.026  43.987   8.113
 1748POPC   C4B25906  34.184  44.087   7.742
 1749POPC   NC325907   5.607   9.292   9.574
 1749POPC   PO425908   5.042   8.949   9.301
 1749POPC   GL125909   5.110   9.222   9.000
 1749POPC   GL225910   4.793   9.200   8.924
 1749POPC   C1A25911   5.186   9.023   8.600
 1749POPC   D2A25912   5.310   8.693   8.311
 1749POPC   C3A25913   5.336   8.816   7.887
 1749POPC   C4A25914   5.010   8.807   7.577
 1749POPC   C1B25915   4.694   9.067   8.535
 1749POPC   C2B25916   4.887   8.946   8.160
 1749POPC   C3B25917   4.990   9.221   7.860
 1749POPC   C4B25918   5.364   9.326   7.740
 1750POPC   NC325919  35.221  36.755   9.492
 1750POPC   PO425920  35.855  37.101   9.405
 1750POPC   GL125921  35.670  36.888   9.098
 1750POPC   GL225922  35.373  37.004   9.098
 1750POPC   C1A25923  35.680  37.019   8.667
 1750POPC   D2A25924  35.653  37.006   8.231
 1750POPC   C3A25925  35.450  36.664   7.975
 1750POPC   C4A25926  35.518  36.626   7.509
 1750POPC   C1B25927  35.163  37.143   8.772
 1750POPC   C2B25928  35.166  37.000   8.372
 1750POPC   C3B25929  35.232  37.144   7.964
 1750POPC   C4B25930  35.095  36.934   7.637
 1751POPC   NC325931  33.835   4.390   9.975
 1751POPC   PO425932  33.726   4.663   9.616
 1751POPC   GL125933  33.668   4.459   9.183
 1751POPC   GL225934  33.891   4.197   9.098
 1751POPC   C1A25935  33.620   4.500   8.714
 1751POPC   D2A25936  33.812   4.637   8.300
 1751POPC   C3A25937  33.597   4.798   7.910
 1751POPC   C4A25938  33.569   4.622   7.481
 1751POPC   C1B25939  33.780   4.019   8.689
 1751POPC   C2B25940  33.794   4.121   8.248
 1751POPC   C3B25941  33.856   4.362   7.861
 1751POPC   C4B25942  34.089   4.717   7.796
 1752POPC   NC325943  41.906  43.981   9.211
 1752POPC   PO425944  42.453  43.861   9.523
 1752POPC   GL125945  42.433  43.971   9.063
 1752POPC   GL225946  42.199  43.734   8.861
 1752POPC   C1A25947  42.519  44.033   8.611
 1752POPC   D2A25948  42.284  43.919   8.251
 1752POPC   C3A25949  42.598  43.757   7.969
 1752POPC   C4A25950  42.578  43.699   7.508
 1752POPC   C1B25951  41.898  43.999   8.590
 1752POPC   C2B25952  41.713  44.018   8.209
 1752POPC   C3B25953  41.933  43.818   7.865
 1752POPC   C4B25954  42.270  44.056   7.699
 1753POPC   NC325955  14.820   9.087   9.482
 1753POPC   PO425956  14.174   9.179   9.394
 1753POPC   GL125957  14.485   9.124   9.071
 1753POPC   GL225958  14.755   9.317   8.942
 1753POPC   C1A25959  14.451   8.996   8.640
 1753POPC   D2A25960  14.165   8.962   8.313
 1753POPC   C3A25961  14.150   8.592   8.072
 1753POPC   C4A25962  14.240   8.876   7.745
 1753POPC   C1B25963  14.923   8.896   8.809
 1753POPC   C2B25964  14.882   8.686   8.428
 1753POPC   C3B25965  14.639   8.734   8.067
 1753POPC   C4B25966  14.686   8.689   7.631
 1754POPC   NC325967  16.407  39.661   9.468
 1754POPC   PO425968  17.040  39.955   9.404
 1754POPC   GL125969  16.669  39.959   9.156
 1754POPC   GL225970  16.566  40.299   9.162
 1754POPC   C1A25971  16.642  39.800   8.749
 1754POPC   D2A25972  16.854  40.004   8.383
 1754POPC   C3A25973  16.726  39.815   8.016
 1754POPC   C4A25974  16.370  39.931   7.756
 1754POPC   C1B25975  16.668  40.336   8.745
 1754POPC   C2B25976  16.492  40.498   8.369
 1754POPC   C3B25977  16.545  40.478   7.943
 1754POPC   C4B25978  16.816  40.247   7.788
 1755POPC   NC325979  27.285  39.270   9.443
 1755POPC   PO425980  27.702  38.762   9.594
 1755POPC   GL125981  27.583  38.969   9.158
 1755POPC   GL225982  27.587  39.361   9.055
 1755POPC   C1A25983  27.449  39.015   8.730
 1755POPC   D2A25984  27.612  39.379   8.492
 1755POPC   C3A25985  27.469  39.340   8.090
 1755POPC   C4A25986  27.684  39.159   7.724
 1755POPC   C1B25987  27.900  39.626   8.844
 1755POPC   C2B25988  28.076  39.664   8.415
 1755POPC   C3B25989  27.900  39.571   7.999
 1755POPC   C4B25990  27.693  39.634   7.579
 1756POPC   NC325991  26.614  44.381   9.331
 1756POPC   PO425992  26.923  44.975   9.516
 1756POPC   GL125993  26.889  44.847   9.092
 1756POPC   GL225994  27.108  44.562   9.137
 1756POPC   C1A25995  26.789  44.573   8.737
 1756POPC   D2A25996  26.943  44.419   8.368
 1756POPC   C3A25997  26.578  44.477   8.152
 1756POPC   C4A25998  26.500  44.668   7.759
 1756POPC   C1B25999  27.288  44.708   8.726
 1756POPC   C2B26000  27.151  44.948   8.359
 1756POPC   C3B26001  26.987  44.784   7.973
 1756POPC   C4B26002  26.972  44.357   7.841
 1757POPC   NC326003  41.201  33.438   9.191
 1757POPC   PO426004  41.706  33.771   9.573
 1757POPC   GL126005  41.703  33.600   9.157
 1757POPC   GL226006  41.506  33.892   9.058
 1757POPC   C1A26007  41.653  33.610   8.689
 1757POPC   D2A26008  41.460  33.779   8.344
 1757POPC   C3A26009  41.354  33.546   7.998
 1757POPC   C4A26010  41.706  33.531   7.818
 1757POPC   C1B26011  41.188  33.977   8.752
 1757POPC   C2B26012  41.072  34.090   8.344
 1757POPC   C3B26013  41.336  34.061   7.928
 1757POPC   C4B26014  41.444  33.880   7.497
 1758POPC   NC326015  29.054  30.866   9.431
 1758POPC   PO426016  29.185  30.297   9.316
 1758POPC   GL126017  29.220  30.596   9.011
 1758POPC   GL226018  28.862  30.691   8.983
 1758POPC   C1A26019  29.158  30.523   8.576
 1758POPC   D2A26020  28.826  30.292   8.345
 1758POPC   C3A26021  28.892  30.519   7.954
 1758POPC   C4A26022  29.292  30.767   7.851
 1758POPC   C1B26023  29.100  31.025   8.762
 1758POPC   C2B26024  29.180  31.040   8.337
 1758POPC   C3B26025  29.105  31.273   7.998
 1758POPC   C4B26026  28.864  31.063   7.740
 1759POPC   NC326027  22.720  28.031   9.448
 1759POPC   PO426028  22.888  27.355   9.568
 1759POPC   GL126029  22.888  27.441   9.176
 1759POPC   GL226030  22.602  27.601   9.205
 1759POPC   C1A26031  22.912  27.573   8.755
 1759POPC   D2A26032  23.101  27.800   8.436
 1759POPC   C3A26033  22.939  27.693   8.060
 1759POPC   C4A26034  22.746  27.536   7.693
 1759POPC   C1B26035  22.463  27.810   8.852
 1759POPC   C2B26036  22.568  27.827   8.435
 1759POPC   C3B26037  22.478  27.886   8.031
 1759POPC   C4B26038  22.465  27.956   7.623
 1760POPC   NC326039  33.592  25.572   9.410
 1760POPC   PO426040  33.802  26.238   9.465
 1760POPC   GL126041  33.706  26.117   9.072
 1760POPC   GL226042  33.879  25.786   9.039
 1760POPC   C1A26043  33.695  26.290   8.652
 1760POPC   D2A26044  34.081  26.238   8.387
 1760POPC   C3A26045  33.997  26.155   7.936
 1760POPC   C4A26046  33.515  26.188   7.797
 1760POPC   C1B26047  33.833  25.804   8.615
 1760POPC   C2B26048  33.657  25.940   8.229
 1760POPC   C3B26049  33.729  25.716   7.808
 1760POPC   C4B26050  33.870  25.740   7.353
 1761POPC   NC326051  24.411  28.615   9.467
 1761POPC   PO426052  24.731  27.968   9.442
 1761POPC   GL126053  24.559  28.249   9.101
 1761POPC   GL226054  24.670  28.612   9.020
 1761POPC   C1A26055  24.570  28.312   8.635
 1761POPC   D2A26056  24.476  28.344   8.193
 1761POPC   C3A26057  24.834  28.226   7.895
 1761POPC   C4A26058  24.758  28.111   7.430
 1761POPC   C1B26059  24.221  28.669   8.826
 1761POPC   C2B26060  24.062  28.826   8.414
 1761POPC   C3B26061  24.112  28.667   7.971
 1761POPC   C4B26062  24.432  28.437   7.688
 1762POPC   NC326063  30.100  34.645   9.451
 1762POPC   PO426064  29.544  35.046   9.247
 1762POPC   GL126065  29.786  34.736   9.025
 1762POPC   GL226066  29.956  34.411   9.037
 1762POPC   C1A26067  29.805  34.629   8.592
 1762POPC   D2A26068  30.029  34.746   8.256
 1762POPC   C3A26069  29.739  34.845   7.960
 1762POPC   C4A26070  29.578  34.579   7.706
 1762POPC   C1B26071  30.275  34.567   8.730
 1762POPC   C2B26072  30.453  34.403   8.340
 1762POPC   C3B26073  30.290  34.486   7.892
 1762POPC   C4B26074  30.045  34.507   7.522
 1763POPC   NC326075   0.855  43.369   9.504
 1763POPC   PO426076   1.215  44.018   9.459
 1763POPC   GL126077   1.271  43.926   9.060
 1763POPC   GL226078   1.152  43.599   9.150
 1763POPC   C1A26079   1.244  43.710   8.665
 1763POPC   D2A26080   1.510  43.632   8.334
 1763POPC   C3A26081   1.346  43.944   8.065
 1763POPC   C4A26082   1.165  43.893   7.665
 1763POPC   C1B26083   0.934  43.339   8.855
 1763POPC   C2B26084   0.696  43.480   8.521
 1763POPC   C3B26085   0.900  43.740   8.262
 1763POPC   C4B26086   0.726  43.750   7.904
 1764POPC   NC326087  29.411  21.395   9.525
 1764POPC   PO426088  28.817  21.291   9.636
 1764POPC   GL126089  28.976  21.450   9.249
 1764POPC   GL226090  28.681  21.474   9.082
 1764POPC   C1A26091  29.145  21.334   8.838
 1764POPC   D2A26092  29.261  21.572   8.461
 1764POPC   C3A26093  29.336  21.399   8.059
 1764POPC   C4A26094  29.339  21.227   7.660
 1764POPC   C1B26095  28.680  21.390   8.613
 1764POPC   C2B26096  28.833  21.449   8.194
 1764POPC   C3B26097  28.871  21.173   7.854
 1764POPC   C4B26098  28.894  21.178   7.395
 1765POPC   NC326099   0.066  28.663   9.529
 1765POPC   PO426100   0.463  28.129   9.360
 1765POPC   GL126101   0.199  28.165   9.042
 1765POPC   GL226102   0.200  28.508   9.024
 1765POPC   C1A26103   0.237  28.181   8.597
 1765POPC   D2A26104   0.462  28.098   8.232
 1765POPC   C3A26105   0.217  28.211   7.890
 1765POPC   C4A26106   0.183  28.572   7.587
 1765POPC   C1B26107   0.509  28.581   8.682
 1765POPC   C2B26108   0.414  28.627   8.250
 1765POPC   C3B26109   0.621  28.539   7.876
 1765POPC   C4B26110   1.001  28.647   7.662
 1766POPC   NC326111   6.766  33.952   9.627
 1766POPC   PO426112   6.306  33.513   9.723
 1766POPC   GL126113   6.424  33.768   9.299
 1766POPC   GL226114   6.789  33.937   9.110
 1766POPC   C1A26115   6.329  33.970   8.916
 1766POPC   D2A26116   6.629  33.900   8.569
 1766POPC   C3A26117   6.616  33.946   8.102
 1766POPC   C4A26118   6.487  33.866   7.657
 1766POPC   C1B26119   7.062  34.112   8.720
 1766POPC   C2B26120   7.215  34.172   8.244
 1766POPC   C3B26121   7.114  33.974   7.799
 1766POPC   C4B26122   7.072  34.012   7.316
 1767POPC   NC326123  34.317  22.160   9.461
 1767POPC   PO426124  35.050  21.995   9.558
 1767POPC   GL126125  34.763  21.953   9.200
 1767POPC   GL226126  34.768  21.604   9.127
 1767POPC   C1A26127  34.475  21.917   8.790
 1767POPC   D2A26128  34.355  21.996   8.328
 1767POPC   C3A26129  34.547  22.338   8.042
 1767POPC   C4A26130  34.783  22.555   7.667
 1767POPC   C1B26131  34.981  21.831   8.753
 1767POPC   C2B26132  34.887  21.995   8.367
 1767POPC   C3B26133  34.745  21.856   7.968
 1767POPC   C4B26134  35.042  21.824   7.657
 1768POPC   NC326135  37.018  33.318   9.295
 1768POPC   PO426136  36.834  32.685   9.515
 1768POPC   GL126137  36.656  32.849   9.160
 1768POPC   GL226138  36.549  33.169   9.147
 1768POPC   C1A26139  36.826  32.990   8.764
 1768POPC   D2A26140  37.103  32.834   8.479
 1768POPC   C3A26141  36.983  33.118   8.171
 1768POPC   C4A26142  36.889  33.033   7.771
 1768POPC   C1B26143  36.474  33.386   8.777
 1768POPC   C2B26144  36.511  33.219   8.379
 1768POPC   C3B26145  36.530  33.337   7.958
 1768POPC   C4B26146  36.516  33.246   7.510
 1769POPC   NC326147  37.279  39.404   9.323
 1769POPC   PO426148  36.952  38.955   9.627
 1769POPC   GL126149  36.898  39.021   9.173
 1769POPC   GL226150  36.596  38.840   9.093
 1769POPC   C1A26151  37.046  39.165   8.757
 1769POPC   D2A26152  37.322  39.028   8.383
 1769POPC   C3A26153  37.257  39.079   7.982
 1769POPC   C4A26154  36.950  39.328   7.860
 1769POPC   C1B26155  36.713  38.809   8.625
 1769POPC   C2B26156  36.796  39.137   8.319
 1769POPC   C3B26157  36.528  39.446   8.134
 1769POPC   C4B26158  36.486  39.169   7.782
 1770POPC   NC326159  39.132   2.966   9.580
 1770POPC   PO426160  38.794   2.279   9.520
 1770POPC   GL126161  39.038   2.606   9.247
 1770POPC   GL226162  39.384   2.810   9.173
 1770POPC   C1A26163  38.955   2.881   8.907
 1770POPC   D2A26164  39.153   2.722   8.565
 1770POPC   C3A26165  39.116   2.726   8.133
 1770POPC   C4A26166  39.322   2.703   7.737
 1770POPC   C1B26167  39.447   3.097   8.821
 1770POPC   C2B26168  39.300   3.187   8.416
 1770POPC   C3B26169  39.424   3.135   8.010
 1770POPC   C4B26170  39.599   3.322   7.686
 1771POPC   NC326171  42.515  38.823   9.392
 1771POPC   PO426172  42.074  38.352   9.627
 1771POPC   GL126173  42.301  38.382   9.210
 1771POPC   GL226174  42.655  38.397   9.161
 1771POPC   C1A26175  42.313  38.342   8.747
 1771POPC   D2A26176  42.083  38.328   8.335
 1771POPC   C3A26177  42.288  38.341   7.933
 1771POPC   C4A26178  42.190  38.612   7.618
 1771POPC   C1B26179  42.703  38.696   8.801
 1771POPC   C2B26180  42.475  38.731   8.421
 1771POPC   C3B26181  42.573  38.756   8.015
 1771POPC   C4B26182  42.688  38.635   7.605
 1772POPC   NC326183  42.017  43.267   9.461
 1772POPC   PO426184  42.483  42.866   9.624
 1772POPC   GL126185  42.403  43.002   9.208
 1772POPC   GL226186  42.337  42.706   9.097
 1772POPC   C1A26187  42.553  43.230   8.832
 1772POPC   D2A26188  42.522  43.508   8.465
 1772POPC   C3A26189  42.243  43.429   8.104
 1772POPC   C4A26190  42.410  43.276   7.734
 1772POPC   C1B26191  42.350  42.789   8.658
 1772POPC   C2B26192  42.427  42.967   8.276
 1772POPC   C3B26193  42.298  42.817   7.894
 1772POPC   C4B26194  42.483  42.698   7.516
 1773POPC   NC326195  19.295   0.801   9.439
 1773POPC   PO426196  18.921   0.287   9.535
 1773POPC   GL126197  19.143   0.389   9.154
 1773POPC   GL226198  19.040   0.696   8.995
 1773POPC   C1A26199  19.269   0.299   8.730
 1773POPC   D2A26200  19.033   0.154   8.387
 1773POPC   C3A26201  19.064   0.368   8.015
 1773POPC   C4A26202  19.104   0.325   7.577
 1773POPC   C1B26203  18.926   0.666   8.574
 1773POPC   C2B26204  18.846   0.795   8.171
 1773POPC   C3B26205  18.660   0.631   7.795
 1773POPC   C4B26206  18.546   0.823   7.428
 1774POPC   NC326207  44.840  15.453   9.534
 1774POPC   PO426208   0.072  14.900   9.358
 1774POPC   GL126209  44.850  15.093   9.023
 1774POPC   GL226210  44.595  15.364   9.093
 1774POPC   C1A26211  44.731  15.071   8.573
 1774POPC   D2A26212  44.540  15.230   8.176
 1774POPC   C3A26213  44.840  15.155   7.861
 1774POPC   C4A26214   0.030  14.749   7.831
 1774POPC   C1B26215  44.891  15.550   8.789
 1774POPC   C2B26216  44.924  15.530   8.334
 1774POPC   C3B26217   0.176  15.591   7.969
 1774POPC   C4B26218   0.044  15.532   7.572
 1775POPC   NC326219  12.347  37.975   9.522
 1775POPC   PO426220  12.950  37.540   9.536
 1775POPC   GL126221  12.920  37.724   9.163
 1775POPC   GL226222  12.587  37.626   9.159
 1775POPC   C1A26223  13.162  37.789   8.792
 1775POPC   D2A26224  13.041  37.717   8.375
 1775POPC   C3A26225  13.254  37.733   7.990
 1775POPC   C4A26226  12.990  37.723   7.642
 1775POPC   C1B26227  12.534  37.838   8.792
 1775POPC   C2B26228  12.555  37.887   8.388
 1775POPC   C3B26229  12.636  37.720   8.007
 1775POPC   C4B26230  12.565  38.019   7.697
 1776POPC   NC326231  30.048  30.953   9.512
 1776POPC   PO426232  29.783  30.405   9.606
 1776POPC   GL126233  29.699  30.486   9.168
 1776POPC   GL226234  29.949  30.724   9.066
 1776POPC   C1A26235  29.680  30.550   8.703
 1776POPC   D2A26236  30.014  30.698   8.427
 1776POPC   C3A26237  29.815  30.633   8.050
 1776POPC   C4A26238  29.838  30.751   7.642
 1776POPC   C1B26239  30.183  31.004   8.811
 1776POPC   C2B26240  30.315  31.154   8.425
 1776POPC   C3B26241  30.116  31.058   8.031
 1776POPC   C4B26242  30.196  31.147   7.612
 1777POPC   NC326243  39.648   9.604   9.402
 1777POPC   PO426244  40.250   9.721   9.738
 1777POPC   GL126245  40.314   9.840   9.235
 1777POPC   GL226246  40.402   9.545   8.998
 1777POPC   C1A26247  40.232   9.950   8.752
 1777POPC   D2A26248  40.276   9.782   8.304
 1777POPC   C3A26249  39.931   9.864   7.991
 1777POPC   C4A26250  39.682   9.977   7.647
 1777POPC   C1B26251  40.077   9.459   8.681
 1777POPC   C2B26252  40.004   9.350   8.236
 1777POPC   C3B26253  40.199   9.480   7.833
 1777POPC   C4B26254  40.067   9.708   7.439
 1778POPC   NC326255  13.045  28.049   9.570
 1778POPC   PO426256  12.773  28.656   9.402
 1778POPC   GL126257  12.704  28.237   9.183
 1778POPC   GL226258  13.004  28.149   9.077
 1778POPC   C1A26259  12.665  28.084   8.718
 1778POPC   D2A26260  12.812  28.332   8.341
 1778POPC   C3A26261  12.923  28.174   7.906
 1778POPC   C4A26262  12.968  28.219   7.453
 1778POPC   C1B26263  13.006  28.491   8.804
 1778POPC   C2B26264  13.157  28.718   8.455
 1778POPC   C3B26265  13.208  28.574   8.043
 1778POPC   C4B26266  13.295  28.567   7.615
 1779POPC   NC326267  44.204  41.267   9.381
 1779POPC   PO426268  43.695  40.845   9.525
 1779POPC   GL126269  43.716  40.781   9.107
 1779POPC   GL226270  44.061  40.874   9.062
 1779POPC   C1A26271  43.742  40.661   8.686
 1779POPC   D2A26272  44.114  40.677   8.421
 1779POPC   C3A26273  44.031  40.515   8.017
 1779POPC   C4A26274  43.737  40.636   7.692
 1779POPC   C1B26275  44.309  41.134   8.714
 1779POPC   C2B26276  44.315  41.150   8.250
 1779POPC   C3B26277  44.013  41.025   7.902
 1779POPC   C4B26278  44.006  41.110   7.438
 1780POPC   NC326279  34.073  32.433   9.545
 1780POPC   PO426280  34.739  32.164   9.500
 1780POPC   GL126281  34.691  32.155   9.119
 1780POPC   GL226282  34.941  32.379   9.036
 1780POPC   C1A26283  34.454  32.245   8.800
 1780POPC   D2A26284  34.134  32.188   8.484
 1780POPC   C3A26285  34.151  32.081   8.057
 1780POPC   C4A26286  34.324  32.338   7.731
 1780POPC   C1B26287  34.965  32.134   8.674
 1780POPC   C2B26288  34.652  32.114   8.362
 1780POPC   C3B26289  34.742  32.199   7.978
 1780POPC   C4B26290  34.938  32.146   7.578
 1781POPC   NC326291   5.443  31.469   9.564
 1781POPC   PO426292   4.861  31.503   9.631
 1781POPC   GL126293   4.960  31.503   9.153
 1781POPC   GL226294   5.311  31.464   9.063
 1781POPC   C1A26295   5.007  31.428   8.673
 1781POPC   D2A26296   5.160  31.643   8.312
 1781POPC   C3A26297   5.088  31.503   7.910
 1781POPC   C4A26298   5.298  31.620   7.559
 1781POPC   C1B26299   5.334  31.866   8.790
 1781POPC   C2B26300   5.535  31.986   8.364
 1781POPC   C3B26301   5.343  31.989   7.940
 1781POPC   C4B26302   4.878  31.950   7.948
 1782POPC   NC326303  10.983   3.259   9.236
 1782POPC   PO426304  11.595   3.433   9.517
 1782POPC   GL126305  11.380   3.565   9.167
 1782POPC   GL226306  11.426   3.899   9.172
 1782POPC   C1A26307  11.350   3.380   8.745
 1782POPC   D2A26308  11.091   3.420   8.400
 1782POPC   C3A26309  11.290   3.286   8.031
 1782POPC   C4A26310  11.474   3.384   7.643
 1782POPC   C1B26311  11.244   3.873   8.736
 1782POPC   C2B26312  11.425   3.790   8.327
 1782POPC   C3B26313  11.315   3.783   7.887
 1782POPC   C4B26314  11.061   3.923   7.532
 1783POPC   NC326315  33.270  44.330   9.232
 1783POPC   PO426316  32.753  44.697   9.562
 1783POPC   GL126317  32.890  44.644   9.111
 1783POPC   GL226318  33.258  44.739   8.930
 1783POPC   C1A26319  32.879  44.497   8.686
 1783POPC   D2A26320  32.620  44.571   8.321
 1783POPC   C3A26321  32.811  44.592   7.906
 1783POPC   C4A26322  33.084  44.641   7.526
 1783POPC   C1B26323  33.395  44.504   8.521
 1783POPC   C2B26324  33.385  44.564   8.027
 1783POPC   C3B26325  33.357  44.949   7.810
 1783POPC   C4B26326  33.520   0.114   7.432
 1784POPC   NC326327  36.547  39.202   9.504
 1784POPC   PO426328  35.871  39.505   9.575
 1784POPC   GL126329  35.886  39.299   9.134
 1784POPC   GL226330  36.197  39.171   9.126
 1784POPC   C1A26331  35.932  39.209   8.677
 1784POPC   D2A26332  36.033  39.528   8.366
 1784POPC   C3A26333  35.697  39.504   8.074
 1784POPC   C4A26334  35.696  39.282   7.663
 1784POPC   C1B26335  36.436  39.218   8.743
 1784POPC   C2B26336  36.295  39.029   8.342
 1784POPC   C3B26337  36.050  39.159   8.017
 1784POPC   C4B26338  36.126  39.534   7.785
 1785POPC   NC326339   4.141  36.965   9.392
 1785POPC   PO426340   4.704  36.585   9.445
 1785POPC   GL126341   4.454  36.726   9.073
 1785POPC   GL226342   4.529  37.054   9.026
 1785POPC   C1A26343   4.112  36.902   8.750
 1785POPC   D2A26344   3.939  37.102   8.395
 1785POPC   C3A26345   4.008  36.867   7.997
 1785POPC   C4A26346   4.148  36.735   7.585
 1785POPC   C1B26347   4.474  37.234   8.616
 1785POPC   C2B26348   4.408  37.015   8.254
 1785POPC   C3B26349   4.413  37.118   7.824
 1785POPC   C4B26350   4.588  36.953   7.477
 1786POPC   NC326351  30.173  43.438   9.494
 1786POPC   PO426352  29.526  43.414   9.678
 1786POPC   GL126353  29.613  43.191   9.240
 1786POPC   GL226354  29.944  43.155   9.151
 1786POPC   C1A26355  29.657  42.958   8.799
 1786POPC   D2A26356  29.746  43.143   8.389
 1786POPC   C3A26357  29.838  43.070   7.942
 1786POPC   C4A26358  29.712  43.436   7.704
 1786POPC   C1B26359  30.119  43.232   8.753
 1786POPC   C2B26360  30.211  43.469   8.344
 1786POPC   C3B26361  30.202  43.445   7.883
 1786POPC   C4B26362  30.132  43.249   7.488
 1787POPC   NC326363  31.223  34.242   9.431
 1787POPC   PO426364  30.526  34.428   9.499
 1787POPC   GL126365  30.573  34.628   9.123
 1787POPC   GL226366  30.897  34.511   9.121
 1787POPC   C1A26367  30.726  34.810   8.730
 1787POPC   D2A26368  30.485  34.930   8.415
 1787POPC   C3A26369  30.668  34.779   8.061
 1787POPC   C4A26370  30.647  34.791   7.646
 1787POPC   C1B26371  30.808  34.301   8.734
 1787POPC   C2B26372  31.051  34.352   8.359
 1787POPC   C3B26373  31.079  34.166   7.959
 1787POPC   C4B26374  30.917  34.349   7.593
 1788POPC   NC326375  24.156  15.798   9.467
 1788POPC   PO426376  24.820  15.969   9.509
 1788POPC   GL126377  24.658  15.926   9.066
 1788POPC   GL226378  24.429  15.659   9.080
 1788POPC   C1A26379  24.293  15.972   8.725
 1788POPC   D2A26380  24.200  15.731   8.334
 1788POPC   C3A26381  24.211  15.941   7.944
 1788POPC   C4A26382  24.110  15.992   7.507
 1788POPC   C1B26383  24.527  15.500   8.691
 1788POPC   C2B26384  24.720  15.783   8.431
 1788POPC   C3B26385  24.731  15.880   8.007
 1788POPC   C4B26386  24.515  15.586   7.732
 1789POPC   NC326387  17.198   5.026   9.573
 1789POPC   PO426388  17.903   5.033   9.634
 1789POPC   GL126389  17.706   5.186   9.263
 1789POPC   GL226390  17.507   5.482   9.304
 1789POPC   C1A26391  17.496   5.052   8.909
 1789POPC   D2A26392  17.515   4.919   8.475
 1789POPC   C3A26393  17.439   5.117   8.081
 1789POPC   C4A26394  17.296   4.919   7.710
 1789POPC   C1B26395  17.382   5.551   8.898
 1789POPC   C2B26396  17.307   5.458   8.464
 1789POPC   C3B26397  17.149   5.528   8.027
 1789POPC   C4B26398  17.315   5.411   7.596
 1790POPC   NC326399  16.552  38.306   9.924
 1790POPC   PO426400  16.022  38.504   9.532
 1790POPC   GL126401  15.983  38.340   9.146
 1790POPC   GL226402  15.702  38.156   9.215
 1790POPC   C1A26403  15.913  38.456   8.724
 1790POPC   D2A26404  16.170  38.527   8.351
 1790POPC   C3A26405  15.941  38.510   7.986
 1790POPC   C4A26406  16.118  38.569   7.592
 1790POPC   C1B26407  15.573  38.081   8.790
 1790POPC   C2B26408  15.540  38.277   8.380
 1790POPC   C3B26409  15.601  38.136   7.961
 1790POPC   C4B26410  15.808  38.166   7.534
 1791POPC   NC326411  18.313   4.903   9.821
 1791POPC   PO426412  18.919   5.103   9.643
 1791POPC   GL126413  18.603   4.943   9.303
 1791POPC   GL226414  18.243   4.926   9.284
 1791POPC   C1A26415  18.487   4.917   8.844
 1791POPC   D2A26416  18.244   5.143   8.508
 1791POPC   C3A26417  18.408   5.012   8.114
 1791POPC   C4A26418  18.289   4.830   7.726
 1791POPC   C1B26419  17.980   4.896   8.904
 1791POPC   C2B26420  17.978   4.712   8.474
 1791POPC   C3B26421  17.912   4.924   8.083
 1791POPC   C4B26422  17.797   5.173   7.706
 1792POPC   NC326423  15.321  36.946   9.440
 1792POPC   PO426424  14.678  37.170   9.425
 1792POPC   GL126425  14.945  37.137   9.048
 1792POPC   GL226426  15.099  36.811   8.994
 1792POPC   C1A26427  15.327  37.197   8.756
 1792POPC   D2A26428  15.497  36.994   8.380
 1792POPC   C3A26429  15.164  36.909   8.111
 1792POPC   C4A26430  14.918  36.990   7.742
 1792POPC   C1B26431  15.487  36.646   8.779
 1792POPC   C2B26432  15.528  36.439   8.363
 1792POPC   C3B26433  15.593  36.590   7.966
 1792POPC   C4B26434  15.310  36.692   7.660
 1793POPC   NC326435   2.556  36.287   9.454
 1793POPC   PO426436   3.157  36.453   9.504
 1793POPC   GL126437   2.959  36.384   9.118
 1793POPC   GL226438   3.051  36.039   9.110
 1793POPC   C1A26439   2.712  36.369   8.719
 1793POPC   D2A26440   2.405  36.388   8.364
 1793POPC   C3A26441   2.591  36.331   7.954
 1793POPC   C4A26442   2.571  35.941   7.720
 1793POPC   C1B26443   2.962  35.927   8.659
 1793POPC   C2B26444   2.960  35.975   8.195
 1793POPC   C3B26445   2.974  35.651   7.870
 1793POPC   C4B26446   2.887  35.597   7.428
 1794POPC   NC326447  28.359  39.897   9.285
 1794POPC   PO426448  28.025  40.375   9.654
 1794POPC   GL126449  28.129  40.338   9.173
 1794POPC   GL226450  28.470  40.415   9.001
 1794POPC   C1A26451  28.123  40.127   8.739
 1794POPC   D2A26452  28.276  40.284   8.376
 1794POPC   C3A26453  28.164  40.015   8.028
 1794POPC   C4A26454  28.170  39.794   7.628
 1794POPC   C1B26455  28.656  40.110   8.724
 1794POPC   C2B26456  28.566  39.866   8.369
 1794POPC   C3B26457  28.667  39.997   7.953
 1794POPC   C4B26458  28.664  39.854   7.524
 1795POPC   NC326459  34.178  44.514   9.427
 1795POPC   PO426460  34.669  44.948   9.459
 1795POPC   GL126461  34.634  44.679   9.119
 1795POPC   GL226462  34.612  44.360   9.232
 1795POPC   C1A26463  34.564  44.708   8.681
 1795POPC   D2A26464  34.642  44.753   8.238
 1795POPC   C3A26465  34.342  44.524   7.967
 1795POPC   C4A26466  34.203  44.557   7.548
 1795POPC   C1B26467  34.717  44.227   8.839
 1795POPC   C2B26468  34.798  44.306   8.436
 1795POPC   C3B26469  34.941  44.404   8.042
 1795POPC   C4B26470  34.772  44.692   7.723
 1796POPC   NC326471  35.777  23.728   9.463
 1796POPC   PO426472  35.177  23.426   9.466
 1796POPC   GL126473  35.325  23.749   9.172
 1796POPC   GL226474  35.624  23.710   8.998
 1796POPC   C1A26475  35.220  23.838   8.747
 1796POPC   D2A26476  35.261  24.021   8.377
 1796POPC   C3A26477  35.113  23.719   8.078
 1796POPC   C4A26478  35.042  23.546   7.673
 1796POPC   C1B26479  35.736  24.048   8.795
 1796POPC   C2B26480  35.848  24.017   8.379
 1796POPC   C3B26481  35.615  23.849   8.064
 1796POPC   C4B26482  35.579  23.615   7.722
 1797POPC   NC326483  11.951  23.936   9.668
 1797POPC   PO426484  12.449  23.518   9.599
 1797POPC   GL126485  12.187  23.627   9.234
 1797POPC   GL226486  11.969  23.894   9.161
 1797POPC   C1A26487  12.294  23.573   8.797
 1797POPC   D2A26488  12.147  23.732   8.402
 1797POPC   C3A26489  12.272  23.525   8.042
 1797POPC   C4A26490  12.378  23.690   7.665
 1797POPC   C1B26491  11.788  23.890   8.755
 1797POPC   C2B26492  11.820  24.135   8.363
 1797POPC   C3B26493  11.998  23.991   7.972
 1797POPC   C4B26494  11.895  23.898   7.530
 1798POPC   NC326495  20.677  32.640   9.390
 1798POPC   PO426496  20.732  31.975   9.520
 1798POPC   GL126497  20.593  32.193   9.105
 1798POPC   GL226498  20.375  32.476   9.016
 1798POPC   C1A26499  20.732  32.115   8.670
 1798POPC   D2A26500  20.588  32.066   8.265
 1798POPC   C3A26501  20.690  32.283   7.887
 1798POPC   C4A26502  20.568  32.120   7.488
 1798POPC   C1B26503  20.399  32.468   8.574
 1798POPC   C2B26504  20.263  32.482   8.165
 1798POPC   C3B26505  20.238  32.454   7.726
 1798POPC   C4B26506  20.558  32.612   7.439
 1799POPC   NC326507  43.983  26.399   9.617
 1799POPC   PO426508  43.675  27.009   9.540
 1799POPC   GL126509  43.867  26.918   9.165
 1799POPC   GL226510  43.825  27.279   9.095
 1799POPC   C1A26511  43.931  26.701   8.750
 1799POPC   D2A26512  44.159  26.727   8.359
 1799POPC   C3A26513  44.001  27.051   8.089
 1799POPC   C4A26514  43.794  26.781   7.804
 1799POPC   C1B26515  43.523  27.036   8.808
 1799POPC   C2B26516  43.594  26.917   8.373
 1799POPC   C3B26517  43.453  27.103   7.955
 1799POPC   C4B26518  43.627  27.147   7.487
 1800POPC   NC326519   3.497  13.053   9.500
 1800POPC   PO426520   3.658  12.390   9.556
 1800POPC   GL126521   3.537  12.593   9.162
 1800POPC   GL226522   3.620  12.923   9.024
 1800POPC   C1A26523   3.604  12.457   8.748
 1800POPC   D2A26524   3.800  12.693   8.420
 1800POPC   C3A26525   3.679  12.630   8.020
 1800POPC   C4A26526   3.712  12.720   7.604
 1800POPC   C1B26527   3.295  12.876   8.718
 1800POPC   C2B26528   3.296  12.864   8.277
 1800POPC   C3B26529   3.474  13.077   7.923
 1800POPC   C4B26530   3.326  13.361   7.652
 1801POPC   NC326531   0.353   1.308   9.571
 1801POPC   PO426532   0.424   0.700   9.487
 1801POPC   GL126533   0.287   0.821   9.099
 1801POPC   GL226534   0.142   1.123   9.127
 1801POPC   C1A26535   0.494   0.916   8.708
 1801POPC   D2A26536   0.788   1.035   8.356
 1801POPC   C3A26537   0.667   0.958   7.936
 1801POPC   C4A26538   0.346   1.088   7.704
 1801POPC   C1B26539   0.024   1.425   8.769
 1801POPC   C2B26540   0.135   1.488   8.316
 1801POPC   C3B26541   0.115   1.509   7.865
 1801POPC   C4B26542  44.988   1.689   7.475
 1802POPC   NC326543  31.652  44.597   9.553
 1802POPC   PO426544  30.956  44.566   9.570
 1802POPC   GL126545  31.270  44.504   9.204
 1802POPC   GL226546  31.497  44.216   9.239
 1802POPC   C1A26547  31.320  44.675   8.764
 1802POPC   D2A26548  31.183  44.714   8.319
 1802POPC   C3A26549  31.400  44.786   7.937
 1802POPC   C4A26550  31.733  44.992   7.697
 1802POPC   C1B26551  31.558  44.227   8.792
 1802POPC   C2B26552  31.607  44.449   8.392
 1802POPC   C3B26553  31.786  44.431   8.012
 1802POPC   C4B26554  31.771  44.092   7.721
 1803POPC   NC326555   1.942   8.705   9.567
 1803POPC   PO426556   2.558   8.825   9.510
 1803POPC   GL126557   2.209   8.900   9.180
 1803POPC   GL226558   1.817   9.018   9.182
 1803POPC   C1A26559   2.135   8.893   8.749
 1803POPC   D2A26560   2.156   8.672   8.360
 1803POPC   C3A26561   2.239   8.846   7.972
 1803POPC   C4A26562   2.103   8.790   7.565
 1803POPC   C1B26563   1.674   9.189   8.775
 1803POPC   C2B26564   1.760   9.024   8.364
 1803POPC   C3B26565   1.737   8.920   7.941
 1803POPC   C4B26566   1.807   9.218   7.587
 1804POPC   NC326567   9.301  14.047   9.477
 1804POPC   PO426568   9.223  13.353   9.475
 1804POPC   GL126569   9.121  13.643   9.207
 1804POPC   GL226570   8.787  13.668   9.240
 1804POPC   C1A26571   9.156  13.759   8.805
 1804POPC   D2A26572   9.337  13.601   8.439
 1804POPC   C3A26573   9.191  13.769   8.055
 1804POPC   C4A26574   9.210  13.567   7.677
 1804POPC   C1B26575   8.665  13.557   8.833
 1804POPC   C2B26576   8.818  13.584   8.415
 1804POPC   C3B26577   8.839  13.368   8.012
 1804POPC   C4B26578   8.684  13.572   7.652
 1805POPC   NC326579   6.813   6.371   9.645
 1805POPC   PO426580   6.511   5.744   9.681
 1805POPC   GL126581   6.342   5.991   9.344
 1805POPC   GL226582   6.352   5.717   9.113
 1805POPC   C1A26583   6.420   6.193   8.972
 1805POPC   D2A26584   6.346   5.955   8.592
 1805POPC   C3A26585   6.587   6.093   8.244
 1805POPC   C4A26586   6.466   6.146   7.842
 1805POPC   C1B26587   6.776   5.811   8.919
 1805POPC   C2B26588   7.045   5.626   8.559
 1805POPC   C3B26589   7.075   5.598   8.075
 1805POPC   C4B26590   6.921   5.389   7.691
 1806POPC   NC326591   6.909   8.916   9.587
 1806POPC   PO426592   6.834   8.380   9.177
 1806POPC   GL126593   6.688   8.856   9.135
 1806POPC   GL226594   6.911   9.156   9.126
 1806POPC   C1A26595   6.581   9.036   8.716
 1806POPC   D2A26596   6.684   8.781   8.331
 1806POPC   C3A26597   6.471   8.696   7.932
 1806POPC   C4A26598   6.533   8.837   7.500
 1806POPC   C1B26599   6.953   9.408   8.741
 1806POPC   C2B26600   6.806   9.427   8.297
 1806POPC   C3B26601   6.757   9.133   7.937
 1806POPC   C4B26602   6.738   9.277   7.508
 1807POPC   NC326603   6.244  33.125   9.418
 1807POPC   PO426604   6.794  32.734   9.352
 1807POPC   GL126605   6.820  32.869   8.965
 1807POPC   GL226606   6.462  32.866   8.913
 1807POPC   C1A26607   6.933  33.118   8.616
 1807POPC   D2A26608   6.588  33.010   8.399
 1807POPC   C3A26609   6.639  32.794   8.035
 1807POPC   C4A26610   6.740  32.604   7.651
 1807POPC   C1B26611   6.496  33.334   8.801
 1807POPC   C2B26612   6.417  33.480   8.365
 1807POPC   C3B26613   6.293  33.192   8.023
 1807POPC   C4B26614   6.438  33.019   7.618
 1808POPC   NC326615  39.147  39.509   9.523
 1808POPC   PO426616  38.686  38.954   9.493
 1808POPC   GL126617  38.916  39.243   9.129
 1808POPC   GL226618  39.242  39.476   9.045
 1808POPC   C1A26619  38.978  39.280   8.661
 1808POPC   D2A26620  39.155  38.939   8.406
 1808POPC   C3A26621  39.204  39.009   7.976
 1808POPC   C4A26622  38.970  39.341   7.796
 1808POPC   C1B26623  39.523  39.431   8.704
 1808POPC   C2B26624  39.522  39.321   8.259
 1808POPC   C3B26625  39.481  39.453   7.804
 1808POPC   C4B26626  39.581  39.660   7.390
 1809POPC   NC326627   6.769  29.443   9.585
 1809POPC   PO426628   7.405  29.219   9.485
 1809POPC   GL126629   7.287  29.188   9.102
 1809POPC   GL226630   7.053  29.473   9.158
 1809POPC   C1A26631   7.573  29.187   8.752
 1809POPC   D2A26632   7.582  29.434   8.386
 1809POPC   C3A26633   7.435  29.233   8.063
 1809POPC   C4A26634   7.616  29.249   7.696
 1809POPC   C1B26635   7.219  29.552   8.744
 1809POPC   C2B26636   7.032  29.496   8.336
 1809POPC   C3B26637   7.052  29.509   7.884
 1809POPC   C4B26638   7.159  29.598   7.461
 1810POPC   NC326639   8.030  24.427  10.034
 1810POPC   PO426640   8.344  24.378   9.407
 1810POPC   GL126641   8.356  24.407   8.982
 1810POPC   GL226642   8.135  24.713   8.961
 1810POPC   C1A26643   8.413  24.535   8.563
 1810POPC   D2A26644   8.141  24.699   8.301
 1810POPC   C3A26645   8.170  24.480   7.913
 1810POPC   C4A26646   7.890  24.723   7.691
 1810POPC   C1B26647   8.262  25.077   8.704
 1810POPC   C2B26648   8.564  25.022   8.396
 1810POPC   C3B26649   8.536  24.849   8.012
 1810POPC   C4B26650   8.714  24.558   7.753
 1811POPC   NC326651  38.973  10.262   9.343
 1811POPC   PO426652  38.308  10.234   9.502
 1811POPC   GL126653  38.335  10.500   9.130
 1811POPC   GL226654  38.689  10.600   9.067
 1811POPC   C1A26655  38.348  10.636   8.705
 1811POPC   D2A26656  38.590  10.542   8.311
 1811POPC   C3A26657  38.346  10.462   7.911
 1811POPC   C4A26658  38.236  10.711   7.555
 1811POPC   C1B26659  38.722  10.252   8.726
 1811POPC   C2B26660  38.771  10.067   8.277
 1811POPC   C3B26661  38.851  10.340   7.911
 1811POPC   C4B26662  38.710  10.782   7.828
 1812POPC   NC326663  42.961  29.311   9.491
 1812POPC   PO426664  43.569  29.372   9.305
 1812POPC   GL126665  43.303  29.213   9.026
 1812POPC   GL226666  43.048  28.986   9.109
 1812POPC   C1A26667  43.389  28.963   8.673
 1812POPC   D2A26668  43.324  29.195   8.300
 1812POPC   C3A26669  43.436  29.055   7.897
 1812POPC   C4A26670  43.413  29.368   7.559
 1812POPC   C1B26671  42.894  29.017   8.700
 1812POPC   C2B26672  43.028  28.781   8.321
 1812POPC   C3B26673  42.929  28.927   7.898
 1812POPC   C4B26674  43.072  29.017   7.456
 1813POPC   NC326675  10.910   0.656   9.588
 1813POPC   PO426676  10.191   0.418   9.614
 1813POPC   GL126677  10.383   0.500   9.200
 1813POPC   GL226678  10.707   0.381   9.199
 1813POPC   C1A26679  10.511   0.419   8.733
 1813POPC   D2A26680  10.255   0.397   8.382
 1813POPC   C3A26681  10.465   0.195   8.098
 1813POPC   C4A26682  10.505   0.337   7.689
 1813POPC   C1B26683  10.958   0.166   8.857
 1813POPC   C2B26684  10.937   0.280   8.424
 1813POPC   C3B26685  10.945   0.305   7.993
 1813POPC   C4B26686  10.900  44.990   7.713
 1814POPC   NC326687  14.954  20.104   9.561
 1814POPC   PO426688  15.435  19.684   9.319
 1814POPC   GL126689  15.068  19.815   9.087
 1814POPC   GL226690  15.110  20.162   9.052
 1814POPC   C1A26691  15.142  19.830   8.647
 1814POPC   D2A26692  15.490  19.817   8.394
 1814POPC   C3A26693  15.450  19.958   8.001
 1814POPC   C4A26694  15.211  19.788   7.673
 1814POPC   C1B26695  15.075  20.330   8.619
 1814POPC   C2B26696  14.996  20.109   8.224
 1814POPC   C3B26697  15.050  20.244   7.803
 1814POPC   C4B26698  15.063  20.158   7.358
 1815POPC   NC326699  13.922   9.544   9.555
 1815POPC   PO426700  14.478   9.857   9.659
 1815POPC   GL126701  14.300   9.948   9.220
 1815POPC   GL226702  14.221   9.628   9.147
 1815POPC   C1A26703  14.336  10.023   8.761
 1815POPC   D2A26704  14.138   9.873   8.375
 1815POPC   C3A26705  14.373   9.818   7.976
 1815POPC   C4A26706  14.238   9.860   7.557
 1815POPC   C1B26707  14.324   9.503   8.753
 1815POPC   C2B26708  14.373   9.428   8.358
 1815POPC   C3B26709  14.490   9.262   8.010
 1815POPC   C4B26710  14.315   9.373   7.680
 1816POPC   NC326711   8.662  31.284   9.553
 1816POPC   PO426712   9.095  31.807   9.655
 1816POPC   GL126713   8.818  31.631   9.237
 1816POPC   GL226714   8.875  31.319   9.072
 1816POPC   C1A26715   8.716  31.699   8.784
 1816POPC   D2A26716   8.720  31.967   8.457
 1816POPC   C3A26717   8.954  31.823   8.098
 1816POPC   C4A26718   8.664  31.603   7.880
 1816POPC   C1B26719   8.979  31.175   8.646
 1816POPC   C2B26720   9.166  31.227   8.228
 1816POPC   C3B26721   8.997  31.236   7.803
 1816POPC   C4B26722   9.129  31.278   7.392
 1817POPC   NC326723   9.631  16.532   9.672
 1817POPC   PO426724  10.060  16.956   9.621
 1817POPC   GL126725   9.730  16.896   9.298
 1817POPC   GL226726   9.654  16.567   9.158
 1817POPC   C1A26727   9.647  16.972   8.859
 1817POPC   D2A26728   9.810  16.831   8.488
 1817POPC   C3A26729   9.638  16.931   8.115
 1817POPC   C4A26730   9.779  16.934   7.714
 1817POPC   C1B26731  10.005  16.513   8.826
 1817POPC   C2B26732  10.237  16.578   8.451
 1817POPC   C3B26733  10.034  16.603   8.053
 1817POPC   C4B26734   9.965  16.444   7.646
 1818POPC   NC326735  27.462   4.359   9.712
 1818POPC   PO426736  26.773   4.248   9.521
 1818POPC   GL126737  26.929   4.227   9.114
 1818POPC   GL226738  27.278   4.309   9.135
 1818POPC   C1A26739  26.675   4.259   8.733
 1818POPC   D2A26740  26.527   3.998   8.424
 1818POPC   C3A26741  26.513   4.172   8.011
 1818POPC   C4A26742  26.440   4.586   7.764
 1818POPC   C1B26743  27.186   4.385   8.677
 1818POPC   C2B26744  26.966   4.263   8.291
 1818POPC   C3B26745  26.915   4.453   7.890
 1818POPC   C4B26746  26.906   4.394   7.436
 1819POPC   NC326747  11.403  39.202   9.648
 1819POPC   PO426748  10.899  39.225   9.409
 1819POPC   GL126749  11.253  39.065   9.116
 1819POPC   GL226750  11.609  38.999   9.197
 1819POPC   C1A26751  11.364  39.054   8.642
 1819POPC   D2A26752  11.388  39.334   8.253
 1819POPC   C3A26753  11.284  39.161   7.846
 1819POPC   C4A26754  11.159  38.992   7.435
 1819POPC   C1B26755  11.824  39.170   8.808
 1819POPC   C2B26756  11.886  39.369   8.358
 1819POPC   C3B26757  11.758  39.389   7.885
 1819POPC   C4B26758  11.628  39.205   7.478
 1820POPC   NC326759  27.602  20.461   9.458
 1820POPC   PO426760  28.017  20.982   9.621
 1820POPC   GL126761  27.937  20.908   9.174
 1820POPC   GL226762  27.859  20.565   9.036
 1820POPC   C1A26763  28.095  20.888   8.737
 1820POPC   D2A26764  28.221  20.705   8.358
 1820POPC   C3A26765  27.889  20.613   8.096
 1820POPC   C4A26766  27.638  20.762   7.773
 1820POPC   C1B26767  27.542  20.386   8.717
 1820POPC   C2B26768  27.415  20.579   8.339
 1820POPC   C3B26769  27.264  20.412   7.978
 1820POPC   C4B26770  27.265  19.991   7.810
 1821POPC   NC326771   7.832  27.228   9.537
 1821POPC   PO426772   8.238  27.767   9.589
 1821POPC   GL126773   8.093  27.571   9.215
 1821POPC   GL226774   8.308  27.328   9.150
 1821POPC   C1A26775   7.971  27.580   8.775
 1821POPC   D2A26776   8.123  27.556   8.373
 1821POPC   C3A26777   7.920  27.637   7.979
 1821POPC   C4A26778   7.970  27.539   7.571
 1821POPC   C1B26779   8.489  27.545   8.767
 1821POPC   C2B26780   8.599  27.320   8.375
 1821POPC   C3B26781   8.331  27.275   8.022
 1821POPC   C4B26782   8.400  27.658   7.865
 1822POPC   NC326783  12.397  23.057   9.505
 1822POPC   PO426784  11.710  22.772   9.605
 1822POPC   GL126785  11.991  22.873   9.268
 1822POPC   GL226786  11.916  23.220   9.351
 1822POPC   C1A26787  12.122  22.914   8.838
 1822POPC   D2A26788  12.039  22.780   8.408
 1822POPC   C3A26789  12.107  23.013   8.037
 1822POPC   C4A26790  11.994  22.817   7.651
 1822POPC   C1B26791  11.849  23.350   8.916
 1822POPC   C2B26792  11.909  23.288   8.470
 1822POPC   C3B26793  11.781  23.466   8.057
 1822POPC   C4B26794  12.001  23.354   7.638
 1823POPC   NC326795  42.053  37.916   9.439
 1823POPC   PO426796  41.400  38.121   9.499
 1823POPC   GL126797  41.462  37.846   9.122
 1823POPC   GL226798  41.722  37.948   9.084
 1823POPC   C1A26799  41.580  37.589   8.752
 1823POPC   D2A26800  41.615  37.302   8.415
 1823POPC   C3A26801  41.729  37.474   8.073
 1823POPC   C4A26802  41.542  37.451   7.660
 1823POPC   C1B26803  41.884  38.026   8.711
 1823POPC   C2B26804  41.715  37.964   8.326
 1823POPC   C3B26805  41.850  38.050   7.925
 1823POPC   C4B26806  41.684  37.930   7.564
 1824POPC   NC326807  11.664   8.828   9.528
 1824POPC   PO426808  10.945   8.661   9.485
 1824POPC   GL126809  11.224   8.855   9.162
 1824POPC   GL226810  11.557   8.942   9.045
 1824POPC   C1A26811  11.186   8.866   8.706
 1824POPC   D2A26812  11.186   9.022   8.309
 1824POPC   C3A26813  11.218   8.815   7.918
 1824POPC   C4A26814  11.184   8.947   7.481
 1824POPC   C1B26815  11.545   8.549   8.862
 1824POPC   C2B26816  11.466   8.512   8.429
 1824POPC   C3B26817  11.495   8.397   7.994
 1824POPC   C4B26818  11.559   8.634   7.574
 1825POPC   NC326819  20.717   2.410   9.461
 1825POPC   PO426820  20.198   2.715   9.471
 1825POPC   GL126821  20.438   2.688   9.101
 1825POPC   GL226822  20.522   2.343   9.010
 1825POPC   C1A26823  20.544   2.699   8.667
 1825POPC   D2A26824  20.553   2.513   8.259
 1825POPC   C3A26825  20.649   2.823   7.947
 1825POPC   C4A26826  20.485   2.795   7.526
 1825POPC   C1B26827  20.866   2.249   8.727
 1825POPC   C2B26828  20.990   2.236   8.294
 1825POPC   C3B26829  20.860   2.387   7.834
 1825POPC   C4B26830  20.950   2.428   7.382
 1826POPC   NC326831  31.946  18.649   9.532
 1826POPC   PO426832  32.385  18.092   9.441
 1826POPC   GL126833  32.039  18.262   9.180
 1826POPC   GL226834  32.191  18.581   9.077
 1826POPC   C1A26835  31.808  18.377   8.791
 1826POPC   D2A26836  32.002  18.642   8.493
 1826POPC   C3A26837  31.929  18.551   8.070
 1826POPC   C4A26838  32.008  18.423   7.651
 1826POPC   C1B26839  32.318  18.291   8.754
 1826POPC   C2B26840  32.376  18.244   8.342
 1826POPC   C3B26841  32.656  18.421   8.069
 1826POPC   C4B26842  32.510  18.427   7.666
 1827POPC   NC326843  25.375  28.878   9.509
 1827POPC   PO426844  25.133  29.515   9.511
 1827POPC   GL126845  25.131  29.220   9.158
 1827POPC   GL226846  25.437  29.003   9.040
 1827POPC   C1A26847  25.042  29.140   8.731
 1827POPC   D2A26848  25.239  28.965   8.371
 1827POPC   C3A26849  25.210  29.219   7.995
 1827POPC   C4A26850  24.816  29.364   7.792
 1827POPC   C1B26851  25.553  29.227   8.731
 1827POPC   C2B26852  25.707  29.132   8.332
 1827POPC   C3B26853  25.585  28.855   8.012
 1827POPC   C4B26854  25.466  28.953   7.630
 1828POPC   NC326855  39.445  21.021   9.472
 1828POPC   PO426856  39.349  21.669   9.326
 1828POPC   GL126857  39.432  21.324   9.056
 1828POPC   GL226858  39.120  21.185   9.104
 1828POPC   C1A26859  39.371  21.280   8.630
 1828POPC   D2A26860  39.263  21.605   8.353
 1828POPC   C3A26861  39.385  21.496   7.943
 1828POPC   C4A26862  39.394  21.687   7.535
 1828POPC   C1B26863  38.899  21.459   8.850
 1828POPC   C2B26864  38.779  21.480   8.444
 1828POPC   C3B26865  38.840  21.639   8.013
 1828POPC   C4B26866  38.960  21.459   7.661
 1829POPC   NC326867  34.456  26.723   9.490
 1829POPC   PO426868  34.912  27.258   9.349
 1829POPC   GL126869  34.640  26.948   9.095
 1829POPC   GL226870  34.302  27.049   8.985
 1829POPC   C1A26871  34.584  26.612   8.749
 1829POPC   D2A26872  34.598  26.323   8.352
 1829POPC   C3A26873  34.452  26.467   7.932
 1829POPC   C4A26874  34.748  26.622   7.604
 1829POPC   C1B26875  34.644  27.124   8.626
 1829POPC   C2B26876  34.810  27.214   8.228
 1829POPC   C3B26877  34.548  26.980   7.936
 1829POPC   C4B26878  34.110  27.001   7.808
 1830POPC   NC326879  41.232  44.178   9.478
 1830POPC   PO426880  41.675  43.612   9.369
 1830POPC   GL126881  41.432  43.831   9.044
 1830POPC   GL226882  41.489  44.213   9.037
 1830POPC   C1A26883  41.475  43.587   8.658
 1830POPC   D2A26884  41.663  43.517   8.238
 1830POPC   C3A26885  41.441  43.673   7.856
 1830POPC   C4A26886  41.593  43.574   7.423
 1830POPC   C1B26887  41.426  44.222   8.622
 1830POPC   C2B26888  41.142  44.330   8.324
 1830POPC   C3B26889  41.314  44.201   7.944
 1830POPC   C4B26890  41.742  44.296   7.772
 1831POPC   NC326891  21.006  44.459   9.448
 1831POPC   PO426892  21.674  44.657   9.533
 1831POPC   GL126893  21.556  44.697   9.135
 1831POPC   GL226894  21.395  44.389   9.124
 1831POPC   C1A26895  21.538  44.591   8.679
 1831POPC   D2A26896  21.713  44.470   8.278
 1831POPC   C3A26897  21.485  44.625   7.955
 1831POPC   C4A26898  21.378  44.905   7.612
 1831POPC   C1B26899  21.141  44.265   8.771
 1831POPC   C2B26900  21.201  44.395   8.343
 1831POPC   C3B26901  21.071  44.276   7.945
 1831POPC   C4B26902  21.210  44.430   7.573
 1832POPC   NC326903   2.423  12.149   9.525
 1832POPC   PO426904   2.936  11.701   9.492
 1832POPC   GL126905   2.669  11.875   9.167
 1832POPC   GL226906   2.740  12.231   9.122
 1832POPC   C1A26907   2.535  11.957   8.754
 1832POPC   D2A26908   2.710  12.183   8.438
 1832POPC   C3A26909   2.566  12.007   8.075
 1832POPC   C4A26910   2.758  11.724   7.767
 1832POPC   C1B26911   3.104  12.407   8.894
 1832POPC   C2B26912   3.201  12.392   8.431
 1832POPC   C3B26913   3.178  12.457   7.967
 1832POPC   C4B26914   2.740  12.377   7.791
 1833POPC   NC326915  25.586  40.498   9.836
 1833POPC   PO426916  25.048  40.620   9.534
 1833POPC   GL126917  25.295  40.815   9.168
 1833POPC   GL226918  25.538  40.578   9.140
 1833POPC   C1A26919  25.543  40.924   8.779
 1833POPC   D2A26920  25.414  40.800   8.376
 1833POPC   C3A26921  25.271  41.082   8.089
 1833POPC   C4A26922  25.034  40.834   7.812
 1833POPC   C1B26923  25.472  40.366   8.737
 1833POPC   C2B26924  25.621  40.315   8.316
 1833POPC   C3B26925  25.569  40.548   7.920
 1833POPC   C4B26926  25.534  40.923   7.671
 1834POPC   NC326927  34.880   7.133   9.527
 1834POPC   PO426928  35.442   7.623   9.527
 1834POPC   GL126929  35.455   7.456   9.097
 1834POPC   GL226930  35.672   7.143   9.025
 1834POPC   C1A26931  35.337   7.636   8.644
 1834POPC   D2A26932  35.336   7.477   8.220
 1834POPC   C3A26933  35.240   7.706   7.820
 1834POPC   C4A26934  35.475   8.003   7.562
 1834POPC   C1B26935  35.254   7.147   8.760
 1834POPC   C2B26936  34.987   7.137   8.370
 1834POPC   C3B26937  34.972   7.266   7.909
 1834POPC   C4B26938  35.190   7.267   7.470
 1835POPC   NC326939   6.012  33.958   9.677
 1835POPC   PO426940   5.844  33.354   9.509
 1835POPC   GL126941   5.920  33.703   9.237
 1835POPC   GL226942   5.701  33.525   9.007
 1835POPC   C1A26943   5.804  34.011   8.901
 1835POPC   D2A26944   5.636  33.854   8.480
 1835POPC   C3A26945   5.690  34.020   8.056
 1835POPC   C4A26946   5.825  33.946   7.644
 1835POPC   C1B26947   6.052  33.602   8.740
 1835POPC   C2B26948   6.136  33.905   8.420
 1835POPC   C3B26949   6.141  33.750   8.005
 1835POPC   C4B26950   6.145  33.480   7.641
 1836POPC   NC326951   6.587  43.390   9.495
 1836POPC   PO426952   6.311  42.730   9.483
 1836POPC   GL126953   6.552  42.987   9.180
 1836POPC   GL226954   6.891  43.090   9.203
 1836POPC   C1A26955   6.516  43.264   8.811
 1836POPC   D2A26956   6.669  43.383   8.400
 1836POPC   C3A26957   6.463  43.253   8.014
 1836POPC   C4A26958   6.204  43.218   7.663
 1836POPC   C1B26959   7.036  43.316   8.857
 1836POPC   C2B26960   7.137  43.171   8.473
 1836POPC   C3B26961   7.070  43.013   8.072
 1836POPC   C4B26962   6.913  43.211   7.750
 1837POPC   NC326963  36.224  22.130   9.607
 1837POPC   PO426964  36.698  22.588   9.516
 1837POPC   GL126965  36.374  22.414   9.174
 1837POPC   GL226966  36.309  22.039   9.134
 1837POPC   C1A26967  36.366  22.268   8.709
 1837POPC   D2A26968  36.276  21.994   8.396
 1837POPC   C3A26969  36.087  22.218   8.076
 1837POPC   C4A26970  36.285  22.348   7.708
 1837POPC   C1B26971  36.029  21.867   8.811
 1837POPC   C2B26972  35.780  21.935   8.410
 1837POPC   C3B26973  35.881  21.758   8.025
 1837POPC   C4B26974  36.178  21.854   7.705
 1838POPC   NC326975  28.725   8.074   9.441
 1838POPC   PO426976  28.202   8.330   9.728
 1838POPC   GL126977  28.268   8.129   9.210
 1838POPC   GL226978  28.479   7.876   9.018
 1838POPC   C1A26979  28.441   8.285   8.748
 1838POPC   D2A26980  28.495   8.098   8.335
 1838POPC   C3A26981  28.435   8.408   8.020
 1838POPC   C4A26982  28.047   8.582   7.880
 1838POPC   C1B26983  28.089   7.907   8.761
 1838POPC   C2B26984  28.050   7.824   8.333
 1838POPC   C3B26985  28.184   7.933   7.925
 1838POPC   C4B26986  28.381   7.751   7.549
 1839POPC   NC326987  44.060  10.424   9.605
 1839POPC   PO426988  43.386  10.206   9.551
 1839POPC   GL126989  43.707  10.335   9.191
 1839POPC   GL226990  44.076  10.461   9.116
 1839POPC   C1A26991  43.873  10.158   8.772
 1839POPC   D2A26992  44.029  10.294   8.340
 1839POPC   C3A26993  43.702  10.462   8.069
 1839POPC   C4A26994  43.719  10.498   7.642
 1839POPC   C1B26995  44.020  10.648   8.725
 1839POPC   C2B26996  43.969  10.820   8.325
 1839POPC   C3B26997  44.072  10.804   7.893
 1839POPC   C4B26998  44.039  10.822   7.423
 1840POPC   NC326999   8.686  16.460   9.359
 1840POPC   PO427000   8.819  15.840   9.520
 1840POPC   GL127001   9.049  15.738   9.193
 1840POPC   GL227002   8.796  16.005   9.030
 1840POPC   C1A27003   9.214  15.873   8.803
 1840POPC   D2A27004   8.976  15.988   8.456
 1840POPC   C3A27005   9.248  16.069   8.126
 1840POPC   C4A27006   9.390  15.813   7.801
 1840POPC   C1B27007   8.594  16.279   8.703
 1840POPC   C2B27008   8.526  16.176   8.251
 1840POPC   C3B27009   8.739  15.915   7.962
 1840POPC   C4B27010   8.991  16.141   7.690
 1841POPC   NC327011  32.944  36.925   9.523
 1841POPC   PO427012  33.363  37.320   9.375
 1841POPC   GL127013  33.032  37.160   9.090
 1841POPC   GL227014  32.663  37.001   9.119
 1841POPC   C1A27015  32.960  37.006   8.702
 1841POPC   D2A27016  32.923  37.160   8.305
 1841POPC   C3A27017  33.140  36.816   8.070
 1841POPC   C4A27018  33.294  36.926   7.670
 1841POPC   C1B27019  32.487  36.855   8.729
 1841POPC   C2B27020  32.608  36.770   8.321
 1841POPC   C3B27021  32.685  36.861   7.884
 1841POPC   C4B27022  32.828  36.936   7.426
 1842POPC   NC327023  17.569  10.770   9.482
 1842POPC   PO427024  17.892  11.331   9.505
 1842POPC   GL127025  17.484  11.370   9.225
 1842POPC   GL227026  17.379  11.047   9.095
 1842POPC   C1A27027  17.421  11.407   8.756
 1842POPC   D2A27028  17.594  11.189   8.400
 1842POPC   C3A27029  17.500  11.257   7.957
 1842POPC   C4A27030  17.540  11.418   7.535
 1842POPC   C1B27031  17.573  10.818   8.762
 1842POPC   C2B27032  17.868  10.749   8.448
 1842POPC   C3B27033  17.913  10.959   8.060
 1842POPC   C4B27034  17.710  10.892   7.667
 1843POPC   NC327035  43.779  41.961   9.671
 1843POPC   PO427036  43.960  42.626   9.714
 1843POPC   GL127037  43.872  42.447   9.271
 1843POPC   GL227038  43.838  42.081   9.157
 1843POPC   C1A27039  43.861  42.469   8.802
 1843POPC   D2A27040  44.075  42.469   8.390
 1843POPC   C3A27041  43.824  42.433   8.015
 1843POPC   C4A27042  43.803  42.383   7.582
 1843POPC   C1B27043  43.616  42.002   8.793
 1843POPC   C2B27044  43.723  42.106   8.416
 1843POPC   C3B27045  44.058  42.004   8.170
 1843POPC   C4B27046  44.109  41.943   7.758
 1844POPC   NC327047  23.804  30.165   9.432
 1844POPC   PO427048  23.436  29.662   9.574
 1844POPC   GL127049  23.590  29.833   9.113
 1844POPC   GL227050  23.947  29.869   9.048
 1844POPC   C1A27051  23.590  30.023   8.685
 1844POPC   D2A27052  23.661  30.195   8.255
 1844POPC   C3A27053  23.585  29.889   7.906
 1844POPC   C4A27054  23.470  29.879   7.482
 1844POPC   C1B27055  23.982  29.692   8.687
 1844POPC   C2B27056  23.898  29.729   8.278
 1844POPC   C3B27057  24.104  29.725   7.874
 1844POPC   C4B27058  23.982  29.895   7.450
 1845POPC   NC327059  27.992  39.897   9.769
 1845POPC   PO427060  27.298  39.689   9.627
 1845POPC   GL127061  27.209  39.816   9.200
 1845POPC   GL227062  27.253  40.178   9.136
 1845POPC   C1A27063  27.375  39.764   8.810
 1845POPC   D2A27064  27.624  39.916   8.496
 1845POPC   C3A27065  27.447  39.883   8.110
 1845POPC   C4A27066  27.679  40.063   7.822
 1845POPC   C1B27067  27.648  40.248   8.914
 1845POPC   C2B27068  27.769  40.413   8.510
 1845POPC   C3B27069  27.896  40.449   8.101
 1845POPC   C4B27070  27.903  40.497   7.676
 1846POPC   NC327071  15.873   6.395   9.525
 1846POPC   PO427072  15.756   7.019   9.412
 1846POPC   GL127073  15.878   6.686   9.102
 1846POPC   GL227074  16.152   6.421   9.104
 1846POPC   C1A27075  15.921   6.664   8.658
 1846POPC   D2A27076  16.114   6.854   8.285
 1846POPC   C3A27077  15.870   6.772   7.884
 1846POPC   C4A27078  15.862   6.567   7.464
 1846POPC   C1B27079  16.310   6.335   8.701
 1846POPC   C2B27080  16.178   6.278   8.293
 1846POPC   C3B27081  16.328   6.525   7.956
 1846POPC   C4B27082  16.395   6.421   7.542
 1847POPC   NC327083  26.519  11.715   9.627
 1847POPC   PO427084  26.182  12.339   9.476
 1847POPC   GL127085  26.058  12.033   9.184
 1847POPC   GL227086  25.845  11.696   9.276
 1847POPC   C1A27087  26.080  12.233   8.773
 1847POPC   D2A27088  25.758  12.272   8.480
 1847POPC   C3A27089  25.935  12.264   8.096
 1847POPC   C4A27090  26.205  12.166   7.771
 1847POPC   C1B27091  26.148  11.603   8.922
 1847POPC   C2B27092  26.179  11.787   8.518
 1847POPC   C3B27093  26.082  11.763   8.095
 1847POPC   C4B27094  26.123  11.646   7.680
 1848POPC   NC327095  13.736  35.918   9.434
 1848POPC   PO427096  14.206  36.433   9.377
 1848POPC   GL127097  13.836  36.289   9.089
 1848POPC   GL227098  13.470  36.296   9.212
 1848POPC   C1A27099  13.735  36.159   8.649
 1848POPC   D2A27100  13.938  36.064   8.232
 1848POPC   C3A27101  13.853  36.325   7.857
 1848POPC   C4A27102  13.929  36.278   7.420
 1848POPC   C1B27103  13.229  36.252   8.840
 1848POPC   C2B27104  13.327  36.389   8.441
 1848POPC   C3B27105  13.456  36.160   8.117
 1848POPC   C4B27106  13.379  36.023   7.717
 1849POPC   NC327107  13.423  12.533   9.492
 1849POPC   PO427108  13.902  13.074   9.465
 1849POPC   GL127109  13.820  12.938   9.132
 1849POPC   GL227110  13.493  12.932   9.171
 1849POPC   C1A27111  13.842  13.137   8.752
 1849POPC   D2A27112  13.790  12.971   8.369
 1849POPC   C3A27113  13.918  13.182   8.043
 1849POPC   C4A27114  13.706  13.125   7.690
 1849POPC   C1B27115  13.534  12.730   8.767
 1849POPC   C2B27116  13.306  12.819   8.406
 1849POPC   C3B27117  13.422  12.801   7.996
 1849POPC   C4B27118  13.171  12.555   7.736
 1850POPC   NC327119  12.542   4.786   9.616
 1850POPC   PO427120  13.017   5.332   9.600
 1850POPC   GL127121  12.900   5.264   9.186
 1850POPC   GL227122  12.748   4.943   9.152
 1850POPC   C1A27123  13.098   5.315   8.804
 1850POPC   D2A27124  13.068   5.117   8.416
 1850POPC   C3A27125  12.818   5.357   8.123
 1850POPC   C4A27126  12.972   5.294   7.712
 1850POPC   C1B27127  12.651   5.113   8.745
 1850POPC   C2B27128  12.534   4.978   8.341
 1850POPC   C3B27129  12.615   4.896   7.899
 1850POPC   C4B27130  12.439   4.933   7.451
 1851POPC   NC327131  19.976   3.109   9.541
 1851POPC   PO427132  19.468   2.664   9.568
 1851POPC   GL127133  19.527   2.545   9.154
 1851POPC   GL227134  19.783   2.796   9.140
 1851POPC   C1A27135  19.603   2.616   8.687
 1851POPC   D2A27136  19.760   2.921   8.384
 1851POPC   C3A27137  19.567   2.992   8.027
 1851POPC   C4A27138  19.655   3.118   7.642
 1851POPC   C1B27139  20.053   2.949   8.805
 1851POPC   C2B27140  20.263   3.008   8.380
 1851POPC   C3B27141  20.147   2.880   7.964
 1851POPC   C4B27142  20.164   3.189   7.624
 1852POPC   NC327143  38.384  20.524   9.760
 1852POPC   PO427144  38.834  20.955   9.456
 1852POPC   GL127145  38.637  20.675   9.162
 1852POPC   GL227146  38.277  20.705   9.215
 1852POPC   C1A27147  38.703  20.524   8.717
 1852POPC   D2A27148  38.911  20.550   8.291
 1852POPC   C3A27149  38.655  20.655   7.925
 1852POPC   C4A27150  38.548  20.474   7.533
 1852POPC   C1B27151  38.239  20.352   8.899
 1852POPC   C2B27152  38.315  20.315   8.434
 1852POPC   C3B27153  38.166  20.449   8.036
 1852POPC   C4B27154  38.136  20.210   7.668
 1853POPC   NC327155  41.534  11.059   9.596
 1853POPC   PO427156  41.525  11.616   9.559
 1853POPC   GL127157  41.525  11.340   9.163
 1853POPC   GL227158  41.362  11.001   9.123
 1853POPC   C1A27159  41.620  11.223   8.727
 1853POPC   D2A27160  41.471  11.325   8.312
 1853POPC   C3A27161  41.759  11.194   7.991
 1853POPC   C4A27162  42.160  11.268   7.751
 1853POPC   C1B27163  41.346  10.786   8.728
 1853POPC   C2B27164  41.486  10.815   8.307
 1853POPC   C3B27165  41.300  10.981   7.917
 1853POPC   C4B27166  41.232  11.016   7.467
 1854POPC   NC327167  40.994  27.487   9.528
 1854POPC   PO427168  40.626  28.127   9.564
 1854POPC   GL127169  40.707  27.847   9.154
 1854POPC   GL227170  41.035  27.721   9.085
 1854POPC   C1A27171  40.740  27.643   8.695
 1854POPC   D2A27172  40.667  27.888   8.281
 1854POPC   C3A27173  40.824  27.813   7.843
 1854POPC   C4A27174  40.582  27.726   7.464
 1854POPC   C1B27175  41.147  27.324   8.882
 1854POPC   C2B27176  41.089  27.194   8.461
 1854POPC   C3B27177  41.015  27.124   8.004
 1854POPC   C4B27178  40.628  27.050   7.796
 1855POPC   NC327179  12.556  22.074   9.410
 1855POPC   PO427180  13.207  22.133   9.406
 1855POPC   GL127181  12.982  22.048   9.054
 1855POPC   GL227182  12.768  22.321   9.036
 1855POPC   C1A27183  12.901  22.038   8.611
 1855POPC   D2A27184  12.662  22.048   8.228
 1855POPC   C3A27185  12.919  21.948   7.872
 1855POPC   C4A27186  12.841  21.882   7.425
 1855POPC   C1B27187  12.833  22.534   8.665
 1855POPC   C2B27188  12.953  22.493   8.284
 1855POPC   C3B27189  12.756  22.449   7.894
 1855POPC   C4B27190  12.528  22.792   7.685
 1856POPC   NC327191  34.884  23.056   9.405
 1856POPC   PO427192  34.285  22.628   9.445
 1856POPC   GL127193  34.467  22.738   9.080
 1856POPC   GL227194  34.434  23.073   9.027
 1856POPC   C1A27195  34.304  22.763   8.661
 1856POPC   D2A27196  34.337  23.081   8.371
 1856POPC   C3A27197  34.498  22.879   8.022
 1856POPC   C4A27198  34.394  22.907   7.621
 1856POPC   C1B27199  34.799  23.081   8.753
 1856POPC   C2B27200  34.936  23.401   8.473
 1856POPC   C3B27201  34.809  23.300   8.064
 1856POPC   C4B27202  34.877  23.069   7.684
 1857POPC   NC327203  28.004   6.393   9.564
 1857POPC   PO427204  28.426   6.878   9.311
 1857POPC   GL127205  28.438   6.561   9.015
 1857POPC   GL227206  28.178   6.339   9.107
 1857POPC   C1A27207  28.375   6.628   8.553
 1857POPC   D2A27208  28.388   6.920   8.213
 1857POPC   C3A27209  28.494   6.663   7.910
 1857POPC   C4A27210  28.678   6.286   8.014
 1857POPC   C1B27211  28.221   6.175   8.740
 1857POPC   C2B27212  28.029   6.256   8.353
 1857POPC   C3B27213  28.165   6.261   7.938
 1857POPC   C4B27214  28.227   6.444   7.544
 1858POPC   NC327215  10.848   5.807   9.618
 1858POPC   PO427216  11.521   5.821   9.614
 1858POPC   GL127217  11.263   5.985   9.260
 1858POPC   GL227218  10.950   6.189   9.257
 1858POPC   C1A27219  11.273   6.025   8.834
 1858POPC   D2A27220  11.363   5.729   8.500
 1858POPC   C3A27221  11.610   5.875   8.131
 1858POPC   C4A27222  11.472   5.859   7.699
 1858POPC   C1B27223  10.771   6.079   8.825
 1858POPC   C2B27224  10.957   6.086   8.424
 1858POPC   C3B27225  11.108   5.983   8.042
 1858POPC   C4B27226  10.961   6.146   7.663
 1859POPC   NC327227  14.811  10.952   9.395
 1859POPC   PO427228  15.385  11.313   9.389
 1859POPC   GL127229  15.352  11.112   9.033
 1859POPC   GL227230  15.013  11.213   9.018
 1859POPC   C1A27231  15.309  11.242   8.598
 1859POPC   D2A27232  15.309  11.542   8.247
 1859POPC   C3A27233  15.094  11.371   7.897
 1859POPC   C4A27234  15.325  11.010   7.850
 1859POPC   C1B27235  14.953  10.880   8.723
 1859POPC   C2B27236  14.921  10.663   8.306
 1859POPC   C3B27237  14.670  10.769   7.961
 1859POPC   C4B27238  14.734  11.067   7.632
 1860POPC   NC327239  14.176  26.792   9.243
 1860POPC   PO427240  14.765  26.992   9.366
 1860POPC   GL127241  14.590  26.851   8.985
 1860POPC   GL227242  14.575  26.483   9.128
 1860POPC   C1A27243  14.370  26.834   8.600
 1860POPC   D2A27244  14.152  27.012   8.264
 1860POPC   C3A27245  14.390  26.905   7.949
 1860POPC   C4A27246  14.392  27.085   7.539
 1860POPC   C1B27247  14.373  26.342   8.761
 1860POPC   C2B27248  14.482  26.403   8.346
 1860POPC   C3B27249  14.330  26.366   7.939
 1860POPC   C4B27250  14.505  26.561   7.596
 1861POPC   NC327251  10.902  17.788   9.308
 1861POPC   PO427252  10.956  17.156   9.552
 1861POPC   GL127253  11.238  17.271   9.199
 1861POPC   GL227254  11.507  17.513   9.299
 1861POPC   C1A27255  11.491  17.244   8.817
 1861POPC   D2A27256  11.339  17.372   8.415
 1861POPC   C3A27257  11.467  17.298   8.005
 1861POPC   C4A27258  11.288  17.508   7.632
 1861POPC   C1B27259  11.430  17.748   8.911
 1861POPC   C2B27260  11.539  17.823   8.494
 1861POPC   C3B27261  11.364  17.798   8.100
 1861POPC   C4B27262  11.392  18.004   7.741
 1862POPC   NC327263  32.424  21.175   9.686
 1862POPC   PO427264  32.170  21.699   9.447
 1862POPC   GL127265  32.308  21.478   9.092
 1862POPC   GL227266  32.227  21.143   9.153
 1862POPC   C1A27267  32.227  21.387   8.642
 1862POPC   D2A27268  32.099  21.638   8.283
 1862POPC   C3A27269  32.343  21.693   7.905
 1862POPC   C4A27270  32.130  21.748   7.511
 1862POPC   C1B27271  31.934  20.983   8.803
 1862POPC   C2B27272  31.978  20.893   8.362
 1862POPC   C3B27273  32.247  21.157   8.098
 1862POPC   C4B27274  32.356  21.214   7.654
 1863POPC   NC327275   4.046  17.113   9.639
 1863POPC   PO427276   4.373  16.579   9.520
 1863POPC   GL127277   4.172  16.838   9.196
 1863POPC   GL227278   3.991  17.164   9.125
 1863POPC   C1A27279   4.471  16.934   8.882
 1863POPC   D2A27280   4.461  16.725   8.483
 1863POPC   C3A27281   4.581  16.912   8.112
 1863POPC   C4A27282   4.299  16.931   7.767
 1863POPC   C1B27283   4.034  17.058   8.671
 1863POPC   C2B27284   4.048  16.956   8.234
 1863POPC   C3B27285   3.870  17.163   7.858
 1863POPC   C4B27286   3.950  17.039   7.406
 1864POPC   NC327287  44.675  11.880   9.566
 1864POPC   PO427288  44.340  12.471   9.603
 1864POPC   GL127289  44.628  12.258   9.206
 1864POPC   GL227290  44.702  11.875   9.086
 1864POPC   C1A27291  44.715  12.238   8.735
 1864POPC   D2A27292  44.684  12.406   8.313
 1864POPC   C3A27293  44.711  12.289   7.876
 1864POPC   C4A27294  44.660  12.327   7.449
 1864POPC   C1B27295  44.580  11.751   8.724
 1864POPC   C2B27296  44.724  11.870   8.345
 1864POPC   C3B27297  44.619  11.780   7.959
 1864POPC   C4B27298  44.820  11.862   7.595
 1865POPC   NC327299  36.567   8.768   9.571
 1865POPC   PO427300  37.251   8.904   9.667
 1865POPC   GL127301  37.189   8.944   9.237
 1865POPC   GL227302  36.825   8.921   9.157
 1865POPC   C1A27303  37.196   9.013   8.802
 1865POPC   D2A27304  36.911   9.211   8.487
 1865POPC   C3A27305  36.993   9.133   8.026
 1865POPC   C4A27306  36.852   9.091   7.571
 1865POPC   C1B27307  36.750   8.776   8.727
 1865POPC   C2B27308  36.706   8.768   8.294
 1865POPC   C3B27309  36.806   8.681   7.896
 1865POPC   C4B27310  36.573   8.613   7.582
 1866POPC   NC327311   0.621  13.964   9.388
 1866POPC   PO427312   0.375  14.525   9.704
 1866POPC   GL127313   0.414  14.501   9.234
 1866POPC   GL227314   0.500  14.792   9.018
 1866POPC   C1A27315   0.226  14.386   8.814
 1866POPC   D2A27316   0.387  14.137   8.435
 1866POPC   C3A27317   0.267  14.304   8.032
 1866POPC   C4A27318   0.499  14.583   7.776
 1866POPC   C1B27319   0.724  14.380   8.855
 1866POPC   C2B27320   0.976  14.115   8.600
 1866POPC   C3B27321   0.937  14.167   8.147
 1866POPC   C4B27322   0.610  13.947   7.885
 1867POPC   NC327323  36.318  24.757   9.397
 1867POPC   PO427324  36.026  24.110   9.416
 1867POPC   GL127325  36.110  24.366   9.066
 1867POPC   GL227326  35.864  24.639   9.091
 1867POPC   C1A27327  36.002  24.444   8.627
 1867POPC   D2A27328  35.976  24.720   8.331
 1867POPC   C3A27329  35.974  24.536   7.950
 1867POPC   C4A27330  36.342  24.367   7.732
 1867POPC   C1B27331  36.087  24.900   8.801
 1867POPC   C2B27332  36.427  24.912   8.501
 1867POPC   C3B27333  36.454  24.699   8.096
 1867POPC   C4B27334  36.298  24.857   7.666
 1868POPC   NC327335  35.150  32.014   9.331
 1868POPC   PO427336  35.290  32.572   9.357
 1868POPC   GL127337  35.532  32.494   9.031
 1868POPC   GL227338  35.653  32.166   9.120
 1868POPC   C1A27339  35.475  32.310   8.631
 1868POPC   D2A27340  35.289  32.239   8.253
 1868POPC   C3A27341  35.525  32.391   7.921
 1868POPC   C4A27342  35.436  32.246   7.554
 1868POPC   C1B27343  35.511  31.830   8.830
 1868POPC   C2B27344  35.540  31.793   8.388
 1868POPC   C3B27345  35.440  31.854   7.925
 1868POPC   C4B27346  35.298  31.766   7.488
 1869POPC   NC327347  44.989   9.340   9.552
 1869POPC   PO427348   0.614   9.035   9.514
 1869POPC   GL127349   0.367   9.108   9.191
 1869POPC   GL227350   0.408   8.776   9.071
 1869POPC   C1A27351   0.536   9.229   8.797
 1869POPC   D2A27352   0.703   9.069   8.415
 1869POPC   C3A27353   0.366   9.109   8.115
 1869POPC   C4A27354   0.447   9.200   7.682
 1869POPC   C1B27355   0.342   8.757   8.647
 1869POPC   C2B27356   0.396   8.622   8.261
 1869POPC   C3B27357   0.368   8.686   7.823
 1869POPC   C4B27358   0.262   8.601   7.367
 1870POPC   NC327359  25.060  18.089   9.536
 1870POPC   PO427360  25.491  18.563   9.554
 1870POPC   GL127361  25.247  18.478   9.184
 1870POPC   GL227362  25.233  18.121   9.073
 1870POPC   C1A27363  25.285  18.521   8.753
 1870POPC   D2A27364  25.230  18.330   8.372
 1870POPC   C3A27365  25.326  18.568   7.999
 1870POPC   C4A27366  25.340  18.396   7.654
 1870POPC   C1B27367  25.023  17.932   8.720
 1870POPC   C2B27368  24.842  18.002   8.305
 1870POPC   C3B27369  25.101  18.044   7.933
 1870POPC   C4B27370  25.054  17.985   7.467
 1871POPC   NC327371  12.830  27.073   9.527
 1871POPC   PO427372  12.672  27.723   9.571
 1871POPC   GL127373  12.945  27.659   9.229
 1871POPC   GL227374  12.728  27.395   9.155
 1871POPC   C1A27375  12.944  27.628   8.773
 1871POPC   D2A27376  12.676  27.561   8.440
 1871POPC   C3A27377  12.796  27.687   8.013
 1871POPC   C4A27378  12.634  27.839   7.619
 1871POPC   C1B27379  12.570  27.209   8.813
 1871POPC   C2B27380  12.680  27.019   8.476
 1871POPC   C3B27381  12.745  27.183   8.100
 1871POPC   C4B27382  12.528  27.321   7.723
 1872POPC   NC327383  18.587  25.997   9.490
 1872POPC   PO427384  19.208  25.608   9.506
 1872POPC   GL127385  18.978  25.855   9.159
 1872POPC   GL227386  18.898  26.164   9.123
 1872POPC   C1A27387  19.226  26.017   8.788
 1872POPC   D2A27388  19.425  26.230   8.435
 1872POPC   C3A27389  19.369  26.030   8.019
 1872POPC   C4A27390  19.230  26.155   7.604
 1872POPC   C1B27391  18.719  26.238   8.752
 1872POPC   C2B27392  18.899  26.145   8.387
 1872POPC   C3B27393  18.863  26.234   7.978
 1872POPC   C4B27394  18.803  25.877   7.725
 1873POPC   NC327395  44.065  23.049   9.511
 1873POPC   PO427396  43.588  23.380   9.845
 1873POPC   GL127397  43.693  23.304   9.317
 1873POPC   GL227398  44.002  23.382   9.117
 1873POPC   C1A27399  43.582  23.053   8.935
 1873POPC   D2A27400  43.682  22.837   8.536
 1873POPC   C3A27401  43.720  23.087   8.150
 1873POPC   C4A27402  43.613  22.830   7.792
 1873POPC   C1B27403  44.113  22.985   8.864
 1873POPC   C2B27404  44.154  22.624   8.580
 1873POPC   C3B27405  44.028  22.663   8.149
 1873POPC   C4B27406  44.108  22.959   7.779
 1874POPC   NC327407  24.333  23.301   9.525
 1874POPC   PO427408  24.265  22.660   9.581
 1874POPC   GL127409  24.449  22.838   9.221
 1874POPC   GL227410  24.188  23.039   9.113
 1874POPC   C1A27411  24.655  22.934   8.807
 1874POPC   D2A27412  24.576  23.096   8.385
 1874POPC   C3A27413  24.481  22.922   7.959
 1874POPC   C4A27414  24.759  22.616   7.749
 1874POPC   C1B27415  24.231  23.267   8.727
 1874POPC   C2B27416  24.176  23.466   8.319
 1874POPC   C3B27417  24.109  23.317   7.894
 1874POPC   C4B27418  23.967  23.383   7.455
 1875POPC   NC327419  14.178   4.559   9.551
 1875POPC   PO427420  14.747   4.299   9.594
 1875POPC   GL127421  14.476   4.239   9.233
 1875POPC   GL227422  14.280   4.474   9.070
 1875POPC   C1A27423  14.483   4.052   8.826
 1875POPC   D2A27424  14.294   4.225   8.470
 1875POPC   C3A27425  14.526   4.215   8.080
 1875POPC   C4A27426  14.469   4.183   7.638
 1875POPC   C1B27427  14.524   4.630   8.729
 1875POPC   C2B27428  14.446   4.695   8.270
 1875POPC   C3B27429  14.380   4.665   7.815
 1875POPC   C4B27430  14.292   4.661   7.359
 1876POPC   NC327431  29.544  26.080   9.608
 1876POPC   PO427432  28.988  25.711   9.607
 1876POPC   GL127433  29.332  25.739   9.317
 1876POPC   GL227434  29.126  26.017   9.201
 1876POPC   C1A27435  29.447  25.782   8.888
 1876POPC   D2A27436  29.158  25.724   8.570
 1876POPC   C3A27437  29.251  25.764   8.161
 1876POPC   C4A27438  29.053  25.836   7.772
 1876POPC   C1B27439  29.150  26.209   8.793
 1876POPC   C2B27440  28.968  26.165   8.409
 1876POPC   C3B27441  29.161  26.291   8.068
 1876POPC   C4B27442  29.295  26.387   7.689
 1877POPC   NC327443  15.937  17.779   9.674
 1877POPC   PO427444  16.416  17.382   9.616
 1877POPC   GL127445  16.072  17.530   9.236
 1877POPC   GL227446  15.839  17.839   9.165
 1877POPC   C1A27447  15.728  17.446   8.873
 1877POPC   D2A27448  15.656  17.518   8.398
 1877POPC   C3A27449  16.054  17.393   8.158
 1877POPC   C4A27450  16.195  17.384   7.705
 1877POPC   C1B27451  16.108  17.769   8.763
 1877POPC   C2B27452  16.345  17.811   8.381
 1877POPC   C3B27453  16.267  17.861   7.966
 1877POPC   C4B27454  15.880  17.757   7.869
 1878POPC   NC327455  36.002  36.669   9.440
 1878POPC   PO427456  36.333  37.357   9.590
 1878POPC   GL127457  36.261  37.185   9.140
 1878POPC   GL227458  36.265  36.831   9.047
 1878POPC   C1A27459  36.368  37.210   8.719
 1878POPC   D2A27460  36.158  36.968   8.415
 1878POPC   C3A27461  36.323  37.057   8.015
 1878POPC   C4A27462  36.190  37.089   7.624
 1878POPC   C1B27463  35.965  36.602   8.774
 1878POPC   C2B27464  35.854  36.521   8.343
 1878POPC   C3B27465  35.963  36.713   7.961
 1878POPC   C4B27466  36.014  36.611   7.559
 1879POPC   NC327467  26.849  33.501   9.432
 1879POPC   PO427468  26.779  34.213   9.445
 1879POPC   GL127469  26.789  34.061   9.043
 1879POPC   GL227470  26.591  33.722   9.041
 1879POPC   C1A27471  26.677  34.008   8.624
 1879POPC   D2A27472  26.575  33.632   8.469
 1879POPC   C3A27473  26.597  33.609   8.033
 1879POPC   C4A27474  26.743  33.865   7.696
 1879POPC   C1B27475  26.975  33.577   8.797
 1879POPC   C2B27476  27.024  33.366   8.395
 1879POPC   C3B27477  27.129  33.526   8.002
 1879POPC   C4B27478  26.919  33.394   7.660
 1880POPC   NC327479   0.334  44.839   9.526
 1880POPC   PO427480   0.680  44.499   9.178
 1880POPC   GL127481   0.272  44.631   9.045
 1880POPC   GL227482   0.076  44.890   9.094
 1880POPC   C1A27483   0.031  44.512   8.706
 1880POPC   D2A27484   0.187  44.355   8.341
 1880POPC   C3A27485   0.267  44.650   8.058
 1880POPC   C4A27486   0.660  44.695   7.914
 1880POPC   C1B27487   0.304  44.961   8.669
 1880POPC   C2B27488   0.545   0.041   8.281
 1880POPC   C3B27489   0.383   0.120   7.871
 1880POPC   C4B27490   0.309   0.104   7.441
 1881POPC   NC327491   0.085   6.970   9.750
 1881POPC   PO427492  44.494   7.233   9.516
 1881POPC   GL127493  44.580   7.248   9.112
 1881POPC   GL227494  44.925   7.148   9.135
 1881POPC   C1A27495  44.634   7.421   8.751
 1881POPC   D2A27496  44.834   7.485   8.407
 1881POPC   C3A27497  44.567   7.632   8.113
 1881POPC   C4A27498  44.504   7.537   7.702
 1881POPC   C1B27499   0.123   7.210   8.750
 1881POPC   C2B27500   0.083   7.027   8.334
 1881POPC   C3B27501  44.914   7.227   7.975
 1881POPC   C4B27502  44.995   7.442   7.591
 1882POPC   NC327503  22.055  43.276   9.639
 1882POPC   PO427504  21.908  42.685   9.392
 1882POPC   GL127505  22.023  43.022   9.145
 1882POPC   GL227506  22.360  43.018   9.167
 1882POPC   C1A27507  22.119  43.043   8.705
 1882POPC   D2A27508  22.310  42.975   8.329
 1882POPC   C3A27509  22.130  43.128   8.022
 1882POPC   C4A27510  22.040  42.956   7.651
 1882POPC   C1B27511  22.423  43.388   8.898
 1882POPC   C2B27512  22.369  43.471   8.450
 1882POPC   C3B27513  22.541  43.450   8.021
 1882POPC   C4B27514  22.361  43.363   7.625
 1883POPC   NC327515  42.927  19.530   9.619
 1883POPC   PO427516  43.396  20.028   9.743
 1883POPC   GL127517  43.331  19.822   9.336
 1883POPC   GL227518  43.383  19.448   9.375
 1883POPC   C1A27519  43.120  19.981   8.930
 1883POPC   D2A27520  43.272  20.019   8.490
 1883POPC   C3A27521  43.332  19.892   8.051
 1883POPC   C4A27522  43.078  19.956   7.677
 1883POPC   C1B27523  43.260  19.504   8.924
 1883POPC   C2B27524  42.987  19.585   8.576
 1883POPC   C3B27525  42.939  19.543   8.142
 1883POPC   C4B27526  42.678  19.651   7.814
 1884POPC   NC327527  37.724  28.587   9.687
 1884POPC   PO427528  38.086  28.007   9.545
 1884POPC   GL127529  37.889  28.323   9.276
 1884POPC   GL227530  37.627  28.227   9.122
 1884POPC   C1A27531  37.934  28.481   8.826
 1884POPC   D2A27532  37.753  28.589   8.404
 1884POPC   C3A27533  37.925  28.495   7.961
 1884POPC   C4A27534  37.752  28.518   7.457
 1884POPC   C1B27535  37.460  28.270   8.707
 1884POPC   C2B27536  37.405  28.198   8.258
 1884POPC   C3B27537  37.477  28.308   7.822
 1884POPC   C4B27538  37.490  28.082   7.391
 1885POPC   NC327539  13.693  11.985   9.834
 1885POPC   PO427540  13.198  12.120   9.532
 1885POPC   GL127541  13.611  12.076   9.281
 1885POPC   GL227542  13.744  12.416   9.126
 1885POPC   C1A27543  13.749  11.834   8.883
 1885POPC   D2A27544  13.497  11.786   8.474
 1885POPC   C3A27545  13.658  11.762   8.052
 1885POPC   C4A27546  13.647  11.950   7.642
 1885POPC   C1B27547  13.478  12.238   8.823
 1885POPC   C2B27548  13.539  12.324   8.430
 1885POPC   C3B27549  13.524  12.277   8.029
 1885POPC   C4B27550  13.655  12.458   7.680
 1886POPC   NC327551  41.505  30.185   9.589
 1886POPC   PO427552  41.638  29.485   9.503
 1886POPC   GL127553  41.460  29.784   9.234
 1886POPC   GL227554  41.744  29.941   9.146
 1886POPC   C1A27555  41.411  29.938   8.790
 1886POPC   D2A27556  41.615  29.961   8.435
 1886POPC   C3A27557  41.337  30.056   8.122
 1886POPC   C4A27558  41.470  29.929   7.715
 1886POPC   C1B27559  41.744  29.568   8.791
 1886POPC   C2B27560  41.898  29.541   8.354
 1886POPC   C3B27561  41.789  29.500   7.910
 1886POPC   C4B27562  41.792  29.611   7.438
 1887POPC   NC327563   3.330   7.770   9.716
 1887POPC   PO427564   3.689   7.274   9.527
 1887POPC   GL127565   3.527   7.501   9.179
 1887POPC   GL227566   3.692   7.817   9.152
 1887POPC   C1A27567   3.405   7.460   8.750
 1887POPC   D2A27568   3.568   7.334   8.379
 1887POPC   C3A27569   3.517   7.554   7.993
 1887POPC   C4A27570   3.326   7.466   7.627
 1887POPC   C1B27571   3.576   7.956   8.735
 1887POPC   C2B27572   3.706   7.830   8.376
 1887POPC   C3B27573   3.919   7.880   8.030
 1887POPC   C4B27574   3.707   7.908   7.640
 1888POPC   NC327575   1.201  15.582   9.847
 1888POPC   PO427576   1.217  15.015   9.478
 1888POPC   GL127577   1.270  15.322   9.159
 1888POPC   GL227578   1.112  15.616   9.271
 1888POPC   C1A27579   1.333  15.269   8.740
 1888POPC   D2A27580   1.205  15.047   8.405
 1888POPC   C3A27581   1.257  15.177   8.006
 1888POPC   C4A27582   1.393  14.916   7.694
 1888POPC   C1B27583   1.037  15.676   8.789
 1888POPC   C2B27584   1.112  15.569   8.324
 1888POPC   C3B27585   1.015  15.640   7.834
 1888POPC   C4B27586   1.031  15.575   7.362
 1889POPC   NC327587   1.625   7.206   9.332
 1889POPC   PO427588   2.335   7.540   9.444
 1889POPC   GL127589   2.091   7.372   9.126
 1889POPC   GL227590   1.797   7.571   9.040
 1889POPC   C1A27591   2.057   7.174   8.723
 1889POPC   D2A27592   1.957   7.150   8.260
 1889POPC   C3A27593   2.178   7.441   7.977
 1889POPC   C4A27594   2.143   7.525   7.522
 1889POPC   C1B27595   1.631   7.465   8.625
 1889POPC   C2B27596   1.522   7.423   8.164
 1889POPC   C3B27597   1.734   7.332   7.766
 1889POPC   C4B27598   1.633   7.420   7.327
 1890POPC   NC327599   4.515   6.422   9.397
 1890POPC   PO427600   3.970   6.709   9.560
 1890POPC   GL127601   4.137   6.835   9.096
 1890POPC   GL227602   4.447   6.655   8.939
 1890POPC   C1A27603   4.308   7.080   8.719
 1890POPC   D2A27604   4.618   6.884   8.393
 1890POPC   C3A27605   4.380   6.779   8.015
 1890POPC   C4A27606   3.945   6.715   7.852
 1890POPC   C1B27607   4.706   6.416   8.653
 1890POPC   C2B27608   4.550   6.327   8.234
 1890POPC   C3B27609   4.479   6.302   7.791
 1890POPC   C4B27610   4.615   6.092   7.407
 1891POPC   NC327611  43.596  36.048   9.535
 1891POPC   PO427612  44.202  35.814   9.532
 1891POPC   GL127613  44.036  36.061   9.181
 1891POPC   GL227614  44.114  35.826   8.923
 1891POPC   C1A27615  44.035  36.298   8.772
 1891POPC   D2A27616  43.973  36.060   8.376
 1891POPC   C3A27617  44.038  36.306   8.018
 1891POPC   C4A27618  43.951  36.232   7.598
 1891POPC   C1B27619  43.699  35.924   8.781
 1891POPC   C2B27620  43.454  36.074   8.424
 1891POPC   C3B27621  43.623  35.970   8.009
 1891POPC   C4B27622  43.506  35.947   7.603
 1892POPC   NC327623  29.414  43.858   9.749
 1892POPC   PO427624  30.012  43.878   9.487
 1892POPC   GL127625  29.862  43.691   9.131
 1892POPC   GL227626  29.541  43.830   9.248
 1892POPC   C1A27627  29.843  43.635   8.663
 1892POPC   D2A27628  29.691  43.627   8.211
 1892POPC   C3A27629  29.925  43.854   7.912
 1892POPC   C4A27630  30.001  43.778   7.459
 1892POPC   C1B27631  29.400  43.807   8.844
 1892POPC   C2B27632  29.566  44.030   8.503
 1892POPC   C3B27633  29.557  44.166   8.103
 1892POPC   C4B27634  29.767  44.270   7.697
 1893POPC   NC327635  27.158  15.115   9.626
 1893POPC   PO427636  26.838  15.476   9.172
 1893POPC   GL127637  26.674  15.051   9.117
 1893POPC   GL227638  27.002  14.946   9.159
 1893POPC   C1A27639  26.580  14.920   8.712
 1893POPC   D2A27640  26.731  15.263   8.455
 1893POPC   C3A27641  26.705  15.217   8.035
 1893POPC   C4A27642  26.802  15.327   7.625
 1893POPC   C1B27643  27.079  14.926   8.707
 1893POPC   C2B27644  26.905  14.798   8.287
 1893POPC   C3B27645  27.058  14.892   7.840
 1893POPC   C4B27646  27.248  14.833   7.402
 1894POPC   NC327647  37.618  43.588   9.393
 1894POPC   PO427648  37.566  44.243   9.442
 1894POPC   GL127649  37.605  44.016   9.061
 1894POPC   GL227650  37.938  43.941   9.066
 1894POPC   C1A27651  37.694  44.028   8.599
 1894POPC   D2A27652  37.547  43.933   8.172
 1894POPC   C3A27653  37.816  43.964   7.807
 1894POPC   C4A27654  37.997  44.102   7.389
 1894POPC   C1B27655  37.995  43.625   8.764
 1894POPC   C2B27656  37.839  43.553   8.370
 1894POPC   C3B27657  38.009  43.506   7.953
 1894POPC   C4B27658  37.924  43.162   7.695
 1895POPC   NC327659  37.119  31.540   9.455
 1895POPC   PO427660  36.458  31.203   9.423
 1895POPC   GL127661  36.776  31.380   9.102
 1895POPC   GL227662  37.031  31.150   9.119
 1895POPC   C1A27663  36.972  31.679   8.771
 1895POPC   D2A27664  37.140  31.855   8.323
 1895POPC   C3A27665  36.964  31.614   7.996
 1895POPC   C4A27666  36.871  31.714   7.590
 1895POPC   C1B27667  37.225  30.973   8.781
 1895POPC   C2B27668  37.166  30.884   8.385
 1895POPC   C3B27669  37.280  30.985   7.981
 1895POPC   C4B27670  37.124  31.240   7.663
 1896POPC   NC327671  18.453  35.939   9.373
 1896POPC   PO427672  18.352  35.290   9.541
 1896POPC   GL127673  18.126  35.110   9.176
 1896POPC   GL227674  18.452  35.043   9.060
 1896POPC   C1A27675  18.013  35.118   8.745
 1896POPC   D2A27676  18.286  35.161   8.384
 1896POPC   C3A27677  18.082  35.205   7.966
 1896POPC   C4A27678  18.035  35.116   7.532
 1896POPC   C1B27679  18.379  35.461   8.890
 1896POPC   C2B27680  18.464  35.689   8.519
 1896POPC   C3B27681  18.406  35.586   8.100
 1896POPC   C4B27682  18.368  35.493   7.656
 1897POPC   NC327683  30.825  23.334   9.435
 1897POPC   PO427684  30.756  22.675   9.844
 1897POPC   GL127685  30.838  22.691   9.310
 1897POPC   GL227686  30.660  22.998   9.105
 1897POPC   C1A27687  30.900  22.678   8.810
 1897POPC   D2A27688  30.733  22.989   8.485
 1897POPC   C3A27689  30.938  23.053   8.079
 1897POPC   C4A27690  31.008  22.774   7.728
 1897POPC   C1B27691  30.405  23.279   8.799
 1897POPC   C2B27692  30.307  23.418   8.388
 1897POPC   C3B27693  30.425  23.209   8.003
 1897POPC   C4B27694  30.277  23.371   7.614
 1898POPC   NC327695  11.921   3.789   9.416
 1898POPC   PO427696  12.376   3.222   9.402
 1898POPC   GL127697  12.190   3.466   9.107
 1898POPC   GL227698  11.848   3.406   9.050
 1898POPC   C1A27699  12.221   3.606   8.704
 1898POPC   D2A27700  12.250   3.419   8.337
 1898POPC   C3A27701  12.269   3.599   7.948
 1898POPC   C4A27702  12.447   3.521   7.534
 1898POPC   C1B27703  11.736   3.711   8.784
 1898POPC   C2B27704  11.760   3.462   8.463
 1898POPC   C3B27705  11.778   3.473   8.049
 1898POPC   C4B27706  11.841   3.802   7.760
 1899POPC   NC327707  43.273   1.026   9.622
 1899POPC   PO427708  43.051   1.655   9.505
 1899POPC   GL127709  43.022   1.270   9.195
 1899POPC   GL227710  43.319   1.017   9.136
 1899POPC   C1A27711  43.097   1.209   8.732
 1899POPC   D2A27712  43.248   1.457   8.394
 1899POPC   C3A27713  43.003   1.416   8.034
 1899POPC   C4A27714  43.123   1.659   7.685
 1899POPC   C1B27715  43.553   0.892   8.799
 1899POPC   C2B27716  43.614   1.097   8.427
 1899POPC   C3B27717  43.483   1.007   7.999
 1899POPC   C4B27718  43.274   1.184   7.668
 1900POPC   NC327719  18.954  42.059   9.598
 1900POPC   PO427720  19.489  42.023   9.229
 1900POPC   GL127721  19.103  42.264   9.161
 1900POPC   GL227722  19.000  42.617   9.244
 1900POPC   C1A27723  18.848  42.307   8.819
 1900POPC   D2A27724  19.061  42.315   8.421
 1900POPC   C3A27725  18.840  42.228   8.052
 1900POPC   C4A27726  18.972  42.121   7.642
 1900POPC   C1B27727  19.185  42.719   8.833
 1900POPC   C2B27728  19.133  42.820   8.394
 1900POPC   C3B27729  19.118  42.656   7.958
 1900POPC   C4B27730  18.903  42.702   7.547
 1901POPC   NC327731  27.372  42.107   9.861
 1901POPC   PO427732  27.586  42.102   9.265
 1901POPC   GL127733  27.607  42.447   9.099
 1901POPC   GL227734  27.272  42.497   9.103
 1901POPC   C1A27735  27.610  42.657   8.729
 1901POPC   D2A27736  27.618  42.458   8.314
 1901POPC   C3A27737  27.847  42.536   7.960
 1901POPC   C4A27738  27.701  42.494   7.555
 1901POPC   C1B27739  27.316  42.266   8.690
 1901POPC   C2B27740  27.172  42.234   8.295
 1901POPC   C3B27741  27.248  42.427   7.897
 1901POPC   C4B27742  27.127  42.107   7.551
 1902POPC   NC327743  32.495  17.673   9.615
 1902POPC   PO427744  33.130  17.424   9.461
 1902POPC   GL127745  32.907  17.506   9.125
 1902POPC   GL227746  33.220  17.479   8.946
 1902POPC   C1A27747  32.626  17.341   8.833
 1902POPC   D2A27748  32.534  17.280   8.386
 1902POPC   C3A27749  32.817  17.371   8.065
 1902POPC   C4A27750  32.792  17.172   7.664
 1902POPC   C1B27751  32.998  17.608   8.604
 1902POPC   C2B27752  33.179  17.694   8.249
 1902POPC   C3B27753  33.397  17.427   7.980
 1902POPC   C4B27754  33.273  17.239   7.659
 1903POPC   NC327755  23.819  22.816   9.607
 1903POPC   PO427756  23.225  23.198   9.505
 1903POPC   GL127757  23.563  23.000   9.187
 1903POPC   GL227758  23.771  22.727   9.125
 1903POPC   C1A27759  23.788  23.007   8.723
 1903POPC   D2A27760  24.076  22.940   8.362
 1903POPC   C3A27761  23.909  22.860   7.976
 1903POPC   C4A27762  23.676  22.990   7.605
 1903POPC   C1B27763  23.389  22.654   8.851
 1903POPC   C2B27764  23.204  22.766   8.456
 1903POPC   C3B27765  23.394  22.780   8.035
 1903POPC   C4B27766  23.315  22.603   7.618
 1904POPC   NC327767   3.058  10.319   9.495
 1904POPC   PO427768   2.461  10.466   9.577
 1904POPC   GL127769   2.626  10.691   9.214
 1904POPC   GL227770   2.993  10.635   9.070
 1904POPC   C1A27771   2.594  10.634   8.766
 1904POPC   D2A27772   2.919  10.392   8.574
 1904POPC   C3A27773   2.875  10.526   8.173
 1904POPC   C4A27774   2.625  10.455   7.818
 1904POPC   C1B27775   3.107  10.861   8.642
 1904POPC   C2B27776   3.146  10.963   8.169
 1904POPC   C3B27777   2.967  10.836   7.734
 1904POPC   C4B27778   2.960  10.666   7.265
 1905POPC   NC327779  19.939  39.803   9.405
 1905POPC   PO427780  19.568  40.305   9.464
 1905POPC   GL127781  19.611  40.074   9.103
 1905POPC   GL227782  19.956  40.042   8.939
 1905POPC   C1A27783  19.502  39.962   8.718
 1905POPC   D2A27784  19.797  40.025   8.430
 1905POPC   C3A27785  19.605  39.905   8.084
 1905POPC   C4A27786  19.638  39.829   7.640
 1905POPC   C1B27787  20.137  40.400   8.687
 1905POPC   C2B27788  19.962  40.519   8.299
 1905POPC   C3B27789  19.876  40.296   7.921
 1905POPC   C4B27790  19.876  40.496   7.546
 1906POPC   NC327791  14.515  36.435   9.737
 1906POPC   PO427792  14.458  35.765   9.579
 1906POPC   GL127793  14.240  35.937   9.204
 1906POPC   GL227794  14.575  36.076   9.154
 1906POPC   C1A27795  14.260  36.109   8.761
 1906POPC   D2A27796  14.613  36.202   8.471
 1906POPC   C3A27797  14.409  36.314   8.072
 1906POPC   C4A27798  14.281  36.070   7.714
 1906POPC   C1B27799  14.839  35.868   8.838
 1906POPC   C2B27800  14.814  35.723   8.418
 1906POPC   C3B27801  14.799  35.970   8.016
 1906POPC   C4B27802  14.710  35.844   7.582
 1907POPC   NC327803   8.458  22.377   9.564
 1907POPC   PO427804   8.105  21.862   9.528
 1907POPC   GL127805   8.151  22.173   9.199
 1907POPC   GL227806   8.495  22.262   9.072
 1907POPC   C1A27807   8.099  22.171   8.782
 1907POPC   D2A27808   8.160  21.993   8.414
 1907POPC   C3A27809   8.174  22.224   8.088
 1907POPC   C4A27810   8.307  22.025   7.747
 1907POPC   C1B27811   8.563  22.269   8.618
 1907POPC   C2B27812   8.531  22.559   8.297
 1907POPC   C3B27813   8.513  22.549   7.864
 1907POPC   C4B27814   8.129  22.514   7.662
 1908POPC   NC327815  17.080  24.242   9.626
 1908POPC   PO427816  16.477  24.402   9.582
 1908POPC   GL127817  16.699  24.339   9.204
 1908POPC   GL227818  16.980  24.499   9.199
 1908POPC   C1A27819  16.832  24.170   8.799
 1908POPC   D2A27820  17.042  24.142   8.403
 1908POPC   C3A27821  16.893  24.414   8.117
 1908POPC   C4A27822  16.555  24.339   7.812
 1908POPC   C1B27823  16.851  24.669   8.791
 1908POPC   C2B27824  17.058  24.865   8.452
 1908POPC   C3B27825  16.950  24.948   8.031
 1908POPC   C4B27826  16.934  24.661   7.685
 1909POPC   NC327827   0.753   0.377   9.482
 1909POPC   PO427828   0.074   0.213   9.528
 1909POPC   GL127829   0.341   0.311   9.156
 1909POPC   GL227830   0.595   0.056   9.108
 1909POPC   C1A27831   0.230   0.469   8.733
 1909POPC   D2A27832   0.132   0.364   8.294
 1909POPC   C3A27833   0.240   0.615   7.911
 1909POPC   C4A27834   0.260   0.629   7.436
 1909POPC   C1B27835   0.703   0.273   8.709
 1909POPC   C2B27836   0.596   0.559   8.335
 1909POPC   C3B27837   0.747   0.457   7.922
 1909POPC   C4B27838   0.988   0.093   7.876
 1910POPC   NC327839  16.735  33.443   9.378
 1910POPC   PO427840  16.287  33.824   9.687
 1910POPC   GL127841  16.525  33.923   9.266
 1910POPC   GL227842  16.900  33.911   9.169
 1910POPC   C1A27843  16.570  33.821   8.801
 1910POPC   D2A27844  16.744  33.771   8.375
 1910POPC   C3A27845  16.633  34.082   8.042
 1910POPC   C4A27846  16.786  34.105   7.625
 1910POPC   C1B27847  17.059  34.028   8.718
 1910POPC   C2B27848  17.096  34.138   8.261
 1910POPC   C3B27849  17.080  33.820   7.915
 1910POPC   C4B27850  16.945  33.639   7.484
 1911POPC   NC327851  17.636   6.510   9.502
 1911POPC   PO427852  17.220   7.105   9.559
 1911POPC   GL127853  17.328   6.826   9.208
 1911POPC   GL227854  17.682   6.891   9.126
 1911POPC   C1A27855  17.268   6.737   8.758
 1911POPC   D2A27856  17.562   6.756   8.396
 1911POPC   C3A27857  17.497   6.838   7.966
 1911POPC   C4A27858  17.196   6.696   7.648
 1911POPC   C1B27859  17.714   6.500   8.856
 1911POPC   C2B27860  17.816   6.329   8.468
 1911POPC   C3B27861  17.833   6.432   8.049
 1911POPC   C4B27862  17.689   6.131   7.785
 1912POPC   NC327863  35.382  35.793   9.639
 1912POPC   PO427864  35.592  36.483   9.497
 1912POPC   GL127865  35.345  36.280   9.228
 1912POPC   GL227866  35.176  36.515   9.062
 1912POPC   C1A27867  35.273  36.048   8.843
 1912POPC   D2A27868  35.515  36.144   8.478
 1912POPC   C3A27869  35.326  36.140   8.064
 1912POPC   C4A27870  34.997  35.962   7.833
 1912POPC   C1B27871  35.373  36.612   8.711
 1912POPC   C2B27872  35.137  36.492   8.382
 1912POPC   C3B27873  34.929  36.553   8.006
 1912POPC   C4B27874  35.081  36.429   7.638
 1913POPC   NC327875  17.876  35.374   9.540
 1913POPC   PO427876  17.253  35.116   9.460
 1913POPC   GL127877  17.457  35.506   9.183
 1913POPC   GL227878  17.851  35.560   9.086
 1913POPC   C1A27879  17.550  35.478   8.710
 1913POPC   D2A27880  17.415  35.344   8.340
 1913POPC   C3A27881  17.583  35.401   7.978
 1913POPC   C4A27882  17.514  35.267   7.623
 1913POPC   C1B27883  17.982  35.748   8.713
 1913POPC   C2B27884  17.933  35.569   8.316
 1913POPC   C3B27885  17.972  35.725   7.878
 1913POPC   C4B27886  17.873  35.583   7.443
 1914POPC   NC327887  33.557  38.516   9.823
 1914POPC   PO427888  33.897  38.174   9.355
 1914POPC   GL127889  33.767  38.281   8.993
 1914POPC   GL227890  33.720  38.622   9.067
 1914POPC   C1A27891  33.892  38.197   8.598
 1914POPC   D2A27892  33.859  38.480   8.278
 1914POPC   C3A27893  34.023  38.410   7.836
 1914POPC   C4A27894  33.956  38.410   7.376
 1914POPC   C1B27895  33.992  38.727   8.727
 1914POPC   C2B27896  34.068  38.947   8.342
 1914POPC   C3B27897  33.808  38.868   7.978
 1914POPC   C4B27898  33.748  38.833   7.559
 1915POPC   NC327899  36.188  17.912   9.577
 1915POPC   PO427900  36.148  18.604   9.603
 1915POPC   GL127901  36.322  18.339   9.275
 1915POPC   GL227902  35.999  18.222   9.206
 1915POPC   C1A27903  36.346  18.407   8.810
 1915POPC   D2A27904  36.481  18.331   8.358
 1915POPC   C3A27905  36.267  18.489   7.995
 1915POPC   C4A27906  36.062  18.569   7.608
 1915POPC   C1B27907  35.941  18.110   8.769
 1915POPC   C2B27908  35.958  18.329   8.371
 1915POPC   C3B27909  35.799  18.266   7.956
 1915POPC   C4B27910  35.594  18.008   7.645
 1916POPC   NC327911  11.081   8.130   9.584
 1916POPC   PO427912  11.793   8.365   9.540
 1916POPC   GL127913  11.458   8.206   9.233
 1916POPC   GL227914  11.116   8.340   9.121
 1916POPC   C1A27915  11.394   8.078   8.791
 1916POPC   D2A27916  11.439   8.010   8.349
 1916POPC   C3A27917  11.244   7.933   7.950
 1916POPC   C4A27918  11.432   8.125   7.564
 1916POPC   C1B27919  11.011   8.393   8.684
 1916POPC   C2B27920  11.018   8.392   8.227
 1916POPC   C3B27921  10.974   8.360   7.799
 1916POPC   C4B27922  11.047   8.463   7.382
 1917POPC   NC327923  42.411   8.797   9.513
 1917POPC   PO427924  42.781   9.342   9.714
 1917POPC   GL127925  42.635   9.192   9.292
 1917POPC   GL227926  42.263   9.155   9.184
 1917POPC   C1A27927  42.638   9.083   8.835
 1917POPC   D2A27928  42.472   8.830   8.458
 1917POPC   C3A27929  42.317   9.078   8.121
 1917POPC   C4A27930  42.448   9.189   7.689
 1917POPC   C1B27931  42.121   9.055   8.768
 1917POPC   C2B27932  41.875   8.939   8.456
 1917POPC   C3B27933  41.966   8.688   8.132
 1917POPC   C4B27934  42.144   8.787   7.741
 1918POPC   NC327935  34.862  39.488   9.283
 1918POPC   PO427936  34.497  38.941   9.360
 1918POPC   GL127937  34.531  39.163   9.026
 1918POPC   GL227938  34.357  39.473   9.149
 1918POPC   C1A27939  34.887  39.084   8.743
 1918POPC   D2A27940  34.858  38.914   8.333
 1918POPC   C3A27941  34.806  39.299   8.109
 1918POPC   C4A27942  34.881  39.387   7.702
 1918POPC   C1B27943  34.464  39.556   8.696
 1918POPC   C2B27944  34.338  39.526   8.256
 1918POPC   C3B27945  34.347  39.332   7.847
 1918POPC   C4B27946  34.210  38.964   7.710
 1919POPC   NC327947   9.387  22.056   9.329
 1919POPC   PO427948   9.867  22.283   9.792
 1919POPC   GL127949   9.935  22.101   9.354
 1919POPC   GL227950   9.757  22.302   9.100
 1919POPC   C1A27951  10.043  21.912   8.919
 1919POPC   D2A27952   9.850  21.798   8.499
 1919POPC   C3A27953   9.951  21.998   8.083
 1919POPC   C4A27954  10.109  21.789   7.709
 1919POPC   C1B27955   9.657  22.224   8.709
 1919POPC   C2B27956   9.673  22.372   8.316
 1919POPC   C3B27957   9.428  22.343   7.923
 1919POPC   C4B27958   9.329  22.413   7.484
 1920POPC   NC327959   7.725  12.004   9.723
 1920POPC   PO427960   7.809  12.676   9.611
 1920POPC   GL127961   7.789  12.468   9.157
 1920POPC   GL227962   7.446  12.402   9.129
 1920POPC   C1A27963   7.674  12.104   8.796
 1920POPC   D2A27964   7.791  11.838   8.442
 1920POPC   C3A27965   7.730  12.012   8.019
 1920POPC   C4A27966   7.491  11.884   7.654
 1920POPC   C1B27967   7.169  12.156   8.809
 1920POPC   C2B27968   7.316  12.061   8.401
 1920POPC   C3B27969   7.313  12.347   8.065
 1920POPC   C4B27970   7.127  12.284   7.669
 1921POPC   NC327971   0.617  10.986   9.410
 1921POPC   PO427972   0.062  11.332   9.674
 1921POPC   GL127973   0.234  11.264   9.225
 1921POPC   GL227974   0.313  11.562   9.123
 1921POPC   C1A27975   0.326  11.073   8.793
 1921POPC   D2A27976   0.555  11.177   8.384
 1921POPC   C3A27977   0.495  11.013   7.971
 1921POPC   C4A27978   0.333  11.280   7.657
 1921POPC   C1B27979   0.405  11.593   8.685
 1921POPC   C2B27980   0.746  11.660   8.381
 1921POPC   C3B27981   0.765  11.496   7.941
 1921POPC   C4B27982   0.847  11.693   7.523
 1922POPC   NC327983   7.494  17.670   9.601
 1922POPC   PO427984   7.771  17.052   9.536
 1922POPC   GL127985   7.526  17.327   9.227
 1922POPC   GL227986   7.633  17.714   9.129
 1922POPC   C1A27987   7.474  17.201   8.807
 1922POPC   D2A27988   7.278  17.060   8.434
 1922POPC   C3A27989   7.465  17.254   8.086
 1922POPC   C4A27990   7.327  17.438   7.707
 1922POPC   C1B27991   7.273  17.659   8.887
 1922POPC   C2B27992   7.289  17.598   8.453
 1922POPC   C3B27993   7.515  17.777   8.101
 1922POPC   C4B27994   7.347  17.967   7.738
 1923POPC   NC327995  37.546   8.568   9.557
 1923POPC   PO427996  37.309   8.019   9.349
 1923POPC   GL127997  37.712   8.132   9.106
 1923POPC   GL227998  37.936   8.433   9.207
 1923POPC   C1A27999  37.909   7.968   8.728
 1923POPC   D2A28000  37.941   8.248   8.406
 1923POPC   C3A28001  37.872   8.062   8.050
 1923POPC   C4A28002  37.971   8.123   7.683
 1923POPC   C1B28003  37.629   8.630   8.901
 1923POPC   C2B28004  37.644   8.684   8.454
 1923POPC   C3B28005  37.504   8.400   8.141
 1923POPC   C4B28006  37.525   8.406   7.713
 1924POPC   NC328007  33.856  34.878   9.789
 1924POPC   PO428008  33.761  34.267   9.460
 1924POPC   GL128009  33.944  34.408   9.111
 1924POPC   GL228010  33.773  34.717   9.113
 1924POPC   C1A28011  33.829  34.411   8.680
 1924POPC   D2A28012  33.694  34.366   8.263
 1924POPC   C3A28013  34.003  34.506   7.968
 1924POPC   C4A28014  34.105  34.860   7.758
 1924POPC   C1B28015  33.727  34.907   8.730
 1924POPC   C2B28016  33.869  34.848   8.334
 1924POPC   C3B28017  33.591  34.835   8.015
 1924POPC   C4B28018  33.599  34.956   7.613
 1925POPC   NC328019  44.658   1.747   9.312
 1925POPC   PO428020  44.444   2.285   9.538
 1925POPC   GL128021  44.373   2.283   9.111
 1925POPC   GL228022  44.737   2.340   9.096
 1925POPC   C1A28023  44.452   2.129   8.708
 1925POPC   D2A28024  44.805   1.877   8.547
 1925POPC   C3A28025  44.735   1.780   8.116
 1925POPC   C4A28026  44.602   1.443   7.873
 1925POPC   C1B28027  44.863   2.430   8.685
 1925POPC   C2B28028  44.758   2.319   8.264
 1925POPC   C3B28029  44.893   2.418   7.829
 1925POPC   C4B28030  44.668   2.283   7.455
 1926POPC   NC328031  27.741   4.491   9.263
 1926POPC   PO428032  27.438   3.930   9.518
 1926POPC   GL128033  27.695   3.964   9.155
 1926POPC   GL228034  28.037   4.017   9.268
 1926POPC   C1A28035  27.592   4.092   8.721
 1926POPC   D2A28036  27.400   3.997   8.316
 1926POPC   C3A28037  27.366   4.239   7.925
 1926POPC   C4A28038  27.414   4.234   7.497
 1926POPC   C1B28039  28.087   4.000   8.817
 1926POPC   C2B28040  27.924   3.857   8.406
 1926POPC   C3B28041  27.841   4.183   8.113
 1926POPC   C4B28042  27.955   4.246   7.678
 1927POPC   NC328043   8.660  27.942   9.563
 1927POPC   PO428044   9.202  27.528   9.477
 1927POPC   GL128045   9.183  27.438   9.068
 1927POPC   GL228046   8.812  27.421   9.144
 1927POPC   C1A28047   8.991  27.595   8.696
 1927POPC   D2A28048   8.776  27.786   8.353
 1927POPC   C3A28049   8.940  27.696   7.958
 1927POPC   C4A28050   9.329  27.568   7.809
 1927POPC   C1B28051   8.808  27.122   8.806
 1927POPC   C2B28052   9.097  27.091   8.461
 1927POPC   C3B28053   9.048  27.191   8.042
 1927POPC   C4B28054   8.718  27.256   7.710
 1928POPC   NC328055  11.244  35.829   9.423
 1928POPC   PO428056  11.088  36.475   9.502
 1928POPC   GL128057  11.283  36.281   9.169
 1928POPC   GL228058  11.589  36.440   9.250
 1928POPC   C1A28059  11.277  35.997   8.801
 1928POPC   D2A28060  11.188  35.824   8.407
 1928POPC   C3A28061  11.128  36.174   8.138
 1928POPC   C4A28062  11.172  36.152   7.692
 1928POPC   C1B28063  11.680  36.588   8.853
 1928POPC   C2B28064  11.579  36.425   8.483
 1928POPC   C3B28065  11.579  36.420   8.072
 1928POPC   C4B28066  11.690  36.441   7.667
 1929POPC   NC328067   0.653  26.948   9.448
 1929POPC   PO428068   0.001  26.651   9.460
 1929POPC   GL128069   0.294  26.774   9.104
 1929POPC   GL228070   0.350  27.103   9.016
 1929POPC   C1A28071   0.445  26.701   8.675
 1929POPC   D2A28072   0.717  26.506   8.394
 1929POPC   C3A28073   0.696  26.751   8.037
 1929POPC   C4A28074   0.371  26.714   7.702
 1929POPC   C1B28075   0.473  27.244   8.660
 1929POPC   C2B28076   0.437  27.143   8.242
 1929POPC   C3B28077   0.114  27.145   7.903
 1929POPC   C4B28078   0.160  27.097   7.426
 1930POPC   NC328079  27.279  32.611   9.588
 1930POPC   PO428080  27.733  32.118   9.763
 1930POPC   GL128081  27.602  32.122   9.269
 1930POPC   GL228082  27.413  32.422   9.111
 1930POPC   C1A28083  27.781  32.217   8.836
 1930POPC   D2A28084  28.012  32.202   8.441
 1930POPC   C3A28085  27.787  32.297   8.064
 1930POPC   C4A28086  27.931  32.105   7.695
 1930POPC   C1B28087  27.409  32.561   8.687
 1930POPC   C2B28088  27.366  32.506   8.246
 1930POPC   C3B28089  27.392  32.674   7.851
 1930POPC   C4B28090  27.360  32.518   7.390
 1931POPC   NC328091   8.489  28.815   9.552
 1931POPC   PO428092   7.840  28.779   9.307
 1931POPC   GL128093   8.237  28.532   9.198
 1931POPC   GL228094   8.328  28.221   9.306
 1931POPC   C1A28095   8.444  28.449   8.820
 1931POPC   D2A28096   8.309  28.620   8.422
 1931POPC   C3A28097   8.338  28.505   8.004
 1931POPC   C4A28098   8.066  28.616   7.728
 1931POPC   C1B28099   8.259  27.981   8.948
 1931POPC   C2B28100   8.319  27.995   8.529
 1931POPC   C3B28101   8.147  28.056   8.160
 1931POPC   C4B28102   8.091  28.068   7.737
 1932POPC   NC328103  31.283  22.517   9.539
 1932POPC   PO428104  31.171  23.120   9.209
 1932POPC   GL128105  31.350  22.784   9.059
 1932POPC   GL228106  31.677  22.847   8.946
 1932POPC   C1A28107  31.373  22.551   8.681
 1932POPC   D2A28108  31.108  22.564   8.352
 1932POPC   C3A28109  31.374  22.748   8.062
 1932POPC   C4A28110  31.514  22.808   7.623
 1932POPC   C1B28111  31.643  23.127   8.622
 1932POPC   C2B28112  31.699  23.105   8.193
 1932POPC   C3B28113  31.445  23.251   7.829
 1932POPC   C4B28114  31.515  23.249   7.367
 1933POPC   NC328115  29.231  43.082   9.563
 1933POPC   PO428116  28.667  43.544   9.572
 1933POPC   GL128117  28.904  43.303   9.231
 1933POPC   GL228118  28.947  42.941   9.186
 1933POPC   C1A28119  29.241  43.232   8.878
 1933POPC   D2A28120  29.194  42.935   8.507
 1933POPC   C3A28121  29.372  42.894   8.081
 1933POPC   C4A28122  29.381  43.073   7.675
 1933POPC   C1B28123  28.763  43.067   8.805
 1933POPC   C2B28124  28.631  42.940   8.429
 1933POPC   C3B28125  28.844  42.840   8.098
 1933POPC   C4B28126  28.895  43.001   7.708
 1934POPC   NC328127   9.331   5.517   9.455
 1934POPC   PO428128   9.695   6.093   9.543
 1934POPC   GL128129   9.641   5.905   9.134
 1934POPC   GL228130   9.329   5.800   9.043
 1934POPC   C1A28131   9.715   5.826   8.683
 1934POPC   D2A28132  10.052   5.640   8.435
 1934POPC   C3A28133  10.158   5.749   7.979
 1934POPC   C4A28134   9.968   5.888   7.569
 1934POPC   C1B28135   9.373   6.203   8.816
 1934POPC   C2B28136   9.454   6.341   8.388
 1934POPC   C3B28137   9.580   6.257   7.957
 1934POPC   C4B28138   9.449   5.870   7.789
 1935POPC   NC328139   9.870  42.639   9.639
 1935POPC   PO428140   9.851  42.010   9.496
 1935POPC   GL128141   9.765  42.299   9.171
 1935POPC   GL228142   9.437  42.432   9.161
 1935POPC   C1A28143   9.765  42.479   8.738
 1935POPC   D2A28144  10.033  42.685   8.447
 1935POPC   C3A28145   9.865  42.537   8.087
 1935POPC   C4A28146   9.914  42.522   7.679
 1935POPC   C1B28147   9.255  42.622   8.755
 1935POPC   C2B28148   9.320  42.586   8.269
 1935POPC   C3B28149   9.417  42.635   7.797
 1935POPC   C4B28150   9.466  42.811   7.344
 1936POPC   NC328151   7.102  21.725   9.638
 1936POPC   PO428152   7.671  21.394   9.646
 1936POPC   GL128153   7.315  21.320   9.327
 1936POPC   GL228154   7.580  21.320   9.133
 1936POPC   C1A28155   7.155  21.220   8.847
 1936POPC   D2A28156   7.007  21.090   8.401
 1936POPC   C3A28157   7.110  21.328   7.995
 1936POPC   C4A28158   7.333  21.662   7.743
 1936POPC   C1B28159   7.637  21.413   8.742
 1936POPC   C2B28160   7.467  21.320   8.362
 1936POPC   C3B28161   7.664  21.357   7.986
 1936POPC   C4B28162   7.510  21.088   7.683
 1937POPC   NC328163  38.980   6.596   9.405
 1937POPC   PO428164  38.402   6.305   9.456
 1937POPC   GL128165  38.544   6.568   9.108
 1937POPC   GL228166  38.818   6.779   8.973
 1937POPC   C1A28167  38.384   6.664   8.715
 1937POPC   D2A28168  38.353   6.426   8.359
 1937POPC   C3A28169  38.249   6.639   7.977
 1937POPC   C4A28170  38.431   6.606   7.532
 1937POPC   C1B28171  38.746   7.052   8.646
 1937POPC   C2B28172  38.555   6.932   8.276
 1937POPC   C3B28173  38.699   6.865   7.872
 1937POPC   C4B28174  39.004   7.026   7.633
 1938POPC   NC328175  40.615  41.391   9.497
 1938POPC   PO428176  41.084  41.890   9.433
 1938POPC   GL128177  40.819  41.709   9.111
 1938POPC   GL228178  40.918  41.358   9.060
 1938POPC   C1A28179  40.466  41.732   8.834
 1938POPC   D2A28180  40.375  41.686   8.382
 1938POPC   C3A28181  40.612  41.653   7.972
 1938POPC   C4A28182  40.773  41.520   7.560
 1938POPC   C1B28183  40.708  41.338   8.638
 1938POPC   C2B28184  40.519  41.228   8.209
 1938POPC   C3B28185  40.322  41.270   7.777
 1938POPC   C4B28186  40.463  41.207   7.317
 1939POPC   NC328187  29.620   6.977   9.504
 1939POPC   PO428188  30.089   7.557   9.471
 1939POPC   GL128189  30.151   7.471   9.064
 1939POPC   GL228190  29.959   7.161   9.111
 1939POPC   C1A28191  30.092   7.497   8.643
 1939POPC   D2A28192  29.759   7.550   8.372
 1939POPC   C3A28193  29.870   7.681   7.966
 1939POPC   C4A28194  30.084   7.480   7.647
 1939POPC   C1B28195  29.669   7.129   8.764
 1939POPC   C2B28196  29.618   7.053   8.319
 1939POPC   C3B28197  29.744   7.121   7.901
 1939POPC   C4B28198  29.573   7.384   7.637
 1940POPC   NC328199  24.288  25.469   9.544
 1940POPC   PO428200  24.979  25.406   9.451
 1940POPC   GL128201  24.789  25.220   9.098
 1940POPC   GL228202  24.443  25.338   9.082
 1940POPC   C1A28203  24.727  25.236   8.669
 1940POPC   D2A28204  24.543  25.532   8.398
 1940POPC   C3A28205  24.616  25.398   8.030
 1940POPC   C4A28206  24.921  25.183   7.814
 1940POPC   C1B28207  24.216  25.298   8.701
 1940POPC   C2B28208  24.160  25.204   8.288
 1940POPC   C3B28209  24.262  25.007   7.963
 1940POPC   C4B28210  24.445  25.196   7.600
 1941POPC   NC328211  42.306   0.694   9.545
 1941POPC   PO428212  41.613   0.715   9.341
 1941POPC   GL128213  41.979   0.646   9.110
 1941POPC   GL228214  42.218   0.345   9.141
 1941POPC   C1A28215  42.167   0.638   8.697
 1941POPC   D2A28216  42.261   0.375   8.324
 1941POPC   C3A28217  42.279   0.583   7.914
 1941POPC   C4A28218  42.344   0.754   7.492
 1941POPC   C1B28219  42.392   0.018   8.844
 1941POPC   C2B28220  42.593  44.976   8.417
 1941POPC   C3B28221  42.589   0.151   7.958
 1941POPC   C4B28222  42.539   0.273   7.486
 1942POPC   NC328223  28.302  31.084   9.493
 1942POPC   PO428224  28.065  31.664   9.417
 1942POPC   GL128225  28.430  31.478   9.156
 1942POPC   GL228226  28.725  31.235   9.230
 1942POPC   C1A28227  28.480  31.598   8.723
 1942POPC   D2A28228  28.128  31.697   8.480
 1942POPC   C3A28229  28.201  31.549   8.082
 1942POPC   C4A28230  27.984  31.503   7.702
 1942POPC   C1B28231  28.581  31.100   8.827
 1942POPC   C2B28232  28.672  31.088   8.400
 1942POPC   C3B28233  28.448  31.099   8.016
 1942POPC   C4B28234  28.450  31.323   7.648
 1943POPC   NC328235  30.440  27.460   9.447
 1943POPC   PO428236  30.473  28.042   9.209
 1943POPC   GL128237  30.880  27.742   9.154
 1943POPC   GL228238  30.930  27.355   9.112
 1943POPC   C1A28239  31.079  27.647   8.733
 1943POPC   D2A28240  30.934  27.916   8.370
 1943POPC   C3A28241  30.603  27.733   8.101
 1943POPC   C4A28242  30.721  27.393   7.861
 1943POPC   C1B28243  30.591  27.425   8.788
 1943POPC   C2B28244  30.453  27.270   8.364
 1943POPC   C3B28245  30.246  27.206   7.972
 1943POPC   C4B28246  30.354  27.249   7.543
 1944POPC   NC328247   7.004  10.655   9.480
 1944POPC   PO428248   7.612  10.262   9.609
 1944POPC   GL128249   7.540  10.502   9.213
 1944POPC   GL228250   7.281  10.700   9.073
 1944POPC   C1A28251   7.707  10.615   8.830
 1944POPC   D2A28252   7.673  10.405   8.441
 1944POPC   C3A28253   7.782  10.592   8.073
 1944POPC   C4A28254   7.675  10.663   7.658
 1944POPC   C1B28255   7.232  10.422   8.736
 1944POPC   C2B28256   7.169  10.330   8.330
 1944POPC   C3B28257   7.262  10.538   7.967
 1944POPC   C4B28258   7.240  10.431   7.551
 1945POPC   NC328259  34.961  10.510   9.528
 1945POPC   PO428260  34.442  10.004   9.512
 1945POPC   GL128261  34.606  10.302   9.189
 1945POPC   GL228262  34.570  10.685   9.236
 1945POPC   C1A28263  34.564  10.228   8.745
 1945POPC   D2A28264  34.611  10.459   8.362
 1945POPC   C3A28265  34.578  10.339   7.937
 1945POPC   C4A28266  34.419  10.568   7.580
 1945POPC   C1B28267  34.496  10.751   8.795
 1945POPC   C2B28268  34.557  10.968   8.394
 1945POPC   C3B28269  34.537  10.928   7.927
 1945POPC   C4B28270  34.315  11.075   7.500
 1946POPC   NC328271   7.958  34.856   9.608
 1946POPC   PO428272   8.129  34.270   9.701
 1946POPC   GL128273   7.973  34.463   9.259
 1946POPC   GL228274   7.848  34.790   9.113
 1946POPC   C1A28275   7.939  34.399   8.797
 1946POPC   D2A28276   8.192  34.481   8.457
 1946POPC   C3A28277   8.106  34.634   8.061
 1946POPC   C4A28278   8.450  34.518   7.752
 1946POPC   C1B28279   8.219  34.834   8.863
 1946POPC   C2B28280   8.241  35.019   8.444
 1946POPC   C3B28281   8.440  35.142   8.059
 1946POPC   C4B28282   8.237  34.994   7.719
 1947POPC   NC328283  28.647  27.687   9.605
 1947POPC   PO428284  29.340  27.697   9.451
 1947POPC   GL128285  29.044  27.744   9.225
 1947POPC   GL228286  28.903  27.405   9.267
 1947POPC   C1A28287  29.040  27.643   8.822
 1947POPC   D2A28288  29.144  27.358   8.536
 1947POPC   C3A28289  29.180  27.540   8.150
 1947POPC   C4A28290  29.308  27.363   7.817
 1947POPC   C1B28291  28.854  27.123   8.933
 1947POPC   C2B28292  28.745  27.039   8.496
 1947POPC   C3B28293  28.730  27.333   8.199
 1947POPC   C4B28294  28.803  27.210   7.797
 1948POPC   NC328295  34.450  25.177   9.407
 1948POPC   PO428296  34.696  25.806   9.344
 1948POPC   GL128297  34.571  25.494   9.013
 1948POPC   GL228298  34.722  25.116   8.985
 1948POPC   C1A28299  34.675  25.408   8.583
 1948POPC   D2A28300  34.826  25.020   8.417
 1948POPC   C3A28301  34.698  25.046   8.037
 1948POPC   C4A28302  34.674  25.377   7.779
 1948POPC   C1B28303  34.353  25.020   8.676
 1948POPC   C2B28304  34.219  25.016   8.209
 1948POPC   C3B28305  34.277  24.982   7.704
 1948POPC   C4B28306  34.159  24.973   7.191
 1949POPC   NC328307  24.067   2.148   9.481
 1949POPC   PO428308  23.476   1.749   9.586
 1949POPC   GL128309  23.595   1.873   9.124
 1949POPC   GL228310  23.758   2.199   9.070
 1949POPC   C1A28311  23.815   1.727   8.725
 1949POPC   D2A28312  24.123   1.747   8.368
 1949POPC   C3A28313  23.873   1.650   7.966
 1949POPC   C4A28314  23.853   1.929   7.571
 1949POPC   C1B28315  23.856   2.220   8.628
 1949POPC   C2B28316  23.664   1.957   8.307
 1949POPC   C3B28317  23.470   1.984   7.918
 1949POPC   C4B28318  23.342   1.858   7.522
 1950POPC   NC328319  31.753  30.323   9.596
 1950POPC   PO428320  31.536  29.623   9.617
 1950POPC   GL128321  31.553  29.961   9.192
 1950POPC   GL228322  31.189  29.962   9.023
 1950POPC   C1A28323  31.553  30.189   8.761
 1950POPC   D2A28324  31.306  30.172   8.385
 1950POPC   C3A28325  31.588  30.284   8.043
 1950POPC   C4A28326  31.815  30.199   7.664
 1950POPC   C1B28327  31.389  29.713   8.649
 1950POPC   C2B28328  31.467  29.740   8.191
 1950POPC   C3B28329  31.358  29.898   7.786
 1950POPC   C4B28330  31.096  29.747   7.451
 1951POPC   NC328331  10.280   9.981   9.494
 1951POPC   PO428332  10.831   9.575   9.291
 1951POPC   GL128333  10.535   9.809   9.006
 1951POPC   GL228334  10.638  10.148   8.954
 1951POPC   C1A28335  10.536   9.879   8.527
 1951POPC   D2A28336  10.899   9.933   8.231
 1951POPC   C3A28337  10.811   9.648   7.913
 1951POPC   C4A28338  10.406   9.404   7.891
 1951POPC   C1B28339  10.353  10.346   8.669
 1951POPC   C2B28340  10.340  10.298   8.218
 1951POPC   C3B28341  10.512  10.071   7.881
 1951POPC   C4B28342  10.779  10.141   7.563
 1952POPC   NC328343   4.442  20.916   9.503
 1952POPC   PO428344   4.071  20.319   9.491
 1952POPC   GL128345   4.087  20.373   9.072
 1952POPC   GL228346   4.321  20.593   9.077
 1952POPC   C1A28347   3.987  20.378   8.652
 1952POPC   D2A28348   4.081  20.575   8.266
 1952POPC   C3A28349   4.308  20.380   7.933
 1952POPC   C4A28350   4.266  20.401   7.488
 1952POPC   C1B28351   4.135  20.861   8.731
 1952POPC   C2B28352   4.141  21.078   8.310
 1952POPC   C3B28353   4.157  20.936   7.880
 1952POPC   C4B28354   4.130  20.914   7.437
 1953POPC   NC328355   8.030  32.070   9.630
 1953POPC   PO428356   8.475  32.557   9.426
 1953POPC   GL128357   8.319  32.162   9.187
 1953POPC   GL228358   7.956  32.122   9.122
 1953POPC   C1A28359   8.279  31.976   8.765
 1953POPC   D2A28360   8.059  32.006   8.365
 1953POPC   C3A28361   8.413  32.039   8.052
 1953POPC   C4A28362   8.427  31.993   7.625
 1953POPC   C1B28363   7.974  32.406   8.804
 1953POPC   C2B28364   7.977  32.492   8.383
 1953POPC   C3B28365   8.010  32.317   7.952
 1953POPC   C4B28366   7.746  32.376   7.597
 1954POPC   NC328367  24.931  36.946   9.467
 1954POPC   PO428368  25.617  36.691   9.548
 1954POPC   GL128369  25.362  36.825   9.229
 1954POPC   GL228370  25.170  36.538   9.160
 1954POPC   C1A28371  25.311  37.034   8.843
 1954POPC   D2A28372  25.370  36.894   8.437
 1954POPC   C3A28373  25.401  37.060   8.027
 1954POPC   C4A28374  25.181  37.282   7.736
 1954POPC   C1B28375  25.509  36.534   8.812
 1954POPC   C2B28376  25.668  36.505   8.365
 1954POPC   C3B28377  25.439  36.561   8.029
 1954POPC   C4B28378  25.086  36.700   7.827
 1955POPC   NC328379  36.490  23.954   9.402
 1955POPC   PO428380  36.089  23.382   9.523
 1955POPC   GL128381  36.084  23.530   9.099
 1955POPC   GL228382  36.179  23.833   9.024
 1955POPC   C1A28383  35.975  23.595   8.642
 1955POPC   D2A28384  36.243  23.657   8.295
 1955POPC   C3A28385  36.043  23.513   7.939
 1955POPC   C4A28386  36.017  23.532   7.464
 1955POPC   C1B28387  36.304  24.052   8.660
 1955POPC   C2B28388  36.315  24.193   8.233
 1955POPC   C3B28389  36.071  24.007   7.908
 1955POPC   C4B28390  35.732  24.150   7.667
 1956POPC   NC328391  19.679  28.999   9.412
 1956POPC   PO428392  20.316  29.102   9.358
 1956POPC   GL128393  20.024  29.110   9.022
 1956POPC   GL228394  19.681  29.231   8.963
 1956POPC   C1A28395  19.903  29.015   8.598
 1956POPC   D2A28396  19.734  29.266   8.322
 1956POPC   C3A28397  19.924  29.170   7.975
 1956POPC   C4A28398  20.209  29.155   7.660
 1956POPC   C1B28399  19.479  29.535   8.678
 1956POPC   C2B28400  19.263  29.463   8.277
 1956POPC   C3B28401  19.362  29.370   7.821
 1956POPC   C4B28402  19.376  29.307   7.334
 1957POPC   NC328403  10.148  19.629   9.512
 1957POPC   PO428404  10.801  19.872   9.481
 1957POPC   GL128405  10.467  19.966   9.209
 1957POPC   GL228406  10.390  19.647   9.060
 1957POPC   C1A28407  10.481  20.072   8.777
 1957POPC   D2A28408  10.361  19.861   8.410
 1957POPC   C3A28409  10.359  20.104   8.057
 1957POPC   C4A28410  10.497  20.132   7.667
 1957POPC   C1B28411  10.282  19.416   8.682
 1957POPC   C2B28412  10.312  19.370   8.244
 1957POPC   C3B28413  10.364  19.592   7.872
 1957POPC   C4B28414  10.089  19.826   7.632
 1958POPC   NC328415  29.018  37.095   9.448
 1958POPC   PO428416  29.568  37.290   9.404
 1958POPC   GL128417  29.331  37.068   9.046
 1958POPC   GL228418  29.383  36.686   9.037
 1958POPC   C1A28419  29.030  37.139   8.688
 1958POPC   D2A28420  28.916  37.037   8.229
 1958POPC   C3A28421  29.251  37.058   7.887
 1958POPC   C4A28422  29.723  37.037   7.826
 1958POPC   C1B28423  28.968  36.631   8.808
 1958POPC   C2B28424  28.808  36.525   8.378
 1958POPC   C3B28425  28.912  36.589   7.928
 1958POPC   C4B28426  29.305  36.572   7.679
 1959POPC   NC328427  39.654  44.361   9.867
 1959POPC   PO428428  39.211  44.775   9.605
 1959POPC   GL128429  39.270  44.719   9.169
 1959POPC   GL228430  39.582  44.902   9.181
 1959POPC   C1A28431  39.125  44.587   8.740
 1959POPC   D2A28432  38.754  44.415   8.527
 1959POPC   C3A28433  38.802  44.380   8.060
 1959POPC   C4A28434  39.132  44.650   7.876
 1959POPC   C1B28435  39.618  44.739   8.763
 1959POPC   C2B28436  39.423  44.793   8.355
 1959POPC   C3B28437  39.605  44.550   8.052
 1959POPC   C4B28438  39.581  44.511   7.646
 1960POPC   NC328439  22.453  17.020   9.484
 1960POPC   PO428440  22.254  17.651   9.627
 1960POPC   GL128441  22.315  17.851   9.216
 1960POPC   GL228442  22.524  17.601   9.083
 1960POPC   C1A28443  22.187  17.786   8.750
 1960POPC   D2A28444  22.337  17.684   8.331
 1960POPC   C3A28445  22.125  17.584   7.976
 1960POPC   C4A28446  22.270  17.696   7.597
 1960POPC   C1B28447  22.440  17.335   8.689
 1960POPC   C2B28448  22.423  17.188   8.235
 1960POPC   C3B28449  22.365  17.155   7.779
 1960POPC   C4B28450  22.346  17.260   7.350
 1961POPC   NC328451  39.846  17.546   9.696
 1961POPC   PO428452  40.043  18.211   9.547
 1961POPC   GL128453  39.884  18.434   9.113
 1961POPC   GL228454  39.632  18.192   8.927
 1961POPC   C1A28455  39.808  18.588   8.658
 1961POPC   D2A28456  39.769  18.435   8.234
 1961POPC   C3A28457  40.046  18.450   7.874
 1961POPC   C4A28458  40.029  18.282   7.415
 1961POPC   C1B28459  40.041  18.142   8.693
 1961POPC   C2B28460  40.217  18.153   8.252
 1961POPC   C3B28461  40.067  17.949   7.824
 1961POPC   C4B28462  40.076  17.774   7.371
 1962POPC   NC328463  15.743  42.023   9.428
 1962POPC   PO428464  15.610  42.689   9.466
 1962POPC   GL128465  15.596  42.429   9.126
 1962POPC   GL228466  15.964  42.343   9.073
 1962POPC   C1A28467  15.613  42.205   8.729
 1962POPC   D2A28468  15.942  42.286   8.446
 1962POPC   C3A28469  15.889  42.535   8.111
 1962POPC   C4A28470  15.704  42.477   7.707
 1962POPC   C1B28471  16.073  41.958   8.825
 1962POPC   C2B28472  16.051  41.788   8.414
 1962POPC   C3B28473  16.043  42.002   8.006
 1962POPC   C4B28474  16.247  42.373   7.791
 1963POPC   NC328475  42.699  25.929   9.505
 1963POPC   PO428476  43.258  26.263   9.558
 1963POPC   GL128477  43.045  26.155   9.171
 1963POPC   GL228478  42.892  26.452   9.124
 1963POPC   C1A28479  43.231  25.987   8.771
 1963POPC   D2A28480  43.074  26.002   8.374
 1963POPC   C3A28481  43.232  25.725   8.077
 1963POPC   C4A28482  43.283  25.783   7.627
 1963POPC   C1B28483  42.879  26.356   8.717
 1963POPC   C2B28484  42.860  26.449   8.286
 1963POPC   C3B28485  43.020  26.245   7.918
 1963POPC   C4B28486  42.772  26.514   7.686
 1964POPC   NC328487   6.004  33.209   9.909
 1964POPC   PO428488   6.149  32.611   9.636
 1964POPC   GL128489   6.126  32.582   9.211
 1964POPC   GL228490   5.941  32.873   9.089
 1964POPC   C1A28491   6.107  32.501   8.762
 1964POPC   D2A28492   6.171  32.721   8.348
 1964POPC   C3A28493   6.020  32.722   7.924
 1964POPC   C4A28494   6.202  32.570   7.550
 1964POPC   C1B28495   6.045  33.097   8.674
 1964POPC   C2B28496   5.903  33.393   8.302
 1964POPC   C3B28497   5.687  33.504   7.889
 1964POPC   C4B28498   5.696  33.462   7.425
 1965POPC   NC328499  34.163  38.601   9.335
 1965POPC   PO428500  34.669  38.114   9.454
 1965POPC   GL128501  34.599  38.423   9.138
 1965POPC   GL228502  34.317  38.236   8.973
 1965POPC   C1A28503  34.548  38.671   8.756
 1965POPC   D2A28504  34.345  38.482   8.418
 1965POPC   C3A28505  34.458  38.671   8.032
 1965POPC   C4A28506  34.797  38.870   7.794
 1965POPC   C1B28507  34.721  38.193   8.687
 1965POPC   C2B28508  34.832  38.393   8.268
 1965POPC   C3B28509  34.762  38.303   7.801
 1965POPC   C4B28510  34.826  38.262   7.321
 1966POPC   NC328511  35.804   7.336   9.498
 1966POPC   PO428512  36.439   7.554   9.510
 1966POPC   GL128513  36.183   7.417   9.183
 1966POPC   GL228514  35.918   7.702   9.160
 1966POPC   C1A28515  36.255   7.314   8.784
 1966POPC   D2A28516  36.192   7.440   8.360
 1966POPC   C3A28517  36.036   7.212   8.014
 1966POPC   C4A28518  36.044   7.367   7.591
 1966POPC   C1B28519  35.820   7.573   8.745
 1966POPC   C2B28520  35.785   7.758   8.321
 1966POPC   C3B28521  35.731   7.622   7.906
 1966POPC   C4B28522  35.546   7.210   7.828
 1967POPC   NC328523  38.268  39.072   9.669
 1967POPC   PO428524  38.636  39.664   9.512
 1967POPC   GL128525  38.481  39.495   9.102
 1967POPC   GL228526  38.382  39.154   9.141
 1967POPC   C1A28527  38.453  39.371   8.651
 1967POPC   D2A28528  38.679  39.276   8.229
 1967POPC   C3A28529  38.452  39.358   7.810
 1967POPC   C4A28530  38.275  39.528   7.385
 1967POPC   C1B28531  38.601  38.884   8.813
 1967POPC   C2B28532  38.697  38.697   8.386
 1967POPC   C3B28533  38.672  38.833   7.945
 1967POPC   C4B28534  38.432  38.885   7.564
 1968POPC   NC328535  20.904  35.631   9.334
 1968POPC   PO428536  20.679  36.270   9.480
 1968POPC   GL128537  20.658  36.080   9.083
 1968POPC   GL228538  20.957  35.989   8.949
 1968POPC   C1A28539  20.511  35.843   8.733
 1968POPC   D2A28540  20.834  35.795   8.427
 1968POPC   C3A28541  20.716  36.022   8.081
 1968POPC   C4A28542  20.586  35.945   7.665
 1968POPC   C1B28543  20.768  36.299   8.623
 1968POPC   C2B28544  20.779  36.515   8.209
 1968POPC   C3B28545  20.534  36.472   7.796
 1968POPC   C4B28546  20.609  36.339   7.330
 1969POPC   NC328547   7.119   8.274   9.509
 1969POPC   PO428548   7.719   7.961   9.476
 1969POPC   GL128549   7.507   8.232   9.176
 1969POPC   GL228550   7.201   8.023   9.080
 1969POPC   C1A28551   7.398   8.386   8.768
 1969POPC   D2A28552   7.561   8.233   8.389
 1969POPC   C3A28553   7.520   8.456   8.019
 1969POPC   C4A28554   7.333   8.327   7.621
 1969POPC   C1B28555   7.422   7.835   8.747
 1969POPC   C2B28556   7.347   7.775   8.325
 1969POPC   C3B28557   7.132   8.056   8.070
 1969POPC   C4B28558   6.997   7.919   7.668
 1970POPC   NC328559  25.936  43.315   9.652
 1970POPC   PO428560  26.122  42.688   9.438
 1970POPC   GL128561  26.216  43.032   9.180
 1970POPC   GL228562  25.901  43.146   9.169
 1970POPC   C1A28563  26.195  43.148   8.729
 1970POPC   D2A28564  26.362  43.310   8.314
 1970POPC   C3A28565  26.100  43.079   7.992
 1970POPC   C4A28566  26.142  42.894   7.522
 1970POPC   C1B28567  25.697  43.239   8.789
 1970POPC   C2B28568  25.836  43.364   8.371
 1970POPC   C3B28569  25.704  43.379   7.938
 1970POPC   C4B28570  25.668  42.953   7.721
 1971POPC   NC328571  26.773   6.988   9.560
 1971POPC   PO428572  26.887   6.347   9.465
 1971POPC   GL128573  26.766   6.338   9.044
 1971POPC   GL228574  26.950   6.619   8.950
 1971POPC   C1A28575  26.726   6.348   8.571
 1971POPC   D2A28576  26.455   6.591   8.319
 1971POPC   C3A28577  26.426   6.781   7.895
 1971POPC   C4A28578  26.722   6.982   7.618
 1971POPC   C1B28579  27.073   6.754   8.517
 1971POPC   C2B28580  26.914   6.796   8.137
 1971POPC   C3B28581  26.796   6.449   7.934
 1971POPC   C4B28582  26.457   6.199   7.863
 1972POPC   NC328583  42.945  43.637   9.490
 1972POPC   PO428584  43.325  44.246   9.554
 1972POPC   GL128585  43.143  44.044   9.220
 1972POPC   GL228586  43.288  43.720   9.126
 1972POPC   C1A28587  43.117  44.122   8.795
 1972POPC   D2A28588  43.306  44.204   8.412
 1972POPC   C3A28589  43.073  44.199   8.052
 1972POPC   C4A28590  42.936  44.005   7.699
 1972POPC   C1B28591  42.897  43.672   8.827
 1972POPC   C2B28592  42.933  43.829   8.388
 1972POPC   C3B28593  43.175  43.688   8.022
 1972POPC   C4B28594  42.967  43.451   7.703
 1973POPC   NC328595   1.490  16.292   9.803
 1973POPC   PO428596   1.053  16.130   9.294
 1973POPC   GL128597   1.389  15.966   8.977
 1973POPC   GL228598   1.630  15.681   9.033
 1973POPC   C1A28599   1.306  16.043   8.531
 1973POPC   D2A28600   1.047  16.055   8.159
 1973POPC   C3A28601   1.271  16.137   7.806
 1973POPC   C4A28602   1.402  15.894   7.485
 1973POPC   C1B28603   1.636  15.678   8.636
 1973POPC   C2B28604   1.743  15.817   8.251
 1973POPC   C3B28605   1.497  15.669   7.948
 1973POPC   C4B28606   1.488  15.399   7.588
 1974POPC   NC328607  28.940  19.253   9.557
 1974POPC   PO428608  29.407  18.668   9.516
 1974POPC   GL128609  29.253  18.790   9.101
 1974POPC   GL228610  29.070  19.095   9.093
 1974POPC   C1A28611  29.205  18.801   8.648
 1974POPC   D2A28612  28.997  18.870   8.252
 1974POPC   C3A28613  29.207  18.787   7.923
 1974POPC   C4A28614  29.290  19.077   7.612
 1974POPC   C1B28615  29.188  19.299   8.757
 1974POPC   C2B28616  29.265  19.294   8.349
 1974POPC   C3B28617  29.021  19.314   7.990
 1974POPC   C4B28618  29.101  19.584   7.665
 1975POPC   NC328619   6.124  16.565   9.621
 1975POPC   PO428620   6.815  16.762   9.494
 1975POPC   GL128621   6.710  16.628   9.122
 1975POPC   GL228622   6.362  16.681   9.165
 1975POPC   C1A28623   6.620  16.699   8.696
 1975POPC   D2A28624   6.698  16.570   8.280
 1975POPC   C3A28625   6.995  16.782   8.037
 1975POPC   C4A28626   7.076  16.590   7.673
 1975POPC   C1B28627   6.186  16.961   8.802
 1975POPC   C2B28628   6.249  17.128   8.370
 1975POPC   C3B28629   6.286  16.926   7.971
 1975POPC   C4B28630   6.579  16.623   7.762
 1976POPC   NC328631  27.724  30.082   9.734
 1976POPC   PO428632  27.486  29.450   9.839
 1976POPC   GL128633  27.632  29.659   9.413
 1976POPC   GL228634  27.905  29.504   9.216
 1976POPC   C1A28635  27.639  29.965   9.016
 1976POPC   D2A28636  27.542  29.938   8.531
 1976POPC   C3A28637  27.721  30.137   8.142
 1976POPC   C4A28638  27.553  30.159   7.722
 1976POPC   C1B28639  27.669  29.492   8.802
 1976POPC   C2B28640  27.731  29.376   8.384
 1976POPC   C3B28641  27.618  29.630   8.034
 1976POPC   C4B28642  27.629  29.677   7.603
 1977POPC   NC328643   6.808  19.593   9.692
 1977POPC   PO428644   6.389  20.093   9.493
 1977POPC   GL128645   6.610  19.861   9.138
 1977POPC   GL228646   6.935  19.730   9.196
 1977POPC   C1A28647   6.499  19.885   8.688
 1977POPC   D2A28648   6.487  20.201   8.338
 1977POPC   C3A28649   6.566  19.985   7.964
 1977POPC   C4A28650   6.480  19.530   7.856
 1977POPC   C1B28651   7.006  19.672   8.731
 1977POPC   C2B28652   6.817  19.646   8.298
 1977POPC   C3B28653   7.007  19.761   7.890
 1977POPC   C4B28654   6.803  19.684   7.468
 1978POPC   NC328655  37.004   5.535   9.456
 1978POPC   PO428656  36.350   5.296   9.386
 1978POPC   GL128657  36.721   5.394   9.041
 1978POPC   GL228658  36.972   5.109   9.024
 1978POPC   C1A28659  36.951   5.376   8.591
 1978POPC   D2A28660  37.007   5.031   8.250
 1978POPC   C3A28661  36.703   5.065   7.922
 1978POPC   C4A28662  36.349   5.358   7.767
 1978POPC   C1B28663  37.354   5.107   8.766
 1978POPC   C2B28664  37.452   5.213   8.365
 1978POPC   C3B28665  37.506   4.881   8.035
 1978POPC   C4B28666  37.146   4.686   7.823
 1979POPC   NC328667  11.769   5.419   9.570
 1979POPC   PO428668  12.273   5.894   9.408
 1979POPC   GL128669  11.827   5.919   9.201
 1979POPC   GL228670  11.629   5.609   9.104
 1979POPC   C1A28671  11.766   6.010   8.749
 1979POPC   D2A28672  12.068   5.904   8.448
 1979POPC   C3A28673  12.098   6.013   8.056
 1979POPC   C4A28674  11.969   5.982   7.653
 1979POPC   C1B28675  12.036   5.571   8.867
 1979POPC   C2B28676  12.352   5.486   8.541
 1979POPC   C3B28677  12.283   5.484   8.120
 1979POPC   C4B28678  12.313   5.382   7.700
 1980POPC   NC328679  13.482   1.514   9.559
 1980POPC   PO428680  13.763   0.922   9.441
 1980POPC   GL128681  13.573   1.208   9.156
 1980POPC   GL228682  13.776   1.526   9.137
 1980POPC   C1A28683  13.491   1.370   8.756
 1980POPC   D2A28684  13.795   1.216   8.476
 1980POPC   C3A28685  13.633   1.247   8.070
 1980POPC   C4A28686  13.511   1.193   7.651
 1980POPC   C1B28687  13.920   1.685   8.742
 1980POPC   C2B28688  13.873   1.674   8.284
 1980POPC   C3B28689  14.014   1.530   7.912
 1980POPC   C4B28690  13.807   1.785   7.597
 1981POPC   NC328691  16.261   3.481   9.419
 1981POPC   PO428692  15.635   3.696   9.674
 1981POPC   GL128693  15.728   3.593   9.256
 1981POPC   GL228694  15.908   3.905   9.214
 1981POPC   C1A28695  15.941   3.427   8.874
 1981POPC   D2A28696  16.012   3.515   8.468
 1981POPC   C3A28697  15.988   3.242   8.107
 1981POPC   C4A28698  15.923   3.196   7.673
 1981POPC   C1B28699  15.711   3.889   8.793
 1981POPC   C2B28700  15.586   3.779   8.396
 1981POPC   C3B28701  15.845   3.747   8.036
 1981POPC   C4B28702  15.700   3.657   7.627
 1982POPC   NC328703   0.410  35.173   9.550
 1982POPC   PO428704   0.656  35.794   9.689
 1982POPC   GL128705   0.555  35.595   9.262
 1982POPC   GL228706   0.278  35.752   9.121
 1982POPC   C1A28707   0.655  35.280   8.884
 1982POPC   D2A28708   0.665  35.059   8.437
 1982POPC   C3A28709   0.442  35.216   8.013
 1982POPC   C4A28710   0.410  34.991   7.584
 1982POPC   C1B28711   0.312  35.607   8.706
 1982POPC   C2B28712   0.643  35.563   8.395
 1982POPC   C3B28713   0.599  35.731   7.998
 1982POPC   C4B28714   0.162  35.683   7.965
 1983POPC   NC328715  12.120  27.778   9.515
 1983POPC   PO428716  11.880  27.118   9.492
 1983POPC   GL128717  11.883  27.411   9.146
 1983POPC   GL228718  11.763  27.764   9.141
 1983POPC   C1A28719  12.109  27.416   8.775
 1983POPC   D2A28720  12.245  27.256   8.404
 1983POPC   C3A28721  12.282  27.516   8.108
 1983POPC   C4A28722  12.025  27.390   7.789
 1983POPC   C1B28723  12.042  27.903   8.857
 1983POPC   C2B28724  12.010  27.831   8.433
 1983POPC   C3B28725  11.922  27.850   7.992
 1983POPC   C4B28726  12.086  28.034   7.610
 1984POPC   NC328727  10.384  31.683   9.396
 1984POPC   PO428728  10.494  31.058   9.427
 1984POPC   GL128729  10.603  31.329   9.084
 1984POPC   GL228730  10.859  31.570   9.224
 1984POPC   C1A28731  10.423  31.384   8.656
 1984POPC   D2A28732  10.130  31.393   8.278
 1984POPC   C3A28733  10.179  31.272   7.834
 1984POPC   C4A28734  10.552  31.276   7.597
 1984POPC   C1B28735  10.914  31.615   8.783
 1984POPC   C2B28736  10.814  31.449   8.356
 1984POPC   C3B28737  10.566  31.600   8.012
 1984POPC   C4B28738  10.715  31.745   7.562
 1985POPC   NC328739  42.855  22.262   9.498
 1985POPC   PO428740  43.463  22.606   9.458
 1985POPC   GL128741  43.213  22.362   9.148
 1985POPC   GL228742  43.400  22.127   8.954
 1985POPC   C1A28743  42.931  22.268   8.794
 1985POPC   D2A28744  43.068  21.975   8.446
 1985POPC   C3A28745  42.942  22.062   8.008
 1985POPC   C4A28746  43.155  22.034   7.613
 1985POPC   C1B28747  43.582  21.756   8.801
 1985POPC   C2B28748  43.508  21.684   8.384
 1985POPC   C3B28749  43.433  21.905   8.042
 1985POPC   C4B28750  43.640  21.918   7.682
 1986POPC   NC328751   7.740   6.619   9.578
 1986POPC   PO428752   7.352   7.108   9.462
 1986POPC   GL128753   7.642   6.792   9.104
 1986POPC   GL228754   7.795   6.448   9.106
 1986POPC   C1A28755   7.509   6.833   8.654
 1986POPC   D2A28756   7.117   6.911   8.385
 1986POPC   C3A28757   7.175   6.867   7.922
 1986POPC   C4A28758   7.309   6.553   7.595
 1986POPC   C1B28759   7.936   6.566   8.690
 1986POPC   C2B28760   7.928   6.798   8.305
 1986POPC   C3B28761   7.663   6.646   7.960
 1986POPC   C4B28762   7.808   6.483   7.542
 1987POPC   NC328763  23.064  37.660   9.812
 1987POPC   PO428764  22.616  37.517   9.287
 1987POPC   GL128765  22.992  37.499   9.101
 1987POPC   GL228766  23.195  37.819   9.096
 1987POPC   C1A28767  23.204  37.472   8.708
 1987POPC   D2A28768  23.118  37.681   8.333
 1987POPC   C3A28769  23.111  37.372   8.032
 1987POPC   C4A28770  22.933  37.592   7.712
 1987POPC   C1B28771  22.858  37.862   8.752
 1987POPC   C2B28772  22.703  38.044   8.371
 1987POPC   C3B28773  22.859  38.040   7.961
 1987POPC   C4B28774  22.720  38.081   7.541
 1988POPC   NC328775  14.345  17.988   9.521
 1988POPC   PO428776  14.286  18.685   9.518
 1988POPC   GL128777  14.500  18.393   9.214
 1988POPC   GL228778  14.206  18.215   9.077
 1988POPC   C1A28779  14.627  18.242   8.796
 1988POPC   D2A28780  14.391  18.300   8.393
 1988POPC   C3A28781  14.568  18.394   7.994
 1988POPC   C4A28782  14.296  18.669   7.803
 1988POPC   C1B28783  14.188  17.945   8.706
 1988POPC   C2B28784  14.217  17.782   8.291
 1988POPC   C3B28785  14.342  17.942   7.897
 1988POPC   C4B28786  14.164  18.207   7.578
 1989POPC   NC328787   2.159   6.360   9.294
 1989POPC   PO428788   2.020   6.991   9.501
 1989POPC   GL128789   1.932   6.806   9.101
 1989POPC   GL228790   1.589   6.686   9.131
 1989POPC   C1A28791   2.132   6.628   8.699
 1989POPC   D2A28792   2.237   6.415   8.296
 1989POPC   C3A28793   2.042   6.680   7.967
 1989POPC   C4A28794   2.230   7.026   7.736
 1989POPC   C1B28795   1.653   6.412   8.758
 1989POPC   C2B28796   1.704   6.363   8.291
 1989POPC   C3B28797   1.619   6.426   7.838
 1989POPC   C4B28798   1.838   6.296   7.433
 1990POPC   NC328799  44.977  14.464   9.479
 1990POPC   PO428800  44.417  14.240   9.724
 1990POPC   GL128801  44.475  14.362   9.270
 1990POPC   GL228802  44.693  14.129   9.167
 1990POPC   C1A28803  44.685  14.547   8.853
 1990POPC   D2A28804  44.898  14.561   8.420
 1990POPC   C3A28805  44.604  14.718   8.097
 1990POPC   C4A28806  44.329  14.552   7.785
 1990POPC   C1B28807  44.843  14.072   8.736
 1990POPC   C2B28808  44.890  14.046   8.313
 1990POPC   C3B28809  44.768  14.245   7.960
 1990POPC   C4B28810  44.807  14.368   7.569
 1991POPC   NC328811  32.162  25.917   9.823
 1991POPC   PO428812  32.685  25.669   9.553
 1991POPC   GL128813  32.432  25.834   9.200
 1991POPC   GL228814  32.227  26.139   9.232
 1991POPC   C1A28815  32.344  25.858   8.741
 1991POPC   D2A28816  32.319  25.647   8.316
 1991POPC   C3A28817  32.091  25.819   8.005
 1991POPC   C4A28818  32.264  25.853   7.662
 1991POPC   C1B28819  32.251  26.371   8.830
 1991POPC   C2B28820  32.370  26.240   8.385
 1991POPC   C3B28821  32.324  26.286   7.943
 1991POPC   C4B28822  32.055  26.293   7.537
 1992POPC   NC328823  30.352   8.089   9.587
 1992POPC   PO428824  29.752   8.229   9.620
 1992POPC   GL128825  29.967   8.027   9.222
 1992POPC   GL228826  29.912   8.348   9.045
 1992POPC   C1A28827  29.817   7.930   8.751
 1992POPC   D2A28828  29.817   8.270   8.394
 1992POPC   C3A28829  29.655   8.171   7.976
 1992POPC   C4A28830  29.830   8.286   7.590
 1992POPC   C1B28831  30.216   8.205   8.785
 1992POPC   C2B28832  30.205   7.947   8.385
 1992POPC   C3B28833  30.172   8.102   7.969
 1992POPC   C4B28834  30.190   7.963   7.547
 1993POPC   NC328835   8.353   1.313   9.523
 1993POPC   PO428836   7.888   0.884   9.619
 1993POPC   GL128837   8.102   0.996   9.190
 1993POPC   GL228838   8.111   1.363   9.078
 1993POPC   C1A28839   8.318   1.009   8.750
 1993POPC   D2A28840   8.449   0.909   8.305
 1993POPC   C3A28841   8.264   1.173   7.959
 1993POPC   C4A28842   7.814   1.258   7.747
 1993POPC   C1B28843   8.206   1.526   8.658
 1993POPC   C2B28844   7.980   1.705   8.281
 1993POPC   C3B28845   8.108   1.657   7.851
 1993POPC   C4B28846   8.566   1.549   7.771
 1994POPC   NC328847   7.414  20.789   9.472
 1994POPC   PO428848   7.266  20.035   9.496
 1994POPC   GL128849   7.224  20.429   9.162
 1994POPC   GL228850   7.515  20.579   9.031
 1994POPC   C1A28851   7.087  20.683   8.786
 1994POPC   D2A28852   7.402  20.795   8.488
 1994POPC   C3A28853   7.283  20.812   8.055
 1994POPC   C4A28854   7.514  20.581   7.732
 1994POPC   C1B28855   7.793  20.579   8.744
 1994POPC   C2B28856   7.948  20.491   8.403
 1994POPC   C3B28857   7.923  20.293   8.058
 1994POPC   C4B28858   7.890  20.219   7.699
 1995POPC   NC328859   0.740  16.905   9.553
 1995POPC   PO428860   0.142  16.580   9.498
 1995POPC   GL128861   0.338  16.862   9.173
 1995POPC   GL228862   0.620  17.118   9.102
 1995POPC   C1A28863   0.442  16.838   8.733
 1995POPC   D2A28864   0.257  16.979   8.396
 1995POPC   C3A28865   0.328  16.760   8.048
 1995POPC   C4A28866   0.380  16.783   7.644
 1995POPC   C1B28867   0.864  17.133   8.688
 1995POPC   C2B28868   0.757  16.960   8.289
 1995POPC   C3B28869   0.822  16.880   7.863
 1995POPC   C4B28870   0.829  16.785   7.394
 1996POPC   NC328871  26.887  41.179   9.280
 1996POPC   PO428872  26.956  40.548   9.513
 1996POPC   GL128873  26.849  40.693   9.091
 1996POPC   GL228874  26.517  40.821   9.173
 1996POPC   C1A28875  26.860  40.747   8.601
 1996POPC   D2A28876  26.849  40.957   8.193
 1996POPC   C3A28877  27.230  41.054   8.001
 1996POPC   C4A28878  27.148  41.133   7.562
 1996POPC   C1B28879  26.439  40.559   8.801
 1996POPC   C2B28880  26.411  40.712   8.344
 1996POPC   C3B28881  26.500  40.690   7.890
 1996POPC   C4B28882  26.635  40.296   7.684
 1997POPC   NC328883  14.418  24.099   9.509
 1997POPC   PO428884  14.194  24.694   9.722
 1997POPC   GL128885  14.441  24.546   9.250
 1997POPC   GL228886  14.628  24.210   9.069
 1997POPC   C1A28887  14.354  24.504   8.775
 1997POPC   D2A28888  14.563  24.574   8.423
 1997POPC   C3A28889  14.397  24.426   8.098
 1997POPC   C4A28890  14.545  24.421   7.702
 1997POPC   C1B28891  14.249  24.030   8.875
 1997POPC   C2B28892  14.097  23.953   8.446
 1997POPC   C3B28893  13.960  24.151   8.081
 1997POPC   C4B28894  14.064  24.232   7.638
 1998POPC   NC328895  34.381  36.899   9.545
 1998POPC   PO428896  35.026  37.181   9.513
 1998POPC   GL128897  34.858  36.903   9.160
 1998POPC   GL228898  34.651  36.603   9.163
 1998POPC   C1A28899  34.838  36.767   8.722
 1998POPC   D2A28900  34.673  36.860   8.335
 1998POPC   C3A28901  34.748  37.230   8.109
 1998POPC   C4A28902  34.653  37.211   7.687
 1998POPC   C1B28903  34.349  36.529   8.773
 1998POPC   C2B28904  34.230  36.630   8.290
 1998POPC   C3B28905  34.455  36.746   7.869
 1998POPC   C4B28906  34.675  36.729   7.444
 1999POPC   NC328907  30.994  38.653   9.459
 1999POPC   PO428908  30.306  38.628   9.435
 1999POPC   GL128909  30.586  38.386   9.132
 1999POPC   GL228910  30.241  38.274   9.056
 1999POPC   C1A28911  30.809  38.466   8.670
 1999POPC   D2A28912  30.924  38.644   8.234
 1999POPC   C3A28913  30.927  38.372   7.805
 1999POPC   C4A28914  30.764  38.210   7.378
 1999POPC   C1B28915  30.369  38.681   8.794
 1999POPC   C2B28916  30.336  38.568   8.362
 1999POPC   C3B28917  30.492  38.601   7.972
 1999POPC   C4B28918  30.375  38.475   7.598
 2000POPC   NC328919  13.131  38.585   9.582
 2000POPC   PO428920  12.503  38.430   9.636
 2000POPC   GL128921  12.713  38.462   9.261
 2000POPC   GL228922  12.690  38.169   9.141
 2000POPC   C1A28923  12.718  38.657   8.853
 2000POPC   D2A28924  12.934  38.674   8.477
 2000POPC   C3A28925  12.876  38.681   8.012
 2000POPC   C4A28926  12.575  38.832   7.693
 2000POPC   C1B28927  12.873  38.201   8.688
 2000POPC   C2B28928  13.121  38.226   8.266
 2000POPC   C3B28929  13.080  38.191   7.805
 2000POPC   C4B28930  13.118  38.088   7.320
 2001POPC   NC328931  14.518  42.818   9.866
 2001POPC   PO428932  14.754  43.400   9.778
 2001POPC   GL128933  14.532  43.248   9.360
 2001POPC   GL228934  14.700  42.927   9.358
 2001POPC   C1A28935  14.282  43.223   8.889
 2001POPC   D2A28936  14.067  43.335   8.487
 2001POPC   C3A28937  14.263  43.241   8.077
 2001POPC   C4A28938  14.341  43.350   7.627
 2001POPC   C1B28939  14.774  43.120   8.936
 2001POPC   C2B28940  14.630  43.158   8.491
 2001POPC   C3B28941  14.748  43.052   8.048
 2001POPC   C4B28942  14.852  43.227   7.646
 2002POPC   NC328943   7.858  35.849   9.538
 2002POPC   PO428944   8.165  35.268   9.651
 2002POPC   GL128945   8.101  35.235   9.213
 2002POPC   GL228946   7.995  35.559   9.140
 2002POPC   C1A28947   7.898  35.218   8.780
 2002POPC   D2A28948   7.754  35.372   8.382
 2002POPC   C3A28949   7.956  35.358   7.971
 2002POPC   C4A28950   7.964  35.362   7.507
 2002POPC   C1B28951   8.120  35.690   8.729
 2002POPC   C2B28952   8.263  35.529   8.342
 2002POPC   C3B28953   8.393  35.653   7.919
 2002POPC   C4B28954   8.281  35.766   7.477
 2003POPC   NC328955  16.101  24.082   9.757
 2003POPC   PO428956  15.700  23.580   9.477
 2003POPC   GL128957  15.970  23.722   9.143
 2003POPC   GL228958  16.249  23.509   9.019
 2003POPC   C1A28959  15.929  23.805   8.705
 2003POPC   D2A28960  15.632  23.911   8.375
 2003POPC   C3A28961  15.823  23.965   7.983
 2003POPC   C4A28962  16.107  24.088   7.676
 2003POPC   C1B28963  15.877  23.303   8.837
 2003POPC   C2B28964  15.752  23.385   8.415
 2003POPC   C3B28965  15.913  23.481   8.032
 2003POPC   C4B28966  15.744  23.578   7.621
 2004POPC   NC328967  31.525  29.057   9.676
 2004POPC   PO428968  31.171  29.475   9.253
 2004POPC   GL128969  31.309  29.052   9.142
 2004POPC   GL228970  31.679  28.935   9.131
 2004POPC   C1A28971  31.286  29.074   8.704
 2004POPC   D2A28972  31.533  29.257   8.340
 2004POPC   C3A28973  31.354  29.312   7.931
 2004POPC   C4A28974  31.430  29.373   7.524
 2004POPC   C1B28975  31.785  28.967   8.677
 2004POPC   C2B28976  31.904  28.905   8.200
 2004POPC   C3B28977  31.807  29.091   7.774
 2004POPC   C4B28978  31.797  28.894   7.337
 2005POPC   NC328979  36.060  20.271   9.342
 2005POPC   PO428980  36.227  19.582   9.412
 2005POPC   GL128981  36.238  19.567   8.990
 2005POPC   GL228982  35.920  19.793   8.970
 2005POPC   C1A28983  36.281  19.806   8.615
 2005POPC   D2A28984  36.146  19.977   8.229
 2005POPC   C3A28985  36.313  19.760   7.864
 2005POPC   C4A28986  36.440  19.492   7.491
 2005POPC   C1B28987  35.626  20.132   8.783
 2005POPC   C2B28988  35.644  20.449   8.463
 2005POPC   C3B28989  35.822  20.359   8.053
 2005POPC   C4B28990  35.889  20.051   7.779
 2006POPC   NC328991  31.722  38.626   9.517
 2006POPC   PO428992  31.159  38.217   9.647
 2006POPC   GL128993  31.399  38.290   9.237
 2006POPC   GL228994  31.749  38.148   9.222
 2006POPC   C1A28995  31.467  38.398   8.765
 2006POPC   D2A28996  31.356  38.324   8.300
 2006POPC   C3A28997  31.346  38.643   7.935
 2006POPC   C4A28998  31.210  38.689   7.473
 2006POPC   C1B28999  31.976  38.298   8.843
 2006POPC   C2B29000  31.954  38.427   8.413
 2006POPC   C3B29001  31.790  38.233   8.041
 2006POPC   C4B29002  31.668  38.380   7.647
 2007POPC   NC329003  40.331  36.002   9.286
 2007POPC   PO429004  39.744  36.441   9.377
 2007POPC   GL129005  39.902  36.191   9.068
 2007POPC   GL229006  39.848  35.868   9.090
 2007POPC   C1A29007  40.115  36.100   8.667
 2007POPC   D2A29008  40.172  36.378   8.334
 2007POPC   C3A29009  40.000  36.231   7.992
 2007POPC   C4A29010  40.299  36.052   7.748
 2007POPC   C1B29011  39.576  35.999   8.737
 2007POPC   C2B29012  39.686  35.953   8.332
 2007POPC   C3B29013  39.674  35.822   7.946
 2007POPC   C4B29014  39.861  35.819   7.526
 2008POPC   NC329015  16.109  22.454   9.450
 2008POPC   PO429016  15.821  21.801   9.495
 2008POPC   GL129017  15.925  22.058   9.172
 2008POPC   GL229018  16.231  21.971   9.189
 2008POPC   C1A29019  15.948  22.243   8.777
 2008POPC   D2A29020  16.091  22.425   8.408
 2008POPC   C3A29021  15.833  22.303   8.097
 2008POPC   C4A29022  15.867  22.219   7.714
 2008POPC   C1B29023  16.145  21.771   8.783
 2008POPC   C2B29024  15.983  21.904   8.377
 2008POPC   C3B29025  16.177  21.893   7.973
 2008POPC   C4B29026  16.073  21.750   7.574
 2009POPC   NC329027  22.750  40.929   9.605
 2009POPC   PO429028  23.271  40.477   9.577
 2009POPC   GL129029  23.065  40.724   9.258
 2009POPC   GL229030  23.183  41.040   9.336
 2009POPC   C1A29031  22.772  40.941   8.940
 2009POPC   D2A29032  22.599  40.780   8.586
 2009POPC   C3A29033  22.656  40.921   8.189
 2009POPC   C4A29034  22.806  40.753   7.805
 2009POPC   C1B29035  23.249  41.025   8.877
 2009POPC   C2B29036  23.043  41.093   8.489
 2009POPC   C3B29037  23.158  41.018   8.068
 2009POPC   C4B29038  23.318  40.828   7.696
 2010POPC   NC329039  10.271  35.633   9.552
 2010POPC   PO429040  10.538  35.018   9.633
 2010POPC   GL129041  10.537  35.265   9.253
 2010POPC   GL229042  10.260  35.370   9.119
 2010POPC   C1A29043  10.713  35.367   8.840
 2010POPC   D2A29044  10.673  35.525   8.407
 2010POPC   C3A29045  10.911  35.323   8.092
 2010POPC   C4A29046  10.832  35.201   7.685
 2010POPC   C1B29047  10.306  35.665   8.788
 2010POPC   C2B29048  10.161  35.858   8.416
 2010POPC   C3B29049  10.280  35.710   8.043
 2010POPC   C4B29050  10.419  35.499   7.687
 2011POPC   NC329051  23.926  23.789   9.404
 2011POPC   PO429052  24.675  23.612   9.565
 2011POPC   GL129053  24.512  23.803   9.232
 2011POPC   GL229054  24.307  23.586   9.106
 2011POPC   C1A29055  24.596  23.953   8.829
 2011POPC   D2A29056  24.365  24.018   8.473
 2011POPC   C3A29057  24.422  23.906   8.059
 2011POPC   C4A29058  24.264  23.764   7.662
 2011POPC   C1B29059  24.684  23.452   8.868
 2011POPC   C2B29060  24.677  23.587   8.428
 2011POPC   C3B29061  24.585  23.429   8.005
 2011POPC   C4B29062  24.490  23.317   7.557
 2012POPC   NC329063   4.994  43.519   9.780
 2012POPC   PO429064   5.479  43.000   9.602
 2012POPC   GL129065   5.424  43.107   9.181
 2012POPC   GL229066   5.205  42.848   8.963
 2012POPC   C1A29067   5.447  43.232   8.780
 2012POPC   D2A29068   5.142  43.128   8.481
 2012POPC   C3A29069   5.328  43.180   8.090
 2012POPC   C4A29070   5.280  42.887   7.765
 2012POPC   C1B29071   4.831  43.099   8.905
 2012POPC   C2B29072   4.577  43.166   8.531
 2012POPC   C3B29073   4.780  43.226   8.108
 2012POPC   C4B29074   4.972  43.284   7.719
 2013POPC   NC329075  35.555  13.818   9.459
 2013POPC   PO429076  34.940  13.457   9.645
 2013POPC   GL129077  35.221  13.488   9.229
 2013POPC   GL229078  35.105  13.765   9.088
 2013POPC   C1A29079  35.507  13.598   8.840
 2013POPC   D2A29080  35.488  13.882   8.468
 2013POPC   C3A29081  35.511  13.706   8.045
 2013POPC   C4A29082  35.542  13.624   7.607
 2013POPC   C1B29083  35.028  13.789   8.668
 2013POPC   C2B29084  35.020  13.600   8.258
 2013POPC   C3B29085  35.031  13.609   7.794
 2013POPC   C4B29086  35.095  13.511   7.330
 2014POPC   NC329087  26.747  18.012   9.891
 2014POPC   PO429088  26.799  17.436   9.487
 2014POPC   GL129089  26.792  17.459   9.048
 2014POPC   GL229090  26.751  17.798   9.035
 2014POPC   C1A29091  26.830  17.479   8.584
 2014POPC   D2A29092  26.960  17.318   8.198
 2014POPC   C3A29093  26.736  17.446   7.848
 2014POPC   C4A29094  26.795  17.226   7.446
 2014POPC   C1B29095  27.131  17.839   8.774
 2014POPC   C2B29096  27.261  17.695   8.367
 2014POPC   C3B29097  27.155  17.750   7.950
 2014POPC   C4B29098  27.178  17.523   7.591
 2015POPC   NC329099  13.545  34.505   9.526
 2015POPC   PO429100  13.811  35.040   9.343
 2015POPC   GL129101  13.623  34.837   9.003
 2015POPC   GL229102  13.674  34.498   9.031
 2015POPC   C1A29103  13.368  34.830   8.641
 2015POPC   D2A29104  13.360  34.660   8.215
 2015POPC   C3A29105  13.649  34.772   7.870
 2015POPC   C4A29106  13.659  34.661   7.431
 2015POPC   C1B29107  13.650  34.377   8.598
 2015POPC   C2B29108  13.832  34.366   8.171
 2015POPC   C3B29109  13.802  34.258   7.728
 2015POPC   C4B29110  13.668  34.178   7.277
 2016POPC   NC329111   1.693   0.023   9.323
 2016POPC   PO429112   1.053   0.026   9.455
 2016POPC   GL129113   1.069   0.340   9.066
 2016POPC   GL229114   0.776   0.627   9.059
 2016POPC   C1A29115   1.418   0.449   8.724
 2016POPC   D2A29116   1.623   0.421   8.283
 2016POPC   C3A29117   1.443   0.377   7.828
 2016POPC   C4A29118   1.523   0.557   7.370
 2016POPC   C1B29119   0.979   0.693   8.685
 2016POPC   C2B29120   1.104   0.482   8.310
 2016POPC   C3B29121   1.150   0.766   7.976
 2016POPC   C4B29122   1.077   0.669   7.563
 2017POPC   NC329123   7.784  16.034   9.286
 2017POPC   PO429124   7.201  15.840   9.519
 2017POPC   GL129125   7.362  15.776   9.127
 2017POPC   GL229126   7.244  16.107   9.065
 2017POPC   C1A29127   7.264  15.775   8.689
 2017POPC   D2A29128   7.213  15.517   8.371
 2017POPC   C3A29129   7.242  15.750   8.039
 2017POPC   C4A29130   7.040  15.800   7.687
 2017POPC   C1B29131   7.499  16.238   8.732
 2017POPC   C2B29132   7.540  16.149   8.303
 2017POPC   C3B29133   7.348  16.237   7.919
 2017POPC   C4B29134   7.516  16.368   7.533
 2018POPC   NC329135  41.305   5.273   9.533
 2018POPC   PO429136  41.689   5.789   9.459
 2018POPC   GL129137  41.480   5.874   9.068
 2018POPC   GL229138  41.158   5.756   9.074
 2018POPC   C1A29139  41.512   6.039   8.643
 2018POPC   D2A29140  41.729   5.910   8.283
 2018POPC   C3A29141  41.689   6.055   7.933
 2018POPC   C4A29142  41.750   5.793   7.649
 2018POPC   C1B29143  40.998   6.037   8.737
 2018POPC   C2B29144  41.108   6.182   8.332
 2018POPC   C3B29145  41.199   5.941   7.988
 2018POPC   C4B29146  41.282   5.951   7.568
 2019POPC   NC329147  30.135   5.058   9.757
 2019POPC   PO429148  29.435   5.251   9.688
 2019POPC   GL129149  29.661   5.173   9.278
 2019POPC   GL229150  29.997   5.021   9.272
 2019POPC   C1A29151  29.687   5.184   8.811
 2019POPC   D2A29152  29.723   5.374   8.388
 2019POPC   C3A29153  29.983   5.217   8.028
 2019POPC   C4A29154  29.701   5.300   7.694
 2019POPC   C1B29155  30.056   4.856   8.825
 2019POPC   C2B29156  30.066   4.872   8.386
 2019POPC   C3B29157  30.167   4.696   7.971
 2019POPC   C4B29158  30.307   4.970   7.667
 2020POPC   NC329159  27.553  33.328   9.451
 2020POPC   PO429160  27.741  32.609   9.456
 2020POPC   GL129161  27.558  32.905   9.170
 2020POPC   GL229162  27.884  33.058   9.175
 2020POPC   C1A29163  27.593  33.081   8.739
 2020POPC   D2A29164  27.415  33.005   8.321
 2020POPC   C3A29165  27.532  33.198   7.942
 2020POPC   C4A29166  27.920  33.212   7.693
 2020POPC   C1B29167  27.919  32.705   8.849
 2020POPC   C2B29168  27.838  32.690   8.430
 2020POPC   C3B29169  27.892  32.817   8.027
 2020POPC   C4B29170  27.857  32.610   7.651
 2021POPC   NC329171  19.035   8.682   9.403
 2021POPC   PO429172  18.745   9.189   9.672
 2021POPC   GL129173  18.989   9.242   9.164
 2021POPC   GL229174  19.161   8.986   9.023
 2021POPC   C1A29175  18.911   9.234   8.666
 2021POPC   D2A29176  18.886   8.915   8.326
 2021POPC   C3A29177  18.771   9.012   7.947
 2021POPC   C4A29178  19.148   9.022   7.724
 2021POPC   C1B29179  19.409   9.257   8.759
 2021POPC   C2B29180  19.354   9.192   8.283
 2021POPC   C3B29181  19.618   9.089   7.900
 2021POPC   C4B29182  19.588   8.926   7.459
 2022POPC   NC329183  20.731  38.963   9.402
 2022POPC   PO429184  20.276  39.464   9.395
 2022POPC   GL129185  20.517  39.312   9.075
 2022POPC   GL229186  20.865  39.349   9.077
 2022POPC   C1A29187  20.499  38.996   8.783
 2022POPC   D2A29188  20.267  38.974   8.438
 2022POPC   C3A29189  20.431  38.975   8.036
 2022POPC   C4A29190  20.386  39.230   7.712
 2022POPC   C1B29191  20.991  39.108   8.724
 2022POPC   C2B29192  20.861  39.104   8.294
 2022POPC   C3B29193  20.844  39.349   7.898
 2022POPC   C4B29194  20.886  39.326   7.428
 2023POPC   NC329195  24.843  24.115   9.460
 2023POPC   PO429196  24.174  24.177   9.376
 2023POPC   GL129197  24.509  24.379   9.121
 2023POPC   GL229198  24.579  24.704   9.308
 2023POPC   C1A29199  24.670  24.435   8.664
 2023POPC   D2A29200  24.524  24.422   8.193
 2023POPC   C3A29201  24.726  24.249   7.796
 2023POPC   C4A29202  24.575  24.055   7.388
 2023POPC   C1B29203  24.419  24.857   8.920
 2023POPC   C2B29204  24.440  24.854   8.491
 2023POPC   C3B29205  24.718  24.893   8.176
 2023POPC   C4B29206  24.629  24.748   7.741
 2024POPC   NC329207  27.565  21.086   9.512
 2024POPC   PO429208  27.391  21.733   9.524
 2024POPC   GL129209  27.444  21.555   9.151
 2024POPC   GL229210  27.762  21.425   9.178
 2024POPC   C1A29211  27.422  21.686   8.737
 2024POPC   D2A29212  27.522  21.498   8.362
 2024POPC   C3A29213  27.332  21.576   7.990
 2024POPC   C4A29214  27.473  21.733   7.574
 2024POPC   C1B29215  27.690  21.227   8.780
 2024POPC   C2B29216  27.750  21.030   8.367
 2024POPC   C3B29217  27.819  21.246   7.965
 2024POPC   C4B29218  27.523  21.235   7.632
 2025POPC   NC329219  16.453   5.057   9.491
 2025POPC   PO429220  17.018   5.488   9.541
 2025POPC   GL129221  17.062   5.242   9.139
 2025POPC   GL229222  16.762   5.077   9.097
 2025POPC   C1A29223  17.046   5.034   8.707
 2025POPC   D2A29224  16.768   4.837   8.455
 2025POPC   C3A29225  16.951   4.966   8.083
 2025POPC   C4A29226  16.863   5.216   7.731
 2025POPC   C1B29227  16.466   5.286   8.832
 2025POPC   C2B29228  16.343   5.160   8.435
 2025POPC   C3B29229  16.451   5.053   8.029
 2025POPC   C4B29230  16.384   5.348   7.668
 2026POPC   NC329231  36.587   7.092   9.453
 2026POPC   PO429232  37.200   7.420   9.435
 2026POPC   GL129233  37.050   7.577   9.055
 2026POPC   GL229234  36.714   7.472   9.091
 2026POPC   C1A29235  37.085   7.372   8.667
 2026POPC   D2A29236  37.333   7.396   8.320
 2026POPC   C3A29237  37.105   7.473   7.931
 2026POPC   C4A29238  36.914   7.325   7.577
 2026POPC   C1B29239  36.657   7.620   8.689
 2026POPC   C2B29240  36.700   7.390   8.286
 2026POPC   C3B29241  36.512   7.362   7.882
 2026POPC   C4B29242  36.502   7.631   7.503
 2027POPC   NC329243  18.942   4.652   9.553
 2027POPC   PO429244  19.316   4.148   9.525
 2027POPC   GL129245  19.050   4.282   9.168
 2027POPC   GL229246  18.707   4.182   9.116
 2027POPC   C1A29247  18.933   4.373   8.717
 2027POPC   D2A29248  19.010   4.123   8.349
 2027POPC   C3A29249  19.110   4.390   7.992
 2027POPC   C4A29250  19.028   4.501   7.558
 2027POPC   C1B29251  18.501   4.056   8.692
 2027POPC   C2B29252  18.533   4.070   8.203
 2027POPC   C3B29253  18.782   4.051   7.797
 2027POPC   C4B29254  18.724   4.132   7.335
 2028POPC   NC329255  42.919  24.079   9.490
 2028POPC   PO429256  43.286  23.554   9.432
 2028POPC   GL129257  43.176  23.740   9.077
 2028POPC   GL229258  43.273  24.041   9.128
 2028POPC   C1A29259  43.129  23.713   8.636
 2028POPC   D2A29260  42.825  23.511   8.401
 2028POPC   C3A29261  42.888  23.399   7.984
 2028POPC   C4A29262  42.993  23.617   7.624
 2028POPC   C1B29263  43.495  24.066   8.753
 2028POPC   C2B29264  43.321  24.082   8.343
 2028POPC   C3B29265  43.156  24.011   7.958
 2028POPC   C4B29266  43.435  23.824   7.704
 2029POPC   NC329267  11.643  32.361  10.285
 2029POPC   PO429268  11.261  32.257   9.770
 2029POPC   GL129269  11.120  32.201   9.243
 2029POPC   GL229270  11.251  31.886   9.103
 2029POPC   C1A29271  11.006  32.150   8.761
 2029POPC   D2A29272  11.283  32.329   8.409
 2029POPC   C3A29273  11.158  32.347   7.997
 2029POPC   C4A29274  11.160  31.964   7.718
 2029POPC   C1B29275  11.514  31.969   8.700
 2029POPC   C2B29276  11.571  31.961   8.194
 2029POPC   C3B29277  11.600  32.206   7.779
 2029POPC   C4B29278  11.545  32.354   7.333
 2030POPC   NC329279   4.866   7.796   9.499
 2030POPC   PO429280   5.153   7.247   9.743
 2030POPC   GL129281   4.975   7.298   9.291
 2030POPC   GL229282   4.610   7.343   9.165
 2030POPC   C1A29283   5.005   7.555   8.880
 2030POPC   D2A29284   5.337   7.647   8.592
 2030POPC   C3A29285   5.329   7.489   8.139
 2030POPC   C4A29286   5.372   7.515   7.681
 2030POPC   C1B29287   4.824   7.090   8.827
 2030POPC   C2B29288   5.117   7.165   8.497
 2030POPC   C3B29289   4.965   7.143   8.077
 2030POPC   C4B29290   4.879   7.499   7.831
 2031POPC   NC329291  29.862  18.866   9.545
 2031POPC   PO429292  30.125  19.470   9.696
 2031POPC   GL129293  29.777  19.315   9.295
 2031POPC   GL229294  29.912  18.989   9.068
 2031POPC   C1A29295  29.678  19.357   8.822
 2031POPC   D2A29296  29.661  18.999   8.486
 2031POPC   C3A29297  29.632  19.117   8.027
 2031POPC   C4A29298  29.988  19.265   7.765
 2031POPC   C1B29299  30.202  18.639   8.937
 2031POPC   C2B29300  30.258  18.579   8.500
 2031POPC   C3B29301  30.163  18.748   8.090
 2031POPC   C4B29302  29.875  18.757   7.767
 2032POPC   NC329303  18.370   7.117   9.488
 2032POPC   PO429304  18.044   7.663   9.456
 2032POPC   GL129305  17.978   7.408   9.097
 2032POPC   GL229306  18.330   7.469   9.000
 2032POPC   C1A29307  17.941   7.511   8.648
 2032POPC   D2A29308  18.147   7.717   8.315
 2032POPC   C3A29309  18.245   7.549   7.936
 2032POPC   C4A29310  18.596   7.454   7.767
 2032POPC   C1B29311  18.364   7.251   8.564
 2032POPC   C2B29312  18.484   7.084   8.139
 2032POPC   C3B29313  18.833   7.004   7.816
 2032POPC   C4B29314  18.786   7.188   7.368
 2033POPC   NC329315   1.670  18.150   9.497
 2033POPC   PO429316   2.285  18.225   9.158
 2033POPC   GL129317   2.069  18.580   9.073
 2033POPC   GL229318   1.776  18.399   9.068
 2033POPC   C1A29319   1.978  18.630   8.646
 2033POPC   D2A29320   1.832  18.461   8.291
 2033POPC   C3A29321   2.167  18.435   8.027
 2033POPC   C4A29322   2.182  18.182   7.659
 2033POPC   C1B29323   1.762  17.975   8.867
 2033POPC   C2B29324   1.816  17.868   8.454
 2033POPC   C3B29325   1.992  17.971   8.095
 2033POPC   C4B29326   1.798  17.865   7.732
 2034POPC   NC329327  24.464  30.492   9.567
 2034POPC   PO429328  24.228  29.786   9.464
 2034POPC   GL129329  24.529  29.942   9.169
 2034POPC   GL229330  24.719  29.647   8.984
 2034POPC   C1A29331  24.401  29.988   8.785
 2034POPC   D2A29332  24.380  29.844   8.393
 2034POPC   C3A29333  24.204  30.143   8.143
 2034POPC   C4A29334  24.333  30.165   7.724
 2034POPC   C1B29335  24.894  30.029   8.747
 2034POPC   C2B29336  24.833  30.063   8.303
 2034POPC   C3B29337  24.683  29.889   7.953
 2034POPC   C4B29338  24.847  30.212   7.703
 2035POPC   NC329339  27.752  40.800   9.592
 2035POPC   PO429340  27.291  41.323   9.481
 2035POPC   GL129341  27.444  41.052   9.165
 2035POPC   GL229342  27.371  40.703   9.236
 2035POPC   C1A29343  27.666  40.871   8.807
 2035POPC   D2A29344  27.555  40.848   8.369
 2035POPC   C3A29345  27.835  40.942   8.019
 2035POPC   C4A29346  27.592  40.900   7.667
 2035POPC   C1B29347  27.269  40.571   8.818
 2035POPC   C2B29348  27.267  40.336   8.440
 2035POPC   C3B29349  27.405  40.459   8.016
 2035POPC   C4B29350  27.426  40.410   7.542
 2036POPC   NC329351  27.105  38.289   9.381
 2036POPC   PO429352  26.745  38.856   9.734
 2036POPC   GL129353  26.638  38.627   9.253
 2036POPC   GL229354  26.681  38.242   9.088
 2036POPC   C1A29355  26.767  38.618   8.770
 2036POPC   D2A29356  26.799  38.360   8.380
 2036POPC   C3A29357  27.045  38.529   8.058
 2036POPC   C4A29358  26.923  38.668   7.647
 2036POPC   C1B29359  27.044  38.105   8.757
 2036POPC   C2B29360  27.259  38.116   8.315
 2036POPC   C3B29361  27.087  37.986   7.940
 2036POPC   C4B29362  26.704  38.218   7.840
 2037POPC   NC329363   1.501  19.102   9.476
 2037POPC   PO429364   0.900  19.312   9.204
 2037POPC   GL129365   1.119  18.919   9.129
 2037POPC   GL229366   1.482  18.812   9.067
 2037POPC   C1A29367   1.174  18.977   8.691
 2037POPC   D2A29368   1.214  19.263   8.380
 2037POPC   C3A29369   1.473  19.198   8.064
 2037POPC   C4A29370   1.180  19.203   7.788
 2037POPC   C1B29371   1.485  18.586   8.691
 2037POPC   C2B29372   1.394  18.722   8.294
 2037POPC   C3B29373   1.220  18.625   7.931
 2037POPC   C4B29374   1.431  18.786   7.620
 2038POPC   NC329375   3.029  21.489   9.498
 2038POPC   PO429376   3.647  21.218   9.598
 2038POPC   GL129377   3.663  21.267   9.179
 2038POPC   GL229378   3.314  21.192   9.154
 2038POPC   C1A29379   3.758  21.277   8.725
 2038POPC   D2A29380   3.538  21.304   8.333
 2038POPC   C3A29381   3.734  21.380   7.931
 2038POPC   C4A29382   3.685  21.768   7.701
 2038POPC   C1B29383   3.273  21.058   8.717
 2038POPC   C2B29384   3.197  20.919   8.286
 2038POPC   C3B29385   3.283  21.127   7.895
 2038POPC   C4B29386   3.221  21.509   7.677
 2039POPC   NC329387  44.703  40.456   9.615
 2039POPC   PO429388  44.643  41.161   9.511
 2039POPC   GL129389  44.532  40.821   9.254
 2039POPC   GL229390  44.850  40.731   9.221
 2039POPC   C1A29391  44.457  40.659   8.827
 2039POPC   D2A29392  44.639  40.775   8.440
 2039POPC   C3A29393  44.503  40.729   8.035
 2039POPC   C4A29394  44.455  40.911   7.635
 2039POPC   C1B29395  44.967  40.849   8.833
 2039POPC   C2B29396   0.123  40.626   8.475
 2039POPC   C3B29397   0.033  40.800   8.082
 2039POPC   C4B29398  44.903  40.662   7.697
 2040POPC   NC329399   0.376   7.892   9.495
 2040POPC   PO429400   0.486   7.209   9.615
 2040POPC   GL129401   0.347   7.461   9.219
 2040POPC   GL229402  44.994   7.635   9.264
 2040POPC   C1A29403   0.534   7.529   8.797
 2040POPC   D2A29404   0.551   7.231   8.447
 2040POPC   C3A29405   0.404   7.381   8.068
 2040POPC   C4A29406   0.500   7.593   7.696
 2040POPC   C1B29407   0.061   7.747   8.828
 2040POPC   C2B29408   0.260   7.752   8.417
 2040POPC   C3B29409   0.062   7.754   8.009
 2040POPC   C4B29410  44.804   7.951   7.725
 2041POPC   NC329411  10.794  34.295   9.976
 2041POPC   PO429412  10.356  34.441   9.414
 2041POPC   GL129413  10.550  34.498   9.089
 2041POPC   GL229414  10.738  34.777   9.199
 2041POPC   C1A29415  10.465  34.369   8.713
 2041POPC   D2A29416  10.538  34.528   8.317
 2041POPC   C3A29417  10.680  34.328   7.972
 2041POPC   C4A29418  10.387  34.527   7.731
 2041POPC   C1B29419  10.431  34.929   8.864
 2041POPC   C2B29420  10.572  35.023   8.447
 2041POPC   C3B29421  10.493  34.968   7.996
 2041POPC   C4B29422  10.238  35.015   7.597
 2042POPC   NC329423   2.704  22.180   9.537
 2042POPC   PO429424   3.337  21.837   9.476
 2042POPC   GL129425   3.045  21.835   9.115
 2042POPC   GL229426   2.728  21.987   9.080
 2042POPC   C1A29427   3.026  21.976   8.664
 2042POPC   D2A29428   3.088  22.143   8.250
 2042POPC   C3A29429   3.196  21.982   7.857
 2042POPC   C4A29430   3.321  22.245   7.500
 2042POPC   C1B29431   2.555  21.753   8.730
 2042POPC   C2B29432   2.627  21.914   8.323
 2042POPC   C3B29433   2.688  22.039   7.886
 2042POPC   C4B29434   2.452  21.969   7.498
 2043POPC   NC329435  10.557   2.823   9.637
 2043POPC   PO429436  10.643   2.162   9.470
 2043POPC   GL129437  10.466   2.486   9.214
 2043POPC   GL229438  10.661   2.782   9.126
 2043POPC   C1A29439  10.452   2.480   8.765
 2043POPC   D2A29440  10.511   2.696   8.371
 2043POPC   C3A29441  10.187   2.644   8.065
 2043POPC   C4A29442  10.255   2.551   7.616
 2043POPC   C1B29443  10.455   3.016   8.786
 2043POPC   C2B29444  10.619   3.235   8.441
 2043POPC   C3B29445  10.866   3.019   8.145
 2043POPC   C4B29446  10.632   2.797   7.847
 2044POPC   NC329447  17.240  43.965   9.429
 2044POPC   PO429448  17.637  43.400   9.620
 2044POPC   GL129449  17.824  43.625   9.241
 2044POPC   GL229450  17.508  43.601   9.074
 2044POPC   C1A29451  18.003  43.543   8.779
 2044POPC   D2A29452  17.775  43.529   8.338
 2044POPC   C3A29453  17.750  43.759   7.911
 2044POPC   C4A29454  17.399  43.760   7.593
 2044POPC   C1B29455  17.670  43.915   8.760
 2044POPC   C2B29456  17.542  44.035   8.326
 2044POPC   C3B29457  17.331  44.160   7.929
 2044POPC   C4B29458  17.429  44.288   7.497
 2045POPC   NC329459  29.542  18.252   9.669
 2045POPC   PO429460  30.157  18.480   9.628
 2045POPC   GL129461  29.868  18.390   9.280
 2045POPC   GL229462  29.813  18.014   9.281
 2045POPC   C1A29463  29.798  18.310   8.828
 2045POPC   D2A29464  29.676  18.096   8.445
 2045POPC   C3A29465  29.703  18.398   8.114
 2045POPC   C4A29466  29.818  18.248   7.723
 2045POPC   C1B29467  30.203  18.068   9.010
 2045POPC   C2B29468  30.217  18.077   8.567
 2045POPC   C3B29469  30.182  18.211   8.133
 2045POPC   C4B29470  30.285  17.976   7.778
 2046POPC   NC329471  25.711  37.139   9.458
 2046POPC   PO429472  26.406  36.986   9.283
 2046POPC   GL129473  26.163  36.690   9.052
 2046POPC   GL229474  25.856  36.756   9.106
 2046POPC   C1A29475  26.079  36.619   8.646
 2046POPC   D2A29476  26.234  36.804   8.284
 2046POPC   C3A29477  25.940  36.732   7.974
 2046POPC   C4A29478  25.905  36.772   7.529
 2046POPC   C1B29479  25.825  37.063   8.745
 2046POPC   C2B29480  25.817  37.222   8.286
 2046POPC   C3B29481  25.830  37.201   7.798
 2046POPC   C4B29482  25.735  37.209   7.335
 2047POPC   NC329483  35.306  14.786   9.460
 2047POPC   PO429484  35.186  14.127   9.422
 2047POPC   GL129485  35.266  14.256   9.010
 2047POPC   GL229486  35.193  14.598   8.998
 2047POPC   C1A29487  35.252  14.325   8.571
 2047POPC   D2A29488  35.079  14.111   8.234
 2047POPC   C3A29489  35.378  14.160   7.920
 2047POPC   C4A29490  35.726  14.413   7.833
 2047POPC   C1B29491  35.332  14.831   8.615
 2047POPC   C2B29492  35.520  14.653   8.263
 2047POPC   C3B29493  35.267  14.643   7.946
 2047POPC   C4B29494  35.137  14.513   7.609
 2048POPC   NC329495  15.124   0.830   9.510
 2048POPC   PO429496  14.824   1.379   9.680
 2048POPC   GL129497  14.770   1.303   9.201
 2048POPC   GL229498  15.060   1.071   9.073
 2048POPC   C1A29499  14.898   1.426   8.782
 2048POPC   D2A29500  14.788   1.335   8.379
 2048POPC   C3A29501  14.954   1.023   8.103
 2048POPC   C4A29502  14.921   1.143   7.696
 2048POPC   C1B29503  15.386   1.195   8.731
 2048POPC   C2B29504  15.648   1.262   8.371
 2048POPC   C3B29505  15.474   1.209   7.977
 2048POPC   C4B29506  15.416   0.939   7.666
 2049POPC   NC329507  18.414  39.446   9.512
 2049POPC   PO429508  18.102  38.948   9.249
 2049POPC   GL129509  17.928  39.229   9.034
 2049POPC   GL229510  18.250  39.395   9.038
 2049POPC   C1A29511  17.880  39.224   8.615
 2049POPC   D2A29512  18.097  39.052   8.341
 2049POPC   C3A29513  18.138  39.201   7.971
 2049POPC   C4A29514  18.490  38.939   7.904
 2049POPC   C1B29515  18.424  39.228   8.693
 2049POPC   C2B29516  18.481  39.401   8.299
 2049POPC   C3B29517  18.582  39.475   7.884
 2049POPC   C4B29518  18.568  39.708   7.503
 2050POPC   NC329519   3.145  17.414   9.542
 2050POPC   PO429520   2.444  17.298   9.495
 2050POPC   GL129521   2.717  17.505   9.227
 2050POPC   GL229522   2.877  17.184   9.185
 2050POPC   C1A29523   2.727  17.706   8.828
 2050POPC   D2A29524   2.964  17.641   8.451
 2050POPC   C3A29525   3.004  17.830   8.071
 2050POPC   C4A29526   2.774  17.689   7.738
 2050POPC   C1B29527   3.091  17.340   8.848
 2050POPC   C2B29528   3.128  17.166   8.441
 2050POPC   C3B29529   2.896  17.313   8.044
 2050POPC   C4B29530   2.947  17.250   7.574
 2051POPC   NC329531  39.682   1.205   9.522
 2051POPC   PO429532  39.190   1.735   9.682
 2051POPC   GL129533  39.255   1.491   9.284
 2051POPC   GL229534  39.234   1.122   9.300
 2051POPC   C1A29535  39.201   1.339   8.842
 2051POPC   D2A29536  38.919   1.317   8.501
 2051POPC   C3A29537  39.128   1.315   8.124
 2051POPC   C4A29538  38.941   1.450   7.756
 2051POPC   C1B29539  39.441   0.911   8.960
 2051POPC   C2B29540  39.312   0.959   8.518
 2051POPC   C3B29541  39.553   0.918   8.151
 2051POPC   C4B29542  39.365   1.026   7.767
 2052POPC   NC329543  31.700  43.730   9.492
 2052POPC   PO429544  31.012  43.754   9.377
 2052POPC   GL129545  31.267  43.809   9.047
 2052POPC   GL229546  31.500  43.550   9.087
 2052POPC   C1A29547  31.194  43.899   8.620
 2052POPC   D2A29548  31.119  44.212   8.325
 2052POPC   C3A29549  31.318  44.248   7.955
 2052POPC   C4A29550  31.196  44.125   7.570
 2052POPC   C1B29551  31.671  43.741   8.720
 2052POPC   C2B29552  31.620  43.931   8.315
 2052POPC   C3B29553  31.700  43.652   7.989
 2052POPC   C4B29554  31.441  43.694   7.649
 2053POPC   NC329555  33.667  26.634   9.757
 2053POPC   PO429556  33.053  26.527   9.480
 2053POPC   GL129557  33.073  26.777   9.132
 2053POPC   GL229558  32.878  27.090   9.164
 2053POPC   C1A29559  33.235  26.610   8.710
 2053POPC   D2A29560  33.190  26.812   8.340
 2053POPC   C3A29561  33.224  26.648   7.965
 2053POPC   C4A29562  33.155  26.996   7.704
 2053POPC   C1B29563  32.873  26.972   8.724
 2053POPC   C2B29564  32.682  27.073   8.373
 2053POPC   C3B29565  32.760  27.149   7.975
 2053POPC   C4B29566  32.659  27.045   7.541
 2054POPC   NC329567  33.640  41.883   9.555
 2054POPC   PO429568  34.079  42.408   9.424
 2054POPC   GL129569  33.709  42.538   9.175
 2054POPC   GL229570  33.645  42.177   9.144
 2054POPC   C1A29571  33.508  42.469   8.757
 2054POPC   D2A29572  33.571  42.285   8.350
 2054POPC   C3A29573  33.429  42.517   7.991
 2054POPC   C4A29574  33.742  42.671   7.722
 2054POPC   C1B29575  33.811  41.989   8.741
 2054POPC   C2B29576  33.668  41.785   8.343
 2054POPC   C3B29577  33.761  41.834   7.899
 2054POPC   C4B29578  33.595  42.165   7.674
 2055POPC   NC329579  39.509  43.415   9.578
 2055POPC   PO429580  39.417  44.053   9.611
 2055POPC   GL129581  39.318  43.811   9.243
 2055POPC   GL229582  39.503  44.013   9.019
 2055POPC   C1A29583  39.169  43.700   8.799
 2055POPC   D2A29584  38.924  43.700   8.397
 2055POPC   C3A29585  39.194  43.664   8.025
 2055POPC   C4A29586  39.363  43.737   7.623
 2055POPC   C1B29587  39.529  44.235   8.635
 2055POPC   C2B29588  39.232  44.290   8.309
 2055POPC   C3B29589  39.283  44.162   7.891
 2055POPC   C4B29590  39.719  44.043   7.784
 2056POPC   NC329591  23.844  29.527   9.426
 2056POPC   PO429592  23.617  28.955   9.556
 2056POPC   GL129593  23.635  29.130   9.169
 2056POPC   GL229594  23.366  29.375   9.161
 2056POPC   C1A29595  23.709  28.890   8.811
 2056POPC   D2A29596  23.536  28.720   8.455
 2056POPC   C3A29597  23.648  28.873   8.099
 2056POPC   C4A29598  23.773  28.985   7.723
 2056POPC   C1B29599  23.545  29.449   8.775
 2056POPC   C2B29600  23.710  29.260   8.437
 2056POPC   C3B29601  23.629  29.380   8.027
 2056POPC   C4B29602  23.766  29.471   7.608
 2057POPC   NC329603  21.802   0.881   9.465
 2057POPC   PO429604  21.506   1.575   9.523
 2057POPC   GL129605  21.528   1.318   9.153
 2057POPC   GL229606  21.670   0.997   8.989
 2057POPC   C1A29607  21.374   1.362   8.743
 2057POPC   D2A29608  21.603   1.144   8.435
 2057POPC   C3A29609  21.465   1.345   8.087
 2057POPC   C4A29610  21.263   1.531   7.724
 2057POPC   C1B29611  21.297   0.840   8.777
 2057POPC   C2B29612  21.108   0.906   8.360
 2057POPC   C3B29613  21.093   1.064   7.923
 2057POPC   C4B29614  21.474   1.077   7.665
 2058POPC   NC329615  24.258  27.805   9.393
 2058POPC   PO429616  24.769  27.342   9.567
 2058POPC   GL129617  24.613  27.487   9.162
 2058POPC   GL229618  24.259  27.377   9.088
 2058POPC   C1A29619  24.607  27.803   8.808
 2058POPC   D2A29620  24.384  27.878   8.420
 2058POPC   C3A29621  24.609  27.623   8.125
 2058POPC   C4A29622  24.813  27.706   7.737
 2058POPC   C1B29623  24.296  27.414   8.634
 2058POPC   C2B29624  24.092  27.478   8.239
 2058POPC   C3B29625  24.226  27.496   7.808
 2058POPC   C4B29626  24.146  27.259   7.435
 2059POPC   NC329627  24.373   9.256   9.507
 2059POPC   PO429628  24.875   8.872   9.416
 2059POPC   GL129629  24.731   9.157   9.088
 2059POPC   GL229630  24.396   9.228   9.006
 2059POPC   C1A29631  24.642   8.916   8.699
 2059POPC   D2A29632  24.754   9.001   8.285
 2059POPC   C3A29633  24.531   8.890   7.898
 2059POPC   C4A29634  24.659   8.901   7.442
 2059POPC   C1B29635  24.577   9.411   8.632
 2059POPC   C2B29636  24.158   9.341   8.406
 2059POPC   C3B29637  24.091   9.150   7.992
 2059POPC   C4B29638  24.315   9.254   7.618
 2060POPC   NC329639  32.702  19.285   9.964
 2060POPC   PO429640  32.221  19.047   9.522
 2060POPC   GL129641  32.256  19.092   9.087
 2060POPC   GL229642  32.573  18.945   9.087
 2060POPC   C1A29643  32.225  19.219   8.668
 2060POPC   D2A29644  32.213  19.053   8.270
 2060POPC   C3A29645  32.163  19.259   7.911
 2060POPC   C4A29646  32.154  18.898   7.699
 2060POPC   C1B29647  32.501  18.778   8.663
 2060POPC   C2B29648  32.697  18.917   8.277
 2060POPC   C3B29649  32.648  18.897   7.820
 2060POPC   C4B29650  32.626  19.066   7.392
 2061POPC   NC329651   5.354  28.711   9.508
 2061POPC   PO429652   5.621  29.268   9.391
 2061POPC   GL129653   5.638  29.060   9.018
 2061POPC   GL229654   5.769  28.725   9.001
 2061POPC   C1A29655   5.647  29.061   8.566
 2061POPC   D2A29656   5.649  28.987   8.145
 2061POPC   C3A29657   5.528  29.198   7.805
 2061POPC   C4A29658   5.781  28.975   7.549
 2061POPC   C1B29659   6.106  28.959   8.785
 2061POPC   C2B29660   6.172  29.108   8.356
 2061POPC   C3B29661   6.103  29.168   7.908
 2061POPC   C4B29662   5.917  29.478   7.643
 2062POPC   NC329663  38.794  37.736   9.635
 2062POPC   PO429664  38.061  37.708   9.565
 2062POPC   GL129665  38.412  37.745   9.284
 2062POPC   GL229666  38.404  37.413   9.165
 2062POPC   C1A29667  38.593  37.843   8.884
 2062POPC   D2A29668  38.567  37.584   8.528
 2062POPC   C3A29669  38.753  37.801   8.178
 2062POPC   C4A29670  38.562  37.864   7.771
 2062POPC   C1B29671  38.184  37.166   8.832
 2062POPC   C2B29672  38.169  37.247   8.394
 2062POPC   C3B29673  38.368  37.470   8.065
 2062POPC   C4B29674  38.485  37.377   7.647
 2063POPC   NC329675  42.514  32.124   9.847
 2063POPC   PO429676  42.210  32.525   9.309
 2063POPC   GL129677  42.220  32.258   9.012
 2063POPC   GL229678  41.937  32.114   9.052
 2063POPC   C1A29679  42.441  32.274   8.652
 2063POPC   D2A29680  42.564  31.982   8.377
 2063POPC   C3A29681  42.781  32.080   8.075
 2063POPC   C4A29682  42.519  32.144   7.716
 2063POPC   C1B29683  41.926  32.328   8.616
 2063POPC   C2B29684  42.124  32.264   8.233
 2063POPC   C3B29685  42.059  32.335   7.818
 2063POPC   C4B29686  41.944  32.697   7.595
 2064POPC   NC329687   7.165  12.144   9.445
 2064POPC   PO429688   6.541  12.093   9.637
 2064POPC   GL129689   6.743  12.103   9.178
 2064POPC   GL229690   6.914  11.818   9.074
 2064POPC   C1A29691   6.618  12.131   8.753
 2064POPC   D2A29692   6.430  12.347   8.428
 2064POPC   C3A29693   6.342  12.077   8.075
 2064POPC   C4A29694   6.601  12.020   7.750
 2064POPC   C1B29695   6.917  11.738   8.629
 2064POPC   C2B29696   6.829  11.952   8.260
 2064POPC   C3B29697   7.061  11.851   7.910
 2064POPC   C4B29698   7.037  11.835   7.413
 2065POPC   NC329699  21.897  35.660   9.216
 2065POPC   PO429700  21.940  35.024   9.517
 2065POPC   GL129701  22.132  35.185   9.166
 2065POPC   GL229702  22.396  35.412   9.229
 2065POPC   C1A29703  22.144  35.234   8.730
 2065POPC   D2A29704  21.816  35.450   8.529
 2065POPC   C3A29705  21.944  35.514   8.117
 2065POPC   C4A29706  22.137  35.226   7.803
 2065POPC   C1B29707  22.499  35.618   8.852
 2065POPC   C2B29708  22.584  35.429   8.444
 2065POPC   C3B29709  22.470  35.556   8.032
 2065POPC   C4B29710  22.459  35.867   7.697
 2066POPC   NC329711  37.252  38.182   9.277
 2066POPC   PO429712  37.818  38.455   9.603
 2066POPC   GL129713  37.737  38.477   9.175
 2066POPC   GL229714  37.700  38.121   9.051
 2066POPC   C1A29715  37.647  38.573   8.743
 2066POPC   D2A29716  37.376  38.524   8.393
 2066POPC   C3A29717  37.575  38.639   8.016
 2066POPC   C4A29718  37.383  38.492   7.674
 2066POPC   C1B29719  38.001  38.186   8.724
 2066POPC   C2B29720  37.815  38.249   8.331
 2066POPC   C3B29721  37.503  38.116   8.047
 2066POPC   C4B29722  37.760  38.131   7.690
 2067POPC   NC329723   8.561   3.905   9.443
 2067POPC   PO429724   8.408   3.322   9.673
 2067POPC   GL129725   8.404   3.399   9.231
 2067POPC   GL229726   8.051   3.396   9.180
 2067POPC   C1A29727   8.338   3.439   8.761
 2067POPC   D2A29728   8.333   3.696   8.362
 2067POPC   C3A29729   8.311   3.501   7.945
 2067POPC   C4A29730   8.171   3.161   7.684
 2067POPC   C1B29731   7.826   3.555   8.820
 2067POPC   C2B29732   7.849   3.851   8.497
 2067POPC   C3B29733   7.827   3.766   8.054
 2067POPC   C4B29734   7.821   3.546   7.639
 2068POPC   NC329735  43.072  17.430   9.526
 2068POPC   PO429736  43.058  18.074   9.574
 2068POPC   GL129737  43.192  17.835   9.193
 2068POPC   GL229738  42.939  17.615   9.067
 2068POPC   C1A29739  43.347  17.698   8.786
 2068POPC   D2A29740  43.136  17.773   8.395
 2068POPC   C3A29741  43.235  17.628   7.984
 2068POPC   C4A29742  42.886  17.489   7.753
 2068POPC   C1B29743  42.999  17.322   8.720
 2068POPC   C2B29744  42.968  17.261   8.276
 2068POPC   C3B29745  43.018  17.047   7.926
 2068POPC   C4B29746  43.284  17.213   7.633
 2069POPC   NC329747  17.748  11.754   9.481
 2069POPC   PO429748  17.322  12.148   9.412
 2069POPC   GL129749  17.393  11.863   9.073
 2069POPC   GL229750  17.083  11.703   9.052
 2069POPC   C1A29751  17.622  11.869   8.658
 2069POPC   D2A29752  17.477  12.084   8.288
 2069POPC   C3A29753  17.732  12.205   7.915
 2069POPC   C4A29754  17.608  12.338   7.472
 2069POPC   C1B29755  17.122  11.799   8.611
 2069POPC   C2B29756  17.289  11.596   8.272
 2069POPC   C3B29757  17.422  11.776   7.887
 2069POPC   C4B29758  17.230  12.201   7.816
 2070POPC   NC329759  22.704  20.464   9.557
 2070POPC   PO429760  23.339  20.575   9.731
 2070POPC   GL129761  23.089  20.440   9.223
 2070POPC   GL229762  22.828  20.611   9.048
 2070POPC   C1A29763  23.185  20.464   8.736
 2070POPC   D2A29764  22.850  20.436   8.423
 2070POPC   C3A29765  22.867  20.765   8.114
 2070POPC   C4A29766  22.924  20.911   7.699
 2070POPC   C1B29767  22.475  20.387   8.873
 2070POPC   C2B29768  22.295  20.232   8.486
 2070POPC   C3B29769  22.504  20.193   8.075
 2070POPC   C4B29770  22.528  20.535   7.750
 2071POPC   NC329771  30.567  31.531   9.651
 2071POPC   PO429772  30.586  30.918   9.908
 2071POPC   GL129773  30.549  31.130   9.363
 2071POPC   GL229774  30.794  31.016   9.108
 2071POPC   C1A29775  30.495  31.398   8.926
 2071POPC   D2A29776  30.419  31.665   8.508
 2071POPC   C3A29777  30.627  31.548   8.089
 2071POPC   C4A29778  30.518  31.561   7.632
 2071POPC   C1B29779  31.044  31.175   8.754
 2071POPC   C2B29780  31.052  31.509   8.441
 2071POPC   C3B29781  31.151  31.434   8.015
 2071POPC   C4B29782  30.949  31.303   7.647
 2072POPC   NC329783  15.364   3.206   9.763
 2072POPC   PO429784  15.074   3.678   9.369
 2072POPC   GL129785  15.174   3.668   8.962
 2072POPC   GL229786  15.413   3.448   8.872
 2072POPC   C1A29787  15.089   3.650   8.519
 2072POPC   D2A29788  14.751   3.769   8.239
 2072POPC   C3A29789  14.996   3.707   7.918
 2072POPC   C4A29790  15.369   3.484   7.961
 2072POPC   C1B29791  15.065   3.179   8.683
 2072POPC   C2B29792  14.858   3.162   8.328
 2072POPC   C3B29793  15.026   3.093   7.968
 2072POPC   C4B29794  14.845   3.260   7.634
 2073POPC   NC329795  12.405  39.080  10.060
 2073POPC   PO429796  11.864  39.135   9.627
 2073POPC   GL129797  12.133  39.115   9.219
 2073POPC   GL229798  12.374  38.841   9.164
 2073POPC   C1A29799  12.307  39.308   8.814
 2073POPC   D2A29800  12.420  39.129   8.387
 2073POPC   C3A29801  12.186  39.137   7.980
 2073POPC   C4A29802  12.127  39.296   7.536
 2073POPC   C1B29803  12.227  38.812   8.744
 2073POPC   C2B29804  11.943  38.875   8.401
 2073POPC   C3B29805  11.734  38.879   8.005
 2073POPC   C4B29806  11.940  38.833   7.615
 2074POPC   NC329807  33.560  17.095   9.479
 2074POPC   PO429808  34.165  16.731   9.635
 2074POPC   GL129809  33.918  16.565   9.260
 2074POPC   GL229810  33.684  16.803   9.081
 2074POPC   C1A29811  33.994  16.458   8.833
 2074POPC   D2A29812  33.738  16.648   8.503
 2074POPC   C3A29813  33.954  16.696   8.118
 2074POPC   C4A29814  33.857  16.486   7.745
 2074POPC   C1B29815  33.520  17.082   8.762
 2074POPC   C2B29816  33.426  17.056   8.342
 2074POPC   C3B29817  33.484  16.831   7.970
 2074POPC   C4B29818  33.700  16.985   7.660
 2075POPC   NC329819   5.381  11.012   9.595
 2075POPC   PO429820   5.006  11.504   9.736
 2075POPC   GL129821   5.148  11.415   9.287
 2075POPC   GL229822   5.225  11.069   9.111
 2075POPC   C1A29823   4.973  11.417   8.859
 2075POPC   D2A29824   4.915  11.340   8.436
 2075POPC   C3A29825   5.198  11.549   8.156
 2075POPC   C4A29826   4.953  11.628   7.811
 2075POPC   C1B29827   5.188  10.942   8.679
 2075POPC   C2B29828   5.335  11.058   8.257
 2075POPC   C3B29829   5.102  11.137   7.877
 2075POPC   C4B29830   4.668  11.173   7.767
 2076POPC   NC329831  38.075  38.134   9.382
 2076POPC   PO429832  38.758  38.154   9.445
 2076POPC   GL129833  38.497  38.415   9.194
 2076POPC   GL229834  38.249  38.654   9.337
 2076POPC   C1A29835  38.513  38.361   8.761
 2076POPC   D2A29836  38.453  38.122   8.424
 2076POPC   C3A29837  38.535  38.318   8.031
 2076POPC   C4A29838  38.261  38.275   7.673
 2076POPC   C1B29839  38.132  38.655   8.896
 2076POPC   C2B29840  38.195  38.582   8.419
 2076POPC   C3B29841  38.110  38.690   7.959
 2076POPC   C4B29842  37.908  38.614   7.527
 2077POPC   NC329843  14.763  38.883   9.430
 2077POPC   PO429844  14.487  39.522   9.556
 2077POPC   GL129845  14.442  39.239   9.212
 2077POPC   GL229846  14.471  39.481   8.965
 2077POPC   C1A29847  14.461  38.985   8.823
 2077POPC   D2A29848  14.327  38.754   8.450
 2077POPC   C3A29849  14.462  38.978   8.119
 2077POPC   C4A29850  14.389  39.164   7.758
 2077POPC   C1B29851  14.118  39.390   8.685
 2077POPC   C2B29852  14.086  39.290   8.254
 2077POPC   C3B29853  14.012  39.501   7.878
 2077POPC   C4B29854  14.112  39.457   7.434
 2078POPC   NC329855  26.460  26.132   9.447
 2078POPC   PO429856  27.160  26.225   9.333
 2078POPC   GL129857  26.831  26.006   9.064
 2078POPC   GL229858  26.476  25.876   9.032
 2078POPC   C1A29859  26.717  26.060   8.627
 2078POPC   D2A29860  26.921  26.186   8.271
 2078POPC   C3A29861  26.877  25.978   7.904
 2078POPC   C4A29862  26.610  26.147   7.635
 2078POPC   C1B29863  26.320  25.703   8.701
 2078POPC   C2B29864  26.496  25.686   8.355
 2078POPC   C3B29865  26.404  25.829   7.989
 2078POPC   C4B29866  26.544  25.650   7.601
 2079POPC   NC329867  10.094  26.681   9.603
 2079POPC   PO429868   9.549  26.992   9.438
 2079POPC   GL129869   9.620  26.788   9.087
 2079POPC   GL229870   9.979  26.827   9.130
 2079POPC   C1A29871   9.444  26.752   8.677
 2079POPC   D2A29872   9.717  26.641   8.362
 2079POPC   C3A29873   9.843  26.787   7.978
 2079POPC   C4A29874   9.590  26.861   7.623
 2079POPC   C1B29875   9.966  26.898   8.711
 2079POPC   C2B29876  10.192  26.972   8.344
 2079POPC   C3B29877  10.232  27.122   7.956
 2079POPC   C4B29878  10.079  26.989   7.563
 2080POPC   NC329879  19.939   6.002   9.639
 2080POPC   PO429880  20.429   5.880   9.368
 2080POPC   GL129881  19.995   5.770   9.190
 2080POPC   GL229882  19.768   6.065   9.168
 2080POPC   C1A29883  19.729   5.700   8.804
 2080POPC   D2A29884  19.574   5.616   8.355
 2080POPC   C3A29885  19.739   5.846   7.984
 2080POPC   C4A29886  19.928   6.188   7.751
 2080POPC   C1B29887  19.530   6.183   8.794
 2080POPC   C2B29888  19.461   6.134   8.338
 2080POPC   C3B29889  19.410   6.237   7.894
 2080POPC   C4B29890  19.496   5.981   7.520
 2081POPC   NC329891  18.164  25.490   9.244
 2081POPC   PO429892  18.085  26.138   9.460
 2081POPC   GL129893  18.318  26.172   9.073
 2081POPC   GL229894  18.479  25.854   9.000
 2081POPC   C1A29895  18.206  26.196   8.611
 2081POPC   D2A29896  17.888  25.981   8.322
 2081POPC   C3A29897  18.074  25.730   7.994
 2081POPC   C4A29898  18.283  25.900   7.627
 2081POPC   C1B29899  18.701  25.721   8.633
 2081POPC   C2B29900  18.547  25.798   8.216
 2081POPC   C3B29901  18.334  26.167   8.074
 2081POPC   C4B29902  18.430  26.384   7.712
 2082POPC   NC329903   7.226  10.068   9.782
 2082POPC   PO429904   7.119   9.431   9.511
 2082POPC   GL129905   7.286   9.663   9.132
 2082POPC   GL229906   7.294  10.049   9.214
 2082POPC   C1A29907   7.452   9.528   8.689
 2082POPC   D2A29908   7.355   9.469   8.236
 2082POPC   C3A29909   7.502   9.600   7.815
 2082POPC   C4A29910   7.249   9.403   7.424
 2082POPC   C1B29911   7.521  10.016   8.776
 2082POPC   C2B29912   7.546   9.934   8.302
 2082POPC   C3B29913   7.538  10.127   7.880
 2082POPC   C4B29914   7.686  10.179   7.458
 2083POPC   NC329915  23.179  32.475   9.531
 2083POPC   PO429916  22.593  32.576   9.625
 2083POPC   GL129917  22.650  32.323   9.245
 2083POPC   GL229918  22.735  31.996   9.350
 2083POPC   C1A29919  22.858  32.408   8.838
 2083POPC   D2A29920  22.919  32.601   8.425
 2083POPC   C3A29921  22.716  32.417   8.068
 2083POPC   C4A29922  22.966  32.340   7.721
 2083POPC   C1B29923  22.950  31.924   8.936
 2083POPC   C2B29924  22.854  32.014   8.469
 2083POPC   C3B29925  22.908  31.927   8.011
 2083POPC   C4B29926  22.706  31.905   7.585
 2084POPC   NC329927  42.162  30.793   9.698
 2084POPC   PO429928  42.511  30.271   9.377
 2084POPC   GL129929  42.548  30.598   9.023
 2084POPC   GL229930  42.321  30.919   9.041
 2084POPC   C1A29931  42.480  30.687   8.586
 2084POPC   D2A29932  42.534  30.509   8.182
 2084POPC   C3A29933  42.555  30.796   7.823
 2084POPC   C4A29934  42.748  31.175   7.712
 2084POPC   C1B29935  41.909  30.859   8.768
 2084POPC   C2B29936  41.987  30.750   8.360
 2084POPC   C3B29937  42.089  30.641   7.950
 2084POPC   C4B29938  42.193  30.532   7.536
 2085POPC   NC329939  27.518  23.388   9.461
 2085POPC   PO429940  27.969  23.879   9.506
 2085POPC   GL129941  27.729  23.787   9.134
 2085POPC   GL229942  27.865  23.469   9.102
 2085POPC   C1A29943  27.850  23.881   8.701
 2085POPC   D2A29944  27.687  23.789   8.275
 2085POPC   C3A29945  27.794  24.121   7.934
 2085POPC   C4A29946  27.824  24.297   7.485
 2085POPC   C1B29947  27.583  23.429   8.736
 2085POPC   C2B29948  27.517  23.219   8.352
 2085POPC   C3B29949  27.714  23.345   7.988
 2085POPC   C4B29950  27.567  23.693   7.780
 2086POPC   NC329951  28.489  24.379   9.470
 2086POPC   PO429952  27.934  24.664   9.545
 2086POPC   GL129953  27.997  24.730   9.128
 2086POPC   GL229954  28.351  24.750   9.153
 2086POPC   C1A29955  28.080  24.554   8.736
 2086POPC   D2A29956  27.972  24.296   8.397
 2086POPC   C3A29957  28.041  24.605   8.077
 2086POPC   C4A29958  28.230  24.372   7.811
 2086POPC   C1B29959  28.578  24.563   8.803
 2086POPC   C2B29960  28.480  24.468   8.374
 2086POPC   C3B29961  28.716  24.385   8.007
 2086POPC   C4B29962  28.627  24.664   7.663
 2087POPC   NC329963   2.067  37.081   9.381
 2087POPC   PO429964   2.174  37.670   9.474
 2087POPC   GL129965   1.920  37.497   9.136
 2087POPC   GL229966   1.819  37.785   8.979
 2087POPC   C1A29967   1.999  37.388   8.703
 2087POPC   D2A29968   1.775  37.490   8.335
 2087POPC   C3A29969   2.046  37.532   8.023
 2087POPC   C4A29970   2.329  37.774   7.780
 2087POPC   C1B29971   1.531  38.002   8.684
 2087POPC   C2B29972   1.509  38.072   8.242
 2087POPC   C3B29973   1.772  37.980   7.874
 2087POPC   C4B29974   1.747  38.075   7.445
 2088POPC   NC329975   4.346  19.258   9.518
 2088POPC   PO429976   4.253  18.582   9.480
 2088POPC   GL129977   4.206  18.765   9.082
 2088POPC   GL229978   4.136  19.111   9.081
 2088POPC   C1A29979   4.477  18.927   8.720
 2088POPC   D2A29980   4.382  19.066   8.274
 2088POPC   C3A29981   4.444  18.792   7.925
 2088POPC   C4A29982   4.599  18.906   7.511
 2088POPC   C1B29983   4.055  19.204   8.658
 2088POPC   C2B29984   4.016  19.456   8.275
 2088POPC   C3B29985   4.014  19.331   7.850
 2088POPC   C4B29986   3.722  19.184   7.547
 2089POPC   NC329987  40.484  44.835   9.572
 2089POPC   PO429988  40.763  44.194   9.569
 2089POPC   GL129989  40.877  44.481   9.190
 2089POPC   GL229990  40.702  44.804   9.110
 2089POPC   C1A29991  40.759  44.442   8.722
 2089POPC   D2A29992  40.626  44.226   8.322
 2089POPC   C3A29993  40.810  44.415   7.952
 2089POPC   C4A29994  40.837  44.715   7.629
 2089POPC   C1B29995  40.499  44.908   8.729
 2089POPC   C2B29996  40.367  44.692   8.368
 2089POPC   C3B29997  40.426  44.759   7.954
 2089POPC   C4B29998  40.485   0.114   7.702
 2090POPC   NC329999  41.310  21.817   9.720
 2090POPC   PO430000  41.459  22.477   9.394
 2090POPC   GL130001  41.340  22.059   9.227
 2090POPC   GL230002  41.132  22.153   9.013
 2090POPC   C1A30003  41.492  21.859   8.840
 2090POPC   D2A30004  41.608  22.078   8.484
 2090POPC   C3A30005  41.459  21.896   8.130
 2090POPC   C4A30006  41.457  21.744   7.737
 2090POPC   C1B30007  41.023  21.976   8.651
 2090POPC   C2B30008  41.134  22.259   8.372
 2090POPC   C3B30009  41.441  22.420   8.112
 2090POPC   C4B30010  41.363  22.286   7.734
 2091POPC   NC330011  34.954  20.809   9.469
 2091POPC   PO430012  35.607  20.391   9.374
 2091POPC   GL130013  35.345  20.581   9.167
 2091POPC   GL230014  35.442  20.885   9.256
 2091POPC   C1A30015  35.203  20.502   8.753
 2091POPC   D2A30016  35.097  20.675   8.353
 2091POPC   C3A30017  35.342  20.524   8.024
 2091POPC   C4A30018  35.466  20.475   7.622
 2091POPC   C1B30019  35.474  20.985   8.812
 2091POPC   C2B30020  35.531  20.962   8.357
 2091POPC   C3B30021  35.308  21.009   7.967
 2091POPC   C4B30022  35.500  21.025   7.564
 2092POPC   NC330023  28.710   4.333   9.454
 2092POPC   PO430024  29.401   4.240   9.570
 2092POPC   GL130025  29.285   4.306   9.128
 2092POPC   GL230026  28.952   4.414   9.012
 2092POPC   C1A30027  29.224   4.230   8.657
 2092POPC   D2A30028  29.162   4.543   8.348
 2092POPC   C3A30029  29.324   4.435   7.953
 2092POPC   C4A30030  29.211   4.045   7.791
 2092POPC   C1B30031  28.833   4.737   8.729
 2092POPC   C2B30032  28.639   4.666   8.319
 2092POPC   C3B30033  28.842   4.613   7.919
 2092POPC   C4B30034  28.932   4.479   7.496
 2093POPC   NC330035  44.421  18.405   9.291
 2093POPC   PO430036  44.858  18.079   9.704
 2093POPC   GL130037  44.826  18.079   9.261
 2093POPC   GL230038  44.519  17.919   9.168
 2093POPC   C1A30039  44.828  18.160   8.807
 2093POPC   D2A30040   0.021  18.180   8.376
 2093POPC   C3A30041  44.892  18.520   8.135
 2093POPC   C4A30042  44.674  18.449   7.769
 2093POPC   C1B30043  44.300  18.022   8.769
 2093POPC   C2B30044  44.169  18.066   8.319
 2093POPC   C3B30045  44.460  18.009   7.957
 2093POPC   C4B30046  44.381  18.079   7.517
 2094POPC   NC330047  23.291  23.664   9.555
 2094POPC   PO430048  23.874  23.276   9.505
 2094POPC   GL130049  23.834  23.400   9.079
 2094POPC   GL230050  23.535  23.522   9.135
 2094POPC   C1A30051  23.798  23.561   8.667
 2094POPC   D2A30052  23.866  23.953   8.420
 2094POPC   C3A30053  23.898  23.796   8.010
 2094POPC   C4A30054  23.631  23.449   7.844
 2094POPC   C1B30055  23.314  23.675   8.788
 2094POPC   C2B30056  23.387  23.794   8.401
 2094POPC   C3B30057  23.406  23.883   8.023
 2094POPC   C4B30058  23.251  23.747   7.663
 2095POPC   NC330059  26.095   3.151   9.494
 2095POPC   PO430060  26.403   3.776   9.494
 2095POPC   GL130061  26.252   3.511   9.172
 2095POPC   GL230062  26.564   3.349   9.225
 2095POPC   C1A30063  26.255   3.151   8.843
 2095POPC   D2A30064  26.078   2.980   8.428
 2095POPC   C3A30065  25.969   3.297   8.111
 2095POPC   C4A30066  26.185   3.361   7.724
 2095POPC   C1B30067  26.594   3.595   8.823
 2095POPC   C2B30068  26.287   3.539   8.499
 2095POPC   C3B30069  26.363   3.633   8.109
 2095POPC   C4B30070  26.596   3.735   7.801
 2096POPC   NC330071  26.114  28.771   9.499
 2096POPC   PO430072  26.298  28.113   9.544
 2096POPC   GL130073  26.086  28.358   9.164
 2096POPC   GL230074  25.894  28.703   9.059
 2096POPC   C1A30075  26.053  28.360   8.715
 2096POPC   D2A30076  26.318  28.346   8.350
 2096POPC   C3A30077  26.163  28.138   8.022
 2096POPC   C4A30078  26.001  28.249   7.613
 2096POPC   C1B30079  25.660  28.683   8.648
 2096POPC   C2B30080  25.805  28.469   8.263
 2096POPC   C3B30081  26.029  28.645   7.905
 2096POPC   C4B30082  25.936  28.748   7.457
 2097POPC   NC330083  16.120   7.334   9.434
 2097POPC   PO430084  15.609   7.722   9.405
 2097POPC   GL130085  15.841   7.510   9.043
 2097POPC   GL230086  16.044   7.156   8.983
 2097POPC   C1A30087  16.062   7.529   8.637
 2097POPC   D2A30088  16.252   7.402   8.247
 2097POPC   C3A30089  16.132   7.666   7.923
 2097POPC   C4A30090  15.888   7.594   7.580
 2097POPC   C1B30091  15.683   7.123   8.747
 2097POPC   C2B30092  15.768   7.241   8.335
 2097POPC   C3B30093  15.677   7.282   7.931
 2097POPC   C4B30094  15.685   7.098   7.507
 2098POPC   NC330095   9.600   4.937   9.861
 2098POPC   PO430096   9.832   5.383   9.419
 2098POPC   GL130097   9.658   4.983   9.317
 2098POPC   GL230098   9.421   5.121   9.126
 2098POPC   C1A30099   9.723   4.744   8.919
 2098POPC   D2A30100   9.871   4.906   8.497
 2098POPC   C3A30101   9.590   4.914   8.118
 2098POPC   C4A30102   9.840   4.962   7.736
 2098POPC   C1B30103   9.666   5.303   8.811
 2098POPC   C2B30104   9.627   5.374   8.413
 2098POPC   C3B30105   9.866   5.343   8.069
 2098POPC   C4B30106   9.747   5.454   7.679
 2099POPC   NC330107  32.749  28.955   9.472
 2099POPC   PO430108  33.185  29.350   9.434
 2099POPC   GL130109  33.005  29.145   9.084
 2099POPC   GL230110  32.644  29.292   9.091
 2099POPC   C1A30111  33.157  28.955   8.701
 2099POPC   D2A30112  33.419  29.133   8.352
 2099POPC   C3A30113  33.307  29.059   7.923
 2099POPC   C4A30114  33.063  29.019   7.512
 2099POPC   C1B30115  32.852  29.393   8.676
 2099POPC   C2B30116  32.970  29.346   8.222
 2099POPC   C3B30117  32.737  29.272   7.857
 2099POPC   C4B30118  32.734  29.464   7.434
 2100POPC   NC330119   9.167   1.513   9.439
 2100POPC   PO430120   8.693   0.970   9.478
 2100POPC   GL130121   8.950   0.946   9.097
 2100POPC   GL230122   9.221   1.220   9.017
 2100POPC   C1A30123   8.826   1.066   8.692
 2100POPC   D2A30124   8.688   1.359   8.371
 2100POPC   C3A30125   8.807   1.134   8.017
 2100POPC   C4A30126   9.022   1.263   7.673
 2100POPC   C1B30127   9.130   1.474   8.631
 2100POPC   C2B30128   9.201   1.470   8.163
 2100POPC   C3B30129   9.483   1.418   7.806
 2100POPC   C4B30130   9.308   1.476   7.322
 2101POPC   NC330131   2.028  35.673   9.996
 2101POPC   PO430132   1.683  35.308   9.501
 2101POPC   GL130133   1.770  35.552   9.092
 2101POPC   GL230134   2.127  35.591   9.016
 2101POPC   C1A30135   1.803  35.458   8.613
 2101POPC   D2A30136   1.881  35.115   8.305
 2101POPC   C3A30137   1.713  35.220   7.887
 2101POPC   C4A30138   1.389  35.137   7.553
 2101POPC   C1B30139   2.291  35.353   8.624
 2101POPC   C2B30140   2.237  35.456   8.166
 2101POPC   C3B30141   2.256  35.195   7.784
 2101POPC   C4B30142   2.266  35.159   7.280
 2102POPC   NC330143  11.603  41.377   9.542
 2102POPC   PO430144  11.169  41.879   9.544
 2102POPC   GL130145  11.533  41.758   9.215
 2102POPC   GL230146  11.796  42.024   9.146
 2102POPC   C1A30147  11.491  41.475   8.841
 2102POPC   D2A30148  11.194  41.449   8.479
 2102POPC   C3A30149  11.346  41.421   8.050
 2102POPC   C4A30150  11.147  41.562   7.645
 2102POPC   C1B30151  11.846  41.823   8.759
 2102POPC   C2B30152  11.617  41.716   8.398
 2102POPC   C3B30153  11.620  41.905   8.027
 2102POPC   C4B30154  11.624  41.693   7.699
 2103POPC   NC330155  17.760   8.382   9.689
 2103POPC   PO430156  17.288   7.983   9.683
 2103POPC   GL130157  17.436   8.217   9.277
 2103POPC   GL230158  17.756   8.410   9.186
 2103POPC   C1A30159  17.473   8.119   8.827
 2103POPC   D2A30160  17.678   7.920   8.472
 2103POPC   C3A30161  17.480   8.040   8.105
 2103POPC   C4A30162  17.551   7.974   7.702
 2103POPC   C1B30163  17.601   8.600   8.820
 2103POPC   C2B30164  17.616   8.447   8.392
 2103POPC   C3B30165  17.627   8.521   7.970
 2103POPC   C4B30166  17.471   8.440   7.571
 2104POPC   NC330167  25.672  42.773   9.520
 2104POPC   PO430168  26.096  42.198   9.612
 2104POPC   GL130169  26.086  42.281   9.144
 2104POPC   GL230170  26.410  42.148   9.152
 2104POPC   C1A30171  25.926  42.640   8.833
 2104POPC   D2A30172  25.565  42.652   8.552
 2104POPC   C3A30173  25.709  42.498   8.149
 2104POPC   C4A30174  25.943  42.498   7.784
 2104POPC   C1B30175  26.364  42.192   8.718
 2104POPC   C2B30176  26.242  42.307   8.328
 2104POPC   C3B30177  26.336  42.198   7.937
 2104POPC   C4B30178  26.121  41.942   7.705
 2105POPC   NC330179  12.885  18.568   9.338
 2105POPC   PO430180  13.093  17.937   9.449
 2105POPC   GL130181  12.851  18.136   9.102
 2105POPC   GL230182  12.535  18.032   9.060
 2105POPC   C1A30183  12.730  18.334   8.696
 2105POPC   D2A30184  12.903  18.211   8.297
 2105POPC   C3A30185  12.698  18.413   7.987
 2105POPC   C4A30186  12.791  18.588   7.589
 2105POPC   C1B30187  12.303  17.921   8.731
 2105POPC   C2B30188  12.419  18.073   8.352
 2105POPC   C3B30189  12.445  17.991   7.927
 2105POPC   C4B30190  12.378  18.269   7.560
 2106POPC   NC330191  28.560  25.781   9.460
 2106POPC   PO430192  28.151  26.248   9.500
 2106POPC   GL130193  28.321  26.098   9.136
 2106POPC   GL230194  28.651  26.226   9.119
 2106POPC   C1A30195  28.220  25.911   8.745
 2106POPC   D2A30196  28.080  25.776   8.333
 2106POPC   C3A30197  28.049  25.991   7.926
 2106POPC   C4A30198  28.355  26.034   7.581
 2106POPC   C1B30199  28.739  25.885   8.823
 2106POPC   C2B30200  28.641  25.749   8.390
 2106POPC   C3B30201  28.563  26.077   8.067
 2106POPC   C4B30202  28.783  26.256   7.715
 2107POPC   NC330203   1.717  42.150   9.852
 2107POPC   PO430204   2.281  42.206   9.488
 2107POPC   GL130205   2.098  42.395   9.148
 2107POPC   GL230206   1.798  42.584   9.178
 2107POPC   C1A30207   1.974  42.276   8.734
 2107POPC   D2A30208   2.130  42.156   8.327
 2107POPC   C3A30209   1.906  42.282   7.982
 2107POPC   C4A30210   1.938  42.158   7.569
 2107POPC   C1B30211   1.605  42.644   8.762
 2107POPC   C2B30212   1.571  42.423   8.353
 2107POPC   C3B30213   1.540  42.649   7.965
 2107POPC   C4B30214   1.767  42.681   7.577
 2108POPC   NC330215  39.403   7.278   9.385
 2108POPC   PO430216  38.934   7.785   9.429
 2108POPC   GL130217  38.828   7.465   9.105
 2108POPC   GL230218  39.093   7.212   8.978
 2108POPC   C1A30219  38.847   7.560   8.666
 2108POPC   D2A30220  38.779   7.409   8.242
 2108POPC   C3A30221  39.122   7.443   7.914
 2108POPC   C4A30222  39.055   7.528   7.458
 2108POPC   C1B30223  39.293   7.317   8.539
 2108POPC   C2B30224  39.531   7.604   8.212
 2108POPC   C3B30225  39.601   7.554   7.753
 2108POPC   C4B30226  39.453   7.224   7.506
 2109POPC   NC330227  25.980  14.449   9.570
 2109POPC   PO430228  26.446  13.996   9.358
 2109POPC   GL130229  26.276  14.388   9.137
 2109POPC   GL230230  25.919  14.566   9.075
 2109POPC   C1A30231  26.283  14.514   8.696
 2109POPC   D2A30232  26.489  14.376   8.318
 2109POPC   C3A30233  26.217  14.312   7.985
 2109POPC   C4A30234  26.022  14.653   7.763
 2109POPC   C1B30235  25.596  14.405   8.781
 2109POPC   C2B30236  25.553  14.149   8.443
 2109POPC   C3B30237  25.571  14.063   8.048
 2109POPC   C4B30238  25.833  14.063   7.760
 2110POPC   NC330239  21.589   9.932   9.406
 2110POPC   PO430240  21.225   9.324   9.541
 2110POPC   GL130241  21.220   9.573   9.149
 2110POPC   GL230242  21.125   9.948   9.161
 2110POPC   C1A30243  21.511   9.669   8.766
 2110POPC   D2A30244  21.768   9.545   8.390
 2110POPC   C3A30245  21.503   9.616   7.994
 2110POPC   C4A30246  21.618   9.712   7.572
 2110POPC   C1B30247  21.034   9.835   8.747
 2110POPC   C2B30248  21.151   9.762   8.340
 2110POPC   C3B30249  21.078   9.937   7.932
 2110POPC   C4B30250  21.136   9.856   7.499
 2111POPC   NC330251  11.982  13.982   9.423
 2111POPC   PO430252  12.237  13.373   9.517
 2111POPC   GL130253  12.252  13.568   9.155
 2111POPC   GL230254  11.920  13.578   9.107
 2111POPC   C1A30255  12.274  13.412   8.731
 2111POPC   D2A30256  12.282  13.602   8.340
 2111POPC   C3A30257  12.075  13.386   7.996
 2111POPC   C4A30258  12.267  13.309   7.600
 2111POPC   C1B30259  12.001  13.863   8.761
 2111POPC   C2B30260  11.812  13.808   8.368
 2111POPC   C3B30261  11.964  13.870   7.991
 2111POPC   C4B30262  11.972  13.729   7.598
 2112POPC   NC330263  11.860  25.427   9.059
 2112POPC   PO430264  12.197  25.040   9.453
 2112POPC   GL130265  12.291  25.018   9.082
 2112POPC   GL230266  12.383  25.378   9.078
 2112POPC   C1A30267  12.250  25.065   8.658
 2112POPC   D2A30268  12.453  25.194   8.321
 2112POPC   C3A30269  12.186  25.043   8.013
 2112POPC   C4A30270  11.957  25.354   7.861
 2112POPC   C1B30271  12.387  25.583   8.668
 2112POPC   C2B30272  12.149  25.600   8.277
 2112POPC   C3B30273  12.196  25.824   7.906
 2112POPC   C4B30274  12.180  25.667   7.501
 2113POPC   NC330275  41.186  37.663   9.476
 2113POPC   PO430276  40.579  37.892   9.467
 2113POPC   GL130277  40.561  37.764   9.065
 2113POPC   GL230278  40.762  37.471   9.066
 2113POPC   C1A30279  40.525  37.645   8.641
 2113POPC   D2A30280  40.667  37.305   8.394
 2113POPC   C3A30281  40.668  37.467   7.985
 2113POPC   C4A30282  40.367  37.757   7.801
 2113POPC   C1B30283  41.028  37.740   8.810
 2113POPC   C2B30284  41.242  37.758   8.397
 2113POPC   C3B30285  41.347  37.792   7.986
 2113POPC   C4B30286  41.052  37.619   7.690
 2114POPC   NC330287  39.203   8.595   9.524
 2114POPC   PO430288  39.415   9.216   9.519
 2114POPC   GL130289  39.294   9.010   9.152
 2114POPC   GL230290  38.973   9.062   8.964
 2114POPC   C1A30291  39.460   8.865   8.770
 2114POPC   D2A30292  39.212   8.857   8.415
 2114POPC   C3A30293  39.293   8.652   8.045
 2114POPC   C4A30294  39.447   8.746   7.641
 2114POPC   C1B30295  39.169   9.290   8.667
 2114POPC   C2B30296  39.468   9.294   8.324
 2114POPC   C3B30297  39.286   9.157   7.948
 2114POPC   C4B30298  39.238   9.186   7.492
 2115POPC   NC330299  18.597  44.044   9.410
 2115POPC   PO430300  18.452  44.787   9.483
 2115POPC   GL130301  18.349  44.519   9.094
 2115POPC   GL230302  18.029  44.377   9.013
 2115POPC   C1A30303  18.232  44.755   8.721
 2115POPC   D2A30304  18.471  44.844   8.373
 2115POPC   C3A30305  18.478  44.459   8.154
 2115POPC   C4A30306  18.239  44.615   7.832
 2115POPC   C1B30307  17.869  44.384   8.626
 2115POPC   C2B30308  17.941  44.574   8.262
 2115POPC   C3B30309  17.808  44.344   7.925
 2115POPC   C4B30310  18.003  44.254   7.559
 2116POPC   NC330311  34.943  28.380   9.601
 2116POPC   PO430312  35.476  28.613   9.741
 2116POPC   GL130313  35.257  28.553   9.243
 2116POPC   GL230314  34.998  28.719   9.009
 2116POPC   C1A30315  35.422  28.528   8.777
 2116POPC   D2A30316  35.607  28.271   8.451
 2116POPC   C3A30317  35.471  28.436   8.070
 2116POPC   C4A30318  35.552  28.501   7.641
 2116POPC   C1B30319  34.959  28.356   8.668
 2116POPC   C2B30320  35.101  28.166   8.280
 2116POPC   C3B30321  35.025  28.288   7.838
 2116POPC   C4B30322  34.927  28.533   7.447
 2117POPC   NC330323   7.937  11.516   9.390
 2117POPC   PO430324   7.334  11.758   9.621
 2117POPC   GL130325   7.305  11.533   9.232
 2117POPC   GL230326   7.264  11.172   9.294
 2117POPC   C1A30327   7.416  11.634   8.801
 2117POPC   D2A30328   7.559  11.381   8.450
 2117POPC   C3A30329   7.461  11.550   8.048
 2117POPC   C4A30330   7.231  11.415   7.642
 2117POPC   C1B30331   7.521  11.116   8.914
 2117POPC   C2B30332   7.413  10.888   8.534
 2117POPC   C3B30333   7.442  10.989   8.125
 2117POPC   C4B30334   7.645  11.152   7.797
 2118POPC   NC330335  27.303   0.105   9.288
 2118POPC   PO430336  27.849   0.331   9.643
 2118POPC   GL130337  27.712   0.497   9.217
 2118POPC   GL230338  27.970   0.765   9.171
 2118POPC   C1A30339  27.560   0.764   8.873
 2118POPC   D2A30340  27.717   0.732   8.471
 2118POPC   C3A30341  27.531   0.443   8.171
 2118POPC   C4A30342  27.684   0.364   7.758
 2118POPC   C1B30343  28.162   0.893   8.737
 2118POPC   C2B30344  28.177   0.918   8.279
 2118POPC   C3B30345  28.093   0.598   7.949
 2118POPC   C4B30346  27.991   0.627   7.444
 2119POPC   NC330347  14.135  39.650   9.301
 2119POPC   PO430348  14.339  40.229   9.584
 2119POPC   GL130349  14.530  40.003   9.217
 2119POPC   GL230350  14.265  40.073   9.046
 2119POPC   C1A30351  14.655  39.911   8.771
 2119POPC   D2A30352  14.476  40.030   8.375
 2119POPC   C3A30353  14.441  39.839   7.966
 2119POPC   C4A30354  14.337  40.222   7.762
 2119POPC   C1B30355  14.059  39.902   8.710
 2119POPC   C2B30356  14.015  39.794   8.328
 2119POPC   C3B30357  13.963  40.014   8.000
 2119POPC   C4B30358  13.971  39.907   7.580
 2120POPC   NC330359  34.211   9.523   9.566
 2120POPC   PO430360  33.676   9.889   9.540
 2120POPC   GL130361  33.825   9.528   9.227
 2120POPC   GL230362  34.132   9.250   9.144
 2120POPC   C1A30363  33.742   9.544   8.804
 2120POPC   D2A30364  33.693   9.735   8.403
 2120POPC   C3A30365  33.570   9.449   8.096
 2120POPC   C4A30366  33.678   9.672   7.746
 2120POPC   C1B30367  34.206   9.342   8.755
 2120POPC   C2B30368  33.993   9.335   8.394
 2120POPC   C3B30369  34.069   9.504   8.002
 2120POPC   C4B30370  34.058   9.234   7.588
 2121POPC   NC330371   5.107  42.770   9.451
 2121POPC   PO430372   4.966  42.143   9.566
 2121POPC   GL130373   5.245  42.239   9.235
 2121POPC   GL230374   4.988  42.408   9.106
 2121POPC   C1A30375   5.386  42.388   8.797
 2121POPC   D2A30376   5.238  42.619   8.422
 2121POPC   C3A30377   5.243  42.428   8.001
 2121POPC   C4A30378   5.155  42.436   7.561
 2121POPC   C1B30379   4.915  42.151   8.712
 2121POPC   C2B30380   4.844  42.242   8.257
 2121POPC   C3B30381   4.796  42.138   7.801
 2121POPC   C4B30382   4.628  41.990   7.360
 2122POPC   NC330383  37.280  11.087   9.528
 2122POPC   PO430384  36.668  11.279   9.535
 2122POPC   GL130385  36.865  11.025   9.134
 2122POPC   GL230386  37.243  10.936   9.053
 2122POPC   C1A30387  36.968  11.069   8.663
 2122POPC   D2A30388  37.342  11.113   8.407
 2122POPC   C3A30389  37.168  11.061   8.021
 2122POPC   C4A30390  36.831  11.308   7.817
 2122POPC   C1B30391  37.282  11.394   8.871
 2122POPC   C2B30392  37.395  11.617   8.465
 2122POPC   C3B30393  37.216  11.591   8.046
 2122POPC   C4B30394  37.035  11.756   7.654
 2123POPC   NC330395   0.086  39.088   9.582
 2123POPC   PO430396  44.413  39.325   9.560
 2123POPC   GL130397  44.656  39.066   9.278
 2123POPC   GL230398  44.853  39.355   9.206
 2123POPC   C1A30399  44.768  38.979   8.838
 2123POPC   D2A30400  44.756  39.238   8.447
 2123POPC   C3A30401  44.563  39.256   8.038
 2123POPC   C4A30402  44.673  38.959   7.765
 2123POPC   C1B30403   0.034  39.455   8.826
 2123POPC   C2B30404   0.040  39.673   8.446
 2123POPC   C3B30405   0.023  39.502   8.043
 2123POPC   C4B30406  44.890  39.503   7.634
 2124POPC   NC330407  26.142  25.572   9.591
 2124POPC   PO430408  25.701  26.045   9.599
 2124POPC   GL130409  25.993  25.964   9.269
 2124POPC   GL230410  25.809  25.695   9.186
 2124POPC   C1A30411  26.019  26.099   8.838
 2124POPC   D2A30412  26.206  26.124   8.430
 2124POPC   C3A30413  25.980  26.101   8.049
 2124POPC   C4A30414  26.121  26.035   7.621
 2124POPC   C1B30415  25.815  25.616   8.750
 2124POPC   C2B30416  25.980  25.624   8.295
 2124POPC   C3B30417  25.885  25.631   7.832
 2124POPC   C4B30418  25.741  25.736   7.383
 2125POPC   NC330419   6.966  16.261   9.473
 2125POPC   PO430420   6.263  16.148   9.495
 2125POPC   GL130421   6.584  16.132   9.159
 2125POPC   GL230422   6.647  15.825   9.326
 2125POPC   C1A30423   6.846  16.226   8.751
 2125POPC   D2A30424   7.010  16.101   8.322
 2125POPC   C3A30425   6.813  16.197   7.913
 2125POPC   C4A30426   6.590  16.053   7.522
 2125POPC   C1B30427   6.568  15.661   8.924
 2125POPC   C2B30428   6.755  15.721   8.532
 2125POPC   C3B30429   6.731  15.703   8.088
 2125POPC   C4B30430   6.576  15.559   7.673
 2126POPC   NC330431  27.239  38.669   9.724
 2126POPC   PO430432  27.547  38.167   9.524
 2126POPC   GL130433  27.557  38.466   9.191
 2126POPC   GL230434  27.247  38.583   9.006
 2126POPC   C1A30435  27.736  38.558   8.804
 2126POPC   D2A30436  27.721  38.229   8.487
 2126POPC   C3A30437  27.715  38.290   8.020
 2126POPC   C4A30438  27.864  38.565   7.649
 2126POPC   C1B30439  27.272  38.553   8.579
 2126POPC   C2B30440  27.594  38.718   8.319
 2126POPC   C3B30441  27.485  38.746   7.920
 2126POPC   C4B30442  27.395  38.763   7.487
 2127POPC   NC330443  30.723  34.848   9.546
 2127POPC   PO430444  30.952  35.507   9.462
 2127POPC   GL130445  30.656  35.265   9.232
 2127POPC   GL230446  30.911  35.053   9.119
 2127POPC   C1A30447  30.478  35.261   8.815
 2127POPC   D2A30448  30.564  35.457   8.406
 2127POPC   C3A30449  30.500  35.264   8.029
 2127POPC   C4A30450  30.179  35.028   7.812
 2127POPC   C1B30451  30.973  35.285   8.737
 2127POPC   C2B30452  30.956  35.130   8.294
 2127POPC   C3B30453  30.966  35.186   7.828
 2127POPC   C4B30454  30.999  35.434   7.439
 2128POPC   NC330455  10.775   1.859   9.794
 2128POPC   PO430456  10.174   1.616   9.579
 2128POPC   GL130457  10.561   1.717   9.208
 2128POPC   GL230458  10.907   1.854   9.161
 2128POPC   C1A30459  10.455   1.880   8.755
 2128POPC   D2A30460  10.220   1.737   8.371
 2128POPC   C3A30461  10.493   1.744   8.045
 2128POPC   C4A30462  10.433   1.939   7.685
 2128POPC   C1B30463  10.918   2.108   8.784
 2128POPC   C2B30464  10.753   2.085   8.370
 2128POPC   C3B30465  10.591   2.297   8.035
 2128POPC   C4B30466  10.747   2.353   7.641
 2129POPC   NC330467  17.588  19.521   9.471
 2129POPC   PO430468  17.365  18.914   9.459
 2129POPC   GL130469  17.556  18.966   9.063
 2129POPC   GL230470  17.653  19.334   9.003
 2129POPC   C1A30471  17.379  19.039   8.685
 2129POPC   D2A30472  17.397  19.297   8.323
 2129POPC   C3A30473  17.144  19.103   8.037
 2129POPC   C4A30474  17.120  18.859   7.697
 2129POPC   C1B30475  17.876  19.196   8.623
 2129POPC   C2B30476  17.704  18.906   8.309
 2129POPC   C3B30477  17.606  18.906   7.903
 2129POPC   C4B30478  17.547  19.077   7.499
 2130POPC   NC330479  32.168  37.800   9.504
 2130POPC   PO430480  32.700  37.323   9.717
 2130POPC   GL130481  32.699  37.514   9.280
 2130POPC   GL230482  32.584  37.872   9.177
 2130POPC   C1A30483  32.663  37.510   8.808
 2130POPC   D2A30484  32.479  37.776   8.443
 2130POPC   C3A30485  32.281  37.590   8.058
 2130POPC   C4A30486  32.475  37.605   7.636
 2130POPC   C1B30487  32.211  37.835   8.867
 2130POPC   C2B30488  31.966  37.906   8.468
 2130POPC   C3B30489  31.776  37.712   8.098
 2130POPC   C4B30490  31.947  37.694   7.670
 2131POPC   NC330491  24.138  13.007   9.717
 2131POPC   PO430492  24.697  12.703   9.489
 2131POPC   GL130493  24.436  12.757   9.136
 2131POPC   GL230494  24.254  13.062   9.147
 2131POPC   C1A30495  24.560  12.936   8.714
 2131POPC   D2A30496  24.746  12.788   8.337
 2131POPC   C3A30497  24.536  12.771   7.980
 2131POPC   C4A30498  24.666  13.110   7.823
 2131POPC   C1B30499  24.078  13.030   8.712
 2131POPC   C2B30500  24.016  12.928   8.256
 2131POPC   C3B30501  24.135  13.111   7.876
 2131POPC   C4B30502  24.263  12.857   7.562
 2132POPC   NC330503  16.613  42.000   9.571
 2132POPC   PO430504  16.899  42.561   9.447
 2132POPC   GL130505  16.801  42.304   9.110
 2132POPC   GL230506  16.462  42.161   9.126
 2132POPC   C1A30507  16.780  42.439   8.656
 2132POPC   D2A30508  16.853  42.739   8.314
 2132POPC   C3A30509  17.016  42.575   7.951
 2132POPC   C4A30510  16.708  42.634   7.609
 2132POPC   C1B30511  16.579  41.969   8.775
 2132POPC   C2B30512  16.428  42.132   8.418
 2132POPC   C3B30513  16.626  42.309   8.114
 2132POPC   C4B30514  16.779  42.150   7.729
 2133POPC   NC330515  43.336  16.587   9.429
 2133POPC   PO430516  42.846  17.019   9.537
 2133POPC   GL130517  43.091  17.031   9.196
 2133POPC   GL230518  43.342  17.279   9.120
 2133POPC   C1A30519  42.945  16.820   8.848
 2133POPC   D2A30520  42.773  16.821   8.444
 2133POPC   C3A30521  42.946  16.578   8.105
 2133POPC   C4A30522  42.833  16.632   7.663
 2133POPC   C1B30523  43.434  16.978   8.820
 2133POPC   C2B30524  43.294  16.832   8.462
 2133POPC   C3B30525  43.410  16.789   8.082
 2133POPC   C4B30526  43.343  16.695   7.678
 2134POPC   NC330527  41.252  29.218   9.563
 2134POPC   PO430528  41.286  28.554   9.590
 2134POPC   GL130529  41.324  28.885   9.194
 2134POPC   GL230530  41.566  29.168   9.108
 2134POPC   C1A30531  41.282  28.968   8.739
 2134POPC   D2A30532  41.490  29.240   8.470
 2134POPC   C3A30533  41.463  29.095   8.047
 2134POPC   C4A30534  41.663  29.049   7.611
 2134POPC   C1B30535  41.249  29.465   8.901
 2134POPC   C2B30536  41.105  29.690   8.494
 2134POPC   C3B30537  41.317  29.568   8.112
 2134POPC   C4B30538  41.359  29.438   7.674
 2135POPC   NC330539  12.295   0.025   9.464
 2135POPC   PO430540  12.269   0.710   9.466
 2135POPC   GL130541  12.154   0.643   9.071
 2135POPC   GL230542  11.974   0.379   9.150
 2135POPC   C1A30543  12.124   0.721   8.633
 2135POPC   D2A30544  12.205   1.013   8.304
 2135POPC   C3A30545  12.297   0.778   7.929
 2135POPC   C4A30546  12.466   0.346   7.910
 2135POPC   C1B30547  11.922   0.231   8.746
 2135POPC   C2B30548  12.109   0.278   8.332
 2135POPC   C3B30549  11.929   0.432   7.964
 2135POPC   C4B30550  11.617   0.596   7.736
 2136POPC   NC330551  25.107   9.281   9.431
 2136POPC   PO430552  25.550   8.880   9.723
 2136POPC   GL130553  25.512   8.868   9.229
 2136POPC   GL230554  25.209   8.976   9.052
 2136POPC   C1A30555  25.517   8.734   8.756
 2136POPC   D2A30556  25.372   8.865   8.315
 2136POPC   C3A30557  25.169   9.254   8.158
 2136POPC   C4A30558  25.020   8.978   7.838
 2136POPC   C1B30559  25.114   9.137   8.678
 2136POPC   C2B30560  25.516   9.276   8.537
 2136POPC   C3B30561  25.700   9.243   8.140
 2136POPC   C4B30562  25.472   9.198   7.754
 2137POPC   NC330563  17.575   7.508   9.485
 2137POPC   PO430564  17.082   7.625   9.184
 2137POPC   GL130565  17.389   7.327   9.028
 2137POPC   GL230566  17.531   7.623   8.909
 2137POPC   C1A30567  17.501   7.242   8.580
 2137POPC   D2A30568  17.439   7.515   8.231
 2137POPC   C3A30569  17.740   7.591   7.978
 2137POPC   C4A30570  17.867   7.326   7.666
 2137POPC   C1B30571  17.181   7.767   8.587
 2137POPC   C2B30572  17.039   7.866   8.199
 2137POPC   C3B30573  17.143   7.684   7.811
 2137POPC   C4B30574  17.405   7.543   7.466
 2138POPC   NC330575   0.444  23.941   9.427
 2138POPC   PO430576   1.003  23.530   9.612
 2138POPC   GL130577   0.715  23.614   9.148
 2138POPC   GL230578   0.318  23.600   9.065
 2138POPC   C1A30579   0.565  23.766   8.683
 2138POPC   D2A30580   0.227  23.589   8.399
 2138POPC   C3A30581   0.358  23.630   7.973
 2138POPC   C4A30582   0.551  23.963   7.753
 2138POPC   C1B30583   0.061  23.901   8.798
 2138POPC   C2B30584  44.967  24.046   8.363
 2138POPC   C3B30585   0.047  24.035   7.931
 2138POPC   C4B30586   0.067  23.785   7.580
 2139POPC   NC330587  26.364  26.965   9.307
 2139POPC   PO430588  27.044  27.071   9.373
 2139POPC   GL130589  26.927  26.762   9.057
 2139POPC   GL230590  26.693  26.505   9.165
 2139POPC   C1A30591  27.040  26.464   8.727
 2139POPC   D2A30592  27.283  26.533   8.356
 2139POPC   C3A30593  26.990  26.764   8.146
 2139POPC   C4A30594  26.776  26.605   7.841
 2139POPC   C1B30595  26.478  26.511   8.755
 2139POPC   C2B30596  26.530  26.490   8.302
 2139POPC   C3B30597  26.300  26.481   7.907
 2139POPC   C4B30598  26.384  26.822   7.601
 2140POPC   NC330599   3.385  11.885   9.589
 2140POPC   PO430600   4.084  11.746   9.510
 2140POPC   GL130601   3.743  11.753   9.200
 2140POPC   GL230602   3.550  12.069   9.136
 2140POPC   C1A30603   3.648  11.737   8.742
 2140POPC   D2A30604   3.558  12.047   8.447
 2140POPC   C3A30605   3.564  11.945   8.036
 2140POPC   C4A30606   3.616  12.227   7.722
 2140POPC   C1B30607   3.191  11.914   8.893
 2140POPC   C2B30608   3.157  11.769   8.492
 2140POPC   C3B30609   3.066  11.969   8.115
 2140POPC   C4B30610   3.149  12.038   7.678
 2141POPC   NC330611  42.568  32.238   9.360
 2141POPC   PO430612  43.227  32.311   9.444
 2141POPC   GL130613  43.040  32.125   9.107
 2141POPC   GL230614  42.910  32.453   9.060
 2141POPC   C1A30615  42.949  32.161   8.654
 2141POPC   D2A30616  43.190  32.350   8.360
 2141POPC   C3A30617  43.251  32.285   7.963
 2141POPC   C4A30618  43.035  32.121   7.650
 2141POPC   C1B30619  42.782  32.657   8.716
 2141POPC   C2B30620  42.704  32.553   8.286
 2141POPC   C3B30621  42.790  32.547   7.839
 2141POPC   C4B30622  42.764  32.451   7.360
 2142POPC   NC330623  18.657  36.831   9.407
 2142POPC   PO430624  19.286  37.124   9.529
 2142POPC   GL130625  19.104  37.005   9.146
 2142POPC   GL230626  19.029  36.636   9.102
 2142POPC   C1A30627  19.158  36.951   8.705
 2142POPC   D2A30628  19.249  37.216   8.381
 2142POPC   C3A30629  19.031  37.115   8.079
 2142POPC   C4A30630  19.173  37.212   7.716
 2142POPC   C1B30631  18.728  36.657   8.741
 2142POPC   C2B30632  18.821  36.670   8.286
 2142POPC   C3B30633  18.674  36.814   7.877
 2142POPC   C4B30634  18.817  36.935   7.453
 2143POPC   NC330635   1.628  15.480   9.492
 2143POPC   PO430636   2.128  15.098   9.483
 2143POPC   GL130637   2.016  15.307   9.137
 2143POPC   GL230638   2.372  15.381   9.128
 2143POPC   C1A30639   1.844  15.200   8.713
 2143POPC   D2A30640   1.649  15.302   8.314
 2143POPC   C3A30641   1.776  15.113   7.971
 2143POPC   C4A30642   1.994  14.994   7.651
 2143POPC   C1B30643   2.346  15.088   8.766
 2143POPC   C2B30644   2.175  15.008   8.338
 2143POPC   C3B30645   2.348  15.183   7.955
 2143POPC   C4B30646   2.379  15.383   7.528
 2144POPC   NC330647  41.509   5.122  10.004
 2144POPC   PO430648  41.129   4.837   9.476
 2144POPC   GL130649  41.456   4.941   9.167
 2144POPC   GL230650  41.528   5.318   9.096
 2144POPC   C1A30651  41.586   4.938   8.748
 2144POPC   D2A30652  41.399   5.103   8.384
 2144POPC   C3A30653  41.427   4.940   7.970
 2144POPC   C4A30654  41.201   5.065   7.599
 2144POPC   C1B30655  41.563   5.512   8.714
 2144POPC   C2B30656  41.331   5.611   8.364
 2144POPC   C3B30657  41.439   5.486   7.956
 2144POPC   C4B30658  41.781   5.295   7.772
 2145POPC   NC330659  21.040  29.925   9.940
 2145POPC   PO430660  20.476  29.826   9.498
 2145POPC   GL130661  20.608  29.766   9.117
 2145POPC   GL230662  20.385  29.512   9.040
 2145POPC   C1A30663  20.537  29.868   8.699
 2145POPC   D2A30664  20.776  30.107   8.451
 2145POPC   C3A30665  20.588  30.038   8.093
 2145POPC   C4A30666  20.691  29.827   7.766
 2145POPC   C1B30667  20.492  29.372   8.611
 2145POPC   C2B30668  20.480  29.513   8.189
 2145POPC   C3B30669  20.221  29.631   7.861
 2145POPC   C4B30670  20.264  29.654   7.410
 2146POPC   NC330671  23.484  16.379   9.679
 2146POPC   PO430672  23.657  16.931   9.507
 2146POPC   GL130673  23.534  16.700   9.163
 2146POPC   GL230674  23.467  16.341   9.159
 2146POPC   C1A30675  23.586  16.827   8.743
 2146POPC   D2A30676  23.691  16.641   8.340
 2146POPC   C3A30677  23.805  16.859   7.980
 2146POPC   C4A30678  23.513  17.017   7.696
 2146POPC   C1B30679  23.749  16.340   8.761
 2146POPC   C2B30680  23.942  16.188   8.350
 2146POPC   C3B30681  23.857  16.307   7.923
 2146POPC   C4B30682  23.608  16.495   7.617
 2147POPC   NC330683  13.586  16.544   9.498
 2147POPC   PO430684  13.204  16.972   9.211
 2147POPC   GL130685  13.581  16.711   9.007
 2147POPC   GL230686  13.913  16.749   9.141
 2147POPC   C1A30687  13.768  16.786   8.603
 2147POPC   D2A30688  13.582  17.016   8.252
 2147POPC   C3A30689  13.443  16.797   7.888
 2147POPC   C4A30690  13.248  16.385   7.784
 2147POPC   C1B30691  14.151  16.501   8.846
 2147POPC   C2B30692  14.122  16.459   8.404
 2147POPC   C3B30693  13.916  16.631   8.089
 2147POPC   C4B30694  13.935  16.980   7.821
 2148POPC   NC330695   1.160  41.227   9.348
 2148POPC   PO430696   1.038  40.539   9.528
 2148POPC   GL130697   1.177  40.712   9.197
 2148POPC   GL230698   0.853  40.834   9.136
 2148POPC   C1A30699   1.448  40.865   8.897
 2148POPC   D2A30700   1.433  40.965   8.462
 2148POPC   C3A30701   1.469  40.717   8.091
 2148POPC   C4A30702   1.474  40.612   7.664
 2148POPC   C1B30703   0.970  40.828   8.721
 2148POPC   C2B30704   0.929  41.148   8.438
 2148POPC   C3B30705   1.147  41.129   8.066
 2148POPC   C4B30706   1.056  40.909   7.700
 2149POPC   NC330707  34.998  17.012   9.318
 2149POPC   PO430708  35.711  16.945   9.455
 2149POPC   GL130709  35.692  16.831   9.058
 2149POPC   GL230710  35.351  16.768   9.056
 2149POPC   C1A30711  35.621  16.724   8.636
 2149POPC   D2A30712  35.378  16.826   8.291
 2149POPC   C3A30713  35.471  16.659   7.901
 2149POPC   C4A30714  35.497  16.257   7.775
 2149POPC   C1B30715  35.079  16.784   8.708
 2149POPC   C2B30716  34.864  16.874   8.344
 2149POPC   C3B30717  35.007  16.935   7.929
 2149POPC   C4B30718  34.965  16.898   7.451
 2150POPC   NC330719  22.002   1.610   9.438
 2150POPC   PO430720  22.262   1.071   9.462
 2150POPC   GL130721  22.106   1.238   9.088
 2150POPC   GL230722  22.349   1.498   9.031
 2150POPC   C1A30723  22.161   1.120   8.647
 2150POPC   D2A30724  22.526   1.187   8.288
 2150POPC   C3A30725  22.327   1.144   7.875
 2150POPC   C4A30726  21.948   0.948   7.739
 2150POPC   C1B30727  22.374   1.575   8.584
 2150POPC   C2B30728  22.084   1.450   8.259
 2150POPC   C3B30729  21.909   1.436   7.871
 2150POPC   C4B30730  22.130   1.480   7.512
 2151POPC   NC330731  38.359  30.154   9.645
 2151POPC   PO430732  38.335  29.540   9.454
 2151POPC   GL130733  38.355  29.748   9.065
 2151POPC   GL230734  38.178  30.038   9.154
 2151POPC   C1A30735  38.495  30.060   8.715
 2151POPC   D2A30736  38.570  30.103   8.230
 2151POPC   C3A30737  38.631  29.721   7.963
 2151POPC   C4A30738  38.667  29.712   7.518
 2151POPC   C1B30739  38.004  30.289   8.822
 2151POPC   C2B30740  38.177  30.354   8.425
 2151POPC   C3B30741  38.098  30.281   8.003
 2151POPC   C4B30742  38.232  29.979   7.711
 2152POPC   NC330743  42.069  25.240   9.309
 2152POPC   PO430744  41.441  25.337   9.547
 2152POPC   GL130745  41.355  25.368   9.091
 2152POPC   GL230746  41.655  25.280   9.052
 2152POPC   C1A30747  41.379  25.256   8.643
 2152POPC   D2A30748  41.600  24.973   8.362
 2152POPC   C3A30749  41.499  25.120   7.949
 2152POPC   C4A30750  41.626  24.843   7.639
 2152POPC   C1B30751  41.905  25.213   8.700
 2152POPC   C2B30752  41.850  25.413   8.347
 2152POPC   C3B30753  41.981  25.289   7.971
 2152POPC   C4B30754  41.869  25.358   7.561
 2153POPC   NC330755   1.139  13.710   9.780
 2153POPC   PO430756   1.449  13.346   9.365
 2153POPC   GL130757   1.181  13.595   9.106
 2153POPC   GL230758   1.346  13.926   8.938
 2153POPC   C1A30759   1.079  13.606   8.684
 2153POPC   D2A30760   1.318  13.786   8.345
 2153POPC   C3A30761   1.126  13.724   7.950
 2153POPC   C4A30762   0.945  13.554   7.604
 2153POPC   C1B30763   1.709  14.019   8.670
 2153POPC   C2B30764   1.830  14.059   8.230
 2153POPC   C3B30765   1.504  14.065   7.917
 2153POPC   C4B30766   1.453  13.896   7.498
 2154POPC   NC330767  20.541  42.235   9.624
 2154POPC   PO430768  20.944  42.610   9.178
 2154POPC   GL130769  20.656  42.484   8.942
 2154POPC   GL230770  20.479  42.247   9.124
 2154POPC   C1A30771  20.667  42.528   8.536
 2154POPC   D2A30772  20.888  42.606   8.190
 2154POPC   C3A30773  20.555  42.722   7.929
 2154POPC   C4A30774  20.558  42.767   7.455
 2154POPC   C1B30775  20.476  42.048   8.730
 2154POPC   C2B30776  20.655  41.979   8.314
 2154POPC   C3B30777  20.687  41.925   7.877
 2154POPC   C4B30778  20.596  42.293   7.631
 2155POPC   NC330779  16.414  40.573   9.586
 2155POPC   PO430780  15.768  40.877   9.661
 2155POPC   GL130781  15.750  40.916   9.244
 2155POPC   GL230782  16.086  40.742   9.218
 2155POPC   C1A30783  15.730  40.714   8.823
 2155POPC   D2A30784  15.837  40.395   8.493
 2155POPC   C3A30785  15.749  40.581   8.061
 2155POPC   C4A30786  15.572  40.447   7.635
 2155POPC   C1B30787  16.218  40.589   8.824
 2155POPC   C2B30788  16.112  40.816   8.451
 2155POPC   C3B30789  16.203  40.865   8.023
 2155POPC   C4B30790  15.875  41.050   7.777
 2156POPC   NC330791  27.359  27.346   9.570
 2156POPC   PO430792  27.784  27.802   9.368
 2156POPC   GL130793  27.374  27.795   9.181
 2156POPC   GL230794  27.214  27.496   9.122
 2156POPC   C1A30795  27.458  27.824   8.733
 2156POPC   D2A30796  27.725  27.505   8.499
 2156POPC   C3A30797  27.639  27.412   8.064
 2156POPC   C4A30798  27.732  27.253   7.644
 2156POPC   C1B30799  27.261  27.352   8.750
 2156POPC   C2B30800  27.209  27.541   8.376
 2156POPC   C3B30801  27.117  27.484   7.977
 2156POPC   C4B30802  27.387  27.668   7.695
 2157POPC   NC330803   8.593  43.622   9.443
 2157POPC   PO430804   8.434  42.977   9.592
 2157POPC   GL130805   8.306  43.223   9.204
 2157POPC   GL230806   8.247  42.889   9.094
 2157POPC   C1A30807   8.109  43.249   8.785
 2157POPC   D2A30808   8.276  43.059   8.401
 2157POPC   C3A30809   8.194  43.255   8.037
 2157POPC   C4A30810   7.861  43.509   7.875
 2157POPC   C1B30811   8.374  42.660   8.721
 2157POPC   C2B30812   8.235  42.572   8.289
 2157POPC   C3B30813   8.319  42.751   7.888
 2157POPC   C4B30814   8.445  42.691   7.429
 2158POPC   NC330815  37.446  30.429   9.475
 2158POPC   PO430816  37.408  31.152   9.462
 2158POPC   GL130817  37.526  30.820   9.159
 2158POPC   GL230818  37.886  30.678   9.158
 2158POPC   C1A30819  37.591  30.615   8.748
 2158POPC   D2A30820  37.812  30.693   8.405
 2158POPC   C3A30821  37.627  30.606   8.016
 2158POPC   C4A30822  37.789  30.468   7.633
 2158POPC   C1B30823  37.859  31.052   8.854
 2158POPC   C2B30824  37.652  31.165   8.486
 2158POPC   C3B30825  37.786  31.094   8.091
 2158POPC   C4B30826  37.884  31.118   7.677
 2159POPC   NC330827  37.911  32.130   9.623
 2159POPC   PO430828  37.622  32.659   9.528
 2159POPC   GL130829  37.627  32.513   9.128
 2159POPC   GL230830  37.626  32.182   9.159
 2159POPC   C1A30831  37.431  32.469   8.723
 2159POPC   D2A30832  37.289  32.375   8.302
 2159POPC   C3A30833  37.645  32.465   8.117
 2159POPC   C4A30834  37.752  32.407   7.740
 2159POPC   C1B30835  37.484  31.951   8.809
 2159POPC   C2B30836  37.633  31.767   8.445
 2159POPC   C3B30837  37.659  31.959   8.050
 2159POPC   C4B30838  37.333  32.135   7.808
 2160POPC   NC330839  21.738   0.115   9.501
 2160POPC   PO430840  21.354   0.651   9.473
 2160POPC   GL130841  21.588   0.472   9.168
 2160POPC   GL230842  21.322   0.180   9.191
 2160POPC   C1A30843  21.756   0.541   8.751
 2160POPC   D2A30844  21.464   0.494   8.433
 2160POPC   C3A30845  21.511   0.734   8.064
 2160POPC   C4A30846  21.431   0.566   7.667
 2160POPC   C1B30847  21.538   0.085   8.798
 2160POPC   C2B30848  21.650  44.986   8.362
 2160POPC   C3B30849  21.414   0.184   8.030
 2160POPC   C4B30850  21.036   0.249   7.773
 2161POPC   NC330851   2.366  43.533   9.261
 2161POPC   PO430852   2.829  43.042   9.458
 2161POPC   GL130853   2.778  42.943   9.045
 2161POPC   GL230854   2.724  43.287   8.998
 2161POPC   C1A30855   2.999  42.746   8.679
 2161POPC   D2A30856   3.170  42.814   8.242
 2161POPC   C3A30857   2.876  42.780   7.884
 2161POPC   C4A30858   2.472  43.007   7.838
 2161POPC   C1B30859   2.902  43.238   8.613
 2161POPC   C2B30860   2.752  43.189   8.227
 2161POPC   C3B30861   2.718  43.476   7.876
 2161POPC   C4B30862   2.820  43.650   7.465
 2162POPC   NC330863  43.562   2.844   9.671
 2162POPC   PO430864  42.919   2.640   9.622
 2162POPC   GL130865  43.267   2.628   9.318
 2162POPC   GL230866  43.334   3.001   9.225
 2162POPC   C1A30867  43.486   2.549   8.934
 2162POPC   D2A30868  43.332   2.535   8.497
 2162POPC   C3A30869  43.460   2.543   8.080
 2162POPC   C4A30870  43.186   2.655   7.757
 2162POPC   C1B30871  43.108   2.881   8.829
 2162POPC   C2B30872  42.914   2.864   8.401
 2162POPC   C3B30873  42.753   2.948   7.981
 2162POPC   C4B30874  42.811   2.973   7.492
 2163POPC   NC330875  22.244  19.929   9.572
 2163POPC   PO430876  21.676  19.624   9.379
 2163POPC   GL130877  22.026  19.776   9.125
 2163POPC   GL230878  22.066  20.140   9.124
 2163POPC   C1A30879  22.359  19.832   8.811
 2163POPC   D2A30880  22.486  19.734   8.376
 2163POPC   C3A30881  22.226  19.732   7.996
 2163POPC   C4A30882  22.439  19.642   7.607
 2163POPC   C1B30883  21.808  20.073   8.755
 2163POPC   C2B30884  21.853  19.982   8.314
 2163POPC   C3B30885  21.855  20.145   7.909
 2163POPC   C4B30886  22.227  20.117   7.647
 2164POPC   NC330887  19.956  24.618   9.473
 2164POPC   PO430888  19.558  24.045   9.445
 2164POPC   GL130889  19.704  24.313   9.136
 2164POPC   GL230890  20.053  24.220   9.129
 2164POPC   C1A30891  19.857  24.540   8.756
 2164POPC   D2A30892  19.669  24.789   8.414
 2164POPC   C3A30893  19.640  24.649   7.980
 2164POPC   C4A30894  19.876  24.817   7.629
 2164POPC   C1B30895  20.259  24.124   8.751
 2164POPC   C2B30896  20.155  24.366   8.355
 2164POPC   C3B30897  20.134  24.490   7.899
 2164POPC   C4B30898  20.204  24.421   7.431
 2165POPC   NC330899  37.276  10.088   9.529
 2165POPC   PO430900  37.002   9.470   9.349
 2165POPC   GL130901  37.064   9.799   9.049
 2165POPC   GL230902  37.282  10.103   9.038
 2165POPC   C1A30903  36.825   9.778   8.653
 2165POPC   D2A30904  36.694   9.603   8.235
 2165POPC   C3A30905  36.941   9.601   7.855
 2165POPC   C4A30906  36.587   9.514   7.626
 2165POPC   C1B30907  37.271  10.045   8.629
 2165POPC   C2B30908  36.973  10.158   8.334
 2165POPC   C3B30909  36.787  10.066   7.944
 2165POPC   C4B30910  36.614  10.010   7.511
 2166POPC   NC330911  20.163  33.856   9.414
 2166POPC   PO430912  19.770  33.410   9.576
 2166POPC   GL130913  19.788  33.602   9.178
 2166POPC   GL230914  19.467  33.769   9.147
 2166POPC   C1A30915  19.844  33.787   8.776
 2166POPC   D2A30916  20.023  33.914   8.403
 2166POPC   C3A30917  19.983  33.779   8.070
 2166POPC   C4A30918  19.982  33.886   7.704
 2166POPC   C1B30919  19.348  33.877   8.721
 2166POPC   C2B30920  19.548  33.707   8.344
 2166POPC   C3B30921  19.508  33.789   7.909
 2166POPC   C4B30922  19.579  33.731   7.471
 2167POPC   NC330923  43.483  28.921   9.404
 2167POPC   PO430924  43.941  28.447   9.512
 2167POPC   GL130925  43.826  28.262   9.177
 2167POPC   GL230926  43.638  28.552   9.063
 2167POPC   C1A30927  44.045  28.305   8.789
 2167POPC   D2A30928  44.086  28.534   8.376
 2167POPC   C3A30929  43.981  28.244   8.056
 2167POPC   C4A30930  43.866  28.042   7.676
 2167POPC   C1B30931  43.609  28.499   8.617
 2167POPC   C2B30932  43.582  28.698   8.251
 2167POPC   C3B30933  43.587  28.525   7.854
 2167POPC   C4B30934  43.375  28.578   7.479
 2168POPC   NC330935  35.982  44.384   9.580
 2168POPC   PO430936  36.643  44.483   9.742
 2168POPC   GL130937  36.384  44.401   9.242
 2168POPC   GL230938  35.984  44.487   9.092
 2168POPC   C1A30939  36.338  44.452   8.728
 2168POPC   D2A30940  36.398  44.489   8.243
 2168POPC   C3A30941  36.171  44.641   7.849
 2168POPC   C4A30942  36.260  44.606   7.371
 2168POPC   C1B30943  36.004  44.831   8.776
 2168POPC   C2B30944  36.339  44.940   8.450
 2168POPC   C3B30945  36.590  44.923   8.034
 2168POPC   C4B30946  36.445   0.028   7.608
 2169POPC   NC330947  15.877  19.737   9.442
 2169POPC   PO430948  16.064  20.336   9.743
 2169POPC   GL130949  16.052  20.284   9.302
 2169POPC   GL230950  16.267  20.008   9.238
 2169POPC   C1A30951  16.062  20.268   8.837
 2169POPC   D2A30952  15.986  19.973   8.483
 2169POPC   C3A30953  15.972  20.134   8.070
 2169POPC   C4A30954  16.220  20.050   7.711
 2169POPC   C1B30955  16.198  19.717   8.879
 2169POPC   C2B30956  16.239  19.500   8.473
 2169POPC   C3B30957  16.183  19.449   8.009
 2169POPC   C4B30958  16.244  19.522   7.570
 2170POPC   NC330959  29.112  24.249   9.730
 2170POPC   PO430960  29.237  24.828   9.720
 2170POPC   GL130961  28.961  24.637   9.355
 2170POPC   GL230962  28.836  24.945   9.164
 2170POPC   C1A30963  29.036  24.400   8.927
 2170POPC   D2A30964  29.344  24.191   8.640
 2170POPC   C3A30965  29.348  24.308   8.186
 2170POPC   C4A30966  29.194  24.249   7.743
 2170POPC   C1B30967  28.972  24.892   8.731
 2170POPC   C2B30968  28.996  24.637   8.378
 2170POPC   C3B30969  29.097  24.711   7.930
 2170POPC   C4B30970  29.085  24.638   7.443
 2171POPC   NC330971  40.673   3.203   9.367
 2171POPC   PO430972  40.797   3.897   9.459
 2171POPC   GL130973  40.659   3.676   9.124
 2171POPC   GL230974  40.989   3.722   9.007
 2171POPC   C1A30975  40.681   3.457   8.716
 2171POPC   D2A30976  40.638   3.694   8.336
 2171POPC   C3A30977  40.641   3.575   7.897
 2171POPC   C4A30978  40.805   3.251   7.587
 2171POPC   C1B30979  41.268   3.984   8.782
 2171POPC   C2B30980  41.120   4.168   8.418
 2171POPC   C3B30981  40.995   3.950   8.042
 2171POPC   C4B30982  41.136   3.597   7.781
 2172POPC   NC330983  40.047  19.566   9.558
 2172POPC   PO430984  39.653  20.135   9.655
 2172POPC   GL130985  39.977  19.960   9.242
 2172POPC   GL230986  39.874  19.599   9.083
 2172POPC   C1A30987  40.191  19.838   8.776
 2172POPC   D2A30988  40.073  19.827   8.302
 2172POPC   C3A30989  40.372  19.787   7.926
 2172POPC   C4A30990  40.242  19.812   7.473
 2172POPC   C1B30991  39.879  19.446   8.643
 2172POPC   C2B30992  39.753  19.435   8.203
 2172POPC   C3B30993  39.880  19.657   7.825
 2172POPC   C4B30994  39.743  19.718   7.395
 2173POPC   NC330995  22.281  37.453   9.604
 2173POPC   PO430996  22.136  36.801   9.564
 2173POPC   GL130997  22.062  37.115   9.232
 2173POPC   GL230998  21.868  36.881   9.087
 2173POPC   C1A30999  22.182  37.239   8.797
 2173POPC   D2A31000  22.368  36.960   8.487
 2173POPC   C3A31001  22.220  36.837   8.076
 2173POPC   C4A31002  22.420  36.794   7.637
 2173POPC   C1B31003  22.017  36.622   8.761
 2173POPC   C2B31004  21.875  36.443   8.387
 2173POPC   C3B31005  21.734  36.626   8.048
 2173POPC   C4B31006  21.905  36.761   7.688
 2174POPC   NC331007  24.201  10.614   9.547
 2174POPC   PO431008  24.709  11.054   9.482
 2174POPC   GL131009  24.525  10.720   9.181
 2174POPC   GL231010  24.264  10.385   9.109
 2174POPC   C1A31011  24.356  10.770   8.799
 2174POPC   D2A31012  24.553  10.655   8.396
 2174POPC   C3A31013  24.426  10.640   8.000
 2174POPC   C4A31014  24.641  10.448   7.692
 2174POPC   C1B31015  24.345  10.250   8.661
 2174POPC   C2B31016  24.153  10.196   8.237
 2174POPC   C3B31017  24.188  10.216   7.822
 2174POPC   C4B31018  24.172  10.526   7.514
 2175POPC   NC331019  23.473  43.963   9.506
 2175POPC   PO431020  24.035  43.641   9.366
 2175POPC   GL131021  23.792  43.985   9.123
 2175POPC   GL231022  23.597  43.744   9.053
 2175POPC   C1A31023  23.622  44.103   8.711
 2175POPC   D2A31024  23.688  43.898   8.310
 2175POPC   C3A31025  23.573  44.246   8.010
 2175POPC   C4A31026  23.794  44.336   7.642
 2175POPC   C1B31027  23.989  43.753   8.727
 2175POPC   C2B31028  24.152  43.619   8.347
 2175POPC   C3B31029  23.994  43.626   7.971
 2175POPC   C4B31030  23.673  43.806   7.783
 2176POPC   NC331031  29.803  19.758   9.538
 2176POPC   PO431032  29.495  20.310   9.370
 2176POPC   GL131033  29.681  19.961   9.084
 2176POPC   GL231034  30.073  19.852   9.132
 2176POPC   C1A31035  29.841  19.834   8.678
 2176POPC   D2A31036  30.236  19.757   8.458
 2176POPC   C3A31037  30.206  19.931   8.042
 2176POPC   C4A31038  29.942  19.822   7.674
 2176POPC   C1B31039  30.228  20.133   8.838
 2176POPC   C2B31040  30.251  20.303   8.427
 2176POPC   C3B31041  30.349  20.435   8.018
 2176POPC   C4B31042  30.277  20.225   7.619
 2177POPC   NC331043  43.621  42.900   9.520
 2177POPC   PO431044  44.216  42.886   9.248
 2177POPC   GL131045  43.857  42.927   9.031
 2177POPC   GL231046  43.496  42.767   9.062
 2177POPC   C1A31047  44.030  42.933   8.615
 2177POPC   D2A31048  43.922  42.911   8.208
 2177POPC   C3A31049  43.925  43.283   8.012
 2177POPC   C4A31050  44.106  43.313   7.626
 2177POPC   C1B31051  43.504  42.914   8.655
 2177POPC   C2B31052  43.447  42.716   8.291
 2177POPC   C3B31053  43.460  42.789   7.896
 2177POPC   C4B31054  43.802  42.883   7.720
 2178POPC   NC331055  42.145   6.798   9.647
 2178POPC   PO431056  41.649   6.406   9.307
 2178POPC   GL131057  41.622   6.701   9.017
 2178POPC   GL231058  41.272   6.723   9.145
 2178POPC   C1A31059  41.856   6.701   8.619
 2178POPC   D2A31060  41.966   6.392   8.281
 2178POPC   C3A31061  41.795   6.545   7.897
 2178POPC   C4A31062  41.347   6.421   7.805
 2178POPC   C1B31063  41.264   6.501   8.714
 2178POPC   C2B31064  41.450   6.567   8.301
 2178POPC   C3B31065  41.446   6.909   7.993
 2178POPC   C4B31066  41.695   7.014   7.656
 2179POPC   NC331067  11.138  20.170   9.414
 2179POPC   PO431068  11.494  19.691   9.519
 2179POPC   GL131069  11.336  19.820   9.123
 2179POPC   GL231070  10.985  19.914   8.994
 2179POPC   C1A31071  11.519  19.915   8.751
 2179POPC   D2A31072  11.735  20.065   8.416
 2179POPC   C3A31073  11.455  20.035   8.088
 2179POPC   C4A31074  11.330  19.905   7.692
 2179POPC   C1B31075  10.788  19.644   8.665
 2179POPC   C2B31076  10.790  19.618   8.207
 2179POPC   C3B31077  10.842  19.741   7.780
 2179POPC   C4B31078  10.605  19.713   7.386
 2180POPC   NC331079   0.058  23.149   9.449
 2180POPC   PO431080  44.441  23.303   9.418
 2180POPC   GL131081  44.663  23.112   9.066
 2180POPC   GL231082   0.018  23.167   8.950
 2180POPC   C1A31083  44.600  22.938   8.656
 2180POPC   D2A31084  44.392  22.991   8.274
 2180POPC   C3A31085  44.513  22.705   7.956
 2180POPC   C4A31086  44.633  23.037   7.687
 2180POPC   C1B31087   0.047  22.740   8.782
 2180POPC   C2B31088  44.933  22.620   8.340
 2180POPC   C3B31089   0.009  22.751   7.882
 2180POPC   C4B31090  44.946  22.797   7.395
 2181POPC   NC331091  12.590  19.799   9.516
 2181POPC   PO431092  13.214  19.598   9.516
 2181POPC   GL131093  13.010  19.766   9.151
 2181POPC   GL231094  12.694  19.576   9.095
 2181POPC   C1A31095  12.831  19.944   8.766
 2181POPC   D2A31096  12.636  19.727   8.415
 2181POPC   C3A31097  12.876  19.856   8.077
 2181POPC   C4A31098  12.798  20.104   7.754
 2181POPC   C1B31099  12.862  19.385   8.757
 2181POPC   C2B31100  12.863  19.255   8.339
 2181POPC   C3B31101  12.687  19.409   7.968
 2181POPC   C4B31102  12.807  19.601   7.579
 2182POPC   NC331103  32.789  26.127   9.501
 2182POPC   PO431104  33.137  25.505   9.324
 2182POPC   GL131105  32.941  25.859   9.078
 2182POPC   GL231106  33.140  26.201   9.081
 2182POPC   C1A31107  32.892  26.039   8.641
 2182POPC   D2A31108  33.212  26.243   8.341
 2182POPC   C3A31109  32.953  26.221   7.987
 2182POPC   C4A31110  32.700  25.869   7.905
 2182POPC   C1B31111  33.356  25.907   8.774
 2182POPC   C2B31112  33.234  25.718   8.371
 2182POPC   C3B31113  33.216  25.798   7.925
 2182POPC   C4B31114  33.323  25.681   7.497
 2183POPC   NC331115  39.216  19.996   9.590
 2183POPC   PO431116  39.521  19.416   9.430
 2183POPC   GL131117  39.385  19.768   9.143
 2183POPC   GL231118  39.481  20.119   9.175
 2183POPC   C1A31119  39.156  19.888   8.764
 2183POPC   D2A31120  38.858  19.928   8.378
 2183POPC   C3A31121  39.059  19.966   7.946
 2183POPC   C4A31122  39.214  19.930   7.503
 2183POPC   C1B31123  39.714  20.060   8.828
 2183POPC   C2B31124  39.611  19.854   8.500
 2183POPC   C3B31125  39.584  19.951   8.089
 2183POPC   C4B31126  39.680  20.151   7.720
 2184POPC   NC331127  33.835  24.702   9.840
 2184POPC   PO431128  34.336  24.322   9.545
 2184POPC   GL131129  34.008  24.453   9.194
 2184POPC   GL231130  33.997  24.752   8.997
 2184POPC   C1A31131  33.833  24.320   8.786
 2184POPC   D2A31132  33.722  24.409   8.373
 2184POPC   C3A31133  34.010  24.524   8.064
 2184POPC   C4A31134  33.925  24.222   7.739
 2184POPC   C1B31135  33.647  24.831   8.725
 2184POPC   C2B31136  33.721  24.927   8.340
 2184POPC   C3B31137  33.548  24.833   7.994
 2184POPC   C4B31138  33.788  24.771   7.666
 2185POPC   NC331139  34.332  29.351   9.499
 2185POPC   PO431140  34.803  28.841   9.477
 2185POPC   GL131141  34.658  29.103   9.157
 2185POPC   GL231142  34.341  28.959   9.038
 2185POPC   C1A31143  34.543  29.418   8.856
 2185POPC   D2A31144  34.393  29.483   8.424
 2185POPC   C3A31145  34.539  29.240   8.070
 2185POPC   C4A31146  34.397  29.191   7.629
 2185POPC   C1B31147  34.452  29.006   8.599
 2185POPC   C2B31148  34.822  28.821   8.455
 2185POPC   C3B31149  35.002  28.726   8.088
 2185POPC   C4B31150  34.749  28.851   7.786
 2186POPC   NC331151  29.822  23.636   9.513
 2186POPC   PO431152  29.816  24.206   9.193
 2186POPC   GL131153  29.827  23.979   8.879
 2186POPC   GL231154  30.021  23.732   9.056
 2186POPC   C1A31155  30.136  23.907   8.586
 2186POPC   D2A31156  30.350  23.929   8.218
 2186POPC   C3A31157  30.066  23.674   7.973
 2186POPC   C4A31158  29.881  23.657   7.552
 2186POPC   C1B31159  29.886  23.467   8.784
 2186POPC   C2B31160  29.779  23.426   8.388
 2186POPC   C3B31161  29.923  23.186   8.088
 2186POPC   C4B31162  29.796  23.178   7.717
 2187POPC   NC331163   8.827   3.144   9.553
 2187POPC   PO431164   9.085   3.821   9.503
 2187POPC   GL131165   9.015   3.502   9.227
 2187POPC   GL231166   9.290   3.606   9.056
 2187POPC   C1A31167   8.865   3.348   8.843
 2187POPC   D2A31168   8.716   3.341   8.415
 2187POPC   C3A31169   8.834   3.379   8.028
 2187POPC   C4A31170   8.749   3.727   7.765
 2187POPC   C1B31171   9.167   3.731   8.659
 2187POPC   C2B31172   9.068   3.777   8.249
 2187POPC   C3B31173   9.254   3.609   7.902
 2187POPC   C4B31174   9.577   3.620   7.684
 2188POPC   NC331175  19.645  36.774   9.552
 2188POPC   PO431176  20.279  37.008   9.522
 2188POPC   GL131177  20.066  37.160   9.148
 2188POPC   GL231178  19.704  37.082   9.152
 2188POPC   C1A31179  20.026  36.969   8.732
 2188POPC   D2A31180  19.850  36.648   8.456
 2188POPC   C3A31181  20.018  36.608   8.040
 2188POPC   C4A31182  20.045  36.945   7.765
 2188POPC   C1B31183  19.594  37.233   8.765
 2188POPC   C2B31184  19.767  37.209   8.352
 2188POPC   C3B31185  19.587  37.058   7.982
 2188POPC   C4B31186  19.651  37.196   7.566
 2189POPC   NC331187  12.217  31.595   9.991
 2189POPC   PO431188  12.090  31.131   9.507
 2189POPC   GL131189  12.081  31.324   9.069
 2189POPC   GL231190  12.079  31.701   9.020
 2189POPC   C1A31191  12.216  31.397   8.621
 2189POPC   D2A31192  12.406  31.226   8.253
 2189POPC   C3A31193  12.274  31.398   7.885
 2189POPC   C4A31194  11.905  31.192   7.774
 2189POPC   C1B31195  12.026  31.882   8.590
 2189POPC   C2B31196  12.054  31.763   8.176
 2189POPC   C3B31197  12.048  31.985   7.818
 2189POPC   C4B31198  12.005  32.129   7.400
 2190POPC   NC331199  41.920  10.146   9.464
 2190POPC   PO431200  41.470  10.622   9.465
 2190POPC   GL131201  41.612  10.507   9.056
 2190POPC   GL231202  41.917  10.327   8.969
 2190POPC   C1A31203  41.562  10.330   8.599
 2190POPC   D2A31204  41.726  10.379   8.200
 2190POPC   C3A31205  41.556  10.542   7.861
 2190POPC   C4A31206  41.852  10.337   7.616
 2190POPC   C1B31207  41.873  10.725   8.676
 2190POPC   C2B31208  42.007  10.828   8.248
 2190POPC   C3B31209  42.000  10.782   7.800
 2190POPC   C4B31210  42.113  10.900   7.369
 2191POPC   NC331211  31.751  25.147   9.363
 2191POPC   PO431212  31.162  25.559   9.468
 2191POPC   GL131213  31.346  25.256   9.087
 2191POPC   GL231214  31.183  24.940   9.187
 2191POPC   C1A31215  31.590  25.229   8.641
 2191POPC   D2A31216  31.768  25.556   8.304
 2191POPC   C3A31217  31.579  25.723   7.941
 2191POPC   C4A31218  31.225  25.535   7.810
 2191POPC   C1B31219  31.008  24.975   8.778
 2191POPC   C2B31220  31.256  24.925   8.422
 2191POPC   C3B31221  31.517  25.119   8.105
 2191POPC   C4B31222  31.298  25.021   7.751
 2192POPC   NC331223  29.030  23.548   9.340
 2192POPC   PO431224  29.445  23.950   9.625
 2192POPC   GL131225  29.304  23.962   9.176
 2192POPC   GL231226  29.484  23.662   9.094
 2192POPC   C1A31227  28.943  23.909   8.827
 2192POPC   D2A31228  28.853  24.117   8.445
 2192POPC   C3A31229  29.021  23.906   8.082
 2192POPC   C4A31230  28.981  23.778   7.658
 2192POPC   C1B31231  29.368  23.667   8.648
 2192POPC   C2B31232  29.274  23.442   8.245
 2192POPC   C3B31233  29.444  23.559   7.836
 2192POPC   C4B31234  29.418  23.782   7.412
 2193POPC   NC331235  32.130  35.614   9.606
 2193POPC   PO431236  32.786  35.624   9.311
 2193POPC   GL131237  32.582  35.328   9.091
 2193POPC   GL231238  32.284  35.320   9.218
 2193POPC   C1A31239  32.379  35.221   8.713
 2193POPC   D2A31240  32.282  34.995   8.348
 2193POPC   C3A31241  32.333  35.270   8.004
 2193POPC   C4A31242  32.369  35.643   7.794
 2193POPC   C1B31243  32.045  35.563   8.934
 2193POPC   C2B31244  31.888  35.622   8.539
 2193POPC   C3B31245  31.930  35.612   8.110
 2193POPC   C4B31246  31.883  35.355   7.742
 2194POPC   NC331247  29.097   3.894   9.493
 2194POPC   PO431248  28.952   3.311   9.545
 2194POPC   GL131249  29.110   3.511   9.152
 2194POPC   GL231250  28.972   3.883   9.019
 2194POPC   C1A31251  29.243   3.368   8.725
 2194POPC   D2A31252  29.293   3.617   8.350
 2194POPC   C3A31253  29.350   3.431   7.938
 2194POPC   C4A31254  29.159   3.572   7.570
 2194POPC   C1B31255  28.796   3.588   8.782
 2194POPC   C2B31256  28.799   3.483   8.376
 2194POPC   C3B31257  28.885   3.679   8.002
 2194POPC   C4B31258  28.633   3.641   7.635
 2195POPC   NC331259  11.290  18.667   9.447
 2195POPC   PO431260  11.337  18.008   9.546
 2195POPC   GL131261  11.160  18.188   9.135
 2195POPC   GL231262  10.980  18.510   9.029
 2195POPC   C1A31263  11.111  18.109   8.683
 2195POPC   D2A31264  11.346  18.292   8.339
 2195POPC   C3A31265  11.085  18.506   8.052
 2195POPC   C4A31266  11.008  18.332   7.674
 2195POPC   C1B31267  11.415  18.502   8.833
 2195POPC   C2B31268  11.737  18.586   8.559
 2195POPC   C3B31269  11.706  18.629   8.137
 2195POPC   C4B31270  11.494  18.504   7.753
 2196POPC   NC331271  38.012  23.778   9.464
 2196POPC   PO431272  38.700  23.885   9.624
 2196POPC   GL131273  38.473  23.751   9.223
 2196POPC   GL231274  38.215  23.933   9.026
 2196POPC   C1A31275  38.585  23.693   8.776
 2196POPC   D2A31276  38.524  23.698   8.352
 2196POPC   C3A31277  38.775  23.542   8.036
 2196POPC   C4A31278  38.612  23.498   7.628
 2196POPC   C1B31279  38.101  23.559   8.739
 2196POPC   C2B31280  38.083  23.463   8.278
 2196POPC   C3B31281  38.225  23.732   7.908
 2196POPC   C4B31282  38.208  23.776   7.425
 2197POPC   NC331283   9.940  14.613   9.400
 2197POPC   PO431284   9.288  14.474   9.296
 2197POPC   GL131285   9.661  14.287   9.107
 2197POPC   GL231286  10.031  14.154   9.149
 2197POPC   C1A31287   9.880  14.424   8.736
 2197POPC   D2A31288  10.051  14.686   8.395
 2197POPC   C3A31289   9.923  14.481   8.046
 2197POPC   C4A31290   9.644  14.549   7.744
 2197POPC   C1B31291  10.142  13.969   8.783
 2197POPC   C2B31292  10.087  14.090   8.387
 2197POPC   C3B31293  10.056  13.978   8.009
 2197POPC   C4B31294  10.070  14.178   7.634
 2198POPC   NC331295   2.823  19.607   9.604
 2198POPC   PO431296   2.825  18.963   9.564
 2198POPC   GL131297   2.703  19.068   9.148
 2198POPC   GL231298   2.399  19.289   9.202
 2198POPC   C1A31299   2.931  19.034   8.736
 2198POPC   D2A31300   3.093  19.203   8.324
 2198POPC   C3A31301   2.941  18.887   8.056
 2198POPC   C4A31302   2.837  18.863   7.668
 2198POPC   C1B31303   2.496  19.322   8.740
 2198POPC   C2B31304   2.583  19.144   8.340
 2198POPC   C3B31305   2.678  19.319   7.914
 2198POPC   C4B31306   2.360  19.271   7.580
 2199POPC   NC331307  43.468  38.560   9.514
 2199POPC   PO431308  44.077  38.394   9.703
 2199POPC   GL131309  43.950  38.606   9.274
 2199POPC   GL231310  43.645  38.730   9.065
 2199POPC   C1A31311  43.991  38.386   8.877
 2199POPC   D2A31312  44.144  38.392   8.460
 2199POPC   C3A31313  43.871  38.396   8.137
 2199POPC   C4A31314  43.968  38.371   7.737
 2199POPC   C1B31315  43.743  38.775   8.619
 2199POPC   C2B31316  43.512  38.758   8.225
 2199POPC   C3B31317  43.554  38.788   7.758
 2199POPC   C4B31318  43.492  38.965   7.313
 2200POPC   NC331319  20.457  43.623   9.480
 2200POPC   PO431320  20.575  44.265   9.660
 2200POPC   GL131321  20.670  44.049   9.251
 2200POPC   GL231322  20.944  43.833   9.282
 2200POPC   C1A31323  20.612  44.102   8.777
 2200POPC   D2A31324  20.823  44.064   8.380
 2200POPC   C3A31325  20.599  44.066   7.988
 2200POPC   C4A31326  20.737  44.010   7.568
 2200POPC   C1B31327  20.960  43.758   8.823
 2200POPC   C2B31328  20.947  43.566   8.386
 2200POPC   C3B31329  20.843  43.610   7.964
 2200POPC   C4B31330  20.481  43.573   7.711
 2201POPC   NC331331  11.848  44.352   9.335
 2201POPC   PO431332  11.810   0.028   9.482
 2201POPC   GL131333  11.986  44.836   9.094
 2201POPC   GL231334  12.257  44.607   9.141
 2201POPC   C1A31335  11.928  44.578   8.707
 2201POPC   D2A31336  11.688  44.552   8.293
 2201POPC   C3A31337  11.758  44.918   8.030
 2201POPC   C4A31338  12.098   0.007   7.739
 2201POPC   C1B31339  12.474  44.471   8.778
 2201POPC   C2B31340  12.266  44.355   8.366
 2201POPC   C3B31341  12.187  44.543   7.975
 2201POPC   C4B31342  12.455  44.647   7.631
 2202POPC   NC331343  19.807  32.934   9.566
 2202POPC   PO431344  20.490  33.049   9.486
 2202POPC   GL131345  20.126  33.073   9.171
 2202POPC   GL231346  19.927  32.735   9.112
 2202POPC   C1A31347  20.012  33.309   8.780
 2202POPC   D2A31348  20.109  33.364   8.325
 2202POPC   C3A31349  19.801  33.303   7.980
 2202POPC   C4A31350  19.570  32.899   7.825
 2202POPC   C1B31351  20.079  32.826   8.707
 2202POPC   C2B31352  19.903  32.858   8.292
 2202POPC   C3B31353  20.099  32.914   7.892
 2202POPC   C4B31354  19.969  32.827   7.476
 2203POPC   NC331355   0.040  20.834   9.524
 2203POPC   PO431356   0.552  20.408   9.329
 2203POPC   GL131357   0.444  20.802   9.113
 2203POPC   GL231358   0.072  20.673   9.046
 2203POPC   C1A31359   0.728  20.906   8.711
 2203POPC   D2A31360   0.783  20.546   8.376
 2203POPC   C3A31361   0.649  20.635   7.948
 2203POPC   C4A31362   0.511  20.969   7.702
 2203POPC   C1B31363   0.298  20.645   8.660
 2203POPC   C2B31364   0.372  20.875   8.309
 2203POPC   C3B31365   0.132  20.673   7.986
 2203POPC   C4B31366   0.220  20.574   7.578
 2204POPC   NC331367  44.035  31.497   9.808
 2204POPC   PO431368  43.498  31.385   9.562
 2204POPC   GL131369  43.804  31.637   9.279
 2204POPC   GL231370  43.548  31.634   9.062
 2204POPC   C1A31371  43.962  31.875   8.868
 2204POPC   D2A31372  44.003  31.773   8.410
 2204POPC   C3A31373  44.022  31.927   7.965
 2204POPC   C4A31374  43.973  31.732   7.594
 2204POPC   C1B31375  43.794  31.418   8.749
 2204POPC   C2B31376  43.817  31.292   8.305
 2204POPC   C3B31377  43.690  31.531   7.963
 2204POPC   C4B31378  43.514  31.490   7.539
 2205POPC   NC331379  14.613   3.802   9.464
 2205POPC   PO431380  14.764   3.102   9.469
 2205POPC   GL131381  14.718   3.403   9.102
 2205POPC   GL231382  14.365   3.576   9.077
 2205POPC   C1A31383  14.631   3.501   8.666
 2205POPC   D2A31384  14.269   3.700   8.477
 2205POPC   C3A31385  14.259   3.768   8.047
 2205POPC   C4A31386  14.543   3.697   7.741
 2205POPC   C1B31387  14.177   3.286   8.795
 2205POPC   C2B31388  14.333   3.146   8.380
 2205POPC   C3B31389  14.348   3.257   7.946
 2205POPC   C4B31390  14.261   3.352   7.500
 2206POPC   NC331391  34.760  24.543   9.543
 2206POPC   PO431392  34.099  24.872   9.494
 2206POPC   GL131393  34.472  24.690   9.163
 2206POPC   GL231394  34.645  24.309   9.120
 2206POPC   C1A31395  34.685  24.659   8.744
 2206POPC   D2A31396  34.498  24.584   8.311
 2206POPC   C3A31397  34.650  24.578   7.855
 2206POPC   C4A31398  34.625  24.745   7.390
 2206POPC   C1B31399  34.341  24.294   8.810
 2206POPC   C2B31400  34.203  24.141   8.415
 2206POPC   C3B31401  34.365  24.143   8.015
 2206POPC   C4B31402  34.437  24.178   7.610
 2207POPC   NC331403   9.062  21.137   9.551
 2207POPC   PO431404   9.100  21.837   9.622
 2207POPC   GL131405   8.915  21.536   9.209
 2207POPC   GL231406   8.885  21.148   9.093
 2207POPC   C1A31407   8.939  21.440   8.707
 2207POPC   D2A31408   9.056  21.532   8.301
 2207POPC   C3A31409   8.994  21.237   7.978
 2207POPC   C4A31410   9.036  21.445   7.628
 2207POPC   C1B31411   9.224  20.998   8.831
 2207POPC   C2B31412   9.244  21.031   8.399
 2207POPC   C3B31413   9.326  20.844   8.001
 2207POPC   C4B31414   9.324  20.888   7.572
 2208POPC   NC331415  15.353   7.255   9.426
 2208POPC   PO431416  14.893   7.796   9.488
 2208POPC   GL131417  14.980   7.502   9.164
 2208POPC   GL231418  15.304   7.586   9.032
 2208POPC   C1A31419  15.022   7.233   8.795
 2208POPC   D2A31420  15.281   7.193   8.428
 2208POPC   C3A31421  15.100   7.278   8.027
 2208POPC   C4A31422  14.923   7.127   7.653
 2208POPC   C1B31423  15.523   7.617   8.644
 2208POPC   C2B31424  15.745   7.767   8.283
 2208POPC   C3B31425  15.569   7.834   7.889
 2208POPC   C4B31426  15.357   7.508   7.614
 2209POPC   NC331427  13.593   7.527   9.780
 2209POPC   PO431428  13.985   7.498   9.194
 2209POPC   GL131429  13.647   7.558   8.948
 2209POPC   GL231430  13.307   7.499   9.079
 2209POPC   C1A31431  13.724   7.419   8.554
 2209POPC   D2A31432  14.053   7.649   8.368
 2209POPC   C3A31433  13.874   7.635   8.006
 2209POPC   C4A31434  13.863   7.276   7.733
 2209POPC   C1B31435  13.245   7.586   8.642
 2209POPC   C2B31436  13.236   7.360   8.266
 2209POPC   C3B31437  13.386   7.410   7.845
 2209POPC   C4B31438  13.522   7.517   7.400
 2210POPC   NC331439  37.306  23.514   9.646
 2210POPC   PO431440  37.920  23.311   9.375
 2210POPC   GL131441  37.703  23.621   9.087
 2210POPC   GL231442  37.352  23.727   9.096
 2210POPC   C1A31443  37.575  23.498   8.665
 2210POPC   D2A31444  37.420  23.534   8.256
 2210POPC   C3A31445  37.731  23.775   8.072
 2210POPC   C4A31446  37.786  23.906   7.663
 2210POPC   C1B31447  37.125  23.765   8.679
 2210POPC   C2B31448  37.184  24.012   8.291
 2210POPC   C3B31449  37.323  23.976   7.877
 2210POPC   C4B31450  37.382  23.554   7.717
 2211POPC   NC331451  39.540   1.919   9.435
 2211POPC   PO431452  39.742   2.537   9.456
 2211POPC   GL131453  39.469   2.315   9.133
 2211POPC   GL231454  39.147   2.108   9.199
 2211POPC   C1A31455  39.310   2.283   8.737
 2211POPC   D2A31456  39.401   2.316   8.324
 2211POPC   C3A31457  39.141   2.198   8.021
 2211POPC   C4A31458  39.047   2.274   7.628
 2211POPC   C1B31459  39.140   1.832   8.845
 2211POPC   C2B31460  39.257   1.802   8.374
 2211POPC   C3B31461  39.326   1.750   7.888
 2211POPC   C4B31462  39.111   1.819   7.436
 2212POPC   NC331463  26.943  11.009   9.511
 2212POPC   PO431464  26.540  10.511   9.696
 2212POPC   GL131465  26.630  10.540   9.163
 2212POPC   GL231466  26.827  10.793   9.067
 2212POPC   C1A31467  26.840  10.451   8.692
 2212POPC   D2A31468  27.068  10.547   8.288
 2212POPC   C3A31469  26.929  10.401   7.900
 2212POPC   C4A31470  26.520  10.433   7.691
 2212POPC   C1B31471  26.510  10.822   8.741
 2212POPC   C2B31472  26.521  10.693   8.315
 2212POPC   C3B31473  26.680  10.839   7.951
 2212POPC   C4B31474  27.036  10.832   7.655
 2213POPC   NC331475   5.895   9.835   9.614
 2213POPC   PO431476   6.307   9.378   9.299
 2213POPC   GL131477   5.961   9.598   9.066
 2213POPC   GL231478   5.634   9.578   9.146
 2213POPC   C1A31479   5.864   9.738   8.663
 2213POPC   D2A31480   6.196   9.778   8.364
 2213POPC   C3A31481   6.062   9.856   7.963
 2213POPC   C4A31482   5.968   9.553   7.664
 2213POPC   C1B31483   5.552   9.342   8.766
 2213POPC   C2B31484   5.393   9.408   8.344
 2213POPC   C3B31485   5.623   9.630   8.071
 2213POPC   C4B31486   5.542   9.791   7.677
 2214POPC   NC331487  17.886  40.918   9.593
 2214POPC   PO431488  17.186  40.871   9.405
 2214POPC   GL131489  17.548  40.876   9.176
 2214POPC   GL231490  17.510  40.528   9.095
 2214POPC   C1A31491  17.556  40.912   8.732
 2214POPC   D2A31492  17.342  40.878   8.316
 2214POPC   C3A31493  17.604  40.868   7.960
 2214POPC   C4A31494  17.740  41.218   7.770
 2214POPC   C1B31495  17.320  40.460   8.662
 2214POPC   C2B31496  17.534  40.398   8.238
 2214POPC   C3B31497  17.580  40.388   7.772
 2214POPC   C4B31498  17.423  40.568   7.332
 2215POPC   NC331499  16.741  42.937   9.242
 2215POPC   PO431500  17.036  43.547   9.355
 2215POPC   GL131501  16.774  43.523   8.990
 2215POPC   GL231502  16.391  43.473   8.923
 2215POPC   C1A31503  16.792  43.243   8.664
 2215POPC   D2A31504  16.579  43.190   8.326
 2215POPC   C3A31505  16.811  43.338   8.042
 2215POPC   C4A31506  16.993  43.048   7.821
 2215POPC   C1B31507  16.301  43.040   8.733
 2215POPC   C2B31508  16.328  42.696   8.423
 2215POPC   C3B31509  16.444  42.795   8.014
 2215POPC   C4B31510  16.496  43.115   7.707
 2216POPC   NC331511  11.816  18.059   9.608
 2216POPC   PO431512  12.450  18.402   9.414
 2216POPC   GL131513  12.133  18.367   9.157
 2216POPC   GL231514  12.051  18.016   9.172
 2216POPC   C1A31515  12.215  18.431   8.738
 2216POPC   D2A31516  12.373  18.624   8.382
 2216POPC   C3A31517  12.192  18.423   8.052
 2216POPC   C4A31518  11.985  18.538   7.720
 2216POPC   C1B31519  11.801  18.117   8.834
 2216POPC   C2B31520  11.920  18.144   8.419
 2216POPC   C3B31521  11.765  18.135   8.052
 2216POPC   C4B31522  11.963  17.998   7.720
 2217POPC   NC331523  27.036  13.358  10.071
 2217POPC   PO431524  26.664  13.015   9.591
 2217POPC   GL131525  26.689  12.812   9.192
 2217POPC   GL231526  27.012  12.861   9.124
 2217POPC   C1A31527  26.545  12.651   8.849
 2217POPC   D2A31528  26.708  12.823   8.474
 2217POPC   C3A31529  26.564  12.640   8.122
 2217POPC   C4A31530  26.805  12.576   7.799
 2217POPC   C1B31531  26.962  13.150   8.797
 2217POPC   C2B31532  27.138  13.133   8.400
 2217POPC   C3B31533  27.000  12.985   8.047
 2217POPC   C4B31534  26.898  13.083   7.664
 2218POPC   NC331535   3.385  38.760   9.451
 2218POPC   PO431536   3.533  38.218   9.286
 2218POPC   GL131537   3.592  38.492   9.017
 2218POPC   GL231538   3.278  38.606   8.970
 2218POPC   C1A31539   3.570  38.419   8.599
 2218POPC   D2A31540   3.774  38.738   8.408
 2218POPC   C3A31541   3.846  38.630   7.977
 2218POPC   C4A31542   3.561  38.447   7.658
 2218POPC   C1B31543   3.271  38.829   8.558
 2218POPC   C2B31544   3.347  38.599   8.163
 2218POPC   C3B31545   3.129  38.327   7.893
 2218POPC   C4B31546   3.093  38.616   7.593
 2219POPC   NC331547  34.884  38.701   9.479
 2219POPC   PO431548  35.520  38.639   9.505
 2219POPC   GL131549  35.328  38.725   9.130
 2219POPC   GL231550  35.491  38.405   9.023
 2219POPC   C1A31551  35.109  38.613   8.740
 2219POPC   D2A31552  35.340  38.473   8.396
 2219POPC   C3A31553  35.214  38.657   8.025
 2219POPC   C4A31554  35.189  38.511   7.613
 2219POPC   C1B31555  35.251  38.106   8.803
 2219POPC   C2B31556  35.122  38.002   8.393
 2219POPC   C3B31557  35.214  38.141   8.004
 2219POPC   C4B31558  35.601  38.305   7.862
 2220POPC   NC331559  12.755  14.060   9.479
 2220POPC   PO431560  13.007  14.638   9.560
 2220POPC   GL131561  12.890  14.472   9.161
 2220POPC   GL231562  12.944  14.138   9.020
 2220POPC   C1A31563  12.812  14.681   8.797
 2220POPC   D2A31564  12.895  14.483   8.446
 2220POPC   C3A31565  12.629  14.614   8.142
 2220POPC   C4A31566  12.700  14.576   7.730
 2220POPC   C1B31567  12.596  14.211   8.763
 2220POPC   C2B31568  12.482  14.141   8.341
 2220POPC   C3B31569  12.808  14.127   8.034
 2220POPC   C4B31570  12.918  13.841   7.714
 2221POPC   NC331571  34.419  28.594   9.404
 2221POPC   PO431572  34.645  28.057   9.739
 2221POPC   GL131573  34.479  28.107   9.302
 2221POPC   GL231574  34.690  28.307   9.093
 2221POPC   C1A31575  34.252  28.102   8.881
 2221POPC   D2A31576  34.388  28.086   8.454
 2221POPC   C3A31577  34.630  28.370   8.205
 2221POPC   C4A31578  34.540  28.400   7.772
 2221POPC   C1B31579  34.480  28.524   8.738
 2221POPC   C2B31580  34.221  28.612   8.368
 2221POPC   C3B31581  34.284  28.790   7.965
 2221POPC   C4B31582  34.318  28.721   7.470
 2222POPC   NC331583  23.665  20.883   9.796
 2222POPC   PO431584  23.578  20.436   9.277
 2222POPC   GL131585  23.821  20.578   9.017
 2222POPC   GL231586  23.569  20.774   8.900
 2222POPC   C1A31587  23.814  20.383   8.622
 2222POPC   D2A31588  23.605  20.114   8.360
 2222POPC   C3A31589  23.732  20.201   7.979
 2222POPC   C4A31590  23.950  20.561   7.784
 2222POPC   C1B31591  23.763  20.885   8.590
 2222POPC   C2B31592  23.400  20.811   8.403
 2222POPC   C3B31593  23.345  20.534   8.135
 2222POPC   C4B31594  23.405  20.682   7.761
 2223POPC   NC331595  29.089  10.420   9.572
 2223POPC   PO431596  29.087  10.923   9.323
 2223POPC   GL131597  29.067  10.524   9.057
 2223POPC   GL231598  28.870  10.215   9.141
 2223POPC   C1A31599  29.079  10.352   8.621
 2223POPC   D2A31600  28.934  10.101   8.264
 2223POPC   C3A31601  29.029  10.361   7.865
 2223POPC   C4A31602  29.245  10.557   7.488
 2223POPC   C1B31603  29.209   9.973   8.924
 2223POPC   C2B31604  29.441   9.985   8.500
 2223POPC   C3B31605  29.377   9.990   8.035
 2223POPC   C4B31606  29.360  10.071   7.575
 2224POPC   NC331607  37.483   3.019   9.836
 2224POPC   PO431608  38.050   2.931   9.666
 2224POPC   GL131609  38.076   2.796   9.220
 2224POPC   GL231610  37.992   2.454   9.218
 2224POPC   C1A31611  37.925   2.910   8.784
 2224POPC   D2A31612  37.762   2.729   8.380
 2224POPC   C3A31613  37.716   2.968   7.978
 2224POPC   C4A31614  38.016   3.128   7.714
 2224POPC   C1B31615  37.920   2.405   8.768
 2224POPC   C2B31616  37.908   2.232   8.338
 2224POPC   C3B31617  37.830   2.462   7.938
 2224POPC   C4B31618  37.900   2.648   7.540
 2225POPC   NC331619   0.745  37.594   9.483
 2225POPC   PO431620   0.351  38.020   9.607
 2225POPC   GL131621   0.410  37.766   9.165
 2225POPC   GL231622   0.699  37.896   9.060
 2225POPC   C1A31623   0.426  37.558   8.747
 2225POPC   D2A31624   0.451  37.758   8.348
 2225POPC   C3A31625   0.336  37.609   7.938
 2225POPC   C4A31626   0.621  37.800   7.653
 2225POPC   C1B31627   0.959  37.603   8.829
 2225POPC   C2B31628   0.885  37.312   8.500
 2225POPC   C3B31629   0.777  37.370   8.066
 2225POPC   C4B31630   1.023  37.509   7.731
 2226POPC   NC331631  27.264  43.073   9.625
 2226POPC   PO431632  27.898  42.907   9.617
 2226POPC   GL131633  27.890  42.856   9.174
 2226POPC   GL231634  27.550  42.973   9.169
 2226POPC   C1A31635  27.880  43.063   8.740
 2226POPC   D2A31636  27.671  42.967   8.339
 2226POPC   C3A31637  27.805  43.061   7.944
 2226POPC   C4A31638  27.472  42.937   7.670
 2226POPC   C1B31639  27.468  43.324   8.895
 2226POPC   C2B31640  27.419  43.398   8.485
 2226POPC   C3B31641  27.284  43.213   8.086
 2226POPC   C4B31642  27.220  43.399   7.679
 2227POPC   NC331643  37.196   6.303   9.529
 2227POPC   PO431644  36.648   5.914   9.558
 2227POPC   GL131645  36.815   5.917   9.154
 2227POPC   GL231646  37.182   5.946   9.146
 2227POPC   C1A31647  36.931   5.882   8.721
 2227POPC   D2A31648  36.800   5.914   8.316
 2227POPC   C3A31649  36.888   5.534   8.084
 2227POPC   C4A31650  36.821   5.474   7.643
 2227POPC   C1B31651  37.235   6.295   8.837
 2227POPC   C2B31652  37.338   6.342   8.388
 2227POPC   C3B31653  37.309   6.156   7.973
 2227POPC   C4B31654  36.946   5.954   7.808
 2228POPC   NC331655  42.687  35.160   9.366
 2228POPC   PO431656  43.223  35.624   9.464
 2228POPC   GL131657  43.040  35.451   9.134
 2228POPC   GL231658  42.804  35.693   9.062
 2228POPC   C1A31659  43.043  35.174   8.752
 2228POPC   D2A31660  43.303  35.169   8.387
 2228POPC   C3A31661  43.083  35.203   8.004
 2228POPC   C4A31662  43.275  35.189   7.631
 2228POPC   C1B31663  43.032  35.663   8.688
 2228POPC   C2B31664  42.820  35.454   8.370
 2228POPC   C3B31665  42.730  35.626   7.983
 2228POPC   C4B31666  43.106  35.671   7.749
 2229POPC   NC331667  39.659  30.018   9.481
 2229POPC   PO431668  40.220  29.709   9.367
 2229POPC   GL131669  40.008  29.990   9.067
 2229POPC   GL231670  39.720  30.201   9.018
 2229POPC   C1A31671  39.982  29.988   8.631
 2229POPC   D2A31672  40.162  29.900   8.261
 2229POPC   C3A31673  39.889  29.717   7.997
 2229POPC   C4A31674  40.037  29.768   7.596
 2229POPC   C1B31675  39.487  30.329   8.704
 2229POPC   C2B31676  39.520  30.157   8.330
 2229POPC   C3B31677  39.763  30.228   8.020
 2229POPC   C4B31678  39.647  30.068   7.683
 2230POPC   NC331679  29.722  35.433   9.427
 2230POPC   PO431680  30.290  35.047   9.561
 2230POPC   GL131681  30.108  35.146   9.173
 2230POPC   GL231682  30.188  35.506   9.147
 2230POPC   C1A31683  30.029  35.063   8.728
 2230POPC   D2A31684  30.084  35.242   8.343
 2230POPC   C3A31685  29.732  35.360   8.147
 2230POPC   C4A31686  29.686  35.325   7.724
 2230POPC   C1B31687  30.024  35.587   8.738
 2230POPC   C2B31688  30.115  35.744   8.323
 2230POPC   C3B31689  30.117  35.574   7.902
 2230POPC   C4B31690  30.096  35.821   7.571
 2231POPC   NC331691  15.412   4.000   9.350
 2231POPC   PO431692  15.462   4.503   9.781
 2231POPC   GL131693  15.159   4.446   9.321
 2231POPC   GL231694  14.975   4.147   9.134
 2231POPC   C1A31695  15.087   4.590   8.874
 2231POPC   D2A31696  14.940   4.496   8.441
 2231POPC   C3A31697  15.201   4.550   8.061
 2231POPC   C4A31698  14.984   4.252   7.840
 2231POPC   C1B31699  15.219   4.118   8.722
 2231POPC   C2B31700  15.181   4.079   8.282
 2231POPC   C3B31701  15.407   3.984   7.945
 2231POPC   C4B31702  15.366   4.031   7.561
 2232POPC   NC331703  39.789  39.704   9.574
 2232POPC   PO431704  40.207  40.155   9.407
 2232POPC   GL131705  39.999  39.947   9.138
 2232POPC   GL231706  39.642  39.813   9.116
 2232POPC   C1A31707  39.963  39.803   8.734
 2232POPC   D2A31708  39.910  40.079   8.427
 2232POPC   C3A31709  40.036  40.037   8.046
 2232POPC   C4A31710  39.840  39.988   7.671
 2232POPC   C1B31711  39.677  40.216   8.878
 2232POPC   C2B31712  39.481  40.343   8.486
 2232POPC   C3B31713  39.516  40.168   8.050
 2232POPC   C4B31714  39.426  40.304   7.629
 2233POPC   NC331715  35.192   8.030   9.430
 2233POPC   PO431716  35.813   8.187   9.395
 2233POPC   GL131717  35.655   8.245   9.031
 2233POPC   GL231718  35.470   7.954   9.023
 2233POPC   C1A31719  35.636   8.165   8.601
 2233POPC   D2A31720  35.669   8.510   8.338
 2233POPC   C3A31721  35.644   8.400   7.938
 2233POPC   C4A31722  35.497   8.515   7.546
 2233POPC   C1B31723  35.142   8.102   8.713
 2233POPC   C2B31724  35.273   8.098   8.252
 2233POPC   C3B31725  35.148   8.270   7.855
 2233POPC   C4B31726  34.944   8.041   7.557
 2234POPC   NC331727  43.038  24.968   9.110
 2234POPC   PO431728  43.014  25.567   9.426
 2234POPC   GL131729  43.339  25.404   9.113
 2234POPC   GL231730  43.043  25.443   8.931
 2234POPC   C1A31731  43.472  25.152   8.709
 2234POPC   D2A31732  43.094  24.970   8.536
 2234POPC   C3A31733  43.011  25.193   8.148
 2234POPC   C4A31734  43.204  25.302   7.752
 2234POPC   C1B31735  43.080  25.520   8.544
 2234POPC   C2B31736  42.747  25.613   8.272
 2234POPC   C3B31737  42.781  25.627   7.841
 2234POPC   C4B31738  42.648  25.341   7.526
 2235POPC   NC331739  30.161  33.017   9.525
 2235POPC   PO431740  29.437  32.797   9.593
 2235POPC   GL131741  29.711  32.931   9.286
 2235POPC   GL231742  29.874  32.646   9.138
 2235POPC   C1A31743  29.942  33.135   8.919
 2235POPC   D2A31744  29.838  33.221   8.486
 2235POPC   C3A31745  29.913  33.103   8.066
 2235POPC   C4A31746  29.946  32.764   7.758
 2235POPC   C1B31747  29.553  32.832   8.823
 2235POPC   C2B31748  29.424  32.915   8.421
 2235POPC   C3B31749  29.501  32.793   8.031
 2235POPC   C4B31750  29.346  32.866   7.656
 2236POPC   NC331751   7.682   3.676   9.449
 2236POPC   PO431752   7.584   4.392   9.518
 2236POPC   GL131753   7.751   4.432   9.119
 2236POPC   GL231754   7.765   4.069   9.033
 2236POPC   C1A31755   7.651   4.515   8.690
 2236POPC   D2A31756   7.639   4.283   8.299
 2236POPC   C3A31757   7.561   4.492   7.900
 2236POPC   C4A31758   7.321   4.450   7.505
 2236POPC   C1B31759   7.436   4.051   8.743
 2236POPC   C2B31760   7.338   3.857   8.342
 2236POPC   C3B31761   7.307   4.009   7.929
 2236POPC   C4B31762   7.616   4.028   7.659
 2237POPC   NC331763  18.344  40.362   9.309
 2237POPC   PO431764  18.146  39.803   9.635
 2237POPC   GL131765  18.341  39.868   9.186
 2237POPC   GL231766  18.192  40.109   8.921
 2237POPC   C1A31767  18.443  39.753   8.704
 2237POPC   D2A31768  18.273  40.050   8.383
 2237POPC   C3A31769  18.328  39.899   7.996
 2237POPC   C4A31770  18.104  39.696   7.744
 2237POPC   C1B31771  18.592  40.250   8.710
 2237POPC   C2B31772  18.596  40.559   8.406
 2237POPC   C3B31773  18.501  40.375   8.017
 2237POPC   C4B31774  18.572  40.254   7.586
 2238POPC   NC331775   3.289  13.759   9.471
 2238POPC   PO431776   3.834  13.371   9.481
 2238POPC   GL131777   3.557  13.442   9.148
 2238POPC   GL231778   3.672  13.786   9.121
 2238POPC   C1A31779   3.552  13.400   8.701
 2238POPC   D2A31780   3.846  13.566   8.378
 2238POPC   C3A31781   3.731  13.533   7.960
 2238POPC   C4A31782   3.859  13.770   7.625
 2238POPC   C1B31783   3.458  13.921   8.738
 2238POPC   C2B31784   3.369  13.767   8.328
 2238POPC   C3B31785   3.137  13.724   7.938
 2238POPC   C4B31786   3.315  13.838   7.500
 2239POPC   NC331787  42.660  25.273   9.571
 2239POPC   PO431788  42.319  24.888   9.192
 2239POPC   GL131789  42.585  25.168   9.061
 2239POPC   GL231790  42.526  25.492   9.096
 2239POPC   C1A31791  42.649  25.255   8.646
 2239POPC   D2A31792  42.337  25.220   8.367
 2239POPC   C3A31793  42.486  25.216   7.986
 2239POPC   C4A31794  42.272  25.006   7.649
 2239POPC   C1B31795  42.273  25.621   8.686
 2239POPC   C2B31796  42.246  25.705   8.205
 2239POPC   C3B31797  42.270  25.654   7.733
 2239POPC   C4B31798  42.256  25.560   7.264
 2240POPC   NC331799  28.159  41.607   9.660
 2240POPC   PO431800  28.602  41.153   9.417
 2240POPC   GL131801  28.316  41.368   9.205
 2240POPC   GL231802  28.372  41.680   9.133
 2240POPC   C1A31803  28.378  41.367   8.731
 2240POPC   D2A31804  28.563  41.318   8.361
 2240POPC   C3A31805  28.334  41.192   8.006
 2240POPC   C4A31806  28.453  41.342   7.604
 2240POPC   C1B31807  28.253  41.843   8.717
 2240POPC   C2B31808  28.189  41.675   8.328
 2240POPC   C3B31809  28.470  41.706   7.995
 2240POPC   C4B31810  28.480  41.931   7.627
 2241POPC   NC331811  19.970  41.652   9.378
 2241POPC   PO431812  19.763  41.111   9.638
 2241POPC   GL131813  19.688  41.271   9.158
 2241POPC   GL231814  19.952  41.343   8.928
 2241POPC   C1A31815  19.543  41.558   8.772
 2241POPC   D2A31816  19.590  41.465   8.326
 2241POPC   C3A31817  19.696  41.721   7.955
 2241POPC   C4A31818  19.892  41.513   7.589
 2241POPC   C1B31819  20.165  41.643   8.734
 2241POPC   C2B31820  20.147  41.804   8.344
 2241POPC   C3B31821  20.210  41.725   7.931
 2241POPC   C4B31822  20.239  41.919   7.540
 2242POPC   NC331823  42.735  32.976   9.647
 2242POPC   PO431824  43.312  33.102   9.371
 2242POPC   GL131825  43.170  32.890   9.070
 2242POPC   GL231826  43.052  33.107   8.838
 2242POPC   C1A31827  43.293  32.643   8.748
 2242POPC   D2A31828  43.114  32.881   8.394
 2242POPC   C3A31829  43.238  32.769   8.057
 2242POPC   C4A31830  43.231  32.698   7.669
 2242POPC   C1B31831  42.654  33.155   8.689
 2242POPC   C2B31832  42.381  33.170   8.364
 2242POPC   C3B31833  42.544  33.264   7.989
 2242POPC   C4B31834  42.887  33.053   7.843
 2243POPC   NC331835   1.060   9.177   9.587
 2243POPC   PO431836   1.488   8.661   9.486
 2243POPC   GL131837   1.266   8.933   9.190
 2243POPC   GL231838   1.361   9.314   9.177
 2243POPC   C1A31839   0.957   8.905   8.873
 2243POPC   D2A31840   1.226   8.986   8.525
 2243POPC   C3A31841   1.133   8.846   8.118
 2243POPC   C4A31842   0.839   8.922   7.823
 2243POPC   C1B31843   1.057   9.421   8.849
 2243POPC   C2B31844   1.091   9.484   8.426
 2243POPC   C3B31845   1.351   9.302   8.134
 2243POPC   C4B31846   1.329   9.120   7.724
 2244POPC   NC331847   0.663  25.524   9.606
 2244POPC   PO431848   1.271  25.745   9.580
 2244POPC   GL131849   0.957  25.595   9.206
 2244POPC   GL231850   0.903  25.219   9.244
 2244POPC   C1A31851   0.750  25.407   8.809
 2244POPC   D2A31852   1.014  25.286   8.462
 2244POPC   C3A31853   0.898  25.283   8.049
 2244POPC   C4A31854   1.060  25.167   7.666
 2244POPC   C1B31855   1.049  24.968   8.865
 2244POPC   C2B31856   1.310  24.869   8.476
 2244POPC   C3B31857   1.377  25.027   8.045
 2244POPC   C4B31858   1.579  25.223   7.657
 2245POPC   NC331859  24.919  14.490   9.512
 2245POPC   PO431860  25.545  14.490   9.438
 2245POPC   GL131861  25.285  14.583   9.163
 2245POPC   GL231862  25.162  14.269   9.106
 2245POPC   C1A31863  25.193  14.691   8.776
 2245POPC   D2A31864  25.117  14.606   8.383
 2245POPC   C3A31865  25.432  14.544   8.081
 2245POPC   C4A31866  25.559  14.476   7.631
 2245POPC   C1B31867  25.040  14.195   8.687
 2245POPC   C2B31868  25.073  14.129   8.238
 2245POPC   C3B31869  25.034  14.254   7.809
 2245POPC   C4B31870  24.863  14.054   7.410
 2246POPC   NC331871   8.613  44.785   9.634
 2246POPC   PO431872   9.252  44.780   9.619
 2246POPC   GL131873   9.152  44.742   9.187
 2246POPC   GL231874   9.365  44.436   9.135
 2246POPC   C1A31875   8.921  44.925   8.816
 2246POPC   D2A31876   8.816   0.121   8.395
 2246POPC   C3A31877   8.909  44.870   7.998
 2246POPC   C4A31878   8.861  44.405   7.823
 2246POPC   C1B31879   9.088  44.416   8.775
 2246POPC   C2B31880   8.940  44.468   8.347
 2246POPC   C3B31881   9.293  44.511   8.053
 2246POPC   C4B31882   9.317  44.607   7.641
 2247POPC   NC331883  44.384  32.269   9.520
 2247POPC   PO431884   0.012  32.196   9.369
 2247POPC   GL131885  44.615  32.107   9.100
 2247POPC   GL231886  44.399  32.404   9.033
 2247POPC   C1A31887  44.438  32.020   8.682
 2247POPC   D2A31888  44.657  32.208   8.329
 2247POPC   C3A31889  44.727  32.032   7.923
 2247POPC   C4A31890  44.742  32.289   7.560
 2247POPC   C1B31891  44.266  32.507   8.642
 2247POPC   C2B31892  44.154  32.266   8.311
 2247POPC   C3B31893  44.330  32.354   7.904
 2247POPC   C4B31894  44.532  32.741   7.711
 2248POPC   NC331895   0.585  40.558   9.491
 2248POPC   PO431896   0.637  41.267   9.449
 2248POPC   GL131897   0.348  40.929   9.205
 2248POPC   GL231898   0.282  40.510   9.099
 2248POPC   C1A31899   0.469  40.881   8.787
 2248POPC   D2A31900   0.438  41.000   8.402
 2248POPC   C3A31901   0.656  40.924   8.037
 2248POPC   C4A31902   0.376  40.865   7.702
 2248POPC   C1B31903   0.637  40.414   8.841
 2248POPC   C2B31904   0.690  40.540   8.406
 2248POPC   C3B31905   0.409  40.473   8.080
 2248POPC   C4B31906   0.300  40.335   7.709
 2249POPC   NC331907  16.548  35.945   9.398
 2249POPC   PO431908  16.031  36.347   9.511
 2249POPC   GL131909  15.950  36.187   9.101
 2249POPC   GL231910  16.195  35.956   8.978
 2249POPC   C1A31911  15.898  36.288   8.688
 2249POPC   D2A31912  16.114  36.146   8.348
 2249POPC   C3A31913  15.876  36.165   8.007
 2249POPC   C4A31914  15.950  36.312   7.650
 2249POPC   C1B31915  15.783  35.822   8.750
 2249POPC   C2B31916  15.628  35.906   8.363
 2249POPC   C3B31917  15.680  35.713   7.946
 2249POPC   C4B31918  15.693  35.875   7.544
 2250POPC   NC331919  43.308   0.472   9.323
 2250POPC   PO431920  42.806   0.770   9.535
 2250POPC   GL131921  42.910   0.714   9.127
 2250POPC   GL231922  42.746   0.408   9.119
 2250POPC   C1A31923  43.082   0.674   8.730
 2250POPC   D2A31924  43.286   0.705   8.352
 2250POPC   C3A31925  43.008   0.855   8.029
 2250POPC   C4A31926  42.767   0.627   7.767
 2250POPC   C1B31927  42.631   0.440   8.701
 2250POPC   C2B31928  42.811   0.458   8.311
 2250POPC   C3B31929  43.090   0.316   8.010
 2250POPC   C4B31930  43.301  44.956   7.867
 2251POPC   NC331931  17.110  26.882   9.645
 2251POPC   PO431932  17.804  26.883   9.577
 2251POPC   GL131933  17.502  26.765   9.309
 2251POPC   GL231934  17.374  27.087   9.252
 2251POPC   C1A31935  17.517  26.750   8.859
 2251POPC   D2A31936  17.240  26.827   8.485
 2251POPC   C3A31937  17.370  26.709   8.098
 2251POPC   C4A31938  17.699  26.843   7.837
 2251POPC   C1B31939  17.332  27.208   8.805
 2251POPC   C2B31940  17.253  27.328   8.326
 2251POPC   C3B31941  17.329  27.235   7.858
 2251POPC   C4B31942  17.174  27.343   7.390
 2252POPC   NC331943  37.434   6.991   9.434
 2252POPC   PO431944  36.847   6.640   9.511
 2252POPC   GL131945  37.094   6.707   9.164
 2252POPC   GL231946  37.042   7.059   9.100
 2252POPC   C1A31947  36.889   6.701   8.768
 2252POPC   D2A31948  36.806   6.379   8.514
 2252POPC   C3A31949  36.896   6.456   8.081
 2252POPC   C4A31950  36.642   6.351   7.743
 2252POPC   C1B31951  37.336   6.939   8.757
 2252POPC   C2B31952  37.354   6.864   8.318
 2252POPC   C3B31953  37.180   6.950   7.913
 2252POPC   C4B31954  36.977   6.702   7.589
 2253POPC   NC331955  41.857  36.950   9.608
 2253POPC   PO431956  42.483  36.811   9.386
 2253POPC   GL131957  42.297  36.884   9.033
 2253POPC   GL231958  42.204  37.191   9.172
 2253POPC   C1A31959  42.462  36.968   8.639
 2253POPC   D2A31960  42.755  36.862   8.316
 2253POPC   C3A31961  42.593  36.719   7.940
 2253POPC   C4A31962  42.716  36.790   7.506
 2253POPC   C1B31963  42.007  37.191   8.747
 2253POPC   C2B31964  42.081  37.124   8.336
 2253POPC   C3B31965  42.011  37.030   7.957
 2253POPC   C4B31966  42.286  36.991   7.653
 2254POPC   NC331967  27.815  25.115   9.421
 2254POPC   PO431968  28.524  25.323   9.413
 2254POPC   GL131969  28.222  25.241   9.097
 2254POPC   GL231970  27.898  25.456   9.051
 2254POPC   C1A31971  28.364  25.027   8.730
 2254POPC   D2A31972  28.532  25.182   8.364
 2254POPC   C3A31973  28.417  25.159   7.961
 2254POPC   C4A31974  28.384  25.606   7.939
 2254POPC   C1B31975  27.853  25.080   8.773
 2254POPC   C2B31976  28.002  25.081   8.369
 2254POPC   C3B31977  27.952  25.361   8.064
 2254POPC   C4B31978  27.974  25.128   7.706
 2255POPC   NC331979  16.488  43.717   9.372
 2255POPC   PO431980  16.880  44.242   9.573
 2255POPC   GL131981  16.672  44.170   9.186
 2255POPC   GL231982  16.970  44.119   9.008
 2255POPC   C1A31983  16.518  44.002   8.784
 2255POPC   D2A31984  16.650  43.695   8.481
 2255POPC   C3A31985  16.453  43.693   8.098
 2255POPC   C4A31986  16.490  43.617   7.703
 2255POPC   C1B31987  17.151  43.803   8.732
 2255POPC   C2B31988  17.156  43.659   8.306
 2255POPC   C3B31989  16.928  43.838   7.953
 2255POPC   C4B31990  16.593  44.134   7.790
 2256POPC   NC331991  36.701  10.723   9.538
 2256POPC   PO431992  36.832  10.061   9.438
 2256POPC   GL131993  36.898  10.435   9.167
 2256POPC   GL231994  36.541  10.590   9.083
 2256POPC   C1A31995  36.934  10.546   8.740
 2256POPC   D2A31996  37.165  10.646   8.394
 2256POPC   C3A31997  36.996  10.547   8.001
 2256POPC   C4A31998  36.888  10.427   7.594
 2256POPC   C1B31999  36.513  10.881   8.745
 2256POPC   C2B32000  36.693  10.827   8.300
 2256POPC   C3B32001  36.627  10.836   7.839
 2256POPC   C4B32002  36.583  11.024   7.448
 2257POPC   NC332003  22.844  29.957   9.618
 2257POPC   PO432004  23.382  30.286   9.280
 2257POPC   GL132005  23.088  29.892   9.168
 2257POPC   GL232006  22.708  29.726   9.188
 2257POPC   C1A32007  23.149  29.784   8.749
 2257POPC   D2A32008  23.363  29.702   8.346
 2257POPC   C3A32009  23.083  29.838   8.019
 2257POPC   C4A32010  22.828  30.107   7.775
 2257POPC   C1B32011  22.817  29.430   8.856
 2257POPC   C2B32012  22.886  29.505   8.410
 2257POPC   C3B32013  22.849  29.390   7.987
 2257POPC   C4B32014  22.818  29.640   7.574
 2258POPC   NC332015  40.194  21.472   9.563
 2258POPC   PO432016  40.032  22.001   9.763
 2258POPC   GL132017  39.824  21.557   9.285
 2258POPC   GL232018  40.037  21.332   9.112
 2258POPC   C1A32019  39.780  21.652   8.807
 2258POPC   D2A32020  40.063  21.759   8.463
 2258POPC   C3A32021  39.868  21.568   8.114
 2258POPC   C4A32022  39.888  21.522   7.669
 2258POPC   C1B32023  39.868  21.151   8.752
 2258POPC   C2B32024  39.779  21.096   8.331
 2258POPC   C3B32025  40.016  21.065   7.966
 2258POPC   C4B32026  40.036  21.050   7.561
 2259POPC   NC332027  14.670  16.803   9.596
 2259POPC   PO432028  15.054  16.359   9.491
 2259POPC   GL132029  14.978  16.728   9.170
 2259POPC   GL232030  14.901  17.118   9.224
 2259POPC   C1A32031  15.160  16.852   8.750
 2259POPC   D2A32032  15.340  17.066   8.357
 2259POPC   C3A32033  15.392  16.805   7.967
 2259POPC   C4A32034  15.546  16.382   7.767
 2259POPC   C1B32035  14.760  17.161   8.808
 2259POPC   C2B32036  14.827  16.990   8.386
 2259POPC   C3B32037  14.875  16.893   7.946
 2259POPC   C4B32038  14.999  17.134   7.572
 2260POPC   NC332039  13.772   7.863   9.372
 2260POPC   PO432040  13.529   8.502   9.252
 2260POPC   GL132041  13.716   8.225   9.000
 2260POPC   GL232042  13.429   8.015   9.018
 2260POPC   C1A32043  13.844   8.335   8.587
 2260POPC   D2A32044  13.792   8.109   8.216
 2260POPC   C3A32045  13.575   8.357   7.943
 2260POPC   C4A32046  13.771   8.670   7.735
 2260POPC   C1B32047  13.399   8.066   8.573
 2260POPC   C2B32048  13.365   7.850   8.167
 2260POPC   C3B32049  13.543   7.897   7.734
 2260POPC   C4B32050  13.968   7.753   7.527
 2261POPC   NC332051  19.921  35.474   9.428
 2261POPC   PO432052  20.219  34.876   9.642
 2261POPC   GL132053  20.091  35.056   9.205
 2261POPC   GL232054  19.734  35.181   9.034
 2261POPC   C1A32055  20.159  35.316   8.806
 2261POPC   D2A32056  19.890  35.372   8.427
 2261POPC   C3A32057  20.070  35.431   8.006
 2261POPC   C4A32058  20.005  35.196   7.628
 2261POPC   C1B32059  19.491  35.479   8.746
 2261POPC   C2B32060  19.349  35.584   8.336
 2261POPC   C3B32061  19.560  35.418   8.006
 2261POPC   C4B32062  19.664  35.610   7.654
 2262POPC   NC332063  44.376  44.302   9.427
 2262POPC   PO432064   0.023  44.484   9.469
 2262POPC   GL132065  44.720  44.519   9.110
 2262POPC   GL232066  44.563  44.831   9.047
 2262POPC   C1A32067  44.525  44.546   8.668
 2262POPC   D2A32068  44.398  44.825   8.374
 2262POPC   C3A32069  44.518  44.626   7.973
 2262POPC   C4A32070  44.886  44.422   7.808
 2262POPC   C1B32071  44.795  44.992   8.681
 2262POPC   C2B32072  44.873  44.939   8.238
 2262POPC   C3B32073  44.893   0.003   7.798
 2262POPC   C4B32074  44.745  44.773   7.471
 2263POPC   NC332075  12.053  35.538   9.520
 2263POPC   PO432076  12.134  34.888   9.430
 2263POPC   GL132077  12.059  35.225   9.115
 2263POPC   GL232078  11.812  35.510   9.055
 2263POPC   C1A32079  12.116  35.286   8.696
 2263POPC   D2A32080  12.359  35.200   8.351
 2263POPC   C3A32081  12.216  35.066   7.994
 2263POPC   C4A32082  12.232  35.247   7.636
 2263POPC   C1B32083  11.689  35.557   8.610
 2263POPC   C2B32084  11.956  35.516   8.225
 2263POPC   C3B32085  11.876  35.550   7.792
 2263POPC   C4B32086  11.647  35.455   7.419
 2264POPC   NC332087   0.656  39.562   9.430
 2264POPC   PO432088   0.536  38.977   9.687
 2264POPC   GL132089   0.397  38.863   9.232
 2264POPC   GL232090   0.358  39.224   9.175
 2264POPC   C1A32091   0.288  38.957   8.767
 2264POPC   D2A32092   0.259  39.187   8.367
 2264POPC   C3A32093   0.149  38.971   7.961
 2264POPC   C4A32094   0.067  39.027   7.463
 2264POPC   C1B32095   0.531  39.426   8.816
 2264POPC   C2B32096   0.554  39.659   8.453
 2264POPC   C3B32097   0.563  39.529   8.049
 2264POPC   C4B32098   0.381  39.339   7.710
 2265POPC   NC332099  44.512  13.800   9.551
 2265POPC   PO432100   0.146  13.904   9.326
 2265POPC   GL132101  44.792  13.638   9.138
 2265POPC   GL232102  44.747  13.316   9.265
 2265POPC   C1A32103  44.561  13.668   8.759
 2265POPC   D2A32104  44.442  13.821   8.400
 2265POPC   C3A32105  44.645  13.714   7.985
 2265POPC   C4A32106  44.625  13.893   7.554
 2265POPC   C1B32107  44.784  13.235   8.810
 2265POPC   C2B32108  44.699  13.366   8.354
 2265POPC   C3B32109  44.519  13.216   7.933
 2265POPC   C4B32110  44.611  13.362   7.496
 2266POPC   NC332111  24.981   9.996   9.456
 2266POPC   PO432112  25.501   9.555   9.374
 2266POPC   GL132113  25.317   9.491   8.977
 2266POPC   GL232114  24.993   9.613   9.034
 2266POPC   C1A32115  25.160   9.638   8.548
 2266POPC   D2A32116  24.896   9.725   8.226
 2266POPC   C3A32117  25.126   9.721   7.885
 2266POPC   C4A32118  25.534   9.698   7.848
 2266POPC   C1B32119  25.261  10.002   8.880
 2266POPC   C2B32120  25.513  10.176   8.540
 2266POPC   C3B32121  25.405  10.133   8.110
 2266POPC   C4B32122  25.065  10.219   7.837
 2267POPC   NC332123  14.115  22.526   9.630
 2267POPC   PO432124  13.564  22.884   9.679
 2267POPC   GL132125  13.705  22.959   9.285
 2267POPC   GL232126  13.377  23.084   9.204
 2267POPC   C1A32127  13.657  22.788   8.889
 2267POPC   D2A32128  13.667  22.896   8.506
 2267POPC   C3A32129  13.500  22.800   8.162
 2267POPC   C4A32130  13.563  22.715   7.767
 2267POPC   C1B32131  13.425  23.371   8.859
 2267POPC   C2B32132  13.497  23.356   8.404
 2267POPC   C3B32133  13.370  23.267   7.972
 2267POPC   C4B32134  13.364  23.146   7.546
 2268POPC   NC332135  44.797  11.063   9.385
 2268POPC   PO432136  44.691  10.500   9.766
 2268POPC   GL132137  44.559  10.485   9.304
 2268POPC   GL232138  44.846  10.608   9.134
 2268POPC   C1A32139  44.500  10.500   8.801
 2268POPC   D2A32140  44.787  10.492   8.401
 2268POPC   C3A32141  44.519  10.397   8.046
 2268POPC   C4A32142  44.439  10.569   7.645
 2268POPC   C1B32143  44.829  10.887   8.750
 2268POPC   C2B32144   0.042  10.948   8.359
 2268POPC   C3B32145   0.060  10.742   7.963
 2268POPC   C4B32146  44.888  10.837   7.533
 2269POPC   NC332147  18.376  38.603   9.350
 2269POPC   PO432148  17.838  38.493   9.688
 2269POPC   GL132149  17.937  38.461   9.158
 2269POPC   GL232150  18.148  38.180   9.045
 2269POPC   C1A32151  18.085  38.622   8.713
 2269POPC   D2A32152  18.310  38.598   8.319
 2269POPC   C3A32153  18.048  38.684   7.964
 2269POPC   C4A32154  18.036  38.428   7.633
 2269POPC   C1B32155  18.488  38.264   8.733
 2269POPC   C2B32156  18.725  38.305   8.306
 2269POPC   C3B32157  18.500  38.380   7.878
 2269POPC   C4B32158  18.486  38.308   7.396
 2270POPC   NC332159  18.313  34.827   9.547
 2270POPC   PO432160  18.501  34.245   9.741
 2270POPC   GL132161  18.245  34.379   9.336
 2270POPC   GL232162  18.477  34.530   9.126
 2270POPC   C1A32163  18.015  34.607   8.967
 2270POPC   D2A32164  17.927  34.575   8.529
 2270POPC   C3A32165  18.158  34.708   8.142
 2270POPC   C4A32166  18.040  34.425   7.819
 2270POPC   C1B32167  18.420  34.697   8.690
 2270POPC   C2B32168  18.469  34.393   8.389
 2270POPC   C3B32169  18.536  34.380   7.982
 2270POPC   C4B32170  18.794  34.203   7.736
 2271POPC   NC332171  33.798  27.334   9.469
 2271POPC   PO432172  33.338  27.821   9.621
 2271POPC   GL132173  33.561  27.821   9.210
 2271POPC   GL232174  33.745  27.523   9.015
 2271POPC   C1A32175  33.718  27.978   8.823
 2271POPC   D2A32176  33.702  27.699   8.439
 2271POPC   C3A32177  33.688  27.907   8.026
 2271POPC   C4A32178  33.972  27.889   7.706
 2271POPC   C1B32179  33.896  27.255   8.698
 2271POPC   C2B32180  33.957  27.239   8.269
 2271POPC   C3B32181  33.810  27.431   7.893
 2271POPC   C4B32182  34.001  27.406   7.483
 2272POPC   NC332183   0.933   2.970   9.955
 2272POPC   PO432184   0.368   2.630   9.702
 2272POPC   GL132185   0.352   2.773   9.247
 2272POPC   GL232186   0.684   2.910   9.138
 2272POPC   C1A32187   0.310   2.676   8.775
 2272POPC   D2A32188   0.115   2.694   8.323
 2272POPC   C3A32189   0.375   2.648   7.939
 2272POPC   C4A32190   0.476   2.733   7.504
 2272POPC   C1B32191   0.566   3.118   8.729
 2272POPC   C2B32192   0.465   3.057   8.284
 2272POPC   C3B32193   0.477   3.144   7.831
 2272POPC   C4B32194   0.842   3.067   7.547
 2273POPC   NC332195  37.509  34.742   9.444
 2273POPC   PO432196  37.924  34.233   9.400
 2273POPC   GL132197  37.821  34.437   9.038
 2273POPC   GL232198  37.891  34.756   9.095
 2273POPC   C1A32199  37.486  34.582   8.751
 2273POPC   D2A32200  37.271  34.563   8.336
 2273POPC   C3A32201  37.580  34.628   8.018
 2273POPC   C4A32202  37.580  34.518   7.599
 2273POPC   C1B32203  38.040  34.842   8.690
 2273POPC   C2B32204  37.877  34.947   8.304
 2273POPC   C3B32205  38.056  34.924   7.912
 2273POPC   C4B32206  37.984  34.794   7.498
 2274POPC   NC332207  10.385  10.352  10.077
 2274POPC   PO432208  10.627  10.302   9.427
 2274POPC   GL132209  10.318  10.508   9.166
 2274POPC   GL232210  10.607  10.675   9.076
 2274POPC   C1A32211  10.205  10.823   8.798
 2274POPC   D2A32212  10.144  10.981   8.356
 2274POPC   C3A32213  10.322  10.784   7.994
 2274POPC   C4A32214  10.258  10.484   7.713
 2274POPC   C1B32215  10.727  10.775   8.745
 2274POPC   C2B32216  10.610  10.734   8.398
 2274POPC   C3B32217  10.826  10.823   8.051
 2274POPC   C4B32218  10.745  10.641   7.693
 2275POPC   NC332219   7.929   9.738   9.554
 2275POPC   PO432220   8.363  10.211   9.400
 2275POPC   GL132221   8.181   9.900   9.140
 2275POPC   GL232222   7.834  10.064   9.179
 2275POPC   C1A32223   7.974   9.595   8.826
 2275POPC   D2A32224   7.865   9.461   8.374
 2275POPC   C3A32225   8.112   9.577   7.999
 2275POPC   C4A32226   7.994   9.767   7.618
 2275POPC   C1B32227   7.998  10.210   8.807
 2275POPC   C2B32228   8.022   9.950   8.474
 2275POPC   C3B32229   7.994  10.057   8.065
 2275POPC   C4B32230   8.082  10.333   7.752
 2276POPC   NC332231  28.533  28.560   9.411
 2276POPC   PO432232  28.270  27.976   9.689
 2276POPC   GL132233  28.211  28.146   9.227
 2276POPC   GL232234  28.060  28.500   9.230
 2276POPC   C1A32235  28.435  28.168   8.794
 2276POPC   D2A32236  28.652  28.428   8.457
 2276POPC   C3A32237  28.636  28.343   7.995
 2276POPC   C4A32238  28.452  28.562   7.631
 2276POPC   C1B32239  28.202  28.616   8.837
 2276POPC   C2B32240  28.139  28.421   8.451
 2276POPC   C3B32241  28.141  28.523   8.055
 2276POPC   C4B32242  27.941  28.653   7.706
 2277POPC   NC332243   9.701  11.852   9.557
 2277POPC   PO432244   9.746  12.519   9.653
 2277POPC   GL132245   9.740  12.203   9.192
 2277POPC   GL232246   9.431  12.265   8.957
 2277POPC   C1A32247   9.909  12.127   8.807
 2277POPC   D2A32248   9.716  12.172   8.438
 2277POPC   C3A32249   9.957  12.212   8.091
 2277POPC   C4A32250   9.812  12.285   7.716
 2277POPC   C1B32251   9.483  11.840   8.801
 2277POPC   C2B32252   9.505  11.710   8.345
 2277POPC   C3B32253   9.647  11.841   7.920
 2277POPC   C4B32254   9.568  11.920   7.457
 2278POPC   NC332255   2.154  40.193   9.300
 2278POPC   PO432256   2.698  39.893   9.559
 2278POPC   GL132257   2.697  40.005   9.125
 2278POPC   GL232258   2.430  39.842   9.032
 2278POPC   C1A32259   2.974  40.128   8.778
 2278POPC   D2A32260   3.108  39.981   8.358
 2278POPC   C3A32261   2.809  40.093   7.995
 2278POPC   C4A32262   2.816  40.286   7.610
 2278POPC   C1B32263   2.462  40.019   8.625
 2278POPC   C2B32264   2.340  39.993   8.202
 2278POPC   C3B32265   2.302  39.679   7.894
 2278POPC   C4B32266   2.395  39.698   7.423
 2279POPC   NC332267  41.180  10.261   9.355
 2279POPC   PO432268  41.323   9.654   9.264
 2279POPC   GL132269  41.692   9.802   9.108
 2279POPC   GL232270  41.477  10.032   8.983
 2279POPC   C1A32271  41.869   9.865   8.713
 2279POPC   D2A32272  41.717   9.881   8.322
 2279POPC   C3A32273  41.728   9.602   7.983
 2279POPC   C4A32274  41.449   9.457   7.679
 2279POPC   C1B32275  41.284   9.839   8.611
 2279POPC   C2B32276  41.263  10.093   8.244
 2279POPC   C3B32277  41.477  10.041   7.882
 2279POPC   C4B32278  41.371  10.218   7.491
 2280POPC   NC332279  21.222  28.066   9.399
 2280POPC   PO432280  21.547  28.619   9.515
 2280POPC   GL132281  21.489  28.474   9.156
 2280POPC   GL232282  21.176  28.624   9.112
 2280POPC   C1A32283  21.524  28.638   8.749
 2280POPC   D2A32284  21.674  28.851   8.406
 2280POPC   C3A32285  21.533  28.639   8.028
 2280POPC   C4A32286  21.529  28.314   7.720
 2280POPC   C1B32287  21.147  28.258   8.791
 2280POPC   C2B32288  21.034  28.277   8.362
 2280POPC   C3B32289  21.086  28.128   7.933
 2280POPC   C4B32290  21.121  28.142   7.460
 2281POPC   NC332291  32.937  28.083   9.535
 2281POPC   PO432292  33.150  28.713   9.454
 2281POPC   GL132293  32.920  28.541   9.104
 2281POPC   GL232294  32.880  28.180   9.056
 2281POPC   C1A32295  32.972  28.466   8.645
 2281POPC   D2A32296  33.060  28.425   8.224
 2281POPC   C3A32297  32.874  28.759   7.974
 2281POPC   C4A32298  32.689  28.680   7.582
 2281POPC   C1B32299  32.868  27.951   8.696
 2281POPC   C2B32300  32.697  28.014   8.299
 2281POPC   C3B32301  32.760  28.157   7.875
 2281POPC   C4B32302  33.084  28.371   7.711
 2282POPC   NC332303   3.640  15.452   9.585
 2282POPC   PO432304   3.482  16.134   9.609
 2282POPC   GL132305   3.574  15.982   9.197
 2282POPC   GL232306   3.856  16.182   9.089
 2282POPC   C1A32307   3.419  15.818   8.789
 2282POPC   D2A32308   3.549  15.628   8.394
 2282POPC   C3A32309   3.295  15.844   8.081
 2282POPC   C4A32310   3.210  15.899   7.663
 2282POPC   C1B32311   3.941  15.869   8.786
 2282POPC   C2B32312   4.061  15.824   8.357
 2282POPC   C3B32313   3.817  15.868   8.006
 2282POPC   C4B32314   3.715  15.933   7.557
 2283POPC   NC332315  21.549  39.361   9.488
 2283POPC   PO432316  21.140  38.754   9.474
 2283POPC   GL132317  21.278  39.042   9.164
 2283POPC   GL232318  21.613  38.991   9.123
 2283POPC   C1A32319  21.423  39.354   8.837
 2283POPC   D2A32320  21.324  39.460   8.428
 2283POPC   C3A32321  21.341  39.158   8.094
 2283POPC   C4A32322  21.190  39.018   7.718
 2283POPC   C1B32323  21.818  39.001   8.780
 2283POPC   C2B32324  21.743  39.107   8.398
 2283POPC   C3B32325  21.889  39.070   7.993
 2283POPC   C4B32326  22.018  39.414   7.724
 2284POPC   NC332327  36.994  22.591   9.873
 2284POPC   PO432328  36.885  23.192   9.533
 2284POPC   GL132329  36.927  22.870   9.177
 2284POPC   GL232330  36.637  22.847   9.094
 2284POPC   C1A32331  37.119  22.777   8.764
 2284POPC   D2A32332  37.198  23.046   8.385
 2284POPC   C3A32333  36.961  22.962   8.001
 2284POPC   C4A32334  37.093  22.624   7.747
 2284POPC   C1B32335  36.498  22.754   8.766
 2284POPC   C2B32336  36.727  22.722   8.423
 2284POPC   C3B32337  36.616  22.565   8.058
 2284POPC   C4B32338  36.544  22.785   7.689
 2285POPC   NC332339  33.033  27.442   9.662
 2285POPC   PO432340  33.449  26.976   9.503
 2285POPC   GL132341  33.298  27.381   9.225
 2285POPC   GL232342  32.992  27.639   9.201
 2285POPC   C1A32343  33.301  27.650   8.789
 2285POPC   D2A32344  33.323  28.053   8.488
 2285POPC   C3A32345  33.191  27.932   8.072
 2285POPC   C4A32346  33.295  27.490   7.924
 2285POPC   C1B32347  32.815  27.464   8.804
 2285POPC   C2B32348  32.937  27.540   8.364
 2285POPC   C3B32349  32.786  27.651   7.952
 2285POPC   C4B32350  32.914  27.456   7.596
 2286POPC   NC332351  13.503   0.565   9.552
 2286POPC   PO432352  14.102   0.325   9.499
 2286POPC   GL132353  13.840   0.531   9.121
 2286POPC   GL232354  13.448   0.652   9.078
 2286POPC   C1A32355  13.658   0.341   8.725
 2286POPC   D2A32356  13.457   0.209   8.340
 2286POPC   C3A32357  13.645   0.264   7.958
 2286POPC   C4A32358  13.745   0.493   7.605
 2286POPC   C1B32359  13.542   0.854   8.742
 2286POPC   C2B32360  13.639   0.742   8.341
 2286POPC   C3B32361  13.491   0.761   7.972
 2286POPC   C4B32362  13.257   0.751   7.643
 2287POPC   NC332363  35.073  21.530   9.591
 2287POPC   PO432364  34.606  21.111   9.432
 2287POPC   GL132365  34.716  21.099   9.060
 2287POPC   GL232366  34.987  20.902   8.978
 2287POPC   C1A32367  34.566  21.316   8.729
 2287POPC   D2A32368  34.645  21.556   8.398
 2287POPC   C3A32369  34.344  21.520   8.072
 2287POPC   C4A32370  34.417  21.235   7.762
 2287POPC   C1B32371  34.709  20.827   8.639
 2287POPC   C2B32372  34.655  20.961   8.206
 2287POPC   C3B32373  34.772  20.859   7.777
 2287POPC   C4B32374  34.635  21.031   7.350
 2288POPC   NC332375  42.596   9.778   9.561
 2288POPC   PO432376  41.864   9.712   9.587
 2288POPC   GL132377  42.166   9.649   9.259
 2288POPC   GL232378  42.220   9.931   9.121
 2288POPC   C1A32379  42.241   9.535   8.794
 2288POPC   D2A32380  42.026   9.433   8.378
 2288POPC   C3A32381  42.236   9.562   7.953
 2288POPC   C4A32382  42.171   9.571   7.487
 2288POPC   C1B32383  42.366  10.033   8.759
 2288POPC   C2B32384  42.248   9.889   8.355
 2288POPC   C3B32385  42.049  10.027   7.967
 2288POPC   C4B32386  42.276  10.056   7.583
 2289POPC   NC332387  42.099  40.003   9.160
 2289POPC   PO432388  42.522  40.301   9.577
 2289POPC   GL132389  42.579  40.216   9.127
 2289POPC   GL232390  42.610  39.836   9.123
 2289POPC   C1A32391  42.599  40.251   8.650
 2289POPC   D2A32392  42.818  40.221   8.208
 2289POPC   C3A32393  42.597  40.074   7.843
 2289POPC   C4A32394  42.166  40.031   7.928
 2289POPC   C1B32395  42.516  39.700   8.709
 2289POPC   C2B32396  42.508  39.811   8.294
 2289POPC   C3B32397  42.436  39.595   7.921
 2289POPC   C4B32398  42.348  39.730   7.497
 2290POPC   NC332399   8.318   7.006   9.466
 2290POPC   PO432400   8.120   6.358   9.518
 2290POPC   GL132401   8.332   6.553   9.179
 2290POPC   GL232402   8.144   6.823   9.053
 2290POPC   C1A32403   8.412   6.427   8.765
 2290POPC   D2A32404   8.206   6.233   8.400
 2290POPC   C3A32405   8.154   6.436   8.008
 2290POPC   C4A32406   8.340   6.504   7.615
 2290POPC   C1B32407   8.427   6.919   8.772
 2290POPC   C2B32408   8.488   6.725   8.362
 2290POPC   C3B32409   8.376   6.899   7.968
 2290POPC   C4B32410   8.020   6.904   7.718
 2291POPC   NC332411  44.858  16.200   9.547
 2291POPC   PO432412  44.415  15.645   9.536
 2291POPC   GL132413  44.662  15.867   9.222
 2291POPC   GL232414  44.352  16.052   9.195
 2291POPC   C1A32415  44.962  16.045   8.889
 2291POPC   D2A32416   0.188  15.933   8.510
 2291POPC   C3A32417  44.941  16.027   8.135
 2291POPC   C4A32418  44.854  15.995   7.695
 2291POPC   C1B32419  44.517  16.254   8.839
 2291POPC   C2B32420  44.552  16.277   8.380
 2291POPC   C3B32421  44.427  16.086   7.953
 2291POPC   C4B32422  44.391  15.862   7.526
 2292POPC   NC332423  39.293  16.912  10.089
 2292POPC   PO432424  38.859  17.157   9.599
 2292POPC   GL132425  39.173  16.991   9.251
 2292POPC   GL232426  39.147  16.643   9.142
 2292POPC   C1A32427  39.452  16.937   8.849
 2292POPC   D2A32428  39.559  16.641   8.476
 2292POPC   C3A32429  39.424  16.744   8.024
 2292POPC   C4A32430  39.005  16.745   7.819
 2292POPC   C1B32431  39.097  16.590   8.675
 2292POPC   C2B32432  39.142  16.390   8.259
 2292POPC   C3B32433  39.250  16.302   7.805
 2292POPC   C4B32434  39.060  16.423   7.389
 2293POPC   NC332435  33.497  19.661   9.725
 2293POPC   PO432436  34.053  19.968   9.677
 2293POPC   GL132437  34.101  19.999   9.244
 2293POPC   GL232438  33.872  19.730   9.204
 2293POPC   C1A32439  34.131  20.062   8.778
 2293POPC   D2A32440  33.818  19.936   8.442
 2293POPC   C3A32441  33.963  19.898   7.989
 2293POPC   C4A32442  33.800  19.810   7.588
 2293POPC   C1B32443  33.599  19.563   8.869
 2293POPC   C2B32444  33.522  19.516   8.432
 2293POPC   C3B32445  33.456  19.775   8.088
 2293POPC   C4B32446  33.367  19.566   7.739
 2294POPC   NC332447  28.720   8.870   9.618
 2294POPC   PO432448  28.257   8.620   9.266
 2294POPC   GL132449  28.299   8.988   9.079
 2294POPC   GL232450  28.653   9.025   9.118
 2294POPC   C1A32451  28.122   8.947   8.675
 2294POPC   D2A32452  28.273   8.752   8.357
 2294POPC   C3A32453  28.271   9.022   8.046
 2294POPC   C4A32454  28.300   8.979   7.633
 2294POPC   C1B32455  28.643   8.909   8.692
 2294POPC   C2B32456  28.689   9.124   8.304
 2294POPC   C3B32457  28.756   9.083   7.857
 2294POPC   C4B32458  28.854   9.396   7.584
 2295POPC   NC332459  12.115  40.531   9.693
 2295POPC   PO432460  12.000  41.231   9.739
 2295POPC   GL132461  12.204  40.972   9.327
 2295POPC   GL232462  12.044  40.674   9.211
 2295POPC   C1A32463  12.331  40.849   8.848
 2295POPC   D2A32464  12.114  40.941   8.420
 2295POPC   C3A32465  12.186  40.912   7.936
 2295POPC   C4A32466  12.345  40.625   7.579
 2295POPC   C1B32467  11.809  40.862   8.852
 2295POPC   C2B32468  11.610  40.986   8.437
 2295POPC   C3B32469  11.665  40.882   7.990
 2295POPC   C4B32470  11.529  41.140   7.668
 2296POPC   NC332471  15.737   0.744   9.108
 2296POPC   PO432472  15.348   0.303   9.434
 2296POPC   GL132473  15.238   0.548   9.058
 2296POPC   GL232474  14.881   0.599   8.955
 2296POPC   C1A32475  15.216   0.419   8.612
 2296POPC   D2A32476  14.909   0.483   8.250
 2296POPC   C3A32477  14.998   0.161   7.911
 2296POPC   C4A32478  15.233   0.190   7.502
 2296POPC   C1B32479  14.991   0.885   8.610
 2296POPC   C2B32480  15.365   0.835   8.354
 2296POPC   C3B32481  15.357   0.561   8.026
 2296POPC   C4B32482  15.014   0.621   7.718
 2297POPC   NC332483  12.536   1.637   9.223
 2297POPC   PO432484  13.026   1.356   9.550
 2297POPC   GL132485  12.806   1.212   9.152
 2297POPC   GL232486  12.402   1.140   9.199
 2297POPC   C1A32487  13.017   1.058   8.774
 2297POPC   D2A32488  13.259   1.102   8.380
 2297POPC   C3A32489  13.097   1.176   7.961
 2297POPC   C4A32490  12.869   1.071   7.563
 2297POPC   C1B32491  12.463   1.105   8.755
 2297POPC   C2B32492  12.711   1.132   8.368
 2297POPC   C3B32493  12.580   1.197   7.968
 2297POPC   C4B32494  12.587   1.510   7.698
 2298POPC   NC332495  33.437  40.916   9.494
 2298POPC   PO432496  34.092  40.632   9.498
 2298POPC   GL132497  33.840  40.815   9.200
 2298POPC   GL232498  33.612  40.586   9.138
 2298POPC   C1A32499  33.687  40.979   8.796
 2298POPC   D2A32500  33.578  40.782   8.380
 2298POPC   C3A32501  33.660  40.948   7.979
 2298POPC   C4A32502  33.962  41.000   7.672
 2298POPC   C1B32503  33.700  40.452   8.738
 2298POPC   C2B32504  33.854  40.342   8.304
 2298POPC   C3B32505  33.882  40.503   7.865
 2298POPC   C4B32506  33.810  40.572   7.431
 2299POPC   NC332507  25.482  38.008   9.431
 2299POPC   PO432508  25.254  37.367   9.424
 2299POPC   GL132509  25.342  37.655   9.076
 2299POPC   GL232510  25.019  37.867   9.053
 2299POPC   C1A32511  25.527  37.508   8.670
 2299POPC   D2A32512  25.314  37.495   8.268
 2299POPC   C3A32513  25.552  37.624   7.908
 2299POPC   C4A32514  25.473  37.614   7.469
 2299POPC   C1B32515  25.152  37.894   8.613
 2299POPC   C2B32516  25.085  38.040   8.176
 2299POPC   C3B32517  25.074  37.826   7.748
 2299POPC   C4B32518  24.910  37.802   7.311
 2300POPC   NC332519   6.034  29.062   9.436
 2300POPC   PO432520   6.680  28.965   9.669
 2300POPC   GL132521   6.784  29.044   9.255
 2300POPC   GL232522   6.465  29.069   9.141
 2300POPC   C1A32523   6.858  29.173   8.820
 2300POPC   D2A32524   6.688  29.092   8.444
 2300POPC   C3A32525   6.955  29.010   8.124
 2300POPC   C4A32526   6.869  29.079   7.709
 2300POPC   C1B32527   6.398  29.372   8.811
 2300POPC   C2B32528   6.434  29.556   8.416
 2300POPC   C3B32529   6.559  29.368   8.033
 2300POPC   C4B32530   6.514  29.441   7.607
 2301POPC   NC332531  27.212  11.813  10.041
 2301POPC   PO432532  26.909  11.457   9.602
 2301POPC   GL132533  26.649  11.525   9.179
 2301POPC   GL232534  26.474  11.208   9.092
 2301POPC   C1A32535  26.642  11.686   8.720
 2301POPC   D2A32536  26.737  11.516   8.288
 2301POPC   C3A32537  26.996  11.721   7.942
 2301POPC   C4A32538  26.891  11.736   7.475
 2301POPC   C1B32539  26.828  11.219   8.805
 2301POPC   C2B32540  26.901  11.023   8.421
 2301POPC   C3B32541  27.053  11.181   8.031
 2301POPC   C4B32542  26.733  11.322   7.768
 2302POPC   NC332543  37.966  25.909   9.286
 2302POPC   PO432544  37.355  25.695   9.371
 2302POPC   GL132545  37.543  25.792   9.008
 2302POPC   GL232546  37.585  26.154   9.052
 2302POPC   C1A32547  37.661  25.788   8.588
 2302POPC   D2A32548  37.662  26.137   8.312
 2302POPC   C3A32549  37.838  26.133   7.952
 2302POPC   C4A32550  37.539  25.873   7.807
 2302POPC   C1B32551  37.926  26.220   8.727
 2302POPC   C2B32552  38.176  26.270   8.338
 2302POPC   C3B32553  38.149  26.549   8.005
 2302POPC   C4B32554  37.908  26.596   7.610
 2303POPC   NC332555  38.801  31.296   9.782
 2303POPC   PO432556  38.252  31.414   9.444
 2303POPC   GL132557  38.602  31.279   9.134
 2303POPC   GL232558  38.420  31.484   8.930
 2303POPC   C1A32559  38.667  31.093   8.692
 2303POPC   D2A32560  38.562  31.346   8.288
 2303POPC   C3A32561  38.658  31.116   7.882
 2303POPC   C4A32562  38.670  31.137   7.395
 2303POPC   C1B32563  38.338  31.878   8.729
 2303POPC   C2B32564  38.353  31.897   8.300
 2303POPC   C3B32565  38.501  31.728   7.932
 2303POPC   C4B32566  38.340  31.441   7.655
 2304POPC   NC332567  13.744  27.641   9.549
 2304POPC   PO432568  13.460  27.109   9.604
 2304POPC   GL132569  13.395  27.390   9.194
 2304POPC   GL232570  13.744  27.487   9.069
 2304POPC   C1A32571  13.403  27.433   8.698
 2304POPC   D2A32572  13.192  27.463   8.278
 2304POPC   C3A32573  13.514  27.523   7.939
 2304POPC   C4A32574  13.887  27.825   7.858
 2304POPC   C1B32575  13.914  27.445   8.650
 2304POPC   C2B32576  13.998  27.486   8.205
 2304POPC   C3B32577  13.978  27.329   7.747
 2304POPC   C4B32578  14.145  27.481   7.307
 2305POPC   NC332579  21.605  32.731   9.409
 2305POPC   PO432580  21.252  33.233   9.757
 2305POPC   GL132581  21.382  33.164   9.267
 2305POPC   GL232582  21.731  33.265   9.177
 2305POPC   C1A32583  21.328  32.906   8.856
 2305POPC   D2A32584  21.054  32.963   8.509
 2305POPC   C3A32585  21.163  33.097   8.102
 2305POPC   C4A32586  21.300  33.143   7.690
 2305POPC   C1B32587  21.714  33.185   8.720
 2305POPC   C2B32588  21.561  32.867   8.399
 2305POPC   C3B32589  21.674  32.991   8.003
 2305POPC   C4B32590  21.621  33.441   7.910
 2306POPC   NC332591  17.465   1.962   9.511
 2306POPC   PO432592  16.955   1.630   9.403
 2306POPC   GL132593  17.230   1.827   9.047
 2306POPC   GL232594  17.640   1.851   9.034
 2306POPC   C1A32595  17.323   1.692   8.640
 2306POPC   D2A32596  17.730   1.785   8.448
 2306POPC   C3A32597  17.653   1.787   8.005
 2306POPC   C4A32598  17.228   1.835   7.847
 2306POPC   C1B32599  17.484   2.156   8.746
 2306POPC   C2B32600  17.393   2.455   8.453
 2306POPC   C3B32601  17.477   2.327   8.028
 2306POPC   C4B32602  17.910   2.233   7.918
 2307POPC   NC332603  39.871  42.719   9.472
 2307POPC   PO432604  40.124  43.354   9.495
 2307POPC   GL132605  40.045  43.114   9.162
 2307POPC   GL232606  39.697  43.130   9.191
 2307POPC   C1A32607  40.062  43.172   8.726
 2307POPC   D2A32608  40.422  43.117   8.439
 2307POPC   C3A32609  40.300  43.008   8.013
 2307POPC   C4A32610  40.233  43.316   7.689
 2307POPC   C1B32611  39.687  42.828   8.881
 2307POPC   C2B32612  39.639  42.869   8.464
 2307POPC   C3B32613  39.739  42.737   8.059
 2307POPC   C4B32614  39.829  43.043   7.777
 2308POPC   NC332615  41.759   2.137   9.534
 2308POPC   PO432616  41.188   2.126   9.260
 2308POPC   GL132617  41.504   1.908   9.083
 2308POPC   GL232618  41.839   2.054   9.032
 2308POPC   C1A32619  41.498   1.921   8.645
 2308POPC   D2A32620  41.326   2.169   8.342
 2308POPC   C3A32621  41.539   2.053   7.988
 2308POPC   C4A32622  41.424   1.986   7.567
 2308POPC   C1B32623  41.940   1.696   8.774
 2308POPC   C2B32624  41.851   1.598   8.356
 2308POPC   C3B32625  41.990   1.799   7.990
 2308POPC   C4B32626  41.947   2.019   7.654
 2309POPC   NC332627  39.636   0.363   9.526
 2309POPC   PO432628  40.088   0.904   9.439
 2309POPC   GL132629  39.914   0.656   9.106
 2309POPC   GL232630  39.641   0.411   9.022
 2309POPC   C1A32631  40.098   0.565   8.723
 2309POPC   D2A32632  40.155   0.762   8.355
 2309POPC   C3A32633  39.925   0.495   8.125
 2309POPC   C4A32634  39.999   0.309   7.741
 2309POPC   C1B32635  39.590   0.553   8.604
 2309POPC   C2B32636  39.427   0.430   8.198
 2309POPC   C3B32637  39.558   0.551   7.770
 2309POPC   C4B32638  39.720   0.512   7.364
 2310POPC   NC332639  37.952  22.750   9.634
 2310POPC   PO432640  37.344  22.952   9.512
 2310POPC   GL132641  37.621  22.820   9.197
 2310POPC   GL232642  37.659  23.105   8.998
 2310POPC   C1A32643  37.675  22.660   8.748
 2310POPC   D2A32644  37.692  22.494   8.308
 2310POPC   C3A32645  37.558  22.767   7.926
 2310POPC   C4A32646  37.337  23.052   7.625
 2310POPC   C1B32647  37.924  23.090   8.622
 2310POPC   C2B32648  37.714  23.097   8.271
 2310POPC   C3B32649  37.771  23.287   7.882
 2310POPC   C4B32650  38.152  23.302   7.651
 2311POPC   NC332651  37.896  24.621   9.443
 2311POPC   PO432652  37.562  23.927   9.536
 2311POPC   GL132653  37.569  24.176   9.139
 2311POPC   GL232654  37.837  24.331   9.009
 2311POPC   C1A32655  37.386  24.242   8.714
 2311POPC   D2A32656  37.637  24.247   8.302
 2311POPC   C3A32657  37.562  24.459   7.901
 2311POPC   C4A32658  37.904  24.705   7.710
 2311POPC   C1B32659  37.827  23.987   8.715
 2311POPC   C2B32660  38.096  23.994   8.362
 2311POPC   C3B32661  38.044  24.234   7.965
 2311POPC   C4B32662  38.124  24.277   7.519
 2312POPC   NC332663  32.487  43.925   9.506
 2312POPC   PO432664  32.036  43.569   9.225
 2312POPC   GL132665  32.335  43.687   8.953
 2312POPC   GL232666  32.616  43.800   9.034
 2312POPC   C1A32667  32.433  43.642   8.553
 2312POPC   D2A32668  32.109  43.874   8.470
 2312POPC   C3A32669  32.088  43.992   8.097
 2312POPC   C4A32670  32.170  43.803   7.766
 2312POPC   C1B32671  32.538  44.117   8.701
 2312POPC   C2B32672  32.567  44.065   8.253
 2312POPC   C3B32673  32.589  44.088   7.808
 2312POPC   C4B32674  32.250  44.202   7.471
 2313POPC   NC332675  25.344  25.735   9.545
 2313POPC   PO432676  25.058  26.397   9.562
 2313POPC   GL132677  25.257  26.171   9.259
 2313POPC   GL232678  25.021  25.911   9.207
 2313POPC   C1A32679  25.459  25.984   8.888
 2313POPC   D2A32680  25.661  26.010   8.469
 2313POPC   C3A32681  25.458  26.082   8.074
 2313POPC   C4A32682  25.630  26.143   7.675
 2313POPC   C1B32683  24.959  26.138   8.835
 2313POPC   C2B32684  25.188  26.259   8.496
 2313POPC   C3B32685  24.967  26.238   8.106
 2313POPC   C4B32686  24.882  26.128   7.706
 2314POPC   NC332687  35.552  20.664   9.733
 2314POPC   PO432688  36.250  20.688   9.471
 2314POPC   GL132689  36.199  20.643   9.020
 2314POPC   GL232690  35.832  20.616   8.975
 2314POPC   C1A32691  36.159  20.386   8.609
 2314POPC   D2A32692  36.403  20.403   8.196
 2314POPC   C3A32693  36.278  20.539   7.825
 2314POPC   C4A32694  35.980  20.470   7.516
 2314POPC   C1B32695  35.970  20.893   8.653
 2314POPC   C2B32696  36.022  20.767   8.266
 2314POPC   C3B32697  35.872  20.844   7.847
 2314POPC   C4B32698  36.035  20.955   7.410
 2315POPC   NC332699  20.759  19.574  10.024
 2315POPC   PO432700  20.384  19.930   9.599
 2315POPC   GL132701  20.650  19.854   9.263
 2315POPC   GL232702  20.516  20.123   9.132
 2315POPC   C1A32703  20.789  19.620   8.896
 2315POPC   D2A32704  20.717  19.774   8.484
 2315POPC   C3A32705  21.017  19.790   8.158
 2315POPC   C4A32706  20.807  19.756   7.749
 2315POPC   C1B32707  20.290  20.323   8.807
 2315POPC   C2B32708  20.356  20.226   8.416
 2315POPC   C3B32709  20.196  20.171   8.026
 2315POPC   C4B32710  20.316  20.076   7.606
 2316POPC   NC332711  43.540  43.814   9.610
 2316POPC   PO432712  43.692  43.408   9.151
 2316POPC   GL132713  43.855  43.820   9.149
 2316POPC   GL232714  43.671  44.108   9.203
 2316POPC   C1A32715  44.079  44.009   8.808
 2316POPC   D2A32716  44.179  43.717   8.456
 2316POPC   C3A32717  44.091  43.770   8.000
 2316POPC   C4A32718  43.757  43.662   7.674
 2316POPC   C1B32719  43.628  44.281   8.802
 2316POPC   C2B32720  43.817  44.181   8.389
 2316POPC   C3B32721  43.631  43.998   8.047
 2316POPC   C4B32722  43.446  44.070   7.678
 2317POPC   NC332723   4.968  13.439   9.553
 2317POPC   PO432724   5.070  14.095   9.569
 2317POPC   GL132725   5.029  13.839   9.181
 2317POPC   GL232726   4.855  13.520   9.078
 2317POPC   C1A32727   5.202  13.838   8.757
 2317POPC   D2A32728   5.391  13.603   8.419
 2317POPC   C3A32729   5.392  13.654   7.989
 2317POPC   C4A32730   5.447  13.690   7.536
 2317POPC   C1B32731   4.962  13.408   8.674
 2317POPC   C2B32732   4.896  13.670   8.297
 2317POPC   C3B32733   4.680  13.604   7.936
 2317POPC   C4B32734   5.011  13.448   7.712
 2318POPC   NC332735  39.667   6.297   9.554
 2318POPC   PO432736  39.356   6.832   9.289
 2318POPC   GL132737  39.311   6.599   8.929
 2318POPC   GL232738  39.124   6.334   9.014
 2318POPC   C1A32739  39.109   6.715   8.539
 2318POPC   D2A32740  39.108   6.985   8.161
 2318POPC   C3A32741  39.426   6.806   7.858
 2318POPC   C4A32742  39.629   6.376   7.855
 2318POPC   C1B32743  38.785   6.346   8.710
 2318POPC   C2B32744  38.808   6.183   8.335
 2318POPC   C3B32745  39.023   6.476   8.089
 2318POPC   C4B32746  39.044   6.511   7.687
 2319POPC   NC332747  16.925   6.750   9.540
 2319POPC   PO432748  16.482   7.076   9.554
 2319POPC   GL132749  16.536   6.777   9.142
 2319POPC   GL232750  16.880   6.593   9.074
 2319POPC   C1A32751  16.673   6.805   8.665
 2319POPC   D2A32752  16.992   6.814   8.286
 2319POPC   C3A32753  16.724   6.903   7.895
 2319POPC   C4A32754  16.315   6.923   7.646
 2319POPC   C1B32755  16.817   6.323   8.735
 2319POPC   C2B32756  16.691   6.401   8.303
 2319POPC   C3B32757  16.832   6.407   7.848
 2319POPC   C4B32758  16.830   6.187   7.439
 2320POPC   NC332759  12.271  18.857   9.413
 2320POPC   PO432760  11.644  18.959   9.509
 2320POPC   GL132761  11.851  18.930   9.124
 2320POPC   GL232762  12.056  19.233   9.128
 2320POPC   C1A32763  12.068  18.926   8.732
 2320POPC   D2A32764  11.889  19.060   8.372
 2320POPC   C3A32765  12.107  18.927   8.033
 2320POPC   C4A32766  11.799  19.029   7.751
 2320POPC   C1B32767  12.340  19.345   8.818
 2320POPC   C2B32768  12.366  19.247   8.408
 2320POPC   C3B32769  12.180  19.415   8.059
 2320POPC   C4B32770  12.269  19.268   7.664
 2321POPC   NC332771  36.532  12.661   9.646
 2321POPC   PO432772  37.114  12.443   9.713
 2321POPC   GL132773  36.845  12.530   9.273
 2321POPC   GL232774  36.707  12.889   9.204
 2321POPC   C1A32775  36.784  12.570   8.795
 2321POPC   D2A32776  36.896  12.815   8.404
 2321POPC   C3A32777  36.729  12.794   7.958
 2321POPC   C4A32778  36.878  12.811   7.511
 2321POPC   C1B32779  36.460  12.967   8.795
 2321POPC   C2B32780  36.438  13.035   8.341
 2321POPC   C3B32781  36.239  12.985   7.943
 2321POPC   C4B32782  36.401  13.006   7.534
 2322POPC   NC332783  12.655   5.628   9.477
 2322POPC   PO432784  12.966   6.249   9.447
 2322POPC   GL132785  13.007   5.856   9.182
 2322POPC   GL232786  13.270   5.611   9.229
 2322POPC   C1A32787  12.787   5.717   8.817
 2322POPC   D2A32788  12.567   5.975   8.544
 2322POPC   C3A32789  12.599   5.878   8.150
 2322POPC   C4A32790  12.495   5.963   7.729
 2322POPC   C1B32791  13.320   5.783   8.786
 2322POPC   C2B32792  13.100   5.770   8.358
 2322POPC   C3B32793  13.015   5.803   7.886
 2322POPC   C4B32794  13.144   6.068   7.543
 2323POPC   NC332795  19.992  20.152   9.526
 2323POPC   PO432796  19.563  19.694   9.489
 2323POPC   GL132797  19.789  19.854   9.165
 2323POPC   GL232798  20.118  19.761   9.183
 2323POPC   C1A32799  19.872  20.037   8.791
 2323POPC   D2A32800  19.651  19.960   8.451
 2323POPC   C3A32801  19.730  19.851   8.046
 2323POPC   C4A32802  19.434  20.065   7.768
 2323POPC   C1B32803  20.319  19.795   8.791
 2323POPC   C2B32804  20.189  19.752   8.358
 2323POPC   C3B32805  20.239  19.671   7.916
 2323POPC   C4B32806  19.921  19.702   7.604
 2324POPC   NC332807  44.340  12.945   9.588
 2324POPC   PO432808  44.967  12.999   9.595
 2324POPC   GL132809  44.711  12.770   9.268
 2324POPC   GL232810  44.435  12.931   9.084
 2324POPC   C1A32811  44.798  12.733   8.808
 2324POPC   D2A32812  44.605  12.889   8.448
 2324POPC   C3A32813  44.830  12.839   8.077
 2324POPC   C4A32814   0.013  12.746   7.719
 2324POPC   C1B32815  44.315  12.586   8.771
 2324POPC   C2B32816  44.202  12.596   8.320
 2324POPC   C3B32817  44.366  12.671   7.888
 2324POPC   C4B32818  44.206  12.552   7.465
 2325POPC   NC332819  37.656  41.992   9.422
 2325POPC   PO432820  37.329  41.452   9.547
 2325POPC   GL132821  37.542  41.587   9.158
 2325POPC   GL232822  37.843  41.596   9.124
 2325POPC   C1A32823  37.551  41.760   8.717
 2325POPC   D2A32824  37.578  41.527   8.318
 2325POPC   C3A32825  37.244  41.645   8.026
 2325POPC   C4A32826  37.238  41.855   7.623
 2325POPC   C1B32827  38.028  41.850   8.832
 2325POPC   C2B32828  38.058  41.870   8.410
 2325POPC   C3B32829  38.028  41.634   8.051
 2325POPC   C4B32830  37.690  41.607   7.773
 2326POPC   NC332831   0.449   4.708   9.640
 2326POPC   PO432832   0.075   4.223   9.391
 2326POPC   GL132833   0.297   4.530   9.194
 2326POPC   GL232834   0.457   4.282   9.002
 2326POPC   C1A32835   0.353   4.737   8.816
 2326POPC   D2A32836   0.116   4.569   8.494
 2326POPC   C3A32837   0.284   4.438   8.094
 2326POPC   C4A32838   0.386   4.461   7.666
 2326POPC   C1B32839   0.133   4.056   8.735
 2326POPC   C2B32840   0.115   3.651   8.459
 2326POPC   C3B32841   0.161   3.628   8.001
 2326POPC   C4B32842   0.023   4.032   7.821
 2327POPC   NC332843   5.835   8.042   9.505
 2327POPC   PO432844   5.862   8.603   9.248
 2327POPC   GL132845   5.859   8.334   8.935
 2327POPC   GL232846   5.594   8.163   9.053
 2327POPC   C1A32847   5.853   8.322   8.473
 2327POPC   D2A32848   6.117   8.128   8.162
 2327POPC   C3A32849   6.010   8.233   7.736
 2327POPC   C4A32850   6.007   8.044   7.317
 2327POPC   C1B32851   5.402   8.371   8.702
 2327POPC   C2B32852   5.385   8.194   8.305
 2327POPC   C3B32853   5.515   8.334   7.868
 2327POPC   C4B32854   5.689   8.465   7.410
 2328POPC   NC332855  42.155  44.189   9.710
 2328POPC   PO432856  42.497  44.807   9.566
 2328POPC   GL132857  42.436  44.625   9.197
 2328POPC   GL232858  42.199  44.404   9.245
 2328POPC   C1A32859  42.711  44.436   8.894
 2328POPC   D2A32860  42.841  44.426   8.461
 2328POPC   C3A32861  42.580  44.302   8.114
 2328POPC   C4A32862  42.482  44.529   7.751
 2328POPC   C1B32863  42.206  44.382   8.792
 2328POPC   C2B32864  42.132  44.418   8.347
 2328POPC   C3B32865  42.223  44.795   8.104
 2328POPC   C4B32866  42.200  44.951   7.666
 2329POPC   NC332867  21.485  20.080   9.444
 2329POPC   PO432868  20.985  19.669   9.624
 2329POPC   GL132869  21.168  19.775   9.181
 2329POPC   GL232870  21.071  20.098   9.086
 2329POPC   C1A32871  21.230  19.785   8.697
 2329POPC   D2A32872  21.488  19.603   8.371
 2329POPC   C3A32873  21.515  19.764   7.952
 2329POPC   C4A32874  21.777  19.763   7.564
 2329POPC   C1B32875  21.306  20.276   8.722
 2329POPC   C2B32876  21.369  20.166   8.272
 2329POPC   C3B32877  21.201  20.164   7.841
 2329POPC   C4B32878  21.351  20.064   7.436
 2330POPC   NC332879   5.639  35.605   9.804
 2330POPC   PO432880   5.925  35.085   9.547
 2330POPC   GL132881   6.076  35.172   9.110
 2330POPC   GL232882   5.739  35.174   9.052
 2330POPC   C1A32883   6.014  35.386   8.682
 2330POPC   D2A32884   5.798  35.554   8.264
 2330POPC   C3A32885   6.035  35.630   7.846
 2330POPC   C4A32886   5.957  35.725   7.389
 2330POPC   C1B32887   5.540  35.207   8.655
 2330POPC   C2B32888   5.808  35.041   8.349
 2330POPC   C3B32889   5.866  35.150   7.953
 2330POPC   C4B32890   5.725  34.930   7.631
 2331POPC   NC332891  15.327  23.926   9.546
 2331POPC   PO432892  15.005  23.386   9.361
 2331POPC   GL132893  15.266  23.626   9.138
 2331POPC   GL232894  15.087  23.928   9.095
 2331POPC   C1A32895  15.428  23.582   8.759
 2331POPC   D2A32896  15.235  23.404   8.404
 2331POPC   C3A32897  15.408  23.558   8.052
 2331POPC   C4A32898  15.349  23.861   7.797
 2331POPC   C1B32899  15.227  24.063   8.693
 2331POPC   C2B32900  15.123  23.997   8.254
 2331POPC   C3B32901  14.914  23.668   8.039
 2331POPC   C4B32902  14.593  23.464   7.844
 2332POPC   NC332903   4.280  36.272   9.441
 2332POPC   PO432904   4.831  35.721   9.401
 2332POPC   GL132905   4.489  35.896   9.169
 2332POPC   GL232906   4.592  36.229   9.008
 2332POPC   C1A32907   4.216  35.919   8.810
 2332POPC   D2A32908   4.419  36.084   8.448
 2332POPC   C3A32909   4.313  35.907   8.068
 2332POPC   C4A32910   4.430  35.754   7.691
 2332POPC   C1B32911   4.209  36.413   8.786
 2332POPC   C2B32912   4.087  36.515   8.372
 2332POPC   C3B32913   4.311  36.437   7.986
 2332POPC   C4B32914   4.174  36.222   7.599
 2333POPC   NC332915  38.739  23.400   9.549
 2333POPC   PO432916  39.382  23.576   9.657
 2333POPC   GL132917  39.325  23.658   9.181
 2333POPC   GL232918  38.974  23.765   9.143
 2333POPC   C1A32919  39.567  23.586   8.786
 2333POPC   D2A32920  39.613  23.403   8.364
 2333POPC   C3A32921  39.321  23.591   8.040
 2333POPC   C4A32922  39.386  23.529   7.606
 2333POPC   C1B32923  39.083  23.799   8.714
 2333POPC   C2B32924  39.212  24.011   8.344
 2333POPC   C3B32925  39.014  24.061   7.980
 2333POPC   C4B32926  38.989  23.827   7.638
 2334POPC   NC332927  38.163  27.549   9.532
 2334POPC   PO432928  38.811  27.754   9.497
 2334POPC   GL132929  38.698  27.781   9.093
 2334POPC   GL232930  38.392  27.635   9.100
 2334POPC   C1A32931  38.720  27.504   8.699
 2334POPC   D2A32932  38.695  27.203   8.331
 2334POPC   C3A32933  38.599  27.427   7.957
 2334POPC   C4A32934  38.980  27.654   7.820
 2334POPC   C1B32935  38.117  27.500   8.796
 2334POPC   C2B32936  38.233  27.465   8.404
 2334POPC   C3B32937  38.093  27.538   8.015
 2334POPC   C4B32938  38.198  27.637   7.633
 2335POPC   NC332939   9.503  21.981   9.855
 2335POPC   PO432940   9.359  22.528   9.409
 2335POPC   GL132941   9.260  22.437   8.980
 2335POPC   GL232942   8.999  22.151   8.983
 2335POPC   C1A32943   9.185  22.355   8.549
 2335POPC   D2A32944   8.947  22.013   8.442
 2335POPC   C3A32945   8.696  22.116   8.109
 2335POPC   C4A32946   8.915  22.215   7.738
 2335POPC   C1B32947   8.660  21.833   8.862
 2335POPC   C2B32948   8.558  21.700   8.444
 2335POPC   C3B32949   8.645  21.634   7.978
 2335POPC   C4B32950   8.705  21.814   7.520
 2336POPC   NC332951  30.712  26.509   9.595
 2336POPC   PO432952  30.775  27.149   9.543
 2336POPC   GL132953  30.778  26.849   9.211
 2336POPC   GL232954  31.091  26.797   9.046
 2336POPC   C1A32955  30.625  26.828   8.791
 2336POPC   D2A32956  30.469  26.718   8.377
 2336POPC   C3A32957  30.654  26.886   7.984
 2336POPC   C4A32958  30.977  26.999   7.655
 2336POPC   C1B32959  31.020  26.472   8.701
 2336POPC   C2B32960  30.894  26.430   8.262
 2336POPC   C3B32961  30.936  26.493   7.808
 2336POPC   C4B32962  30.938  26.582   7.353
 2337POPC   NC332963   1.042  23.074   9.609
 2337POPC   PO432964   0.366  22.784   9.467
 2337POPC   GL132965   0.494  23.130   9.187
 2337POPC   GL232966   0.827  23.103   9.137
 2337POPC   C1A32967   0.464  23.263   8.733
 2337POPC   D2A32968   0.282  23.010   8.416
 2337POPC   C3A32969   0.307  23.136   8.005
 2337POPC   C4A32970   0.092  23.240   7.621
 2337POPC   C1B32971   0.660  22.822   8.819
 2337POPC   C2B32972   0.783  22.917   8.397
 2337POPC   C3B32973   0.730  22.831   7.956
 2337POPC   C4B32974   0.436  22.805   7.617
 2338POPC   NC332975   8.719  18.779   9.506
 2338POPC   PO432976   9.095  19.365   9.467
 2338POPC   GL132977   8.873  19.314   9.125
 2338POPC   GL232978   8.793  18.979   9.056
 2338POPC   C1A32979   8.806  19.479   8.753
 2338POPC   D2A32980   8.873  19.248   8.444
 2338POPC   C3A32981   9.005  19.382   8.113
 2338POPC   C4A32982   8.962  19.199   7.763
 2338POPC   C1B32983   8.899  18.765   8.673
 2338POPC   C2B32984   8.860  18.781   8.242
 2338POPC   C3B32985   9.116  18.719   7.908
 2338POPC   C4B32986   9.050  18.805   7.474
 2339POPC   NC332987  33.932  15.605   9.592
 2339POPC   PO432988  34.195  15.099   9.386
 2339POPC   GL132989  34.060  15.469   9.112
 2339POPC   GL232990  33.706  15.400   9.164
 2339POPC   C1A32991  33.739  15.613   8.724
 2339POPC   D2A32992  33.464  15.394   8.424
 2339POPC   C3A32993  33.636  15.426   7.998
 2339POPC   C4A32994  34.054  15.520   7.820
 2339POPC   C1B32995  33.891  15.145   8.763
 2339POPC   C2B32996  34.052  15.254   8.322
 2339POPC   C3B32997  33.952  15.020   7.927
 2339POPC   C4B32998  33.523  14.957   7.709
 2340POPC   NC332999  27.654  34.964   9.565
 2340POPC   PO433000  27.476  35.676   9.573
 2340POPC   GL133001  27.635  35.391   9.277
 2340POPC   GL233002  27.397  35.504   9.062
 2340POPC   C1A33003  27.852  35.333   8.879
 2340POPC   D2A33004  27.881  35.585   8.513
 2340POPC   C3A33005  27.905  35.467   8.103
 2340POPC   C4A33006  27.771  35.655   7.710
 2340POPC   C1B33007  27.079  35.649   8.821
 2340POPC   C2B33008  27.365  35.584   8.511
 2340POPC   C3B33009  27.430  35.642   8.126
 2340POPC   C4B33010  27.275  35.478   7.797
 2341POPC   NC333011  28.255  19.197   9.460
 2341POPC   PO433012  28.728  18.872   9.404
 2341POPC   GL133013  28.561  18.974   9.082
 2341POPC   GL233014  28.762  18.695   8.916
 2341POPC   C1A33015  28.294  19.227   8.803
 2341POPC   D2A33016  28.031  19.353   8.452
 2341POPC   C3A33017  28.200  19.376   8.052
 2341POPC   C4A33018  28.055  19.404   7.656
 2341POPC   C1B33019  28.760  19.057   8.651
 2341POPC   C2B33020  28.563  19.151   8.312
 2341POPC   C3B33021  28.606  19.006   7.915
 2341POPC   C4B33022  28.310  18.708   7.830
 2342POPC   NC333023   1.239  11.096   9.556
 2342POPC   PO433024   0.778  11.400   9.294
 2342POPC   GL133025   0.994  11.152   9.085
 2342POPC   GL233026   0.809  11.286   8.807
 2342POPC   C1A33027   1.339  11.173   8.817
 2342POPC   D2A33028   1.474  11.413   8.460
 2342POPC   C3A33029   1.453  11.178   8.090
 2342POPC   C4A33030   1.362  11.262   7.651
 2342POPC   C1B33031   0.801  10.854   8.731
 2342POPC   C2B33032   0.956  10.834   8.308
 2342POPC   C3B33033   1.006  11.006   7.912
 2342POPC   C4B33034   0.835  11.179   7.533
 2343POPC   NC333035  32.386  36.992   9.581
 2343POPC   PO433036  31.875  36.687   9.440
 2343POPC   GL133037  32.145  36.851   9.143
 2343POPC   GL233038  32.338  36.533   9.061
 2343POPC   C1A33039  32.110  37.172   8.798
 2343POPC   D2A33040  32.399  37.254   8.432
 2343POPC   C3A33041  32.258  37.079   8.046
 2343POPC   C4A33042  32.334  37.116   7.615
 2343POPC   C1B33043  32.019  36.565   8.753
 2343POPC   C2B33044  32.082  36.773   8.423
 2343POPC   C3B33045  32.191  36.564   8.103
 2343POPC   C4B33046  32.283  36.621   7.712
 2344POPC   NC333047  14.181   6.102   9.495
 2344POPC   PO433048  14.874   6.011   9.579
 2344POPC   GL133049  14.624   5.901   9.215
 2344POPC   GL233050  14.260   5.853   9.068
 2344POPC   C1A33051  14.681   5.729   8.809
 2344POPC   D2A33052  14.839   5.833   8.419
 2344POPC   C3A33053  14.618   5.872   8.085
 2344POPC   C4A33054  14.384   5.637   7.769
 2344POPC   C1B33055  14.133   6.157   8.747
 2344POPC   C2B33056  14.276   6.228   8.347
 2344POPC   C3B33057  14.140   6.021   8.003
 2344POPC   C4B33058  13.900   5.945   7.671
 2345POPC   NC333059  44.707  44.924   9.498
 2345POPC   PO433060  44.384   0.571   9.483
 2345POPC   GL133061  44.470   0.313   9.171
 2345POPC   GL233062  44.808   0.320   9.110
 2345POPC   C1A33063  44.326   0.167   8.774
 2345POPC   D2A33064  44.402   0.338   8.361
 2345POPC   C3A33065  44.406   0.128   7.954
 2345POPC   C4A33066  44.505   0.227   7.502
 2345POPC   C1B33067  44.715   0.497   8.729
 2345POPC   C2B33068  44.751   0.688   8.331
 2345POPC   C3B33069  44.712   0.534   7.930
 2345POPC   C4B33070  44.760   0.682   7.526
 2346POPC   NC333071  39.016   4.790   9.650
 2346POPC   PO433072  39.552   5.097   9.459
 2346POPC   GL133073  39.393   4.982   9.079
 2346POPC   GL233074  39.116   4.780   9.155
 2346POPC   C1A33075  39.383   4.966   8.640
 2346POPC   D2A33076  39.371   5.105   8.227
 2346POPC   C3A33077  39.235   4.892   7.862
 2346POPC   C4A33078  39.167   5.026   7.418
 2346POPC   C1B33079  38.923   5.115   8.900
 2346POPC   C2B33080  38.853   5.161   8.457
 2346POPC   C3B33081  38.934   5.308   8.031
 2346POPC   C4B33082  38.742   5.256   7.625
 2347POPC   NC333083  31.936  42.056   9.658
 2347POPC   PO433084  32.272  42.646   9.529
 2347POPC   GL133085  32.318  42.478   9.150
 2347POPC   GL233086  32.415  42.153   9.226
 2347POPC   C1A33087  32.456  42.404   8.756
 2347POPC   D2A33088  32.227  42.272   8.421
 2347POPC   C3A33089  32.357  42.390   8.022
 2347POPC   C4A33090  31.938  42.445   7.892
 2347POPC   C1B33091  32.164  41.958   8.882
 2347POPC   C2B33092  32.176  41.766   8.467
 2347POPC   C3B33093  32.225  41.882   8.043
 2347POPC   C4B33094  32.189  42.069   7.641
 2348POPC   NC333095  14.177  12.705   9.502
 2348POPC   PO433096  14.738  13.046   9.577
 2348POPC   GL133097  14.680  12.811   9.178
 2348POPC   GL233098  14.451  12.536   9.101
 2348POPC   C1A33099  14.601  12.858   8.714
 2348POPC   D2A33100  14.316  12.997   8.379
 2348POPC   C3A33101  14.488  12.980   7.953
 2348POPC   C4A33102  14.248  13.165   7.660
 2348POPC   C1B33103  14.110  12.688   8.793
 2348POPC   C2B33104  14.023  12.520   8.372
 2348POPC   C3B33105  14.054  12.678   7.937
 2348POPC   C4B33106  14.009  12.746   7.491
 2349POPC   NC333107   7.030  18.647   9.528
 2349POPC   PO433108   7.257  18.043   9.471
 2349POPC   GL133109   7.311  18.145   9.049
 2349POPC   GL233110   7.080  18.428   9.059
 2349POPC   C1A33111   7.540  18.063   8.637
 2349POPC   D2A33112   7.685  18.396   8.332
 2349POPC   C3A33113   7.551  18.398   7.930
 2349POPC   C4A33114   7.188  18.487   7.758
 2349POPC   C1B33115   7.134  18.389   8.610
 2349POPC   C2B33116   7.157  18.121   8.240
 2349POPC   C3B33117   6.882  18.115   7.879
 2349POPC   C4B33118   6.876  18.184   7.423
 2350POPC   NC333119  35.588  35.176   9.590
 2350POPC   PO433120  35.011  35.566   9.458
 2350POPC   GL133121  35.354  35.436   9.194
 2350POPC   GL233122  35.438  35.091   9.124
 2350POPC   C1A33123  35.445  35.541   8.763
 2350POPC   D2A33124  35.359  35.670   8.324
 2350POPC   C3A33125  35.568  35.688   7.918
 2350POPC   C4A33126  35.714  35.765   7.494
 2350POPC   C1B33127  35.416  34.894   8.763
 2350POPC   C2B33128  35.400  35.137   8.437
 2350POPC   C3B33129  35.296  35.055   8.070
 2350POPC   C4B33130  35.446  35.236   7.709
 2351POPC   NC333131  19.388  30.514   9.432
 2351POPC   PO433132  19.975  30.691   9.531
 2351POPC   GL133133  19.796  30.657   9.143
 2351POPC   GL233134  19.774  30.302   9.129
 2351POPC   C1A33135  19.705  30.613   8.722
 2351POPC   D2A33136  19.963  30.670   8.370
 2351POPC   C3A33137  19.693  30.680   8.028
 2351POPC   C4A33138  19.515  30.945   7.687
 2351POPC   C1B33139  20.122  30.379   8.804
 2351POPC   C2B33140  20.262  30.254   8.411
 2351POPC   C3B33141  20.297  30.490   7.998
 2351POPC   C4B33142  19.965  30.516   7.616
 2352POPC   NC333143   8.853  24.903   9.725
 2352POPC   PO433144   9.237  25.480   9.475
 2352POPC   GL133145   8.959  25.254   9.208
 2352POPC   GL233146   9.060  24.911   9.244
 2352POPC   C1A33147   8.760  25.273   8.809
 2352POPC   D2A33148   8.825  25.518   8.435
 2352POPC   C3A33149   8.867  25.324   8.045
 2352POPC   C4A33150   8.796  25.067   7.638
 2352POPC   C1B33151   9.175  24.991   8.816
 2352POPC   C2B33152   9.042  24.860   8.403
 2352POPC   C3B33153   9.146  24.923   7.989
 2352POPC   C4B33154   9.274  25.184   7.614
 2353POPC   NC333155   9.079  29.621   9.499
 2353POPC   PO433156   8.796  29.068   9.319
 2353POPC   GL133157   9.001  29.326   9.084
 2353POPC   GL233158   9.326  29.402   9.072
 2353POPC   C1A33159   9.043  29.284   8.647
 2353POPC   D2A33160   8.942  29.406   8.254
 2353POPC   C3A33161   8.952  29.133   7.931
 2353POPC   C4A33162   8.625  29.328   7.750
 2353POPC   C1B33163   9.551  29.281   8.683
 2353POPC   C2B33164   9.450  29.498   8.305
 2353POPC   C3B33165   9.411  29.406   7.857
 2353POPC   C4B33166   9.404  29.338   7.408
 2354POPC   NC333167  12.479  20.423   9.321
 2354POPC   PO433168  12.699  20.976   9.506
 2354POPC   GL133169  12.357  20.983   9.225
 2354POPC   GL233170  11.999  20.895   9.344
 2354POPC   C1A33171  12.286  20.818   8.824
 2354POPC   D2A33172  12.190  20.482   8.535
 2354POPC   C3A33173  12.271  20.531   8.098
 2354POPC   C4A33174  12.276  20.283   7.715
 2354POPC   C1B33175  11.846  20.600   8.996
 2354POPC   C2B33176  11.668  20.552   8.566
 2354POPC   C3B33177  11.745  20.503   8.121
 2354POPC   C4B33178  11.742  20.905   7.956
 2355POPC   NC333179  24.133  37.524   9.567
 2355POPC   PO433180  23.499  37.819   9.529
 2355POPC   GL133181  23.732  37.757   9.176
 2355POPC   GL233182  23.989  37.906   9.170
 2355POPC   C1A33183  23.617  37.796   8.771
 2355POPC   D2A33184  23.615  37.608   8.404
 2355POPC   C3A33185  23.752  37.697   8.050
 2355POPC   C4A33186  23.470  37.588   7.744
 2355POPC   C1B33187  23.997  38.144   8.808
 2355POPC   C2B33188  23.924  38.043   8.389
 2355POPC   C3B33189  24.141  38.025   7.994
 2355POPC   C4B33190  24.062  38.073   7.552
 2356POPC   NC333191  23.506  10.894   9.402
 2356POPC   PO433192  23.815  10.267   9.536
 2356POPC   GL133193  23.707  10.431   9.170
 2356POPC   GL233194  23.570  10.128   9.071
 2356POPC   C1A33195  23.753  10.631   8.774
 2356POPC   D2A33196  24.042  10.624   8.449
 2356POPC   C3A33197  23.916  10.618   8.044
 2356POPC   C4A33198  23.627  10.868   7.832
 2356POPC   C1B33199  23.837  10.117   8.754
 2356POPC   C2B33200  23.659  10.269   8.382
 2356POPC   C3B33201  23.435  10.447   8.049
 2356POPC   C4B33202  23.692  10.309   7.700
 2357POPC   NC333203  23.923  39.621   9.889
 2357POPC   PO433204  23.956  40.179   9.566
 2357POPC   GL133205  23.699  40.229   9.193
 2357POPC   GL233206  23.565  39.882   9.263
 2357POPC   C1A33207  23.636  40.312   8.724
 2357POPC   D2A33208  23.780  39.993   8.401
 2357POPC   C3A33209  23.871  40.001   7.947
 2357POPC   C4A33210  23.903  39.593   7.769
 2357POPC   C1B33211  23.391  39.849   8.840
 2357POPC   C2B33212  23.255  40.073   8.440
 2357POPC   C3B33213  23.355  39.981   8.006
 2357POPC   C4B33214  23.417  40.003   7.570
 2358POPC   NC333215  37.758  44.986   9.618
 2358POPC   PO433216  37.880   0.619   9.669
 2358POPC   GL133217  37.939   0.365   9.303
 2358POPC   GL233218  38.196   0.536   9.156
 2358POPC   C1A33219  37.746   0.289   8.922
 2358POPC   D2A33220  37.797   0.255   8.480
 2358POPC   C3A33221  37.494   0.293   8.143
 2358POPC   C4A33222  37.493   0.373   7.710
 2358POPC   C1B33223  38.101   0.639   8.739
 2358POPC   C2B33224  38.175   0.583   8.313
 2358POPC   C3B33225  37.980   0.388   7.996
 2358POPC   C4B33226  37.894   0.694   7.738
 2359POPC   NC333227  44.427  35.356   9.569
 2359POPC   PO433228   0.089  35.506   9.516
 2359POPC   GL133229  44.806  35.358   9.185
 2359POPC   GL233230  44.470  35.484   9.081
 2359POPC   C1A33231  44.841  35.264   8.746
 2359POPC   D2A33232   0.030  35.373   8.342
 2359POPC   C3A33233  44.722  35.422   8.012
 2359POPC   C4A33234  44.468  35.096   7.920
 2359POPC   C1B33235  44.458  35.583   8.634
 2359POPC   C2B33236  44.252  35.600   8.269
 2359POPC   C3B33237  44.190  35.819   7.890
 2359POPC   C4B33238  44.312  35.780   7.457
 2360POPC   NC333239   2.608   7.085   9.816
 2360POPC   PO433240   2.976   7.492   9.453
 2360POPC   GL133241   2.956   7.443   9.004
 2360POPC   GL233242   2.669   7.674   9.059
 2360POPC   C1A33243   2.935   7.544   8.584
 2360POPC   D2A33244   3.084   7.387   8.197
 2360POPC   C3A33245   2.933   7.649   7.878
 2360POPC   C4A33246   2.618   7.407   7.716
 2360POPC   C1B33247   2.434   7.550   8.682
 2360POPC   C2B33248   2.552   7.671   8.235
 2360POPC   C3B33249   2.409   7.873   7.815
 2360POPC   C4B33250   2.549   7.766   7.351
 2361POPC   NC333251   2.423  18.705   9.441
 2361POPC   PO433252   1.931  19.155   9.336
 2361POPC   GL133253   1.790  19.214   8.979
 2361POPC   GL233254   2.094  19.057   8.861
 2361POPC   C1A33255   1.689  19.076   8.564
 2361POPC   D2A33256   2.036  18.999   8.291
 2361POPC   C3A33257   1.856  18.883   7.917
 2361POPC   C4A33258   1.855  19.046   7.475
 2361POPC   C1B33259   2.460  18.793   8.733
 2361POPC   C2B33260   2.568  18.629   8.305
 2361POPC   C3B33261   2.401  18.865   7.923
 2361POPC   C4B33262   2.160  18.678   7.575
 2362POPC   NC333263  34.118  29.964   9.814
 2362POPC   PO433264  33.612  30.236   9.436
 2362POPC   GL133265  33.611  29.951   9.082
 2362POPC   GL233266  33.331  30.057   9.015
 2362POPC   C1A33267  33.747  29.807   8.704
 2362POPC   D2A33268  33.711  29.945   8.271
 2362POPC   C3A33269  33.865  29.849   7.901
 2362POPC   C4A33270  33.892  30.198   7.658
 2362POPC   C1B33271  33.437  30.213   8.625
 2362POPC   C2B33272  33.251  30.128   8.233
 2362POPC   C3B33273  33.391  30.065   7.821
 2362POPC   C4B33274  33.298  30.335   7.468
 2363POPC   NC333275  20.434  37.451   9.433
 2363POPC   PO433276  20.817  37.875   9.824
 2363POPC   GL133277  20.798  37.884   9.355
 2363POPC   GL233278  20.488  38.017   9.263
 2363POPC   C1A33279  20.797  37.720   8.906
 2363POPC   D2A33280  20.976  37.659   8.487
 2363POPC   C3A33281  20.700  37.544   8.153
 2363POPC   C4A33282  20.847  37.549   7.752
 2363POPC   C1B33283  20.547  38.150   8.831
 2363POPC   C2B33284  20.410  38.155   8.409
 2363POPC   C3B33285  20.551  38.028   8.040
 2363POPC   C4B33286  20.362  37.776   7.766
 2364POPC   NC333287  31.625  39.421   9.569
 2364POPC   PO433288  31.380  38.844   9.302
 2364POPC   GL133289  31.538  39.154   9.132
 2364POPC   GL233290  31.260  39.389   9.195
 2364POPC   C1A33291  31.793  39.032   8.774
 2364POPC   D2A33292  31.591  38.832   8.393
 2364POPC   C3A33293  31.506  39.126   8.024
 2364POPC   C4A33294  31.229  39.186   7.664
 2364POPC   C1B33295  31.422  39.461   8.762
 2364POPC   C2B33296  31.329  39.503   8.332
 2364POPC   C3B33297  31.144  39.611   7.948
 2364POPC   C4B33298  31.464  39.638   7.641
 2365POPC   NC333299  32.770   8.609   9.368
 2365POPC   PO433300  32.938   9.235   9.711
 2365POPC   GL133301  32.925   9.077   9.287
 2365POPC   GL233302  33.224   8.838   9.248
 2365POPC   C1A33303  32.878   9.098   8.819
 2365POPC   D2A33304  33.240   9.109   8.502
 2365POPC   C3A33305  33.098   9.127   8.071
 2365POPC   C4A33306  32.669   9.055   7.859
 2365POPC   C1B33307  33.152   8.683   8.836
 2365POPC   C2B33308  32.878   8.727   8.458
 2365POPC   C3B33309  32.911   8.637   8.018
 2365POPC   C4B33310  33.092   8.849   7.639
 2366POPC   NC333311   8.716  12.024   9.595
 2366POPC   PO433312   9.337  12.105   9.436
 2366POPC   GL133313   9.027  11.948   9.177
 2366POPC   GL233314   8.920  12.254   9.079
 2366POPC   C1A33315   8.977  11.876   8.743
 2366POPC   D2A33316   9.189  12.120   8.451
 2366POPC   C3A33317   9.181  12.031   8.027
 2366POPC   C4A33318   9.284  12.295   7.677
 2366POPC   C1B33319   8.717  12.315   8.638
 2366POPC   C2B33320   8.688  12.057   8.250
 2366POPC   C3B33321   8.742  12.173   7.795
 2366POPC   C4B33322   8.728  12.195   7.349
 2367POPC   NC333323  21.281  19.357   9.446
 2367POPC   PO433324  21.581  18.789   9.483
 2367POPC   GL133325  21.549  19.036   9.140
 2367POPC   GL233326  21.186  18.930   9.138
 2367POPC   C1A33327  21.345  19.287   8.787
 2367POPC   D2A33328  21.031  19.362   8.464
 2367POPC   C3A33329  21.197  19.332   8.036
 2367POPC   C4A33330  21.589  19.267   7.774
 2367POPC   C1B33331  21.361  18.785   8.761
 2367POPC   C2B33332  21.296  18.900   8.351
 2367POPC   C3B33333  21.340  18.848   7.916
 2367POPC   C4B33334  20.970  19.027   7.708
 2368POPC   NC333335  32.571  15.451   9.585
 2368POPC   PO433336  32.077  15.737   9.682
 2368POPC   GL133337  32.224  15.662   9.201
 2368POPC   GL233338  32.549  15.567   9.092
 2368POPC   C1A33339  32.225  15.440   8.730
 2368POPC   D2A33340  32.453  15.241   8.361
 2368POPC   C3A33341  32.260  15.142   7.954
 2368POPC   C4A33342  32.201  14.953   7.517
 2368POPC   C1B33343  32.725  15.676   8.721
 2368POPC   C2B33344  32.949  15.600   8.336
 2368POPC   C3B33345  33.034  15.280   8.016
 2368POPC   C4B33346  32.749  15.039   7.749
 2369POPC   NC333347  44.777  26.992   9.747
 2369POPC   PO433348  44.421  27.569   9.511
 2369POPC   GL133349  44.512  27.403   9.141
 2369POPC   GL233350  44.349  27.089   9.231
 2369POPC   C1A33351  44.690  27.387   8.727
 2369POPC   D2A33352  44.614  27.654   8.380
 2369POPC   C3A33353  44.873  27.709   8.000
 2369POPC   C4A33354  44.814  27.870   7.582
 2369POPC   C1B33355  44.218  27.142   8.798
 2369POPC   C2B33356  44.427  27.151   8.385
 2369POPC   C3B33357  44.462  27.355   8.011
 2369POPC   C4B33358  44.296  27.164   7.692
 2370POPC   NC333359  24.053  14.001   9.410
 2370POPC   PO433360  24.187  14.635   9.223
 2370POPC   GL133361  23.713  14.550   9.122
 2370POPC   GL233362  23.445  14.822   9.190
 2370POPC   C1A33363  23.624  14.271   8.778
 2370POPC   D2A33364  23.902  14.290   8.407
 2370POPC   C3A33365  23.795  14.306   7.964
 2370POPC   C4A33366  23.946  14.128   7.563
 2370POPC   C1B33367  23.300  14.683   8.796
 2370POPC   C2B33368  23.401  14.522   8.382
 2370POPC   C3B33369  23.464  14.755   8.015
 2370POPC   C4B33370  23.663  14.650   7.601
 2371POPC   NC333371  43.505  20.337   9.386
 2371POPC   PO433372  43.572  20.964   9.707
 2371POPC   GL133373  43.839  20.938   9.279
 2371POPC   GL233374  43.676  20.669   9.039
 2371POPC   C1A33375  44.127  20.780   8.913
 2371POPC   D2A33376  43.940  20.640   8.514
 2371POPC   C3A33377  43.905  20.853   8.131
 2371POPC   C4A33378  44.166  20.840   7.760
 2371POPC   C1B33379  43.592  20.352   8.713
 2371POPC   C2B33380  43.520  20.400   8.257
 2371POPC   C3B33381  43.677  20.464   7.848
 2371POPC   C4B33382  43.568  20.275   7.479
 2372POPC   NC333383  42.070  26.233   9.451
 2372POPC   PO433384  42.297  25.603   9.544
 2372POPC   GL133385  42.118  25.804   9.152
 2372POPC   GL233386  42.410  25.997   9.112
 2372POPC   C1A33387  42.089  26.106   8.745
 2372POPC   D2A33388  42.144  26.317   8.314
 2372POPC   C3A33389  42.024  26.074   7.914
 2372POPC   C4A33390  42.124  26.098   7.450
 2372POPC   C1B33391  42.717  25.870   8.808
 2372POPC   C2B33392  42.558  26.050   8.452
 2372POPC   C3B33393  42.532  26.109   8.019
 2372POPC   C4B33394  42.603  26.041   7.601
 2373POPC   NC333395  28.154  20.045   9.603
 2373POPC   PO433396  28.575  19.558   9.540
 2373POPC   GL133397  28.311  19.666   9.215
 2373POPC   GL233398  28.533  19.928   9.131
 2373POPC   C1A33399  28.252  19.725   8.762
 2373POPC   D2A33400  28.363  19.933   8.418
 2373POPC   C3A33401  28.104  19.870   8.086
 2373POPC   C4A33402  28.255  19.924   7.680
 2373POPC   C1B33403  28.724  19.526   8.907
 2373POPC   C2B33404  28.838  19.541   8.473
 2373POPC   C3B33405  28.635  19.640   8.107
 2373POPC   C4B33406  28.571  19.496   7.709
 2374POPC   NC333407   5.984  27.986   9.548
 2374POPC   PO433408   5.825  28.609   9.512
 2374POPC   GL133409   6.101  28.388   9.229
 2374POPC   GL233410   5.811  28.197   9.109
 2374POPC   C1A33411   6.149  28.422   8.773
 2374POPC   D2A33412   5.906  28.655   8.445
 2374POPC   C3A33413   6.021  28.661   8.006
 2374POPC   C4A33414   5.961  28.323   7.738
 2374POPC   C1B33415   5.648  28.278   8.665
 2374POPC   C2B33416   5.680  28.305   8.175
 2374POPC   C3B33417   5.533  28.588   7.823
 2374POPC   C4B33418   5.604  28.502   7.363
 2375POPC   NC333419  15.422  23.177   9.387
 2375POPC   PO433420  14.852  22.788   9.516
 2375POPC   GL133421  15.100  22.837   9.128
 2375POPC   GL233422  15.092  23.159   8.919
 2375POPC   C1A33423  15.100  22.661   8.701
 2375POPC   D2A33424  14.937  22.749   8.283
 2375POPC   C3A33425  15.048  23.098   8.016
 2375POPC   C4A33426  15.180  22.814   7.711
 2375POPC   C1B33427  15.462  23.027   8.695
 2375POPC   C2B33428  15.499  22.948   8.259
 2375POPC   C3B33429  15.587  23.128   7.887
 2375POPC   C4B33430  15.359  23.244   7.538
 2376POPC   NC333431   6.852   5.397   9.623
 2376POPC   PO433432   6.769   4.780   9.632
 2376POPC   GL133433   6.920   5.023   9.243
 2376POPC   GL233434   6.720   5.336   9.136
 2376POPC   C1A33435   6.970   5.114   8.760
 2376POPC   D2A33436   7.109   5.150   8.336
 2376POPC   C3A33437   6.749   5.098   8.054
 2376POPC   C4A33438   6.507   4.946   7.671
 2376POPC   C1B33439   6.553   5.415   8.700
 2376POPC   C2B33440   6.599   5.569   8.278
 2376POPC   C3B33441   6.485   5.610   7.837
 2376POPC   C4B33442   6.332   5.388   7.435
 2377POPC   NC333443  34.147  31.506   9.644
 2377POPC   PO433444  33.508  31.209   9.645
 2377POPC   GL133445  33.742  31.428   9.317
 2377POPC   GL233446  33.722  31.749   9.249
 2377POPC   C1A33447  33.994  31.440   8.932
 2377POPC   D2A33448  34.094  31.141   8.620
 2377POPC   C3A33449  34.034  31.230   8.163
 2377POPC   C4A33450  34.040  31.589   7.854
 2377POPC   C1B33451  33.490  31.569   8.883
 2377POPC   C2B33452  33.638  31.420   8.483
 2377POPC   C3B33453  33.548  31.525   8.051
 2377POPC   C4B33454  33.221  31.362   7.774
 2378POPC   NC333455   9.271  12.559   9.521
 2378POPC   PO433456   9.979  12.961   9.462
 2378POPC   GL133457   9.735  12.983   9.094
 2378POPC   GL233458   9.621  12.690   9.163
 2378POPC   C1A33459   9.411  12.869   8.748
 2378POPC   D2A33460   9.234  12.629   8.409
 2378POPC   C3A33461   9.490  12.490   8.094
 2378POPC   C4A33462   9.599  12.751   7.758
 2378POPC   C1B33463   9.867  12.637   8.746
 2378POPC   C2B33464   9.895  12.705   8.320
 2378POPC   C3B33465  10.074  12.676   7.916
 2378POPC   C4B33466  10.089  12.697   7.472
 2379POPC   NC333467  27.398  19.488   9.561
 2379POPC   PO433468  27.696  20.035   9.597
 2379POPC   GL133469  27.532  19.872   9.220
 2379POPC   GL233470  27.819  19.701   9.073
 2379POPC   C1A33471  27.438  19.864   8.780
 2379POPC   D2A33472  27.765  19.788   8.494
 2379POPC   C3A33473  27.665  19.554   8.121
 2379POPC   C4A33474  27.722  19.767   7.741
 2379POPC   C1B33475  27.935  20.091   8.901
 2379POPC   C2B33476  27.963  20.257   8.469
 2379POPC   C3B33477  27.676  20.147   8.136
 2379POPC   C4B33478  27.753  20.260   7.725
 2380POPC   NC333479  37.583  38.072   9.766
 2380POPC   PO433480  37.376  37.692   9.280
 2380POPC   GL133481  37.614  37.603   8.976
 2380POPC   GL233482  37.865  37.436   9.145
 2380POPC   C1A33483  37.686  37.303   8.677
 2380POPC   D2A33484  37.681  37.177   8.284
 2380POPC   C3A33485  37.811  37.512   8.091
 2380POPC   C4A33486  37.588  37.662   7.808
 2380POPC   C1B33487  38.102  37.677   8.844
 2380POPC   C2B33488  38.087  37.769   8.430
 2380POPC   C3B33489  38.117  37.938   8.035
 2380POPC   C4B33490  38.074  37.714   7.654
 2381POPC   NC333491   5.473  14.268   9.440
 2381POPC   PO433492   4.836  14.605   9.399
 2381POPC   GL133493   5.048  14.364   9.125
 2381POPC   GL233494   5.353  14.545   9.017
 2381POPC   C1A33495   4.929  14.265   8.729
 2381POPC   D2A33496   4.798  14.487   8.394
 2381POPC   C3A33497   5.065  14.518   8.046
 2381POPC   C4A33498   4.785  14.186   7.942
 2381POPC   C1B33499   5.467  14.264   8.650
 2381POPC   C2B33500   5.247  14.084   8.264
 2381POPC   C3B33501   5.280  14.111   7.780
 2381POPC   C4B33502   5.272  14.096   7.284
 2382POPC   NC333503  31.249  17.602   9.891
 2382POPC   PO433504  31.791  17.439   9.627
 2382POPC   GL133505  31.553  17.482   9.258
 2382POPC   GL233506  31.228  17.694   9.286
 2382POPC   C1A33507  31.635  17.488   8.809
 2382POPC   D2A33508  31.406  17.494   8.403
 2382POPC   C3A33509  31.614  17.711   8.087
 2382POPC   C4A33510  31.877  17.570   7.770
 2382POPC   C1B33511  31.168  17.721   8.806
 2382POPC   C2B33512  31.114  17.912   8.346
 2382POPC   C3B33513  31.140  17.688   7.936
 2382POPC   C4B33514  31.378  17.399   7.672
 2383POPC   NC333515  24.613  40.492   9.481
 2383POPC   PO433516  24.365  41.033   9.247
 2383POPC   GL133517  24.535  40.685   9.009
 2383POPC   GL233518  24.882  40.529   9.048
 2383POPC   C1A33519  24.524  40.690   8.594
 2383POPC   D2A33520  24.805  40.943   8.332
 2383POPC   C3A33521  24.560  40.912   7.997
 2383POPC   C4A33522  24.152  40.945   7.841
 2383POPC   C1B33523  25.018  40.577   8.632
 2383POPC   C2B33524  24.796  40.436   8.240
 2383POPC   C3B33525  24.715  40.411   7.834
 2383POPC   C4B33526  24.470  40.666   7.525
 2384POPC   NC333527  13.200  37.124   9.548
 2384POPC   PO433528  12.601  36.730   9.410
 2384POPC   GL133529  12.900  36.822   9.128
 2384POPC   GL233530  12.884  37.181   9.144
 2384POPC   C1A33531  12.947  36.662   8.691
 2384POPC   D2A33532  13.035  36.760   8.256
 2384POPC   C3A33533  12.697  36.701   7.979
 2384POPC   C4A33534  12.615  37.034   7.711
 2384POPC   C1B33535  13.202  37.071   8.824
 2384POPC   C2B33536  13.193  37.221   8.427
 2384POPC   C3B33537  12.981  37.281   8.041
 2384POPC   C4B33538  13.073  37.224   7.627
 2385POPC   NC333539  13.166  19.184   9.709
 2385POPC   PO433540  12.436  19.289   9.501
 2385POPC   GL133541  12.659  19.065   9.151
 2385POPC   GL233542  13.026  19.064   9.148
 2385POPC   C1A33543  12.660  18.889   8.732
 2385POPC   D2A33544  12.882  18.738   8.350
 2385POPC   C3A33545  12.635  18.910   7.993
 2385POPC   C4A33546  12.733  19.085   7.573
 2385POPC   C1B33547  13.184  18.975   8.708
 2385POPC   C2B33548  13.341  19.095   8.276
 2385POPC   C3B33549  13.127  19.111   7.885
 2385POPC   C4B33550  13.198  19.267   7.444
 2386POPC   NC333551  42.724  10.691   9.702
 2386POPC   PO433552  42.370  10.191   9.525
 2386POPC   GL133553  42.402  10.419   9.183
 2386POPC   GL233554  42.586  10.727   9.207
 2386POPC   C1A33555  42.342  10.536   8.781
 2386POPC   D2A33556  42.164  10.372   8.428
 2386POPC   C3A33557  42.350  10.429   8.024
 2386POPC   C4A33558  42.406  10.542   7.600
 2386POPC   C1B33559  42.710  10.884   8.785
 2386POPC   C2B33560  42.511  10.771   8.370
 2386POPC   C3B33561  42.481  10.922   7.947
 2386POPC   C4B33562  42.600  11.020   7.511
 2387POPC   NC333563  18.563  23.106   9.516
 2387POPC   PO433564  18.017  22.962   9.752
 2387POPC   GL133565  18.174  22.986   9.212
 2387POPC   GL233566  18.281  22.717   9.027
 2387POPC   C1A33567  18.444  23.164   8.830
 2387POPC   D2A33568  18.397  23.227   8.358
 2387POPC   C3A33569  18.504  22.872   8.042
 2387POPC   C4A33570  18.382  22.876   7.569
 2387POPC   C1B33571  18.022  22.657   8.679
 2387POPC   C2B33572  17.991  22.831   8.255
 2387POPC   C3B33573  18.075  22.631   7.884
 2387POPC   C4B33574  18.112  22.256   7.698
 2388POPC   NC333575  37.945  42.901   9.481
 2388POPC   PO433576  37.360  43.210   9.458
 2388POPC   GL133577  37.573  42.983   9.140
 2388POPC   GL233578  37.870  43.224   9.071
 2388POPC   C1A33579  37.718  42.859   8.737
 2388POPC   D2A33580  37.639  43.064   8.364
 2388POPC   C3A33581  37.846  42.844   8.068
 2388POPC   C4A33582  37.491  42.899   7.807
 2388POPC   C1B33583  37.518  43.370   8.781
 2388POPC   C2B33584  37.304  43.514   8.403
 2388POPC   C3B33585  37.499  43.425   8.010
 2388POPC   C4B33586  37.487  43.430   7.596
 2389POPC   NC333587  11.113  24.052   9.466
 2389POPC   PO433588  11.627  23.588   9.605
 2389POPC   GL133589  11.461  23.534   9.191
 2389POPC   GL233590  11.137  23.352   9.163
 2389POPC   C1A33591  11.261  23.774   8.848
 2389POPC   D2A33592  11.350  23.977   8.464
 2389POPC   C3A33593  11.318  23.769   8.067
 2389POPC   C4A33594  11.068  23.938   7.742
 2389POPC   C1B33595  11.336  23.293   8.741
 2389POPC   C2B33596  11.185  23.244   8.339
 2389POPC   C3B33597  10.963  23.388   8.009
 2389POPC   C4B33598  11.040  23.456   7.634
 2390POPC   NC333599   0.168  20.129   9.385
 2390POPC   PO433600   0.523  19.632   9.576
 2390POPC   GL133601   0.503  19.880   9.107
 2390POPC   GL233602   0.354  20.207   8.915
 2390POPC   C1A33603   0.371  19.769   8.649
 2390POPC   D2A33604   0.184  19.550   8.290
 2390POPC   C3A33605   0.393  19.653   7.916
 2390POPC   C4A33606   0.667  19.838   7.624
 2390POPC   C1B33607   0.761  20.115   8.730
 2390POPC   C2B33608   0.878  19.869   8.369
 2390POPC   C3B33609   0.790  20.124   8.008
 2390POPC   C4B33610   0.347  20.196   7.903
 2391POPC   NC333611   7.702  44.857   9.428
 2391POPC   PO433612   8.228  44.552   9.721
 2391POPC   GL133613   8.180  44.757   9.271
 2391POPC   GL233614   7.973  44.528   9.100
 2391POPC   C1A33615   8.018  44.932   8.811
 2391POPC   D2A33616   8.251  44.888   8.408
 2391POPC   C3A33617   8.107  44.801   7.986
 2391POPC   C4A33618   8.499  44.758   7.743
 2391POPC   C1B33619   8.053  44.434   8.661
 2391POPC   C2B33620   7.996  44.326   8.207
 2391POPC   C3B33621   8.274  44.312   7.820
 2391POPC   C4B33622   8.138  44.360   7.364
 2392POPC   NC333623  30.259  16.369   9.645
 2392POPC   PO433624  29.772  15.987   9.760
 2392POPC   GL133625  29.811  16.075   9.281
 2392POPC   GL233626  30.135  16.228   9.155
 2392POPC   C1A33627  29.792  16.104   8.786
 2392POPC   D2A33628  29.569  16.029   8.366
 2392POPC   C3A33629  29.719  16.047   7.933
 2392POPC   C4A33630  29.696  15.656   7.647
 2392POPC   C1B33631  30.291  16.114   8.720
 2392POPC   C2B33632  30.080  15.982   8.333
 2392POPC   C3B33633  30.229  16.016   7.902
 2392POPC   C4B33634  30.487  16.013   7.510
 2393POPC   NC333635   5.092  10.060   9.688
 2393POPC   PO433636   5.112  10.671   9.396
 2393POPC   GL133637   4.878  10.535   9.017
 2393POPC   GL233638   4.842  10.182   8.952
 2393POPC   C1A33639   4.913  10.516   8.556
 2393POPC   D2A33640   5.318  10.526   8.329
 2393POPC   C3A33641   5.271  10.649   7.909
 2393POPC   C4A33642   4.829  10.669   7.762
 2393POPC   C1B33643   5.279  10.228   8.773
 2393POPC   C2B33644   5.541  10.058   8.425
 2393POPC   C3B33645   5.455  10.137   8.023
 2393POPC   C4B33646   5.166  10.170   7.708
 2394POPC   NC333647  22.657  12.897   9.474
 2394POPC   PO433648  23.357  13.015   9.399
 2394POPC   GL133649  23.049  12.933   9.129
 2394POPC   GL233650  22.899  13.277   9.149
 2394POPC   C1A33651  22.847  12.643   8.817
 2394POPC   D2A33652  22.950  12.576   8.369
 2394POPC   C3A33653  22.855  12.836   8.012
 2394POPC   C4A33654  22.871  12.733   7.579
 2394POPC   C1B33655  22.893  13.136   8.694
 2394POPC   C2B33656  22.565  12.914   8.431
 2394POPC   C3B33657  22.356  12.920   7.996
 2394POPC   C4B33658  22.498  13.254   7.720
 2395POPC   NC333659  26.392  17.670   9.396
 2395POPC   PO433660  25.858  17.276   9.483
 2395POPC   GL133661  26.030  17.254   9.093
 2395POPC   GL233662  26.362  17.188   9.144
 2395POPC   C1A33663  25.891  17.252   8.687
 2395POPC   D2A33664  25.963  17.540   8.365
 2395POPC   C3A33665  25.850  17.287   8.045
 2395POPC   C4A33666  25.720  17.321   7.634
 2395POPC   C1B33667  26.340  17.526   8.755
 2395POPC   C2B33668  26.439  17.730   8.316
 2395POPC   C3B33669  26.254  17.661   7.887
 2395POPC   C4B33670  26.296  17.353   7.548
 2396POPC   NC333671  36.884   7.826   9.457
 2396POPC   PO433672  36.438   8.327   9.732
 2396POPC   GL133673  36.878   8.359   9.405
 2396POPC   GL233674  36.810   8.157   9.090
 2396POPC   C1A33675  37.123   8.515   8.971
 2396POPC   D2A33676  37.159   8.583   8.498
 2396POPC   C3A33677  37.000   8.291   8.175
 2396POPC   C4A33678  37.018   8.252   7.717
 2396POPC   C1B33679  37.024   8.008   8.719
 2396POPC   C2B33680  36.986   7.802   8.317
 2396POPC   C3B33681  36.758   7.851   7.896
 2396POPC   C4B33682  36.471   8.114   7.582
 2397POPC   NC333683  14.253  25.948   9.773
 2397POPC   PO433684  14.935  26.037   9.609
 2397POPC   GL133685  14.658  25.844   9.313
 2397POPC   GL233686  14.324  26.009   9.254
 2397POPC   C1A33687  14.651  25.878   8.870
 2397POPC   D2A33688  14.744  25.717   8.468
 2397POPC   C3A33689  14.603  25.964   8.141
 2397POPC   C4A33690  14.767  26.094   7.744
 2397POPC   C1B33691  14.128  25.898   8.846
 2397POPC   C2B33692  14.025  26.048   8.422
 2397POPC   C3B33693  14.010  25.896   7.998
 2397POPC   C4B33694  14.313  25.891   7.724
 2398POPC   NC333695  12.168  11.062   9.528
 2398POPC   PO433696  11.764  11.652   9.412
 2398POPC   GL133697  11.938  11.306   9.119
 2398POPC   GL233698  11.840  10.949   9.123
 2398POPC   C1A33699  12.092  11.406   8.715
 2398POPC   D2A33700  12.159  11.264   8.326
 2398POPC   C3A33701  12.091  11.580   8.047
 2398POPC   C4A33702  12.298  11.510   7.700
 2398POPC   C1B33703  11.706  11.057   8.683
 2398POPC   C2B33704  11.735  11.031   8.218
 2398POPC   C3B33705  11.969  11.105   7.828
 2398POPC   C4B33706  11.817  11.131   7.326
 2399POPC   NC333707  35.954  41.634   9.732
 2399POPC   PO433708  35.309  41.490   9.567
 2399POPC   GL133709  35.377  41.296   9.153
 2399POPC   GL233710  35.723  41.324   9.014
 2399POPC   C1A33711  35.095  41.344   8.800
 2399POPC   D2A33712  34.994  41.207   8.392
 2399POPC   C3A33713  34.949  41.473   8.033
 2399POPC   C4A33714  35.181  41.406   7.660
 2399POPC   C1B33715  35.527  41.677   8.795
 2399POPC   C2B33716  35.292  41.641   8.406
 2399POPC   C3B33717  35.484  41.396   8.071
 2399POPC   C4B33718  35.730  41.601   7.719
 2400POPC   NC333719  16.613  37.554   9.759
 2400POPC   PO433720  16.929  38.095   9.719
 2400POPC   GL133721  16.711  37.877   9.297
 2400POPC   GL233722  16.579  37.518   9.256
 2400POPC   C1A33723  16.651  37.827   8.800
 2400POPC   D2A33724  16.911  37.806   8.382
 2400POPC   C3A33725  16.707  37.837   7.983
 2400POPC   C4A33726  16.792  38.046   7.581
 2400POPC   C1B33727  16.737  37.277   8.913
 2400POPC   C2B33728  16.678  37.370   8.501
 2400POPC   C3B33729  16.832  37.349   8.092
 2400POPC   C4B33730  16.864  37.198   7.673
 2401POPC   NC333731  14.160  20.019   9.405
 2401POPC   PO433732  14.761  19.668   9.570
 2401POPC   GL133733  14.558  19.744   9.188
 2401POPC   GL233734  14.615  20.107   9.188
 2401POPC   C1A33735  14.288  19.715   8.819
 2401POPC   D2A33736  14.278  19.987   8.429
 2401POPC   C3A33737  14.271  19.752   8.027
 2401POPC   C4A33738  14.002  19.643   7.685
 2401POPC   C1B33739  14.682  20.030   8.761
 2401POPC   C2B33740  14.692  19.682   8.454
 2401POPC   C3B33741  14.794  19.646   8.026
 2401POPC   C4B33742  14.681  19.925   7.705
 2402POPC   NC333743   1.567  43.707   9.461
 2402POPC   PO433744   2.246  43.957   9.378
 2402POPC   GL133745   1.846  43.915   9.085
 2402POPC   GL233746   1.658  43.595   8.957
 2402POPC   C1A33747   1.679  44.014   8.661
 2402POPC   D2A33748   1.900  43.937   8.260
 2402POPC   C3A33749   1.838  44.046   7.853
 2402POPC   C4A33750   1.661  43.639   7.820
 2402POPC   C1B33751   2.013  43.605   8.666
 2402POPC   C2B33752   2.325  43.642   8.328
 2402POPC   C3B33753   2.249  43.694   7.891
 2402POPC   C4B33754   2.365  43.407   7.517
 2403POPC   NC333755  43.009  39.691   9.430
 2403POPC   PO433756  43.285  40.282   9.336
 2403POPC   GL133757  43.061  40.072   9.036
 2403POPC   GL233758  43.261  39.797   8.992
 2403POPC   C1A33759  42.980  39.922   8.606
 2403POPC   D2A33760  43.217  39.901   8.230
 2403POPC   C3A33761  42.954  39.708   7.902
 2403POPC   C4A33762  42.862  39.833   7.441
 2403POPC   C1B33763  43.452  40.140   8.702
 2403POPC   C2B33764  43.660  40.292   8.327
 2403POPC   C3B33765  43.603  40.193   7.912
 2403POPC   C4B33766  43.275  40.021   7.684
 2404POPC   NC333767  24.677  29.579   9.486
 2404POPC   PO433768  24.796  28.886   9.440
 2404POPC   GL133769  24.601  29.133   9.104
 2404POPC   GL233770  24.307  29.354   9.197
 2404POPC   C1A33771  24.557  29.017   8.663
 2404POPC   D2A33772  24.751  29.122   8.274
 2404POPC   C3A33773  24.549  28.922   7.944
 2404POPC   C4A33774  24.650  28.871   7.530
 2404POPC   C1B33775  24.105  29.216   8.829
 2404POPC   C2B33776  24.224  29.328   8.407
 2404POPC   C3B33777  24.118  29.215   8.011
 2404POPC   C4B33778  24.290  29.253   7.596
 2405POPC   NC333779  34.244  25.904   9.391
 2405POPC   PO433780  34.747  26.358   9.524
 2405POPC   GL133781  34.539  26.275   9.136
 2405POPC   GL233782  34.214  26.207   8.957
 2405POPC   C1A33783  34.753  26.099   8.780
 2405POPC   D2A33784  34.922  25.838   8.454
 2405POPC   C3A33785  34.654  25.844   8.086
 2405POPC   C4A33786  34.771  26.109   7.753
 2405POPC   C1B33787  34.336  25.829   8.683
 2405POPC   C2B33788  34.258  25.541   8.326
 2405POPC   C3B33789  34.218  25.563   7.892
 2405POPC   C4B33790  34.309  25.875   7.617
 2406POPC   NC333791  32.408  39.450   9.489
 2406POPC   PO433792  31.927  39.032   9.619
 2406POPC   GL133793  32.002  39.294   9.250
 2406POPC   GL233794  32.271  39.142   9.104
 2406POPC   C1A33795  31.964  39.513   8.875
 2406POPC   D2A33796  31.825  39.440   8.433
 2406POPC   C3A33797  31.986  39.638   8.050
 2406POPC   C4A33798  32.131  39.432   7.688
 2406POPC   C1B33799  32.441  39.288   8.737
 2406POPC   C2B33800  32.592  39.397   8.333
 2406POPC   C3B33801  32.499  39.195   7.943
 2406POPC   C4B33802  32.646  38.841   7.704
 2407POPC   NC333803  11.412  30.053   9.426
 2407POPC   PO433804  10.786  29.770   9.507
 2407POPC   GL133805  11.078  29.737   9.158
 2407POPC   GL233806  11.062  30.108   9.063
 2407POPC   C1A33807  11.330  29.653   8.767
 2407POPC   D2A33808  11.409  29.903   8.375
 2407POPC   C3A33809  11.433  29.760   7.939
 2407POPC   C4A33810  11.318  29.804   7.472
 2407POPC   C1B33811  11.119  30.266   8.638
 2407POPC   C2B33812  11.189  30.370   8.214
 2407POPC   C3B33813  11.136  30.154   7.814
 2407POPC   C4B33814  11.050  30.271   7.376
 2408POPC   NC333815  33.542  30.738   9.551
 2408POPC   PO433816  34.183  30.397   9.617
 2408POPC   GL133817  33.987  30.611   9.269
 2408POPC   GL233818  33.873  30.950   9.236
 2408POPC   C1A33819  33.877  30.621   8.833
 2408POPC   D2A33820  33.925  30.385   8.459
 2408POPC   C3A33821  33.671  30.446   8.088
 2408POPC   C4A33822  33.665  30.650   7.663
 2408POPC   C1B33823  33.650  31.078   8.878
 2408POPC   C2B33824  33.651  30.900   8.458
 2408POPC   C3B33825  33.489  30.981   8.061
 2408POPC   C4B33826  33.717  31.156   7.734
 2409POPC   NC333827  10.963  35.175   9.533
 2409POPC   PO433828  11.580  35.541   9.515
 2409POPC   GL133829  11.351  35.333   9.220
 2409POPC   GL233830  11.566  35.045   9.235
 2409POPC   C1A33831  11.224  35.407   8.798
 2409POPC   D2A33832  11.309  35.185   8.409
 2409POPC   C3A33833  11.449  35.481   8.118
 2409POPC   C4A33834  11.234  35.624   7.780
 2409POPC   C1B33835  11.643  35.083   8.795
 2409POPC   C2B33836  11.812  35.049   8.370
 2409POPC   C3B33837  11.713  35.082   7.950
 2409POPC   C4B33838  11.341  35.107   7.724
 2410POPC   NC333839  16.508   1.740   9.435
 2410POPC   PO433840  17.066   2.171   9.414
 2410POPC   GL133841  16.790   2.046   9.108
 2410POPC   GL233842  16.493   2.137   9.099
 2410POPC   C1A33843  16.934   2.109   8.708
 2410POPC   D2A33844  17.138   2.039   8.321
 2410POPC   C3A33845  16.946   2.236   7.994
 2410POPC   C4A33846  16.722   2.039   7.674
 2410POPC   C1B33847  16.406   2.027   8.696
 2410POPC   C2B33848  16.542   2.158   8.298
 2410POPC   C3B33849  16.352   2.295   7.919
 2410POPC   C4B33850  16.206   1.921   7.718
 2411POPC   NC333851  12.174  42.880   9.499
 2411POPC   PO433852  11.746  43.323   9.575
 2411POPC   GL133853  11.925  43.192   9.189
 2411POPC   GL233854  11.773  43.405   9.047
 2411POPC   C1A33855  11.936  43.092   8.693
 2411POPC   D2A33856  12.181  42.922   8.362
 2411POPC   C3A33857  12.147  42.877   7.928
 2411POPC   C4A33858  12.083  43.031   7.483
 2411POPC   C1B33859  12.261  43.429   8.897
 2411POPC   C2B33860  12.386  43.376   8.463
 2411POPC   C3B33861  12.186  43.362   8.080
 2411POPC   C4B33862  12.175  43.566   7.709
 2412POPC   NC333863  23.785  17.451   9.527
 2412POPC   PO433864  23.131  17.378   9.706
 2412POPC   GL133865  23.315  17.518   9.327
 2412POPC   GL233866  23.463  17.238   9.147
 2412POPC   C1A33867  23.491  17.688   8.912
 2412POPC   D2A33868  23.771  17.666   8.519
 2412POPC   C3A33869  23.572  17.727   8.099
 2412POPC   C4A33870  23.633  17.526   7.695
 2412POPC   C1B33871  23.830  17.260   8.877
 2412POPC   C2B33872  23.862  17.146   8.447
 2412POPC   C3B33873  23.950  17.356   8.075
 2412POPC   C4B33874  24.091  17.324   7.656
 2413POPC   NC333875   0.258  13.320   9.459
 2413POPC   PO433876   0.812  13.545   9.523
 2413POPC   GL133877   0.625  13.502   9.108
 2413POPC   GL233878   0.258  13.488   8.995
 2413POPC   C1A33879   0.586  13.764   8.729
 2413POPC   D2A33880   0.753  13.723   8.318
 2413POPC   C3A33881   0.640  13.410   8.026
 2413POPC   C4A33882   0.435  13.487   7.667
 2413POPC   C1B33883   0.085  13.622   8.599
 2413POPC   C2B33884   0.231  13.699   8.173
 2413POPC   C3B33885   0.094  13.851   7.788
 2413POPC   C4B33886   0.034  13.623   7.382
 2414POPC   NC333887  44.184  34.653   9.591
 2414POPC   PO433888  43.591  34.278   9.810
 2414POPC   GL133889  43.617  34.465   9.382
 2414POPC   GL233890  43.905  34.371   9.244
 2414POPC   C1A33891  43.692  34.762   8.999
 2414POPC   D2A33892  43.822  34.710   8.558
 2414POPC   C3A33893  43.541  34.735   8.212
 2414POPC   C4A33894  43.649  34.980   7.875
 2414POPC   C1B33895  43.671  34.282   8.850
 2414POPC   C2B33896  43.709  34.229   8.402
 2414POPC   C3B33897  43.604  34.264   7.999
 2414POPC   C4B33898  43.803  34.481   7.703
 2415POPC   NC333899  42.133  41.731   9.389
 2415POPC   PO433900  42.429  41.069   9.427
 2415POPC   GL133901  42.506  41.361   9.084
 2415POPC   GL233902  42.189  41.469   8.959
 2415POPC   C1A33903  42.553  41.515   8.636
 2415POPC   D2A33904  42.232  41.532   8.318
 2415POPC   C3A33905  42.457  41.480   7.922
 2415POPC   C4A33906  42.522  41.845   7.682
 2415POPC   C1B33907  42.110  41.859   8.734
 2415POPC   C2B33908  41.892  41.973   8.351
 2415POPC   C3B33909  42.034  41.862   7.940
 2415POPC   C4B33910  42.039  41.536   7.646
 2416POPC   NC333911  16.443  38.326   9.408
 2416POPC   PO433912  17.038  38.670   9.536
 2416POPC   GL133913  16.727  38.820   9.184
 2416POPC   GL233914  16.351  38.726   9.089
 2416POPC   C1A33915  16.753  38.712   8.753
 2416POPC   D2A33916  16.871  38.302   8.543
 2416POPC   C3A33917  16.824  38.367   8.096
 2416POPC   C4A33918  16.568  38.665   7.859
 2416POPC   C1B33919  16.408  38.333   8.770
 2416POPC   C2B33920  16.459  38.104   8.354
 2416POPC   C3B33921  16.343  38.189   7.905
 2416POPC   C4B33922  16.310  38.106   7.451
 2417POPC   NC333923  14.542   2.654   9.620
 2417POPC   PO433924  14.050   2.419   9.313
 2417POPC   GL133925  14.399   2.595   9.133
 2417POPC   GL233926  14.750   2.459   9.184
 2417POPC   C1A33927  14.353   2.796   8.767
 2417POPC   D2A33928  14.156   2.604   8.422
 2417POPC   C3A33929  14.363   2.727   8.052
 2417POPC   C4A33930  14.231   2.872   7.632
 2417POPC   C1B33931  14.658   2.374   8.743
 2417POPC   C2B33932  14.726   2.670   8.434
 2417POPC   C3B33933  14.880   2.606   8.045
 2417POPC   C4B33934  14.722   2.772   7.701
 2418POPC   NC333935  43.073  21.218   9.579
 2418POPC   PO433936  43.253  21.863   9.403
 2418POPC   GL133937  43.094  21.471   9.113
 2418POPC   GL233938  42.842  21.140   9.141
 2418POPC   C1A33939  43.138  21.469   8.662
 2418POPC   D2A33940  43.127  21.231   8.268
 2418POPC   C3A33941  43.158  21.515   7.908
 2418POPC   C4A33942  43.316  21.563   7.499
 2418POPC   C1B33943  42.673  21.249   8.742
 2418POPC   C2B33944  42.587  21.169   8.306
 2418POPC   C3B33945  42.729  21.257   7.869
 2418POPC   C4B33946  42.878  21.303   7.418
 2419POPC   NC333947  29.755  27.881   9.401
 2419POPC   PO433948  29.929  27.239   9.450
 2419POPC   GL133949  29.843  27.457   9.089
 2419POPC   GL233950  30.122  27.677   9.094
 2419POPC   C1A33951  29.561  27.577   8.757
 2419POPC   D2A33952  29.503  27.843   8.389
 2419POPC   C3A33953  29.636  27.729   7.940
 2419POPC   C4A33954  29.708  27.477   7.536
 2419POPC   C1B33955  30.045  27.726   8.660
 2419POPC   C2B33956  30.038  27.603   8.230
 2419POPC   C3B33957  30.154  27.694   7.797
 2419POPC   C4B33958  30.540  27.781   7.566
 2420POPC   NC333959  26.668  43.792   9.982
 2420POPC   PO433960  26.626  43.915   9.358
 2420POPC   GL133961  26.814  44.079   9.002
 2420POPC   GL233962  27.120  44.040   9.179
 2420POPC   C1A33963  26.669  44.058   8.618
 2420POPC   D2A33964  26.676  43.776   8.322
 2420POPC   C3A33965  26.637  43.940   7.963
 2420POPC   C4A33966  26.569  43.673   7.629
 2420POPC   C1B33967  27.056  43.667   8.871
 2420POPC   C2B33968  27.150  43.840   8.482
 2420POPC   C3B33969  27.186  43.752   8.061
 2420POPC   C4B33970  27.051  43.883   7.653
 2421POPC   NC333971  29.965   0.880   9.401
 2421POPC   PO433972  29.734   1.410   9.434
 2421POPC   GL133973  30.030   1.314   9.086
 2421POPC   GL233974  30.265   0.987   9.030
 2421POPC   C1A33975  29.913   1.523   8.714
 2421POPC   D2A33976  29.999   1.413   8.314
 2421POPC   C3A33977  29.908   1.604   7.958
 2421POPC   C4A33978  29.806   1.391   7.617
 2421POPC   C1B33979  30.117   1.028   8.642
 2421POPC   C2B33980  30.222   0.970   8.248
 2421POPC   C3B33981  30.008   0.892   7.885
 2421POPC   C4B33982  30.244   0.858   7.519
 2422POPC   NC333983   6.975  27.861   9.506
 2422POPC   PO433984   7.390  27.392   9.519
 2422POPC   GL133985   7.575  27.568   9.172
 2422POPC   GL233986   7.696  27.267   9.052
 2422POPC   C1A33987   7.460  27.623   8.736
 2422POPC   D2A33988   7.600  27.485   8.321
 2422POPC   C3A33989   7.417  27.606   7.893
 2422POPC   C4A33990   7.199  27.709   7.477
 2422POPC   C1B33991   7.707  27.108   8.652
 2422POPC   C2B33992   7.934  27.054   8.268
 2422POPC   C3B33993   7.814  27.149   7.871
 2422POPC   C4B33994   7.471  27.204   7.569
 2423POPC   NC333995   1.432  40.236   9.476
 2423POPC   PO433996   0.886  39.825   9.733
 2423POPC   GL133997   1.063  39.900   9.276
 2423POPC   GL233998   1.000  40.219   9.146
 2423POPC   C1A33999   1.253  39.855   8.797
 2423POPC   D2A34000   1.218  39.856   8.283
 2423POPC   C3A34001   1.370  39.824   7.841
 2423POPC   C4A34002   1.205  39.540   7.523
 2423POPC   C1B34003   1.233  40.379   8.804
 2423POPC   C2B34004   1.198  40.402   8.374
 2423POPC   C3B34005   1.168  40.299   7.939
 2423POPC   C4B34006   0.806  40.473   7.768
 2424POPC   NC334007  22.742  34.047   9.463
 2424POPC   PO434008  22.749  33.451   9.763
 2424POPC   GL134009  22.795  33.597   9.266
 2424POPC   GL234010  22.933  33.848   9.037
 2424POPC   C1A34011  22.651  33.481   8.810
 2424POPC   D2A34012  22.592  33.564   8.355
 2424POPC   C3A34013  22.911  33.651   8.026
 2424POPC   C4A34014  22.855  33.602   7.570
 2424POPC   C1B34015  23.000  34.099   8.697
 2424POPC   C2B34016  22.850  34.114   8.259
 2424POPC   C3B34017  23.005  34.132   7.823
 2424POPC   C4B34018  23.131  34.018   7.376
 2425POPC   NC334019   9.464  18.222   9.741
 2425POPC   PO434020  10.028  18.516   9.493
 2425POPC   GL134021   9.815  18.220   9.216
 2425POPC   GL234022   9.499  18.393   9.224
 2425POPC   C1A34023   9.937  17.979   8.820
 2425POPC   D2A34024   9.760  17.835   8.400
 2425POPC   C3A34025   9.898  17.921   7.940
 2425POPC   C4A34026   9.762  18.090   7.512
 2425POPC   C1B34027   9.366  18.606   8.825
 2425POPC   C2B34028   9.252  18.472   8.380
 2425POPC   C3B34029   9.457  18.326   7.977
 2425POPC   C4B34030   9.387  18.425   7.552
 2426POPC   NC334031  19.142   7.714   9.629
 2426POPC   PO434032  18.865   8.232   9.408
 2426POPC   GL134033  18.961   8.347   9.018
 2426POPC   GL234034  19.319   8.486   9.028
 2426POPC   C1A34035  19.017   8.065   8.702
 2426POPC   D2A34036  19.114   7.824   8.329
 2426POPC   C3A34037  18.908   7.936   7.947
 2426POPC   C4A34038  18.866   8.359   7.774
 2426POPC   C1B34039  19.138   8.628   8.647
 2426POPC   C2B34040  18.994   8.373   8.292
 2426POPC   C3B34041  19.312   8.226   8.025
 2426POPC   C4B34042  19.433   8.592   7.825
 2427POPC   NC334043  33.509  33.890   9.562
 2427POPC   PO434044  34.074  33.584   9.520
 2427POPC   GL134045  33.744  33.571   9.202
 2427POPC   GL234046  33.745  33.914   9.091
 2427POPC   C1A34047  33.663  33.538   8.747
 2427POPC   D2A34048  33.614  33.746   8.330
 2427POPC   C3A34049  33.751  33.532   7.943
 2427POPC   C4A34050  33.679  33.745   7.528
 2427POPC   C1B34051  34.067  33.964   8.784
 2427POPC   C2B34052  34.115  34.103   8.354
 2427POPC   C3B34053  33.893  34.013   7.961
 2427POPC   C4B34054  33.947  34.189   7.550
 2428POPC   NC334055  37.531  12.303   9.761
 2428POPC   PO434056  37.986  11.954   9.719
 2428POPC   GL134057  37.826  11.810   9.314
 2428POPC   GL234058  37.828  12.139   9.191
 2428POPC   C1A34059  37.685  11.738   8.891
 2428POPC   D2A34060  37.903  11.758   8.479
 2428POPC   C3A34061  37.696  11.803   8.071
 2428POPC   C4A34062  37.438  12.031   7.769
 2428POPC   C1B34063  37.789  12.218   8.748
 2428POPC   C2B34064  37.866  12.247   8.302
 2428POPC   C3B34065  37.882  12.298   7.853
 2428POPC   C4B34066  38.074  12.361   7.438
 2429POPC   NC334067   8.277  12.451   9.489
 2429POPC   PO434068   8.297  11.800   9.673
 2429POPC   GL134069   8.451  11.936   9.190
 2429POPC   GL234070   8.423  12.295   9.056
 2429POPC   C1A34071   8.456  11.880   8.735
 2429POPC   D2A34072   8.280  11.606   8.398
 2429POPC   C3A34073   8.229  11.809   7.974
 2429POPC   C4A34074   8.367  11.864   7.532
 2429POPC   C1B34075   8.128  12.321   8.760
 2429POPC   C2B34076   8.185  12.150   8.374
 2429POPC   C3B34077   8.306  12.325   8.008
 2429POPC   C4B34078   8.186  12.359   7.616
 2430POPC   NC334079  38.894  17.639   9.529
 2430POPC   PO434080  39.579  17.753   9.382
 2430POPC   GL134081  39.218  17.606   9.123
 2430POPC   GL234082  38.900  17.387   9.097
 2430POPC   C1A34083  39.258  17.480   8.700
 2430POPC   D2A34084  39.104  17.597   8.301
 2430POPC   C3A34085  39.352  17.661   7.935
 2430POPC   C4A34086  39.614  17.744   7.598
 2430POPC   C1B34087  38.960  17.079   8.776
 2430POPC   C2B34088  39.231  17.046   8.400
 2430POPC   C3B34089  39.167  17.193   7.995
 2430POPC   C4B34090  38.781  17.314   7.828
 2431POPC   NC334091  19.098  29.558   9.385
 2431POPC   PO434092  19.208  28.913   9.430
 2431POPC   GL134093  19.207  29.140   9.076
 2431POPC   GL234094  18.937  28.957   8.966
 2431POPC   C1A34095  19.326  29.040   8.636
 2431POPC   D2A34096  19.003  28.924   8.335
 2431POPC   C3A34097  18.917  29.193   7.968
 2431POPC   C4A34098  19.113  28.969   7.626
 2431POPC   C1B34099  18.882  29.313   8.676
 2431POPC   C2B34100  18.578  29.247   8.354
 2431POPC   C3B34101  18.533  28.865   8.072
 2431POPC   C4B34102  18.492  29.049   7.689
 2432POPC   NC334103  42.221  18.013   9.459
 2432POPC   PO434104  42.475  18.697   9.499
 2432POPC   GL134105  42.498  18.381   9.177
 2432POPC   GL234106  42.703  18.080   9.203
 2432POPC   C1A34107  42.372  18.283   8.757
 2432POPC   D2A34108  42.374  18.541   8.372
 2432POPC   C3A34109  42.370  18.293   8.008
 2432POPC   C4A34110  42.298  18.002   7.663
 2432POPC   C1B34111  42.827  18.023   8.775
 2432POPC   C2B34112  42.679  18.106   8.360
 2432POPC   C3B34113  42.808  17.953   7.943
 2432POPC   C4B34114  42.833  17.888   7.456
 2433POPC   NC334115  18.879  28.585   9.459
 2433POPC   PO434116  19.208  27.937   9.506
 2433POPC   GL134117  19.260  28.102   9.123
 2433POPC   GL234118  18.915  28.223   9.123
 2433POPC   C1A34119  19.465  28.121   8.729
 2433POPC   D2A34120  19.628  28.332   8.346
 2433POPC   C3A34121  19.339  28.456   8.017
 2433POPC   C4A34122  19.387  28.050   7.816
 2433POPC   C1B34123  19.093  28.482   8.803
 2433POPC   C2B34124  19.068  28.279   8.410
 2433POPC   C3B34125  18.921  28.169   7.997
 2433POPC   C4B34126  18.863  28.504   7.708
 2434POPC   NC334127   9.245   6.362   9.503
 2434POPC   PO434128   8.888   5.717   9.471
 2434POPC   GL134129   8.808   5.824   9.070
 2434POPC   GL234130   8.953   6.153   9.115
 2434POPC   C1A34131   9.006   5.877   8.667
 2434POPC   D2A34132   9.285   5.786   8.372
 2434POPC   C3A34133   8.963   5.688   8.109
 2434POPC   C4A34134   8.933   5.844   7.737
 2434POPC   C1B34135   8.898   6.371   8.747
 2434POPC   C2B34136   8.750   6.229   8.347
 2434POPC   C3B34137   9.076   6.191   8.064
 2434POPC   C4B34138   9.149   6.349   7.655
 2435POPC   NC334139  44.299   3.375   9.728
 2435POPC   PO434140  44.957   3.367   9.623
 2435POPC   GL134141  44.703   3.545   9.281
 2435POPC   GL234142  44.532   3.260   9.281
 2435POPC   C1A34143  44.635   3.792   8.862
 2435POPC   D2A34144  44.718   3.999   8.422
 2435POPC   C3A34145  44.617   3.734   8.052
 2435POPC   C4A34146  44.761   3.451   7.732
 2435POPC   C1B34147  44.536   3.229   8.827
 2435POPC   C2B34148  44.486   3.329   8.382
 2435POPC   C3B34149  44.411   3.165   7.949
 2435POPC   C4B34150  44.351   3.234   7.472
 2436POPC   NC334151  16.183  23.331   9.485
 2436POPC   PO434152  15.742  22.773   9.462
 2436POPC   GL134153  15.991  22.921   9.179
 2436POPC   GL234154  16.354  22.886   9.242
 2436POPC   C1A34155  15.908  22.760   8.784
 2436POPC   D2A34156  15.991  22.939   8.416
 2436POPC   C3A34157  15.987  22.789   8.006
 2436POPC   C4A34158  15.701  22.695   7.697
 2436POPC   C1B34159  16.327  23.049   8.817
 2436POPC   C2B34160  16.270  23.358   8.501
 2436POPC   C3B34161  16.304  23.183   8.104
 2436POPC   C4B34162  16.221  23.223   7.696
 2437POPC   NC334163   4.745  17.674   9.465
 2437POPC   PO434164   5.173  17.173   9.439
 2437POPC   GL134165   5.040  17.463   9.105
 2437POPC   GL234166   5.167  17.810   9.147
 2437POPC   C1A34167   4.880  17.650   8.705
 2437POPC   D2A34168   4.841  17.428   8.317
 2437POPC   C3A34169   5.064  17.505   7.932
 2437POPC   C4A34170   4.741  17.396   7.645
 2437POPC   C1B34171   5.381  17.639   8.781
 2437POPC   C2B34172   5.318  17.726   8.362
 2437POPC   C3B34173   5.556  17.700   8.015
 2437POPC   C4B34174   5.415  17.797   7.635
 2438POPC   NC334175  17.830  23.742   9.523
 2438POPC   PO434176  17.308  23.309   9.489
 2438POPC   GL134177  17.464  23.583   9.172
 2438POPC   GL234178  17.698  23.401   8.992
 2438POPC   C1A34179  17.651  23.908   8.872
 2438POPC   D2A34180  17.536  24.009   8.436
 2438POPC   C3A34181  17.409  23.726   8.085
 2438POPC   C4A34182  17.504  23.840   7.645
 2438POPC   C1B34183  17.553  23.500   8.567
 2438POPC   C2B34184  17.736  23.326   8.177
 2438POPC   C3B34185  17.909  23.555   7.825
 2438POPC   C4B34186  17.841  23.532   7.360
 2439POPC   NC334187  12.224  11.690   9.284
 2439POPC   PO434188  12.219  12.325   9.506
 2439POPC   GL134189  12.369  12.168   9.166
 2439POPC   GL234190  12.570  12.389   9.070
 2439POPC   C1A34191  12.124  12.120   8.797
 2439POPC   D2A34192  12.036  11.907   8.446
 2439POPC   C3A34193  11.972  12.149   8.092
 2439POPC   C4A34194  11.784  12.018   7.730
 2439POPC   C1B34195  12.618  12.185   8.704
 2439POPC   C2B34196  12.471  12.152   8.320
 2439POPC   C3B34197  12.431  11.960   7.943
 2439POPC   C4B34198  12.285  12.307   7.684
 2440POPC   NC334199   0.225  35.959   9.578
 2440POPC   PO434200   0.626  36.519   9.459
 2440POPC   GL134201   0.394  36.272   9.194
 2440POPC   GL234202   0.464  36.539   8.971
 2440POPC   C1A34203   0.222  36.127   8.797
 2440POPC   D2A34204   0.452  36.033   8.416
 2440POPC   C3A34205   0.282  36.170   8.034
 2440POPC   C4A34206  44.954  36.313   7.789
 2440POPC   C1B34207   0.388  36.548   8.569
 2440POPC   C2B34208   0.611  36.496   8.254
 2440POPC   C3B34209   0.504  36.627   7.890
 2440POPC   C4B34210   0.392  36.419   7.581
 2441POPC   NC334211  26.621   4.634   9.304
 2441POPC   PO434212  26.835   5.246   9.518
 2441POPC   GL134213  26.883   5.121   9.178
 2441POPC   GL234214  27.099   4.832   9.254
 2441POPC   C1A34215  26.937   5.363   8.816
 2441POPC   D2A34216  27.120   5.268   8.445
 2441POPC   C3A34217  26.865   5.395   8.094
 2441POPC   C4A34218  26.896   5.202   7.684
 2441POPC   C1B34219  27.002   4.842   8.787
 2441POPC   C2B34220  26.995   4.774   8.347
 2441POPC   C3B34221  27.230   4.932   8.007
 2441POPC   C4B34222  27.257   4.719   7.633
 2442POPC   NC334223  19.198  11.059   9.868
 2442POPC   PO434224  19.430  11.537   9.477
 2442POPC   GL134225  19.357  11.438   9.063
 2442POPC   GL234226  19.639  11.590   8.948
 2442POPC   C1A34227  19.200  11.206   8.699
 2442POPC   D2A34228  18.830  11.106   8.432
 2442POPC   C3A34229  18.871  11.204   7.981
 2442POPC   C4A34230  19.015  11.584   7.722
 2442POPC   C1B34231  19.343  11.740   8.642
 2442POPC   C2B34232  19.118  11.527   8.301
 2442POPC   C3B34233  19.377  11.321   7.968
 2442POPC   C4B34234  19.532  11.468   7.565
 2443POPC   NC334235  38.453   7.579   9.468
 2443POPC   PO434236  38.703   6.969   9.428
 2443POPC   GL134237  38.417   7.137   9.076
 2443POPC   GL234238  38.231   7.486   9.039
 2443POPC   C1A34239  38.258   7.149   8.658
 2443POPC   D2A34240  38.238   7.379   8.282
 2443POPC   C3A34241  38.281   7.188   7.889
 2443POPC   C4A34242  38.643   7.395   7.742
 2443POPC   C1B34243  38.352   7.683   8.700
 2443POPC   C2B34244  38.328   7.886   8.333
 2443POPC   C3B34245  38.331   7.815   7.917
 2443POPC   C4B34246  38.012   7.620   7.778
 2444POPC   NC334247  35.041  39.601   9.886
 2444POPC   PO434248  35.006  39.913   9.281
 2444POPC   GL134249  35.406  40.125   9.156
 2444POPC   GL234250  35.744  40.296   9.218
 2444POPC   C1A34251  35.383  40.377   8.799
 2444POPC   D2A34252  35.224  40.214   8.427
 2444POPC   C3A34253  35.376  40.410   8.074
 2444POPC   C4A34254  35.308  40.169   7.732
 2444POPC   C1B34255  35.842  40.188   8.819
 2444POPC   C2B34256  35.775  40.412   8.430
 2444POPC   C3B34257  35.977  40.439   8.037
 2444POPC   C4B34258  35.758  40.385   7.639
 2445POPC   NC334259  37.959   6.141   9.391
 2445POPC   PO434260  37.409   5.794   9.570
 2445POPC   GL134261  37.672   5.696   9.201
 2445POPC   GL234262  37.409   5.479   9.115
 2445POPC   C1A34263  37.885   5.841   8.783
 2445POPC   D2A34264  37.758   5.999   8.328
 2445POPC   C3A34265  37.894   5.784   7.889
 2445POPC   C4A34266  38.016   5.680   7.428
 2445POPC   C1B34267  37.405   5.644   8.732
 2445POPC   C2B34268  37.291   5.775   8.359
 2445POPC   C3B34269  37.407   5.650   7.993
 2445POPC   C4B34270  37.344   5.737   7.584
 2446POPC   NC334271   7.514   0.634   9.493
 2446POPC   PO434272   6.929   0.822   9.343
 2446POPC   GL134273   7.180   0.404   9.175
 2446POPC   GL234274   7.451   0.573   8.993
 2446POPC   C1A34275   7.334   0.106   8.813
 2446POPC   D2A34276   7.376   0.059   8.324
 2446POPC   C3A34277   7.333   0.265   7.896
 2446POPC   C4A34278   7.175   0.593   7.582
 2446POPC   C1B34279   7.596   0.476   8.594
 2446POPC   C2B34280   7.883   0.232   8.387
 2446POPC   C3B34281   7.923   0.290   7.967
 2446POPC   C4B34282   7.687   0.495   7.586
 2447POPC   NC334283  26.903   9.185   9.494
 2447POPC   PO434284  26.434   8.721   9.469
 2447POPC   GL134285  26.708   8.847   9.134
 2447POPC   GL234286  26.639   9.182   9.073
 2447POPC   C1A34287  26.762   8.878   8.681
 2447POPC   D2A34288  27.021   8.986   8.330
 2447POPC   C3A34289  26.833   8.890   7.945
 2447POPC   C4A34290  26.900   8.817   7.519
 2447POPC   C1B34291  27.023   9.296   8.852
 2447POPC   C2B34292  27.353   9.303   8.558
 2447POPC   C3B34293  27.352   9.330   8.104
 2447POPC   C4B34294  27.189   9.219   7.711
 2448POPC   NC334295  26.353   5.228   9.528
 2448POPC   PO434296  26.160   5.795   9.478
 2448POPC   GL134297  26.360   5.826   9.065
 2448POPC   GL234298  26.557   5.532   9.127
 2448POPC   C1A34299  26.326   6.022   8.632
 2448POPC   D2A34300  25.954   5.938   8.349
 2448POPC   C3A34301  25.854   5.992   7.909
 2448POPC   C4A34302  26.039   6.225   7.563
 2448POPC   C1B34303  26.479   5.533   8.639
 2448POPC   C2B34304  26.420   5.743   8.198
 2448POPC   C3B34305  26.270   5.732   7.759
 2448POPC   C4B34306  26.334   5.534   7.341
 2449POPC   NC334307  10.540  44.970   9.521
 2449POPC   PO434308  10.575  44.302   9.487
 2449POPC   GL134309  10.489  44.584   9.144
 2449POPC   GL234310  10.234  44.460   8.889
 2449POPC   C1A34311  10.473  44.929   8.859
 2449POPC   D2A34312  10.183  44.921   8.520
 2449POPC   C3A34313  10.264  44.668   8.158
 2449POPC   C4A34314  10.434  44.801   7.757
 2449POPC   C1B34315  10.529  44.507   8.585
 2449POPC   C2B34316  10.709  44.824   8.349
 2449POPC   C3B34317  10.816  44.605   8.015
 2449POPC   C4B34318  10.809  44.514   7.542
 2450POPC   NC334319  18.933  37.456   9.715
 2450POPC   PO434320  19.349  37.929   9.466
 2450POPC   GL134321  19.040  37.584   9.213
 2450POPC   GL234322  18.724  37.360   9.264
 2450POPC   C1A34323  19.128  37.504   8.782
 2450POPC   D2A34324  19.009  37.759   8.405
 2450POPC   C3A34325  19.028  37.629   7.993
 2450POPC   C4A34326  19.087  37.709   7.539
 2450POPC   C1B34327  18.717  37.192   8.848
 2450POPC   C2B34328  18.747  37.344   8.462
 2450POPC   C3B34329  18.584  37.374   8.080
 2450POPC   C4B34330  18.712  37.388   7.658
 2451POPC   NC334331  32.712  25.367   9.194
 2451POPC   PO434332  33.204  24.930   9.540
 2451POPC   GL134333  32.988  24.927   9.191
 2451POPC   GL234334  32.616  24.853   9.248
 2451POPC   C1A34335  33.135  24.999   8.799
 2451POPC   D2A34336  32.917  25.389   8.628
 2451POPC   C3A34337  32.862  25.427   8.160
 2451POPC   C4A34338  32.948  25.395   7.700
 2451POPC   C1B34339  32.654  24.844   8.794
 2451POPC   C2B34340  32.866  24.912   8.385
 2451POPC   C3B34341  33.027  24.949   7.984
 2451POPC   C4B34342  32.782  24.909   7.629
 2452POPC   NC334343  23.834  38.230   9.523
 2452POPC   PO434344  23.530  38.810   9.401
 2452POPC   GL134345  23.732  38.536   9.121
 2452POPC   GL234346  23.548  38.229   9.073
 2452POPC   C1A34347  23.873  38.658   8.742
 2452POPC   D2A34348  23.738  38.757   8.328
 2452POPC   C3A34349  23.807  38.439   8.040
 2452POPC   C4A34350  23.823  38.515   7.622
 2452POPC   C1B34351  23.516  38.265   8.605
 2452POPC   C2B34352  23.429  38.093   8.175
 2452POPC   C3B34353  23.586  38.075   7.732
 2452POPC   C4B34354  23.582  38.211   7.275
 2453POPC   NC334355   9.947   0.072   9.817
 2453POPC   PO434356   9.546   0.485   9.454
 2453POPC   GL134357   9.877   0.346   9.166
 2453POPC   GL234358   9.632   0.321   8.955
 2453POPC   C1A34359  10.033   0.583   8.807
 2453POPC   D2A34360   9.797   0.756   8.465
 2453POPC   C3A34361  10.041   0.775   8.105
 2453POPC   C4A34362  10.015   0.519   7.734
 2453POPC   C1B34363   9.742   0.223   8.559
 2453POPC   C2B34364   9.814   0.282   8.155
 2453POPC   C3B34365  10.030   0.046   7.912
 2453POPC   C4B34366  10.086   0.059   7.466
 2454POPC   NC334367  26.106  39.769   9.426
 2454POPC   PO434368  25.995  40.351   9.710
 2454POPC   GL134369  25.889  40.220   9.274
 2454POPC   GL234370  26.223  40.244   9.188
 2454POPC   C1A34371  25.873  39.989   8.837
 2454POPC   D2A34372  25.883  39.837   8.408
 2454POPC   C3A34373  25.839  39.977   7.980
 2454POPC   C4A34374  25.945  39.820   7.546
 2454POPC   C1B34375  26.384  40.035   8.833
 2454POPC   C2B34376  26.408  39.829   8.447
 2454POPC   C3B34377  26.351  40.020   8.078
 2454POPC   C4B34378  26.422  39.832   7.727
 2455POPC   NC334379  34.248  37.887   9.468
 2455POPC   PO434380  33.567  37.815   9.645
 2455POPC   GL134381  33.661  37.757   9.163
 2455POPC   GL234382  34.007  37.804   9.029
 2455POPC   C1A34383  33.533  37.838   8.752
 2455POPC   D2A34384  33.383  38.081   8.411
 2455POPC   C3A34385  33.652  38.089   8.051
 2455POPC   C4A34386  33.641  37.962   7.633
 2455POPC   C1B34387  33.958  37.454   8.785
 2455POPC   C2B34388  33.715  37.476   8.420
 2455POPC   C3B34389  33.764  37.596   8.003
 2455POPC   C4B34390  34.088  37.841   7.807
 2456POPC   NC334391  24.413  17.752   9.463
 2456POPC   PO434392  24.738  18.429   9.522
 2456POPC   GL134393  24.464  18.249   9.253
 2456POPC   GL234394  24.723  18.040   9.148
 2456POPC   C1A34395  24.263  18.307   8.858
 2456POPC   D2A34396  24.116  18.147   8.468
 2456POPC   C3A34397  24.389  18.206   8.136
 2456POPC   C4A34398  24.341  18.407   7.753
 2456POPC   C1B34399  24.799  18.379   8.873
 2456POPC   C2B34400  24.695  18.485   8.475
 2456POPC   C3B34401  24.828  18.494   8.081
 2456POPC   C4B34402  24.843  18.414   7.668
 2457POPC   NC334403  30.894  43.320   9.509
 2457POPC   PO434404  30.351  42.946   9.362
 2457POPC   GL134405  30.513  43.215   9.111
 2457POPC   GL234406  30.846  43.062   9.068
 2457POPC   C1A34407  30.608  43.270   8.667
 2457POPC   D2A34408  30.931  43.202   8.383
 2457POPC   C3A34409  30.802  42.983   8.081
 2457POPC   C4A34410  30.649  43.240   7.766
 2457POPC   C1B34411  30.793  42.800   8.685
 2457POPC   C2B34412  31.067  42.599   8.375
 2457POPC   C3B34413  30.990  42.508   7.943
 2457POPC   C4B34414  30.942  42.823   7.624
 2458POPC   NC334415  27.762  24.902   9.925
 2458POPC   PO434416  27.552  25.454   9.605
 2458POPC   GL134417  27.387  25.365   9.212
 2458POPC   GL234418  27.239  25.049   9.273
 2458POPC   C1A34419  27.356  25.506   8.788
 2458POPC   D2A34420  27.592  25.642   8.438
 2458POPC   C3A34421  27.434  25.501   8.053
 2458POPC   C4A34422  27.694  25.621   7.708
 2458POPC   C1B34423  27.356  24.976   8.836
 2458POPC   C2B34424  27.473  25.144   8.427
 2458POPC   C3B34425  27.591  25.017   8.024
 2458POPC   C4B34426  27.421  25.181   7.664
 2459POPC   NC334427  27.354  18.924   9.279
 2459POPC   PO434428  27.833  19.371   9.477
 2459POPC   GL134429  27.750  19.194   9.105
 2459POPC   GL234430  27.409  19.387   9.067
 2459POPC   C1A34431  27.851  18.950   8.732
 2459POPC   D2A34432  28.007  18.856   8.300
 2459POPC   C3A34433  27.826  19.063   7.974
 2459POPC   C4A34434  27.910  18.921   7.590
 2459POPC   C1B34435  27.550  19.367   8.673
 2459POPC   C2B34436  27.501  19.088   8.368
 2459POPC   C3B34437  27.321  19.068   7.983
 2459POPC   C4B34438  27.502  19.324   7.643
 2460POPC   NC334439  34.103   7.045   9.988
 2460POPC   PO434440  33.613   6.863   9.577
 2460POPC   GL134441  33.834   6.779   9.138
 2460POPC   GL234442  34.045   7.049   8.981
 2460POPC   C1A34443  33.836   6.667   8.696
 2460POPC   D2A34444  33.845   6.741   8.235
 2460POPC   C3A34445  33.931   6.414   7.964
 2460POPC   C4A34446  33.624   6.340   7.638
 2460POPC   C1B34447  34.115   7.059   8.545
 2460POPC   C2B34448  33.975   7.272   8.200
 2460POPC   C3B34449  33.823   7.093   7.836
 2460POPC   C4B34450  33.996   6.760   7.615
 2461POPC   NC334451  18.299  41.858   9.579
 2461POPC   PO434452  18.252  41.213   9.444
 2461POPC   GL134453  18.289  41.525   9.113
 2461POPC   GL234454  18.514  41.847   9.124
 2461POPC   C1A34455  18.249  41.461   8.646
 2461POPC   D2A34456  18.215  41.242   8.225
 2461POPC   C3A34457  18.160  41.537   7.880
 2461POPC   C4A34458  18.137  41.961   7.667
 2461POPC   C1B34459  18.562  41.874   8.685
 2461POPC   C2B34460  18.450  41.810   8.240
 2461POPC   C3B34461  18.603  41.821   7.809
 2461POPC   C4B34462  18.582  41.953   7.351
 2462POPC   NC334463  24.923  11.882   9.405
 2462POPC   PO434464  25.158  11.320   9.789
 2462POPC   GL134465  25.100  11.337   9.285
 2462POPC   GL234466  25.344  11.531   9.114
 2462POPC   C1A34467  25.178  11.177   8.808
 2462POPC   D2A34468  25.491  11.033   8.478
 2462POPC   C3A34469  25.354  11.050   8.025
 2462POPC   C4A34470  25.007  11.168   7.718
 2462POPC   C1B34471  25.280  11.660   8.728
 2462POPC   C2B34472  25.224  11.469   8.346
 2462POPC   C3B34473  25.238  11.548   7.924
 2462POPC   C4B34474  25.114  11.593   7.462
 2463POPC   NC334475  15.168  25.669   9.482
 2463POPC   PO434476  15.039  25.023   9.544
 2463POPC   GL134477  15.260  25.249   9.203
 2463POPC   GL234478  14.950  25.453   9.068
 2463POPC   C1A34479  15.380  25.366   8.778
 2463POPC   D2A34480  15.123  25.381   8.416
 2463POPC   C3A34481  15.394  25.371   8.077
 2463POPC   C4A34482  15.381  25.184   7.708
 2463POPC   C1B34483  14.983  25.065   8.818
 2463POPC   C2B34484  14.905  24.939   8.393
 2463POPC   C3B34485  14.937  25.102   7.981
 2463POPC   C4B34486  15.027  24.780   7.674
 2464POPC   NC334487  13.723  40.151   9.644
 2464POPC   PO434488  13.722  39.522   9.471
 2464POPC   GL134489  13.696  39.679   9.063
 2464POPC   GL234490  13.763  40.041   9.133
 2464POPC   C1A34491  13.512  39.862   8.715
 2464POPC   D2A34492  13.572  40.061   8.337
 2464POPC   C3A34493  13.542  39.764   7.963
 2464POPC   C4A34494  13.466  39.933   7.556
 2464POPC   C1B34495  13.790  40.326   8.765
 2464POPC   C2B34496  13.936  40.417   8.334
 2464POPC   C3B34497  13.645  40.408   7.968
 2464POPC   C4B34498  13.880  40.388   7.629
 2465POPC   NC334499  28.219   3.707   9.659
 2465POPC   PO434500  28.048   4.418   9.599
 2465POPC   GL134501  28.286   4.467   9.182
 2465POPC   GL234502  28.497   4.163   9.042
 2465POPC   C1A34503  28.356   4.536   8.741
 2465POPC   D2A34504  28.253   4.273   8.417
 2465POPC   C3A34505  28.317   4.399   8.032
 2465POPC   C4A34506  28.416   4.492   7.652
 2465POPC   C1B34507  28.706   4.133   8.642
 2465POPC   C2B34508  28.842   4.180   8.210
 2465POPC   C3B34509  28.709   4.113   7.799
 2465POPC   C4B34510  28.920   3.989   7.382
 2466POPC   NC334511  38.313   2.505   9.620
 2466POPC   PO434512  38.709   2.987   9.770
 2466POPC   GL134513  38.584   2.862   9.284
 2466POPC   GL234514  38.535   2.523   9.163
 2466POPC   C1A34515  38.433   2.795   8.779
 2466POPC   D2A34516  38.284   2.568   8.376
 2466POPC   C3A34517  38.340   2.770   7.949
 2466POPC   C4A34518  38.788   2.877   7.759
 2466POPC   C1B34519  38.825   2.392   8.838
 2466POPC   C2B34520  38.867   2.222   8.442
 2466POPC   C3B34521  38.696   2.415   8.057
 2466POPC   C4B34522  38.561   2.445   7.617
 2467POPC   NC334523   1.481  16.350   9.271
 2467POPC   PO434524   1.106  16.608   9.765
 2467POPC   GL134525   1.066  16.635   9.267
 2467POPC   GL234526   1.378  16.800   9.074
 2467POPC   C1A34527   0.964  16.650   8.815
 2467POPC   D2A34528   1.222  16.813   8.458
 2467POPC   C3A34529   1.125  16.553   8.099
 2467POPC   C4A34530   0.789  16.378   7.787
 2467POPC   C1B34531   1.650  16.975   8.756
 2467POPC   C2B34532   1.630  17.112   8.311
 2467POPC   C3B34533   1.437  16.947   7.946
 2467POPC   C4B34534   1.265  16.707   7.632
 2468POPC   NC334535  13.344   4.269   9.524
 2468POPC   PO434536  13.820   4.592   9.829
 2468POPC   GL134537  13.813   4.314   9.336
 2468POPC   GL234538  13.573   4.488   9.117
 2468POPC   C1A34539  13.915   4.194   8.865
 2468POPC   D2A34540  13.753   4.168   8.444
 2468POPC   C3A34541  13.996   4.208   8.063
 2468POPC   C4A34542  13.991   4.322   7.652
 2468POPC   C1B34543  13.357   4.274   8.787
 2468POPC   C2B34544  13.237   4.180   8.361
 2468POPC   C3B34545  13.484   4.379   8.049
 2468POPC   C4B34546  13.501   4.444   7.633
 2469POPC   NC334547  20.475  41.238   9.579
 2469POPC   PO434548  20.443  41.820   9.449
 2469POPC   GL134549  20.649  41.702   9.085
 2469POPC   GL234550  20.488  41.389   9.065
 2469POPC   C1A34551  20.673  41.578   8.640
 2469POPC   D2A34552  20.530  41.457   8.225
 2469POPC   C3A34553  20.823  41.361   7.880
 2469POPC   C4A34554  20.907  41.631   7.512
 2469POPC   C1B34555  20.350  41.173   8.659
 2469POPC   C2B34556  20.071  41.247   8.282
 2469POPC   C3B34557  20.255  41.192   7.870
 2469POPC   C4B34558  20.439  41.442   7.559
 2470POPC   NC334559  15.493   2.364   9.518
 2470POPC   PO434560  16.185   2.264   9.484
 2470POPC   GL134561  15.981   2.153   9.138
 2470POPC   GL234562  16.103   1.798   9.098
 2470POPC   C1A34563  15.900   2.103   8.717
 2470POPC   D2A34564  16.013   2.250   8.321
 2470POPC   C3A34565  15.789   2.110   7.967
 2470POPC   C4A34566  15.853   2.251   7.528
 2470POPC   C1B34567  15.854   1.609   8.729
 2470POPC   C2B34568  15.729   1.764   8.354
 2470POPC   C3B34569  15.852   1.572   7.979
 2470POPC   C4B34570  15.724   1.733   7.619
 2471POPC   NC334571  13.428   5.149   9.845
 2471POPC   PO434572  13.857   4.838   9.347
 2471POPC   GL134573  13.527   5.121   9.297
 2471POPC   GL234574  13.240   4.895   9.346
 2471POPC   C1A34575  13.581   5.349   8.919
 2471POPC   D2A34576  13.500   5.409   8.478
 2471POPC   C3A34577  13.815   5.223   8.230
 2471POPC   C4A34578  13.813   5.272   7.806
 2471POPC   C1B34579  13.335   4.869   8.884
 2471POPC   C2B34580  13.465   4.707   8.471
 2471POPC   C3B34581  13.443   4.902   8.055
 2471POPC   C4B34582  13.401   4.995   7.620
 2472POPC   NC334583  31.468  10.555  10.201
 2472POPC   PO434584  31.312  10.591   9.751
 2472POPC   GL134585  31.464  10.715   9.287
 2472POPC   GL234586  31.752  10.518   9.137
 2472POPC   C1A34587  31.474  10.778   8.797
 2472POPC   D2A34588  31.326  10.572   8.415
 2472POPC   C3A34589  31.456  10.638   7.978
 2472POPC   C4A34590  31.364  10.398   7.592
 2472POPC   C1B34591  31.657  10.291   8.717
 2472POPC   C2B34592  31.754  10.299   8.256
 2472POPC   C3B34593  31.779  10.163   7.803
 2472POPC   C4B34594  31.780  10.179   7.330
 2473POPC   NC334595  34.673  43.610   9.403
 2473POPC   PO434596  34.282  44.069   9.503
 2473POPC   GL134597  34.417  43.907   9.094
 2473POPC   GL234598  34.309  43.550   9.067
 2473POPC   C1A34599  34.684  43.723   8.751
 2473POPC   D2A34600  34.705  43.630   8.326
 2473POPC   C3A34601  34.567  43.991   8.083
 2473POPC   C4A34602  34.672  44.187   7.693
 2473POPC   C1B34603  34.381  43.257   8.743
 2473POPC   C2B34604  34.374  43.249   8.307
 2473POPC   C3B34605  34.269  43.549   8.005
 2473POPC   C4B34606  34.465  43.665   7.657
 2474POPC   NC334607  25.541  26.489   9.617
 2474POPC   PO434608  26.208  26.523   9.407
 2474POPC   GL134609  26.003  26.565   9.056
 2474POPC   GL234610  25.707  26.376   9.146
 2474POPC   C1A34611  26.033  26.829   8.691
 2474POPC   D2A34612  26.169  26.839   8.260
 2474POPC   C3A34613  26.030  27.064   7.923
 2474POPC   C4A34614  26.271  27.307   7.646
 2474POPC   C1B34615  25.614  26.474   8.725
 2474POPC   C2B34616  25.812  26.485   8.348
 2474POPC   C3B34617  25.800  26.587   7.926
 2474POPC   C4B34618  25.954  26.528   7.521
 2475POPC   NC334619  35.888   9.352   9.719
 2475POPC   PO434620  35.211   9.410   9.453
 2475POPC   GL134621  35.253   9.506   9.043
 2475POPC   GL234622  35.565   9.273   9.102
 2475POPC   C1A34623  35.185   9.805   8.694
 2475POPC   D2A34624  34.856   9.986   8.398
 2475POPC   C3A34625  35.002  10.076   8.015
 2475POPC   C4A34626  35.318   9.847   7.855
 2475POPC   C1B34627  35.576   9.280   8.734
 2475POPC   C2B34628  35.548   9.506   8.406
 2475POPC   C3B34629  35.438   9.303   8.065
 2475POPC   C4B34630  35.588   9.461   7.706
 2476POPC   NC334631  21.927  17.984   9.583
 2476POPC   PO434632  22.251  18.585   9.475
 2476POPC   GL134633  22.216  18.460   9.108
 2476POPC   GL234634  21.853  18.551   9.093
 2476POPC   C1A34635  22.338  18.585   8.672
 2476POPC   D2A34636  22.092  18.528   8.305
 2476POPC   C3A34637  22.324  18.528   7.950
 2476POPC   C4A34638  22.089  18.432   7.590
 2476POPC   C1B34639  21.961  18.248   8.749
 2476POPC   C2B34640  21.934  18.038   8.366
 2476POPC   C3B34641  21.991  18.094   7.949
 2476POPC   C4B34642  21.828  17.990   7.538
 2477POPC   NC334643  34.674  35.792   9.703
 2477POPC   PO434644  34.364  36.408   9.522
 2477POPC   GL134645  34.546  36.053   9.239
 2477POPC   GL234646  34.888  36.073   9.262
 2477POPC   C1A34647  34.763  35.779   8.869
 2477POPC   D2A34648  34.933  35.916   8.455
 2477POPC   C3A34649  34.647  35.770   8.155
 2477POPC   C4A34650  34.511  35.733   7.733
 2477POPC   C1B34651  34.809  36.270   8.824
 2477POPC   C2B34652  34.655  36.346   8.418
 2477POPC   C3B34653  34.489  36.253   8.050
 2477POPC   C4B34654  34.603  36.258   7.662
 2478POPC   NC334655  15.113  22.381   9.506
 2478POPC   PO434656  14.970  21.691   9.570
 2478POPC   GL134657  15.105  21.934   9.202
 2478POPC   GL234658  15.428  21.992   9.213
 2478POPC   C1A34659  15.190  22.041   8.752
 2478POPC   D2A34660  15.417  22.032   8.330
 2478POPC   C3A34661  15.178  22.002   7.918
 2478POPC   C4A34662  14.893  22.350   7.811
 2478POPC   C1B34663  15.498  22.397   8.953
 2478POPC   C2B34664  15.559  22.501   8.498
 2478POPC   C3B34665  15.357  22.483   8.061
 2478POPC   C4B34666  15.367  22.357   7.596
 2479POPC   NC334667  10.047  21.307   9.393
 2479POPC   PO434668  10.642  21.709   9.527
 2479POPC   GL134669  10.547  21.385   9.225
 2479POPC   GL234670  10.580  21.050   9.377
 2479POPC   C1A34671  10.363  21.374   8.796
 2479POPC   D2A34672  10.549  21.531   8.427
 2479POPC   C3A34673  10.447  21.451   8.023
 2479POPC   C4A34674  10.600  21.659   7.674
 2479POPC   C1B34675  10.546  20.913   8.954
 2479POPC   C2B34676  10.617  21.004   8.510
 2479POPC   C3B34677  10.859  21.172   8.177
 2479POPC   C4B34678  10.778  21.167   7.733
 2480POPC   NC334679  14.458  40.684   9.552
 2480POPC   PO434680  14.024  41.151   9.360
 2480POPC   GL134681  14.344  40.932   9.113
 2480POPC   GL234682  14.368  40.570   9.080
 2480POPC   C1A34683  14.476  40.909   8.684
 2480POPC   D2A34684  14.422  41.254   8.420
 2480POPC   C3A34685  14.434  41.120   8.034
 2480POPC   C4A34686  14.406  41.347   7.651
 2480POPC   C1B34687  14.311  40.413   8.672
 2480POPC   C2B34688  14.461  40.552   8.264
 2480POPC   C3B34689  14.561  40.659   7.841
 2480POPC   C4B34690  14.279  40.805   7.564
 2481POPC   NC334691  14.771   8.269   9.621
 2481POPC   PO434692  14.125   8.268   9.804
 2481POPC   GL134693  14.207   8.113   9.283
 2481POPC   GL234694  14.482   7.884   9.145
 2481POPC   C1A34695  14.132   7.980   8.787
 2481POPC   D2A34696  14.282   8.163   8.351
 2481POPC   C3A34697  14.194   8.074   7.902
 2481POPC   C4A34698  14.291   8.386   7.613
 2481POPC   C1B34699  14.585   8.214   8.765
 2481POPC   C2B34700  14.815   8.171   8.357
 2481POPC   C3B34701  14.745   8.232   7.906
 2481POPC   C4B34702  14.630   8.018   7.523
 2482POPC   NC334703  11.865   0.927   9.434
 2482POPC   PO434704  12.134   1.537   9.433
 2482POPC   GL134705  11.995   1.470   9.034
 2482POPC   GL234706  11.938   1.106   8.956
 2482POPC   C1A34707  12.083   1.623   8.630
 2482POPC   D2A34708  12.314   1.514   8.269
 2482POPC   C3A34709  12.084   1.352   7.902
 2482POPC   C4A34710  12.187   1.356   7.435
 2482POPC   C1B34711  11.659   0.739   8.838
 2482POPC   C2B34712  11.558   0.791   8.398
 2482POPC   C3B34713  11.785   0.949   8.040
 2482POPC   C4B34714  11.934   0.959   7.602
 2483POPC   NC334715   1.463   8.189   9.437
 2483POPC   PO434716   0.767   8.114   9.503
 2483POPC   GL134717   1.014   8.323   9.223
 2483POPC   GL234718   1.124   7.987   9.086
 2483POPC   C1A34719   1.203   8.416   8.828
 2483POPC   D2A34720   1.116   8.143   8.479
 2483POPC   C3A34721   1.313   8.366   8.157
 2483POPC   C4A34722   1.227   8.482   7.726
 2483POPC   C1B34723   1.508   7.961   8.804
 2483POPC   C2B34724   1.542   7.894   8.354
 2483POPC   C3B34725   1.367   7.915   7.938
 2483POPC   C4B34726   0.942   8.023   7.776
 2484POPC   NC334727  44.037  17.186   9.424
 2484POPC   PO434728  43.514  17.566   9.503
 2484POPC   GL134729  43.787  17.537   9.149
 2484POPC   GL234730  44.082  17.684   9.295
 2484POPC   C1A34731  43.780  17.347   8.739
 2484POPC   D2A34732  43.449  17.325   8.434
 2484POPC   C3A34733  43.582  17.257   8.036
 2484POPC   C4A34734  43.729  17.479   7.717
 2484POPC   C1B34735  44.264  17.533   8.903
 2484POPC   C2B34736  44.174  17.590   8.488
 2484POPC   C3B34737  44.060  17.430   8.122
 2484POPC   C4B34738  44.211  17.613   7.746
 2485POPC   NC334739  41.303  36.898   9.344
 2485POPC   PO434740  41.797  37.381   9.473
 2485POPC   GL134741  41.645  37.203   9.093
 2485POPC   GL234742  41.795  36.893   9.093
 2485POPC   C1A34743  41.471  36.928   8.719
 2485POPC   D2A34744  41.269  36.876   8.310
 2485POPC   C3A34745  41.497  36.998   7.920
 2485POPC   C4A34746  41.350  36.744   7.548
 2485POPC   C1B34747  41.931  36.691   8.720
 2485POPC   C2B34748  41.759  36.728   8.312
 2485POPC   C3B34749  41.611  36.510   7.960
 2485POPC   C4B34750  41.799  36.270   7.643
 2486POPC   NC334751  26.536   0.368   9.477
 2486POPC   PO434752  27.251   0.522   9.475
 2486POPC   GL134753  26.936   0.398   9.115
 2486POPC   GL234754  27.243   0.361   8.869
 2486POPC   C1A34755  26.813   0.237   8.672
 2486POPC   D2A34756  26.986   0.478   8.302
 2486POPC   C3A34757  26.742   0.577   7.926
 2486POPC   C4A34758  26.711   0.201   7.644
 2486POPC   C1B34759  27.039   0.745   8.751
 2486POPC   C2B34760  27.180   0.955   8.392
 2486POPC   C3B34761  27.237   0.828   8.002
 2486POPC   C4B34762  27.176   0.498   7.701
 2487POPC   NC334763  33.086  32.595   9.541
 2487POPC   PO434764  33.293  33.265   9.511
 2487POPC   GL134765  33.057  32.998   9.176
 2487POPC   GL234766  32.822  32.677   9.112
 2487POPC   C1A34767  33.111  33.092   8.744
 2487POPC   D2A34768  33.210  33.395   8.419
 2487POPC   C3A34769  33.313  33.176   8.045
 2487POPC   C4A34770  33.365  32.804   7.787
 2487POPC   C1B34771  32.630  32.907   8.755
 2487POPC   C2B34772  32.763  33.101   8.361
 2487POPC   C3B34773  32.878  32.904   7.961
 2487POPC   C4B34774  32.940  32.691   7.538
 2488POPC   NC334775   8.383  14.028   9.684
 2488POPC   PO434776   8.352  14.728   9.467
 2488POPC   GL134777   8.150  14.399   9.250
 2488POPC   GL234778   8.468  14.226   9.221
 2488POPC   C1A34779   7.955  14.346   8.838
 2488POPC   D2A34780   7.859  14.520   8.438
 2488POPC   C3A34781   7.908  14.253   8.081
 2488POPC   C4A34782   8.048  14.399   7.697
 2488POPC   C1B34783   8.453  14.434   8.829
 2488POPC   C2B34784   8.314  14.272   8.445
 2488POPC   C3B34785   8.419  14.422   8.044
 2488POPC   C4B34786   8.554  14.152   7.717
 2489POPC   NC334787  25.949  18.542   9.605
 2489POPC   PO434788  26.455  18.123   9.541
 2489POPC   GL134789  26.162  18.260   9.207
 2489POPC   GL234790  25.773  18.282   9.191
 2489POPC   C1A34791  26.134  18.052   8.803
 2489POPC   D2A34792  26.009  18.260   8.428
 2489POPC   C3A34793  26.199  18.215   8.029
 2489POPC   C4A34794  26.329  18.577   7.796
 2489POPC   C1B34795  25.627  18.136   8.781
 2489POPC   C2B34796  25.589  17.960   8.400
 2489POPC   C3B34797  25.673  18.200   8.032
 2489POPC   C4B34798  25.842  18.320   7.589
 2490POPC   NC334799   7.671  21.787   9.382
 2490POPC   PO434800   7.173  22.213   9.618
 2490POPC   GL134801   7.311  22.348   9.162
 2490POPC   GL234802   7.636  22.228   9.133
 2490POPC   C1A34803   7.292  22.278   8.693
 2490POPC   D2A34804   7.289  22.023   8.297
 2490POPC   C3A34805   7.328  22.205   7.873
 2490POPC   C4A34806   7.272  22.067   7.433
 2490POPC   C1B34807   7.665  21.936   8.748
 2490POPC   C2B34808   7.726  21.752   8.368
 2490POPC   C3B34809   7.744  21.915   8.006
 2490POPC   C4B34810   7.797  22.138   7.664
 2491POPC   NC334811  28.684  39.290   9.615
 2491POPC   PO434812  29.336  39.499   9.528
 2491POPC   GL134813  29.111  39.430   9.169
 2491POPC   GL234814  28.791  39.614   9.200
 2491POPC   C1A34815  29.172  39.174   8.804
 2491POPC   D2A34816  28.949  39.064   8.474
 2491POPC   C3A34817  29.059  39.090   8.061
 2491POPC   C4A34818  28.882  39.034   7.691
 2491POPC   C1B34819  28.854  39.610   8.738
 2491POPC   C2B34820  29.036  39.534   8.325
 2491POPC   C3B34821  28.921  39.550   7.871
 2491POPC   C4B34822  28.959  39.450   7.423
 2492POPC   NC334823  10.862  17.854   9.823
 2492POPC   PO434824  10.443  17.623   9.319
 2492POPC   GL134825  10.484  17.379   8.994
 2492POPC   GL234826  10.733  17.155   9.074
 2492POPC   C1A34827  10.479  17.568   8.606
 2492POPC   D2A34828  10.184  17.567   8.289
 2492POPC   C3A34829  10.396  17.515   7.899
 2492POPC   C4A34830  10.284  17.813   7.574
 2492POPC   C1B34831  10.966  17.423   8.765
 2492POPC   C2B34832  10.935  17.667   8.362
 2492POPC   C3B34833  10.879  17.749   7.889
 2492POPC   C4B34834  10.751  17.465   7.516
 2493POPC   NC334835  36.004  37.577   9.346
 2493POPC   PO434836  36.431  38.117   9.464
 2493POPC   GL134837  36.328  37.979   9.054
 2493POPC   GL234838  36.416  37.649   9.025
 2493POPC   C1A34839  36.350  38.013   8.563
 2493POPC   D2A34840  36.078  37.888   8.230
 2493POPC   C3A34841  36.174  37.913   7.805
 2493POPC   C4A34842  36.339  37.576   7.572
 2493POPC   C1B34843  36.053  37.633   8.718
 2493POPC   C2B34844  35.908  37.428   8.371
 2493POPC   C3B34845  35.930  37.383   7.950
 2493POPC   C4B34846  35.693  37.059   7.719
 2494POPC   NC334847  36.715  28.373   9.471
 2494POPC   PO434848  37.349  28.310   9.609
 2494POPC   GL134849  37.152  28.353   9.221
 2494POPC   GL234850  37.185  27.998   9.209
 2494POPC   C1A34851  36.967  28.461   8.829
 2494POPC   D2A34852  37.120  28.609   8.445
 2494POPC   C3A34853  37.011  28.462   8.028
 2494POPC   C4A34854  36.737  28.513   7.689
 2494POPC   C1B34855  37.057  27.953   8.776
 2494POPC   C2B34856  36.801  28.150   8.425
 2494POPC   C3B34857  36.748  27.987   7.998
 2494POPC   C4B34858  37.074  28.032   7.707
 2495POPC   NC334859  44.028  27.316   9.585
 2495POPC   PO434860  43.789  27.886   9.854
 2495POPC   GL134861  43.832  27.778   9.392
 2495POPC   GL234862  43.538  27.708   9.204
 2495POPC   C1A34863  43.967  27.793   8.940
 2495POPC   D2A34864  44.116  27.572   8.557
 2495POPC   C3A34865  44.073  27.706   8.137
 2495POPC   C4A34866  44.197  27.658   7.688
 2495POPC   C1B34867  43.549  27.549   8.749
 2495POPC   C2B34868  43.668  27.434   8.308
 2495POPC   C3B34869  43.761  27.474   7.832
 2495POPC   C4B34870  43.664  27.657   7.394
 2496POPC   NC334871  29.673  21.940   9.347
 2496POPC   PO434872  29.772  22.517   9.449
 2496POPC   GL134873  30.109  22.185   9.169
 2496POPC   GL234874  30.075  21.823   9.036
 2496POPC   C1A34875  30.256  22.138   8.689
 2496POPC   D2A34876  30.060  22.422   8.416
 2496POPC   C3A34877  29.849  22.246   8.103
 2496POPC   C4A34878  29.949  22.113   7.708
 2496POPC   C1B34879  29.756  22.101   8.747
 2496POPC   C2B34880  29.504  22.012   8.393
 2496POPC   C3B34881  29.682  21.761   8.035
 2496POPC   C4B34882  29.637  21.702   7.567
 2497POPC   NC334883  10.403  15.138   9.575
 2497POPC   PO434884  11.031  15.064   9.676
 2497POPC   GL134885  10.796  15.225   9.237
 2497POPC   GL234886  10.649  14.985   9.069
 2497POPC   C1A34887  10.367  15.390   8.964
 2497POPC   D2A34888   9.988  15.322   8.640
 2497POPC   C3A34889  10.064  15.271   8.169
 2497POPC   C4A34890  10.316  15.305   7.751
 2497POPC   C1B34891  10.359  14.940   8.734
 2497POPC   C2B34892  10.475  15.255   8.446
 2497POPC   C3B34893  10.720  15.225   8.073
 2497POPC   C4B34894  10.825  15.173   7.638
 2498POPC   NC334895  13.311  14.991   9.698
 2498POPC   PO434896  12.901  15.564   9.514
 2498POPC   GL134897  12.730  15.293   9.214
 2498POPC   GL234898  12.360  15.169   9.223
 2498POPC   C1A34899  13.007  15.141   8.904
 2498POPC   D2A34900  13.278  14.958   8.575
 2498POPC   C3A34901  13.107  15.012   8.185
 2498POPC   C4A34902  12.981  15.086   7.778
 2498POPC   C1B34903  12.475  15.118   8.788
 2498POPC   C2B34904  12.757  15.276   8.474
 2498POPC   C3B34905  12.634  15.324   8.071
 2498POPC   C4B34906  12.453  15.014   7.829
 2499POPC   NC334907  29.189  34.318   9.703
 2499POPC   PO434908  29.147  33.648   9.605
 2499POPC   GL134909  28.966  33.727   9.214
 2499POPC   GL234910  29.080  34.042   9.255
 2499POPC   C1A34911  28.818  33.717   8.772
 2499POPC   D2A34912  28.987  33.448   8.430
 2499POPC   C3A34913  29.014  33.634   7.992
 2499POPC   C4A34914  29.279  33.713   7.604
 2499POPC   C1B34915  29.286  33.943   8.864
 2499POPC   C2B34916  29.319  33.876   8.440
 2499POPC   C3B34917  29.448  33.930   8.029
 2499POPC   C4B34918  29.237  34.209   7.718
 2500POPC   NC334919  17.631  26.292   9.514
 2500POPC   PO434920  17.361  25.671   9.477
 2500POPC   GL134921  17.408  26.011   9.120
 2500POPC   GL234922  17.699  26.271   9.006
 2500POPC   C1A34923  17.562  25.852   8.718
 2500POPC   D2A34924  17.451  25.660   8.336
 2500POPC   C3A34925  17.568  25.773   7.938
 2500POPC   C4A34926  17.768  25.940   7.594
 2500POPC   C1B34927  17.446  26.329   8.597
 2500POPC   C2B34928  17.420  26.193   8.171
 2500POPC   C3B34929  17.401  26.298   7.729
 2500POPC   C4B34930  17.518  26.476   7.313
 2501POPC   NC334931  35.891  15.579   9.662
 2501POPC   PO434932  35.754  14.948   9.481
 2501POPC   GL134933  35.957  15.276   9.209
 2501POPC   GL234934  36.226  15.549   9.204
 2501POPC   C1A34935  36.107  15.164   8.803
 2501POPC   D2A34936  35.817  15.009   8.481
 2501POPC   C3A34937  35.973  14.988   8.084
 2501POPC   C4A34938  35.926  15.153   7.691
 2501POPC   C1B34939  36.173  15.688   8.747
 2501POPC   C2B34940  36.239  15.448   8.335
 2501POPC   C3B34941  36.388  15.288   7.893
 2501POPC   C4B34942  36.439  15.307   7.392
 2502POPC   NC334943  30.466  35.723   9.551
 2502POPC   PO434944  30.853  36.284   9.681
 2502POPC   GL134945  30.790  36.101   9.278
 2502POPC   GL234946  30.718  35.776   9.119
 2502POPC   C1A34947  30.661  36.236   8.884
 2502POPC   D2A34948  30.829  36.429   8.553
 2502POPC   C3A34949  31.025  36.166   8.221
 2502POPC   C4A34950  30.854  36.156   7.795
 2502POPC   C1B34951  30.498  35.775   8.784
 2502POPC   C2B34952  30.559  35.988   8.403
 2502POPC   C3B34953  30.568  35.793   7.995
 2502POPC   C4B34954  30.609  35.778   7.531
 2503POPC   NC334955  38.004  26.872   9.554
 2503POPC   PO434956  38.130  26.327   9.362
 2503POPC   GL134957  37.867  26.592   9.105
 2503POPC   GL234958  37.740  26.920   9.115
 2503POPC   C1A34959  37.579  26.602   8.762
 2503POPC   D2A34960  37.810  26.624   8.397
 2503POPC   C3A34961  37.684  26.808   8.044
 2503POPC   C4A34962  37.468  26.864   7.669
 2503POPC   C1B34963  37.868  27.048   8.708
 2503POPC   C2B34964  37.768  27.258   8.308
 2503POPC   C3B34965  37.665  27.290   7.865
 2503POPC   C4B34966  37.888  27.140   7.475
 2504POPC   NC334967  19.809  38.151   9.545
 2504POPC   PO434968  19.576  38.751   9.428
 2504POPC   GL134969  19.873  38.588   9.108
 2504POPC   GL234970  20.052  38.260   9.117
 2504POPC   C1A34971  19.699  38.434   8.697
 2504POPC   D2A34972  19.570  38.551   8.235
 2504POPC   C3A34973  19.793  38.455   7.887
 2504POPC   C4A34974  19.827  38.444   7.461
 2504POPC   C1B34975  20.036  38.031   8.741
 2504POPC   C2B34976  19.832  38.064   8.364
 2504POPC   C3B34977  20.022  38.039   8.023
 2504POPC   C4B34978  19.871  37.964   7.643
 2505POPC   NC334979  37.079  14.768   9.341
 2505POPC   PO434980  37.397  14.377   9.694
 2505POPC   GL134981  37.577  14.326   9.247
 2505POPC   GL234982  37.488  14.626   9.060
 2505POPC   C1A34983  37.493  14.218   8.753
 2505POPC   D2A34984  37.296  14.165   8.293
 2505POPC   C3A34985  37.580  14.185   7.872
 2505POPC   C4A34986  37.924  14.382   7.596
 2505POPC   C1B34987  37.519  14.725   8.609
 2505POPC   C2B34988  37.603  14.558   8.214
 2505POPC   C3B34989  37.600  14.714   7.794
 2505POPC   C4B34990  37.689  14.791   7.364
 2506POPC   NC334991  24.663  36.004   9.669
 2506POPC   PO434992  24.625  36.591   9.473
 2506POPC   GL134993  24.743  36.227   9.190
 2506POPC   GL234994  24.527  35.914   9.191
 2506POPC   C1A34995  24.636  36.184   8.749
 2506POPC   D2A34996  24.603  36.410   8.350
 2506POPC   C3A34997  24.233  36.356   8.088
 2506POPC   C4A34998  24.378  36.067   7.820
 2506POPC   C1B34999  24.302  35.781   8.819
 2506POPC   C2B35000  24.149  35.939   8.399
 2506POPC   C3B35001  24.041  35.722   7.988
 2506POPC   C4B35002  24.364  35.584   7.677
 2507POPC   NC335003  43.700   7.065   9.624
 2507POPC   PO435004  43.624   7.703   9.663
 2507POPC   GL135005  43.930   7.611   9.310
 2507POPC   GL235006  43.753   7.317   9.189
 2507POPC   C1A35007  44.117   7.511   8.868
 2507POPC   D2A35008  44.209   7.385   8.421
 2507POPC   C3A35009  44.040   7.552   8.010
 2507POPC   C4A35010  44.029   7.654   7.548
 2507POPC   C1B35011  43.645   7.307   8.774
 2507POPC   C2B35012  43.697   7.493   8.408
 2507POPC   C3B35013  43.504   7.537   8.040
 2507POPC   C4B35014  43.336   7.408   7.660
 2508POPC   NC335015  28.969  32.573   9.454
 2508POPC   PO435016  29.373  32.039   9.478
 2508POPC   GL135017  29.234  32.144   9.087
 2508POPC   GL235018  29.370  32.494   9.158
 2508POPC   C1A35019  29.266  32.005   8.626
 2508POPC   D2A35020  29.104  31.879   8.192
 2508POPC   C3A35021  29.157  32.116   7.786
 2508POPC   C4A35022  29.040  32.440   7.465
 2508POPC   C1B35023  29.152  32.521   8.754
 2508POPC   C2B35024  29.216  32.428   8.324
 2508POPC   C3B35025  29.029  32.576   7.965
 2508POPC   C4B35026  28.818  32.842   7.685
 2509POPC   NC335027  43.821   3.863   9.519
 2509POPC   PO435028  44.485   3.812   9.695
 2509POPC   GL135029  44.190   3.629   9.271
 2509POPC   GL235030  43.802   3.537   9.152
 2509POPC   C1A35031  44.160   3.576   8.808
 2509POPC   D2A35032  44.246   3.787   8.425
 2509POPC   C3A35033  44.106   3.544   8.099
 2509POPC   C4A35034  43.991   3.531   7.673
 2509POPC   C1B35035  43.514   3.580   8.829
 2509POPC   C2B35036  43.722   3.483   8.444
 2509POPC   C3B35037  43.581   3.520   8.019
 2509POPC   C4B35038  43.473   3.420   7.584
 2510POPC   NC335039  32.938  35.966   9.587
 2510POPC   PO435040  32.624  36.596   9.479
 2510POPC   GL135041  32.991  36.391   9.261
 2510POPC   GL235042  33.134  36.638   9.043
 2510POPC   C1A35043  33.183  36.118   8.895
 2510POPC   D2A35044  33.379  36.045   8.443
 2510POPC   C3A35045  33.223  36.032   7.995
 2510POPC   C4A35046  33.183  36.138   7.514
 2510POPC   C1B35047  32.778  36.451   8.798
 2510POPC   C2B35048  32.475  36.295   8.478
 2510POPC   C3B35049  32.647  36.343   8.038
 2510POPC   C4B35050  32.807  36.449   7.624
 2511POPC   NC335051  10.812  37.235   9.491
 2511POPC   PO435052  10.472  36.758   9.644
 2511POPC   GL135053  10.679  36.727   9.241
 2511POPC   GL235054  10.381  36.512   9.156
 2511POPC   C1A35055  10.799  36.883   8.810
 2511POPC   D2A35056  10.908  37.082   8.382
 2511POPC   C3A35057  10.789  36.977   7.929
 2511POPC   C4A35058  10.557  37.114   7.554
 2511POPC   C1B35059  10.676  36.372   8.855
 2511POPC   C2B35060  10.777  36.502   8.447
 2511POPC   C3B35061  10.691  36.474   8.039
 2511POPC   C4B35062  10.390  36.610   7.731
 2512POPC   NC335063   9.801   9.165   9.530
 2512POPC   PO435064   9.601   8.561   9.580
 2512POPC   GL135065   9.560   8.879   9.185
 2512POPC   GL235066   9.428   9.230   9.171
 2512POPC   C1A35067   9.737   9.125   8.793
 2512POPC   D2A35068  10.022   9.059   8.427
 2512POPC   C3A35069   9.820   8.895   8.057
 2512POPC   C4A35070   9.659   8.849   7.647
 2512POPC   C1B35071   9.237   9.277   8.770
 2512POPC   C2B35072   9.427   9.357   8.369
 2512POPC   C3B35073   9.393   9.216   7.934
 2512POPC   C4B35074   9.432   9.272   7.482
 2513POPC   NC335075  29.041  20.218   9.452
 2513POPC   PO435076  29.361  19.602   9.550
 2513POPC   GL135077  29.281  19.632   9.112
 2513POPC   GL235078  29.047  19.890   9.070
 2513POPC   C1A35079  29.318  19.790   8.655
 2513POPC   D2A35080  29.526  20.049   8.317
 2513POPC   C3A35081  29.451  19.892   7.868
 2513POPC   C4A35082  29.394  19.901   7.384
 2513POPC   C1B35083  28.808  19.988   8.690
 2513POPC   C2B35084  28.998  20.018   8.285
 2513POPC   C3B35085  28.858  20.026   7.871
 2513POPC   C4B35086  28.635  20.295   7.584
 2514POPC   NC335087  34.737  31.686   9.543
 2514POPC   PO435088  34.296  31.133   9.441
 2514POPC   GL135089  34.445  31.434   9.183
 2514POPC   GL235090  34.358  31.756   9.226
 2514POPC   C1A35091  34.624  31.336   8.777
 2514POPC   D2A35092  34.545  31.199   8.391
 2514POPC   C3A35093  34.784  31.286   8.089
 2514POPC   C4A35094  34.533  31.371   7.745
 2514POPC   C1B35095  34.350  31.768   8.803
 2514POPC   C2B35096  34.188  31.640   8.443
 2514POPC   C3B35097  34.475  31.690   8.133
 2514POPC   C4B35098  34.467  31.862   7.726
 2515POPC   NC335099  39.388  26.571   9.610
 2515POPC   PO435100  39.379  27.170   9.415
 2515POPC   GL135101  39.104  26.968   9.131
 2515POPC   GL235102  39.112  26.600   9.176
 2515POPC   C1A35103  38.938  26.916   8.721
 2515POPC   D2A35104  39.131  26.702   8.378
 2515POPC   C3A35105  39.105  26.837   7.938
 2515POPC   C4A35106  38.892  27.141   7.665
 2515POPC   C1B35107  39.434  26.412   8.887
 2515POPC   C2B35108  39.437  26.288   8.439
 2515POPC   C3B35109  39.178  26.292   8.076
 2515POPC   C4B35110  39.328  26.430   7.706
 2516POPC   NC335111  34.263   7.882   9.769
 2516POPC   PO435112  34.792   7.819   9.316
 2516POPC   GL135113  34.706   8.198   9.039
 2516POPC   GL235114  34.393   8.428   9.174
 2516POPC   C1A35115  34.624   8.172   8.596
 2516POPC   D2A35116  34.831   8.361   8.246
 2516POPC   C3A35117  34.625   8.318   7.857
 2516POPC   C4A35118  34.592   8.414   7.428
 2516POPC   C1B35119  34.165   8.341   8.781
 2516POPC   C2B35120  34.114   8.094   8.425
 2516POPC   C3B35121  34.233   8.032   8.014
 2516POPC   C4B35122  34.037   8.166   7.636
 2517POPC   NC335123  34.921  41.284   9.462
 2517POPC   PO435124  34.312  41.593   9.382
 2517POPC   GL135125  34.535  41.492   9.031
 2517POPC   GL235126  34.535  41.167   9.107
 2517POPC   C1A35127  34.690  41.616   8.610
 2517POPC   D2A35128  34.693  41.905   8.264
 2517POPC   C3A35129  34.458  41.714   7.939
 2517POPC   C4A35130  34.563  41.549   7.530
 2517POPC   C1B35131  34.568  41.124   8.652
 2517POPC   C2B35132  34.509  41.256   8.208
 2517POPC   C3B35133  34.671  41.090   7.800
 2517POPC   C4B35134  34.851  41.186   7.364
 2518POPC   NC335135  16.025  12.440   9.623
 2518POPC   PO435136  15.743  11.796   9.571
 2518POPC   GL135137  15.863  11.804   9.131
 2518POPC   GL235138  16.086  12.060   9.201
 2518POPC   C1A35139  16.153  11.703   8.784
 2518POPC   D2A35140  16.325  11.761   8.364
 2518POPC   C3A35141  16.050  11.771   7.974
 2518POPC   C4A35142  15.648  11.875   7.742
 2518POPC   C1B35143  15.978  12.189   8.771
 2518POPC   C2B35144  16.143  12.231   8.332
 2518POPC   C3B35145  16.013  12.286   7.894
 2518POPC   C4B35146  15.967  12.251   7.468
 2519POPC   NC335147  35.108  44.882   9.426
 2519POPC   PO435148  35.560  44.456   9.428
 2519POPC   GL135149  35.442  44.391   9.032
 2519POPC   GL235150  35.109  44.397   9.162
 2519POPC   C1A35151  35.662  44.435   8.652
 2519POPC   D2A35152  35.905  44.603   8.313
 2519POPC   C3A35153  35.695  44.750   7.928
 2519POPC   C4A35154  35.748  44.611   7.485
 2519POPC   C1B35155  35.053  44.619   8.797
 2519POPC   C2B35156  35.234  44.600   8.422
 2519POPC   C3B35157  35.449  44.363   8.142
 2519POPC   C4B35158  35.301  44.514   7.707
 2520POPC   NC335159  39.475  24.843   9.510
 2520POPC   PO435160  40.188  24.869   9.447
 2520POPC   GL135161  39.963  25.135   9.129
 2520POPC   GL235162  39.619  25.227   9.186
 2520POPC   C1A35163  40.027  25.425   8.800
 2520POPC   D2A35164  40.143  25.148   8.493
 2520POPC   C3A35165  40.243  25.254   8.091
 2520POPC   C4A35166  40.189  25.079   7.696
 2520POPC   C1B35167  39.605  25.141   8.741
 2520POPC   C2B35168  39.722  25.349   8.340
 2520POPC   C3B35169  39.762  25.260   7.925
 2520POPC   C4B35170  39.690  24.990   7.590
 2521POPC   NC335171  34.735  27.683   9.461
 2521POPC   PO435172  34.046  27.756   9.385
 2521POPC   GL135173  34.376  27.667   9.084
 2521POPC   GL235174  34.612  27.455   8.992
 2521POPC   C1A35175  34.713  27.884   8.784
 2521POPC   D2A35176  34.910  27.708   8.425
 2521POPC   C3A35177  34.718  27.863   8.097
 2521POPC   C4A35178  34.457  27.923   7.799
 2521POPC   C1B35179  34.322  27.576   8.601
 2521POPC   C2B35180  34.156  27.713   8.194
 2521POPC   C3B35181  34.309  27.459   7.894
 2521POPC   C4B35182  34.690  27.441   7.785
 2522POPC   NC335183  13.813  23.314   9.645
 2522POPC   PO435184  13.383  23.867   9.676
 2522POPC   GL135185  13.641  23.740   9.280
 2522POPC   GL235186  13.833  23.444   9.171
 2522POPC   C1A35187  13.761  23.807   8.828
 2522POPC   D2A35188  13.560  23.950   8.452
 2522POPC   C3A35189  13.615  23.735   8.089
 2522POPC   C4A35190  13.644  23.940   7.732
 2522POPC   C1B35191  13.909  23.218   8.823
 2522POPC   C2B35192  14.035  23.235   8.391
 2522POPC   C3B35193  13.865  23.170   7.983
 2522POPC   C4B35194  13.762  23.452   7.650
 2523POPC   NC335195  39.979  30.969   9.507
 2523POPC   PO435196  39.587  30.476   9.430
 2523POPC   GL135197  40.023  30.550   9.219
 2523POPC   GL235198  40.150  30.870   9.051
 2523POPC   C1A35199  40.174  30.437   8.813
 2523POPC   D2A35200  40.009  30.440   8.413
 2523POPC   C3A35201  40.263  30.386   8.059
 2523POPC   C4A35202  40.158  30.294   7.645
 2523POPC   C1B35203  40.404  31.119   8.778
 2523POPC   C2B35204  40.382  31.208   8.346
 2523POPC   C3B35205  40.076  30.897   8.183
 2523POPC   C4B35206  39.875  30.688   7.820
 2524POPC   NC335207  40.792  20.962   9.693
 2524POPC   PO435208  40.506  20.384   9.524
 2524POPC   GL135209  40.736  20.673   9.256
 2524POPC   GL235210  40.487  20.952   9.258
 2524POPC   C1A35211  40.845  20.900   8.864
 2524POPC   D2A35212  40.698  21.007   8.440
 2524POPC   C3A35213  40.851  20.774   8.094
 2524POPC   C4A35214  41.050  20.678   7.746
 2524POPC   C1B35215  40.339  20.946   8.820
 2524POPC   C2B35216  40.178  20.769   8.450
 2524POPC   C3B35217  40.355  20.677   8.078
 2524POPC   C4B35218  40.511  20.830   7.691
 2525POPC   NC335219  34.398  13.289   9.473
 2525POPC   PO435220  34.466  12.576   9.627
 2525POPC   GL135221  34.678  12.682   9.203
 2525POPC   GL235222  34.480  12.909   8.963
 2525POPC   C1A35223  34.722  12.563   8.734
 2525POPC   D2A35224  34.367  12.769   8.461
 2525POPC   C3A35225  34.536  12.877   8.090
 2525POPC   C4A35226  34.789  12.592   7.801
 2525POPC   C1B35227  34.733  13.073   8.574
 2525POPC   C2B35228  34.982  13.092   8.207
 2525POPC   C3B35229  34.905  13.090   7.752
 2525POPC   C4B35230  34.800  13.097   7.287
 2526POPC   NC335231  14.218  10.235   9.629
 2526POPC   PO435232  14.788  10.161   9.269
 2526POPC   GL135233  14.670  10.536   9.075
 2526POPC   GL235234  14.333  10.512   9.134
 2526POPC   C1A35235  14.506  10.631   8.663
 2526POPC   D2A35236  14.162  10.438   8.484
 2526POPC   C3A35237  14.243  10.304   8.115
 2526POPC   C4A35238  14.484  10.316   7.794
 2526POPC   C1B35239  14.018  10.752   8.853
 2526POPC   C2B35240  13.898  10.900   8.413
 2526POPC   C3B35241  14.130  10.885   8.014
 2526POPC   C4B35242  14.307  10.768   7.598
 2527POPC   NC335243  43.107  31.116   9.638
 2527POPC   PO435244  42.752  31.751   9.636
 2527POPC   GL135245  42.977  31.631   9.272
 2527POPC   GL235246  43.143  31.341   9.179
 2527POPC   C1A35247  42.898  31.673   8.846
 2527POPC   D2A35248  42.986  31.691   8.428
 2527POPC   C3A35249  42.796  31.565   8.056
 2527POPC   C4A35250  42.993  31.610   7.628
 2527POPC   C1B35251  43.284  31.325   8.756
 2527POPC   C2B35252  43.309  31.173   8.353
 2527POPC   C3B35253  43.227  31.283   7.957
 2527POPC   C4B35254  43.237  31.080   7.579
 2528POPC   NC335255  23.017  26.879   9.481
 2528POPC   PO435256  22.618  26.366   9.639
 2528POPC   GL135257  22.636  26.685   9.240
 2528POPC   GL235258  22.540  27.040   9.290
 2528POPC   C1A35259  22.920  26.689   8.839
 2528POPC   D2A35260  22.728  26.505   8.482
 2528POPC   C3A35261  22.829  26.690   8.104
 2528POPC   C4A35262  23.062  26.738   7.720
 2528POPC   C1B35263  22.664  27.118   8.844
 2528POPC   C2B35264  22.943  27.137   8.468
 2528POPC   C3B35265  22.960  27.177   8.030
 2528POPC   C4B35266  22.645  27.038   7.761
 2529POPC   NC335267  15.753  39.964   9.747
 2529POPC   PO435268  16.376  40.117   9.603
 2529POPC   GL135269  16.122  40.041   9.226
 2529POPC   GL235270  15.747  40.037   9.217
 2529POPC   C1A35271  16.195  40.069   8.778
 2529POPC   D2A35272  16.336  39.984   8.355
 2529POPC   C3A35273  16.118  40.237   8.079
 2529POPC   C4A35274  16.095  40.474   7.696
 2529POPC   C1B35275  15.725  39.840   8.794
 2529POPC   C2B35276  15.817  39.885   8.341
 2529POPC   C3B35277  15.688  40.002   7.914
 2529POPC   C4B35278  15.868  39.852   7.545
 2530POPC   NC335279  34.805  35.085   9.550
 2530POPC   PO435280  34.285  35.482   9.719
 2530POPC   GL135281  34.401  35.369   9.265
 2530POPC   GL235282  34.732  35.298   9.109
 2530POPC   C1A35283  34.350  35.492   8.812
 2530POPC   D2A35284  34.223  35.454   8.367
 2530POPC   C3A35285  34.494  35.283   8.049
 2530POPC   C4A35286  34.438  35.218   7.617
 2530POPC   C1B35287  35.020  35.221   8.809
 2530POPC   C2B35288  34.928  35.393   8.413
 2530POPC   C3B35289  35.020  35.473   7.989
 2530POPC   C4B35290  34.934  35.168   7.731
 2531POPC   NC335291  35.792  38.281   9.437
 2531POPC   PO435292  36.244  38.830   9.512
 2531POPC   GL135293  36.135  38.571   9.178
 2531POPC   GL235294  35.856  38.764   9.112
 2531POPC   C1A35295  35.970  38.286   8.819
 2531POPC   D2A35296  35.814  38.293   8.388
 2531POPC   C3A35297  36.073  38.396   8.041
 2531POPC   C4A35298  36.193  38.755   7.765
 2531POPC   C1B35299  35.715  38.725   8.700
 2531POPC   C2B35300  35.813  38.792   8.278
 2531POPC   C3B35301  35.678  38.809   7.858
 2531POPC   C4B35302  35.781  38.807   7.427
 2532POPC   NC335303  27.222  41.787   9.361
 2532POPC   PO435304  27.787  41.926   9.776
 2532POPC   GL135305  27.858  41.667   9.283
 2532POPC   GL235306  27.609  41.557   9.156
 2532POPC   C1A35307  27.926  41.285   8.919
 2532POPC   D2A35308  27.982  41.205   8.440
 2532POPC   C3A35309  27.791  41.475   8.063
 2532POPC   C4A35310  27.414  41.535   7.768
 2532POPC   C1B35311  27.763  41.733   8.746
 2532POPC   C2B35312  27.602  41.929   8.389
 2532POPC   C3B35313  27.503  42.002   7.972
 2532POPC   C4B35314  27.614  41.979   7.551
 2533POPC   NC335315  34.906  37.702   9.435
 2533POPC   PO435316  34.283  37.402   9.441
 2533POPC   GL135317  34.491  37.609   9.117
 2533POPC   GL235318  34.741  37.380   9.071
 2533POPC   C1A35319  34.430  37.755   8.713
 2533POPC   D2A35320  34.694  37.730   8.354
 2533POPC   C3A35321  34.558  37.700   7.941
 2533POPC   C4A35322  34.736  37.818   7.568
 2533POPC   C1B35323  34.660  37.286   8.635
 2533POPC   C2B35324  34.298  37.359   8.336
 2533POPC   C3B35325  34.204  37.343   7.882
 2533POPC   C4B35326  34.341  37.519   7.429
 2534POPC   NC335327  42.530   2.483   9.834
 2534POPC   PO435328  42.106   2.888   9.519
 2534POPC   GL135329  42.236   2.890   9.112
 2534POPC   GL235330  41.941   2.915   8.926
 2534POPC   C1A35331  42.471   2.799   8.722
 2534POPC   D2A35332  42.366   2.515   8.383
 2534POPC   C3A35333  42.269   2.769   8.060
 2534POPC   C4A35334  42.346   2.956   7.681
 2534POPC   C1B35335  42.084   2.462   8.834
 2534POPC   C2B35336  41.959   2.169   8.488
 2534POPC   C3B35337  41.953   2.337   8.059
 2534POPC   C4B35338  42.145   2.482   7.670
 2535POPC   NC335339  11.973   7.914   9.585
 2535POPC   PO435340  12.634   8.135   9.503
 2535POPC   GL135341  12.278   8.057   9.199
 2535POPC   GL235342  11.886   7.947   9.085
 2535POPC   C1A35343  12.177   8.260   8.833
 2535POPC   D2A35344  11.860   8.205   8.561
 2535POPC   C3A35345  11.998   8.188   8.140
 2535POPC   C4A35346  11.925   8.344   7.727
 2535POPC   C1B35347  11.746   7.709   8.692
 2535POPC   C2B35348  11.795   7.684   8.225
 2535POPC   C3B35349  11.831   7.855   7.799
 2535POPC   C4B35350  12.230   7.985   7.602
 2536POPC   NC335351  15.148  43.592   9.926
 2536POPC   PO435352  15.055  44.113   9.508
 2536POPC   GL135353  15.030  43.864   9.169
 2536POPC   GL235354  15.015  43.489   9.216
 2536POPC   C1A35355  15.014  44.072   8.794
 2536POPC   D2A35356  15.131  43.967   8.399
 2536POPC   C3A35357  15.179  44.218   8.060
 2536POPC   C4A35358  15.066  44.137   7.625
 2536POPC   C1B35359  14.941  43.560   8.732
 2536POPC   C2B35360  14.901  43.533   8.259
 2536POPC   C3B35361  15.125  43.726   7.926
 2536POPC   C4B35362  15.152  43.643   7.502
 2537POPC   NC335363  24.383  43.469   9.611
 2537POPC   PO435364  24.559  42.803   9.510
 2537POPC   GL135365  24.556  43.124   9.241
 2537POPC   GL235366  24.233  43.206   9.180
 2537POPC   C1A35367  24.674  43.090   8.830
 2537POPC   D2A35368  24.842  43.322   8.518
 2537POPC   C3A35369  24.878  43.062   8.176
 2537POPC   C4A35370  24.705  43.123   7.808
 2537POPC   C1B35371  24.193  43.271   8.754
 2537POPC   C2B35372  24.374  43.157   8.362
 2537POPC   C3B35373  24.186  43.088   7.974
 2537POPC   C4B35374  24.134  43.050   7.510
 2538POPC   NC335375  22.298  29.510   9.660
 2538POPC   PO435376  21.894  29.000   9.711
 2538POPC   GL135377  22.082  29.126   9.267
 2538POPC   GL235378  22.428  29.257   9.226
 2538POPC   C1A35379  21.978  28.931   8.844
 2538POPC   D2A35380  22.208  28.890   8.458
 2538POPC   C3A35381  22.049  28.773   8.061
 2538POPC   C4A35382  22.128  28.913   7.652
 2538POPC   C1B35383  22.329  29.300   8.793
 2538POPC   C2B35384  22.364  29.444   8.386
 2538POPC   C3B35385  22.379  29.179   8.051
 2538POPC   C4B35386  22.509  29.223   7.657
 2539POPC   NC335387  17.096  18.533   9.591
 2539POPC   PO435388  17.753  18.313   9.565
 2539POPC   GL135389  17.475  18.442   9.220
 2539POPC   GL235390  17.509  18.129   9.030
 2539POPC   C1A35391  17.446  18.537   8.749
 2539POPC   D2A35392  17.291  18.193   8.453
 2539POPC   C3A35393  17.368  18.123   7.988
 2539POPC   C4A35394  17.442  18.464   7.669
 2539POPC   C1B35395  17.799  18.186   8.641
 2539POPC   C2B35396  17.735  18.408   8.245
 2539POPC   C3B35397  17.847  18.223   7.845
 2539POPC   C4B35398  17.681  17.836   7.655
 2540POPC   NC335399  10.180  17.983   9.502
 2540POPC   PO435400  10.796  18.209   9.506
 2540POPC   GL135401  10.603  18.151   9.122
 2540POPC   GL235402  10.323  18.301   9.129
 2540POPC   C1A35403  10.569  18.134   8.674
 2540POPC   D2A35404  10.786  18.138   8.262
 2540POPC   C3A35405  10.565  18.274   7.908
 2540POPC   C4A35406  10.617  18.654   7.608
 2540POPC   C1B35407  10.139  18.457   8.781
 2540POPC   C2B35408  10.285  18.461   8.354
 2540POPC   C3B35409  10.157  18.603   7.932
 2540POPC   C4B35410  10.177  18.361   7.585
 2541POPC   NC335411  40.243  42.072   9.432
 2541POPC   PO435412  39.654  42.320   9.476
 2541POPC   GL135413  39.894  42.342   9.071
 2541POPC   GL235414  40.136  42.592   8.959
 2541POPC   C1A35415  39.827  42.412   8.609
 2541POPC   D2A35416  40.154  42.653   8.401
 2541POPC   C3A35417  40.172  42.501   7.990
 2541POPC   C4A35418  39.881  42.178   7.814
 2541POPC   C1B35419  40.267  42.200   8.687
 2541POPC   C2B35420  40.471  42.175   8.282
 2541POPC   C3B35421  40.402  42.089   7.850
 2541POPC   C4B35422  40.296  42.270   7.475
 2542POPC   NC335423   7.784   5.232   9.300
 2542POPC   PO435424   8.261   4.945   9.644
 2542POPC   GL135425   8.115   4.815   9.239
 2542POPC   GL235426   8.437   4.960   9.140
 2542POPC   C1A35427   8.065   4.820   8.800
 2542POPC   D2A35428   8.376   4.965   8.510
 2542POPC   C3A35429   8.224   4.982   8.082
 2542POPC   C4A35430   8.517   4.992   7.757
 2542POPC   C1B35431   8.478   5.341   8.914
 2542POPC   C2B35432   8.689   5.461   8.568
 2542POPC   C3B35433   8.634   5.296   8.178
 2542POPC   C4B35434   8.551   5.494   7.801
 2543POPC   NC335435   0.492  14.942   9.553
 2543POPC   PO435436   0.748  15.514   9.768
 2543POPC   GL135437   0.599  15.433   9.338
 2543POPC   GL235438   0.794  15.169   9.226
 2543POPC   C1A35439   0.332  15.341   8.966
 2543POPC   D2A35440   0.386  15.451   8.524
 2543POPC   C3A35441   0.245  15.133   8.200
 2543POPC   C4A35442   0.375  15.117   7.763
 2543POPC   C1B35443   0.803  15.239   8.816
 2543POPC   C2B35444   0.699  15.055   8.455
 2543POPC   C3B35445   0.741  15.275   8.078
 2543POPC   C4B35446   0.888  15.170   7.659
 2544POPC   NC335447  27.820  24.265   9.338
 2544POPC   PO435448  27.429  24.726   9.668
 2544POPC   GL135449  27.408  24.566   9.218
 2544POPC   GL235450  27.369  24.208   9.140
 2544POPC   C1A35451  27.577  24.517   8.797
 2544POPC   D2A35452  27.679  24.695   8.437
 2544POPC   C3A35453  27.533  24.531   8.064
 2544POPC   C4A35454  27.267  24.673   7.766
 2544POPC   C1B35455  27.351  23.972   8.786
 2544POPC   C2B35456  27.424  24.190   8.434
 2544POPC   C3B35457  27.277  24.108   8.058
 2544POPC   C4B35458  27.358  24.179   7.653
 2545POPC   NC335459  28.543  43.958   9.420
 2545POPC   PO435460  29.061  44.197   9.802
 2545POPC   GL135461  29.025  44.136   9.313
 2545POPC   GL235462  29.015  43.798   9.216
 2545POPC   C1A35463  29.009  44.143   8.817
 2545POPC   D2A35464  29.079  43.897   8.417
 2545POPC   C3A35465  29.083  43.922   7.970
 2545POPC   C4A35466  29.438  43.854   7.718
 2545POPC   C1B35467  28.917  43.599   8.799
 2545POPC   C2B35468  28.920  43.391   8.382
 2545POPC   C3B35469  29.216  43.419   8.013
 2545POPC   C4B35470  29.112  43.498   7.554
 2546POPC   NC335471   1.424  12.126   9.493
 2546POPC   PO435472   0.994  11.693   9.714
 2546POPC   GL135473   0.940  11.912   9.279
 2546POPC   GL235474   0.768  11.781   8.991
 2546POPC   C1A35475   1.096  12.193   8.908
 2546POPC   D2A35476   1.013  12.458   8.532
 2546POPC   C3A35477   1.200  12.359   8.142
 2546POPC   C4A35478   1.086  12.158   7.756
 2546POPC   C1B35479   1.124  11.697   8.755
 2546POPC   C2B35480   1.239  11.885   8.366
 2546POPC   C3B35481   1.259  11.674   7.983
 2546POPC   C4B35482   1.373  11.766   7.586
 2547POPC   NC335483   9.621  10.864   9.687
 2547POPC   PO435484  10.011  10.322   9.764
 2547POPC   GL135485   9.812  10.507   9.335
 2547POPC   GL235486   9.642  10.841   9.184
 2547POPC   C1A35487   9.845  10.450   8.866
 2547POPC   D2A35488   9.881  10.217   8.453
 2547POPC   C3A35489   9.882  10.496   8.078
 2547POPC   C4A35490   9.750  10.506   7.624
 2547POPC   C1B35491   9.447  10.788   8.777
 2547POPC   C2B35492   9.641  10.823   8.389
 2547POPC   C3B35493   9.502  10.809   7.962
 2547POPC   C4B35494   9.488  10.944   7.503
 2548POPC   NC335495  15.389  24.704   9.498
 2548POPC   PO435496  14.896  24.173   9.516
 2548POPC   GL135497  14.966  24.537   9.259
 2548POPC   GL235498  15.264  24.403   9.100
 2548POPC   C1A35499  14.890  24.570   8.811
 2548POPC   D2A35500  15.144  24.498   8.446
 2548POPC   C3A35501  14.931  24.483   8.081
 2548POPC   C4A35502  15.056  24.273   7.739
 2548POPC   C1B35503  15.399  24.737   8.816
 2548POPC   C2B35504  15.446  24.969   8.457
 2548POPC   C3B35505  15.345  24.821   8.083
 2548POPC   C4B35506  15.535  24.718   7.707
 2549POPC   NC335507  26.700  39.289   9.891
 2549POPC   PO435508  27.041  38.894   9.350
 2549POPC   GL135509  26.985  39.039   8.953
 2549POPC   GL235510  27.059  39.368   9.003
 2549POPC   C1A35511  26.628  39.133   8.648
 2549POPC   D2A35512  26.405  39.058   8.238
 2549POPC   C3A35513  26.675  39.035   7.886
 2549POPC   C4A35514  27.133  39.098   7.808
 2549POPC   C1B35515  27.101  39.368   8.567
 2549POPC   C2B35516  26.789  39.430   8.255
 2549POPC   C3B35517  26.811  39.521   7.852
 2549POPC   C4B35518  27.205  39.605   7.723
 2550POPC   NC335519   6.851  20.232   9.419
 2550POPC   PO435520   6.877  20.915   9.397
 2550POPC   GL135521   6.544  20.738   9.103
 2550POPC   GL235522   6.513  20.369   9.071
 2550POPC   C1A35523   6.590  20.606   8.650
 2550POPC   D2A35524   6.848  20.590   8.306
 2550POPC   C3A35525   6.544  20.575   7.951
 2550POPC   C4A35526   6.716  20.703   7.553
 2550POPC   C1B35527   6.880  20.202   8.772
 2550POPC   C2B35528   7.003  20.109   8.326
 2550POPC   C3B35529   6.972  20.298   7.894
 2550POPC   C4B35530   6.742  20.182   7.513
 2551POPC   NC335531  27.532   2.870   9.692
 2551POPC   PO435532  28.056   3.044   9.370
 2551POPC   GL135533  27.716   2.768   9.221
 2551POPC   GL235534  27.426   2.938   9.177
 2551POPC   C1A35535  27.551   2.533   8.870
 2551POPC   D2A35536  27.671   2.280   8.523
 2551POPC   C3A35537  27.680   2.540   8.151
 2551POPC   C4A35538  27.432   2.561   7.772
 2551POPC   C1B35539  27.669   3.051   8.796
 2551POPC   C2B35540  27.534   3.024   8.398
 2551POPC   C3B35541  27.504   3.007   7.994
 2551POPC   C4B35542  27.714   3.020   7.599
 2552POPC   NC335543  18.497  33.805   9.822
 2552POPC   PO435544  18.427  33.250   9.668
 2552POPC   GL135545  18.487  33.586   9.329
 2552POPC   GL235546  18.516  33.953   9.298
 2552POPC   C1A35547  18.541  33.640   8.862
 2552POPC   D2A35548  18.594  33.458   8.416
 2552POPC   C3A35549  18.316  33.451   8.024
 2552POPC   C4A35550  18.111  33.467   7.584
 2552POPC   C1B35551  18.387  34.124   8.866
 2552POPC   C2B35552  18.338  33.913   8.464
 2552POPC   C3B35553  18.598  33.884   8.112
 2552POPC   C4B35554  18.496  33.800   7.688
 2553POPC   NC335555  12.055  15.557   9.641
 2553POPC   PO435556  12.323  16.052   9.793
 2553POPC   GL135557  12.187  15.924   9.313
 2553POPC   GL235558  12.346  15.666   9.193
 2553POPC   C1A35559  11.881  15.951   8.921
 2553POPC   D2A35560  11.822  15.783   8.473
 2553POPC   C3A35561  11.884  15.998   8.042
 2553POPC   C4A35562  11.933  15.867   7.576
 2553POPC   C1B35563  12.368  15.982   8.830
 2553POPC   C2B35564  12.263  16.091   8.439
 2553POPC   C3B35565  12.434  16.212   8.076
 2553POPC   C4B35566  12.223  16.257   7.733
 2554POPC   NC335567  40.589  31.412   9.373
 2554POPC   PO435568  39.881  31.432   9.426
 2554POPC   GL135569  40.133  31.389   9.120
 2554POPC   GL235570  39.848  31.280   8.942
 2554POPC   C1A35571  40.154  31.669   8.771
 2554POPC   D2A35572  39.896  31.757   8.398
 2554POPC   C3A35573  40.078  31.558   8.049
 2554POPC   C4A35574  40.200  31.555   7.587
 2554POPC   C1B35575  39.905  31.251   8.544
 2554POPC   C2B35576  39.656  31.267   8.207
 2554POPC   C3B35577  39.862  31.189   7.825
 2554POPC   C4B35578  40.340  31.127   7.816
 2555POPC   NC335579   9.646  25.790   9.524
 2555POPC   PO435580  10.172  26.221   9.570
 2555POPC   GL135581   9.936  26.313   9.222
 2555POPC   GL235582   9.918  25.962   9.143
 2555POPC   C1A35583   9.790  26.377   8.804
 2555POPC   D2A35584   9.699  26.136   8.435
 2555POPC   C3A35585   9.760  26.280   8.006
 2555POPC   C4A35586   9.624  26.126   7.603
 2555POPC   C1B35587   9.654  25.797   8.816
 2555POPC   C2B35588   9.744  25.624   8.403
 2555POPC   C3B35589   9.691  25.775   7.998
 2555POPC   C4B35590   9.942  25.737   7.647
 2556POPC   NC335591  25.621  36.222   9.483
 2556POPC   PO435592  25.076  35.850   9.531
 2556POPC   GL135593  25.275  35.977   9.185
 2556POPC   GL235594  25.580  35.767   9.250
 2556POPC   C1A35595  25.143  36.165   8.812
 2556POPC   D2A35596  25.145  36.393   8.421
 2556POPC   C3A35597  25.001  36.218   8.023
 2556POPC   C4A35598  25.187  36.033   7.639
 2556POPC   C1B35599  25.549  35.743   8.817
 2556POPC   C2B35600  25.401  35.925   8.455
 2556POPC   C3B35601  25.513  36.069   8.082
 2556POPC   C4B35602  25.668  35.880   7.739
 2557POPC   NC335603  34.313  18.650   9.467
 2557POPC   PO435604  34.646  19.172   9.557
 2557POPC   GL135605  34.810  18.977   9.167
 2557POPC   GL235606  34.789  19.297   9.048
 2557POPC   C1A35607  34.865  18.905   8.695
 2557POPC   D2A35608  34.576  18.728   8.382
 2557POPC   C3A35609  34.475  18.958   8.010
 2557POPC   C4A35610  34.723  18.785   7.694
 2557POPC   C1B35611  34.451  19.168   8.857
 2557POPC   C2B35612  34.447  19.217   8.459
 2557POPC   C3B35613  34.724  19.428   8.197
 2557POPC   C4B35614  34.746  19.339   7.772
 2558POPC   NC335615  16.634  19.267   9.626
 2558POPC   PO435616  16.269  18.738   9.383
 2558POPC   GL135617  16.481  19.084   9.194
 2558POPC   GL235618  16.321  19.209   8.925
 2558POPC   C1A35619  16.916  19.175   8.994
 2558POPC   D2A35620  16.931  19.188   8.512
 2558POPC   C3A35621  16.583  19.195   8.246
 2558POPC   C4A35622  16.636  19.191   7.790
 2558POPC   C1B35623  16.579  18.899   8.741
 2558POPC   C2B35624  16.529  18.707   8.401
 2558POPC   C3B35625  16.749  18.755   8.052
 2558POPC   C4B35626  16.626  18.706   7.670
 2559POPC   NC335627  33.910  36.432   9.628
 2559POPC   PO435628  33.488  35.926   9.508
 2559POPC   GL135629  33.582  36.306   9.220
 2559POPC   GL235630  33.965  36.372   9.133
 2559POPC   C1A35631  33.607  36.439   8.783
 2559POPC   D2A35632  33.913  36.288   8.488
 2559POPC   C3A35633  33.740  36.226   8.076
 2559POPC   C4A35634  33.456  36.462   7.796
 2559POPC   C1B35635  34.173  36.040   8.896
 2559POPC   C2B35636  34.325  35.949   8.501
 2559POPC   C3B35637  34.151  35.883   8.077
 2559POPC   C4B35638  34.098  36.102   7.696
 2560POPC   NC335639   2.136  10.779   9.476
 2560POPC   PO435640   1.822  10.089   9.469
 2560POPC   GL135641   1.820  10.439   9.224
 2560POPC   GL235642   2.190  10.404   9.131
 2560POPC   C1A35643   1.809  10.672   8.856
 2560POPC   D2A35644   2.109  10.722   8.520
 2560POPC   C3A35645   1.904  10.847   8.129
 2560POPC   C4A35646   1.979  10.748   7.718
 2560POPC   C1B35647   2.497  10.153   8.869
 2560POPC   C2B35648   2.472  10.196   8.403
 2560POPC   C3B35649   2.205  10.408   8.085
 2560POPC   C4B35650   2.173  10.304   7.623
 2561POPC   NC335651  44.952   0.677   9.469
 2561POPC   PO435652  44.914   1.404   9.474
 2561POPC   GL135653  44.620   1.198   9.205
 2561POPC   GL235654  44.671   0.855   9.083
 2561POPC   C1A35655  44.513   1.285   8.784
 2561POPC   D2A35656  44.678   1.265   8.370
 2561POPC   C3A35657  44.444   1.001   8.098
 2561POPC   C4A35658  44.381   1.027   7.679
 2561POPC   C1B35659  44.965   0.931   8.711
 2561POPC   C2B35660   0.178   0.960   8.301
 2561POPC   C3B35661  44.915   1.022   7.942
 2561POPC   C4B35662  44.875   1.180   7.529
 2562POPC   NC335663  22.173  21.687   9.384
 2562POPC   PO435664  21.915  22.173   9.745
 2562POPC   GL135665  22.167  22.170   9.280
 2562POPC   GL235666  22.021  21.994   9.016
 2562POPC   C1A35667  22.386  22.319   8.896
 2562POPC   D2A35668  22.389  22.156   8.511
 2562POPC   C3A35669  22.192  22.390   8.204
 2562POPC   C4A35670  22.311  22.305   7.801
 2562POPC   C1B35671  21.974  21.815   8.615
 2562POPC   C2B35672  21.915  21.910   8.174
 2562POPC   C3B35673  21.958  21.935   7.730
 2562POPC   C4B35674  21.778  21.826   7.294
 2563POPC   NC335675  11.182  13.857   9.590
 2563POPC   PO435676  11.141  13.239   9.497
 2563POPC   GL135677  11.413  13.447   9.173
 2563POPC   GL235678  11.458  13.819   9.159
 2563POPC   C1A35679  11.566  13.537   8.739
 2563POPC   D2A35680  11.402  13.483   8.328
 2563POPC   C3A35681  11.575  13.500   7.923
 2563POPC   C4A35682  11.266  13.356   7.621
 2563POPC   C1B35683  11.519  14.054   8.794
 2563POPC   C2B35684  11.483  14.194   8.395
 2563POPC   C3B35685  11.398  13.958   8.051
 2563POPC   C4B35686  11.496  13.958   7.626
 2564POPC   NC335687  38.481  21.287   9.462
 2564POPC   PO435688  38.489  21.893   9.474
 2564POPC   GL135689  38.405  21.606   9.066
 2564POPC   GL235690  38.237  21.208   9.035
 2564POPC   C1A35691  38.289  21.483   8.630
 2564POPC   D2A35692  38.355  21.650   8.238
 2564POPC   C3A35693  38.260  21.420   7.862
 2564POPC   C4A35694  37.958  21.606   7.587
 2564POPC   C1B35695  38.582  21.051   8.817
 2564POPC   C2B35696  38.657  20.970   8.413
 2564POPC   C3B35697  38.787  21.136   8.036
 2564POPC   C4B35698  38.615  21.090   7.614
 2565POPC   NC335699   9.388  33.618   9.558
 2565POPC   PO435700   8.918  34.117   9.483
 2565POPC   GL135701   8.836  33.891   9.089
 2565POPC   GL235702   9.099  33.601   9.127
 2565POPC   C1A35703   8.799  34.092   8.646
 2565POPC   D2A35704   8.583  34.144   8.212
 2565POPC   C3A35705   8.809  33.852   7.918
 2565POPC   C4A35706   9.269  33.853   7.787
 2565POPC   C1B35707   9.125  33.701   8.689
 2565POPC   C2B35708   9.154  33.717   8.253
 2565POPC   C3B35709   9.113  33.381   7.885
 2565POPC   C4B35710   9.039  33.211   7.452
 2566POPC   NC335711  30.020  37.361   9.433
 2566POPC   PO435712  30.147  36.725   9.452
 2566POPC   GL135713  29.898  36.776   9.087
 2566POPC   GL235714  29.839  37.107   9.008
 2566POPC   C1A35715  29.826  36.634   8.680
 2566POPC   D2A35716  29.832  36.706   8.254
 2566POPC   C3A35717  30.193  36.760   7.997
 2566POPC   C4A35718  30.160  36.792   7.518
 2566POPC   C1B35719  30.021  37.120   8.606
 2566POPC   C2B35720  30.249  37.236   8.235
 2566POPC   C3B35721  30.210  37.214   7.781
 2566POPC   C4B35722  30.411  37.206   7.344
 2567POPC   NC335723  29.527  17.567   9.494
 2567POPC   PO435724  30.177  17.679   9.541
 2567POPC   GL135725  29.966  17.518   9.214
 2567POPC   GL235726  29.861  17.197   9.347
 2567POPC   C1A35727  29.834  17.713   8.816
 2567POPC   D2A35728  29.716  17.560   8.404
 2567POPC   C3A35729  29.903  17.761   8.044
 2567POPC   C4A35730  29.794  17.758   7.596
 2567POPC   C1B35731  29.668  17.198   8.926
 2567POPC   C2B35732  29.866  17.080   8.546
 2567POPC   C3B35733  29.829  17.105   8.124
 2567POPC   C4B35734  29.959  17.298   7.764
 2568POPC   NC335735   4.905  16.788   9.551
 2568POPC   PO435736   5.591  16.848   9.737
 2568POPC   GL135737   5.315  16.757   9.220
 2568POPC   GL235738   4.971  16.569   9.110
 2568POPC   C1A35739   5.182  16.839   8.769
 2568POPC   D2A35740   5.347  16.719   8.382
 2568POPC   C3A35741   5.108  16.863   8.062
 2568POPC   C4A35742   5.316  16.798   7.693
 2568POPC   C1B35743   4.786  16.411   8.730
 2568POPC   C2B35744   4.930  16.448   8.326
 2568POPC   C3B35745   4.880  16.428   7.913
 2568POPC   C4B35746   4.489  16.479   7.836
 2569POPC   NC335747   3.450  14.741   9.371
 2569POPC   PO435748   3.923  15.082   9.692
 2569POPC   GL135749   3.726  15.136   9.212
 2569POPC   GL235750   3.651  15.472   9.073
 2569POPC   C1A35751   3.776  15.068   8.781
 2569POPC   D2A35752   3.735  14.830   8.413
 2569POPC   C3A35753   3.647  15.126   8.072
 2569POPC   C4A35754   3.552  15.482   7.785
 2569POPC   C1B35755   3.312  15.294   8.774
 2569POPC   C2B35756   3.247  14.956   8.468
 2569POPC   C3B35757   3.273  14.761   8.079
 2569POPC   C4B35758   3.237  15.044   7.754
 2570POPC   NC335759  42.938  18.530   9.591
 2570POPC   PO435760  43.659  18.511   9.453
 2570POPC   GL135761  43.300  18.385   9.218
 2570POPC   GL235762  43.026  18.602   9.111
 2570POPC   C1A35763  43.286  18.213   8.834
 2570POPC   D2A35764  43.135  18.283   8.441
 2570POPC   C3A35765  43.336  18.143   8.053
 2570POPC   C4A35766  43.188  18.218   7.628
 2570POPC   C1B35767  42.810  18.557   8.753
 2570POPC   C2B35768  42.856  18.727   8.351
 2570POPC   C3B35769  42.907  18.452   8.019
 2570POPC   C4B35770  42.695  18.341   7.633
 2571POPC   NC335771  42.158  42.506   9.539
 2571POPC   PO435772  42.574  41.892   9.419
 2571POPC   GL135773  42.496  42.236   9.221
 2571POPC   GL235774  42.136  42.190   9.130
 2571POPC   C1A35775  42.512  42.316   8.804
 2571POPC   D2A35776  42.290  42.275   8.461
 2571POPC   C3A35777  42.501  42.445   8.160
 2571POPC   C4A35778  42.748  42.302   7.845
 2571POPC   C1B35779  41.985  42.467   8.827
 2571POPC   C2B35780  41.905  42.631   8.432
 2571POPC   C3B35781  41.977  42.392   8.066
 2571POPC   C4B35782  42.245  42.289   7.733
 2572POPC   NC335783  30.939  18.119   9.430
 2572POPC   PO435784  31.565  18.388   9.406
 2572POPC   GL135785  31.348  18.167   9.075
 2572POPC   GL235786  31.612  17.950   9.040
 2572POPC   C1A35787  31.225  18.328   8.661
 2572POPC   D2A35788  31.457  18.687   8.465
 2572POPC   C3A35789  31.368  18.666   8.035
 2572POPC   C4A35790  31.529  18.578   7.644
 2572POPC   C1B35791  31.573  17.959   8.605
 2572POPC   C2B35792  31.552  18.216   8.256
 2572POPC   C3B35793  31.374  18.141   7.864
 2572POPC   C4B35794  31.538  17.873   7.536
 2573POPC   NC335795  32.759  17.012   9.443
 2573POPC   PO435796  33.365  16.659   9.465
 2573POPC   GL135797  33.011  16.631   9.214
 2573POPC   GL235798  33.139  16.982   9.091
 2573POPC   C1A35799  32.802  16.715   8.827
 2573POPC   D2A35800  32.965  17.049   8.543
 2573POPC   C3A35801  32.996  16.888   8.080
 2573POPC   C4A35802  32.769  16.518   7.856
 2573POPC   C1B35803  33.297  16.627   8.799
 2573POPC   C2B35804  33.302  16.324   8.500
 2573POPC   C3B35805  33.547  16.325   8.140
 2573POPC   C4B35806  33.303  16.341   7.785
 2574POPC   NC335807  16.934  23.559   9.578
 2574POPC   PO435808  16.364  23.813   9.467
 2574POPC   GL135809  16.648  23.814   9.113
 2574POPC   GL235810  16.997  23.912   9.209
 2574POPC   C1A35811  16.502  23.820   8.649
 2574POPC   D2A35812  16.219  23.827   8.284
 2574POPC   C3A35813  16.370  23.689   7.890
 2574POPC   C4A35814  16.606  23.903   7.585
 2574POPC   C1B35815  17.151  23.764   8.806
 2574POPC   C2B35816  16.992  23.637   8.426
 2574POPC   C3B35817  16.876  23.794   8.030
 2574POPC   C4B35818  17.053  23.624   7.660
 2575POPC   NC335819  35.144  31.092   9.466
 2575POPC   PO435820  34.896  30.512   9.286
 2575POPC   GL135821  35.150  30.812   9.015
 2575POPC   GL235822  35.492  30.790   8.981
 2575POPC   C1A35823  35.105  31.062   8.622
 2575POPC   D2A35824  34.963  30.829   8.249
 2575POPC   C3A35825  35.202  31.023   7.936
 2575POPC   C4A35826  35.238  30.979   7.481
 2575POPC   C1B35827  35.370  30.620   8.587
 2575POPC   C2B35828  35.487  30.687   8.188
 2575POPC   C3B35829  35.356  30.582   7.782
 2575POPC   C4B35830  35.511  30.394   7.447
 2576POPC   NC335831  35.704  39.950   9.562
 2576POPC   PO435832  36.239  40.342   9.473
 2576POPC   GL135833  36.244  40.070   9.117
 2576POPC   GL235834  36.006  39.807   9.173
 2576POPC   C1A35835  36.261  39.828   8.735
 2576POPC   D2A35836  36.123  40.041   8.403
 2576POPC   C3A35837  36.240  39.933   8.061
 2576POPC   C4A35838  36.172  40.065   7.706
 2576POPC   C1B35839  35.777  39.682   8.809
 2576POPC   C2B35840  35.626  39.887   8.447
 2576POPC   C3B35841  35.711  40.012   8.042
 2576POPC   C4B35842  35.720  39.820   7.654
 2577POPC   NC335843  41.818   4.657   9.400
 2577POPC   PO435844  41.464   4.097   9.479
 2577POPC   GL135845  41.416   4.396   9.195
 2577POPC   GL235846  41.728   4.303   9.053
 2577POPC   C1A35847  41.343   4.491   8.780
 2577POPC   D2A35848  41.507   4.556   8.379
 2577POPC   C3A35849  41.277   4.442   8.019
 2577POPC   C4A35850  41.595   4.471   7.753
 2577POPC   C1B35851  41.817   4.037   8.727
 2577POPC   C2B35852  41.613   3.899   8.396
 2577POPC   C3B35853  41.522   3.991   8.001
 2577POPC   C4B35854  41.299   4.067   7.653
 2578POPC   NC335855  31.451  19.512   9.632
 2578POPC   PO435856  31.509  20.164   9.503
 2578POPC   GL135857  31.432  19.830   9.209
 2578POPC   GL235858  31.174  20.022   9.095
 2578POPC   C1A35859  31.638  19.603   8.856
 2578POPC   D2A35860  31.528  19.635   8.417
 2578POPC   C3A35861  31.675  19.573   7.994
 2578POPC   C4A35862  31.669  19.920   7.705
 2578POPC   C1B35863  31.106  20.197   8.682
 2578POPC   C2B35864  31.173  20.070   8.263
 2578POPC   C3B35865  31.295  20.226   7.843
 2578POPC   C4B35866  31.230  20.041   7.450
 2579POPC   NC335867   3.386  28.702   9.484
 2579POPC   PO435868   3.977  28.364   9.504
 2579POPC   GL135869   3.682  28.438   9.145
 2579POPC   GL235870   3.359  28.256   9.192
 2579POPC   C1A35871   3.651  28.305   8.698
 2579POPC   D2A35872   3.651  28.516   8.292
 2579POPC   C3A35873   3.777  28.300   7.921
 2579POPC   C4A35874   3.944  28.510   7.574
 2579POPC   C1B35875   3.203  28.493   8.833
 2579POPC   C2B35876   3.184  28.350   8.411
 2579POPC   C3B35877   3.249  28.436   7.951
 2579POPC   C4B35878   3.432  28.714   7.605
 2580POPC   NC335879   9.336  11.274   9.357
 2580POPC   PO435880   8.861  11.591   9.515
 2580POPC   GL135881   8.820  11.470   9.084
 2580POPC   GL235882   9.022  11.187   8.975
 2580POPC   C1A35883   8.733  11.452   8.626
 2580POPC   D2A35884   8.961  11.604   8.282
 2580POPC   C3A35885   8.735  11.645   7.883
 2580POPC   C4A35886   8.743  11.521   7.439
 2580POPC   C1B35887   8.978  10.986   8.593
 2580POPC   C2B35888   9.058  10.805   8.207
 2580POPC   C3B35889   9.110  11.107   7.840
 2580POPC   C4B35890   9.261  11.528   7.878
 2581POPC   NC335891  42.279  24.554   9.517
 2581POPC   PO435892  42.938  24.873   9.541
 2581POPC   GL135893  42.733  24.567   9.177
 2581POPC   GL235894  42.399  24.395   9.064
 2581POPC   C1A35895  42.640  24.644   8.698
 2581POPC   D2A35896  42.333  24.427   8.445
 2581POPC   C3A35897  42.299  24.598   8.030
 2581POPC   C4A35898  42.541  24.527   7.666
 2581POPC   C1B35899  42.598  24.117   8.781
 2581POPC   C2B35900  42.539  23.945   8.385
 2581POPC   C3B35901  42.655  24.098   7.972
 2581POPC   C4B35902  42.849  24.121   7.542
 2582POPC   NC335903  19.307  10.226   9.554
 2582POPC   PO435904  18.849  10.741   9.647
 2582POPC   GL135905  18.906  10.521   9.214
 2582POPC   GL235906  19.246  10.489   9.112
 2582POPC   C1A35907  18.947  10.686   8.738
 2582POPC   D2A35908  18.909  10.634   8.268
 2582POPC   C3A35909  19.171  10.793   7.918
 2582POPC   C4A35910  19.066  10.666   7.468
 2582POPC   C1B35911  19.195  10.244   8.717
 2582POPC   C2B35912  19.173  10.202   8.268
 2582POPC   C3B35913  19.041  10.316   7.891
 2582POPC   C4B35914  19.343  10.271   7.598
 2583POPC   NC335915  38.708   4.114   9.535
 2583POPC   PO435916  39.340   4.458   9.593
 2583POPC   GL135917  39.335   4.317   9.185
 2583POPC   GL235918  39.088   4.128   9.186
 2583POPC   C1A35919  39.322   4.476   8.766
 2583POPC   D2A35920  39.553   4.523   8.378
 2583POPC   C3A35921  39.442   4.398   7.955
 2583POPC   C4A35922  39.639   4.496   7.561
 2583POPC   C1B35923  38.929   4.126   8.799
 2583POPC   C2B35924  39.062   4.187   8.407
 2583POPC   C3B35925  39.144   3.986   8.033
 2583POPC   C4B35926  38.992   4.051   7.637
 2584POPC   NC335927  40.305   7.831   9.469
 2584POPC   PO435928  39.704   7.613   9.522
 2584POPC   GL135929  40.069   7.417   9.264
 2584POPC   GL235930  40.365   7.566   9.064
 2584POPC   C1A35931  40.031   7.208   8.864
 2584POPC   D2A35932  39.945   7.312   8.432
 2584POPC   C3A35933  40.167   7.132   8.090
 2584POPC   C4A35934  39.863   7.102   7.778
 2584POPC   C1B35935  40.364   7.561   8.641
 2584POPC   C2B35936  40.133   7.778   8.373
 2584POPC   C3B35937  40.019   7.642   8.012
 2584POPC   C4B35938  40.226   7.478   7.720
 2585POPC   NC335939  42.061   5.904   9.711
 2585POPC   PO435940  42.378   5.886   9.141
 2585POPC   GL135941  42.377   5.530   8.941
 2585POPC   GL235942  41.984   5.566   9.054
 2585POPC   C1A35943  42.630   5.688   8.547
 2585POPC   D2A35944  42.574   6.109   8.278
 2585POPC   C3A35945  42.610   6.048   7.807
 2585POPC   C4A35946  42.513   5.809   7.416
 2585POPC   C1B35947  42.037   5.721   8.621
 2585POPC   C2B35948  42.226   5.728   8.218
 2585POPC   C3B35949  42.207   5.662   7.803
 2585POPC   C4B35950  42.080   5.516   7.390
 2586POPC   NC335951  42.691   2.403   9.286
 2586POPC   PO435952  42.182   1.977   9.430
 2586POPC   GL135953  42.361   2.025   9.094
 2586POPC   GL235954  42.375   1.673   9.025
 2586POPC   C1A35955  42.449   2.074   8.692
 2586POPC   D2A35956  42.376   1.868   8.328
 2586POPC   C3A35957  42.401   2.152   7.995
 2586POPC   C4A35958  42.455   2.065   7.581
 2586POPC   C1B35959  42.694   1.597   8.749
 2586POPC   C2B35960  42.900   1.845   8.432
 2586POPC   C3B35961  42.822   1.902   8.002
 2586POPC   C4B35962  42.948   2.148   7.645
 2587POPC   NC335963  25.830  16.845   9.333
 2587POPC   PO435964  26.390  16.523   9.501
 2587POPC   GL135965  26.210  16.588   9.126
 2587POPC   GL235966  25.858  16.421   9.067
 2587POPC   C1A35967  26.158  16.803   8.757
 2587POPC   D2A35968  26.070  16.879   8.341
 2587POPC   C3A35969  26.196  16.638   7.993
 2587POPC   C4A35970  26.090  16.950   7.743
 2587POPC   C1B35971  25.682  16.668   8.706
 2587POPC   C2B35972  25.577  16.919   8.357
 2587POPC   C3B35973  25.678  16.769   7.973
 2587POPC   C4B35974  25.683  16.798   7.512
 2588POPC   NC335975  39.446   3.902   9.487
 2588POPC   PO435976  39.504   3.223   9.477
 2588POPC   GL135977  39.185   3.348   9.207
 2588POPC   GL235978  39.311   3.666   9.069
 2588POPC   C1A35979  39.017   3.381   8.799
 2588POPC   D2A35980  39.148   3.678   8.518
 2588POPC   C3A35981  39.005   3.513   8.163
 2588POPC   C4A35982  39.132   3.518   7.768
 2588POPC   C1B35983  39.452   3.992   8.808
 2588POPC   C2B35984  39.521   3.988   8.388
 2588POPC   C3B35985  39.531   3.645   8.116
 2588POPC   C4B35986  39.520   3.828   7.720
 2589POPC   NC335987  14.819  41.391   9.505
 2589POPC   PO435988  15.453  41.720   9.655
 2589POPC   GL135989  15.370  41.350   9.334
 2589POPC   GL235990  15.100  41.474   9.103
 2589POPC   C1A35991  15.426  41.142   8.899
 2589POPC   D2A35992  15.394  41.333   8.484
 2589POPC   C3A35993  15.213  41.304   8.063
 2589POPC   C4A35994  15.412  41.413   7.648
 2589POPC   C1B35995  15.164  41.760   8.779
 2589POPC   C2B35996  15.031  41.710   8.355
 2589POPC   C3B35997  15.227  41.836   7.979
 2589POPC   C4B35998  15.584  41.933   7.742
 2590POPC   NC335999  31.896  40.166   9.681
 2590POPC   PO436000  31.342  39.814   9.542
 2590POPC   GL136001  31.612  39.769   9.182
 2590POPC   GL236002  31.297  39.878   9.015
 2590POPC   C1A36003  31.756  39.970   8.788
 2590POPC   D2A36004  31.471  40.138   8.496
 2590POPC   C3A36005  31.527  39.930   8.121
 2590POPC   C4A36006  31.582  40.120   7.767
 2590POPC   C1B36007  31.100  40.251   8.858
 2590POPC   C2B36008  30.961  40.392   8.464
 2590POPC   C3B36009  31.172  40.332   8.061
 2590POPC   C4B36010  31.056  40.066   7.736
 2591POPC   NC336011  23.537  41.302   9.694
 2591POPC   PO436012  23.548  41.891   9.545
 2591POPC   GL136013  23.790  41.615   9.270
 2591POPC   GL236014  23.570  41.342   9.175
 2591POPC   C1A36015  23.986  41.565   8.848
 2591POPC   D2A36016  23.960  41.465   8.401
 2591POPC   C3A36017  23.901  41.750   8.030
 2591POPC   C4A36018  23.907  41.570   7.619
 2591POPC   C1B36019  23.490  41.479   8.756
 2591POPC   C2B36020  23.461  41.351   8.331
 2591POPC   C3B36021  23.480  41.440   7.901
 2591POPC   C4B36022  23.410  41.479   7.459
 2592POPC   NC336023  41.806  22.148   9.338
 2592POPC   PO436024  42.382  22.204   9.663
 2592POPC   GL136025  42.339  22.273   9.253
 2592POPC   GL236026  42.247  21.920   9.171
 2592POPC   C1A36027  42.379  22.429   8.831
 2592POPC   D2A36028  42.569  22.535   8.431
 2592POPC   C3A36029  42.364  22.448   8.033
 2592POPC   C4A36030  42.423  22.039   7.879
 2592POPC   C1B36031  42.061  21.967   8.733
 2592POPC   C2B36032  42.074  21.995   8.265
 2592POPC   C3B36033  41.935  21.877   7.846
 2592POPC   C4B36034  41.926  21.728   7.418
 2593POPC   NC336035  39.680  21.996   9.402
 2593POPC   PO436036  39.182  22.416   9.639
 2593POPC   GL136037  39.205  22.146   9.201
 2593POPC   GL236038  38.907  21.872   9.167
 2593POPC   C1A36039  39.482  22.081   8.791
 2593POPC   D2A36040  39.612  21.980   8.355
 2593POPC   C3A36041  39.318  22.006   8.003
 2593POPC   C4A36042  39.413  22.202   7.604
 2593POPC   C1B36043  38.987  21.968   8.754
 2593POPC   C2B36044  38.876  21.982   8.364
 2593POPC   C3B36045  38.838  22.184   7.986
 2593POPC   C4B36046  38.934  21.981   7.621
 2594POPC   NC336047  42.734  27.636   9.735
 2594POPC   PO436048  42.259  27.537   9.300
 2594POPC   GL136049  42.599  27.543   9.012
 2594POPC   GL236050  42.581  27.873   9.043
 2594POPC   C1A36051  42.434  27.344   8.654
 2594POPC   D2A36052  42.080  27.408   8.420
 2594POPC   C3A36053  42.326  27.517   8.098
 2594POPC   C4A36054  42.413  27.316   7.732
 2594POPC   C1B36055  42.275  27.849   8.697
 2594POPC   C2B36056  42.314  28.025   8.300
 2594POPC   C3B36057  42.390  27.970   7.872
 2594POPC   C4B36058  42.352  27.790   7.490
 2595POPC   NC336059   2.047  41.025   9.494
 2595POPC   PO436060   1.869  40.345   9.647
 2595POPC   GL136061   1.765  40.503   9.158
 2595POPC   GL236062   1.944  40.814   9.022
 2595POPC   C1A36063   1.730  40.539   8.653
 2595POPC   D2A36064   1.912  40.828   8.346
 2595POPC   C3A36065   1.942  40.673   7.923
 2595POPC   C4A36066   1.973  40.476   7.534
 2595POPC   C1B36067   2.196  41.029   8.710
 2595POPC   C2B36068   2.490  41.026   8.413
 2595POPC   C3B36069   2.369  40.928   8.036
 2595POPC   C4B36070   2.255  40.960   7.630
 2596POPC   NC336071  18.215   1.617   9.461
 2596POPC   PO436072  17.837   2.263   9.435
 2596POPC   GL136073  18.060   2.186   9.048
 2596POPC   GL236074  18.298   1.907   9.057
 2596POPC   C1A36075  18.123   2.122   8.604
 2596POPC   D2A36076  18.454   2.286   8.321
 2596POPC   C3A36077  18.501   1.989   8.009
 2596POPC   C4A36078  18.362   2.216   7.703
 2596POPC   C1B36079  18.249   1.620   8.716
 2596POPC   C2B36080  18.451   1.555   8.326
 2596POPC   C3B36081  18.284   1.506   7.921
 2596POPC   C4B36082  18.070   1.793   7.656
 2597POPC   NC336083  31.365  41.720   9.578
 2597POPC   PO436084  31.516  41.131   9.370
 2597POPC   GL136085  31.495  41.474   9.133
 2597POPC   GL236086  31.155  41.462   9.135
 2597POPC   C1A36087  31.406  41.445   8.708
 2597POPC   D2A36088  31.507  41.250   8.370
 2597POPC   C3A36089  31.402  41.516   8.034
 2597POPC   C4A36090  31.408  41.279   7.691
 2597POPC   C1B36091  31.032  41.794   8.760
 2597POPC   C2B36092  31.158  42.022   8.347
 2597POPC   C3B36093  31.197  42.025   7.852
 2597POPC   C4B36094  31.045  41.958   7.382
 2598POPC   NC336095   4.123  42.871   9.598
 2598POPC   PO436096   4.659  43.245   9.576
 2598POPC   GL136097   4.424  43.098   9.225
 2598POPC   GL236098   4.577  42.766   9.215
 2598POPC   C1A36099   4.109  43.233   8.890
 2598POPC   D2A36100   3.849  43.200   8.505
 2598POPC   C3A36101   4.064  43.338   8.148
 2598POPC   C4A36102   4.079  43.229   7.709
 2598POPC   C1B36103   4.309  42.770   8.819
 2598POPC   C2B36104   4.171  42.829   8.390
 2598POPC   C3B36105   4.367  42.940   8.014
 2598POPC   C4B36106   4.538  43.031   7.596
 2599POPC   NC336107   6.166  18.840   9.842
 2599POPC   PO436108   6.718  19.162   9.508
 2599POPC   GL136109   6.789  18.924   9.133
 2599POPC   GL236110   6.927  19.170   8.906
 2599POPC   C1A36111   6.523  18.890   8.752
 2599POPC   D2A36112   6.541  18.688   8.374
 2599POPC   C3A36113   6.339  18.870   8.010
 2599POPC   C4A36114   6.479  19.053   7.640
 2599POPC   C1B36115   6.994  18.927   8.561
 2599POPC   C2B36116   6.748  19.133   8.233
 2599POPC   C3B36117   6.918  19.259   7.870
 2599POPC   C4B36118   7.210  18.992   7.688
 2600POPC   NC336119  14.024  17.259   9.462
 2600POPC   PO436120  14.649  17.259   9.655
 2600POPC   GL136121  14.512  17.550   9.281
 2600POPC   GL236122  14.171  17.644   9.115
 2600POPC   C1A36123  14.552  17.613   8.806
 2600POPC   D2A36124  14.502  17.380   8.420
 2600POPC   C3A36125  14.620  17.517   8.007
 2600POPC   C4A36126  14.483  17.574   7.544
 2600POPC   C1B36127  14.053  17.434   8.711
 2600POPC   C2B36128  14.039  17.256   8.267
 2600POPC   C3B36129  14.100  17.485   7.885
 2600POPC   C4B36130  13.844  17.843   7.753
 2601POPC   NC336131  42.903  13.876   9.539
 2601POPC   PO436132  43.335  13.703   9.804
 2601POPC   GL136133  43.363  13.726   9.293
 2601POPC   GL236134  43.705  13.760   9.122
 2601POPC   C1A36135  43.282  13.690   8.796
 2601POPC   D2A36136  43.189  13.586   8.332
 2601POPC   C3A36137  43.002  13.730   7.908
 2601POPC   C4A36138  42.886  13.557   7.474
 2601POPC   C1B36139  43.633  14.050   8.750
 2601POPC   C2B36140  43.442  14.063   8.302
 2601POPC   C3B36141  43.438  13.989   7.840
 2601POPC   C4B36142  43.368  13.705   7.501
 2602POPC   NC336143  44.260  28.029   9.568
 2602POPC   PO436144  44.611  28.560   9.619
 2602POPC   GL136145  44.737  28.343   9.230
 2602POPC   GL236146  44.728  27.949   9.218
 2602POPC   C1A36147  44.764  28.251   8.787
 2602POPC   D2A36148  44.800  28.123   8.370
 2602POPC   C3A36149  44.579  28.416   8.166
 2602POPC   C4A36150  44.747  28.348   7.754
 2602POPC   C1B36151  44.463  27.853   8.839
 2602POPC   C2B36152  44.303  28.049   8.432
 2602POPC   C3B36153  44.444  27.989   7.970
 2602POPC   C4B36154  44.367  28.100   7.521
 2603POPC   NC336155  16.503  20.382   9.595
 2603POPC   PO436156  17.031  19.847   9.597
 2603POPC   GL136157  16.778  19.956   9.253
 2603POPC   GL236158  16.604  19.612   9.221
 2603POPC   C1A36159  16.631  20.051   8.832
 2603POPC   D2A36160  16.435  20.241   8.480
 2603POPC   C3A36161  16.543  20.029   8.115
 2603POPC   C4A36162  16.748  20.161   7.751
 2603POPC   C1B36163  16.670  19.549   8.790
 2603POPC   C2B36164  16.786  19.702   8.437
 2603POPC   C3B36165  16.907  19.540   8.072
 2603POPC   C4B36166  16.686  19.680   7.732
 2604POPC   NC336167  20.335  12.403   9.507
 2604POPC   PO436168  20.348  11.779   9.471
 2604POPC   GL136169  20.560  11.930   9.102
 2604POPC   GL236170  20.470  12.279   9.021
 2604POPC   C1A36171  20.432  11.954   8.652
 2604POPC   D2A36172  20.216  12.086   8.274
 2604POPC   C3A36173  20.404  11.876   7.911
 2604POPC   C4A36174  20.800  11.651   7.899
 2604POPC   C1B36175  20.498  12.448   8.566
 2604POPC   C2B36176  20.634  12.318   8.119
 2604POPC   C3B36177  20.688  12.234   7.659
 2604POPC   C4B36178  20.620  12.262   7.187
 2605POPC   NC336179  23.133  16.986   9.461
 2605POPC   PO436180  22.592  16.561   9.501
 2605POPC   GL136181  22.997  16.580   9.172
 2605POPC   GL236182  23.108  16.907   8.965
 2605POPC   C1A36183  23.194  16.493   8.729
 2605POPC   D2A36184  23.212  16.789   8.385
 2605POPC   C3A36185  23.305  16.649   7.994
 2605POPC   C4A36186  23.120  16.668   7.592
 2605POPC   C1B36187  22.856  17.047   8.622
 2605POPC   C2B36188  22.925  17.258   8.266
 2605POPC   C3B36189  22.894  17.053   7.863
 2605POPC   C4B36190  22.703  16.923   7.467
 2606POPC   NC336191  43.621  22.159   9.409
 2606POPC   PO436192  44.091  22.600   9.471
 2606POPC   GL136193  44.063  22.278   9.139
 2606POPC   GL236194  44.332  22.043   9.145
 2606POPC   C1A36195  43.889  22.165   8.739
 2606POPC   D2A36196  43.539  22.224   8.439
 2606POPC   C3A36197  43.653  22.357   8.000
 2606POPC   C4A36198  44.050  22.405   7.720
 2606POPC   C1B36199  44.237  21.758   8.859
 2606POPC   C2B36200  44.016  21.696   8.496
 2606POPC   C3B36201  43.947  21.927   8.122
 2606POPC   C4B36202  44.132  21.915   7.710
 2607POPC   NC336203   6.365  14.073   9.848
 2607POPC   PO436204   6.745  14.586   9.518
 2607POPC   GL136205   6.885  14.247   9.242
 2607POPC   GL236206   6.683  14.356   9.015
 2607POPC   C1A36207   7.017  14.099   8.779
 2607POPC   D2A36208   6.858  14.064   8.336
 2607POPC   C3A36209   6.689  14.422   8.111
 2607POPC   C4A36210   6.847  14.579   7.693
 2607POPC   C1B36211   6.518  14.414   8.626
 2607POPC   C2B36212   6.458  14.799   8.399
 2607POPC   C3B36213   6.329  14.773   7.997
 2607POPC   C4B36214   6.361  14.474   7.711
 2608POPC   NC336215   8.481  20.562   9.420
 2608POPC   PO436216   7.733  20.414   9.462
 2608POPC   GL136217   8.032  20.550   9.180
 2608POPC   GL236218   8.086  20.885   9.306
 2608POPC   C1A36219   8.305  20.627   8.805
 2608POPC   D2A36220   8.319  20.845   8.441
 2608POPC   C3A36221   8.357  20.598   8.114
 2608POPC   C4A36222   8.359  20.374   7.756
 2608POPC   C1B36223   7.977  21.040   8.904
 2608POPC   C2B36224   7.858  21.026   8.481
 2608POPC   C3B36225   7.805  20.870   8.083
 2608POPC   C4B36226   8.014  20.723   7.752
 2609POPC   NC336227   7.178   6.747   9.250
 2609POPC   PO436228   6.540   6.746   9.526
 2609POPC   GL136229   6.493   6.716   9.094
 2609POPC   GL236230   6.347   7.044   9.097
 2609POPC   C1A36231   6.614   6.561   8.651
 2609POPC   D2A36232   6.712   6.640   8.188
 2609POPC   C3A36233   6.873   6.449   7.820
 2609POPC   C4A36234   6.650   6.323   7.396
 2609POPC   C1B36235   6.202   6.877   8.712
 2609POPC   C2B36236   6.079   7.009   8.335
 2609POPC   C3B36237   6.208   6.933   7.948
 2609POPC   C4B36238   6.457   6.682   7.707
 2610POPC   NC336239  29.642   7.764   9.562
 2610POPC   PO436240  29.182   8.350   9.532
 2610POPC   GL136241  29.166   8.212   9.159
 2610POPC   GL236242  29.473   8.077   9.158
 2610POPC   C1A36243  28.939   8.079   8.793
 2610POPC   D2A36244  28.915   7.817   8.448
 2610POPC   C3A36245  28.946   8.085   8.083
 2610POPC   C4A36246  28.697   8.121   7.701
 2610POPC   C1B36247  29.447   8.290   8.748
 2610POPC   C2B36248  29.310   8.432   8.342
 2610POPC   C3B36249  29.404   8.617   7.940
 2610POPC   C4B36250  29.395   8.495   7.524
 2611POPC   NC336251  22.471  14.046   9.486
 2611POPC   PO436252  22.685  14.697   9.539
 2611POPC   GL136253  22.916  14.622   9.167
 2611POPC   GL236254  23.183  14.366   9.179
 2611POPC   C1A36255  22.792  14.706   8.759
 2611POPC   D2A36256  23.005  14.862   8.405
 2611POPC   C3A36257  22.968  14.583   8.072
 2611POPC   C4A36258  22.753  14.508   7.712
 2611POPC   C1B36259  23.013  14.227   8.765
 2611POPC   C2B36260  23.010  13.994   8.343
 2611POPC   C3B36261  23.022  14.083   7.911
 2611POPC   C4B36262  23.309  14.339   7.758
 2612POPC   NC336263  11.588  37.813   9.459
 2612POPC   PO436264  12.143  37.567   9.399
 2612POPC   GL136265  12.118  37.845   9.073
 2612POPC   GL236266  11.859  38.046   8.991
 2612POPC   C1A36267  12.108  37.555   8.723
 2612POPC   D2A36268  12.362  37.391   8.395
 2612POPC   C3A36269  12.172  37.505   8.011
 2612POPC   C4A36270  12.273  37.594   7.588
 2612POPC   C1B36271  12.082  38.029   8.548
 2612POPC   C2B36272  12.171  38.046   8.075
 2612POPC   C3B36273  11.879  37.881   7.764
 2612POPC   C4B36274  11.812  37.660   7.382
 2613POPC   NC336275   1.107  44.453   9.336
 2613POPC   PO436276   1.694  44.560   9.335
 2613POPC   GL136277   1.418  44.715   8.996
 2613POPC   GL236278   1.049  44.831   8.990
 2613POPC   C1A36279   1.202  44.498   8.653
 2613POPC   D2A36280   0.911  44.652   8.362
 2613POPC   C3A36281   1.134  44.550   8.007
 2613POPC   C4A36282   1.413  44.346   7.746
 2613POPC   C1B36283   1.157   0.032   8.602
 2613POPC   C2B36284   1.380  44.960   8.204
 2613POPC   C3B36285   1.435  44.872   7.750
 2613POPC   C4B36286   1.704   0.082   7.442
 2614POPC   NC336287  23.036  10.173   9.912
 2614POPC   PO436288  22.688  10.728   9.578
 2614POPC   GL136289  22.813  10.505   9.169
 2614POPC   GL236290  23.171  10.444   9.168
 2614POPC   C1A36291  22.793  10.574   8.736
 2614POPC   D2A36292  23.022  10.617   8.364
 2614POPC   C3A36293  22.843  10.674   7.985
 2614POPC   C4A36294  23.109  10.971   7.880
 2614POPC   C1B36295  23.286  10.356   8.728
 2614POPC   C2B36296  23.150  10.142   8.339
 2614POPC   C3B36297  22.989  10.195   7.938
 2614POPC   C4B36298  23.214  10.106   7.602
 2615POPC   NC336299  21.408  30.753   9.516
 2615POPC   PO436300  21.361  30.141   9.688
 2615POPC   GL136301  21.223  30.359   9.226
 2615POPC   GL236302  21.415  30.681   9.016
 2615POPC   C1A36303  21.071  30.463   8.745
 2615POPC   D2A36304  21.409  30.620   8.496
 2615POPC   C3A36305  21.488  30.492   8.093
 2615POPC   C4A36306  21.278  30.572   7.738
 2615POPC   C1B36307  21.577  31.060   8.764
 2615POPC   C2B36308  21.630  31.034   8.314
 2615POPC   C3B36309  21.258  30.977   8.053
 2615POPC   C4B36310  21.224  31.053   7.612
 2616POPC   NC336311  20.334  25.900   9.578
 2616POPC   PO436312  21.050  25.723   9.589
 2616POPC   GL136313  20.736  25.799   9.229
 2616POPC   GL236314  20.419  25.625   9.174
 2616POPC   C1A36315  20.509  25.981   8.830
 2616POPC   D2A36316  20.579  26.167   8.404
 2616POPC   C3A36317  20.650  26.079   7.942
 2616POPC   C4A36318  20.883  26.405   7.689
 2616POPC   C1B36319  20.258  25.523   8.789
 2616POPC   C2B36320  20.223  25.766   8.421
 2616POPC   C3B36321  20.306  25.682   7.995
 2616POPC   C4B36322  20.240  25.854   7.577
 2617POPC   NC336323  27.877  35.931   9.462
 2617POPC   PO436324  28.617  35.950   9.470
 2617POPC   GL136325  28.351  36.118   9.140
 2617POPC   GL236326  28.117  35.876   9.008
 2617POPC   C1A36327  28.434  36.407   8.769
 2617POPC   D2A36328  28.297  36.485   8.339
 2617POPC   C3A36329  28.470  36.278   7.948
 2617POPC   C4A36330  28.372  36.374   7.532
 2617POPC   C1B36331  28.159  36.006   8.583
 2617POPC   C2B36332  28.076  35.975   8.157
 2617POPC   C3B36333  28.270  35.796   7.815
 2617POPC   C4B36334  28.303  35.890   7.386
 2618POPC   NC336335  32.170  36.296   9.460
 2618POPC   PO436336  32.527  35.807   9.756
 2618POPC   GL136337  32.357  35.877   9.250
 2618POPC   GL236338  32.599  36.073   9.096
 2618POPC   C1A36339  32.119  36.070   8.844
 2618POPC   D2A36340  31.949  36.135   8.413
 2618POPC   C3A36341  32.224  36.041   8.087
 2618POPC   C4A36342  32.348  36.140   7.672
 2618POPC   C1B36343  32.489  35.738   8.765
 2618POPC   C2B36344  32.392  35.627   8.371
 2618POPC   C3B36345  32.702  35.832   8.156
 2618POPC   C4B36346  32.787  35.935   7.756
 2619POPC   NC336347  10.155  44.227   9.326
 2619POPC   PO436348  10.646  43.774   9.575
 2619POPC   GL136349  10.453  43.769   9.168
 2619POPC   GL236350  10.555  44.062   9.033
 2619POPC   C1A36351  10.276  43.568   8.765
 2619POPC   D2A36352  10.186  43.738   8.339
 2619POPC   C3A36353  10.443  43.709   8.030
 2619POPC   C4A36354  10.480  43.639   7.597
 2619POPC   C1B36355  10.519  43.997   8.614
 2619POPC   C2B36356  10.711  44.117   8.226
 2619POPC   C3B36357  10.579  44.143   7.797
 2619POPC   C4B36358  10.477  44.100   7.365
 2620POPC   NC336359   6.403  30.128   9.558
 2620POPC   PO436360   6.323  29.438   9.463
 2620POPC   GL136361   6.576  29.690   9.175
 2620POPC   GL236362   6.590  30.053   9.112
 2620POPC   C1A36363   6.763  29.738   8.773
 2620POPC   D2A36364   6.881  30.001   8.451
 2620POPC   C3A36365   6.732  29.847   8.082
 2620POPC   C4A36366   6.899  29.955   7.684
 2620POPC   C1B36367   6.451  30.358   8.821
 2620POPC   C2B36368   6.443  30.259   8.384
 2620POPC   C3B36369   6.505  30.260   7.946
 2620POPC   C4B36370   6.413  29.940   7.650
 2621POPC   NC336371  22.442  39.739   9.243
 2621POPC   PO436372  21.862  39.716   9.588
 2621POPC   GL136373  21.961  40.041   9.242
 2621POPC   GL236374  22.086  39.914   8.959
 2621POPC   C1A36375  21.897  40.345   8.836
 2621POPC   D2A36376  21.714  40.210   8.444
 2621POPC   C3A36377  21.952  40.266   8.080
 2621POPC   C4A36378  22.005  40.082   7.701
 2621POPC   C1B36379  22.154  39.954   8.536
 2621POPC   C2B36380  22.238  39.820   8.106
 2621POPC   C3B36381  22.428  39.801   7.702
 2621POPC   C4B36382  22.607  39.816   7.278
 2622POPC   NC336383  28.219   0.027   9.642
 2622POPC   PO436384  28.576   0.559   9.547
 2622POPC   GL136385  28.436   0.514   9.162
 2622POPC   GL236386  28.196   0.287   9.200
 2622POPC   C1A36387  28.575   0.523   8.762
 2622POPC   D2A36388  28.424   0.469   8.371
 2622POPC   C3A36389  28.622   0.526   7.978
 2622POPC   C4A36390  28.480   0.693   7.597
 2622POPC   C1B36391  28.028   0.415   8.802
 2622POPC   C2B36392  27.969   0.267   8.384
 2622POPC   C3B36393  28.226   0.121   8.054
 2622POPC   C4B36394  28.166   0.188   7.652
 2623POPC   NC336395  35.849  19.357   9.235
 2623POPC   PO436396  36.507  19.114   9.217
 2623POPC   GL136397  36.160  19.028   9.001
 2623POPC   GL236398  36.032  18.736   9.124
 2623POPC   C1A36399  36.068  19.239   8.623
 2623POPC   D2A36400  36.076  19.469   8.256
 2623POPC   C3A36401  36.441  19.313   8.060
 2623POPC   C4A36402  36.289  18.971   7.873
 2623POPC   C1B36403  35.875  18.700   8.711
 2623POPC   C2B36404  35.951  18.854   8.272
 2623POPC   C3B36405  35.744  18.912   7.862
 2623POPC   C4B36406  35.761  18.907   7.388
 2624POPC   NC336407  27.685  34.091   9.665
 2624POPC   PO436408  27.268  33.728   9.396
 2624POPC   GL136409  27.700  33.764   9.247
 2624POPC   GL236410  27.679  34.036   9.086
 2624POPC   C1A36411  27.763  33.566   8.851
 2624POPC   D2A36412  27.490  33.515   8.479
 2624POPC   C3A36413  27.556  33.797   8.140
 2624POPC   C4A36414  27.695  33.659   7.771
 2624POPC   C1B36415  27.366  33.918   8.775
 2624POPC   C2B36416  27.115  33.891   8.407
 2624POPC   C3B36417  27.088  34.060   8.018
 2624POPC   C4B36418  27.281  33.930   7.641
 2625POPC   NC336419   0.222  36.750   9.358
 2625POPC   PO436420   0.150  37.397   9.423
 2625POPC   GL136421   0.384  37.190   9.118
 2625POPC   GL236422   0.685  36.995   9.226
 2625POPC   C1A36423   0.322  37.028   8.719
 2625POPC   D2A36424   0.518  36.992   8.318
 2625POPC   C3A36425   0.328  37.095   7.942
 2625POPC   C4A36426   0.160  36.869   7.581
 2625POPC   C1B36427   0.793  36.880   8.792
 2625POPC   C2B36428   0.994  36.813   8.390
 2625POPC   C3B36429   0.994  36.683   7.974
 2625POPC   C4B36430   0.861  36.975   7.687
 2626POPC   NC336431  38.980  36.868   9.685
 2626POPC   PO436432  39.360  37.281   9.284
 2626POPC   GL136433  39.187  36.950   9.069
 2626POPC   GL236434  39.233  36.614   9.204
 2626POPC   C1A36435  38.956  36.715   8.757
 2626POPC   D2A36436  39.121  36.581   8.362
 2626POPC   C3A36437  39.256  36.965   8.164
 2626POPC   C4A36438  39.321  37.178   7.769
 2626POPC   C1B36439  39.475  36.615   8.800
 2626POPC   C2B36440  39.627  36.440   8.432
 2626POPC   C3B36441  39.623  36.609   8.048
 2626POPC   C4B36442  39.308  36.683   7.746
 2627POPC   NC336443  22.498   2.239   9.255
 2627POPC   PO436444  21.968   2.060   9.405
 2627POPC   GL136445  22.126   1.969   9.025
 2627POPC   GL236446  22.051   2.321   8.957
 2627POPC   C1A36447  22.288   2.058   8.608
 2627POPC   D2A36448  22.042   1.971   8.241
 2627POPC   C3A36449  22.267   1.813   7.901
 2627POPC   C4A36450  22.509   2.157   7.758
 2627POPC   C1B36451  21.760   2.093   8.690
 2627POPC   C2B36452  21.528   2.183   8.317
 2627POPC   C3B36453  21.751   2.351   8.006
 2627POPC   C4B36454  21.976   2.172   7.678
 2628POPC   NC336455  28.364  22.702   9.531
 2628POPC   PO436456  28.710  23.277   9.538
 2628POPC   GL136457  28.497  23.226   9.158
 2628POPC   GL236458  28.513  22.902   9.081
 2628POPC   C1A36459  28.169  23.176   8.841
 2628POPC   D2A36460  27.973  23.023   8.487
 2628POPC   C3A36461  28.189  23.234   8.144
 2628POPC   C4A36462  28.173  23.319   7.705
 2628POPC   C1B36463  28.348  22.700   8.702
 2628POPC   C2B36464  28.324  22.749   8.239
 2628POPC   C3B36465  28.502  22.709   7.845
 2628POPC   C4B36466  28.664  22.619   7.431
 2629POPC   NC336467  11.825  21.630   9.595
 2629POPC   PO436468  12.383  21.723   9.164
 2629POPC   GL136469  12.052  21.412   9.193
 2629POPC   GL236470  11.748  21.582   9.098
 2629POPC   C1A36471  11.860  21.108   8.892
 2629POPC   D2A36472  11.978  20.984   8.443
 2629POPC   C3A36473  11.910  21.346   8.141
 2629POPC   C4A36474  12.028  21.246   7.702
 2629POPC   C1B36475  11.956  21.564   8.682
 2629POPC   C2B36476  12.212  21.779   8.365
 2629POPC   C3B36477  12.292  21.647   7.933
 2629POPC   C4B36478  11.934  21.735   7.669
 2630POPC   NC336479  17.910  20.467   9.441
 2630POPC   PO436480  18.331  21.011   9.538
 2630POPC   GL136481  18.188  20.888   9.162
 2630POPC   GL236482  18.436  20.632   9.122
 2630POPC   C1A36483  18.335  20.934   8.738
 2630POPC   D2A36484  18.460  20.598   8.477
 2630POPC   C3A36485  18.315  20.612   8.081
 2630POPC   C4A36486  18.311  20.652   7.643
 2630POPC   C1B36487  18.135  20.475   8.831
 2630POPC   C2B36488  18.010  20.243   8.480
 2630POPC   C3B36489  18.057  20.156   8.064
 2630POPC   C4B36490  17.858  20.442   7.798
 2631POPC   NC336491  14.618  43.747   9.511
 2631POPC   PO436492  14.150  44.327   9.457
 2631POPC   GL136493  14.186  44.057   9.108
 2631POPC   GL236494  14.520  43.881   9.019
 2631POPC   C1A36495  14.102  43.813   8.731
 2631POPC   D2A36496  14.460  43.679   8.479
 2631POPC   C3A36497  14.418  43.746   8.031
 2631POPC   C4A36498  14.124  43.965   7.780
 2631POPC   C1B36499  14.536  44.180   8.654
 2631POPC   C2B36500  14.672  44.163   8.228
 2631POPC   C3B36501  14.572  44.250   7.800
 2631POPC   C4B36502  14.551  43.957   7.477
 2632POPC   NC336503  24.194   9.967   9.483
 2632POPC   PO436504  24.741   9.573   9.480
 2632POPC   GL136505  24.482   9.691   9.166
 2632POPC   GL236506  24.590   9.994   9.109
 2632POPC   C1A36507  24.240   9.758   8.780
 2632POPC   D2A36508  24.399   9.786   8.333
 2632POPC   C3A36509  24.521   9.429   8.068
 2632POPC   C4A36510  24.785   9.393   7.725
 2632POPC   C1B36511  24.753   9.918   8.721
 2632POPC   C2B36512  24.955  10.182   8.453
 2632POPC   C3B36513  24.664  10.205   8.145
 2632POPC   C4B36514  24.586   9.900   7.830
 2633POPC   NC336515  17.048  40.422   9.367
 2633POPC   PO436516  16.590  40.956   9.435
 2633POPC   GL136517  16.602  40.803   9.086
 2633POPC   GL236518  16.921  40.753   8.992
 2633POPC   C1A36519  16.493  41.017   8.750
 2633POPC   D2A36520  16.512  41.120   8.355
 2633POPC   C3A36521  16.757  40.911   8.100
 2633POPC   C4A36522  16.725  40.912   7.691
 2633POPC   C1B36523  16.901  40.759   8.566
 2633POPC   C2B36524  17.008  40.476   8.224
 2633POPC   C3B36525  17.152  40.659   7.851
 2633POPC   C4B36526  17.208  41.129   7.764
 2634POPC   NC336527  10.194   4.182   9.583
 2634POPC   PO436528   9.614   4.500   9.738
 2634POPC   GL136529   9.731   4.285   9.331
 2634POPC   GL236530   9.558   3.974   9.320
 2634POPC   C1A36531   9.931   4.134   8.921
 2634POPC   D2A36532  10.016   4.093   8.455
 2634POPC   C3A36533   9.809   4.425   8.210
 2634POPC   C4A36534   9.711   4.474   7.772
 2634POPC   C1B36535   9.416   4.113   8.917
 2634POPC   C2B36536   9.508   4.084   8.474
 2634POPC   C3B36537   9.461   4.069   8.033
 2634POPC   C4B36538   9.078   4.106   7.819
 2635POPC   NC336539  24.117  33.120   9.572
 2635POPC   PO436540  24.765  33.211   9.431
 2635POPC   GL136541  24.471  33.019   9.175
 2635POPC   GL236542  24.215  33.249   9.082
 2635POPC   C1A36543  24.447  32.889   8.747
 2635POPC   D2A36544  24.521  33.100   8.332
 2635POPC   C3A36545  24.401  32.896   8.013
 2635POPC   C4A36546  24.518  33.027   7.610
 2635POPC   C1B36547  24.375  33.415   8.710
 2635POPC   C2B36548  24.235  33.518   8.300
 2635POPC   C3B36549  24.255  33.373   7.872
 2635POPC   C4B36550  24.344  33.452   7.384
 2636POPC   NC336551  40.180  41.053   9.944
 2636POPC   PO436552  40.176  41.567   9.492
 2636POPC   GL136553  40.093  41.466   9.081
 2636POPC   GL236554  40.390  41.254   9.053
 2636POPC   C1A36555  39.959  41.747   8.703
 2636POPC   D2A36556  39.984  42.009   8.301
 2636POPC   C3A36557  40.062  41.719   7.961
 2636POPC   C4A36558  39.789  41.463   7.728
 2636POPC   C1B36559  40.219  41.257   8.640
 2636POPC   C2B36560  39.989  41.316   8.284
 2636POPC   C3B36561  39.822  41.019   8.010
 2636POPC   C4B36562  39.943  40.977   7.603
 2637POPC   NC336563  17.540  27.263   9.733
 2637POPC   PO436564  17.615  27.857   9.448
 2637POPC   GL136565  17.386  27.616   9.165
 2637POPC   GL236566  17.699  27.447   9.094
 2637POPC   C1A36567  17.453  27.689   8.727
 2637POPC   D2A36568  17.723  27.573   8.408
 2637POPC   C3A36569  17.574  27.703   8.021
 2637POPC   C4A36570  17.615  27.556   7.583
 2637POPC   C1B36571  17.836  27.173   8.745
 2637POPC   C2B36572  17.702  27.051   8.334
 2637POPC   C3B36573  17.862  27.294   7.979
 2637POPC   C4B36574  18.027  27.238   7.570
 2638POPC   NC336575  38.263   6.826   9.461
 2638POPC   PO436576  37.621   6.513   9.431
 2638POPC   GL136577  37.663   6.671   9.047
 2638POPC   GL236578  38.020   6.614   9.076
 2638POPC   C1A36579  37.831   6.872   8.666
 2638POPC   D2A36580  37.827   7.080   8.264
 2638POPC   C3A36581  37.722   6.853   7.890
 2638POPC   C4A36582  37.457   6.556   7.672
 2638POPC   C1B36583  37.956   6.360   8.710
 2638POPC   C2B36584  37.832   6.510   8.306
 2638POPC   C3B36585  37.808   6.319   7.942
 2638POPC   C4B36586  37.953   6.492   7.604
 2639POPC   NC336587  18.037  37.900   9.744
 2639POPC   PO436588  18.429  37.342   9.737
 2639POPC   GL136589  18.240  37.579   9.371
 2639POPC   GL236590  18.492  37.833   9.278
 2639POPC   C1A36591  18.178  37.624   8.908
 2639POPC   D2A36592  18.223  37.421   8.483
 2639POPC   C3A36593  18.127  37.647   8.115
 2639POPC   C4A36594  18.229  37.482   7.723
 2639POPC   C1B36595  18.674  37.735   8.861
 2639POPC   C2B36596  18.507  37.829   8.465
 2639POPC   C3B36597  18.573  37.885   8.057
 2639POPC   C4B36598  18.683  37.941   7.683
 2640POPC   NC336599  41.775   8.382   9.340
 2640POPC   PO436600  41.119   8.250   9.487
 2640POPC   GL136601  41.310   8.258   9.127
 2640POPC   GL236602  41.371   8.588   9.037
 2640POPC   C1A36603  41.422   8.081   8.759
 2640POPC   D2A36604  41.217   8.210   8.399
 2640POPC   C3A36605  41.403   8.026   8.053
 2640POPC   C4A36606  41.437   8.101   7.623
 2640POPC   C1B36607  41.696   8.513   8.707
 2640POPC   C2B36608  41.781   8.206   8.372
 2640POPC   C3B36609  41.862   8.217   7.949
 2640POPC   C4B36610  41.708   8.536   7.699
 2641POPC   NC336611  40.289   5.562   9.568
 2641POPC   PO436612  40.800   5.976   9.400
 2641POPC   GL136613  40.643   5.672   9.135
 2641POPC   GL236614  40.345   5.785   9.115
 2641POPC   C1A36615  40.590   5.609   8.688
 2641POPC   D2A36616  40.838   5.709   8.357
 2641POPC   C3A36617  40.746   5.686   7.940
 2641POPC   C4A36618  41.028   5.546   7.656
 2641POPC   C1B36619  40.493   6.091   8.796
 2641POPC   C2B36620  40.594   6.143   8.364
 2641POPC   C3B36621  40.761   6.199   7.951
 2641POPC   C4B36622  40.550   6.054   7.576
 2642POPC   NC336623  25.559  11.312   9.542
 2642POPC   PO436624  26.237  11.342   9.525
 2642POPC   GL136625  25.947  11.092   9.232
 2642POPC   GL236626  25.584  11.068   9.092
 2642POPC   C1A36627  26.061  11.048   8.819
 2642POPC   D2A36628  26.368  11.276   8.573
 2642POPC   C3A36629  26.364  11.188   8.151
 2642POPC   C4A36630  26.232  11.156   7.742
 2642POPC   C1B36631  25.700  11.379   8.790
 2642POPC   C2B36632  25.905  11.327   8.380
 2642POPC   C3B36633  25.750  11.393   7.970
 2642POPC   C4B36634  25.595  11.530   7.574
 2643POPC   NC336635  29.857  26.717   9.613
 2643POPC   PO436636  30.371  26.241   9.438
 2643POPC   GL136637  30.229  26.644   9.195
 2643POPC   GL236638  29.840  26.800   9.125
 2643POPC   C1A36639  30.125  26.641   8.754
 2643POPC   D2A36640  30.027  26.428   8.392
 2643POPC   C3A36641  30.059  26.718   8.057
 2643POPC   C4A36642  30.255  26.775   7.670
 2643POPC   C1B36643  29.727  27.062   8.735
 2643POPC   C2B36644  29.622  27.259   8.302
 2643POPC   C3B36645  29.750  27.094   7.881
 2643POPC   C4B36646  29.750  26.684   7.644
 2644POPC   NC336647  26.558  31.208   9.494
 2644POPC   PO436648  27.071  31.579   9.473
 2644POPC   GL136649  26.862  31.414   9.128
 2644POPC   GL236650  27.080  31.223   8.958
 2644POPC   C1A36651  26.649  31.535   8.754
 2644POPC   D2A36652  26.559  31.657   8.325
 2644POPC   C3A36653  26.801  31.426   8.026
 2644POPC   C4A36654  27.124  31.489   7.706
 2644POPC   C1B36655  26.733  31.025   8.687
 2644POPC   C2B36656  26.474  31.101   8.296
 2644POPC   C3B36657  26.370  31.103   7.827
 2644POPC   C4B36658  26.463  30.985   7.371
 2645POPC   NC336659  20.662  20.437   9.528
 2645POPC   PO436660  20.789  21.127   9.668
 2645POPC   GL136661  20.511  20.930   9.275
 2645POPC   GL236662  20.611  20.619   9.082
 2645POPC   C1A36663  20.341  20.900   8.806
 2645POPC   D2A36664  20.537  20.708   8.415
 2645POPC   C3A36665  20.384  20.829   7.993
 2645POPC   C4A36666  20.200  20.680   7.578
 2645POPC   C1B36667  20.792  20.359   8.769
 2645POPC   C2B36668  20.883  20.239   8.394
 2645POPC   C3B36669  20.706  20.179   8.021
 2645POPC   C4B36670  20.643  20.467   7.723
 2646POPC   NC336671  26.332  35.619   9.484
 2646POPC   PO436672  26.073  36.330   9.445
 2646POPC   GL136673  25.901  36.221   9.065
 2646POPC   GL236674  26.039  35.879   9.009
 2646POPC   C1A36675  25.820  36.143   8.657
 2646POPC   D2A36676  25.915  35.823   8.398
 2646POPC   C3A36677  26.026  36.027   8.065
 2646POPC   C4A36678  25.947  36.294   7.723
 2646POPC   C1B36679  26.322  36.202   8.780
 2646POPC   C2B36680  26.533  36.376   8.435
 2646POPC   C3B36681  26.388  36.373   8.036
 2646POPC   C4B36682  26.370  36.549   7.649
 2647POPC   NC336683  21.553  40.059   9.571
 2647POPC   PO436684  21.107  39.630   9.418
 2647POPC   GL136685  21.260  39.930   9.100
 2647POPC   GL236686  21.501  40.167   9.075
 2647POPC   C1A36687  21.234  40.144   8.656
 2647POPC   D2A36688  21.317  39.941   8.243
 2647POPC   C3A36689  21.308  40.164   7.830
 2647POPC   C4A36690  21.124  40.187   7.399
 2647POPC   C1B36691  21.634  39.817   8.761
 2647POPC   C2B36692  21.775  39.685   8.323
 2647POPC   C3B36693  21.653  39.737   7.897
 2647POPC   C4B36694  21.252  39.622   7.730
 2648POPC   NC336695   5.808  21.670   9.561
 2648POPC   PO436696   6.025  21.024   9.523
 2648POPC   GL136697   6.014  21.333   9.243
 2648POPC   GL236698   5.691  21.294   9.184
 2648POPC   C1A36699   6.025  21.348   8.791
 2648POPC   D2A36700   6.170  21.323   8.375
 2648POPC   C3A36701   5.950  21.409   7.997
 2648POPC   C4A36702   5.929  21.576   7.587
 2648POPC   C1B36703   5.568  21.057   8.838
 2648POPC   C2B36704   5.734  21.034   8.441
 2648POPC   C3B36705   5.562  21.030   8.050
 2648POPC   C4B36706   5.719  21.077   7.648
 2649POPC   NC336707   8.447  29.692   9.686
 2649POPC   PO436708   7.935  30.051   9.442
 2649POPC   GL136709   8.271  29.838   9.187
 2649POPC   GL236710   8.632  29.721   9.174
 2649POPC   C1A36711   8.291  29.854   8.752
 2649POPC   D2A36712   8.022  29.686   8.438
 2649POPC   C3A36713   8.006  29.826   8.040
 2649POPC   C4A36714   8.011  29.594   7.686
 2649POPC   C1B36715   8.599  29.461   8.826
 2649POPC   C2B36716   8.450  29.395   8.430
 2649POPC   C3B36717   8.483  29.663   8.109
 2649POPC   C4B36718   8.459  29.836   7.725
 2650POPC   NC336719  40.214  22.886   9.713
 2650POPC   PO436720  39.608  22.631   9.420
 2650POPC   GL136721  39.907  22.951   9.249
 2650POPC   GL236722  40.232  22.835   9.211
 2650POPC   C1A36723  40.010  23.121   8.822
 2650POPC   D2A36724  39.884  22.944   8.416
 2650POPC   C3A36725  40.048  23.107   8.037
 2650POPC   C4A36726  40.252  22.887   7.701
 2650POPC   C1B36727  40.393  22.764   8.827
 2650POPC   C2B36728  40.390  22.940   8.444
 2650POPC   C3B36729  40.266  22.638   8.138
 2650POPC   C4B36730  40.468  22.432   7.771
 2651POPC   NC336731  23.638  35.772   9.439
 2651POPC   PO436732  23.879  35.088   9.466
 2651POPC   GL136733  23.803  35.410   9.134
 2651POPC   GL236734  23.434  35.468   9.065
 2651POPC   C1A36735  23.789  35.626   8.717
 2651POPC   D2A36736  23.795  35.403   8.323
 2651POPC   C3A36737  23.536  35.503   7.990
 2651POPC   C4A36738  23.516  35.428   7.555
 2651POPC   C1B36739  23.590  35.141   8.768
 2651POPC   C2B36740  23.451  35.028   8.378
 2651POPC   C3B36741  23.634  34.979   8.028
 2651POPC   C4B36742  23.695  34.736   7.695
 2652POPC   NC336743  23.147  39.017   9.550
 2652POPC   PO436744  22.700  39.524   9.554
 2652POPC   GL136745  22.638  39.270   9.194
 2652POPC   GL236746  22.812  39.004   9.167
 2652POPC   C1A36747  22.773  39.377   8.768
 2652POPC   D2A36748  23.111  39.550   8.498
 2652POPC   C3A36749  22.980  39.592   8.068
 2652POPC   C4A36750  22.908  39.428   7.657
 2652POPC   C1B36751  22.836  38.859   8.786
 2652POPC   C2B36752  23.005  39.026   8.433
 2652POPC   C3B36753  22.891  39.049   8.034
 2652POPC   C4B36754  22.715  38.978   7.649
 2653POPC   NC336755  44.306  36.348   9.517
 2653POPC   PO436756   0.010  36.395   9.532
 2653POPC   GL136757  44.872  36.189   9.191
 2653POPC   GL236758  44.752  35.870   9.309
 2653POPC   C1A36759  44.519  36.159   8.913
 2653POPC   D2A36760  44.465  36.089   8.475
 2653POPC   C3A36761  44.539  36.403   8.131
 2653POPC   C4A36762  44.462  36.225   7.710
 2653POPC   C1B36763  44.852  35.777   8.870
 2653POPC   C2B36764  44.938  35.874   8.431
 2653POPC   C3B36765  44.718  35.927   8.047
 2653POPC   C4B36766  44.809  35.843   7.615
 2654POPC   NC336767   9.596  43.416   9.498
 2654POPC   PO436768   9.356  42.812   9.744
 2654POPC   GL136769   9.494  42.916   9.312
 2654POPC   GL236770   9.817  42.799   9.108
 2654POPC   C1A36771   9.466  43.087   8.899
 2654POPC   D2A36772   9.593  42.923   8.522
 2654POPC   C3A36773   9.578  43.033   8.119
 2654POPC   C4A36774   9.766  43.009   7.734
 2654POPC   C1B36775   9.977  43.107   8.785
 2654POPC   C2B36776   9.936  43.301   8.375
 2654POPC   C3B36777  10.079  43.378   7.936
 2654POPC   C4B36778  10.039  43.338   7.479
 2655POPC   NC336779  17.199  43.208   9.626
 2655POPC   PO436780  17.573  42.704   9.365
 2655POPC   GL136781  17.530  42.827   8.977
 2655POPC   GL236782  17.259  43.076   9.097
 2655POPC   C1A36783  17.604  43.132   8.648
 2655POPC   D2A36784  17.685  42.907   8.300
 2655POPC   C3A36785  17.488  42.862   7.914
 2655POPC   C4A36786  17.812  43.132   7.770
 2655POPC   C1B36787  17.149  42.882   8.686
 2655POPC   C2B36788  17.202  43.124   8.299
 2655POPC   C3B36789  17.371  43.368   7.943
 2655POPC   C4B36790  17.375  43.204   7.519
 2656POPC   NC336791  25.064  35.414   9.677
 2656POPC   PO436792  25.470  34.933   9.598
 2656POPC   GL136793  25.445  35.240   9.252
 2656POPC   GL236794  25.144  35.470   9.176
 2656POPC   C1A36795  25.394  35.264   8.799
 2656POPC   D2A36796  25.083  35.352   8.486
 2656POPC   C3A36797  25.169  35.165   8.071
 2656POPC   C4A36798  25.408  35.144   7.707
 2656POPC   C1B36799  24.888  35.718   8.875
 2656POPC   C2B36800  24.892  35.853   8.430
 2656POPC   C3B36801  25.145  35.704   8.069
 2656POPC   C4B36802  25.078  35.535   7.672
 2657POPC   NC336803  20.925  44.402   9.944
 2657POPC   PO436804  20.935  44.939   9.503
 2657POPC   GL136805  20.610  44.763   9.232
 2657POPC   GL236806  20.756  44.502   9.028
 2657POPC   C1A36807  20.526  44.843   8.779
 2657POPC   D2A36808  20.727  44.572   8.476
 2657POPC   C3A36809  20.541  44.597   8.061
 2657POPC   C4A36810  20.466  44.447   7.653
 2657POPC   C1B36811  21.075  44.791   8.858
 2657POPC   C2B36812  21.160  44.915   8.448
 2657POPC   C3B36813  21.021  44.804   8.046
 2657POPC   C4B36814  20.843  44.792   7.642
 2658POPC   NC336815  12.889  10.989   9.542
 2658POPC   PO436816  13.125  10.352   9.505
 2658POPC   GL136817  13.095  10.646   9.138
 2658POPC   GL236818  12.763  10.702   9.095
 2658POPC   C1A36819  12.992  10.611   8.666
 2658POPC   D2A36820  12.743  10.593   8.301
 2658POPC   C3A36821  12.940  10.439   7.944
 2658POPC   C4A36822  13.047  10.218   7.565
 2658POPC   C1B36823  12.517  10.421   8.770
 2658POPC   C2B36824  12.507  10.134   8.382
 2658POPC   C3B36825  12.425  10.291   7.988
 2658POPC   C4B36826  12.477  10.753   7.859
 2659POPC   NC336827  21.927  20.984   9.559
 2659POPC   PO436828  22.118  20.334   9.820
 2659POPC   GL136829  22.205  20.549   9.394
 2659POPC   GL236830  22.418  20.819   9.285
 2659POPC   C1A36831  22.069  20.656   8.942
 2659POPC   D2A36832  22.151  20.785   8.486
 2659POPC   C3A36833  22.133  20.551   8.110
 2659POPC   C4A36834  21.995  20.586   7.716
 2659POPC   C1B36835  22.519  20.943   8.811
 2659POPC   C2B36836  22.519  21.120   8.358
 2659POPC   C3B36837  22.434  21.004   7.920
 2659POPC   C4B36838  22.199  20.990   7.509
 2660POPC   NC336839  40.892  35.632   9.635
 2660POPC   PO436840  40.725  36.250   9.398
 2660POPC   GL136841  40.819  35.933   9.097
 2660POPC   GL236842  41.037  36.195   8.958
 2660POPC   C1A36843  40.648  35.850   8.672
 2660POPC   D2A36844  40.425  35.907   8.260
 2660POPC   C3A36845  40.751  35.917   7.936
 2660POPC   C4A36846  40.801  35.931   7.496
 2660POPC   C1B36847  40.670  36.382   8.717
 2660POPC   C2B36848  40.682  36.348   8.258
 2660POPC   C3B36849  40.703  36.420   7.815
 2660POPC   C4B36850  40.972  36.420   7.462
 2661POPC   NC336851  33.087  44.403   9.694
 2661POPC   PO436852  33.709  44.477   9.369
 2661POPC   GL136853  33.885  44.312   9.020
 2661POPC   GL236854  34.175  44.475   8.914
 2661POPC   C1A36855  33.821  44.232   8.570
 2661POPC   D2A36856  33.850  44.464   8.225
 2661POPC   C3A36857  33.814  44.398   7.831
 2661POPC   C4A36858  33.604  44.609   7.527
 2661POPC   C1B36859  33.811  44.725   8.722
 2661POPC   C2B36860  33.657  44.919   8.314
 2661POPC   C3B36861  33.859  44.902   7.886
 2661POPC   C4B36862  34.003   0.234   7.595
 2662POPC   NC336863  23.481  31.678   9.370
 2662POPC   PO436864  24.150  31.576   9.481
 2662POPC   GL136865  23.961  31.650   9.096
 2662POPC   GL236866  24.079  31.351   8.922
 2662POPC   C1A36867  23.672  31.641   8.726
 2662POPC   D2A36868  23.739  31.514   8.291
 2662POPC   C3A36869  23.612  31.763   7.929
 2662POPC   C4A36870  23.469  31.465   7.621
 2662POPC   C1B36871  24.192  31.637   8.571
 2662POPC   C2B36872  24.147  31.766   8.104
 2662POPC   C3B36873  24.026  31.577   7.712
 2662POPC   C4B36874  23.933  31.287   7.379
 2663POPC   NC336875  10.178  24.396   9.550
 2663POPC   PO436876  10.638  24.741   9.388
 2663POPC   GL136877  10.314  24.623   9.108
 2663POPC   GL236878  10.365  24.249   9.117
 2663POPC   C1A36879  10.396  24.543   8.689
 2663POPC   D2A36880  10.664  24.642   8.385
 2663POPC   C3A36881  10.393  24.640   8.066
 2663POPC   C4A36882  10.550  24.656   7.683
 2663POPC   C1B36883  10.347  24.043   8.746
 2663POPC   C2B36884  10.519  24.119   8.342
 2663POPC   C3B36885  10.563  24.172   7.888
 2663POPC   C4B36886  10.382  24.256   7.467
 2664POPC   NC336887   3.744  44.084   9.879
 2664POPC   PO436888   3.385  43.712   9.650
 2664POPC   GL136889   3.530  43.478   9.243
 2664POPC   GL236890   3.217  43.416   9.081
 2664POPC   C1A36891   3.633  43.557   8.776
 2664POPC   D2A36892   3.524  43.738   8.327
 2664POPC   C3A36893   3.686  43.897   7.912
 2664POPC   C4A36894   3.711  43.704   7.472
 2664POPC   C1B36895   3.143  43.672   8.701
 2664POPC   C2B36896   3.018  43.661   8.258
 2664POPC   C3B36897   3.196  43.744   7.838
 2664POPC   C4B36898   3.246  43.945   7.414
 2665POPC   NC336899   8.148   4.489   9.622
 2665POPC   PO436900   8.095   3.864   9.374
 2665POPC   GL136901   8.219   4.243   9.179
 2665POPC   GL236902   8.449   4.127   9.014
 2665POPC   C1A36903   8.099   4.307   8.720
 2665POPC   D2A36904   8.185   4.196   8.316
 2665POPC   C3A36905   8.006   4.235   7.947
 2665POPC   C4A36906   8.140   3.966   7.659
 2665POPC   C1B36907   8.525   4.538   8.880
 2665POPC   C2B36908   8.570   4.479   8.474
 2665POPC   C3B36909   8.520   4.555   8.043
 2665POPC   C4B36910   8.234   4.595   7.692
 2666POPC   NC336911  25.102  10.885   9.636
 2666POPC   PO436912  24.632  10.309   9.512
 2666POPC   GL136913  24.982  10.469   9.214
 2666POPC   GL236914  25.041  10.834   9.152
 2666POPC   C1A36915  25.298  10.524   8.860
 2666POPC   D2A36916  25.248  10.597   8.420
 2666POPC   C3A36917  25.601  10.612   8.162
 2666POPC   C4A36918  25.471  10.531   7.755
 2666POPC   C1B36919  24.865  10.793   8.763
 2666POPC   C2B36920  24.940  10.997   8.355
 2666POPC   C3B36921  24.959  10.725   7.976
 2666POPC   C4B36922  25.058  10.721   7.506
 2667POPC   NC336923  41.513  41.742   9.534
 2667POPC   PO436924  41.911  41.331   9.358
 2667POPC   GL136925  41.718  41.629   9.069
 2667POPC   GL236926  41.358  41.688   9.044
 2667POPC   C1A36927  41.661  41.607   8.630
 2667POPC   D2A36928  41.453  41.707   8.269
 2667POPC   C3A36929  41.621  41.514   7.921
 2667POPC   C4A36930  41.685  41.192   7.598
 2667POPC   C1B36931  41.116  41.648   8.662
 2667POPC   C2B36932  41.011  41.432   8.259
 2667POPC   C3B36933  41.126  41.605   7.891
 2667POPC   C4B36934  41.293  41.475   7.497
 2668POPC   NC336935  17.470   0.981   9.320
 2668POPC   PO436936  17.501   1.430   9.794
 2668POPC   GL136937  17.443   1.468   9.303
 2668POPC   GL236938  17.178   1.300   9.084
 2668POPC   C1A36939  17.626   1.340   8.817
 2668POPC   D2A36940  17.545   1.047   8.440
 2668POPC   C3A36941  17.499   1.276   8.033
 2668POPC   C4A36942  17.817   1.365   7.719
 2668POPC   C1B36943  17.043   1.031   8.706
 2668POPC   C2B36944  17.121   0.722   8.344
 2668POPC   C3B36945  17.273   0.819   7.935
 2668POPC   C4B36946  17.075   1.038   7.585
 2669POPC   NC336947  20.187  23.854   9.534
 2669POPC   PO436948  20.737  23.426   9.600
 2669POPC   GL136949  20.617  23.661   9.233
 2669POPC   GL236950  20.298  23.591   9.095
 2669POPC   C1A36951  20.653  23.760   8.789
 2669POPC   D2A36952  20.716  23.527   8.439
 2669POPC   C3A36953  20.730  23.740   8.113
 2669POPC   C4A36954  20.634  23.714   7.724
 2669POPC   C1B36955  20.134  23.598   8.674
 2669POPC   C2B36956  20.284  23.838   8.333
 2669POPC   C3B36957  20.417  24.098   7.999
 2669POPC   C4B36958  20.210  23.979   7.642
 2670POPC   NC336959  11.400   7.023   9.460
 2670POPC   PO436960  11.171   7.668   9.529
 2670POPC   GL136961  11.386   7.685   9.141
 2670POPC   GL236962  11.445   7.331   9.061
 2670POPC   C1A36963  11.225   7.621   8.724
 2670POPC   D2A36964  11.299   7.511   8.329
 2670POPC   C3A36965  10.952   7.481   8.080
 2670POPC   C4A36966  11.031   7.456   7.663
 2670POPC   C1B36967  11.451   7.149   8.661
 2670POPC   C2B36968  11.213   6.971   8.328
 2670POPC   C3B36969  11.368   6.995   7.920
 2670POPC   C4B36970  11.414   7.163   7.472
 2671POPC   NC336971  41.438  40.147   9.648
 2671POPC   PO436972  41.791  39.678   9.297
 2671POPC   GL136973  41.550  40.026   9.164
 2671POPC   GL236974  41.238  39.879   9.233
 2671POPC   C1A36975  41.579  40.265   8.802
 2671POPC   D2A36976  41.826  40.104   8.477
 2671POPC   C3A36977  41.698  40.272   8.113
 2671POPC   C4A36978  41.706  40.062   7.744
 2671POPC   C1B36979  41.172  39.985   8.797
 2671POPC   C2B36980  41.262  40.166   8.401
 2671POPC   C3B36981  41.250  40.075   7.965
 2671POPC   C4B36982  41.291  39.840   7.549
 2672POPC   NC336983  18.634  20.651   9.594
 2672POPC   PO436984  19.256  20.383   9.442
 2672POPC   GL136985  18.925  20.401   9.134
 2672POPC   GL236986  18.939  20.730   9.196
 2672POPC   C1A36987  19.059  20.443   8.679
 2672POPC   D2A36988  19.356  20.619   8.313
 2672POPC   C3A36989  19.344  20.570   7.830
 2672POPC   C4A36990  19.322  20.398   7.370
 2672POPC   C1B36991  18.825  20.887   8.829
 2672POPC   C2B36992  18.892  20.817   8.397
 2672POPC   C3B36993  18.864  20.534   8.051
 2672POPC   C4B36994  18.887  20.655   7.613
 2673POPC   NC336995   5.525  29.713   9.404
 2673POPC   PO436996   5.939  30.194   9.591
 2673POPC   GL136997   6.089  29.902   9.229
 2673POPC   GL236998   5.964  29.557   9.127
 2673POPC   C1A36999   6.244  29.868   8.804
 2673POPC   D2A37000   6.020  29.938   8.454
 2673POPC   C3A37001   6.167  29.831   8.072
 2673POPC   C4A37002   5.927  29.971   7.744
 2673POPC   C1B37003   5.920  29.464   8.692
 2673POPC   C2B37004   5.839  29.469   8.252
 2673POPC   C3B37005   5.579  29.687   7.982
 2673POPC   C4B37006   5.419  29.697   7.580
 2674POPC   NC337007  25.887  44.011   9.397
 2674POPC   PO437008  26.338  43.578   9.747
 2674POPC   GL137009  26.237  43.594   9.233
 2674POPC   GL237010  26.232  43.962   9.038
 2674POPC   C1A37011  26.418  43.605   8.757
 2674POPC   D2A37012  26.194  43.856   8.399
 2674POPC   C3A37013  26.175  43.688   7.980
 2674POPC   C4A37014  26.139  43.901   7.555
 2674POPC   C1B37015  25.903  43.731   8.787
 2674POPC   C2B37016  25.665  43.833   8.419
 2674POPC   C3B37017  25.759  43.988   8.014
 2674POPC   C4B37018  25.667  43.795   7.630
 2675POPC   NC337019  27.323  24.273   9.644
 2675POPC   PO437020  26.738  24.619   9.501
 2675POPC   GL137021  26.880  24.364   9.186
 2675POPC   GL237022  26.602  24.410   8.977
 2675POPC   C1A37023  27.074  24.425   8.783
 2675POPC   D2A37024  27.166  24.675   8.430
 2675POPC   C3A37025  26.924  24.513   8.093
 2675POPC   C4A37026  26.851  24.201   7.778
 2675POPC   C1B37027  26.414  24.698   8.690
 2675POPC   C2B37028  26.632  24.819   8.388
 2675POPC   C3B37029  26.581  24.908   8.004
 2675POPC   C4B37030  26.615  24.647   7.674
 2676POPC   NC337031  21.803  21.694   9.823
 2676POPC   PO437032  22.306  21.272   9.556
 2676POPC   GL137033  22.309  21.283   9.117
 2676POPC   GL237034  21.987  21.366   9.072
 2676POPC   C1A37035  22.330  21.453   8.701
 2676POPC   D2A37036  22.352  21.676   8.306
 2676POPC   C3A37037  22.201  21.460   7.971
 2676POPC   C4A37038  22.027  21.459   7.590
 2676POPC   C1B37039  21.904  21.118   8.775
 2676POPC   C2B37040  21.961  21.280   8.379
 2676POPC   C3B37041  21.927  21.024   8.021
 2676POPC   C4B37042  21.706  21.024   7.666
 2677POPC   NC337043  33.321  29.790   9.458
 2677POPC   PO437044  32.683  29.891   9.567
 2677POPC   GL137045  32.839  30.004   9.166
 2677POPC   GL237046  32.959  29.689   9.098
 2677POPC   C1A37047  32.945  30.037   8.707
 2677POPC   D2A37048  32.833  29.807   8.384
 2677POPC   C3A37049  32.947  29.813   7.993
 2677POPC   C4A37050  32.884  30.166   7.789
 2677POPC   C1B37051  33.294  29.581   8.829
 2677POPC   C2B37052  33.330  29.654   8.433
 2677POPC   C3B37053  33.438  29.568   8.030
 2677POPC   C4B37054  33.172  29.494   7.697
 2678POPC   NC337055  19.352   7.184   9.314
 2678POPC   PO437056  18.767   7.458   9.490
 2678POPC   GL137057  18.903   7.677   9.122
 2678POPC   GL237058  19.268   7.670   9.112
 2678POPC   C1A37059  18.751   7.623   8.693
 2678POPC   D2A37060  18.663   7.556   8.259
 2678POPC   C3A37061  19.028   7.439   8.006
 2678POPC   C4A37062  19.363   7.681   7.839
 2678POPC   C1B37063  19.253   7.468   8.685
 2678POPC   C2B37064  19.460   7.357   8.266
 2678POPC   C3B37065  19.418   7.154   7.821
 2678POPC   C4B37066  19.200   6.860   7.494
 2679POPC   NC337067  12.156  29.707   9.747
 2679POPC   PO437068  12.072  29.083   9.702
 2679POPC   GL137069  11.958  29.011   9.249
 2679POPC   GL237070  12.259  28.957   9.039
 2679POPC   C1A37071  11.906  29.321   8.919
 2679POPC   D2A37072  11.939  29.275   8.476
 2679POPC   C3A37073  11.703  29.335   8.110
 2679POPC   C4A37074  12.003  29.278   7.769
 2679POPC   C1B37075  11.938  28.839   8.738
 2679POPC   C2B37076  11.832  28.794   8.278
 2679POPC   C3B37077  12.124  28.789   7.887
 2679POPC   C4B37078  12.367  28.905   7.506
 2680POPC   NC337079  38.287  30.954   9.349
 2680POPC   PO437080  38.646  30.511   9.612
 2680POPC   GL137081  38.468  30.506   9.176
 2680POPC   GL237082  38.736  30.776   9.123
 2680POPC   C1A37083  38.276  30.715   8.771
 2680POPC   D2A37084  38.211  30.997   8.433
 2680POPC   C3A37085  38.195  30.792   8.029
 2680POPC   C4A37086  38.306  30.841   7.604
 2680POPC   C1B37087  38.759  30.547   8.745
 2680POPC   C2B37088  38.590  30.638   8.344
 2680POPC   C3B37089  38.685  30.582   7.917
 2680POPC   C4B37090  38.683  30.196   7.715
 2681POPC   NC337091  24.344  11.298   9.416
 2681POPC   PO437092  24.429  11.917   9.453
 2681POPC   GL137093  24.627  11.590   9.116
 2681POPC   GL237094  24.634  11.199   9.004
 2681POPC   C1A37095  24.805  11.553   8.714
 2681POPC   D2A37096  24.725  11.630   8.321
 2681POPC   C3A37097  24.642  11.297   8.059
 2681POPC   C4A37098  24.316  11.438   7.849
 2681POPC   C1B37099  24.487  11.190   8.551
 2681POPC   C2B37100  24.208  11.051   8.212
 2681POPC   C3B37101  24.130  10.988   7.766
 2681POPC   C4B37102  24.551  10.981   7.610
 2682POPC   NC337103  23.415  15.700   9.609
 2682POPC   PO437104  23.863  16.160   9.524
 2682POPC   GL137105  23.847  15.987   9.102
 2682POPC   GL237106  23.544  15.815   9.123
 2682POPC   C1A37107  23.799  15.812   8.663
 2682POPC   D2A37108  23.644  15.766   8.222
 2682POPC   C3A37109  23.728  15.788   7.783
 2682POPC   C4A37110  23.618  16.033   7.401
 2682POPC   C1B37111  23.349  16.015   8.774
 2682POPC   C2B37112  23.411  16.213   8.346
 2682POPC   C3B37113  23.354  16.114   7.892
 2682POPC   C4B37114  23.190  15.822   7.551
 2683POPC   NC337115  36.143  42.662   9.702
 2683POPC   PO437116  35.848  42.057   9.516
 2683POPC   GL137117  36.081  42.233   9.164
 2683POPC   GL237118  36.097  42.593   9.140
 2683POPC   C1A37119  36.317  42.306   8.791
 2683POPC   D2A37120  36.127  42.430   8.456
 2683POPC   C3A37121  36.357  42.317   8.105
 2683POPC   C4A37122  36.173  42.323   7.735
 2683POPC   C1B37123  35.783  42.778   8.867
 2683POPC   C2B37124  35.754  42.800   8.407
 2683POPC   C3B37125  35.904  42.683   7.995
 2683POPC   C4B37126  35.798  42.594   7.557
 2684POPC   NC337127  10.284   3.435   9.361
 2684POPC   PO437128  10.872   3.695   9.378
 2684POPC   GL137129  10.659   3.844   9.040
 2684POPC   GL237130  10.319   3.894   9.146
 2684POPC   C1A37131  10.734   3.785   8.606
 2684POPC   D2A37132  10.943   3.902   8.222
 2684POPC   C3A37133  10.846   3.561   7.950
 2684POPC   C4A37134  10.479   3.284   7.927
 2684POPC   C1B37135  10.218   3.712   8.751
 2684POPC   C2B37136  10.297   3.625   8.323
 2684POPC   C3B37137  10.372   3.790   7.934
 2684POPC   C4B37138  10.656   4.054   7.792
 2685POPC   NC337139  31.632   9.175   9.555
 2685POPC   PO437140  31.586   8.508   9.654
 2685POPC   GL137141  31.731   8.588   9.150
 2685POPC   GL237142  31.496   8.875   9.084
 2685POPC   C1A37143  31.516   8.550   8.684
 2685POPC   D2A37144  31.320   8.654   8.254
 2685POPC   C3A37145  31.422   8.924   7.869
 2685POPC   C4A37146  31.696   8.842   7.510
 2685POPC   C1B37147  31.391   9.049   8.674
 2685POPC   C2B37148  31.203   9.165   8.266
 2685POPC   C3B37149  31.346   9.423   7.904
 2685POPC   C4B37150  31.468   9.306   7.491
 2686POPC   NC337151  11.039   2.414   9.344
 2686POPC   PO437152  11.189   1.820   9.596
 2686POPC   GL137153  11.427   1.785   9.207
 2686POPC   GL237154  11.370   2.122   9.085
 2686POPC   C1A37155  11.310   1.738   8.754
 2686POPC   D2A37156  11.296   2.081   8.433
 2686POPC   C3A37157  11.218   1.895   8.053
 2686POPC   C4A37158  10.921   1.884   7.746
 2686POPC   C1B37159  11.460   2.455   8.788
 2686POPC   C2B37160  11.636   2.483   8.378
 2686POPC   C3B37161  11.537   2.316   7.992
 2686POPC   C4B37162  11.277   2.241   7.657
 2687POPC   NC337163  40.317  10.182   9.655
 2687POPC   PO437164  39.908  10.659   9.699
 2687POPC   GL137165  39.902  10.589   9.194
 2687POPC   GL237166  39.605  10.731   9.029
 2687POPC   C1A37167  39.898  10.389   8.730
 2687POPC   D2A37168  40.065  10.250   8.305
 2687POPC   C3A37169  39.997  10.399   7.856
 2687POPC   C4A37170  40.115  10.705   7.490
 2687POPC   C1B37171  39.786  10.881   8.631
 2687POPC   C2B37172  39.814  10.726   8.205
 2687POPC   C3B37173  39.699  10.853   7.767
 2687POPC   C4B37174  39.702  10.940   7.284
 2688POPC   NC337175  35.654  32.818   9.470
 2688POPC   PO437176  34.992  33.187   9.513
 2688POPC   GL137177  35.272  33.062   9.175
 2688POPC   GL237178  35.022  32.884   9.046
 2688POPC   C1A37179  35.235  33.197   8.724
 2688POPC   D2A37180  34.961  33.093   8.388
 2688POPC   C3A37181  35.189  33.149   8.014
 2688POPC   C4A37182  35.524  33.277   7.772
 2688POPC   C1B37183  35.138  32.685   8.675
 2688POPC   C2B37184  34.923  32.575   8.315
 2688POPC   C3B37185  35.041  32.593   7.892
 2688POPC   C4B37186  35.324  32.790   7.653
 2689POPC   NC337187  34.086  42.874   9.419
 2689POPC   PO437188  33.426  43.087   9.500
 2689POPC   GL137189  33.599  43.102   9.079
 2689POPC   GL237190  33.959  43.182   9.063
 2689POPC   C1A37191  33.771  42.908   8.685
 2689POPC   D2A37192  33.799  42.760   8.250
 2689POPC   C3A37193  33.537  43.061   7.924
 2689POPC   C4A37194  33.477  43.035   7.437
 2689POPC   C1B37195  33.865  43.408   8.714
 2689POPC   C2B37196  33.843  43.292   8.313
 2689POPC   C3B37197  34.025  43.109   7.968
 2689POPC   C4B37198  33.958  43.229   7.601
 2690POPC   NC337199  21.718  34.678   9.276
 2690POPC   PO437200  22.248  34.240   9.407
 2690POPC   GL137201  22.348  34.392   9.036
 2690POPC   GL237202  22.176  34.688   9.025
 2690POPC   C1A37203  22.344  34.452   8.590
 2690POPC   D2A37204  22.110  34.569   8.202
 2690POPC   C3A37205  22.252  34.653   7.804
 2690POPC   C4A37206  22.541  34.337   7.853
 2690POPC   C1B37207  21.919  34.768   8.652
 2690POPC   C2B37208  21.910  35.019   8.277
 2690POPC   C3B37209  21.751  34.884   7.903
 2690POPC   C4B37210  21.797  34.959   7.472
 2691POPC   NC337211  44.599   8.415   9.570
 2691POPC   PO437212  44.588   9.074   9.587
 2691POPC   GL137213  44.579   8.797   9.231
 2691POPC   GL237214  44.932   8.668   9.251
 2691POPC   C1A37215  44.492   8.847   8.797
 2691POPC   D2A37216  44.407   9.076   8.446
 2691POPC   C3A37217  44.535   8.769   8.145
 2691POPC   C4A37218  44.540   8.823   7.723
 2691POPC   C1B37219  44.962   8.992   8.907
 2691POPC   C2B37220  44.920   9.033   8.448
 2691POPC   C3B37221  44.851   9.164   8.004
 2691POPC   C4B37222   0.003   8.984   7.624
 2692POPC   NC337223   4.773  21.672   9.526
 2692POPC   PO437224   5.397  21.454   9.574
 2692POPC   GL137225   5.183  21.316   9.239
 2692POPC   GL237226   4.916  21.099   9.323
 2692POPC   C1A37227   5.263  21.467   8.803
 2692POPC   D2A37228   5.257  21.325   8.373
 2692POPC   C3A37229   5.111  21.551   8.015
 2692POPC   C4A37230   5.408  21.495   7.701
 2692POPC   C1B37231   5.022  21.015   8.868
 2692POPC   C2B37232   5.056  20.877   8.425
 2692POPC   C3B37233   5.028  21.045   7.975
 2692POPC   C4B37234   5.075  21.107   7.525
 2693POPC   NC337235  21.604  14.276   9.416
 2693POPC   PO437236  21.090  14.406   9.250
 2693POPC   GL137237  21.485  14.485   8.967
 2693POPC   GL237238  21.845  14.596   9.078
 2693POPC   C1A37239  21.775  14.268   8.673
 2693POPC   D2A37240  21.902  14.324   8.224
 2693POPC   C3A37241  21.486  14.345   7.965
 2693POPC   C4A37242  21.079  14.356   7.700
 2693POPC   C1B37243  21.808  14.771   8.649
 2693POPC   C2B37244  21.682  14.781   8.213
 2693POPC   C3B37245  21.857  14.657   7.806
 2693POPC   C4B37246  21.881  14.603   7.371
 2694POPC   NC337247  13.527  18.320   9.533
 2694POPC   PO437248  13.933  17.750   9.531
 2694POPC   GL137249  13.738  18.020   9.177
 2694POPC   GL237250  13.373  18.157   9.091
 2694POPC   C1A37251  13.755  18.204   8.775
 2694POPC   D2A37252  13.794  18.059   8.380
 2694POPC   C3A37253  13.974  18.285   8.063
 2694POPC   C4A37254  13.676  18.339   7.772
 2694POPC   C1B37255  13.244  18.314   8.701
 2694POPC   C2B37256  13.394  18.410   8.275
 2694POPC   C3B37257  13.192  18.414   7.872
 2694POPC   C4B37258  13.251  18.387   7.393
 2695POPC   NC337259   3.030  11.222   9.544
 2695POPC   PO437260   2.372  11.179   9.437
 2695POPC   GL137261   2.665  11.360   9.174
 2695POPC   GL237262   2.864  11.120   9.036
 2695POPC   C1A37263   2.827  11.547   8.792
 2695POPC   D2A37264   2.718  11.586   8.340
 2695POPC   C3A37265   2.773  11.275   8.007
 2695POPC   C4A37266   2.716  11.255   7.533
 2695POPC   C1B37267   2.644  11.110   8.594
 2695POPC   C2B37268   2.494  10.884   8.212
 2695POPC   C3B37269   2.329  11.081   7.837
 2695POPC   C4B37270   2.172  11.131   7.375
 2696POPC   NC337271   8.842  36.272   9.445
 2696POPC   PO437272   8.312  35.856   9.411
 2696POPC   GL137273   8.648  35.986   9.055
 2696POPC   GL237274   8.678  36.342   8.966
 2696POPC   C1A37275   9.007  36.027   8.701
 2696POPC   D2A37276   9.327  35.941   8.347
 2696POPC   C3A37277   9.269  36.084   7.911
 2696POPC   C4A37278   9.128  35.931   7.506
 2696POPC   C1B37279   8.690  36.415   8.531
 2696POPC   C2B37280   8.878  36.255   8.184
 2696POPC   C3B37281   8.723  36.057   7.822
 2696POPC   C4B37282   8.422  36.259   7.535
 2697POPC   NC337283  23.944  15.007   9.230
 2697POPC   PO437284  23.415  15.270   9.443
 2697POPC   GL137285  23.591  15.308   9.015
 2697POPC   GL237286  23.929  15.487   9.069
 2697POPC   C1A37287  23.671  14.998   8.641
 2697POPC   D2A37288  23.955  14.797   8.360
 2697POPC   C3A37289  23.946  14.919   7.949
 2697POPC   C4A37290  23.628  15.166   7.752
 2697POPC   C1B37291  24.028  15.366   8.676
 2697POPC   C2B37292  23.866  15.316   8.273
 2697POPC   C3B37293  24.061  15.420   7.901
 2697POPC   C4B37294  24.079  15.487   7.477
 2698POPC   NC337295  39.430  31.331   9.349
 2698POPC   PO437296  38.952  31.730   9.644
 2698POPC   GL137297  39.022  31.573   9.143
 2698POPC   GL237298  39.138  31.242   8.942
 2698POPC   C1A37299  38.870  31.564   8.696
 2698POPC   D2A37300  39.062  31.314   8.366
 2698POPC   C3A37301  39.000  31.495   7.961
 2698POPC   C4A37302  39.132  31.274   7.601
 2698POPC   C1B37303  39.425  31.512   8.672
 2698POPC   C2B37304  39.385  31.727   8.254
 2698POPC   C3B37305  39.497  31.586   7.836
 2698POPC   C4B37306  39.713  31.490   7.441
 2699POPC   NC337307  13.682  42.577   9.611
 2699POPC   PO437308  13.311  42.157   9.539
 2699POPC   GL137309  13.370  42.094   9.147
 2699POPC   GL237310  13.693  42.297   9.127
 2699POPC   C1A37311  13.271  42.226   8.748
 2699POPC   D2A37312  13.560  42.416   8.465
 2699POPC   C3A37313  13.436  42.403   8.057
 2699POPC   C4A37314  13.633  42.453   7.673
 2699POPC   C1B37315  13.874  42.637   8.875
 2699POPC   C2B37316  13.864  42.843   8.485
 2699POPC   C3B37317  13.883  42.675   8.082
 2699POPC   C4B37318  13.986  42.850   7.697
 2700POPC   NC337319  41.964  39.275   9.466
 2700POPC   PO437320  42.703  39.322   9.478
 2700POPC   GL137321  42.509  39.288   9.123
 2700POPC   GL237322  42.223  39.483   9.073
 2700POPC   C1A37323  42.486  39.162   8.727
 2700POPC   D2A37324  42.390  39.307   8.350
 2700POPC   C3A37325  42.153  39.051   8.102
 2700POPC   C4A37326  42.332  39.090   7.719
 2700POPC   C1B37327  42.017  39.518   8.662
 2700POPC   C2B37328  41.993  39.647   8.227
 2700POPC   C3B37329  41.965  39.452   7.823
 2700POPC   C4B37330  41.820  39.010   7.689
 2701POPC   NC337331  12.235  42.037   9.435
 2701POPC   PO437332  11.849  42.544   9.499
 2701POPC   GL137333  12.109  42.444   9.164
 2701POPC   GL237334  12.027  42.717   9.007
 2701POPC   C1A37335  12.116  42.246   8.750
 2701POPC   D2A37336  11.981  42.466   8.372
 2701POPC   C3A37337  12.011  42.323   7.948
 2701POPC   C4A37338  11.786  42.185   7.578
 2701POPC   C1B37339  12.398  42.658   8.752
 2701POPC   C2B37340  12.507  42.401   8.365
 2701POPC   C3B37341  12.500  42.480   7.912
 2701POPC   C4B37342  12.230  42.550   7.539
 2702POPC   NC337343  29.518  42.213   9.360
 2702POPC   PO437344  30.192  42.124   9.443
 2702POPC   GL137345  29.972  42.238   9.106
 2702POPC   GL237346  29.830  42.592   9.167
 2702POPC   C1A37347  30.069  42.080   8.701
 2702POPC   D2A37348  29.890  42.105   8.307
 2702POPC   C3A37349  30.148  42.010   7.936
 2702POPC   C4A37350  30.145  42.203   7.521
 2702POPC   C1B37351  29.725  42.460   8.728
 2702POPC   C2B37352  29.868  42.622   8.326
 2702POPC   C3B37353  29.843  42.474   7.898
 2702POPC   C4B37354  29.690  42.706   7.551
 2703POPC   NC337355  35.716  28.373   9.427
 2703POPC   PO437356  36.334  28.133   9.529
 2703POPC   GL137357  36.246  28.243   9.137
 2703POPC   GL237358  36.195  28.598   9.155
 2703POPC   C1A37359  36.381  28.286   8.724
 2703POPC   D2A37360  36.127  28.321   8.350
 2703POPC   C3A37361  36.382  28.339   8.008
 2703POPC   C4A37362  36.250  28.318   7.586
 2703POPC   C1B37363  35.949  28.578   8.749
 2703POPC   C2B37364  35.805  28.737   8.344
 2703POPC   C3B37365  35.942  28.594   7.938
 2703POPC   C4B37366  36.010  28.740   7.505
 2704POPC   NC337367  27.321   7.071   9.753
 2704POPC   PO437368  27.781   7.492   9.596
 2704POPC   GL137369  27.598   7.375   9.221
 2704POPC   GL237370  27.439   7.044   9.221
 2704POPC   C1A37371  27.629   7.637   8.835
 2704POPC   D2A37372  27.717   7.457   8.415
 2704POPC   C3A37373  27.701   7.652   8.012
 2704POPC   C4A37374  27.437   7.498   7.735
 2704POPC   C1B37375  27.505   7.143   8.760
 2704POPC   C2B37376  27.413   7.076   8.305
 2704POPC   C3B37377  27.651   7.090   7.913
 2704POPC   C4B37378  27.692   7.159   7.448
 2705POPC   NC337379  30.545   4.681   9.626
 2705POPC   PO437380  31.116   4.583   9.424
 2705POPC   GL137381  30.657   4.457   9.168
 2705POPC   GL237382  30.339   4.651   9.171
 2705POPC   C1A37383  30.274   4.252   8.869
 2705POPC   D2A37384  30.184   4.101   8.413
 2705POPC   C3A37385  30.409   4.242   8.024
 2705POPC   C4A37386  30.616   4.551   7.755
 2705POPC   C1B37387  30.513   4.667   8.705
 2705POPC   C2B37388  30.719   4.597   8.273
 2705POPC   C3B37389  31.075   4.603   7.940
 2705POPC   C4B37390  31.056   4.617   7.481
 2706POPC   NC337391  20.312  21.372   9.462
 2706POPC   PO437392  19.671  21.260   9.318
 2706POPC   GL137393  19.974  21.531   9.047
 2706POPC   GL237394  20.360  21.722   9.077
 2706POPC   C1A37395  19.818  21.451   8.618
 2706POPC   D2A37396  19.568  21.543   8.252
 2706POPC   C3A37397  19.565  21.250   7.927
 2706POPC   C4A37398  19.805  21.221   7.579
 2706POPC   C1B37399  20.307  21.639   8.650
 2706POPC   C2B37400  20.247  21.234   8.407
 2706POPC   C3B37401  20.076  21.254   8.031
 2706POPC   C4B37402  20.091  21.608   7.793
 2707POPC   NC337403   2.396  28.374   9.821
 2707POPC   PO437404   2.994  28.556   9.656
 2707POPC   GL137405   2.860  28.513   9.203
 2707POPC   GL237406   2.848  28.164   9.048
 2707POPC   C1A37407   2.683  28.528   8.746
 2707POPC   D2A37408   2.692  28.234   8.382
 2707POPC   C3A37409   2.713  28.363   7.938
 2707POPC   C4A37410   2.518  28.553   7.550
 2707POPC   C1B37411   2.412  28.092   8.807
 2707POPC   C2B37412   2.193  28.151   8.365
 2707POPC   C3B37413   2.294  28.031   7.914
 2707POPC   C4B37414   2.566  28.045   7.523
 2708POPC   NC337415  19.222  36.183   9.330
 2708POPC   PO437416  18.853  35.712   9.347
 2708POPC   GL137417  19.045  35.860   8.971
 2708POPC   GL237418  18.853  36.174   8.913
 2708POPC   C1A37419  18.952  35.847   8.537
 2708POPC   D2A37420  18.807  36.158   8.263
 2708POPC   C3A37421  19.209  36.193   8.090
 2708POPC   C4A37422  19.239  35.811   7.858
 2708POPC   C1B37423  19.161  36.385   8.614
 2708POPC   C2B37424  19.341  36.683   8.276
 2708POPC   C3B37425  19.175  36.675   7.852
 2708POPC   C4B37426  18.872  36.364   7.754
 2709POPC   NC337427  14.825  35.492   9.608
 2709POPC   PO437428  15.478  35.617   9.526
 2709POPC   GL137429  15.358  35.734   9.105
 2709POPC   GL237430  15.067  35.531   9.138
 2709POPC   C1A37431  15.275  35.646   8.646
 2709POPC   D2A37432  15.238  35.637   8.183
 2709POPC   C3A37433  14.882  35.481   7.956
 2709POPC   C4A37434  14.925  35.375   7.541
 2709POPC   C1B37435  14.873  35.348   8.762
 2709POPC   C2B37436  15.028  35.198   8.353
 2709POPC   C3B37437  15.007  34.997   7.920
 2709POPC   C4B37438  15.181  34.941   7.494
 2710POPC   NC337439  36.028  43.385   9.576
 2710POPC   PO437440  36.422  42.868   9.402
 2710POPC   GL137441  36.204  43.098   9.083
 2710POPC   GL237442  36.242  43.455   9.129
 2710POPC   C1A37443  36.198  42.952   8.639
 2710POPC   D2A37444  36.366  42.821   8.255
 2710POPC   C3A37445  36.328  43.014   7.880
 2710POPC   C4A37446  36.058  43.014   7.563
 2710POPC   C1B37447  36.242  43.449   8.681
 2710POPC   C2B37448  36.319  43.367   8.252
 2710POPC   C3B37449  36.269  43.598   7.859
 2710POPC   C4B37450  36.298  43.418   7.442
 2711POPC   NC337451  21.785  41.469   9.445
 2711POPC   PO437452  22.232  41.957   9.613
 2711POPC   GL137453  22.215  41.658   9.227
 2711POPC   GL237454  21.940  41.740   9.041
 2711POPC   C1A37455  22.148  41.337   8.839
 2711POPC   D2A37456  22.112  41.526   8.385
 2711POPC   C3A37457  21.985  41.290   7.977
 2711POPC   C4A37458  22.062  41.208   7.505
 2711POPC   C1B37459  22.158  41.952   8.761
 2711POPC   C2B37460  22.076  42.036   8.378
 2711POPC   C3B37461  22.208  42.123   8.013
 2711POPC   C4B37462  22.030  42.074   7.649
 2712POPC   NC337463  29.153  44.682   9.742
 2712POPC   PO437464  29.538  44.912   9.293
 2712POPC   GL137465  29.266  44.593   9.250
 2712POPC   GL237466  29.485  44.338   9.418
 2712POPC   C1A37467  28.979  44.648   8.895
 2712POPC   D2A37468  29.013  44.970   8.541
 2712POPC   C3A37469  29.252  44.907   8.149
 2712POPC   C4A37470  29.114  44.846   7.731
 2712POPC   C1B37471  29.521  44.315   8.928
 2712POPC   C2B37472  29.301  44.472   8.520
 2712POPC   C3B37473  29.074  44.418   8.125
 2712POPC   C4B37474  29.256  44.346   7.724
 2713POPC   NC337475  21.394  43.560   9.677
 2713POPC   PO437476  21.306  44.211   9.760
 2713POPC   GL137477  21.447  43.928   9.323
 2713POPC   GL237478  21.762  43.982   9.141
 2713POPC   C1A37479  21.462  43.736   8.846
 2713POPC   D2A37480  21.331  43.898   8.457
 2713POPC   C3A37481  21.375  43.646   8.095
 2713POPC   C4A37482  21.227  43.825   7.695
 2713POPC   C1B37483  21.762  44.134   8.713
 2713POPC   C2B37484  21.810  43.969   8.304
 2713POPC   C3B37485  21.594  44.095   7.925
 2713POPC   C4B37486  21.592  44.147   7.457
 2714POPC   NC337487  21.759  11.334   9.428
 2714POPC   PO437488  21.126  11.219   9.486
 2714POPC   GL137489  21.339  11.071   9.152
 2714POPC   GL237490  21.601  10.858   9.280
 2714POPC   C1A37491  21.475  11.340   8.791
 2714POPC   D2A37492  21.198  11.463   8.410
 2714POPC   C3A37493  21.300  11.457   7.945
 2714POPC   C4A37494  21.177  11.520   7.479
 2714POPC   C1B37495  21.621  10.824   8.820
 2714POPC   C2B37496  21.366  10.982   8.467
 2714POPC   C3B37497  21.268  10.945   8.068
 2714POPC   C4B37498  21.424  11.021   7.706
 2715POPC   NC337499  11.176  22.415   9.589
 2715POPC   PO437500  11.410  21.826   9.486
 2715POPC   GL137501  11.357  22.126   9.163
 2715POPC   GL237502  11.553  22.458   9.193
 2715POPC   C1A37503  11.280  21.921   8.762
 2715POPC   D2A37504  11.540  21.715   8.448
 2715POPC   C3A37505  11.461  21.791   8.027
 2715POPC   C4A37506  11.386  22.047   7.689
 2715POPC   C1B37507  11.410  22.420   8.745
 2715POPC   C2B37508  11.402  22.208   8.337
 2715POPC   C3B37509  11.529  22.451   7.986
 2715POPC   C4B37510  11.523  22.619   7.589
 2716POPC   NC337511  33.310   9.559   9.571
 2716POPC   PO437512  32.760   9.870   9.337
 2716POPC   GL137513  33.147   9.820   9.144
 2716POPC   GL237514  33.078   9.499   9.070
 2716POPC   C1A37515  33.290   9.786   8.714
 2716POPC   D2A37516  33.149   9.591   8.331
 2716POPC   C3A37517  33.238   9.841   7.971
 2716POPC   C4A37518  33.008  10.152   7.733
 2716POPC   C1B37519  32.775   9.578   8.706
 2716POPC   C2B37520  32.672   9.371   8.298
 2716POPC   C3B37521  32.828   9.524   7.896
 2716POPC   C4B37522  33.182   9.458   7.634
 2717POPC   NC337523  15.523   4.829   9.443
 2717POPC   PO437524  16.039   5.296   9.498
 2717POPC   GL137525  15.788   5.255   9.170
 2717POPC   GL237526  15.847   4.892   9.053
 2717POPC   C1A37527  15.950   5.296   8.770
 2717POPC   D2A37528  15.862   4.994   8.456
 2717POPC   C3A37529  15.953   5.180   8.076
 2717POPC   C4A37530  15.901   5.264   7.679
 2717POPC   C1B37531  16.238   4.802   8.806
 2717POPC   C2B37532  16.295   4.650   8.375
 2717POPC   C3B37533  16.059   4.676   8.020
 2717POPC   C4B37534  16.211   4.836   7.639
 2718POPC   NC337535  40.056  32.486   9.783
 2718POPC   PO437536  39.804  33.149   9.534
 2718POPC   GL137537  39.940  33.035   9.154
 2718POPC   GL237538  40.256  33.214   9.061
 2718POPC   C1A37539  39.810  33.106   8.736
 2718POPC   D2A37540  39.918  33.345   8.361
 2718POPC   C3A37541  40.091  33.108   8.004
 2718POPC   C4A37542  39.913  32.807   7.723
 2718POPC   C1B37543  40.233  32.826   8.804
 2718POPC   C2B37544  40.057  32.782   8.415
 2718POPC   C3B37545  40.212  32.582   8.064
 2718POPC   C4B37546  40.304  32.411   7.682
 2719POPC   NC337547  36.247   5.677   9.596
 2719POPC   PO437548  35.973   6.217   9.488
 2719POPC   GL137549  36.258   5.997   9.192
 2719POPC   GL237550  36.058   5.713   9.111
 2719POPC   C1A37551  36.427   5.880   8.792
 2719POPC   D2A37552  36.237   5.909   8.381
 2719POPC   C3A37553  36.436   5.846   7.978
 2719POPC   C4A37554  36.497   5.889   7.564
 2719POPC   C1B37555  35.905   6.063   8.798
 2719POPC   C2B37556  35.863   6.262   8.341
 2719POPC   C3B37557  35.763   6.115   7.882
 2719POPC   C4B37558  35.526   6.026   7.485
 2720POPC   NC337559  28.035   1.681   9.899
 2720POPC   PO437560  28.300   2.134   9.535
 2720POPC   GL137561  28.475   2.054   9.144
 2720POPC   GL237562  28.252   2.251   8.993
 2720POPC   C1A37563  28.483   1.856   8.726
 2720POPC   D2A37564  28.341   1.870   8.307
 2720POPC   C3A37565  28.570   1.863   7.931
 2720POPC   C4A37566  28.379   1.920   7.518
 2720POPC   C1B37567  28.179   2.270   8.573
 2720POPC   C2B37568  28.259   2.469   8.196
 2720POPC   C3B37569  28.339   2.318   7.815
 2720POPC   C4B37570  28.325   2.419   7.346
 2721POPC   NC337571  32.307  44.794   9.442
 2721POPC   PO437572  31.882  44.206   9.576
 2721POPC   GL137573  32.009  44.446   9.197
 2721POPC   GL237574  32.400  44.374   9.138
 2721POPC   C1A37575  31.912  44.611   8.772
 2721POPC   D2A37576  32.145  44.377   8.425
 2721POPC   C3A37577  32.280  44.452   7.968
 2721POPC   C4A37578  32.081  44.645   7.604
 2721POPC   C1B37579  32.407  44.689   8.780
 2721POPC   C2B37580  32.212  44.878   8.369
 2721POPC   C3B37581  32.396  44.940   7.933
 2721POPC   C4B37582  32.389   0.050   7.483
 2722POPC   NC337583  39.180  23.974   9.550
 2722POPC   PO437584  39.040  24.652   9.644
 2722POPC   GL137585  39.221  24.542   9.211
 2722POPC   GL237586  39.167  24.239   9.127
 2722POPC   C1A37587  39.334  24.691   8.779
 2722POPC   D2A37588  39.065  24.523   8.404
 2722POPC   C3A37589  38.933  24.575   7.941
 2722POPC   C4A37590  39.143  24.382   7.571
 2722POPC   C1B37591  39.395  24.195   8.784
 2722POPC   C2B37592  39.573  24.394   8.431
 2722POPC   C3B37593  39.415  24.386   8.019
 2722POPC   C4B37594  39.465  24.021   7.689
 2723POPC   NC337595   5.255  38.996  10.093
 2723POPC   PO437596   4.813  39.036   9.640
 2723POPC   GL137597   4.754  38.926   9.189
 2723POPC   GL237598   4.458  39.061   9.081
 2723POPC   C1A37599   4.805  38.940   8.708
 2723POPC   D2A37600   4.714  39.125   8.266
 2723POPC   C3A37601   5.023  39.109   7.885
 2723POPC   C4A37602   5.056  38.968   7.463
 2723POPC   C1B37603   4.543  39.371   8.707
 2723POPC   C2B37604   4.594  39.637   8.296
 2723POPC   C3B37605   4.729  39.532   7.866
 2723POPC   C4B37606   4.875  39.456   7.431
 2724POPC   NC337607  28.210   5.713   9.623
 2724POPC   PO437608  28.454   6.311   9.574
 2724POPC   GL137609  28.493   5.945   9.239
 2724POPC   GL237610  28.146   5.817   9.126
 2724POPC   C1A37611  28.530   5.767   8.779
 2724POPC   D2A37612  28.457   5.942   8.359
 2724POPC   C3A37613  28.586   5.792   7.974
 2724POPC   C4A37614  28.500   6.005   7.596
 2724POPC   C1B37615  27.928   5.749   8.727
 2724POPC   C2B37616  28.001   5.726   8.304
 2724POPC   C3B37617  28.081   5.778   7.871
 2724POPC   C4B37618  28.035   5.823   7.424
 2725POPC   NC337619  39.226  22.873   9.559
 2725POPC   PO437620  38.892  23.271   9.143
 2725POPC   GL137621  39.183  22.965   9.054
 2725POPC   GL237622  39.104  22.635   9.148
 2725POPC   C1A37623  39.488  22.926   8.750
 2725POPC   D2A37624  39.384  22.854   8.315
 2725POPC   C3A37625  39.018  23.028   8.142
 2725POPC   C4A37626  39.038  23.198   7.743
 2725POPC   C1B37627  39.193  22.499   8.757
 2725POPC   C2B37628  39.174  22.388   8.331
 2725POPC   C3B37629  39.163  22.564   7.910
 2725POPC   C4B37630  39.448  22.712   7.585
 2726POPC   NC337631  41.974   7.585   9.525
 2726POPC   PO437632  42.518   7.099   9.550
 2726POPC   GL137633  42.427   7.350   9.166
 2726POPC   GL237634  42.095   7.428   9.066
 2726POPC   C1A37635  42.658   7.453   8.765
 2726POPC   D2A37636  42.605   7.589   8.333
 2726POPC   C3A37637  42.427   7.373   7.973
 2726POPC   C4A37638  42.592   7.168   7.596
 2726POPC   C1B37639  42.229   7.728   8.749
 2726POPC   C2B37640  42.170   7.857   8.334
 2726POPC   C3B37641  41.908   7.718   8.043
 2726POPC   C4B37642  41.977   7.419   7.737
 2727POPC   NC337643  14.035  11.103   9.980
 2727POPC   PO437644  14.342  11.438   9.501
 2727POPC   GL137645  14.499  11.349   9.098
 2727POPC   GL237646  14.457  11.013   9.012
 2727POPC   C1A37647  14.672  11.335   8.668
 2727POPC   D2A37648  14.793  11.172   8.290
 2727POPC   C3A37649  14.486  11.303   7.996
 2727POPC   C4A37650  14.635  11.596   7.693
 2727POPC   C1B37651  14.163  11.240   8.711
 2727POPC   C2B37652  13.976  11.421   8.342
 2727POPC   C3B37653  13.978  11.391   7.897
 2727POPC   C4B37654  14.142  11.735   7.673
 2728POPC   NC337655  18.767  25.240   9.689
 2728POPC   PO437656  18.034  25.141   9.526
 2728POPC   GL137657  18.061  24.976   9.118
 2728POPC   GL237658  18.432  25.054   9.086
 2728POPC   C1A37659  18.050  25.092   8.685
 2728POPC   D2A37660  18.234  25.419   8.438
 2728POPC   C3A37661  18.265  25.236   8.042
 2728POPC   C4A37662  18.291  25.410   7.636
 2728POPC   C1B37663  18.559  25.040   8.664
 2728POPC   C2B37664  18.726  25.296   8.323
 2728POPC   C3B37665  18.743  25.410   7.928
 2728POPC   C4B37666  18.631  25.067   7.732
 2729POPC   NC337667  21.540   2.067   9.550
 2729POPC   PO437668  20.937   1.984   9.463
 2729POPC   GL137669  21.252   1.881   9.132
 2729POPC   GL237670  21.630   1.817   9.097
 2729POPC   C1A37671  21.268   1.907   8.680
 2729POPC   D2A37672  21.174   1.731   8.270
 2729POPC   C3A37673  21.124   1.971   7.894
 2729POPC   C4A37674  21.404   2.231   7.656
 2729POPC   C1B37675  21.851   1.583   8.776
 2729POPC   C2B37676  21.660   1.679   8.401
 2729POPC   C3B37677  21.620   1.839   7.966
 2729POPC   C4B37678  21.694   1.761   7.542
 2730POPC   NC337679  23.901  21.821   9.545
 2730POPC   PO437680  23.479  22.348   9.520
 2730POPC   GL137681  23.647  22.241   9.174
 2730POPC   GL237682  23.674  21.923   9.108
 2730POPC   C1A37683  23.807  22.349   8.782
 2730POPC   D2A37684  23.990  22.342   8.388
 2730POPC   C3A37685  23.758  22.381   8.021
 2730POPC   C4A37686  23.822  22.503   7.612
 2730POPC   C1B37687  23.945  21.850   8.779
 2730POPC   C2B37688  23.961  21.806   8.346
 2730POPC   C3B37689  24.053  21.972   7.923
 2730POPC   C4B37690  23.992  22.051   7.468
 2731POPC   NC337691  37.721   5.466   9.684
 2731POPC   PO437692  37.255   5.129   9.436
 2731POPC   GL137693  37.697   5.058   9.182
 2731POPC   GL237694  38.072   4.788   9.148
 2731POPC   C1A37695  37.817   5.322   8.813
 2731POPC   D2A37696  37.850   5.513   8.393
 2731POPC   C3A37697  37.790   5.303   8.006
 2731POPC   C4A37698  37.667   5.342   7.583
 2731POPC   C1B37699  37.932   4.835   8.777
 2731POPC   C2B37700  37.923   4.990   8.401
 2731POPC   C3B37701  38.106   4.904   8.041
 2731POPC   C4B37702  37.879   4.886   7.677
 2732POPC   NC337703  12.048  41.402  10.171
 2732POPC   PO437704  11.904  41.742   9.585
 2732POPC   GL137705  12.050  41.557   9.211
 2732POPC   GL237706  12.334  41.739   9.043
 2732POPC   C1A37707  12.004  41.335   8.831
 2732POPC   D2A37708  12.055  41.452   8.396
 2732POPC   C3A37709  11.874  41.357   8.017
 2732POPC   C4A37710  11.969  41.351   7.572
 2732POPC   C1B37711  12.359  41.812   8.598
 2732POPC   C2B37712  12.069  41.946   8.281
 2732POPC   C3B37713  12.107  41.827   7.836
 2732POPC   C4B37714  12.531  41.936   7.771
 2733POPC   NC337715  43.225   2.304   9.766
 2733POPC   PO437716  42.687   2.097   9.625
 2733POPC   GL137717  42.856   1.945   9.165
 2733POPC   GL237718  43.191   2.108   9.250
 2733POPC   C1A37719  43.171   1.725   8.863
 2733POPC   D2A37720  43.439   1.940   8.545
 2733POPC   C3A37721  43.327   1.932   8.104
 2733POPC   C4A37722  43.444   2.130   7.711
 2733POPC   C1B37723  43.101   2.223   8.822
 2733POPC   C2B37724  42.838   2.361   8.514
 2733POPC   C3B37725  42.862   2.424   8.091
 2733POPC   C4B37726  42.648   2.533   7.724
 2734POPC   NC337727  35.303  17.602   9.682
 2734POPC   PO437728  34.872  17.473   9.162
 2734POPC   GL137729  35.309  17.603   9.159
 2734POPC   GL237730  35.441  17.310   9.232
 2734POPC   C1A37731  35.465  17.683   8.765
 2734POPC   D2A37732  35.213  17.651   8.402
 2734POPC   C3A37733  35.358  17.612   7.998
 2734POPC   C4A37734  35.129  17.376   7.738
 2734POPC   C1B37735  35.445  17.187   8.788
 2734POPC   C2B37736  35.611  17.306   8.389
 2734POPC   C3B37737  35.592  17.164   7.968
 2734POPC   C4B37738  35.447  17.028   7.567
 2735POPC   NC337739   0.941   5.364   9.538
 2735POPC   PO437740   0.344   5.174   9.727
 2735POPC   GL137741   0.402   5.330   9.294
 2735POPC   GL237742   0.517   5.026   9.201
 2735POPC   C1A37743   0.201   5.233   8.856
 2735POPC   D2A37744   0.307   5.086   8.451
 2735POPC   C3A37745   0.070   4.931   8.122
 2735POPC   C4A37746   0.199   4.939   7.705
 2735POPC   C1B37747   0.707   5.176   8.797
 2735POPC   C2B37748   0.790   4.962   8.379
 2735POPC   C3B37749   0.634   4.819   7.963
 2735POPC   C4B37750   0.669   4.847   7.499
 2736POPC   NC337751  36.263  13.581   9.582
 2736POPC   PO437752  35.701  13.271   9.415
 2736POPC   GL137753  35.944  13.576   9.182
 2736POPC   GL237754  36.327  13.545   9.080
 2736POPC   C1A37755  35.976  13.762   8.809
 2736POPC   D2A37756  35.904  13.604   8.450
 2736POPC   C3A37757  35.927  13.959   8.204
 2736POPC   C4A37758  35.987  13.813   7.832
 2736POPC   C1B37759  36.377  13.449   8.632
 2736POPC   C2B37760  36.315  13.502   8.175
 2736POPC   C3B37761  36.338  13.464   7.737
 2736POPC   C4B37762  36.483  13.451   7.297
 2737POPC   NC337763  16.582  10.913   9.557
 2737POPC   PO437764  16.902  11.475   9.498
 2737POPC   GL137765  16.874  11.245   9.139
 2737POPC   GL237766  16.923  10.902   9.215
 2737POPC   C1A37767  16.947  11.230   8.701
 2737POPC   D2A37768  17.099  11.102   8.301
 2737POPC   C3A37769  17.002  11.305   7.913
 2737POPC   C4A37770  16.662  11.476   7.703
 2737POPC   C1B37771  16.635  10.867   8.889
 2737POPC   C2B37772  16.696  10.837   8.462
 2737POPC   C3B37773  16.567  11.007   8.100
 2737POPC   C4B37774  16.723  10.925   7.716
 2738POPC   NC337775   4.530  20.238   9.453
 2738POPC   PO437776   4.523  19.655   9.379
 2738POPC   GL137777   4.252  19.907   9.170
 2738POPC   GL237778   4.020  19.634   9.135
 2738POPC   C1A37779   4.430  20.132   8.781
 2738POPC   D2A37780   4.347  20.034   8.329
 2738POPC   C3A37781   4.665  20.019   7.997
 2738POPC   C4A37782   4.658  20.080   7.569
 2738POPC   C1B37783   4.234  19.671   8.730
 2738POPC   C2B37784   4.512  19.537   8.434
 2738POPC   C3B37785   4.477  19.519   7.999
 2738POPC   C4B37786   4.255  19.793   7.722
 2739POPC   NC337787  14.183  44.849   9.555
 2739POPC   PO437788  13.509  44.587   9.528
 2739POPC   GL137789  13.768  44.574   9.175
 2739POPC   GL237790  13.477  44.638   9.015
 2739POPC   C1A37791  13.883  44.843   8.797
 2739POPC   D2A37792  13.777  44.799   8.380
 2739POPC   C3A37793  14.028  44.918   8.042
 2739POPC   C4A37794  13.741  44.825   7.720
 2739POPC   C1B37795  13.342  44.860   8.688
 2739POPC   C2B37796  13.208  44.738   8.286
 2739POPC   C3B37797  13.255  44.831   7.857
 2739POPC   C4B37798  13.255  44.774   7.361
 2740POPC   NC337799   1.384  26.177   9.524
 2740POPC   PO437800   0.867  26.556   9.383
 2740POPC   GL137801   0.820  26.817   8.983
 2740POPC   GL237802   1.168  26.844   8.910
 2740POPC   C1A37803   0.876  26.977   8.515
 2740POPC   D2A37804   1.229  26.902   8.237
 2740POPC   C3A37805   1.179  26.736   7.843
 2740POPC   C4A37806   0.858  26.602   7.583
 2740POPC   C1B37807   1.340  27.199   8.650
 2740POPC   C2B37808   1.469  27.374   8.234
 2740POPC   C3B37809   1.399  27.205   7.821
 2740POPC   C4B37810   1.525  26.891   7.480
 2741POPC   NC337811  27.996  42.412   9.461
 2741POPC   PO437812  28.526  41.926   9.555
 2741POPC   GL137813  28.375  42.182   9.164
 2741POPC   GL237814  28.052  42.099   9.081
 2741POPC   C1A37815  28.412  42.317   8.701
 2741POPC   D2A37816  28.536  42.442   8.277
 2741POPC   C3A37817  28.331  42.341   7.917
 2741POPC   C4A37818  28.254  42.592   7.591
 2741POPC   C1B37819  27.902  42.242   8.698
 2741POPC   C2B37820  28.055  42.167   8.300
 2741POPC   C3B37821  28.008  41.963   7.889
 2741POPC   C4B37822  28.075  42.158   7.452
 2742POPC   NC337823  17.170  27.869   9.571
 2742POPC   PO437824  17.552  28.495   9.608
 2742POPC   GL137825  17.570  28.339   9.207
 2742POPC   GL237826  17.297  28.131   9.154
 2742POPC   C1A37827  17.409  28.492   8.817
 2742POPC   D2A37828  17.150  28.539   8.454
 2742POPC   C3A37829  17.396  28.552   8.073
 2742POPC   C4A37830  17.624  28.561   7.714
 2742POPC   C1B37831  17.131  28.075   8.757
 2742POPC   C2B37832  17.338  28.057   8.391
 2742POPC   C3B37833  17.224  28.097   8.015
 2742POPC   C4B37834  17.485  28.076   7.687
 2743POPC   NC337835  15.142  15.914   9.576
 2743POPC   PO437836  14.489  15.735   9.582
 2743POPC   GL137837  14.839  15.705   9.203
 2743POPC   GL237838  14.885  16.064   9.116
 2743POPC   C1A37839  15.160  15.775   8.809
 2743POPC   D2A37840  15.317  16.006   8.403
 2743POPC   C3A37841  15.197  15.894   7.957
 2743POPC   C4A37842  15.007  15.731   7.559
 2743POPC   C1B37843  15.050  16.310   8.756
 2743POPC   C2B37844  15.046  16.512   8.328
 2743POPC   C3B37845  15.041  16.403   7.875
 2743POPC   C4B37846  15.145  16.212   7.473
 2744POPC   NC337847   6.972  36.104   9.697
 2744POPC   PO437848   6.337  35.997   9.541
 2744POPC   GL137849   6.590  35.848   9.172
 2744POPC   GL237850   6.942  35.949   9.107
 2744POPC   C1A37851   6.481  35.928   8.747
 2744POPC   D2A37852   6.713  36.157   8.443
 2744POPC   C3A37853   6.565  36.126   8.028
 2744POPC   C4A37854   6.700  36.340   7.648
 2744POPC   C1B37855   6.934  35.721   8.674
 2744POPC   C2B37856   6.757  35.688   8.237
 2744POPC   C3B37857   6.948  35.878   7.822
 2744POPC   C4B37858   6.802  35.918   7.365
 2745POPC   NC337859  35.670  26.985   9.505
 2745POPC   PO437860  36.280  26.734   9.649
 2745POPC   GL137861  36.353  26.652   9.205
 2745POPC   GL237862  36.108  26.928   9.085
 2745POPC   C1A37863  36.267  26.551   8.757
 2745POPC   D2A37864  36.176  26.930   8.496
 2745POPC   C3A37865  36.081  26.956   8.053
 2745POPC   C4A37866  36.218  26.954   7.646
 2745POPC   C1B37867  35.847  27.183   8.781
 2745POPC   C2B37868  35.682  27.035   8.390
 2745POPC   C3B37869  35.454  27.034   8.016
 2745POPC   C4B37870  35.724  27.087   7.708
 2746POPC   NC337871   3.041  36.894   9.473
 2746POPC   PO437872   2.421  37.105   9.687
 2746POPC   GL137873   2.590  37.061   9.256
 2746POPC   GL237874   2.849  37.270   9.179
 2746POPC   C1A37875   2.758  36.852   8.857
 2746POPC   D2A37876   2.720  36.778   8.379
 2746POPC   C3A37877   2.711  37.009   7.989
 2746POPC   C4A37878   2.819  36.768   7.663
 2746POPC   C1B37879   3.111  37.231   8.840
 2746POPC   C2B37880   3.190  36.917   8.555
 2746POPC   C3B37881   3.175  36.895   8.103
 2746POPC   C4B37882   3.162  37.168   7.722
 2747POPC   NC337883  38.216  35.448   9.424
 2747POPC   PO437884  38.818  35.491   9.334
 2747POPC   GL137885  38.530  35.363   9.020
 2747POPC   GL237886  38.273  35.087   9.086
 2747POPC   C1A37887  38.494  35.511   8.610
 2747POPC   D2A37888  38.744  35.739   8.323
 2747POPC   C3A37889  38.645  35.575   7.918
 2747POPC   C4A37890  38.476  35.187   7.729
 2747POPC   C1B37891  38.037  35.346   8.803
 2747POPC   C2B37892  37.995  35.455   8.389
 2747POPC   C3B37893  38.131  35.470   7.969
 2747POPC   C4B37894  37.996  35.306   7.570
 2748POPC   NC337895  36.998  14.220   9.817
 2748POPC   PO437896  36.650  14.672   9.465
 2748POPC   GL137897  36.774  14.298   9.257
 2748POPC   GL237898  37.094  14.278   9.130
 2748POPC   C1A37899  36.694  14.156   8.817
 2748POPC   D2A37900  36.618  14.367   8.409
 2748POPC   C3A37901  36.810  14.296   7.997
 2748POPC   C4A37902  36.657  14.450   7.612
 2748POPC   C1B37903  37.064  14.497   8.711
 2748POPC   C2B37904  37.081  14.639   8.279
 2748POPC   C3B37905  37.100  14.679   7.831
 2748POPC   C4B37906  37.198  14.923   7.453
 2749POPC   NC337907  18.966   5.595   9.561
 2749POPC   PO437908  19.511   5.905   9.715
 2749POPC   GL137909  19.331   5.801   9.230
 2749POPC   GL237910  18.977   5.932   9.131
 2749POPC   C1A37911  19.224   5.780   8.722
 2749POPC   D2A37912  18.986   5.915   8.322
 2749POPC   C3A37913  19.115   5.825   7.871
 2749POPC   C4A37914  18.987   6.059   7.471
 2749POPC   C1B37915  18.680   6.063   8.755
 2749POPC   C2B37916  18.509   6.200   8.318
 2749POPC   C3B37917  18.686   6.105   7.894
 2749POPC   C4B37918  18.640   5.698   7.642
 2750POPC   NC337919  13.440  19.384   9.175
 2750POPC   PO437920  13.290  18.770   9.494
 2750POPC   GL137921  13.475  18.691   9.110
 2750POPC   GL237922  13.749  18.957   9.096
 2750POPC   C1A37923  13.605  18.686   8.679
 2750POPC   D2A37924  13.809  18.928   8.384
 2750POPC   C3A37925  13.784  18.807   7.950
 2750POPC   C4A37926  13.442  18.798   7.622
 2750POPC   C1B37927  13.970  19.234   8.783
 2750POPC   C2B37928  14.030  19.500   8.432
 2750POPC   C3B37929  13.938  19.322   8.079
 2750POPC   C4B37930  13.616  19.263   7.786
 2751POPC   NC337931  29.679  32.394   9.572
 2751POPC   PO437932  30.241  32.536   9.506
 2751POPC   GL137933  30.107  32.180   9.244
 2751POPC   GL237934  29.757  32.098   9.162
 2751POPC   C1A37935  30.098  31.978   8.819
 2751POPC   D2A37936  29.806  31.924   8.478
 2751POPC   C3A37937  30.049  32.097   8.143
 2751POPC   C4A37938  30.195  32.316   7.768
 2751POPC   C1B37939  29.666  32.320   8.790
 2751POPC   C2B37940  29.736  32.463   8.385
 2751POPC   C3B37941  29.602  32.281   8.001
 2751POPC   C4B37942  29.553  32.424   7.613
 2752POPC   NC337943  26.582  18.600   9.457
 2752POPC   PO437944  27.103  18.183   9.657
 2752POPC   GL137945  27.001  18.235   9.216
 2752POPC   GL237946  26.660  18.299   9.059
 2752POPC   C1A37947  27.224  18.345   8.827
 2752POPC   D2A37948  27.089  18.278   8.393
 2752POPC   C3A37949  27.171  18.574   8.040
 2752POPC   C4A37950  27.208  18.390   7.624
 2752POPC   C1B37951  26.342  18.529   8.785
 2752POPC   C2B37952  26.413  18.620   8.331
 2752POPC   C3B37953  26.702  18.371   8.058
 2752POPC   C4B37954  26.697  17.975   7.848
 2753POPC   NC337955  29.484  24.437   9.393
 2753POPC   PO437956  30.121  24.366   9.660
 2753POPC   GL137957  30.156  24.593   9.180
 2753POPC   GL237958  29.843  24.678   9.013
 2753POPC   C1A37959  30.164  24.426   8.711
 2753POPC   D2A37960  29.911  24.450   8.317
 2753POPC   C3A37961  29.993  24.225   7.936
 2753POPC   C4A37962  29.637  24.029   7.815
 2753POPC   C1B37963  29.563  24.661   8.643
 2753POPC   C2B37964  29.475  24.856   8.260
 2753POPC   C3B37965  29.636  24.634   7.905
 2753POPC   C4B37966  29.593  24.547   7.498
 2754POPC   NC337967  26.301  34.109   9.568
 2754POPC   PO437968  25.987  33.568   9.623
 2754POPC   GL137969  26.067  33.698   9.207
 2754POPC   GL237970  25.902  34.045   9.196
 2754POPC   C1A37971  25.933  33.663   8.753
 2754POPC   D2A37972  26.102  33.597   8.319
 2754POPC   C3A37973  25.987  33.721   7.895
 2754POPC   C4A37974  25.769  33.432   7.615
 2754POPC   C1B37975  26.214  34.061   8.884
 2754POPC   C2B37976  26.200  34.118   8.442
 2754POPC   C3B37977  26.337  34.062   8.027
 2754POPC   C4B37978  26.126  34.114   7.611
 2755POPC   NC337979   0.860  42.379   9.369
 2755POPC   PO437980   1.525  42.515   9.632
 2755POPC   GL137981   1.355  42.315   9.164
 2755POPC   GL237982   1.037  42.130   8.978
 2755POPC   C1A37983   1.482  42.133   8.756
 2755POPC   D2A37984   1.242  41.965   8.384
 2755POPC   C3A37985   1.443  42.053   8.003
 2755POPC   C4A37986   1.447  42.273   7.649
 2755POPC   C1B37987   1.077  42.390   8.586
 2755POPC   C2B37988   1.093  42.425   8.110
 2755POPC   C3B37989   1.032  42.550   7.672
 2755POPC   C4B37990   0.747  42.539   7.325
 2756POPC   NC337991  43.080   7.472   9.546
 2756POPC   PO437992  43.359   6.970   9.323
 2756POPC   GL137993  43.233   7.250   9.071
 2756POPC   GL237994  42.912   7.200   9.139
 2756POPC   C1A37995  43.141   7.209   8.635
 2756POPC   D2A37996  43.210   7.136   8.205
 2756POPC   C3A37997  42.938   7.425   7.972
 2756POPC   C4A37998  42.770   7.697   7.649
 2756POPC   C1B37999  42.754   6.933   8.827
 2756POPC   C2B38000  42.682   7.089   8.406
 2756POPC   C3B38001  42.718   6.928   8.019
 2756POPC   C4B38002  43.067   6.990   7.732
 2757POPC   NC338003   5.166   6.827   9.553
 2757POPC   PO438004   4.587   6.872   9.369
 2757POPC   GL138005   4.949   6.665   9.110
 2757POPC   GL238006   5.354   6.571   9.149
 2757POPC   C1A38007   5.138   6.691   8.694
 2757POPC   D2A38008   5.238   6.730   8.258
 2757POPC   C3A38009   4.888   6.631   7.987
 2757POPC   C4A38010   4.853   6.546   7.555
 2757POPC   C1B38011   5.502   6.352   8.757
 2757POPC   C2B38012   5.422   6.250   8.308
 2757POPC   C3B38013   5.332   6.394   7.858
 2757POPC   C4B38014   5.308   6.534   7.367
 2758POPC   NC338015  23.977  20.234   9.427
 2758POPC   PO438016  23.455  19.685   9.488
 2758POPC   GL138017  23.661  19.901   9.164
 2758POPC   GL238018  24.037  19.804   9.138
 2758POPC   C1A38019  23.677  19.790   8.748
 2758POPC   D2A38020  23.734  19.476   8.421
 2758POPC   C3A38021  23.452  19.637   8.121
 2758POPC   C4A38022  23.364  19.877   7.762
 2758POPC   C1B38023  24.161  19.669   8.717
 2758POPC   C2B38024  24.048  19.858   8.314
 2758POPC   C3B38025  23.933  19.671   7.946
 2758POPC   C4B38026  24.255  19.560   7.653
 2759POPC   NC338027  16.012   8.007   9.428
 2759POPC   PO438028  15.528   8.483   9.378
 2759POPC   GL138029  15.799   8.329   9.067
 2759POPC   GL238030  16.155   8.407   9.127
 2759POPC   C1A38031  15.925   8.021   8.751
 2759POPC   D2A38032  16.211   7.976   8.399
 2759POPC   C3A38033  16.038   8.171   8.056
 2759POPC   C4A38034  15.954   8.090   7.648
 2759POPC   C1B38035  16.373   8.375   8.718
 2759POPC   C2B38036  16.338   8.565   8.283
 2759POPC   C3B38037  16.342   8.506   7.807
 2759POPC   C4B38038  16.289   8.307   7.355
 2760POPC   NC338039  26.563   6.013   9.486
 2760POPC   PO438040  27.136   5.695   9.671
 2760POPC   GL138041  26.983   5.796   9.257
 2760POPC   GL238042  27.176   6.044   9.109
 2760POPC   C1A38043  26.804   5.882   8.836
 2760POPC   D2A38044  26.873   5.813   8.441
 2760POPC   C3A38045  26.868   5.923   8.014
 2760POPC   C4A38046  26.767   5.694   7.645
 2760POPC   C1B38047  27.196   6.223   8.722
 2760POPC   C2B38048  27.146   6.282   8.282
 2760POPC   C3B38049  27.241   6.233   7.852
 2760POPC   C4B38050  27.270   5.893   7.672
 2761POPC   NC338051   7.525  31.880   9.266
 2761POPC   PO438052   7.728  32.398   9.474
 2761POPC   GL138053   7.493  32.363   9.041
 2761POPC   GL238054   7.274  32.064   8.888
 2761POPC   C1A38055   7.499  32.385   8.573
 2761POPC   D2A38056   7.542  32.429   8.135
 2761POPC   C3A38057   7.577  32.027   7.969
 2761POPC   C4A38058   7.433  31.914   7.557
 2761POPC   C1B38059   7.023  32.424   8.821
 2761POPC   C2B38060   6.892  32.597   8.463
 2761POPC   C3B38061   6.914  32.351   8.080
 2761POPC   C4B38062   7.234  32.349   7.745
 2762POPC   NC338063  23.441   3.037   9.920
 2762POPC   PO438064  23.818   2.568   9.552
 2762POPC   GL138065  23.811   2.710   9.144
 2762POPC   GL238066  24.052   2.941   9.038
 2762POPC   C1A38067  23.586   2.632   8.776
 2762POPC   D2A38068  23.458   2.442   8.395
 2762POPC   C3A38069  23.773   2.387   8.089
 2762POPC   C4A38070  23.636   2.403   7.710
 2762POPC   C1B38071  24.086   2.719   8.660
 2762POPC   C2B38072  23.899   2.843   8.254
 2762POPC   C3B38073  23.830   2.877   7.755
 2762POPC   C4B38074  23.898   3.058   7.299
 2763POPC   NC338075  31.148   8.534   9.807
 2763POPC   PO438076  31.543   8.093   9.338
 2763POPC   GL138077  31.317   8.064   9.016
 2763POPC   GL238078  31.012   7.979   9.137
 2763POPC   C1A38079  31.403   8.059   8.615
 2763POPC   D2A38080  31.677   7.905   8.352
 2763POPC   C3A38081  31.658   8.174   8.063
 2763POPC   C4A38082  31.636   8.079   7.663
 2763POPC   C1B38083  30.958   7.840   8.721
 2763POPC   C2B38084  31.073   7.842   8.298
 2763POPC   C3B38085  31.141   8.144   7.958
 2763POPC   C4B38086  31.321   8.461   7.770
 2764POPC   NC338087  32.735  42.600   9.434
 2764POPC   PO438088  33.234  42.125   9.582
 2764POPC   GL138089  33.131  42.279   9.209
 2764POPC   GL238090  32.901  42.015   9.148
 2764POPC   C1A38091  32.982  42.397   8.800
 2764POPC   D2A38092  33.115  42.504   8.404
 2764POPC   C3A38093  32.904  42.415   8.005
 2764POPC   C4A38094  33.076  42.279   7.627
 2764POPC   C1B38095  32.687  41.958   8.750
 2764POPC   C2B38096  32.670  42.068   8.301
 2764POPC   C3B38097  32.726  41.948   7.855
 2764POPC   C4B38098  32.792  41.918   7.385
 2765POPC   NC338099  19.246  39.950   9.441
 2765POPC   PO438100  18.790  40.478   9.274
 2765POPC   GL138101  18.967  40.114   9.040
 2765POPC   GL238102  18.813  39.815   9.024
 2765POPC   C1A38103  19.015  39.974   8.607
 2765POPC   D2A38104  18.743  39.833   8.292
 2765POPC   C3A38105  18.838  39.931   7.888
 2765POPC   C4A38106  19.222  40.058   7.789
 2765POPC   C1B38107  18.890  39.498   8.669
 2765POPC   C2B38108  19.244  39.580   8.378
 2765POPC   C3B38109  19.268  39.549   7.944
 2765POPC   C4B38110  19.047  39.554   7.588
 2766POPC   NC338111  41.691  28.316   9.686
 2766POPC   PO438112  41.443  27.992   9.171
 2766POPC   GL138113  41.702  28.256   8.986
 2766POPC   GL238114  41.726  28.526   9.212
 2766POPC   C1A38115  41.732  28.233   8.537
 2766POPC   D2A38116  41.806  27.875   8.338
 2766POPC   C3A38117  41.519  27.986   8.011
 2766POPC   C4A38118  41.383  28.438   8.079
 2766POPC   C1B38119  41.767  28.748   8.817
 2766POPC   C2B38120  41.633  28.740   8.405
 2766POPC   C3B38121  41.808  28.739   7.998
 2766POPC   C4B38122  41.643  28.534   7.675
 2767POPC   NC338123  36.626  27.046   9.648
 2767POPC   PO438124  37.195  26.671   9.454
 2767POPC   GL138125  36.909  26.690   9.139
 2767POPC   GL238126  36.813  27.040   9.178
 2767POPC   C1A38127  37.075  26.790   8.731
 2767POPC   D2A38128  37.361  26.972   8.433
 2767POPC   C3A38129  37.135  26.868   8.046
 2767POPC   C4A38130  36.949  27.121   7.720
 2767POPC   C1B38131  36.589  26.942   8.806
 2767POPC   C2B38132  36.619  26.711   8.398
 2767POPC   C3B38133  36.596  26.824   7.983
 2767POPC   C4B38134  36.835  26.610   7.683
 2768POPC   NC338135  36.930  36.347   9.454
 2768POPC   PO438136  36.586  35.721   9.333
 2768POPC   GL138137  36.847  36.017   9.096
 2768POPC   GL238138  37.128  35.900   8.917
 2768POPC   C1A38139  36.892  36.320   8.760
 2768POPC   D2A38140  36.784  36.239   8.337
 2768POPC   C3A38141  37.020  36.290   8.010
 2768POPC   C4A38142  36.973  36.420   7.646
 2768POPC   C1B38143  36.710  35.838   8.652
 2768POPC   C2B38144  36.417  35.883   8.290
 2768POPC   C3B38145  36.596  36.008   7.875
 2768POPC   C4B38146  36.992  35.862   7.729
 2769POPC   NC338147  26.430  29.699  10.001
 2769POPC   PO438148  25.943  29.930   9.610
 2769POPC   GL138149  26.133  30.002   9.241
 2769POPC   GL238150  25.787  30.130   9.165
 2769POPC   C1A38151  26.155  30.080   8.806
 2769POPC   D2A38152  25.844  30.101   8.505
 2769POPC   C3A38153  26.044  30.028   8.140
 2769POPC   C4A38154  26.199  29.824   7.814
 2769POPC   C1B38155  25.762  29.735   8.890
 2769POPC   C2B38156  25.639  29.633   8.456
 2769POPC   C3B38157  25.794  29.575   8.055
 2769POPC   C4B38158  25.724  29.661   7.620
 2770POPC   NC338159   0.468  27.752   9.591
 2770POPC   PO438160   0.240  27.163   9.493
 2770POPC   GL138161   0.067  27.531   9.211
 2770POPC   GL238162   0.376  27.659   9.083
 2770POPC   C1A38163  44.995  27.769   8.785
 2770POPC   D2A38164   0.111  27.517   8.415
 2770POPC   C3A38165   0.387  27.617   8.061
 2770POPC   C4A38166   0.252  27.585   7.652
 2770POPC   C1B38167   0.516  27.755   8.653
 2770POPC   C2B38168   0.812  27.531   8.370
 2770POPC   C3B38169   0.907  27.251   8.029
 2770POPC   C4B38170   0.597  27.170   7.733
 2771POPC   NC338171  27.427  25.901   9.541
 2771POPC   PO438172  27.618  26.516   9.737
 2771POPC   GL138173  27.673  26.285   9.307
 2771POPC   GL238174  27.880  26.389   9.090
 2771POPC   C1A38175  27.642  25.944   8.923
 2771POPC   D2A38176  27.293  26.024   8.591
 2771POPC   C3A38177  27.346  25.984   8.103
 2771POPC   C4A38178  27.320  25.941   7.640
 2771POPC   C1B38179  27.617  26.401   8.734
 2771POPC   C2B38180  27.710  26.244   8.300
 2771POPC   C3B38181  27.661  26.313   7.819
 2771POPC   C4B38182  27.967  26.323   7.434
 2772POPC   NC338183  19.547  40.769   9.406
 2772POPC   PO438184  20.160  41.092   9.290
 2772POPC   GL138185  19.953  40.834   9.018
 2772POPC   GL238186  19.857  40.525   9.089
 2772POPC   C1A38187  19.855  40.916   8.613
 2772POPC   D2A38188  19.616  40.919   8.229
 2772POPC   C3A38189  19.863  40.869   7.896
 2772POPC   C4A38190  19.980  40.999   7.470
 2772POPC   C1B38191  19.628  40.460   8.706
 2772POPC   C2B38192  19.467  40.399   8.293
 2772POPC   C3B38193  19.442  40.552   7.869
 2772POPC   C4B38194  19.495  40.842   7.529
 2773POPC   NC338195  41.105   2.028   9.710
 2773POPC   PO438196  40.609   2.105   9.280
 2773POPC   GL138197  40.777   2.084   8.927
 2773POPC   GL238198  40.645   1.754   8.863
 2773POPC   C1A38199  40.794   2.305   8.563
 2773POPC   D2A38200  40.839   2.087   8.213
 2773POPC   C3A38201  40.555   2.190   7.916
 2773POPC   C4A38202  40.444   1.822   7.750
 2773POPC   C1B38203  41.015   1.683   8.634
 2773POPC   C2B38204  41.219   1.633   8.291
 2773POPC   C3B38205  41.134   1.776   7.919
 2773POPC   C4B38206  41.181   1.557   7.549
 2774POPC   NC338207  43.311  37.529   9.749
 2774POPC   PO438208  42.703  37.729   9.717
 2774POPC   GL138209  42.949  37.739   9.303
 2774POPC   GL238210  43.321  37.695   9.258
 2774POPC   C1A38211  43.032  37.741   8.850
 2774POPC   D2A38212  43.077  37.914   8.409
 2774POPC   C3A38213  42.839  37.763   8.074
 2774POPC   C4A38214  42.995  37.593   7.671
 2774POPC   C1B38215  43.530  37.599   8.837
 2774POPC   C2B38216  43.490  37.446   8.390
 2774POPC   C3B38217  43.406  37.381   7.942
 2774POPC   C4B38218  43.534  37.578   7.567
 2775POPC   NC338219  16.738  24.817   9.651
 2775POPC   PO438220  16.499  25.409   9.543
 2775POPC   GL138221  16.725  25.360   9.168
 2775POPC   GL238222  16.819  25.007   9.184
 2775POPC   C1A38223  16.624  25.470   8.727
 2775POPC   D2A38224  16.581  25.743   8.388
 2775POPC   C3A38225  16.668  25.506   8.023
 2775POPC   C4A38226  16.798  25.451   7.623
 2775POPC   C1B38227  16.474  25.013   8.870
 2775POPC   C2B38228  16.543  24.895   8.427
 2775POPC   C3B38229  16.454  24.785   8.015
 2775POPC   C4B38230  16.552  25.008   7.666
 2776POPC   NC338231  38.112   5.163   9.444
 2776POPC   PO438232  38.571   4.653   9.624
 2776POPC   GL138233  38.575   4.942   9.251
 2776POPC   GL238234  38.543   5.329   9.228
 2776POPC   C1A38235  38.437   4.989   8.823
 2776POPC   D2A38236  38.442   4.815   8.419
 2776POPC   C3A38237  38.633   4.885   8.014
 2776POPC   C4A38238  38.397   4.863   7.623
 2776POPC   C1B38239  38.295   5.480   8.843
 2776POPC   C2B38240  38.321   5.317   8.447
 2776POPC   C3B38241  38.406   5.351   8.048
 2776POPC   C4B38242  38.178   5.297   7.693
 2777POPC   NC338243  17.947   4.566   9.507
 2777POPC   PO438244  17.442   4.159   9.482
 2777POPC   GL138245  17.304   4.266   9.110
 2777POPC   GL238246  17.316   4.646   9.167
 2777POPC   C1A38247  17.415   4.045   8.725
 2777POPC   D2A38248  17.246   3.946   8.294
 2777POPC   C3A38249  17.518   4.056   7.930
 2777POPC   C4A38250  17.436   4.312   7.543
 2777POPC   C1B38251  17.623   4.526   8.822
 2777POPC   C2B38252  17.577   4.387   8.387
 2777POPC   C3B38253  17.542   4.574   7.997
 2777POPC   C4B38254  17.820   4.649   7.642
 2778POPC   NC338255  15.807  41.356   9.652
 2778POPC   PO438256  16.180  41.867   9.475
 2778POPC   GL138257  15.987  41.574   9.188
 2778POPC   GL238258  16.173  41.254   9.266
 2778POPC   C1A38259  15.684  41.618   8.823
 2778POPC   D2A38260  15.542  41.817   8.410
 2778POPC   C3A38261  15.682  41.562   8.071
 2778POPC   C4A38262  15.952  41.572   7.686
 2778POPC   C1B38263  15.992  41.152   8.869
 2778POPC   C2B38264  15.921  41.295   8.468
 2778POPC   C3B38265  16.159  41.394   8.118
 2778POPC   C4B38266  16.375  41.297   7.793
 2779POPC   NC338267  20.929   0.433   9.486
 2779POPC   PO438268  20.295   0.462   9.392
 2779POPC   GL138269  20.590   0.515   9.070
 2779POPC   GL238270  20.800   0.201   9.058
 2779POPC   C1A38271  20.498   0.342   8.664
 2779POPC   D2A38272  20.172   0.235   8.350
 2779POPC   C3A38273  20.279   0.528   8.026
 2779POPC   C4A38274  20.512   0.413   7.672
 2779POPC   C1B38275  21.061   0.346   8.740
 2779POPC   C2B38276  20.975   0.388   8.299
 2779POPC   C3B38277  20.821   0.656   7.983
 2779POPC   C4B38278  20.948   0.702   7.548
 2780POPC   NC338279  31.868   7.308   9.426
 2780POPC   PO438280  32.245   7.832   9.473
 2780POPC   GL138281  32.530   7.567   9.214
 2780POPC   GL238282  32.337   7.252   9.170
 2780POPC   C1A38283  32.556   7.506   8.761
 2780POPC   D2A38284  32.402   7.246   8.390
 2780POPC   C3A38285  32.329   7.532   8.027
 2780POPC   C4A38286  31.918   7.727   7.900
 2780POPC   C1B38287  32.073   7.280   8.792
 2780POPC   C2B38288  31.914   7.434   8.386
 2780POPC   C3B38289  31.917   7.230   7.993
 2780POPC   C4B38290  32.227   7.105   7.700
 2781POPC   NC338291   4.671  43.667   9.378
 2781POPC   PO438292   5.345  43.801   9.685
 2781POPC   GL138293   5.226  43.592   9.301
 2781POPC   GL238294   5.104  43.895   9.205
 2781POPC   C1A38295   5.077  43.550   8.841
 2781POPC   D2A38296   5.295  43.616   8.426
 2781POPC   C3A38297   5.080  43.685   8.043
 2781POPC   C4A38298   5.053  43.761   7.578
 2781POPC   C1B38299   5.225  44.034   8.777
 2781POPC   C2B38300   5.303  44.127   8.315
 2781POPC   C3B38301   5.389  44.096   7.854
 2781POPC   C4B38302   5.166  44.256   7.476
 2782POPC   NC338303  11.457  28.130   9.492
 2782POPC   PO438304  11.201  28.864   9.587
 2782POPC   GL138305  11.330  28.675   9.167
 2782POPC   GL238306  11.234  28.299   9.065
 2782POPC   C1A38307  11.498  28.576   8.746
 2782POPC   D2A38308  11.268  28.364   8.438
 2782POPC   C3A38309  11.418  28.513   8.072
 2782POPC   C4A38310  11.294  28.560   7.684
 2782POPC   C1B38311  11.545  28.056   8.757
 2782POPC   C2B38312  11.478  27.898   8.280
 2782POPC   C3B38313  11.507  28.067   7.808
 2782POPC   C4B38314  11.644  28.110   7.347
 2783POPC   NC338315  13.357  13.629   5.368
 2783POPC   PO438316  13.770  14.071   5.365
 2783POPC   GL138317  13.664  13.944   5.823
 2783POPC   GL238318  13.520  13.604   5.851
 2783POPC   C1A38319  13.722  13.756   6.285
 2783POPC   D2A38320  13.837  13.528   6.705
 2783POPC   C3A38321  13.725  13.725   7.135
 2783POPC   C4A38322  13.727  14.023   7.510
 2783POPC   C1B38323  13.509  13.240   6.131
 2783POPC   C2B38324  13.453  13.071   6.536
 2783POPC   C3B38325  13.539  13.159   6.919
 2783POPC   C4B38326  13.471  13.307   7.284
 2784POPC   NC338327  14.078  10.323   5.378
 2784POPC   PO438328  14.546   9.771   5.394
 2784POPC   GL138329  14.317   9.824   5.806
 2784POPC   GL238330  14.244  10.162   5.834
 2784POPC   C1A38331  14.027   9.918   6.206
 2784POPC   D2A38332  13.921   9.978   6.636
 2784POPC   C3A38333  13.998   9.578   6.833
 2784POPC   C4A38334  14.127   9.459   7.227
 2784POPC   C1B38335  14.511  10.074   6.216
 2784POPC   C2B38336  14.407   9.818   6.590
 2784POPC   C3B38337  14.418   9.942   7.039
 2784POPC   C4B38338  14.681  10.093   7.395
 2785POPC   NC338339   9.228  25.483   5.347
 2785POPC   PO438340   8.768  25.129   5.674
 2785POPC   GL138341   9.127  25.302   5.832
 2785POPC   GL238342   9.429  25.163   5.729
 2785POPC   C1A38343   9.201  25.533   6.202
 2785POPC   D2A38344   9.223  25.357   6.622
 2785POPC   C3A38345   8.792  25.382   6.817
 2785POPC   C4A38346   8.603  25.340   7.221
 2785POPC   C1B38347   9.406  25.048   6.211
 2785POPC   C2B38348   9.418  24.740   6.565
 2785POPC   C3B38349   9.236  24.676   6.990
 2785POPC   C4B38350   8.974  25.003   7.162
 2786POPC   NC338351  27.144   2.039   5.562
 2786POPC   PO438352  26.520   1.807   5.323
 2786POPC   GL138353  26.532   1.851   5.789
 2786POPC   GL238354  26.642   2.198   5.868
 2786POPC   C1A38355  26.679   1.835   6.256
 2786POPC   D2A38356  27.010   1.792   6.610
 2786POPC   C3A38357  26.916   1.628   7.048
 2786POPC   C4A38358  26.550   1.704   7.295
 2786POPC   C1B38359  26.951   2.298   6.213
 2786POPC   C2B38360  26.861   2.287   6.655
 2786POPC   C3B38361  26.812   2.190   7.113
 2786POPC   C4B38362  26.985   2.466   7.455
 2787POPC   NC338363   3.256   9.795   5.198
 2787POPC   PO438364   2.679  10.030   5.400
 2787POPC   GL138365   2.967   9.920   5.706
 2787POPC   GL238366   2.894   9.605   5.813
 2787POPC   C1A38367   3.077   9.943   6.159
 2787POPC   D2A38368   2.835  10.089   6.530
 2787POPC   C3A38369   2.732   9.949   6.948
 2787POPC   C4A38370   2.886   9.916   7.382
 2787POPC   C1B38371   2.946   9.434   6.245
 2787POPC   C2B38372   2.811   9.497   6.702
 2787POPC   C3B38373   2.753   9.474   7.167
 2787POPC   C4B38374   2.835   9.482   7.639
 2788POPC   NC338375  31.301  21.112   5.487
 2788POPC   PO438376  31.696  21.605   5.439
 2788POPC   GL138377  31.723  21.259   5.789
 2788POPC   GL238378  31.435  21.431   5.941
 2788POPC   C1A38379  31.607  21.032   6.202
 2788POPC   D2A38380  31.397  21.343   6.487
 2788POPC   C3A38381  31.462  21.439   6.931
 2788POPC   C4A38382  31.244  21.261   7.287
 2788POPC   C1B38383  31.810  21.514   6.249
 2788POPC   C2B38384  31.830  21.686   6.663
 2788POPC   C3B38385  31.824  21.793   7.099
 2788POPC   C4B38386  31.607  21.596   7.434
 2789POPC   NC338387  22.254  20.368   5.288
 2789POPC   PO438388  22.094  21.051   5.514
 2789POPC   GL138389  22.062  20.724   5.764
 2789POPC   GL238390  21.783  20.536   5.628
 2789POPC   C1A38391  22.291  20.680   6.159
 2789POPC   D2A38392  22.505  20.658   6.539
 2789POPC   C3A38393  22.313  20.748   6.930
 2789POPC   C4A38394  22.274  20.496   7.293
 2789POPC   C1B38395  21.655  20.664   6.072
 2789POPC   C2B38396  21.840  20.789   6.475
 2789POPC   C3B38397  21.840  20.599   6.882
 2789POPC   C4B38398  21.827  20.745   7.265
 2790POPC   NC338399  12.395   9.466   5.415
 2790POPC   PO438400  12.083  10.135   5.328
 2790POPC   GL138401  12.217   9.880   5.704
 2790POPC   GL238402  12.030   9.609   5.824
 2790POPC   C1A38403  12.348   9.820   6.162
 2790POPC   D2A38404  12.184   9.571   6.520
 2790POPC   C3A38405  12.167   9.759   6.913
 2790POPC   C4A38406  12.401  10.081   7.150
 2790POPC   C1B38407  11.841   9.360   6.144
 2790POPC   C2B38408  11.697   9.419   6.548
 2790POPC   C3B38409  11.852   9.335   6.907
 2790POPC   C4B38410  11.932   9.503   7.293
 2791POPC   NC338411  39.182   2.941   5.352
 2791POPC   PO438412  39.096   2.324   5.412
 2791POPC   GL138413  39.181   2.629   5.769
 2791POPC   GL238414  39.537   2.686   5.772
 2791POPC   C1A38415  39.213   2.751   6.223
 2791POPC   D2A38416  39.165   2.975   6.620
 2791POPC   C3A38417  39.235   2.806   7.019
 2791POPC   C4A38418  38.960   2.665   7.334
 2791POPC   C1B38419  39.666   3.028   6.054
 2791POPC   C2B38420  39.671   3.053   6.508
 2791POPC   C3B38421  39.621   3.173   6.957
 2791POPC   C4B38422  39.602   2.949   7.332
 2792POPC   NC338423  33.447  27.480   5.510
 2792POPC   PO438424  32.931  27.844   5.468
 2792POPC   GL138425  33.107  27.724   5.824
 2792POPC   GL238426  33.032  27.399   5.779
 2792POPC   C1A38427  32.954  27.783   6.252
 2792POPC   D2A38428  32.900  27.739   6.701
 2792POPC   C3A38429  33.092  27.924   7.072
 2792POPC   C4A38430  33.100  27.909   7.532
 2792POPC   C1B38431  33.097  27.283   6.149
 2792POPC   C2B38432  33.240  27.331   6.537
 2792POPC   C3B38433  33.121  27.326   6.937
 2792POPC   C4B38434  33.300  27.294   7.324
 2793POPC   NC338435  23.501  25.954   5.559
 2793POPC   PO438436  24.044  25.782   5.182
 2793POPC   GL138437  23.952  25.847   5.698
 2793POPC   GL238438  23.833  26.289   5.737
 2793POPC   C1A38439  23.878  25.998   6.138
 2793POPC   D2A38440  23.550  26.141   6.458
 2793POPC   C3A38441  23.708  26.012   6.862
 2793POPC   C4A38442  23.623  26.067   7.275
 2793POPC   C1B38443  23.964  26.496   6.141
 2793POPC   C2B38444  24.019  26.305   6.566
 2793POPC   C3B38445  24.065  26.338   7.020
 2793POPC   C4B38446  23.959  26.431   7.464
 2794POPC   NC338447  14.832  14.195   5.443
 2794POPC   PO438448  15.172  14.723   5.489
 2794POPC   GL138449  15.158  14.586   5.923
 2794POPC   GL238450  15.530  14.608   5.893
 2794POPC   C1A38451  15.000  14.297   6.300
 2794POPC   D2A38452  14.914  14.057   6.709
 2794POPC   C3A38453  14.900  14.367   7.011
 2794POPC   C4A38454  14.985  14.498   7.427
 2794POPC   C1B38455  15.498  14.425   6.316
 2794POPC   C2B38456  15.365  14.306   6.746
 2794POPC   C3B38457  15.441  14.475   7.154
 2794POPC   C4B38458  15.601  14.256   7.520
 2795POPC   NC338459   2.225  42.532   5.274
 2795POPC   PO438460   1.689  42.139   5.383
 2795POPC   GL138461   1.910  42.394   5.713
 2795POPC   GL238462   1.693  42.643   5.866
 2795POPC   C1A38463   2.086  42.326   6.153
 2795POPC   D2A38464   2.156  42.422   6.611
 2795POPC   C3A38465   1.897  42.158   6.874
 2795POPC   C4A38466   1.621  42.257   7.176
 2795POPC   C1B38467   1.707  42.646   6.338
 2795POPC   C2B38468   1.593  42.622   6.771
 2795POPC   C3B38469   1.813  42.785   7.082
 2795POPC   C4B38470   2.117  42.492   7.211
 2796POPC   NC338471   3.985  40.302   5.375
 2796POPC   PO438472   3.541  39.772   5.338
 2796POPC   GL138473   3.566  39.998   5.741
 2796POPC   GL238474   3.707  40.325   5.827
 2796POPC   C1A38475   3.570  39.936   6.191
 2796POPC   D2A38476   3.512  40.119   6.621
 2796POPC   C3A38477   3.486  39.848   6.998
 2796POPC   C4A38478   3.451  39.849   7.444
 2796POPC   C1B38479   3.857  40.355   6.264
 2796POPC   C2B38480   3.991  40.210   6.691
 2796POPC   C3B38481   3.760  40.279   7.092
 2796POPC   C4B38482   3.641  40.307   7.535
 2797POPC   NC338483  10.241   3.539   5.489
 2797POPC   PO438484  10.763   3.865   5.289
 2797POPC   GL138485  10.730   3.614   5.690
 2797POPC   GL238486  10.437   3.607   5.941
 2797POPC   C1A38487  10.896   3.641   6.145
 2797POPC   D2A38488  10.597   3.706   6.528
 2797POPC   C3A38489  10.723   3.659   6.995
 2797POPC   C4A38490  10.664   3.561   7.469
 2797POPC   C1B38491  10.154   3.929   6.127
 2797POPC   C2B38492  10.066   4.101   6.542
 2797POPC   C3B38493  10.172   3.946   6.964
 2797POPC   C4B38494  10.314   3.920   7.414
 2798POPC   NC338495   8.231   6.787   5.130
 2798POPC   PO438496   7.906   6.270   5.472
 2798POPC   GL138497   7.979   6.583   5.776
 2798POPC   GL238498   8.302   6.804   5.719
 2798POPC   C1A38499   7.951   6.481   6.195
 2798POPC   D2A38500   8.201   6.336   6.501
 2798POPC   C3A38501   7.996   6.390   6.861
 2798POPC   C4A38502   8.099   6.674   7.178
 2798POPC   C1B38503   8.569   7.025   6.048
 2798POPC   C2B38504   8.523   6.939   6.504
 2798POPC   C3B38505   8.414   7.014   6.951
 2798POPC   C4B38506   8.411   7.000   7.419
 2799POPC   NC338507  27.973  44.317   5.444
 2799POPC   PO438508  28.586  44.509   5.288
 2799POPC   GL138509  28.359  44.543   5.703
 2799POPC   GL238510  28.555  44.424   5.900
 2799POPC   C1A38511  28.271  44.730   6.164
 2799POPC   D2A38512  28.215  44.938   6.583
 2799POPC   C3A38513  28.397  44.739   6.982
 2799POPC   C4A38514  28.317  44.721   7.434
 2799POPC   C1B38515  28.597  44.272   6.294
 2799POPC   C2B38516  28.692  44.414   6.687
 2799POPC   C3B38517  28.840  44.387   7.104
 2799POPC   C4B38518  28.794  44.490   7.562
 2800POPC   NC338519   4.114  33.995   5.251
 2800POPC   PO438520   4.643  33.757   5.263
 2800POPC   GL138521   4.691  33.889   5.753
 2800POPC   GL238522   4.669  34.235   5.915
 2800POPC   C1A38523   4.764  33.829   6.217
 2800POPC   D2A38524   4.567  33.894   6.631
 2800POPC   C3A38525   4.573  33.968   7.081
 2800POPC   C4A38526   4.367  33.804   7.448
 2800POPC   C1B38527   4.389  34.254   6.291
 2800POPC   C2B38528   4.347  34.339   6.739
 2800POPC   C3B38529   4.179  34.317   7.117
 2800POPC   C4B38530   3.994  34.573   7.395
 2801POPC   NC338531  44.504  17.690   5.488
 2801POPC   PO438532  44.875  17.108   5.292
 2801POPC   GL138533  44.845  17.352   5.705
 2801POPC   GL238534  44.534  17.296   5.795
 2801POPC   C1A38535  44.729  17.623   6.126
 2801POPC   D2A38536  44.428  17.649   6.501
 2801POPC   C3A38537  44.576  17.561   6.890
 2801POPC   C4A38538  44.430  17.636   7.289
 2801POPC   C1B38539  44.358  17.270   6.183
 2801POPC   C2B38540  44.478  17.096   6.581
 2801POPC   C3B38541  44.366  17.109   7.005
 2801POPC   C4B38542  44.568  17.159   7.417
 2802POPC   NC338543  26.243  14.986   5.173
 2802POPC   PO438544  25.963  15.550   5.374
 2802POPC   GL138545  25.984  15.166   5.700
 2802POPC   GL238546  26.212  14.840   5.684
 2802POPC   C1A38547  25.948  15.049   6.161
 2802POPC   D2A38548  25.860  14.916   6.594
 2802POPC   C3A38549  26.033  15.102   6.974
 2802POPC   C4A38550  25.891  15.139   7.417
 2802POPC   C1B38551  26.410  14.881   6.106
 2802POPC   C2B38552  26.393  15.036   6.544
 2802POPC   C3B38553  26.463  14.833   6.952
 2802POPC   C4B38554  26.224  14.749   7.314
 2803POPC   NC338555  11.695   8.182   5.338
 2803POPC   PO438556  12.352   8.324   5.302
 2803POPC   GL138557  12.118   8.224   5.664
 2803POPC   GL238558  12.039   7.867   5.625
 2803POPC   C1A38559  12.082   8.386   6.083
 2803POPC   D2A38560  11.757   8.412   6.395
 2803POPC   C3A38561  11.904   8.378   6.828
 2803POPC   C4A38562  12.050   8.518   7.260
 2803POPC   C1B38563  11.812   7.939   5.999
 2803POPC   C2B38564  11.881   7.848   6.410
 2803POPC   C3B38565  11.900   7.831   6.852
 2803POPC   C4B38566  11.847   8.058   7.258
 2804POPC   NC338567  42.501  37.069   5.307
 2804POPC   PO438568  42.087  36.570   5.233
 2804POPC   GL138569  42.162  36.822   5.593
 2804POPC   GL238570  41.886  36.973   5.691
 2804POPC   C1A38571  42.419  36.890   5.955
 2804POPC   D2A38572  42.355  36.836   6.369
 2804POPC   C3A38573  42.457  37.040   6.728
 2804POPC   C4A38574  42.434  36.964   7.137
 2804POPC   C1B38575  41.969  37.156   6.085
 2804POPC   C2B38576  42.039  37.287   6.501
 2804POPC   C3B38577  41.939  37.173   6.907
 2804POPC   C4B38578  42.070  37.246   7.299
 2805POPC   NC338579  37.566  14.565   5.355
 2805POPC   PO438580  37.971  14.180   5.515
 2805POPC   GL138581  37.584  14.309   5.815
 2805POPC   GL238582  37.431  14.657   5.850
 2805POPC   C1A38583  37.412  14.362   6.271
 2805POPC   D2A38584  37.498  14.558   6.696
 2805POPC   C3A38585  37.687  14.356   7.079
 2805POPC   C4A38586  37.696  13.983   7.379
 2805POPC   C1B38587  37.154  14.813   6.212
 2805POPC   C2B38588  37.023  14.734   6.655
 2805POPC   C3B38589  37.128  14.573   7.084
 2805POPC   C4B38590  37.348  14.403   7.462
 2806POPC   NC338591   0.827   0.002   5.408
 2806POPC   PO438592   1.046  44.321   5.377
 2806POPC   GL138593   0.999  44.611   5.722
 2806POPC   GL238594   0.826  44.429   5.967
 2806POPC   C1A38595   1.198  44.832   6.076
 2806POPC   D2A38596   1.145  44.911   6.516
 2806POPC   C3A38597   1.275  44.651   6.842
 2806POPC   C4A38598   1.249  44.652   7.308
 2806POPC   C1B38599   1.047  44.415   6.356
 2806POPC   C2B38600   0.979  44.266   6.772
 2806POPC   C3B38601   1.103  44.165   7.203
 2806POPC   C4B38602   0.922  44.351   7.588
 2807POPC   NC338603  43.905  10.708   5.363
 2807POPC   PO438604  44.428  10.697   5.699
 2807POPC   GL138605  44.041  10.554   5.880
 2807POPC   GL238606  43.738  10.764   5.869
 2807POPC   C1A38607  44.018  10.563   6.322
 2807POPC   D2A38608  43.911  10.314   6.673
 2807POPC   C3A38609  43.893  10.496   7.062
 2807POPC   C4A38610  44.106  10.307   7.359
 2807POPC   C1B38611  43.521  10.761   6.243
 2807POPC   C2B38612  43.673  10.759   6.658
 2807POPC   C3B38613  43.535  10.909   7.032
 2807POPC   C4B38614  43.571  10.952   7.473
 2808POPC   NC338615  20.391  23.342   5.592
 2808POPC   PO438616  20.746  22.788   5.469
 2808POPC   GL138617  20.560  22.896   5.836
 2808POPC   GL238618  20.767  23.169   5.870
 2808POPC   C1A38619  20.417  22.865   6.266
 2808POPC   D2A38620  20.235  22.754   6.666
 2808POPC   C3A38621  20.525  22.828   6.977
 2808POPC   C4A38622  20.516  22.916   7.377
 2808POPC   C1B38623  21.004  23.329   6.149
 2808POPC   C2B38624  20.970  23.403   6.550
 2808POPC   C3B38625  20.925  23.161   6.895
 2808POPC   C4B38626  20.994  22.967   7.252
 2809POPC   NC338627  28.026   1.807   5.384
 2809POPC   PO438628  27.421   1.783   5.230
 2809POPC   GL138629  27.629   1.901   5.700
 2809POPC   GL238630  27.770   2.249   5.724
 2809POPC   C1A38631  27.639   1.811   6.186
 2809POPC   D2A38632  27.519   1.701   6.638
 2809POPC   C3A38633  27.840   1.710   6.955
 2809POPC   C4A38634  28.132   1.557   7.244
 2809POPC   C1B38635  27.489   2.305   6.104
 2809POPC   C2B38636  27.386   2.182   6.531
 2809POPC   C3B38637  27.506   2.124   6.965
 2809POPC   C4B38638  27.453   2.230   7.393
 2810POPC   NC338639  29.874  22.511   5.447
 2810POPC   PO438640  29.705  21.822   5.251
 2810POPC   GL138641  29.873  22.020   5.674
 2810POPC   GL238642  29.511  22.053   5.701
 2810POPC   C1A38643  30.068  22.211   6.115
 2810POPC   D2A38644  30.218  22.095   6.546
 2810POPC   C3A38645  30.061  22.273   6.922
 2810POPC   C4A38646  30.090  22.464   7.327
 2810POPC   C1B38647  29.583  22.050   6.131
 2810POPC   C2B38648  29.702  22.274   6.506
 2810POPC   C3B38649  29.552  22.155   6.915
 2810POPC   C4B38650  29.646  22.253   7.322
 2811POPC   NC338651  17.936  44.427   5.396
 2811POPC   PO438652  18.610  44.693   5.392
 2811POPC   GL138653  18.303  44.620   5.749
 2811POPC   GL238654  18.269  44.297   5.761
 2811POPC   C1A38655  18.149  44.600   6.172
 2811POPC   D2A38656  18.378  44.529   6.554
 2811POPC   C3A38657  18.154  44.687   6.869
 2811POPC   C4A38658  18.252  44.640   7.317
 2811POPC   C1B38659  18.203  44.097   6.166
 2811POPC   C2B38660  18.020  44.181   6.580
 2811POPC   C3B38661  18.239  44.168   6.976
 2811POPC   C4B38662  18.614  44.416   7.025
 2812POPC   NC338663  37.307   8.312   5.413
 2812POPC   PO438664  36.848   7.821   5.344
 2812POPC   GL138665  36.914   7.912   5.762
 2812POPC   GL238666  37.232   7.956   5.775
 2812POPC   C1A38667  36.854   8.086   6.168
 2812POPC   D2A38668  36.698   8.217   6.563
 2812POPC   C3A38669  36.928   8.078   6.912
 2812POPC   C4A38670  36.779   8.322   7.236
 2812POPC   C1B38671  37.352   8.219   6.105
 2812POPC   C2B38672  37.213   8.334   6.504
 2812POPC   C3B38673  37.415   8.308   6.879
 2812POPC   C4B38674  37.269   8.264   7.278
 2813POPC   NC338675  43.063  33.589   5.235
 2813POPC   PO438676  42.872  32.955   5.328
 2813POPC   GL138677  42.965  33.039   5.762
 2813POPC   GL238678  43.221  33.298   5.805
 2813POPC   C1A38679  42.781  32.836   6.144
 2813POPC   D2A38680  42.724  32.909   6.585
 2813POPC   C3A38681  42.926  32.786   6.956
 2813POPC   C4A38682  42.925  32.941   7.351
 2813POPC   C1B38683  43.142  33.181   6.258
 2813POPC   C2B38684  43.143  33.186   6.706
 2813POPC   C3B38685  43.329  33.168   7.090
 2813POPC   C4B38686  43.330  33.180   7.522
 2814POPC   NC338687   3.638  19.303   5.314
 2814POPC   PO438688   4.025  18.828   5.554
 2814POPC   GL138689   3.644  19.082   5.789
 2814POPC   GL238690   3.578  19.466   5.795
 2814POPC   C1A38691   3.364  18.960   6.155
 2814POPC   D2A38692   3.545  18.788   6.549
 2814POPC   C3A38693   3.461  18.926   6.973
 2814POPC   C4A38694   3.157  18.902   7.282
 2814POPC   C1B38695   3.610  19.404   6.230
 2814POPC   C2B38696   3.392  19.274   6.585
 2814POPC   C3B38697   3.122  19.310   6.926
 2814POPC   C4B38698   3.347  19.375   7.287
 2815POPC   NC338699  12.490  10.876   5.715
 2815POPC   PO438700  13.002  10.419   5.468
 2815POPC   GL138701  12.773  10.457   5.861
 2815POPC   GL238702  12.636  10.141   5.861
 2815POPC   C1A38703  12.810  10.721   6.269
 2815POPC   D2A38704  13.040  10.855   6.651
 2815POPC   C3A38705  12.869  10.902   7.094
 2815POPC   C4A38706  12.924  10.732   7.518
 2815POPC   C1B38707  12.454  10.335   6.266
 2815POPC   C2B38708  12.617  10.469   6.694
 2815POPC   C3B38709  12.803  10.399   7.117
 2815POPC   C4B38710  12.569  10.391   7.518
 2816POPC   NC338711  25.525  16.614   5.444
 2816POPC   PO438712  25.011  16.995   5.506
 2816POPC   GL138713  25.069  16.744   5.838
 2816POPC   GL238714  24.744  16.735   5.922
 2816POPC   C1A38715  25.097  16.709   6.277
 2816POPC   D2A38716  25.366  16.528   6.559
 2816POPC   C3A38717  25.194  16.677   6.869
 2816POPC   C4A38718  25.215  16.668   7.279
 2816POPC   C1B38719  24.667  17.002   6.242
 2816POPC   C2B38720  24.849  17.061   6.624
 2816POPC   C3B38721  24.798  16.931   7.052
 2816POPC   C4B38722  24.910  17.085   7.425
 2817POPC   NC338723   1.245  27.575   5.465
 2817POPC   PO438724   0.735  28.072   5.562
 2817POPC   GL138725   1.023  27.813   5.891
 2817POPC   GL238726   0.983  27.458   5.892
 2817POPC   C1A38727   1.176  27.657   6.342
 2817POPC   D2A38728   1.389  27.606   6.795
 2817POPC   C3A38729   1.095  27.691   7.165
 2817POPC   C4A38730   1.047  27.572   7.619
 2817POPC   C1B38731   1.376  27.271   6.078
 2817POPC   C2B38732   1.479  27.184   6.509
 2817POPC   C3B38733   1.474  27.100   6.972
 2817POPC   C4B38734   1.454  27.368   7.319
 2818POPC   NC338735  40.883  39.681   5.421
 2818POPC   PO438736  40.517  39.145   5.566
 2818POPC   GL138737  40.707  39.258   5.972
 2818POPC   GL238738  41.065  39.075   6.094
 2818POPC   C1A38739  40.734  39.270   6.401
 2818POPC   D2A38740  40.940  39.064   6.739
 2818POPC   C3A38741  40.756  39.221   7.114
 2818POPC   C4A38742  40.412  39.485   7.169
 2818POPC   C1B38743  41.195  39.490   6.307
 2818POPC   C2B38744  41.389  39.637   6.668
 2818POPC   C3B38745  41.274  39.458   7.098
 2818POPC   C4B38746  41.060  39.381   7.503
 2819POPC   NC338747   8.369  28.627   5.404
 2819POPC   PO438748   8.037  28.072   5.397
 2819POPC   GL138749   8.135  28.200   5.826
 2819POPC   GL238750   8.411  28.449   5.922
 2819POPC   C1A38751   8.002  28.320   6.248
 2819POPC   D2A38752   8.112  28.610   6.593
 2819POPC   C3A38753   8.137  28.401   6.981
 2819POPC   C4A38754   7.863  28.366   7.333
 2819POPC   C1B38755   8.495  28.339   6.381
 2819POPC   C2B38756   8.406  28.048   6.708
 2819POPC   C3B38757   8.511  28.044   7.123
 2819POPC   C4B38758   8.381  28.347   7.451
 2820POPC   NC338759  10.353   8.340   5.413
 2820POPC   PO438760  10.903   7.985   5.478
 2820POPC   GL138761  10.705   8.237   5.767
 2820POPC   GL238762  10.434   8.047   5.866
 2820POPC   C1A38763  10.739   8.358   6.178
 2820POPC   D2A38764  10.597   8.119   6.539
 2820POPC   C3A38765  10.511   8.426   6.838
 2820POPC   C4A38766  10.378   8.543   7.241
 2820POPC   C1B38767  10.821   7.861   6.110
 2820POPC   C2B38768  10.897   7.616   6.480
 2820POPC   C3B38769  10.891   7.822   6.872
 2820POPC   C4B38770  10.706   8.126   7.206
 2821POPC   NC338771  32.092   7.249   5.315
 2821POPC   PO438772  32.444   7.810   5.251
 2821POPC   GL138773  32.182   7.646   5.658
 2821POPC   GL238774  32.461   7.440   5.719
 2821POPC   C1A38775  32.061   7.393   6.108
 2821POPC   D2A38776  31.966   7.271   6.592
 2821POPC   C3A38777  31.969   7.523   6.998
 2821POPC   C4A38778  32.097   7.529   7.445
 2821POPC   C1B38779  32.559   7.479   6.157
 2821POPC   C2B38780  32.492   7.296   6.573
 2821POPC   C3B38781  32.501   7.486   6.993
 2821POPC   C4B38782  32.585   7.351   7.430
 2822POPC   NC338783  43.820  25.549   5.434
 2822POPC   PO438784  44.009  26.166   5.304
 2822POPC   GL138785  43.781  26.139   5.690
 2822POPC   GL238786  43.492  25.922   5.711
 2822POPC   C1A38787  43.861  26.266   6.121
 2822POPC   D2A38788  44.035  26.017   6.447
 2822POPC   C3A38789  44.015  26.124   6.879
 2822POPC   C4A38790  44.200  25.886   7.174
 2822POPC   C1B38791  43.676  25.757   6.093
 2822POPC   C2B38792  43.573  25.787   6.526
 2822POPC   C3B38793  43.606  25.773   6.983
 2822POPC   C4B38794  43.481  25.428   7.284
 2823POPC   NC338795  26.750  33.007   5.092
 2823POPC   PO438796  26.601  32.698   5.673
 2823POPC   GL138797  26.696  33.003   5.929
 2823POPC   GL238798  26.967  33.183   5.775
 2823POPC   C1A38799  26.676  32.896   6.366
 2823POPC   D2A38800  26.415  32.711   6.686
 2823POPC   C3A38801  26.643  32.703   7.059
 2823POPC   C4A38802  26.561  32.886   7.434
 2823POPC   C1B38803  27.127  33.066   6.182
 2823POPC   C2B38804  27.220  33.194   6.594
 2823POPC   C3B38805  27.232  33.113   7.054
 2823POPC   C4B38806  26.824  33.229   7.188
 2824POPC   NC338807  32.815  24.189   5.513
 2824POPC   PO438808  33.129  23.757   5.065
 2824POPC   GL138809  33.089  23.728   5.624
 2824POPC   GL238810  33.347  23.584   5.754
 2824POPC   C1A38811  33.016  23.759   6.083
 2824POPC   D2A38812  33.176  23.592   6.462
 2824POPC   C3A38813  33.033  23.830   6.811
 2824POPC   C4A38814  32.905  23.619   7.187
 2824POPC   C1B38815  33.430  23.288   6.111
 2824POPC   C2B38816  33.383  23.100   6.534
 2824POPC   C3B38817  33.216  23.293   6.899
 2824POPC   C4B38818  33.420  23.627   7.079
 2825POPC   NC338819  19.294  22.330   5.411
 2825POPC   PO438820  18.657  22.020   5.476
 2825POPC   GL138821  18.962  22.189   5.798
 2825POPC   GL238822  19.348  22.058   5.834
 2825POPC   C1A38823  18.973  22.033   6.215
 2825POPC   D2A38824  19.177  22.081   6.608
 2825POPC   C3A38825  18.911  21.930   6.938
 2825POPC   C4A38826  18.784  22.124   7.327
 2825POPC   C1B38827  19.380  22.351   6.137
 2825POPC   C2B38828  19.560  22.422   6.528
 2825POPC   C3B38829  19.406  22.397   6.959
 2825POPC   C4B38830  19.292  22.072   7.244
 2826POPC   NC338831  13.751   1.296   5.309
 2826POPC   PO438832  13.266   1.639   5.569
 2826POPC   GL138833  13.597   1.454   5.800
 2826POPC   GL238834  13.550   1.116   5.738
 2826POPC   C1A38835  13.706   1.334   6.239
 2826POPC   D2A38836  13.908   1.356   6.657
 2826POPC   C3A38837  13.648   1.324   6.997
 2826POPC   C4A38838  13.450   1.559   7.318
 2826POPC   C1B38839  13.803   0.873   6.046
 2826POPC   C2B38840  13.869   0.853   6.481
 2826POPC   C3B38841  13.971   0.914   6.919
 2826POPC   C4B38842  13.742   0.889   7.298
 2827POPC   NC338843  16.157  21.362   5.390
 2827POPC   PO438844  15.596  21.803   5.396
 2827POPC   GL138845  15.839  21.633   5.733
 2827POPC   GL238846  16.184  21.653   5.842
 2827POPC   C1A38847  15.771  21.634   6.163
 2827POPC   D2A38848  15.712  21.468   6.552
 2827POPC   C3A38849  16.093  21.548   6.761
 2827POPC   C4A38850  16.145  21.454   7.178
 2827POPC   C1B38851  16.107  21.257   6.036
 2827POPC   C2B38852  16.114  21.128   6.452
 2827POPC   C3B38853  16.182  21.019   6.867
 2827POPC   C4B38854  16.372  21.021   7.239
 2828POPC   NC338855  44.280   0.227   5.330
 2828POPC   PO438856  43.691   0.479   5.360
 2828POPC   GL138857  43.910   0.462   5.719
 2828POPC   GL238858  43.996   0.826   5.680
 2828POPC   C1A38859  43.810   0.211   6.104
 2828POPC   D2A38860  43.934   0.086   6.536
 2828POPC   C3A38861  43.653   0.256   6.865
 2828POPC   C4A38862  43.758   0.553   7.225
 2828POPC   C1B38863  43.950   0.772   6.117
 2828POPC   C2B38864  43.916   0.613   6.554
 2828POPC   C3B38865  44.113   0.759   6.933
 2828POPC   C4B38866  44.227   0.677   7.368
 2829POPC   NC338867   3.325   7.384   5.527
 2829POPC   PO438868   4.041   7.453   5.281
 2829POPC   GL138869   3.794   7.577   5.630
 2829POPC   GL238870   3.698   7.274   5.861
 2829POPC   C1A38871   3.694   7.715   6.067
 2829POPC   D2A38872   3.652   7.393   6.382
 2829POPC   C3A38873   3.632   7.540   6.798
 2829POPC   C4A38874   3.624   7.689   7.196
 2829POPC   C1B38875   3.370   7.039   6.096
 2829POPC   C2B38876   3.298   6.889   6.502
 2829POPC   C3B38877   3.327   7.128   6.856
 2829POPC   C4B38878   3.500   7.192   7.243
 2830POPC   NC338879  42.150   2.011   5.443
 2830POPC   PO438880  42.745   2.335   5.115
 2830POPC   GL138881  42.431   2.373   5.604
 2830POPC   GL238882  42.441   2.047   5.853
 2830POPC   C1A38883  42.121   2.396   6.002
 2830POPC   D2A38884  42.208   2.419   6.451
 2830POPC   C3A38885  42.005   2.259   6.856
 2830POPC   C4A38886  42.138   2.233   7.234
 2830POPC   C1B38887  42.189   1.914   6.205
 2830POPC   C2B38888  42.105   1.828   6.628
 2830POPC   C3B38889  42.416   1.891   6.961
 2830POPC   C4B38890  42.707   2.183   7.150
 2831POPC   NC338891  22.333  29.741   5.344
 2831POPC   PO438892  21.721  29.924   5.342
 2831POPC   GL138893  21.938  29.852   5.791
 2831POPC   GL238894  22.310  29.775   5.863
 2831POPC   C1A38895  21.890  29.825   6.271
 2831POPC   D2A38896  22.086  29.978   6.680
 2831POPC   C3A38897  22.016  29.884   7.130
 2831POPC   C4A38898  21.960  29.972   7.598
 2831POPC   C1B38899  22.400  30.001   6.251
 2831POPC   C2B38900  22.548  30.212   6.612
 2831POPC   C3B38901  22.485  30.100   7.022
 2831POPC   C4B38902  22.452  29.943   7.428
 2832POPC   NC338903  14.594  34.030   5.259
 2832POPC   PO438904  14.548  33.583   5.352
 2832POPC   GL138905  14.526  33.735   5.794
 2832POPC   GL238906  14.680  34.058   5.780
 2832POPC   C1A38907  14.305  33.688   6.229
 2832POPC   D2A38908  14.108  33.681   6.673
 2832POPC   C3A38909  14.349  33.757   7.089
 2832POPC   C4A38910  14.541  33.842   7.524
 2832POPC   C1B38911  14.708  34.017   6.244
 2832POPC   C2B38912  14.495  34.025   6.661
 2832POPC   C3B38913  14.584  34.218   7.082
 2832POPC   C4B38914  14.624  34.396   7.516
 2833POPC   NC338915  38.932  36.622   5.238
 2833POPC   PO438916  39.536  36.882   5.467
 2833POPC   GL138917  39.399  37.156   5.759
 2833POPC   GL238918  39.041  37.102   5.769
 2833POPC   C1A38919  39.385  36.999   6.170
 2833POPC   D2A38920  39.354  37.100   6.588
 2833POPC   C3A38921  39.325  36.803   6.905
 2833POPC   C4A38922  39.350  36.948   7.317
 2833POPC   C1B38923  38.863  37.047   6.179
 2833POPC   C2B38924  38.860  37.014   6.630
 2833POPC   C3B38925  39.008  37.211   7.007
 2833POPC   C4B38926  38.900  37.145   7.467
 2834POPC   NC338927  14.045   0.628   5.228
 2834POPC   PO438928  14.643   0.254   5.450
 2834POPC   GL138929  14.288   0.453   5.719
 2834POPC   GL238930  14.132   0.123   5.782
 2834POPC   C1A38931  14.273   0.701   6.146
 2834POPC   D2A38932  14.400   0.854   6.589
 2834POPC   C3A38933  14.398   0.647   6.996
 2834POPC   C4A38934  14.247   0.663   7.444
 2834POPC   C1B38935  14.184   0.206   6.271
 2834POPC   C2B38936  14.372   0.173   6.726
 2834POPC   C3B38937  14.372   0.191   7.197
 2834POPC   C4B38938  14.108   0.126   7.545
 2835POPC   NC338939  12.139  17.015   5.461
 2835POPC   PO438940  11.873  16.321   5.401
 2835POPC   GL138941  12.042  16.586   5.742
 2835POPC   GL238942  12.411  16.676   5.787
 2835POPC   C1A38943  12.084  16.474   6.162
 2835POPC   D2A38944  12.016  16.696   6.520
 2835POPC   C3A38945  11.853  16.527   6.868
 2835POPC   C4A38946  11.696  16.657   7.244
 2835POPC   C1B38947  12.564  16.709   6.235
 2835POPC   C2B38948  12.505  16.794   6.680
 2835POPC   C3B38949  12.298  16.689   7.074
 2835POPC   C4B38950  12.146  16.303   7.244
 2836POPC   NC338951   9.927  18.721   5.576
 2836POPC   PO438952   9.715  19.373   5.284
 2836POPC   GL138953   9.661  19.210   5.683
 2836POPC   GL238954   9.421  18.968   5.570
 2836POPC   C1A38955   9.904  19.107   6.068
 2836POPC   D2A38956  10.047  19.086   6.498
 2836POPC   C3A38957   9.828  19.303   6.828
 2836POPC   C4A38958   9.771  19.094   7.237
 2836POPC   C1B38959   9.427  18.911   6.030
 2836POPC   C2B38960   9.538  19.036   6.453
 2836POPC   C3B38961   9.662  18.824   6.818
 2836POPC   C4B38962   9.381  18.724   7.122
 2837POPC   NC338963  31.137  24.145   5.273
 2837POPC   PO438964  31.784  24.196   5.520
 2837POPC   GL138965  31.485  24.410   5.762
 2837POPC   GL238966  31.192  24.175   5.780
 2837POPC   C1A38967  31.571  24.629   6.146
 2837POPC   D2A38968  31.583  24.798   6.551
 2837POPC   C3A38969  31.407  24.670   6.923
 2837POPC   C4A38970  31.383  24.669   7.365
 2837POPC   C1B38971  31.124  24.386   6.137
 2837POPC   C2B38972  31.271  24.388   6.511
 2837POPC   C3B38973  31.061  24.315   6.857
 2837POPC   C4B38974  30.959  24.400   7.260
 2838POPC   NC338975  35.580  30.903   5.494
 2838POPC   PO438976  35.219  30.355   5.431
 2838POPC   GL138977  35.369  30.562   5.797
 2838POPC   GL238978  35.236  30.935   5.881
 2838POPC   C1A38979  35.242  30.541   6.185
 2838POPC   D2A38980  35.489  30.482   6.493
 2838POPC   C3A38981  35.238  30.612   6.768
 2838POPC   C4A38982  35.388  30.727   7.095
 2838POPC   C1B38983  35.513  30.974   6.263
 2838POPC   C2B38984  35.664  30.964   6.708
 2838POPC   C3B38985  35.688  31.120   7.156
 2838POPC   C4B38986  35.733  30.854   7.530
 2839POPC   NC338987  17.208   6.445   5.382
 2839POPC   PO438988  17.622   6.994   5.379
 2839POPC   GL138989  17.729   6.674   5.745
 2839POPC   GL238990  17.412   6.536   5.844
 2839POPC   C1A38991  17.760   6.515   6.207
 2839POPC   D2A38992  17.552   6.683   6.614
 2839POPC   C3A38993  17.679   6.523   7.060
 2839POPC   C4A38994  17.702   6.590   7.552
 2839POPC   C1B38995  17.259   6.387   6.252
 2839POPC   C2B38996  17.060   6.439   6.657
 2839POPC   C3B38997  17.164   6.568   7.084
 2839POPC   C4B38998  17.345   6.272   7.381
 2840POPC   NC338999  44.369  29.650   5.310
 2840POPC   PO439000  44.840  30.107   5.417
 2840POPC   GL139001  44.622  29.815   5.738
 2840POPC   GL239002  44.255  29.884   5.814
 2840POPC   C1A39003  44.618  29.805   6.187
 2840POPC   D2A39004  44.652  30.104   6.552
 2840POPC   C3A39005  44.833  29.869   6.900
 2840POPC   C4A39006  44.987  29.719   7.313
 2840POPC   C1B39007  44.179  30.030   6.271
 2840POPC   C2B39008  44.150  30.153   6.688
 2840POPC   C3B39009  44.421  30.168   7.015
 2840POPC   C4B39010  44.551  29.970   7.368
 2841POPC   NC339011  25.102  10.175   5.336
 2841POPC   PO439012  25.182   9.492   5.521
 2841POPC   GL139013  25.387   9.557   5.878
 2841POPC   GL239014  25.275   9.899   5.853
 2841POPC   C1A39015  25.199   9.613   6.281
 2841POPC   D2A39016  25.335   9.673   6.667
 2841POPC   C3A39017  25.183   9.496   7.019
 2841POPC   C4A39018  25.308   9.584   7.419
 2841POPC   C1B39019  25.336  10.156   6.220
 2841POPC   C2B39020  25.467  10.164   6.639
 2841POPC   C3B39021  25.318  10.014   7.054
 2841POPC   C4B39022  25.441  10.081   7.496
 2842POPC   NC339023   2.467   7.632   5.387
 2842POPC   PO439024   2.144   7.092   5.480
 2842POPC   GL139025   1.943   7.135   5.852
 2842POPC   GL239026   1.749   7.452   5.894
 2842POPC   C1A39027   1.996   7.160   6.268
 2842POPC   D2A39028   2.172   7.450   6.560
 2842POPC   C3A39029   2.015   7.414   6.965
 2842POPC   C4A39030   2.038   7.108   7.258
 2842POPC   C1B39031   2.179   7.590   6.023
 2842POPC   C2B39032   2.347   7.896   6.353
 2842POPC   C3B39033   2.457   7.913   6.836
 2842POPC   C4B39034   2.109   7.901   7.143
 2843POPC   NC339035  21.023   2.470   5.526
 2843POPC   PO439036  20.412   2.642   5.127
 2843POPC   GL139037  20.521   2.598   5.585
 2843POPC   GL239038  20.503   2.250   5.505
 2843POPC   C1A39039  20.653   2.652   6.082
 2843POPC   D2A39040  20.595   2.826   6.547
 2843POPC   C3A39041  20.701   2.697   7.000
 2843POPC   C4A39042  20.935   2.943   7.328
 2843POPC   C1B39043  20.298   2.309   5.938
 2843POPC   C2B39044  20.252   2.490   6.367
 2843POPC   C3B39045  20.209   2.536   6.830
 2843POPC   C4B39046  20.335   2.400   7.255
 2844POPC   NC339047   5.969  27.765   5.418
 2844POPC   PO439048   5.666  27.312   5.490
 2844POPC   GL139049   5.686  27.630   5.843
 2844POPC   GL239050   5.995  27.819   5.926
 2844POPC   C1A39051   5.712  27.622   6.307
 2844POPC   D2A39052   5.840  27.850   6.662
 2844POPC   C3A39053   5.797  27.664   7.042
 2844POPC   C4A39054   5.711  27.657   7.480
 2844POPC   C1B39055   6.220  27.784   6.329
 2844POPC   C2B39056   6.298  27.708   6.810
 2844POPC   C3B39057   6.290  27.778   7.274
 2844POPC   C4B39058   6.247  27.901   7.717
 2845POPC   NC339059   6.653  35.758   5.391
 2845POPC   PO439060   6.307  36.308   5.469
 2845POPC   GL139061   6.369  35.996   5.809
 2845POPC   GL239062   6.725  35.898   5.911
 2845POPC   C1A39063   6.418  36.068   6.284
 2845POPC   D2A39064   6.519  35.865   6.712
 2845POPC   C3A39065   6.367  36.075   7.122
 2845POPC   C4A39066   6.318  36.010   7.582
 2845POPC   C1B39067   6.942  35.825   6.347
 2845POPC   C2B39068   7.076  35.781   6.803
 2845POPC   C3B39069   7.323  35.904   7.188
 2845POPC   C4B39070   7.319  36.135   7.599
 2846POPC   NC339071  15.542  14.972   5.399
 2846POPC   PO439072  15.004  15.387   5.378
 2846POPC   GL139073  15.090  15.164   5.747
 2846POPC   GL239074  14.998  15.467   5.888
 2846POPC   C1A39075  15.184  15.020   6.183
 2846POPC   D2A39076  15.157  14.732   6.556
 2846POPC   C3A39077  15.088  14.854   7.017
 2846POPC   C4A39078  15.116  15.069   7.454
 2846POPC   C1B39079  15.049  15.516   6.287
 2846POPC   C2B39080  15.181  15.260   6.639
 2846POPC   C3B39081  15.188  15.361   7.054
 2846POPC   C4B39082  14.790  15.404   7.221
 2847POPC   NC339083  16.216  36.523   5.491
 2847POPC   PO439084  16.803  36.787   5.162
 2847POPC   GL139085  16.656  36.707   5.607
 2847POPC   GL239086  16.397  36.931   5.736
 2847POPC   C1A39087  16.740  36.722   6.059
 2847POPC   D2A39088  16.591  36.757   6.498
 2847POPC   C3A39089  16.799  37.036   6.791
 2847POPC   C4A39090  17.001  36.979   7.187
 2847POPC   C1B39091  16.460  37.165   6.117
 2847POPC   C2B39092  16.338  37.199   6.550
 2847POPC   C3B39093  16.244  37.370   6.977
 2847POPC   C4B39094  16.613  37.290   7.217
 2848POPC   NC339095  35.098   9.929   5.000
 2848POPC   PO439096  35.605   9.636   5.357
 2848POPC   GL139097  35.548   9.736   5.824
 2848POPC   GL239098  35.225   9.584   5.877
 2848POPC   C1A39099  35.505   9.678   6.285
 2848POPC   D2A39100  35.285   9.414   6.548
 2848POPC   C3A39101  35.302   9.575   6.944
 2848POPC   C4A39102  35.297   9.696   7.362
 2848POPC   C1B39103  35.158   9.996   6.113
 2848POPC   C2B39104  35.088  10.207   6.556
 2848POPC   C3B39105  35.147  10.084   7.020
 2848POPC   C4B39106  35.032  10.090   7.486
 2849POPC   NC339107   7.597  13.445   5.443
 2849POPC   PO439108   7.054  13.851   5.728
 2849POPC   GL139109   7.238  13.455   5.813
 2849POPC   GL239110   7.562  13.620   5.917
 2849POPC   C1A39111   7.145  13.275   6.208
 2849POPC   D2A39112   7.307  13.494   6.577
 2849POPC   C3A39113   7.124  13.486   6.983
 2849POPC   C4A39114   7.244  13.727   7.312
 2849POPC   C1B39115   7.835  13.855   6.208
 2849POPC   C2B39116   7.684  13.938   6.617
 2849POPC   C3B39117   7.616  13.704   6.966
 2849POPC   C4B39118   7.779  13.681   7.375
 2850POPC   NC339119  26.905  25.790   5.068
 2850POPC   PO439120  26.892  26.449   5.089
 2850POPC   GL139121  26.973  26.166   5.489
 2850POPC   GL239122  27.286  26.205   5.718
 2850POPC   C1A39123  26.789  26.007   5.933
 2850POPC   D2A39124  26.893  25.814   6.366
 2850POPC   C3A39125  26.810  25.931   6.832
 2850POPC   C4A39126  26.920  25.880   7.291
 2850POPC   C1B39127  27.135  26.305   6.173
 2850POPC   C2B39128  27.169  26.255   6.630
 2850POPC   C3B39129  27.041  26.424   7.049
 2850POPC   C4B39130  27.046  26.350   7.500
 2851POPC   NC339131   8.219   2.568   5.470
 2851POPC   PO439132   8.788   2.842   5.286
 2851POPC   GL139133   8.544   2.854   5.741
 2851POPC   GL239134   8.168   2.893   5.849
 2851POPC   C1A39135   8.533   2.827   6.197
 2851POPC   D2A39136   8.441   2.551   6.576
 2851POPC   C3A39137   8.480   2.697   7.015
 2851POPC   C4A39138   8.359   3.087   7.197
 2851POPC   C1B39139   8.044   2.731   6.280
 2851POPC   C2B39140   8.126   2.953   6.696
 2851POPC   C3B39141   7.867   2.943   7.075
 2851POPC   C4B39142   7.724   3.062   7.478
 2852POPC   NC339143  42.510  40.604   5.322
 2852POPC   PO439144  41.912  41.035   5.343
 2852POPC   GL139145  42.066  40.764   5.713
 2852POPC   GL239146  42.419  40.849   5.827
 2852POPC   C1A39147  42.146  40.521   6.123
 2852POPC   D2A39148  42.275  40.301   6.519
 2852POPC   C3A39149  42.353  40.564   6.893
 2852POPC   C4A39150  42.259  40.672   7.310
 2852POPC   C1B39151  42.308  41.037   6.262
 2852POPC   C2B39152  42.258  41.056   6.736
 2852POPC   C3B39153  42.553  41.033   7.092
 2852POPC   C4B39154  42.627  41.030   7.590
 2853POPC   NC339155  23.440  27.469   5.454
 2853POPC   PO439156  24.111  27.745   5.431
 2853POPC   GL139157  23.862  27.535   5.754
 2853POPC   GL239158  23.602  27.785   5.807
 2853POPC   C1A39159  23.695  27.505   6.209
 2853POPC   D2A39160  23.800  27.613   6.642
 2853POPC   C3A39161  23.514  27.407   6.953
 2853POPC   C4A39162  23.628  27.365   7.391
 2853POPC   C1B39163  23.310  27.937   6.079
 2853POPC   C2B39164  23.522  28.017   6.441
 2853POPC   C3B39165  23.426  27.909   6.858
 2853POPC   C4B39166  23.270  27.760   7.234
 2854POPC   NC339167  32.847  44.104   5.523
 2854POPC   PO439168  33.438  43.723   5.436
 2854POPC   GL139169  33.296  43.589   5.838
 2854POPC   GL239170  32.957  43.732   5.861
 2854POPC   C1A39171  33.443  43.458   6.255
 2854POPC   D2A39172  33.355  43.629   6.683
 2854POPC   C3A39173  33.282  43.460   7.089
 2854POPC   C4A39174  33.147  43.760   7.461
 2854POPC   C1B39175  33.131  43.855   6.257
 2854POPC   C2B39176  32.910  43.874   6.619
 2854POPC   C3B39177  33.057  43.960   6.989
 2854POPC   C4B39178  32.767  44.077   7.338
 2855POPC   NC339179  20.736   0.769   5.340
 2855POPC   PO439180  20.534   1.365   5.363
 2855POPC   GL139181  20.359   1.315   5.772
 2855POPC   GL239182  20.601   1.075   5.850
 2855POPC   C1A39183  20.197   1.289   6.211
 2855POPC   D2A39184  20.378   1.087   6.559
 2855POPC   C3A39185  20.291   1.233   6.944
 2855POPC   C4A39186  20.640   1.263   7.161
 2855POPC   C1B39187  20.716   1.328   6.239
 2855POPC   C2B39188  21.026   1.372   6.563
 2855POPC   C3B39189  21.109   1.164   6.959
 2855POPC   C4B39190  21.058   1.176   7.410
 2856POPC   NC339191   4.133  13.668   5.352
 2856POPC   PO439192   4.814  13.663   5.439
 2856POPC   GL139193   4.488  13.585   5.769
 2856POPC   GL239194   4.286  13.844   5.857
 2856POPC   C1A39195   4.432  13.382   6.175
 2856POPC   D2A39196   4.400  13.536   6.607
 2856POPC   C3A39197   4.600  13.370   6.963
 2856POPC   C4A39198   4.626  13.492   7.392
 2856POPC   C1B39199   4.052  13.736   6.251
 2856POPC   C2B39200   3.940  13.365   6.512
 2856POPC   C3B39201   4.048  13.308   6.928
 2856POPC   C4B39202   4.177  13.641   7.213
 2857POPC   NC339203  35.019  36.738   5.380
 2857POPC   PO439204  35.633  37.006   5.374
 2857POPC   GL139205  35.466  36.777   5.715
 2857POPC   GL239206  35.207  36.991   5.792
 2857POPC   C1A39207  35.440  36.806   6.197
 2857POPC   D2A39208  35.659  36.888   6.594
 2857POPC   C3A39209  35.548  36.706   6.982
 2857POPC   C4A39210  35.143  36.695   7.173
 2857POPC   C1B39211  35.082  37.169   6.169
 2857POPC   C2B39212  35.314  37.263   6.499
 2857POPC   C3B39213  35.314  37.155   6.915
 2857POPC   C4B39214  35.418  37.135   7.314
 2858POPC   NC339215   6.412   8.022   5.412
 2858POPC   PO439216   6.732   7.403   5.308
 2858POPC   GL139217   6.652   7.344   5.762
 2858POPC   GL239218   6.414   7.621   5.800
 2858POPC   C1A39219   6.547   7.220   6.201
 2858POPC   D2A39220   6.612   7.481   6.540
 2858POPC   C3A39221   6.746   7.273   6.906
 2858POPC   C4A39222   6.822   7.501   7.275
 2858POPC   C1B39223   6.235   7.636   6.224
 2858POPC   C2B39224   6.181   7.777   6.624
 2858POPC   C3B39225   6.437   7.711   6.965
 2858POPC   C4B39226   6.361   7.700   7.369
 2859POPC   NC339227  23.844  41.390   5.492
 2859POPC   PO439228  23.318  41.806   5.612
 2859POPC   GL139229  23.597  41.609   5.880
 2859POPC   GL239230  23.562  41.249   5.973
 2859POPC   C1A39231  23.954  41.763   6.131
 2859POPC   D2A39232  23.926  41.982   6.516
 2859POPC   C3A39233  23.878  41.715   6.817
 2859POPC   C4A39234  23.722  41.802   7.216
 2859POPC   C1B39235  23.546  41.506   6.364
 2859POPC   C2B39236  23.391  41.777   6.671
 2859POPC   C3B39237  23.430  41.470   6.960
 2859POPC   C4B39238  23.819  41.272   7.106
 2860POPC   NC339239  42.074  24.335   5.446
 2860POPC   PO439240  42.606  24.803   5.549
 2860POPC   GL139241  42.578  24.395   5.701
 2860POPC   GL239242  42.261  24.520   5.879
 2860POPC   C1A39243  42.627  24.289   6.146
 2860POPC   D2A39244  42.311  24.418   6.468
 2860POPC   C3A39245  42.433  24.633   6.835
 2860POPC   C4A39246  42.552  24.380   7.184
 2860POPC   C1B39247  41.964  24.694   6.188
 2860POPC   C2B39248  41.829  24.541   6.620
 2860POPC   C3B39249  42.004  24.464   7.054
 2860POPC   C4B39250  42.059  24.548   7.520
 2861POPC   NC339251  11.467  19.334   5.599
 2861POPC   PO439252  11.209  18.717   5.513
 2861POPC   GL139253  11.437  18.849   5.870
 2861POPC   GL239254  11.173  19.102   5.957
 2861POPC   C1A39255  11.448  18.871   6.335
 2861POPC   D2A39256  11.694  18.986   6.688
 2861POPC   C3A39257  11.495  19.243   7.000
 2861POPC   C4A39258  11.127  19.072   7.168
 2861POPC   C1B39259  11.359  19.406   6.255
 2861POPC   C2B39260  11.142  19.621   6.581
 2861POPC   C3B39261  10.909  19.491   6.945
 2861POPC   C4B39262  11.092  19.631   7.321
 2862POPC   NC339263  22.571  16.120   5.424
 2862POPC   PO439264  22.861  15.656   5.058
 2862POPC   GL139265  22.911  15.765   5.528
 2862POPC   GL239266  22.742  15.531   5.711
 2862POPC   C1A39267  23.038  15.955   5.968
 2862POPC   D2A39268  22.974  15.989   6.465
 2862POPC   C3A39269  23.220  16.001   6.898
 2862POPC   C4A39270  23.184  16.279   7.270
 2862POPC   C1B39271  22.829  15.524   6.160
 2862POPC   C2B39272  22.662  15.540   6.557
 2862POPC   C3B39273  22.727  15.798   6.893
 2862POPC   C4B39274  22.767  15.930   7.303
 2863POPC   NC339275  11.059  43.945   5.461
 2863POPC   PO439276  11.711  43.675   5.297
 2863POPC   GL139277  11.620  43.823   5.741
 2863POPC   GL239278  11.259  43.754   5.875
 2863POPC   C1A39279  11.589  43.990   6.164
 2863POPC   D2A39280  11.252  43.892   6.422
 2863POPC   C3A39281  11.293  44.059   6.801
 2863POPC   C4A39282  11.438  43.927   7.200
 2863POPC   C1B39283  11.067  43.475   6.168
 2863POPC   C2B39284  11.030  43.448   6.602
 2863POPC   C3B39285  11.097  43.611   7.010
 2863POPC   C4B39286  10.975  43.453   7.441
 2864POPC   NC339287  40.625  33.488   5.327
 2864POPC   PO439288  40.833  34.133   5.500
 2864POPC   GL139289  41.019  34.004   5.897
 2864POPC   GL239290  40.966  33.637   5.854
 2864POPC   C1A39291  40.870  33.944   6.335
 2864POPC   D2A39292  40.556  33.954   6.682
 2864POPC   C3A39293  40.703  34.006   7.112
 2864POPC   C4A39294  40.691  33.706   7.472
 2864POPC   C1B39295  40.888  33.434   6.243
 2864POPC   C2B39296  40.942  33.555   6.709
 2864POPC   C3B39297  41.094  33.649   7.147
 2864POPC   C4B39298  41.341  33.394   7.463
 2865POPC   NC339299  19.489  33.808   5.476
 2865POPC   PO439300  20.155  33.653   5.378
 2865POPC   GL139301  20.092  33.961   5.736
 2865POPC   GL239302  19.767  33.867   5.876
 2865POPC   C1A39303  20.041  34.176   6.146
 2865POPC   D2A39304  19.811  34.037   6.493
 2865POPC   C3A39305  19.955  34.229   6.863
 2865POPC   C4A39306  20.036  34.089   7.254
 2865POPC   C1B39307  19.920  33.634   6.167
 2865POPC   C2B39308  20.080  33.566   6.551
 2865POPC   C3B39309  19.928  33.685   6.939
 2865POPC   C4B39310  20.073  33.529   7.316
 2866POPC   NC339311  43.466  29.606   5.440
 2866POPC   PO439312  42.989  30.111   5.298
 2866POPC   GL139313  42.908  29.985   5.723
 2866POPC   GL239314  43.048  29.693   5.742
 2866POPC   C1A39315  42.801  29.795   6.176
 2866POPC   D2A39316  42.894  29.608   6.610
 2866POPC   C3A39317  42.794  29.793   6.989
 2866POPC   C4A39318  42.919  30.057   7.337
 2866POPC   C1B39319  43.298  29.931   6.014
 2866POPC   C2B39320  43.285  29.965   6.440
 2866POPC   C3B39321  43.247  30.015   6.868
 2866POPC   C4B39322  43.385  29.775   7.204
 2867POPC   NC339323  41.797  22.666   5.422
 2867POPC   PO439324  41.985  23.193   5.720
 2867POPC   GL139325  41.678  23.053   5.945
 2867POPC   GL239326  41.434  22.840   5.786
 2867POPC   C1A39327  41.731  23.065   6.363
 2867POPC   D2A39328  41.880  22.930   6.714
 2867POPC   C3A39329  41.667  22.925   7.075
 2867POPC   C4A39330  41.766  22.898   7.496
 2867POPC   C1B39331  41.383  22.731   6.231
 2867POPC   C2B39332  41.314  22.687   6.707
 2867POPC   C3B39333  41.160  22.942   7.092
 2867POPC   C4B39334  41.248  23.247   7.425
 2868POPC   NC339335  43.982  11.953   5.297
 2868POPC   PO439336  43.372  12.166   5.220
 2868POPC   GL139337  43.723  12.202   5.699
 2868POPC   GL239338  44.005  11.912   5.825
 2868POPC   C1A39339  43.960  12.248   6.176
 2868POPC   D2A39340  44.220  12.045   6.540
 2868POPC   C3A39341  44.172  12.223   6.984
 2868POPC   C4A39342  43.838  12.529   7.119
 2868POPC   C1B39343  43.848  11.736   6.225
 2868POPC   C2B39344  43.744  11.694   6.671
 2868POPC   C3B39345  43.899  11.776   7.084
 2868POPC   C4B39346  43.872  11.769   7.517
 2869POPC   NC339347  39.551  18.201   5.415
 2869POPC   PO439348  40.113  18.354   5.351
 2869POPC   GL139349  40.029  18.503   5.804
 2869POPC   GL239350  39.768  18.682   5.861
 2869POPC   C1A39351  40.166  18.691   6.241
 2869POPC   D2A39352  40.213  18.619   6.725
 2869POPC   C3A39353  39.902  18.257   6.892
 2869POPC   C4A39354  39.634  17.951   7.136
 2869POPC   C1B39355  39.614  18.626   6.273
 2869POPC   C2B39356  39.692  18.689   6.709
 2869POPC   C3B39357  39.894  18.704   7.123
 2869POPC   C4B39358  39.835  18.747   7.549
 2870POPC   NC339359  40.089   1.307   5.395
 2870POPC   PO439360  39.670   1.605   5.804
 2870POPC   GL139361  39.908   1.242   5.968
 2870POPC   GL239362  40.194   1.066   5.818
 2870POPC   C1A39363  39.919   1.226   6.421
 2870POPC   D2A39364  39.933   1.544   6.745
 2870POPC   C3A39365  39.790   1.362   7.127
 2870POPC   C4A39366  39.755   1.028   7.439
 2870POPC   C1B39367  40.380   1.083   6.215
 2870POPC   C2B39368  40.344   0.968   6.644
 2870POPC   C3B39369  40.123   0.965   7.043
 2870POPC   C4B39370  40.170   0.703   7.430
 2871POPC   NC339371  43.215  25.353   5.188
 2871POPC   PO439372  43.500  24.821   5.571
 2871POPC   GL139373  43.234  25.061   5.900
 2871POPC   GL239374  43.229  25.394   5.753
 2871POPC   C1A39375  43.411  25.285   6.239
 2871POPC   D2A39376  43.518  25.306   6.658
 2871POPC   C3A39377  43.179  25.183   6.893
 2871POPC   C4A39378  43.060  25.110   7.305
 2871POPC   C1B39379  43.159  25.700   6.106
 2871POPC   C2B39380  43.059  25.561   6.529
 2871POPC   C3B39381  43.108  25.680   6.954
 2871POPC   C4B39382  42.881  25.717   7.306
 2872POPC   NC339383   8.348  34.100   5.420
 2872POPC   PO439384   8.158  33.430   5.478
 2872POPC   GL139385   8.449  33.664   5.763
 2872POPC   GL239386   8.298  34.001   5.915
 2872POPC   C1A39387   8.515  33.639   6.217
 2872POPC   D2A39388   8.193  33.730   6.546
 2872POPC   C3A39389   8.179  33.594   7.002
 2872POPC   C4A39390   8.445  33.799   7.267
 2872POPC   C1B39391   7.891  33.951   6.130
 2872POPC   C2B39392   7.737  33.998   6.557
 2872POPC   C3B39393   8.000  34.048   6.919
 2872POPC   C4B39394   7.944  33.976   7.361
 2873POPC   NC339395  27.013   1.593   5.292
 2873POPC   PO439396  26.958   0.925   5.151
 2873POPC   GL139397  26.902   1.091   5.651
 2873POPC   GL239398  26.675   1.371   5.616
 2873POPC   C1A39399  27.022   1.010   6.158
 2873POPC   D2A39400  26.873   0.913   6.645
 2873POPC   C3A39401  27.082   1.047   7.070
 2873POPC   C4A39402  27.226   1.347   7.419
 2873POPC   C1B39403  26.577   1.231   6.033
 2873POPC   C2B39404  26.593   1.342   6.471
 2873POPC   C3B39405  26.486   1.318   6.909
 2873POPC   C4B39406  26.655   1.209   7.303
 2874POPC   NC339407   1.445  15.301   5.380
 2874POPC   PO439408   0.908  14.880   5.600
 2874POPC   GL139409   1.042  15.335   5.720
 2874POPC   GL239410   1.408  15.480   5.844
 2874POPC   C1A39411   0.990  15.440   6.126
 2874POPC   D2A39412   1.084  15.168   6.480
 2874POPC   C3A39413   1.134  15.349   6.877
 2874POPC   C4A39414   1.201  15.121   7.262
 2874POPC   C1B39415   1.396  15.070   6.060
 2874POPC   C2B39416   1.519  14.850   6.444
 2874POPC   C3B39417   1.455  14.918   6.870
 2874POPC   C4B39418   1.661  14.875   7.273
 2875POPC   NC339419   7.592  19.547   5.351
 2875POPC   PO439420   7.195  19.083   5.096
 2875POPC   GL139421   7.348  19.199   5.628
 2875POPC   GL239422   7.644  19.373   5.837
 2875POPC   C1A39423   7.269  19.107   6.079
 2875POPC   D2A39424   7.134  19.257   6.470
 2875POPC   C3A39425   7.399  19.147   6.797
 2875POPC   C4A39426   7.366  19.067   7.217
 2875POPC   C1B39427   7.638  19.383   6.318
 2875POPC   C2B39428   7.746  19.496   6.741
 2875POPC   C3B39429   7.695  19.445   7.149
 2875POPC   C4B39430   7.727  19.221   7.539
 2876POPC   NC339431  37.008  28.263   5.278
 2876POPC   PO439432  36.372  28.319   5.384
 2876POPC   GL139433  36.688  28.250   5.719
 2876POPC   GL239434  36.926  28.478   5.751
 2876POPC   C1A39435  36.886  28.106   6.117
 2876POPC   D2A39436  36.871  28.277   6.546
 2876POPC   C3A39437  36.834  28.028   6.903
 2876POPC   C4A39438  37.095  27.802   7.229
 2876POPC   C1B39439  37.011  28.599   6.185
 2876POPC   C2B39440  37.086  28.747   6.634
 2876POPC   C3B39441  37.142  28.415   6.976
 2876POPC   C4B39442  37.174  28.458   7.422
 2877POPC   NC339443  32.011  21.148   5.388
 2877POPC   PO439444  32.453  21.565   5.647
 2877POPC   GL139445  32.292  21.206   5.807
 2877POPC   GL239446  32.574  21.013   5.919
 2877POPC   C1A39447  32.110  21.087   6.169
 2877POPC   D2A39448  32.154  21.228   6.586
 2877POPC   C3A39449  31.907  21.143   6.919
 2877POPC   C4A39450  32.003  21.329   7.285
 2877POPC   C1B39451  32.542  21.373   6.225
 2877POPC   C2B39452  32.320  21.688   6.477
 2877POPC   C3B39453  32.276  21.640   6.932
 2877POPC   C4B39454  32.578  21.591   7.340
 2878POPC   NC339455  12.293  12.593   5.291
 2878POPC   PO439456  12.340  13.212   5.269
 2878POPC   GL139457  12.395  12.921   5.666
 2878POPC   GL239458  12.072  12.743   5.800
 2878POPC   C1A39459  12.423  12.953   6.109
 2878POPC   D2A39460  12.132  12.840   6.443
 2878POPC   C3A39461  12.277  12.844   6.866
 2878POPC   C4A39462  12.094  12.978   7.248
 2878POPC   C1B39463  11.807  12.549   6.168
 2878POPC   C2B39464  11.761  12.495   6.641
 2878POPC   C3B39465  11.930  12.523   7.085
 2878POPC   C4B39466  11.833  12.531   7.574
 2879POPC   NC339467   9.639  41.790   5.369
 2879POPC   PO439468   9.343  41.295   5.551
 2879POPC   GL139469   9.577  41.624   5.865
 2879POPC   GL239470   9.733  41.987   5.825
 2879POPC   C1A39471   9.682  41.741   6.335
 2879POPC   D2A39472   9.709  42.005   6.759
 2879POPC   C3A39473   9.667  41.837   7.179
 2879POPC   C4A39474   9.545  41.640   7.593
 2879POPC   C1B39475  10.100  41.920   6.108
 2879POPC   C2B39476  10.178  41.924   6.561
 2879POPC   C3B39477  10.177  41.894   7.030
 2879POPC   C4B39478  10.375  41.909   7.463
 2880POPC   NC339479   5.848  13.247   5.432
 2880POPC   PO439480   5.595  12.653   5.378
 2880POPC   GL139481   5.845  12.704   5.774
 2880POPC   GL239482   5.826  12.996   5.898
 2880POPC   C1A39483   5.896  12.518   6.190
 2880POPC   D2A39484   5.680  12.511   6.588
 2880POPC   C3A39485   5.953  12.448   6.940
 2880POPC   C4A39486   6.125  12.713   7.258
 2880POPC   C1B39487   5.753  13.008   6.349
 2880POPC   C2B39488   5.463  13.017   6.671
 2880POPC   C3B39489   5.488  12.831   7.066
 2880POPC   C4B39490   5.726  12.976   7.415
 2881POPC   NC339491   4.800  15.508   5.457
 2881POPC   PO439492   5.477  15.298   5.591
 2881POPC   GL139493   5.181  15.130   5.889
 2881POPC   GL239494   4.833  15.091   5.808
 2881POPC   C1A39495   5.010  14.979   6.291
 2881POPC   D2A39496   4.988  15.146   6.695
 2881POPC   C3A39497   5.102  14.987   7.069
 2881POPC   C4A39498   5.302  15.352   7.256
 2881POPC   C1B39499   4.819  15.443   6.144
 2881POPC   C2B39500   4.623  15.461   6.568
 2881POPC   C3B39501   4.799  15.527   7.007
 2881POPC   C4B39502   4.836  15.298   7.381
 2882POPC   NC339503  15.952  35.743   5.618
 2882POPC   PO439504  16.109  36.209   5.161
 2882POPC   GL139505  15.821  36.257   5.673
 2882POPC   GL239506  15.924  36.031   6.010
 2882POPC   C1A39507  15.742  36.456   6.138
 2882POPC   D2A39508  15.857  36.235   6.533
 2882POPC   C3A39509  15.780  36.375   6.926
 2882POPC   C4A39510  16.014  36.583   7.235
 2882POPC   C1B39511  16.219  35.945   6.363
 2882POPC   C2B39512  16.168  35.858   6.805
 2882POPC   C3B39513  16.068  36.039   7.228
 2882POPC   C4B39514  16.183  35.867   7.697
 2883POPC   NC339515  24.135  34.199   5.313
 2883POPC   PO439516  24.681  34.559   5.459
 2883POPC   GL139517  24.498  34.576   5.848
 2883POPC   GL239518  24.302  34.900   5.821
 2883POPC   C1A39519  24.758  34.505   6.250
 2883POPC   D2A39520  24.924  34.541   6.684
 2883POPC   C3A39521  24.619  34.338   6.943
 2883POPC   C4A39522  24.411  34.318   7.297
 2883POPC   C1B39523  24.393  34.872   6.261
 2883POPC   C2B39524  24.295  34.603   6.618
 2883POPC   C3B39525  24.308  34.762   7.036
 2883POPC   C4B39526  24.658  34.778   7.355
 2884POPC   NC339527  29.727  33.081   5.251
 2884POPC   PO439528  30.233  33.383   5.605
 2884POPC   GL139529  29.932  33.142   5.798
 2884POPC   GL239530  29.589  33.253   5.718
 2884POPC   C1A39531  29.977  33.106   6.244
 2884POPC   D2A39532  29.982  32.904   6.656
 2884POPC   C3A39533  29.961  33.195   7.045
 2884POPC   C4A39534  29.966  33.242   7.534
 2884POPC   C1B39535  29.516  32.941   6.035
 2884POPC   C2B39536  29.500  33.021   6.476
 2884POPC   C3B39537  29.539  32.919   6.912
 2884POPC   C4B39538  29.737  32.800   7.297
 2885POPC   NC339539  26.951  33.861   5.535
 2885POPC   PO439540  26.514  33.355   5.317
 2885POPC   GL139541  26.543  33.482   5.768
 2885POPC   GL239542  26.821  33.630   5.971
 2885POPC   C1A39543  26.469  33.359   6.226
 2885POPC   D2A39544  26.657  33.309   6.676
 2885POPC   C3A39545  26.520  33.606   7.022
 2885POPC   C4A39546  26.492  33.986   7.268
 2885POPC   C1B39547  27.257  33.562   6.136
 2885POPC   C2B39548  27.438  33.655   6.541
 2885POPC   C3B39549  27.335  33.610   6.973
 2885POPC   C4B39550  26.986  33.720   7.258
 2886POPC   NC339551  11.464  32.611   5.524
 2886POPC   PO439552  11.253  32.057   5.320
 2886POPC   GL139553  11.127  32.252   5.752
 2886POPC   GL239554  10.897  32.540   5.806
 2886POPC   C1A39555  11.297  32.186   6.183
 2886POPC   D2A39556  11.390  32.354   6.586
 2886POPC   C3A39557  11.415  32.052   6.938
 2886POPC   C4A39558  11.052  31.976   7.216
 2886POPC   C1B39559  11.000  32.609   6.229
 2886POPC   C2B39560  10.871  32.565   6.636
 2886POPC   C3B39561  11.111  32.447   7.017
 2886POPC   C4B39562  11.079  32.416   7.503
 2887POPC   NC339563  22.347  36.408   5.402
 2887POPC   PO439564  21.966  36.980   5.157
 2887POPC   GL139565  21.993  36.956   5.625
 2887POPC   GL239566  22.256  36.719   5.787
 2887POPC   C1A39567  22.103  37.116   6.047
 2887POPC   D2A39568  22.022  36.963   6.457
 2887POPC   C3A39569  22.179  37.091   6.843
 2887POPC   C4A39570  22.107  36.955   7.264
 2887POPC   C1B39571  22.443  36.757   6.215
 2887POPC   C2B39572  22.357  36.631   6.652
 2887POPC   C3B39573  22.241  36.502   7.073
 2887POPC   C4B39574  22.577  36.371   7.361
 2888POPC   NC339575  31.784  37.253   5.673
 2888POPC   PO439576  32.079  36.673   5.395
 2888POPC   GL139577  32.271  36.760   5.805
 2888POPC   GL239578  32.280  37.110   5.730
 2888POPC   C1A39579  32.554  36.807   6.189
 2888POPC   D2A39580  32.577  37.024   6.612
 2888POPC   C3A39581  32.333  36.791   6.912
 2888POPC   C4A39582  32.473  36.565   7.259
 2888POPC   C1B39583  32.263  37.232   6.154
 2888POPC   C2B39584  32.048  37.091   6.518
 2888POPC   C3B39585  32.139  37.267   6.883
 2888POPC   C4B39586  32.039  37.376   7.281
 2889POPC   NC339587  22.279  26.473   5.566
 2889POPC   PO439588  22.286  25.889   5.232
 2889POPC   GL139589  22.217  25.999   5.704
 2889POPC   GL239590  22.569  26.101   5.824
 2889POPC   C1A39591  22.088  26.151   6.149
 2889POPC   D2A39592  21.883  25.895   6.490
 2889POPC   C3A39593  21.626  26.093   6.818
 2889POPC   C4A39594  21.766  26.245   7.222
 2889POPC   C1B39595  22.613  26.235   6.257
 2889POPC   C2B39596  22.369  26.224   6.643
 2889POPC   C3B39597  22.206  26.062   7.040
 2889POPC   C4B39598  22.238  26.206   7.492
 2890POPC   NC339599  36.717  37.749   5.397
 2890POPC   PO439600  37.321  37.892   5.365
 2890POPC   GL139601  37.260  37.685   5.756
 2890POPC   GL239602  37.346  38.018   5.877
 2890POPC   C1A39603  37.041  37.476   6.123
 2890POPC   D2A39604  37.050  37.372   6.575
 2890POPC   C3A39605  36.798  37.567   6.879
 2890POPC   C4A39606  36.748  37.491   7.298
 2890POPC   C1B39607  37.221  37.927   6.294
 2890POPC   C2B39608  37.195  37.891   6.737
 2890POPC   C3B39609  37.099  37.900   7.185
 2890POPC   C4B39610  37.265  38.005   7.587
 2891POPC   NC339611  18.352  39.118   5.539
 2891POPC   PO439612  18.469  39.755   5.469
 2891POPC   GL139613  18.266  39.549   5.861
 2891POPC   GL239614  18.109  39.191   5.969
 2891POPC   C1A39615  18.335  39.488   6.318
 2891POPC   D2A39616  18.573  39.580   6.696
 2891POPC   C3A39617  18.340  39.502   7.083
 2891POPC   C4A39618  18.221  39.286   7.476
 2891POPC   C1B39619  18.451  39.006   6.225
 2891POPC   C2B39620  18.405  39.092   6.664
 2891POPC   C3B39621  18.317  38.974   7.074
 2891POPC   C4B39622  18.366  38.784   7.446
 2892POPC   NC339623  20.429  34.127   5.357
 2892POPC   PO439624  20.884  33.695   5.368
 2892POPC   GL139625  20.623  33.809   5.734
 2892POPC   GL239626  20.800  33.540   5.912
 2892POPC   C1A39627  20.424  33.780   6.175
 2892POPC   D2A39628  20.338  34.012   6.571
 2892POPC   C3A39629  20.408  33.844   7.002
 2892POPC   C4A39630  20.423  33.843   7.470
 2892POPC   C1B39631  20.943  33.931   6.115
 2892POPC   C2B39632  20.961  33.908   6.534
 2892POPC   C3B39633  20.873  34.051   6.911
 2892POPC   C4B39634  20.866  33.794   7.233
 2893POPC   NC339635   9.797  30.917   5.324
 2893POPC   PO439636   9.611  30.291   5.152
 2893POPC   GL139637   9.606  30.502   5.576
 2893POPC   GL239638   9.925  30.606   5.743
 2893POPC   C1A39639   9.534  30.549   6.055
 2893POPC   D2A39640   9.605  30.778   6.453
 2893POPC   C3A39641   9.592  30.677   6.887
 2893POPC   C4A39642   9.782  30.535   7.281
 2893POPC   C1B39643   9.979  30.895   6.145
 2893POPC   C2B39644   9.986  31.107   6.575
 2893POPC   C3B39645   9.974  30.978   7.020
 2893POPC   C4B39646  10.230  30.968   7.365
 2894POPC   NC339647  35.375  37.384   5.499
 2894POPC   PO439648  35.094  37.959   5.592
 2894POPC   GL139649  35.047  37.604   5.864
 2894POPC   GL239650  35.371  37.523   5.992
 2894POPC   C1A39651  34.944  37.651   6.292
 2894POPC   D2A39652  35.084  37.893   6.609
 2894POPC   C3A39653  35.386  37.673   6.821
 2894POPC   C4A39654  35.439  37.634   7.234
 2894POPC   C1B39655  35.615  37.637   6.341
 2894POPC   C2B39656  35.860  37.789   6.664
 2894POPC   C3B39657  35.815  37.959   7.085
 2894POPC   C4B39658  35.740  37.926   7.541
 2895POPC   NC339659  30.439  37.668   5.190
 2895POPC   PO439660  29.749  37.616   5.409
 2895POPC   GL139661  29.970  37.534   5.794
 2895POPC   GL239662  29.643  37.363   5.866
 2895POPC   C1A39663  30.121  37.765   6.165
 2895POPC   D2A39664  30.373  37.793   6.544
 2895POPC   C3A39665  30.180  37.735   6.946
 2895POPC   C4A39666  29.787  37.659   7.128
 2895POPC   C1B39667  29.622  37.711   6.147
 2895POPC   C2B39668  29.718  37.863   6.564
 2895POPC   C3B39669  29.456  37.982   6.911
 2895POPC   C4B39670  29.366  37.837   7.338
 2896POPC   NC339671  29.406  28.614   5.381
 2896POPC   PO439672  28.815  28.194   5.351
 2896POPC   GL139673  28.960  28.045   5.743
 2896POPC   GL239674  29.189  28.327   5.779
 2896POPC   C1A39675  29.118  27.961   6.146
 2896POPC   D2A39676  29.071  28.180   6.534
 2896POPC   C3A39677  28.898  28.264   6.916
 2896POPC   C4A39678  28.941  28.039   7.298
 2896POPC   C1B39679  28.952  28.453   6.129
 2896POPC   C2B39680  29.050  28.699   6.516
 2896POPC   C3B39681  29.088  28.730   6.998
 2896POPC   C4B39682  29.448  28.672   7.255
 2897POPC   NC339683  22.987  41.866   5.294
 2897POPC   PO439684  23.032  41.172   5.327
 2897POPC   GL139685  23.072  41.375   5.756
 2897POPC   GL239686  22.852  41.646   5.780
 2897POPC   C1A39687  23.076  41.184   6.177
 2897POPC   D2A39688  23.180  41.197   6.607
 2897POPC   C3A39689  22.978  41.265   7.091
 2897POPC   C4A39690  23.011  41.217   7.601
 2897POPC   C1B39691  23.067  41.685   6.221
 2897POPC   C2B39692  22.918  41.613   6.681
 2897POPC   C3B39693  22.998  41.770   7.100
 2897POPC   C4B39694  22.598  41.737   7.309
 2898POPC   NC339695   1.847  35.953   5.405
 2898POPC   PO439696   2.268  36.433   5.412
 2898POPC   GL139697   2.159  36.244   5.833
 2898POPC   GL239698   2.317  35.930   5.890
 2898POPC   C1A39699   1.937  36.244   6.284
 2898POPC   D2A39700   1.674  36.271   6.704
 2898POPC   C3A39701   1.816  36.196   7.156
 2898POPC   C4A39702   2.180  36.126   7.439
 2898POPC   C1B39703   2.370  36.000   6.367
 2898POPC   C2B39704   2.202  36.069   6.821
 2898POPC   C3B39705   2.061  35.746   7.129
 2898POPC   C4B39706   2.228  35.621   7.526
 2899POPC   NC339707  24.721  13.155   5.658
 2899POPC   PO439708  24.619  13.749   5.410
 2899POPC   GL139709  24.455  13.762   5.824
 2899POPC   GL239710  24.184  13.639   5.997
 2899POPC   C1A39711  24.528  13.979   6.210
 2899POPC   D2A39712  24.348  14.012   6.611
 2899POPC   C3A39713  24.572  13.918   6.963
 2899POPC   C4A39714  24.736  13.599   7.169
 2899POPC   C1B39715  24.584  13.476   6.237
 2899POPC   C2B39716  24.701  13.246   6.603
 2899POPC   C3B39717  24.513  13.161   7.012
 2899POPC   C4B39718  24.393  13.344   7.460
 2900POPC   NC339719   7.345  28.841   5.545
 2900POPC   PO439720   7.518  29.542   5.478
 2900POPC   GL139721   7.509  29.271   5.802
 2900POPC   GL239722   7.739  29.045   5.797
 2900POPC   C1A39723   7.380  29.126   6.207
 2900POPC   D2A39724   7.258  28.794   6.491
 2900POPC   C3A39725   7.257  28.971   6.897
 2900POPC   C4A39726   7.378  29.197   7.261
 2900POPC   C1B39727   7.875  29.332   6.144
 2900POPC   C2B39728   7.721  29.513   6.522
 2900POPC   C3B39729   7.695  29.364   6.916
 2900POPC   C4B39730   7.897  29.269   7.277
 2901POPC   NC339731  40.110  40.240   5.118
 2901POPC   PO439732  39.914  39.876   5.715
 2901POPC   GL139733  39.895  40.168   6.058
 2901POPC   GL239734  40.236  40.062   6.106
 2901POPC   C1A39735  39.799  40.217   6.487
 2901POPC   D2A39736  39.625  39.931   6.829
 2901POPC   C3A39737  39.677  40.130   7.213
 2901POPC   C4A39738  40.100  40.325   7.381
 2901POPC   C1B39739  40.328  39.623   6.294
 2901POPC   C2B39740  40.564  39.637   6.693
 2901POPC   C3B39741  40.487  39.991   6.954
 2901POPC   C4B39742  40.099  39.884   7.141
 2902POPC   NC339743  38.322  32.680   5.418
 2902POPC   PO439744  38.704  32.115   5.554
 2902POPC   GL139745  38.643  32.374   5.892
 2902POPC   GL239746  38.285  32.383   5.844
 2902POPC   C1A39747  38.561  32.216   6.326
 2902POPC   D2A39748  38.342  32.080   6.712
 2902POPC   C3A39749  38.478  32.268   7.091
 2902POPC   C4A39750  38.533  32.071   7.504
 2902POPC   C1B39751  38.062  32.367   6.226
 2902POPC   C2B39752  38.012  32.490   6.631
 2902POPC   C3B39753  38.038  32.573   7.068
 2902POPC   C4B39754  38.145  32.407   7.443
 2903POPC   NC339755  27.420   3.074   5.423
 2903POPC   PO439756  27.798   2.702   5.120
 2903POPC   GL139757  27.774   2.767   5.613
 2903POPC   GL239758  27.405   2.687   5.755
 2903POPC   C1A39759  27.810   2.709   6.071
 2903POPC   D2A39760  27.786   2.528   6.484
 2903POPC   C3A39761  27.665   2.630   6.903
 2903POPC   C4A39762  27.839   2.564   7.317
 2903POPC   C1B39763  27.327   2.835   6.186
 2903POPC   C2B39764  27.247   2.663   6.570
 2903POPC   C3B39765  27.172   2.548   6.982
 2903POPC   C4B39766  27.384   2.753   7.315
 2904POPC   NC339767  30.776  22.483   5.065
 2904POPC   PO439768  30.321  22.376   5.544
 2904POPC   GL139769  30.508  22.155   5.843
 2904POPC   GL239770  30.780  22.308   5.888
 2904POPC   C1A39771  30.583  21.933   6.220
 2904POPC   D2A39772  30.795  21.973   6.610
 2904POPC   C3A39773  30.549  21.945   6.949
 2904POPC   C4A39774  30.504  22.211   7.242
 2904POPC   C1B39775  31.037  22.190   6.212
 2904POPC   C2B39776  31.083  22.407   6.602
 2904POPC   C3B39777  30.983  22.314   7.029
 2904POPC   C4B39778  30.942  22.348   7.459
 2905POPC   NC339779  16.840  23.026   5.391
 2905POPC   PO439780  16.473  23.431   5.695
 2905POPC   GL139781  16.601  23.021   5.886
 2905POPC   GL239782  16.862  22.755   5.847
 2905POPC   C1A39783  16.619  22.844   6.305
 2905POPC   D2A39784  16.756  23.159   6.601
 2905POPC   C3A39785  16.660  23.101   7.018
 2905POPC   C4A39786  16.284  23.159   7.205
 2905POPC   C1B39787  17.076  23.029   6.169
 2905POPC   C2B39788  17.267  23.139   6.575
 2905POPC   C3B39789  17.172  23.117   6.986
 2905POPC   C4B39790  17.055  23.161   7.418
 2906POPC   NC339791  22.176  33.267   5.384
 2906POPC   PO439792  22.534  32.680   5.337
 2906POPC   GL139793  22.554  32.900   5.784
 2906POPC   GL239794  22.282  33.191   5.884
 2906POPC   C1A39795  22.403  32.851   6.242
 2906POPC   D2A39796  22.198  32.756   6.652
 2906POPC   C3A39797  22.390  32.931   7.032
 2906POPC   C4A39798  22.452  33.355   7.185
 2906POPC   C1B39799  22.116  33.264   6.344
 2906POPC   C2B39800  22.030  33.239   6.803
 2906POPC   C3B39801  21.867  32.914   7.103
 2906POPC   C4B39802  21.741  32.773   7.546
 2907POPC   NC339803  17.125  19.988   5.233
 2907POPC   PO439804  17.634  19.593   5.414
 2907POPC   GL139805  17.470  19.836   5.727
 2907POPC   GL239806  17.223  19.551   5.758
 2907POPC   C1A39807  17.623  20.090   6.124
 2907POPC   D2A39808  17.583  19.913   6.556
 2907POPC   C3A39809  17.699  20.078   6.970
 2907POPC   C4A39810  17.509  19.906   7.377
 2907POPC   C1B39811  17.203  19.814   6.135
 2907POPC   C2B39812  17.078  19.890   6.533
 2907POPC   C3B39813  17.216  19.897   6.939
 2907POPC   C4B39814  16.997  19.819   7.293
 2908POPC   NC339815  30.949  19.367   5.324
 2908POPC   PO439816  30.813  18.670   5.280
 2908POPC   GL139817  30.784  18.938   5.648
 2908POPC   GL239818  30.443  18.964   5.768
 2908POPC   C1A39819  30.817  19.013   6.121
 2908POPC   D2A39820  30.616  19.103   6.547
 2908POPC   C3A39821  30.781  18.992   6.971
 2908POPC   C4A39822  31.035  19.249   7.240
 2908POPC   C1B39823  30.325  19.265   6.109
 2908POPC   C2B39824  30.369  19.560   6.469
 2908POPC   C3B39825  30.547  19.496   6.914
 2908POPC   C4B39826  30.543  19.315   7.315
 2909POPC   NC339827  16.780  11.220   5.412
 2909POPC   PO439828  16.314  10.956   5.798
 2909POPC   GL139829  16.643  11.126   5.932
 2909POPC   GL239830  16.546  11.424   5.901
 2909POPC   C1A39831  16.643  11.180   6.359
 2909POPC   D2A39832  16.525  11.369   6.700
 2909POPC   C3A39833  16.629  11.081   6.911
 2909POPC   C4A39834  16.801  11.056   7.256
 2909POPC   C1B39835  16.776  11.632   6.175
 2909POPC   C2B39836  17.043  11.482   6.493
 2909POPC   C3B39837  17.011  11.424   6.920
 2909POPC   C4B39838  17.053  11.487   7.368
 2910POPC   NC339839  36.591  26.342   5.435
 2910POPC   PO439840  37.033  25.891   5.299
 2910POPC   GL139841  36.955  26.090   5.719
 2910POPC   GL239842  37.057  26.451   5.684
 2910POPC   C1A39843  36.841  26.014   6.167
 2910POPC   D2A39844  37.032  26.081   6.567
 2910POPC   C3A39845  36.955  25.814   6.931
 2910POPC   C4A39846  36.823  25.865   7.347
 2910POPC   C1B39847  36.880  26.525   6.096
 2910POPC   C2B39848  36.723  26.520   6.522
 2910POPC   C3B39849  36.733  26.304   6.908
 2910POPC   C4B39850  36.951  26.343   7.271
 2911POPC   NC339851  22.116  38.053   4.974
 2911POPC   PO439852  22.394  38.615   5.178
 2911POPC   GL139853  22.276  38.495   5.641
 2911POPC   GL239854  21.915  38.637   5.723
 2911POPC   C1A39855  22.204  38.214   6.038
 2911POPC   D2A39856  22.332  38.046   6.466
 2911POPC   C3A39857  22.267  38.318   6.829
 2911POPC   C4A39858  22.134  38.555   7.211
 2911POPC   C1B39859  21.768  38.472   6.142
 2911POPC   C2B39860  21.885  38.594   6.584
 2911POPC   C3B39861  21.746  38.354   6.952
 2911POPC   C4B39862  21.821  38.137   7.347
 2912POPC   NC339863  22.638  14.614   5.487
 2912POPC   PO439864  23.118  14.113   5.399
 2912POPC   GL139865  22.994  14.308   5.794
 2912POPC   GL239866  22.648  14.276   5.868
 2912POPC   C1A39867  23.065  14.400   6.251
 2912POPC   D2A39868  23.042  14.668   6.628
 2912POPC   C3A39869  22.887  14.509   7.001
 2912POPC   C4A39870  23.040  14.322   7.338
 2912POPC   C1B39871  22.714  14.023   6.235
 2912POPC   C2B39872  22.833  14.136   6.657
 2912POPC   C3B39873  22.656  14.055   7.091
 2912POPC   C4B39874  22.622  14.046   7.559
 2913POPC   NC339875  32.043  20.467   5.304
 2913POPC   PO439876  32.443  20.941   5.388
 2913POPC   GL139877  32.240  20.676   5.739
 2913POPC   GL239878  32.107  20.315   5.775
 2913POPC   C1A39879  32.194  20.590   6.190
 2913POPC   D2A39880  31.994  20.737   6.571
 2913POPC   C3A39881  32.258  20.741   6.921
 2913POPC   C4A39882  32.153  20.859   7.342
 2913POPC   C1B39883  32.007  20.079   6.144
 2913POPC   C2B39884  32.094  20.221   6.568
 2913POPC   C3B39885  32.107  20.271   7.002
 2913POPC   C4B39886  32.240  20.380   7.413
 2914POPC   NC339887  29.527   9.028   5.485
 2914POPC   PO439888  29.934   8.570   5.458
 2914POPC   GL139889  29.871   8.826   5.833
 2914POPC   GL239890  29.922   9.183   5.778
 2914POPC   C1A39891  29.877   8.688   6.267
 2914POPC   D2A39892  29.990   8.713   6.683
 2914POPC   C3A39893  29.820   9.003   6.924
 2914POPC   C4A39894  29.626   9.022   7.282
 2914POPC   C1B39895  30.131   9.133   6.189
 2914POPC   C2B39896  30.256   9.152   6.616
 2914POPC   C3B39897  30.330   8.951   6.998
 2914POPC   C4B39898  30.143   9.082   7.359
 2915POPC   NC339899  37.210  39.243   5.530
 2915POPC   PO439900  36.613  39.025   5.504
 2915POPC   GL139901  36.812  39.234   5.840
 2915POPC   GL239902  37.016  38.941   5.903
 2915POPC   C1A39903  36.941  39.480   6.204
 2915POPC   D2A39904  36.961  39.313   6.611
 2915POPC   C3A39905  37.216  39.453   6.955
 2915POPC   C4A39906  37.047  39.567   7.356
 2915POPC   C1B39907  37.246  38.855   6.307
 2915POPC   C2B39908  37.208  38.874   6.740
 2915POPC   C3B39909  36.916  39.010   7.043
 2915POPC   C4B39910  37.048  39.060   7.464
 2916POPC   NC339911  28.744   6.576   5.441
 2916POPC   PO439912  28.107   6.647   5.344
 2916POPC   GL139913  28.300   6.557   5.739
 2916POPC   GL239914  28.051   6.380   5.885
 2916POPC   C1A39915  28.510   6.492   6.145
 2916POPC   D2A39916  28.527   6.673   6.562
 2916POPC   C3A39917  28.742   6.453   6.876
 2916POPC   C4A39918  28.693   6.391   7.316
 2916POPC   C1B39919  28.003   6.533   6.321
 2916POPC   C2B39920  28.055   6.479   6.763
 2916POPC   C3B39921  28.323   6.650   7.074
 2916POPC   C4B39922  28.519   6.861   7.431
 2917POPC   NC339923  12.693  13.398   5.016
 2917POPC   PO439924  13.020  13.946   5.286
 2917POPC   GL139925  12.783  13.847   5.679
 2917POPC   GL239926  13.020  13.646   5.776
 2917POPC   C1A39927  12.662  13.834   6.124
 2917POPC   D2A39928  12.835  13.781   6.560
 2917POPC   C3A39929  12.721  13.572   6.950
 2917POPC   C4A39930  12.544  13.661   7.357
 2917POPC   C1B39931  13.091  13.529   6.182
 2917POPC   C2B39932  13.329  13.586   6.546
 2917POPC   C3B39933  13.241  13.617   6.955
 2917POPC   C4B39934  13.028  13.509   7.359
 2918POPC   NC339935  26.104   1.601   5.295
 2918POPC   PO439936  26.112   0.898   5.414
 2918POPC   GL139937  26.098   1.085   5.806
 2918POPC   GL239938  26.177   1.415   5.754
 2918POPC   C1A39939  25.953   1.099   6.219
 2918POPC   D2A39940  25.789   0.897   6.574
 2918POPC   C3A39941  25.965   1.164   6.877
 2918POPC   C4A39942  26.147   1.091   7.245
 2918POPC   C1B39943  26.234   1.584   6.133
 2918POPC   C2B39944  26.118   1.550   6.532
 2918POPC   C3B39945  26.210   1.746   6.888
 2918POPC   C4B39946  26.046   1.623   7.262
 2919POPC   NC339947  16.736  12.192   5.379
 2919POPC   PO439948  16.463  11.573   5.438
 2919POPC   GL139949  16.581  11.907   5.759
 2919POPC   GL239950  16.924  11.904   5.754
 2919POPC   C1A39951  16.442  12.033   6.188
 2919POPC   D2A39952  16.579  11.844   6.582
 2919POPC   C3A39953  16.655  11.825   7.008
 2919POPC   C4A39954  16.407  12.163   7.157
 2919POPC   C1B39955  16.890  12.243   6.061
 2919POPC   C2B39956  16.748  12.340   6.487
 2919POPC   C3B39957  16.849  12.304   6.938
 2919POPC   C4B39958  17.059  12.352   7.349
 2920POPC   NC339959  33.603  38.514   5.382
 2920POPC   PO439960  34.158  38.160   5.305
 2920POPC   GL139961  33.909  38.271   5.716
 2920POPC   GL239962  33.960  38.631   5.701
 2920POPC   C1A39963  33.622  38.461   6.060
 2920POPC   D2A39964  33.587  38.677   6.468
 2920POPC   C3A39965  33.770  38.423   6.846
 2920POPC   C4A39966  33.545  38.201   7.163
 2920POPC   C1B39967  34.007  38.792   6.094
 2920POPC   C2B39968  34.090  38.643   6.485
 2920POPC   C3B39969  34.003  38.866   6.821
 2920POPC   C4B39970  34.120  38.875   7.217
 2921POPC   NC339971  24.323  19.176   5.281
 2921POPC   PO439972  24.826  18.756   5.241
 2921POPC   GL139973  24.583  18.832   5.649
 2921POPC   GL239974  24.652  19.082   5.900
 2921POPC   C1A39975  24.336  18.721   6.057
 2921POPC   D2A39976  24.426  18.645   6.487
 2921POPC   C3A39977  24.434  18.920   6.852
 2921POPC   C4A39978  24.862  18.970   7.028
 2921POPC   C1B39979  24.464  19.178   6.310
 2921POPC   C2B39980  24.653  19.356   6.676
 2921POPC   C3B39981  24.403  19.433   7.023
 2921POPC   C4B39982  24.069  19.303   7.280
 2922POPC   NC339983  27.083   8.742   5.413
 2922POPC   PO439984  26.744   9.304   5.433
 2922POPC   GL139985  26.712   8.976   5.747
 2922POPC   GL239986  27.051   9.068   5.807
 2922POPC   C1A39987  26.793   8.852   6.204
 2922POPC   D2A39988  26.929   9.021   6.621
 2922POPC   C3A39989  26.824   8.795   6.986
 2922POPC   C4A39990  26.480   8.749   7.197
 2922POPC   C1B39991  27.084   9.315   6.145
 2922POPC   C2B39992  27.235   9.414   6.511
 2922POPC   C3B39993  27.137   9.432   6.903
 2922POPC   C4B39994  27.005   9.218   7.241
 2923POPC   NC339995  33.576   7.132   5.503
 2923POPC   PO439996  33.627   6.487   5.433
 2923POPC   GL139997  33.676   6.692   5.860
 2923POPC   GL239998  33.416   6.871   6.011
 2923POPC   C1A39999  33.769   6.473   6.261
 2923POPC   D2A40000  33.712   6.569   6.698
 2923POPC   C3A40001  33.911   6.728   7.062
 2923POPC   C4A40002  34.012   6.363   7.298
 2923POPC   C1B40003  33.789   6.966   6.304
 2923POPC   C2B40004  33.733   7.080   6.708
 2923POPC   C3B40005  33.452   6.957   7.004
 2923POPC   C4B40006  33.537   6.824   7.438
 2924POPC   NC340007   5.570   9.937   5.530
 2924POPC   PO440008   6.211   9.881   5.374
 2924POPC   GL140009   5.965   9.666   5.710
 2924POPC   GL240010   5.788   9.366   5.593
 2924POPC   C1A40011   5.790   9.772   6.118
 2924POPC   D2A40012   5.963   9.745   6.513
 2924POPC   C3A40013   6.005  10.043   6.844
 2924POPC   C4A40014   5.909   9.876   7.253
 2924POPC   C1B40015   5.674   9.255   6.037
 2924POPC   C2B40016   5.541   9.432   6.457
 2924POPC   C3B40017   5.630   9.627   6.877
 2924POPC   C4B40018   5.583   9.463   7.294
 2925POPC   NC340019  43.797  32.021   5.443
 2925POPC   PO440020  44.377  32.504   5.568
 2925POPC   GL140021  43.965  32.439   5.769
 2925POPC   GL240022  43.586  32.342   5.767
 2925POPC   C1A40023  43.950  32.284   6.188
 2925POPC   D2A40024  43.977  32.047   6.604
 2925POPC   C3A40025  44.099  32.182   7.009
 2925POPC   C4A40026  44.240  32.138   7.460
 2925POPC   C1B40027  43.452  32.246   6.157
 2925POPC   C2B40028  43.590  32.377   6.540
 2925POPC   C3B40029  43.573  32.195   6.932
 2925POPC   C4B40030  43.750  32.284   7.359
 2926POPC   NC340031  29.717  39.795   5.254
 2926POPC   PO440032  30.332  40.165   5.363
 2926POPC   GL140033  30.010  39.962   5.667
 2926POPC   GL240034  29.702  39.761   5.756
 2926POPC   C1A40035  29.885  40.104   6.102
 2926POPC   D2A40036  30.166  40.082   6.459
 2926POPC   C3A40037  30.080  39.927   6.902
 2926POPC   C4A40038  30.132  39.997   7.360
 2926POPC   C1B40039  29.693  39.584   6.162
 2926POPC   C2B40040  29.709  39.796   6.541
 2926POPC   C3B40041  29.595  39.740   6.950
 2926POPC   C4B40042  29.837  39.572   7.293
 2927POPC   NC340043  25.716   0.748   5.628
 2927POPC   PO440044  26.188   0.380   5.206
 2927POPC   GL140045  26.126   0.461   5.682
 2927POPC   GL240046  26.370   0.271   5.822
 2927POPC   C1A40047  25.983   0.460   6.143
 2927POPC   D2A40048  25.902   0.370   6.596
 2927POPC   C3A40049  26.042   0.623   6.966
 2927POPC   C4A40050  25.861   0.669   7.381
 2927POPC   C1B40051  26.438   0.256   6.261
 2927POPC   C2B40052  26.426   0.401   6.667
 2927POPC   C3B40053  26.582   0.302   7.074
 2927POPC   C4B40054  26.305   0.408   7.417
 2928POPC   NC340055  37.919   1.177   5.281
 2928POPC   PO440056  37.362   0.784   5.341
 2928POPC   GL140057  37.673   0.970   5.706
 2928POPC   GL240058  37.870   1.320   5.765
 2928POPC   C1A40059  37.799   0.949   6.191
 2928POPC   D2A40060  37.653   1.155   6.600
 2928POPC   C3A40061  37.544   1.026   7.032
 2928POPC   C4A40062  37.139   1.117   7.270
 2928POPC   C1B40063  38.163   1.329   6.139
 2928POPC   C2B40064  38.161   1.160   6.558
 2928POPC   C3B40065  37.991   1.272   6.981
 2928POPC   C4B40066  37.979   1.016   7.351
 2929POPC   NC340067  25.379  25.637   5.346
 2929POPC   PO440068  24.939  26.187   5.367
 2929POPC   GL140069  25.114  25.914   5.683
 2929POPC   GL240070  25.442  26.045   5.681
 2929POPC   C1A40071  25.325  25.774   6.108
 2929POPC   D2A40072  25.274  25.756   6.579
 2929POPC   C3A40073  25.426  25.999   6.959
 2929POPC   C4A40074  25.258  25.946   7.390
 2929POPC   C1B40075  25.250  26.266   6.045
 2929POPC   C2B40076  25.365  26.299   6.482
 2929POPC   C3B40077  25.205  26.486   6.865
 2929POPC   C4B40078  24.985  26.357   7.254
 2930POPC   NC340079  20.821  31.559   5.328
 2930POPC   PO440080  20.152  31.439   5.243
 2930POPC   GL140081  20.297  31.472   5.698
 2930POPC   GL240082  20.378  31.187   5.877
 2930POPC   C1A40083  20.440  31.618   6.168
 2930POPC   D2A40084  20.325  31.670   6.637
 2930POPC   C3A40085  20.602  31.604   7.019
 2930POPC   C4A40086  20.461  31.599   7.495
 2930POPC   C1B40087  20.805  31.259   6.047
 2930POPC   C2B40088  20.804  31.373   6.480
 2930POPC   C3B40089  20.474  31.185   6.735
 2930POPC   C4B40090  20.328  31.179   7.148
 2931POPC   NC340091  10.350  22.405   5.422
 2931POPC   PO440092  10.665  21.789   5.346
 2931POPC   GL140093  10.447  21.984   5.717
 2931POPC   GL240094  10.636  22.303   5.845
 2931POPC   C1A40095  10.197  22.090   6.096
 2931POPC   D2A40096  10.294  22.002   6.525
 2931POPC   C3A40097  10.215  22.203   6.919
 2931POPC   C4A40098  10.535  22.374   7.211
 2931POPC   C1B40099  10.717  21.954   6.168
 2931POPC   C2B40100  10.737  21.749   6.596
 2931POPC   C3B40101  10.612  21.871   7.050
 2931POPC   C4B40102  10.901  22.000   7.433
 2932POPC   NC340103   3.954  36.846   5.448
 2932POPC   PO440104   3.272  36.739   5.337
 2932POPC   GL140105   3.548  36.638   5.685
 2932POPC   GL240106   3.564  36.977   5.791
 2932POPC   C1A40107   3.627  36.672   6.169
 2932POPC   D2A40108   3.535  36.892   6.584
 2932POPC   C3A40109   3.492  36.658   6.971
 2932POPC   C4A40110   3.752  36.575   7.325
 2932POPC   C1B40111   3.326  37.112   6.158
 2932POPC   C2B40112   3.274  37.328   6.544
 2932POPC   C3B40113   3.522  37.340   6.900
 2932POPC   C4B40114   3.367  37.097   7.237
 2933POPC   NC340115  44.901   5.135   5.292
 2933POPC   PO440116  44.261   5.167   5.478
 2933POPC   GL140117  44.644   5.039   5.749
 2933POPC   GL240118  44.956   5.265   5.784
 2933POPC   C1A40119  44.854   4.894   6.169
 2933POPC   D2A40120   0.054   4.918   6.625
 2933POPC   C3A40121  44.844   5.069   6.974
 2933POPC   C4A40122  44.418   5.257   7.021
 2933POPC   C1B40123   0.018   5.465   6.184
 2933POPC   C2B40124  44.840   5.453   6.614
 2933POPC   C3B40125  44.875   5.571   7.051
 2933POPC   C4B40126   0.066   5.307   7.370
 2934POPC   NC340127  29.397  41.329   5.376
 2934POPC   PO440128  29.150  41.904   5.461
 2934POPC   GL140129  29.352  41.815   5.769
 2934POPC   GL240130  29.217  41.506   5.825
 2934POPC   C1A40131  29.243  41.862   6.197
 2934POPC   D2A40132  29.371  41.635   6.522
 2934POPC   C3A40133  29.516  41.832   6.891
 2934POPC   C4A40134  29.334  41.757   7.300
 2934POPC   C1B40135  29.059  41.324   6.187
 2934POPC   C2B40136  28.940  41.381   6.603
 2934POPC   C3B40137  29.017  41.197   7.002
 2934POPC   C4B40138  29.052  41.175   7.466
 2935POPC   NC340139  30.381  34.683   5.587
 2935POPC   PO440140  30.653  34.198   5.206
 2935POPC   GL140141  30.857  34.313   5.700
 2935POPC   GL240142  30.621  34.517   5.984
 2935POPC   C1A40143  30.963  34.253   6.204
 2935POPC   D2A40144  30.684  34.548   6.518
 2935POPC   C3A40145  30.772  34.520   6.968
 2935POPC   C4A40146  30.502  34.409   7.313
 2935POPC   C1B40147  30.374  34.870   6.208
 2935POPC   C2B40148  30.443  35.048   6.605
 2935POPC   C3B40149  30.381  34.814   6.950
 2935POPC   C4B40150  30.277  34.901   7.320
 2936POPC   NC340151  27.224   7.134   5.479
 2936POPC   PO440152  26.794   7.584   5.192
 2936POPC   GL140153  26.864   7.647   5.666
 2936POPC   GL240154  26.890   7.367   5.848
 2936POPC   C1A40155  26.952   7.788   6.146
 2936POPC   D2A40156  26.837   7.952   6.590
 2936POPC   C3A40157  26.891   7.685   6.980
 2936POPC   C4A40158  26.766   7.324   7.212
 2936POPC   C1B40159  27.115   7.275   6.187
 2936POPC   C2B40160  27.073   7.417   6.589
 2936POPC   C3B40161  27.215   7.219   6.978
 2936POPC   C4B40162  27.180   7.170   7.444
 2937POPC   NC340163  15.402  25.700   5.279
 2937POPC   PO440164  14.889  26.041   5.404
 2937POPC   GL140165  14.989  25.935   5.796
 2937POPC   GL240166  15.345  25.933   5.745
 2937POPC   C1A40167  15.084  25.856   6.222
 2937POPC   D2A40168  15.211  26.036   6.622
 2937POPC   C3A40169  14.915  26.028   6.970
 2937POPC   C4A40170  15.090  25.978   7.373
 2937POPC   C1B40171  15.587  25.765   6.089
 2937POPC   C2B40172  15.664  25.756   6.539
 2937POPC   C3B40173  15.467  25.722   6.940
 2937POPC   C4B40174  15.432  25.486   7.320
 2938POPC   NC340175  14.144  27.086   5.289
 2938POPC   PO440176  14.329  26.440   5.504
 2938POPC   GL140177  14.389  26.741   5.811
 2938POPC   GL240178  14.646  27.000   5.728
 2938POPC   C1A40179  14.429  26.619   6.244
 2938POPC   D2A40180  14.214  26.631   6.624
 2938POPC   C3A40181  14.484  26.571   6.965
 2938POPC   C4A40182  14.164  26.570   7.239
 2938POPC   C1B40183  14.467  27.113   6.158
 2938POPC   C2B40184  14.584  26.976   6.586
 2938POPC   C3B40185  14.479  27.070   7.011
 2938POPC   C4B40186  14.691  27.367   7.204
 2939POPC   NC340187   7.761  10.969   5.388
 2939POPC   PO440188   8.440  11.238   5.427
 2939POPC   GL140189   8.170  11.214   5.771
 2939POPC   GL240190   8.076  10.857   5.788
 2939POPC   C1A40191   8.155  11.286   6.226
 2939POPC   D2A40192   8.355  11.583   6.532
 2939POPC   C3A40193   8.318  11.313   6.845
 2939POPC   C4A40194   8.326  11.317   7.257
 2939POPC   C1B40195   7.824  10.905   6.156
 2939POPC   C2B40196   7.966  10.863   6.597
 2939POPC   C3B40197   7.990  10.966   7.045
 2939POPC   C4B40198   8.029  11.008   7.513
 2940POPC   NC340199  24.673  29.638   5.497
 2940POPC   PO440200  25.148  30.155   5.464
 2940POPC   GL140201  25.094  30.068   5.850
 2940POPC   GL240202  24.767  30.128   5.836
 2940POPC   C1A40203  24.981  29.780   6.176
 2940POPC   D2A40204  25.125  29.934   6.562
 2940POPC   C3A40205  25.005  29.821   6.978
 2940POPC   C4A40206  25.410  29.863   7.237
 2940POPC   C1B40207  24.838  30.256   6.263
 2940POPC   C2B40208  24.765  30.264   6.681
 2940POPC   C3B40209  25.106  30.315   6.927
 2940POPC   C4B40210  25.175  30.321   7.324
 2941POPC   NC340211  30.115  36.084   5.286
 2941POPC   PO440212  29.531  36.019   5.662
 2941POPC   GL140213  29.907  36.164   5.868
 2941POPC   GL240214  30.284  36.214   5.782
 2941POPC   C1A40215  29.739  36.134   6.295
 2941POPC   D2A40216  29.415  36.183   6.589
 2941POPC   C3A40217  29.646  36.210   6.947
 2941POPC   C4A40218  29.728  36.255   7.371
 2941POPC   C1B40219  30.266  36.040   6.210
 2941POPC   C2B40220  30.132  36.181   6.651
 2941POPC   C3B40221  30.189  36.120   7.105
 2941POPC   C4B40222  30.223  36.298   7.526
 2942POPC   NC340223  25.905  10.182   5.349
 2942POPC   PO440224  26.069   9.478   5.347
 2942POPC   GL140225  26.008   9.698   5.749
 2942POPC   GL240226  25.778   9.957   5.821
 2942POPC   C1A40227  26.197   9.643   6.155
 2942POPC   D2A40228  26.171   9.421   6.547
 2942POPC   C3A40229  26.288   9.690   6.900
 2942POPC   C4A40230  26.225   9.555   7.295
 2942POPC   C1B40231  25.707   9.808   6.259
 2942POPC   C2B40232  25.820   9.760   6.706
 2942POPC   C3B40233  25.751   9.750   7.151
 2942POPC   C4B40234  25.912   9.865   7.549
 2943POPC   NC340235  26.524  24.134   5.649
 2943POPC   PO440236  25.930  23.834   5.448
 2943POPC   GL140237  25.948  23.694   5.885
 2943POPC   GL240238  26.319  23.712   5.952
 2943POPC   C1A40239  25.985  23.885   6.318
 2943POPC   D2A40240  26.008  23.772   6.754
 2943POPC   C3A40241  25.782  24.040   7.010
 2943POPC   C4A40242  25.592  23.964   7.391
 2943POPC   C1B40243  26.236  23.431   6.319
 2943POPC   C2B40244  26.206  23.309   6.730
 2943POPC   C3B40245  26.289  23.493   7.129
 2943POPC   C4B40246  26.720  23.422   7.282
 2944POPC   NC340247  35.956  32.470   5.520
 2944POPC   PO440248  36.341  32.934   5.786
 2944POPC   GL140249  36.387  32.481   5.872
 2944POPC   GL240250  36.222  32.133   5.814
 2944POPC   C1A40251  36.358  32.284   6.272
 2944POPC   D2A40252  36.124  32.397   6.606
 2944POPC   C3A40253  36.236  32.234   6.967
 2944POPC   C4A40254  36.223  32.452   7.300
 2944POPC   C1B40255  35.889  32.098   6.131
 2944POPC   C2B40256  35.804  31.968   6.565
 2944POPC   C3B40257  35.927  31.815   6.956
 2944POPC   C4B40258  35.756  31.613   7.308
 2945POPC   NC340259  12.868   1.761   5.368
 2945POPC   PO440260  12.735   2.401   5.322
 2945POPC   GL140261  12.995   2.165   5.686
 2945POPC   GL240262  12.861   1.861   5.852
 2945POPC   C1A40263  13.201   2.126   6.114
 2945POPC   D2A40264  12.998   2.002   6.494
 2945POPC   C3A40265  12.952   2.290   6.840
 2945POPC   C4A40266  12.770   2.201   7.245
 2945POPC   C1B40267  12.782   1.602   6.194
 2945POPC   C2B40268  12.719   1.546   6.619
 2945POPC   C3B40269  12.817   1.791   6.951
 2945POPC   C4B40270  12.941   1.680   7.382
 2946POPC   NC340271  35.422  39.715   5.070
 2946POPC   PO440272  35.573  40.265   5.389
 2946POPC   GL140273  35.404  40.049   5.740
 2946POPC   GL240274  35.402  39.706   5.634
 2946POPC   C1A40275  35.189  40.128   6.136
 2946POPC   D2A40276  35.169  40.346   6.533
 2946POPC   C3A40277  35.294  40.155   6.883
 2946POPC   C4A40278  35.437  39.998   7.272
 2946POPC   C1B40279  35.549  39.671   6.075
 2946POPC   C2B40280  35.468  39.819   6.502
 2946POPC   C3B40281  35.431  39.614   6.916
 2946POPC   C4B40282  35.798  39.559   7.203
 2947POPC   NC340283  22.071   8.456   5.286
 2947POPC   PO440284  22.347   8.072   5.231
 2947POPC   GL140285  22.326   8.233   5.721
 2947POPC   GL240286  22.078   8.508   5.845
 2947POPC   C1A40287  22.302   8.255   6.238
 2947POPC   D2A40288  22.084   8.272   6.678
 2947POPC   C3A40289  22.314   8.203   7.090
 2947POPC   C4A40290  22.288   7.927   7.492
 2947POPC   C1B40291  21.943   8.659   6.303
 2947POPC   C2B40292  21.768   8.684   6.750
 2947POPC   C3B40293  21.990   8.668   7.170
 2947POPC   C4B40294  22.053   8.894   7.582
 2948POPC   NC340295  12.015   3.246   5.507
 2948POPC   PO440296  12.466   3.530   5.068
 2948POPC   GL140297  12.438   3.722   5.589
 2948POPC   GL240298  12.123   3.668   5.761
 2948POPC   C1A40299  12.453   3.739   6.137
 2948POPC   D2A40300  12.651   3.856   6.561
 2948POPC   C3A40301  12.499   3.744   6.969
 2948POPC   C4A40302  12.169   3.843   7.235
 2948POPC   C1B40303  11.977   3.467   6.152
 2948POPC   C2B40304  11.783   3.423   6.571
 2948POPC   C3B40305  11.766   3.584   6.983
 2948POPC   C4B40306  11.900   3.455   7.379
 2949POPC   NC340307  38.102  33.184   5.638
 2949POPC   PO440308  38.728  32.978   5.466
 2949POPC   GL140309  38.762  32.902   5.884
 2949POPC   GL240310  38.412  32.881   5.924
 2949POPC   C1A40311  38.733  32.711   6.293
 2949POPC   D2A40312  38.496  32.604   6.666
 2949POPC   C3A40313  38.501  32.803   7.057
 2949POPC   C4A40314  38.768  32.633   7.348
 2949POPC   C1B40315  38.181  32.877   6.320
 2949POPC   C2B40316  38.118  32.978   6.770
 2949POPC   C3B40317  38.108  33.139   7.189
 2949POPC   C4B40318  38.131  33.327   7.610
 2950POPC   NC340319  32.013  26.667   5.294
 2950POPC   PO440320  32.246  27.205   5.595
 2950POPC   GL140321  32.204  26.835   5.780
 2950POPC   GL240322  32.496  26.598   5.727
 2950POPC   C1A40323  32.202  26.946   6.208
 2950POPC   D2A40324  32.168  27.208   6.500
 2950POPC   C3A40325  32.227  26.971   6.858
 2950POPC   C4A40326  32.234  27.029   7.266
 2950POPC   C1B40327  32.267  26.460   6.127
 2950POPC   C2B40328  32.229  26.507   6.599
 2950POPC   C3B40329  32.239  26.453   7.050
 2950POPC   C4B40330  32.575  26.658   7.207
 2951POPC   NC340331  44.287  18.973   5.407
 2951POPC   PO440332  43.689  19.347   5.346
 2951POPC   GL140333  43.917  19.249   5.726
 2951POPC   GL240334  43.869  18.917   5.761
 2951POPC   C1A40335  43.732  19.191   6.159
 2951POPC   D2A40336  43.558  18.998   6.516
 2951POPC   C3A40337  43.612  19.138   6.951
 2951POPC   C4A40338  43.887  18.933   7.252
 2951POPC   C1B40339  44.158  18.915   6.144
 2951POPC   C2B40340  44.286  19.024   6.598
 2951POPC   C3B40341  44.182  19.289   7.001
 2951POPC   C4B40342  44.311  19.349   7.462
 2952POPC   NC340343   5.159  43.974   5.386
 2952POPC   PO440344   4.687  43.564   5.482
 2952POPC   GL140345   4.931  43.789   5.817
 2952POPC   GL240346   5.288  43.731   5.833
 2952POPC   C1A40347   5.079  43.765   6.273
 2952POPC   D2A40348   5.359  43.781   6.631
 2952POPC   C3A40349   5.109  43.659   7.007
 2952POPC   C4A40350   4.719  43.843   7.205
 2952POPC   C1B40351   5.477  43.413   6.131
 2952POPC   C2B40352   5.715  43.418   6.540
 2952POPC   C3B40353   5.628  43.534   6.990
 2952POPC   C4B40354   5.474  43.854   7.308
 2953POPC   NC340355  44.656  27.368   5.492
 2953POPC   PO440356  44.506  26.680   5.421
 2953POPC   GL140357  44.769  26.804   5.807
 2953POPC   GL240358   0.072  26.640   5.905
 2953POPC   C1A40359  44.760  26.933   6.264
 2953POPC   D2A40360  44.441  26.834   6.599
 2953POPC   C3A40361  44.411  26.996   7.023
 2953POPC   C4A40362  44.625  26.892   7.436
 2953POPC   C1B40363   0.180  26.649   6.330
 2953POPC   C2B40364  44.915  26.607   6.663
 2953POPC   C3B40365  44.924  26.790   7.041
 2953POPC   C4B40366   0.006  26.532   7.392
 2954POPC   NC340367  12.666  13.341   5.569
 2954POPC   PO440368  12.757  12.658   5.371
 2954POPC   GL140369  12.916  12.747   5.782
 2954POPC   GL240370  13.025  13.098   5.839
 2954POPC   C1A40371  12.846  12.534   6.167
 2954POPC   D2A40372  12.620  12.702   6.511
 2954POPC   C3A40373  12.789  12.718   6.901
 2954POPC   C4A40374  13.007  12.703   7.277
 2954POPC   C1B40375  12.909  13.053   6.249
 2954POPC   C2B40376  12.967  13.240   6.627
 2954POPC   C3B40377  13.031  13.142   7.030
 2954POPC   C4B40378  12.640  13.119   7.272
 2955POPC   NC340379  33.217  24.991   5.072
 2955POPC   PO440380  32.774  25.485   5.326
 2955POPC   GL140381  32.961  25.347   5.758
 2955POPC   GL240382  32.840  25.048   5.939
 2955POPC   C1A40383  33.137  25.402   6.173
 2955POPC   D2A40384  32.938  25.217   6.529
 2955POPC   C3A40385  33.057  25.375   6.928
 2955POPC   C4A40386  33.076  25.101   7.274
 2955POPC   C1B40387  32.522  25.140   6.224
 2955POPC   C2B40388  32.451  24.972   6.602
 2955POPC   C3B40389  32.642  25.076   6.961
 2955POPC   C4B40390  32.594  25.284   7.320
 2956POPC   NC340391   9.756  18.157   5.180
 2956POPC   PO440392   9.734  17.460   5.341
 2956POPC   GL140393   9.748  17.396   5.782
 2956POPC   GL240394   9.844  17.058   5.845
 2956POPC   C1A40395   9.706  17.623   6.180
 2956POPC   D2A40396   9.758  17.521   6.619
 2956POPC   C3A40397  10.110  17.535   6.889
 2956POPC   C4A40398   9.881  17.661   7.267
 2956POPC   C1B40399   9.730  17.123   6.292
 2956POPC   C2B40400   9.781  17.019   6.718
 2956POPC   C3B40401   9.793  17.164   7.113
 2956POPC   C4B40402   9.527  17.267   7.420
 2957POPC   NC340403  28.094  19.203   5.506
 2957POPC   PO440404  28.420  18.656   5.333
 2957POPC   GL140405  28.477  18.830   5.790
 2957POPC   GL240406  28.637  19.169   5.871
 2957POPC   C1A40407  28.421  18.877   6.262
 2957POPC   D2A40408  28.460  18.712   6.720
 2957POPC   C3A40409  28.249  18.995   7.028
 2957POPC   C4A40410  28.391  19.075   7.448
 2957POPC   C1B40411  28.320  19.407   6.163
 2957POPC   C2B40412  28.362  19.457   6.627
 2957POPC   C3B40413  28.623  19.352   6.986
 2957POPC   C4B40414  28.862  19.264   7.364
 2958POPC   NC340415  13.636  20.356   5.254
 2958POPC   PO440416  14.127  20.628   5.660
 2958POPC   GL140417  13.679  20.555   5.736
 2958POPC   GL240418  13.519  20.869   5.636
 2958POPC   C1A40419  13.524  20.396   6.138
 2958POPC   D2A40420  13.677  20.317   6.567
 2958POPC   C3A40421  13.492  20.449   6.976
 2958POPC   C4A40422  13.842  20.420   7.285
 2958POPC   C1B40423  13.598  20.903   6.115
 2958POPC   C2B40424  13.868  20.870   6.504
 2958POPC   C3B40425  13.777  20.870   6.967
 2958POPC   C4B40426  13.378  20.905   7.200
 2959POPC   NC340427   7.782   8.250   5.364
 2959POPC   PO440428   8.427   7.934   5.292
 2959POPC   GL140429   8.237   8.054   5.750
 2959POPC   GL240430   7.914   8.138   5.838
 2959POPC   C1A40431   8.284   8.361   6.112
 2959POPC   D2A40432   8.253   8.341   6.560
 2959POPC   C3A40433   8.000   8.519   6.886
 2959POPC   C4A40434   8.106   8.369   7.285
 2959POPC   C1B40435   8.045   7.911   6.220
 2959POPC   C2B40436   8.205   7.840   6.626
 2959POPC   C3B40437   7.997   8.004   6.967
 2959POPC   C4B40438   7.674   8.027   7.316
 2960POPC   NC340439  26.615  36.984   5.361
 2960POPC   PO440440  27.295  36.975   5.319
 2960POPC   GL140441  27.025  36.894   5.750
 2960POPC   GL240442  26.679  36.689   5.782
 2960POPC   C1A40443  26.932  36.940   6.217
 2960POPC   D2A40444  26.696  37.014   6.622
 2960POPC   C3A40445  26.900  37.009   7.035
 2960POPC   C4A40446  26.765  37.070   7.509
 2960POPC   C1B40447  26.817  36.453   6.159
 2960POPC   C2B40448  26.947  36.522   6.589
 2960POPC   C3B40449  26.820  36.498   7.011
 2960POPC   C4B40450  26.522  36.727   7.218
 2961POPC   NC340451  37.019  35.505   5.285
 2961POPC   PO440452  36.453  35.226   5.453
 2961POPC   GL140453  36.629  35.463   5.764
 2961POPC   GL240454  36.994  35.421   5.774
 2961POPC   C1A40455  36.728  35.298   6.196
 2961POPC   D2A40456  36.919  35.114   6.551
 2961POPC   C3A40457  36.765  35.102   6.963
 2961POPC   C4A40458  37.006  35.020   7.311
 2961POPC   C1B40459  37.173  35.550   6.166
 2961POPC   C2B40460  36.947  35.639   6.543
 2961POPC   C3B40461  36.963  35.820   6.937
 2961POPC   C4B40462  37.189  35.710   7.299
 2962POPC   NC340463  18.802   3.476   5.544
 2962POPC   PO440464  19.418   3.838   5.392
 2962POPC   GL140465  19.138   3.782   5.782
 2962POPC   GL240466  19.085   3.449   5.947
 2962POPC   C1A40467  18.800   3.814   6.140
 2962POPC   D2A40468  18.780   3.696   6.603
 2962POPC   C3A40469  18.993   3.459   6.913
 2962POPC   C4A40470  19.023   3.706   7.313
 2962POPC   C1B40471  19.269   3.183   6.207
 2962POPC   C2B40472  19.245   3.119   6.605
 2962POPC   C3B40473  19.499   3.149   6.956
 2962POPC   C4B40474  19.322   3.288   7.300
 2963POPC   NC340475   8.582  10.745   5.481
 2963POPC   PO440476   7.921  10.474   5.470
 2963POPC   GL140477   8.011  10.318   5.844
 2963POPC   GL240478   8.379  10.251   5.847
 2963POPC   C1A40479   8.083  10.457   6.243
 2963POPC   D2A40480   7.923  10.327   6.609
 2963POPC   C3A40481   8.173  10.477   6.920
 2963POPC   C4A40482   8.008  10.532   7.299
 2963POPC   C1B40483   8.570  10.571   6.132
 2963POPC   C2B40484   8.544  10.660   6.580
 2963POPC   C3B40485   8.522  10.849   6.991
 2963POPC   C4B40486   8.442  10.741   7.411
 2964POPC   NC340487   4.693  39.017   5.465
 2964POPC   PO440488   5.326  39.075   5.453
 2964POPC   GL140489   5.007  39.296   5.773
 2964POPC   GL240490   4.811  39.629   5.747
 2964POPC   C1A40491   4.959  39.390   6.258
 2964POPC   D2A40492   4.891  39.334   6.746
 2964POPC   C3A40493   5.204  39.284   7.079
 2964POPC   C4A40494   5.405  39.336   7.500
 2964POPC   C1B40495   4.638  39.794   6.169
 2964POPC   C2B40496   4.697  39.810   6.620
 2964POPC   C3B40497   4.962  39.777   6.994
 2964POPC   C4B40498   5.208  39.847   7.361
 2965POPC   NC340499  24.305  42.034   5.271
 2965POPC   PO440500  24.816  42.421   5.151
 2965POPC   GL140501  24.682  42.316   5.606
 2965POPC   GL240502  24.393  42.486   5.783
 2965POPC   C1A40503  24.768  42.260   6.071
 2965POPC   D2A40504  24.828  42.064   6.492
 2965POPC   C3A40505  24.830  42.373   6.800
 2965POPC   C4A40506  24.577  42.421   7.135
 2965POPC   C1B40507  24.257  42.297   6.219
 2965POPC   C2B40508  24.348  42.205   6.676
 2965POPC   C3B40509  24.125  42.123   7.074
 2965POPC   C4B40510  24.089  42.028   7.550
 2966POPC   NC340511  26.466   9.696   5.503
 2966POPC   PO440512  27.073   9.947   5.443
 2966POPC   GL140513  26.878   9.744   5.827
 2966POPC   GL240514  26.671   9.465   5.898
 2966POPC   C1A40515  26.671   9.802   6.267
 2966POPC   D2A40516  26.519  10.095   6.590
 2966POPC   C3A40517  26.739  10.042   6.991
 2966POPC   C4A40518  26.765   9.676   7.158
 2966POPC   C1B40519  26.597   9.309   6.281
 2966POPC   C2B40520  26.679   9.457   6.677
 2966POPC   C3B40521  26.545   9.238   7.042
 2966POPC   C4B40522  26.566   9.195   7.503
 2967POPC   NC340523  23.970   9.547   5.353
 2967POPC   PO440524  23.541   9.969   5.315
 2967POPC   GL140525  23.608   9.846   5.740
 2967POPC   GL240526  23.972   9.815   5.792
 2967POPC   C1A40527  23.543   9.813   6.197
 2967POPC   D2A40528  23.734   9.873   6.626
 2967POPC   C3A40529  23.651   9.711   7.058
 2967POPC   C4A40530  23.905   9.455   7.369
 2967POPC   C1B40531  23.974  10.092   6.160
 2967POPC   C2B40532  24.048  10.276   6.573
 2967POPC   C3B40533  24.000  10.120   7.003
 2967POPC   C4B40534  23.989  10.004   7.405
 2968POPC   NC340535  13.160  18.914   5.492
 2968POPC   PO440536  12.583  19.237   5.307
 2968POPC   GL140537  12.674  19.229   5.742
 2968POPC   GL240538  12.960  19.373   5.676
 2968POPC   C1A40539  12.703  18.930   6.109
 2968POPC   D2A40540  12.552  18.932   6.582
 2968POPC   C3A40541  12.914  19.063   6.868
 2968POPC   C4A40542  13.058  18.830   7.229
 2968POPC   C1B40543  13.042  19.438   6.088
 2968POPC   C2B40544  12.811  19.321   6.423
 2968POPC   C3B40545  12.535  19.429   6.750
 2968POPC   C4B40546  12.807  19.540   7.084
 2969POPC   NC340547  18.395   9.296   5.223
 2969POPC   PO440548  18.482   9.927   5.097
 2969POPC   GL140549  18.429   9.831   5.623
 2969POPC   GL240550  18.305   9.458   5.726
 2969POPC   C1A40551  18.379   9.846   6.128
 2969POPC   D2A40552  18.315   9.918   6.617
 2969POPC   C3A40553  18.452   9.760   7.004
 2969POPC   C4A40554  18.772   9.779   7.263
 2969POPC   C1B40555  18.054   9.440   6.120
 2969POPC   C2B40556  18.177   9.414   6.539
 2969POPC   C3B40557  18.270   9.257   6.971
 2969POPC   C4B40558  18.380   9.370   7.387
 2970POPC   NC340559  37.252   6.806   5.428
 2970POPC   PO440560  37.779   6.314   5.378
 2970POPC   GL140561  37.710   6.447   5.765
 2970POPC   GL240562  37.658   6.822   5.761
 2970POPC   C1A40563  37.901   6.577   6.146
 2970POPC   D2A40564  37.937   6.810   6.527
 2970POPC   C3A40565  37.982   6.504   6.858
 2970POPC   C4A40566  37.700   6.462   7.184
 2970POPC   C1B40567  37.476   6.926   6.173
 2970POPC   C2B40568  37.513   7.105   6.599
 2970POPC   C3B40569  37.601   6.946   7.028
 2970POPC   C4B40570  37.384   6.987   7.430
 2971POPC   NC340571   8.072  23.534   5.474
 2971POPC   PO440572   8.647  23.337   5.389
 2971POPC   GL140573   8.486  23.617   5.762
 2971POPC   GL240574   8.297  23.951   5.754
 2971POPC   C1A40575   8.396  23.761   6.201
 2971POPC   D2A40576   8.223  23.765   6.591
 2971POPC   C3A40577   8.486  23.906   6.906
 2971POPC   C4A40578   8.446  23.706   7.278
 2971POPC   C1B40579   8.086  24.158   6.168
 2971POPC   C2B40580   7.916  24.142   6.626
 2971POPC   C3B40581   7.978  23.898   7.053
 2971POPC   C4B40582   7.672  23.874   7.427
 2972POPC   NC340583  31.339   8.565   5.368
 2972POPC   PO440584  31.766   7.987   5.504
 2972POPC   GL140585  31.569   8.215   5.809
 2972POPC   GL240586  31.799   8.500   5.776
 2972POPC   C1A40587  31.554   8.096   6.262
 2972POPC   D2A40588  31.381   8.185   6.704
 2972POPC   C3A40589  31.454   7.979   7.076
 2972POPC   C4A40590  31.175   7.995   7.458
 2972POPC   C1B40591  31.946   8.419   6.211
 2972POPC   C2B40592  31.907   8.194   6.621
 2972POPC   C3B40593  31.810   8.395   7.002
 2972POPC   C4B40594  31.514   8.412   7.313
 2973POPC   NC340595  30.966  42.862   5.644
 2973POPC   PO440596  30.972  42.202   5.411
 2973POPC   GL140597  30.909  42.352   5.837
 2973POPC   GL240598  30.579  42.487   5.965
 2973POPC   C1A40599  30.838  42.156   6.258
 2973POPC   D2A40600  30.712  42.364   6.634
 2973POPC   C3A40601  30.815  42.171   6.986
 2973POPC   C4A40602  30.481  42.045   7.177
 2973POPC   C1B40603  30.904  42.684   6.265
 2973POPC   C2B40604  31.103  42.693   6.687
 2973POPC   C3B40605  30.869  42.691   7.066
 2973POPC   C4B40606  30.427  42.547   7.095
 2974POPC   NC340607  23.128  37.029   5.469
 2974POPC   PO440608  22.774  36.525   5.531
 2974POPC   GL140609  22.788  36.831   5.833
 2974POPC   GL240610  22.595  37.115   5.678
 2974POPC   C1A40611  23.010  36.877   6.228
 2974POPC   D2A40612  23.269  36.935   6.608
 2974POPC   C3A40613  23.015  36.990   6.976
 2974POPC   C4A40614  22.629  36.821   7.117
 2974POPC   C1B40615  22.604  37.224   6.126
 2974POPC   C2B40616  22.670  37.082   6.573
 2974POPC   C3B40617  22.613  37.306   6.960
 2974POPC   C4B40618  22.301  37.413   7.275
 2975POPC   NC340619  32.190   8.162   5.407
 2975POPC   PO440620  32.811   8.097   5.552
 2975POPC   GL140621  32.560   7.928   5.858
 2975POPC   GL240622  32.264   8.146   5.902
 2975POPC   C1A40623  32.571   7.997   6.306
 2975POPC   D2A40624  32.385   8.349   6.522
 2975POPC   C3A40625  32.519   8.464   6.935
 2975POPC   C4A40626  32.418   8.278   7.316
 2975POPC   C1B40627  32.045   7.897   6.191
 2975POPC   C2B40628  32.199   7.737   6.570
 2975POPC   C3B40629  32.256   7.956   6.953
 2975POPC   C4B40630  31.958   7.992   7.289
 2976POPC   NC340631  18.815  24.287   5.508
 2976POPC   PO440632  19.279  24.837   5.402
 2976POPC   GL140633  19.067  24.653   5.832
 2976POPC   GL240634  18.721  24.527   5.943
 2976POPC   C1A40635  19.025  24.631   6.326
 2976POPC   D2A40636  19.048  24.342   6.712
 2976POPC   C3A40637  19.279  24.508   7.088
 2976POPC   C4A40638  19.387  24.810   7.465
 2976POPC   C1B40639  18.490  24.229   6.256
 2976POPC   C2B40640  18.478  24.025   6.643
 2976POPC   C3B40641  18.575  24.149   7.030
 2976POPC   C4B40642  18.788  24.479   7.144
 2977POPC   NC340643  17.280   9.937   5.147
 2977POPC   PO440644  17.132   9.254   5.392
 2977POPC   GL140645  17.416   9.534   5.680
 2977POPC   GL240646  17.781   9.557   5.672
 2977POPC   C1A40647  17.440   9.687   6.128
 2977POPC   D2A40648  17.349   9.974   6.488
 2977POPC   C3A40649  17.545   9.938   6.861
 2977POPC   C4A40650  17.577   9.734   7.251
 2977POPC   C1B40651  17.871   9.880   5.998
 2977POPC   C2B40652  17.845   9.806   6.461
 2977POPC   C3B40653  17.957   9.668   6.918
 2977POPC   C4B40654  18.073   9.782   7.364
 2978POPC   NC340655   0.376  40.998   5.278
 2978POPC   PO440656   0.354  40.354   5.414
 2978POPC   GL140657   0.598  40.683   5.668
 2978POPC   GL240658   0.412  40.998   5.768
 2978POPC   C1A40659   0.786  40.819   6.107
 2978POPC   D2A40660   0.898  40.638   6.546
 2978POPC   C3A40661   0.708  40.860   6.904
 2978POPC   C4A40662   0.684  40.730   7.340
 2978POPC   C1B40663   0.266  40.758   6.079
 2978POPC   C2B40664   0.387  40.824   6.486
 2978POPC   C3B40665   0.194  40.768   6.886
 2978POPC   C4B40666   0.201  40.589   7.283
 2979POPC   NC340667  22.760  23.258   5.304
 2979POPC   PO440668  23.255  23.767   5.168
 2979POPC   GL140669  23.096  23.577   5.566
 2979POPC   GL240670  22.719  23.655   5.610
 2979POPC   C1A40671  23.031  23.607   6.032
 2979POPC   D2A40672  23.053  23.426   6.453
 2979POPC   C3A40673  23.223  23.580   6.846
 2979POPC   C4A40674  23.066  23.759   7.203
 2979POPC   C1B40675  22.516  23.543   6.009
 2979POPC   C2B40676  22.547  23.540   6.451
 2979POPC   C3B40677  22.690  23.794   6.818
 2979POPC   C4B40678  22.582  23.616   7.226
 2980POPC   NC340679   8.425  18.878   5.438
 2980POPC   PO440680   7.831  19.143   5.410
 2980POPC   GL140681   8.090  19.099   5.785
 2980POPC   GL240682   8.443  19.241   5.811
 2980POPC   C1A40683   7.936  18.938   6.196
 2980POPC   D2A40684   8.034  19.085   6.608
 2980POPC   C3A40685   7.852  18.968   7.013
 2980POPC   C4A40686   8.149  19.169   7.245
 2980POPC   C1B40687   8.447  18.887   6.110
 2980POPC   C2B40688   8.542  18.794   6.549
 2980POPC   C3B40689   8.370  18.785   6.963
 2980POPC   C4B40690   8.522  18.782   7.380
 2981POPC   NC340691  31.246  36.206   5.382
 2981POPC   PO440692  30.597  36.193   5.355
 2981POPC   GL140693  30.824  36.117   5.723
 2981POPC   GL240694  30.661  35.820   5.834
 2981POPC   C1A40695  30.741  36.265   6.153
 2981POPC   D2A40696  30.636  36.086   6.553
 2981POPC   C3A40697  30.645  36.355   6.889
 2981POPC   C4A40698  30.680  36.223   7.304
 2981POPC   C1B40699  30.850  35.725   6.234
 2981POPC   C2B40700  31.063  35.808   6.630
 2981POPC   C3B40701  30.896  35.799   7.043
 2981POPC   C4B40702  31.093  35.934   7.420
 2982POPC   NC340703  14.931  36.229   5.385
 2982POPC   PO440704  15.617  35.922   5.318
 2982POPC   GL140705  15.396  35.918   5.751
 2982POPC   GL240706  15.340  36.246   5.825
 2982POPC   C1A40707  15.010  35.982   6.102
 2982POPC   D2A40708  14.980  36.259   6.533
 2982POPC   C3A40709  14.918  36.065   6.994
 2982POPC   C4A40710  15.074  36.159   7.426
 2982POPC   C1B40711  15.473  36.050   6.249
 2982POPC   C2B40712  15.428  35.964   6.690
 2982POPC   C3B40713  15.438  35.987   7.114
 2982POPC   C4B40714  15.538  36.340   7.381
 2983POPC   NC340715  22.317  28.285   5.191
 2983POPC   PO440716  21.762  28.468   5.419
 2983POPC   GL140717  22.096  28.395   5.726
 2983POPC   GL240718  22.443  28.553   5.642
 2983POPC   C1A40719  21.988  28.318   6.161
 2983POPC   D2A40720  22.181  28.245   6.555
 2983POPC   C3A40721  21.944  28.290   6.938
 2983POPC   C4A40722  22.175  28.152   7.279
 2983POPC   C1B40723  22.444  28.553   6.120
 2983POPC   C2B40724  22.421  28.709   6.568
 2983POPC   C3B40725  22.442  28.478   6.965
 2983POPC   C4B40726  22.728  28.322   7.306
 2984POPC   NC340727   4.584  14.712   5.261
 2984POPC   PO440728   4.169  14.179   5.226
 2984POPC   GL140729   4.354  14.335   5.699
 2984POPC   GL240730   4.486  14.702   5.762
 2984POPC   C1A40731   4.339  14.228   6.203
 2984POPC   D2A40732   4.329  14.032   6.660
 2984POPC   C3A40733   4.219  14.171   7.114
 2984POPC   C4A40734   4.502  14.333   7.452
 2984POPC   C1B40735   4.661  14.630   6.167
 2984POPC   C2B40736   4.653  14.434   6.599
 2984POPC   C3B40737   4.450  14.615   6.995
 2984POPC   C4B40738   4.665  14.817   7.348
 2985POPC   NC340739  27.924  17.682   5.387
 2985POPC   PO440740  28.660  17.749   5.435
 2985POPC   GL140741  28.441  17.535   5.747
 2985POPC   GL240742  28.121  17.655   5.854
 2985POPC   C1A40743  28.518  17.464   6.180
 2985POPC   D2A40744  28.599  17.651   6.590
 2985POPC   C3A40745  28.613  17.335   6.930
 2985POPC   C4A40746  28.538  17.403   7.374
 2985POPC   C1B40747  28.027  17.352   6.133
 2985POPC   C2B40748  28.227  17.284   6.549
 2985POPC   C3B40749  28.104  17.428   6.936
 2985POPC   C4B40750  28.042  17.531   7.340
 2986POPC   NC340751   9.340  10.495   5.516
 2986POPC   PO440752   8.656  10.238   5.373
 2986POPC   GL140753   8.903  10.360   5.742
 2986POPC   GL240754   9.173  10.104   5.826
 2986POPC   C1A40755   9.093  10.522   6.146
 2986POPC   D2A40756   9.094  10.800   6.504
 2986POPC   C3A40757   9.009  10.666   6.903
 2986POPC   C4A40758   8.889  10.512   7.291
 2986POPC   C1B40759   9.326  10.061   6.262
 2986POPC   C2B40760   9.448  10.389   6.567
 2986POPC   C3B40761   9.464  10.389   7.023
 2986POPC   C4B40762   9.252  10.127   7.322
 2987POPC   NC340763  32.714   6.648   5.354
 2987POPC   PO440764  32.890   7.147   5.583
 2987POPC   GL140765  32.819   6.763   5.841
 2987POPC   GL240766  32.489   6.536   5.808
 2987POPC   C1A40767  32.999   6.626   6.213
 2987POPC   D2A40768  33.253   6.716   6.552
 2987POPC   C3A40769  33.019   6.654   6.950
 2987POPC   C4A40770  32.767   6.613   7.335
 2987POPC   C1B40771  32.577   6.354   6.220
 2987POPC   C2B40772  32.867   6.238   6.579
 2987POPC   C3B40773  33.288   6.244   6.796
 2987POPC   C4B40774  33.494   6.418   7.141
 2988POPC   NC340775  37.247  11.471   5.404
 2988POPC   PO440776  37.681  11.026   5.017
 2988POPC   GL140777  37.704  11.192   5.532
 2988POPC   GL240778  37.790  10.923   5.797
 2988POPC   C1A40779  37.530  11.309   6.002
 2988POPC   D2A40780  37.425  11.335   6.481
 2988POPC   C3A40781  37.743  11.253   6.803
 2988POPC   C4A40782  37.767  11.418   7.226
 2988POPC   C1B40783  37.738  10.919   6.271
 2988POPC   C2B40784  37.465  10.839   6.626
 2988POPC   C3B40785  37.387  10.975   7.084
 2988POPC   C4B40786  37.532  11.004   7.550
 2989POPC   NC340787   5.941  31.753   5.164
 2989POPC   PO440788   5.834  32.314   5.327
 2989POPC   GL140789   5.951  32.173   5.749
 2989POPC   GL240790   6.031  32.494   5.871
 2989POPC   C1A40791   5.853  32.022   6.202
 2989POPC   D2A40792   5.841  32.277   6.622
 2989POPC   C3A40793   5.760  32.049   7.044
 2989POPC   C4A40794   5.552  32.110   7.453
 2989POPC   C1B40795   6.129  32.810   6.201
 2989POPC   C2B40796   6.253  32.691   6.625
 2989POPC   C3B40797   6.085  32.507   7.013
 2989POPC   C4B40798   5.748  32.552   7.294
 2990POPC   NC340799  13.851  26.538   5.382
 2990POPC   PO440800  13.708  27.220   5.417
 2990POPC   GL140801  13.873  26.910   5.719
 2990POPC   GL240802  13.561  26.883   5.882
 2990POPC   C1A40803  13.933  26.623   6.120
 2990POPC   D2A40804  13.697  26.765   6.503
 2990POPC   C3A40805  13.791  26.679   6.922
 2990POPC   C4A40806  13.663  26.591   7.354
 2990POPC   C1B40807  13.866  27.121   6.179
 2990POPC   C2B40808  14.096  27.128   6.529
 2990POPC   C3B40809  13.993  27.150   6.915
 2990POPC   C4B40810  13.940  27.025   7.319
 2991POPC   NC340811  29.137  17.733   5.370
 2991POPC   PO440812  29.109  17.017   5.423
 2991POPC   GL140813  28.989  17.366   5.693
 2991POPC   GL240814  29.331  17.475   5.748
 2991POPC   C1A40815  28.953  17.657   6.048
 2991POPC   D2A40816  29.062  17.435   6.443
 2991POPC   C3A40817  29.068  17.618   6.849
 2991POPC   C4A40818  29.053  17.325   7.201
 2991POPC   C1B40819  29.440  17.607   6.131
 2991POPC   C2B40820  29.496  17.770   6.535
 2991POPC   C3B40821  29.714  17.875   6.894
 2991POPC   C4B40822  29.475  17.641   7.175
 2992POPC   NC340823   2.640  12.921   5.164
 2992POPC   PO440824   2.540  13.502   5.524
 2992POPC   GL140825   2.471  13.736   5.858
 2992POPC   GL240826   2.536  14.061   5.746
 2992POPC   C1A40827   2.761  13.716   6.193
 2992POPC   D2A40828   3.077  13.711   6.487
 2992POPC   C3A40829   2.946  13.632   6.890
 2992POPC   C4A40830   3.050  13.349   7.224
 2992POPC   C1B40831   2.662  14.211   6.128
 2992POPC   C2B40832   2.805  14.154   6.562
 2992POPC   C3B40833   2.725  14.128   7.004
 2992POPC   C4B40834   2.816  13.827   7.358
 2993POPC   NC340835  43.954  13.279   5.483
 2993POPC   PO440836  43.562  13.765   5.353
 2993POPC   GL140837  43.895  13.818   5.665
 2993POPC   GL240838  43.851  13.532   5.895
 2993POPC   C1A40839  44.217  13.833   6.017
 2993POPC   D2A40840  44.053  13.549   6.369
 2993POPC   C3A40841  44.114  13.608   6.806
 2993POPC   C4A40842  44.160  13.434   7.219
 2993POPC   C1B40843  43.718  13.889   6.139
 2993POPC   C2B40844  43.741  13.910   6.585
 2993POPC   C3B40845  43.673  13.807   7.015
 2993POPC   C4B40846  43.842  13.802   7.400
 2994POPC   NC340847  16.277  37.253   5.365
 2994POPC   PO440848  16.179  37.893   5.483
 2994POPC   GL140849  16.246  37.534   5.795
 2994POPC   GL240850  16.009  37.261   5.838
 2994POPC   C1A40851  16.165  37.578   6.227
 2994POPC   D2A40852  16.194  37.716   6.615
 2994POPC   C3A40853  16.138  37.913   6.982
 2994POPC   C4A40854  16.011  37.720   7.340
 2994POPC   C1B40855  15.691  37.473   6.083
 2994POPC   C2B40856  15.686  37.701   6.490
 2994POPC   C3B40857  15.765  37.551   6.913
 2994POPC   C4B40858  15.649  37.349   7.321
 2995POPC   NC340859  23.690  32.284   5.372
 2995POPC   PO440860  24.229  31.975   5.658
 2995POPC   GL140861  23.907  32.310   5.834
 2995POPC   GL240862  23.521  32.222   5.852
 2995POPC   C1A40863  23.872  32.441   6.259
 2995POPC   D2A40864  24.133  32.148   6.515
 2995POPC   C3A40865  23.965  32.056   6.906
 2995POPC   C4A40866  23.802  32.302   7.203
 2995POPC   C1B40867  23.515  32.053   6.260
 2995POPC   C2B40868  23.506  32.172   6.693
 2995POPC   C3B40869  23.367  32.037   7.096
 2995POPC   C4B40870  23.199  31.880   7.507
 2996POPC   NC340871   0.716  42.569   5.473
 2996POPC   PO440872   0.767  41.959   5.727
 2996POPC   GL140873   0.370  42.107   5.933
 2996POPC   GL240874   0.313  42.445   5.820
 2996POPC   C1A40875   0.347  42.299   6.360
 2996POPC   D2A40876   0.646  42.411   6.722
 2996POPC   C3A40877   0.584  42.109   7.076
 2996POPC   C4A40878   0.486  42.103   7.510
 2996POPC   C1B40879   0.177  42.757   6.163
 2996POPC   C2B40880   0.201  42.704   6.644
 2996POPC   C3B40881   0.307  42.570   7.075
 2996POPC   C4B40882   0.266  42.584   7.521
 2997POPC   NC340883  40.470  20.261   5.457
 2997POPC   PO440884  41.129  20.490   5.418
 2997POPC   GL140885  40.913  20.633   5.751
 2997POPC   GL240886  41.137  20.907   5.800
 2997POPC   C1A40887  40.764  20.422   6.134
 2997POPC   D2A40888  40.620  20.292   6.534
 2997POPC   C3A40889  40.819  20.516   6.863
 2997POPC   C4A40890  40.663  20.600   7.266
 2997POPC   C1B40891  40.814  20.962   6.148
 2997POPC   C2B40892  40.604  20.923   6.572
 2997POPC   C3B40893  40.780  21.037   6.984
 2997POPC   C4B40894  40.895  21.027   7.408
 2998POPC   NC340895   4.248  17.091   5.350
 2998POPC   PO440896   4.230  17.786   5.474
 2998POPC   GL140897   4.129  17.568   5.815
 2998POPC   GL240898   4.453  17.398   5.777
 2998POPC   C1A40899   4.250  17.689   6.243
 2998POPC   D2A40900   4.069  17.690   6.662
 2998POPC   C3A40901   4.367  17.744   6.984
 2998POPC   C4A40902   4.694  17.478   7.130
 2998POPC   C1B40903   4.321  17.187   6.161
 2998POPC   C2B40904   4.362  17.279   6.610
 2998POPC   C3B40905   4.185  17.270   7.017
 2998POPC   C4B40906   4.448  17.075   7.314
 2999POPC   NC340907   6.697  10.817   5.750
 2999POPC   PO440908   7.014  10.295   5.592
 2999POPC   GL140909   6.792  10.346   5.973
 2999POPC   GL240910   6.791  10.012   6.031
 2999POPC   C1A40911   6.537  10.353   6.372
 2999POPC   D2A40912   6.631  10.653   6.697
 2999POPC   C3A40913   6.559  10.563   7.122
 2999POPC   C4A40914   6.324  10.840   7.422
 2999POPC   C1B40915   7.011  10.166   6.392
 2999POPC   C2B40916   6.854  10.180   6.807
 2999POPC   C3B40917   6.922  10.221   7.229
 2999POPC   C4B40918   6.814  10.163   7.679
 3000POPC   NC340919  16.804   0.525   5.266
 3000POPC   PO440920  16.921  44.971   5.713
 3000POPC   GL140921  16.721   0.367   5.755
 3000POPC   GL240922  16.375   0.428   5.851
 3000POPC   C1A40923  16.766   0.596   6.145
 3000POPC   D2A40924  16.540   0.542   6.527
 3000POPC   C3A40925  16.640   0.782   6.881
 3000POPC   C4A40926  16.738   0.776   7.297
 3000POPC   C1B40927  16.450   0.142   6.190
 3000POPC   C2B40928  16.687   0.027   6.554
 3000POPC   C3B40929  16.641   0.227   6.942
 3000POPC   C4B40930  16.992   0.361   7.176
 3001POPC   NC340931  39.421  27.538   5.353
 3001POPC   PO440932  38.998  27.984   5.224
 3001POPC   GL140933  39.005  27.617   5.630
 3001POPC   GL240934  39.315  27.741   5.835
 3001POPC   C1A40935  38.939  27.576   6.142
 3001POPC   D2A40936  38.818  27.472   6.579
 3001POPC   C3A40937  39.142  27.461   6.905
 3001POPC   C4A40938  39.159  27.637   7.330
 3001POPC   C1B40939  39.428  27.565   6.255
 3001POPC   C2B40940  39.642  27.738   6.614
 3001POPC   C3B40941  39.573  27.728   7.037
 3001POPC   C4B40942  39.652  27.544   7.456
 3002POPC   NC340943  43.532   3.210   5.570
 3002POPC   PO440944  43.833   3.644   5.094
 3002POPC   GL140945  43.830   3.614   5.578
 3002POPC   GL240946  44.169   3.608   5.717
 3002POPC   C1A40947  43.783   3.762   6.019
 3002POPC   D2A40948  43.785   3.917   6.435
 3002POPC   C3A40949  43.720   3.625   6.770
 3002POPC   C4A40950  43.761   3.663   7.225
 3002POPC   C1B40951  44.166   3.416   6.142
 3002POPC   C2B40952  44.052   3.292   6.553
 3002POPC   C3B40953  44.133   3.325   6.975
 3002POPC   C4B40954  44.285   3.675   7.192
 3003POPC   NC340955  26.680   3.947   5.589
 3003POPC   PO440956  27.035   4.533   5.549
 3003POPC   GL140957  26.910   4.345   5.874
 3003POPC   GL240958  26.544   4.317   5.901
 3003POPC   C1A40959  27.067   4.541   6.246
 3003POPC   D2A40960  27.087   4.361   6.650
 3003POPC   C3A40961  26.796   4.522   6.936
 3003POPC   C4A40962  26.458   4.583   7.231
 3003POPC   C1B40963  26.749   4.146   6.301
 3003POPC   C2B40964  26.580   4.077   6.681
 3003POPC   C3B40965  26.569   4.079   7.101
 3003POPC   C4B40966  26.470   4.145   7.506
 3004POPC   NC340967  32.015  18.164   5.287
 3004POPC   PO440968  32.642  18.399   5.312
 3004POPC   GL140969  32.412  18.206   5.684
 3004POPC   GL240970  32.049  18.100   5.789
 3004POPC   C1A40971  32.451  18.132   6.136
 3004POPC   D2A40972  32.239  18.152   6.510
 3004POPC   C3A40973  32.492  18.171   6.851
 3004POPC   C4A40974  32.327  18.188   7.236
 3004POPC   C1B40975  31.830  18.224   6.182
 3004POPC   C2B40976  31.932  18.543   6.501
 3004POPC   C3B40977  32.014  18.433   6.918
 3004POPC   C4B40978  31.827  18.202   7.249
 3005POPC   NC340979   2.510   6.810   5.439
 3005POPC   PO440980   2.976   6.295   5.350
 3005POPC   GL140981   2.831   6.574   5.741
 3005POPC   GL240982   2.946   6.937   5.713
 3005POPC   C1A40983   2.682   6.449   6.180
 3005POPC   D2A40984   2.830   6.599   6.585
 3005POPC   C3A40985   2.722   6.432   6.965
 3005POPC   C4A40986   2.726   6.630   7.381
 3005POPC   C1B40987   2.876   6.917   6.160
 3005POPC   C2B40988   2.840   7.105   6.581
 3005POPC   C3B40989   2.873   6.937   6.979
 3005POPC   C4B40990   3.213   6.651   7.106
 3006POPC   NC340991   8.150   1.860   5.454
 3006POPC   PO440992   8.580   2.337   5.642
 3006POPC   GL140993   8.296   2.405   5.971
 3006POPC   GL240994   8.095   2.162   5.862
 3006POPC   C1A40995   8.137   2.207   6.369
 3006POPC   D2A40996   8.337   1.828   6.554
 3006POPC   C3A40997   8.506   1.817   6.960
 3006POPC   C4A40998   8.342   1.836   7.382
 3006POPC   C1B40999   8.023   1.790   6.109
 3006POPC   C2B41000   7.845   1.718   6.518
 3006POPC   C3B41001   7.957   1.867   6.948
 3006POPC   C4B41002   7.864   1.683   7.352
 3007POPC   NC341003  16.268  40.336   5.544
 3007POPC   PO441004  15.984  39.740   5.330
 3007POPC   GL141005  16.003  39.788   5.792
 3007POPC   GL241006  16.300  39.658   5.846
 3007POPC   C1A41007  15.972  39.624   6.256
 3007POPC   D2A41008  16.128  39.677   6.678
 3007POPC   C3A41009  15.867  39.913   6.954
 3007POPC   C4A41010  15.941  40.258   7.256
 3007POPC   C1B41011  16.204  40.052   6.171
 3007POPC   C2B41012  16.174  40.260   6.568
 3007POPC   C3B41013  16.321  40.167   6.945
 3007POPC   C4B41014  16.283  39.829   7.262
 3008POPC   NC341015  32.348  31.032   5.370
 3008POPC   PO441016  32.107  30.391   5.288
 3008POPC   GL141017  32.202  30.489   5.732
 3008POPC   GL241018  32.302  30.830   5.848
 3008POPC   C1A41019  32.136  30.436   6.196
 3008POPC   D2A41020  32.278  30.650   6.594
 3008POPC   C3A41021  32.043  30.447   6.918
 3008POPC   C4A41022  32.101  30.167   7.237
 3008POPC   C1B41023  31.966  30.914   6.166
 3008POPC   C2B41024  31.806  30.831   6.609
 3008POPC   C3B41025  32.056  30.955   6.986
 3008POPC   C4B41026  32.416  30.722   7.176
 3009POPC   NC341027  37.583  34.060   5.561
 3009POPC   PO441028  37.831  33.392   5.315
 3009POPC   GL141029  37.747  33.565   5.723
 3009POPC   GL241030  38.036  33.816   5.685
 3009POPC   C1A41031  37.527  33.687   6.122
 3009POPC   D2A41032  37.438  33.977   6.470
 3009POPC   C3A41033  37.480  33.828   6.895
 3009POPC   C4A41034  37.381  33.719   7.319
 3009POPC   C1B41035  38.061  33.703   6.116
 3009POPC   C2B41036  37.996  33.846   6.534
 3009POPC   C3B41037  38.044  33.998   6.965
 3009POPC   C4B41038  37.929  33.695   7.260
 3010POPC   NC341039  27.157  12.925   5.404
 3010POPC   PO441040  27.821  12.933   5.218
 3010POPC   GL141041  27.587  12.950   5.691
 3010POPC   GL241042  27.298  12.705   5.835
 3010POPC   C1A41043  27.649  12.855   6.170
 3010POPC   D2A41044  27.450  12.966   6.581
 3010POPC   C3A41045  27.653  12.942   6.990
 3010POPC   C4A41046  27.502  13.110   7.395
 3010POPC   C1B41047  27.166  12.620   6.283
 3010POPC   C2B41048  27.153  12.579   6.764
 3010POPC   C3B41049  27.304  12.651   7.196
 3010POPC   C4B41050  27.254  12.712   7.631
 3011POPC   NC341051  21.535   9.509   5.295
 3011POPC   PO441052  20.992   9.912   5.454
 3011POPC   GL141053  21.262   9.824   5.766
 3011POPC   GL241054  21.341   9.487   5.784
 3011POPC   C1A41055  21.204   9.911   6.194
 3011POPC   D2A41056  21.365  10.063   6.563
 3011POPC   C3A41057  21.227   9.923   6.975
 3011POPC   C4A41058  21.628  10.016   7.166
 3011POPC   C1B41059  21.145   9.403   6.191
 3011POPC   C2B41060  21.217   9.549   6.624
 3011POPC   C3B41061  21.599   9.567   6.917
 3011POPC   C4B41062  21.738   9.272   7.257
 3012POPC   NC341063   2.025  20.155   5.382
 3012POPC   PO441064   1.614  19.603   5.446
 3012POPC   GL141065   1.782  19.814   5.730
 3012POPC   GL241066   1.636  20.114   5.714
 3012POPC   C1A41067   1.948  19.677   6.107
 3012POPC   D2A41068   1.903  19.823   6.496
 3012POPC   C3A41069   2.016  19.630   6.858
 3012POPC   C4A41070   2.160  19.903   7.144
 3012POPC   C1B41071   1.540  20.039   6.142
 3012POPC   C2B41072   1.607  20.233   6.514
 3012POPC   C3B41073   1.699  20.064   6.925
 3012POPC   C4B41074   1.594  20.055   7.357
 3013POPC   NC341075  14.025  21.074   5.626
 3013POPC   PO441076  14.630  21.450   5.475
 3013POPC   GL141077  14.363  21.384   5.856
 3013POPC   GL241078  14.166  21.652   5.884
 3013POPC   C1A41079  14.234  21.295   6.328
 3013POPC   D2A41080  14.513  21.409   6.709
 3013POPC   C3A41081  14.396  21.230   7.128
 3013POPC   C4A41082  14.583  20.956   7.440
 3013POPC   C1B41083  14.419  21.756   6.223
 3013POPC   C2B41084  14.171  21.782   6.592
 3013POPC   C3B41085  14.196  21.688   7.008
 3013POPC   C4B41086  14.271  21.669   7.415
 3014POPC   NC341087  38.065  22.361   5.283
 3014POPC   PO441088  37.551  22.017   5.434
 3014POPC   GL141089  37.770  22.293   5.736
 3014POPC   GL241090  38.132  22.340   5.802
 3014POPC   C1A41091  37.725  22.478   6.155
 3014POPC   D2A41092  37.448  22.399   6.514
 3014POPC   C3A41093  37.547  22.352   6.948
 3014POPC   C4A41094  37.362  21.990   7.115
 3014POPC   C1B41095  37.982  22.025   6.148
 3014POPC   C2B41096  37.825  22.000   6.595
 3014POPC   C3B41097  37.868  21.957   7.054
 3014POPC   C4B41098  37.701  22.046   7.484
 3015POPC   NC341099   7.270   8.427   5.319
 3015POPC   PO441100   7.618   7.855   5.208
 3015POPC   GL141101   7.404   8.093   5.665
 3015POPC   GL241102   7.504   8.437   5.772
 3015POPC   C1A41103   7.498   8.105   6.161
 3015POPC   D2A41104   7.728   8.207   6.546
 3015POPC   C3A41105   7.440   8.087   6.884
 3015POPC   C4A41106   7.243   7.784   7.198
 3015POPC   C1B41107   7.473   8.612   6.205
 3015POPC   C2B41108   7.238   8.477   6.588
 3015POPC   C3B41109   7.205   8.551   7.049
 3015POPC   C4B41110   7.607   8.511   7.236
 3016POPC   NC341111   5.595  20.383   5.271
 3016POPC   PO441112   5.910  20.884   5.577
 3016POPC   GL141113   5.768  20.520   5.834
 3016POPC   GL241114   5.514  20.230   5.762
 3016POPC   C1A41115   5.702  20.601   6.261
 3016POPC   D2A41116   5.863  20.974   6.511
 3016POPC   C3A41117   5.841  20.858   6.915
 3016POPC   C4A41118   5.902  20.691   7.296
 3016POPC   C1B41119   5.690  20.080   6.165
 3016POPC   C2B41120   5.778  20.142   6.599
 3016POPC   C3B41121   5.786  20.271   7.018
 3016POPC   C4B41122   5.492  20.398   7.321
 3017POPC   NC341123  32.480  25.852   5.255
 3017POPC   PO441124  31.833  25.908   5.263
 3017POPC   GL141125  32.130  25.781   5.630
 3017POPC   GL241126  32.353  26.100   5.726
 3017POPC   C1A41127  32.199  25.796   6.091
 3017POPC   D2A41128  32.058  26.073   6.407
 3017POPC   C3A41129  32.279  25.997   6.767
 3017POPC   C4A41130  32.277  25.932   7.183
 3017POPC   C1B41131  32.619  26.112   6.150
 3017POPC   C2B41132  32.717  26.227   6.601
 3017POPC   C3B41133  32.710  26.188   7.062
 3017POPC   C4B41134  32.557  26.227   7.493
 3018POPC   NC341135  43.452  11.339   5.447
 3018POPC   PO441136  44.042  11.240   5.230
 3018POPC   GL141137  44.006  11.138   5.675
 3018POPC   GL241138  43.866  11.391   5.826
 3018POPC   C1A41139  44.098  11.050   6.131
 3018POPC   D2A41140  44.070  11.333   6.477
 3018POPC   C3A41141  43.894  11.236   6.861
 3018POPC   C4A41142  44.104  11.301   7.223
 3018POPC   C1B41143  43.639  11.258   6.178
 3018POPC   C2B41144  43.441  11.190   6.554
 3018POPC   C3B41145  43.382  11.394   6.921
 3018POPC   C4B41146  43.580  11.423   7.290
 3019POPC   NC341147  34.063  19.547   5.453
 3019POPC   PO441148  34.441  20.110   5.486
 3019POPC   GL141149  34.505  19.874   5.841
 3019POPC   GL241150  34.806  19.674   5.898
 3019POPC   C1A41151  34.610  20.079   6.227
 3019POPC   D2A41152  34.772  20.229   6.624
 3019POPC   C3A41153  34.502  20.136   6.978
 3019POPC   C4A41154  34.674  20.014   7.374
 3019POPC   C1B41155  34.552  19.567   6.246
 3019POPC   C2B41156  34.589  19.748   6.627
 3019POPC   C3B41157  34.848  19.761   6.950
 3019POPC   C4B41158  34.581  19.527   7.204
 3020POPC   NC341159  11.823  13.411   5.357
 3020POPC   PO441160  12.489  13.689   5.309
 3020POPC   GL141161  12.245  13.765   5.659
 3020POPC   GL241162  11.962  13.976   5.549
 3020POPC   C1A41163  12.232  13.532   6.055
 3020POPC   D2A41164  12.493  13.397   6.419
 3020POPC   C3A41165  12.255  13.564   6.769
 3020POPC   C4A41166  12.080  13.476   7.165
 3020POPC   C1B41167  11.806  13.914   5.977
 3020POPC   C2B41168  11.891  13.789   6.419
 3020POPC   C3B41169  11.803  13.797   6.873
 3020POPC   C4B41170  11.653  14.100   7.148
 3021POPC   NC341171   9.921  17.037   5.326
 3021POPC   PO441172   9.565  16.486   5.190
 3021POPC   GL141173   9.652  16.652   5.607
 3021POPC   GL241174   9.894  16.511   5.819
 3021POPC   C1A41175   9.469  16.758   6.037
 3021POPC   D2A41176   9.535  16.640   6.482
 3021POPC   C3A41177   9.371  16.732   6.911
 3021POPC   C4A41178   9.600  16.675   7.314
 3021POPC   C1B41179   9.998  16.719   6.195
 3021POPC   C2B41180  10.153  16.668   6.585
 3021POPC   C3B41181   9.948  16.603   6.955
 3021POPC   C4B41182  10.094  16.809   7.322
 3022POPC   NC341183  11.396  34.896   5.168
 3022POPC   PO441184  10.975  34.369   5.386
 3022POPC   GL141185  11.077  34.548   5.808
 3022POPC   GL241186  11.316  34.787   5.676
 3022POPC   C1A41187  11.195  34.638   6.261
 3022POPC   D2A41188  11.245  34.759   6.720
 3022POPC   C3A41189  11.308  34.513   7.061
 3022POPC   C4A41190  10.984  34.405   7.383
 3022POPC   C1B41191  11.559  34.949   6.024
 3022POPC   C2B41192  11.667  34.797   6.416
 3022POPC   C3B41193  11.757  34.921   6.807
 3022POPC   C4B41194  11.492  35.063   7.107
 3023POPC   NC341195  42.556   7.429   5.481
 3023POPC   PO441196  41.905   7.427   5.522
 3023POPC   GL141197  42.206   7.305   5.904
 3023POPC   GL241198  42.613   7.280   5.955
 3023POPC   C1A41199  42.306   7.469   6.332
 3023POPC   D2A41200  42.685   7.467   6.582
 3023POPC   C3A41201  42.612   7.597   7.025
 3023POPC   C4A41202  42.339   7.553   7.404
 3023POPC   C1B41203  42.508   7.003   6.272
 3023POPC   C2B41204  42.356   7.041   6.666
 3023POPC   C3B41205  42.439   7.121   7.081
 3023POPC   C4B41206  42.123   7.108   7.362
 3024POPC   NC341207  39.014  30.645   5.519
 3024POPC   PO441208  39.604  30.416   5.445
 3024POPC   GL141209  39.419  30.570   5.829
 3024POPC   GL241210  39.596  30.344   6.004
 3024POPC   C1A41211  39.079  30.703   6.154
 3024POPC   D2A41212  39.061  30.592   6.581
 3024POPC   C3A41213  39.196  30.924   6.839
 3024POPC   C4A41214  39.104  30.894   7.268
 3024POPC   C1B41215  39.550  30.678   6.329
 3024POPC   C2B41216  39.601  30.615   6.746
 3024POPC   C3B41217  39.360  30.483   7.076
 3024POPC   C4B41218  39.564  30.494   7.462
 3025POPC   NC341219   5.540   8.969   5.281
 3025POPC   PO441220   6.138   9.094   5.247
 3025POPC   GL141221   5.930   8.866   5.653
 3025POPC   GL241222   5.628   8.626   5.680
 3025POPC   C1A41223   6.060   8.907   6.097
 3025POPC   D2A41224   6.106   8.822   6.569
 3025POPC   C3A41225   5.902   9.129   6.880
 3025POPC   C4A41226   5.986   9.143   7.329
 3025POPC   C1B41227   5.473   8.737   6.099
 3025POPC   C2B41228   5.587   8.902   6.521
 3025POPC   C3B41229   5.576   8.753   6.975
 3025POPC   C4B41230   5.497   8.936   7.393
 3026POPC   NC341231  10.194  10.981   5.555
 3026POPC   PO441232  10.763  11.320   5.415
 3026POPC   GL141233  10.543  11.349   5.791
 3026POPC   GL241234  10.651  11.082   5.881
 3026POPC   C1A41235  10.663  11.551   6.186
 3026POPC   D2A41236  10.484  11.809   6.509
 3026POPC   C3A41237  10.644  11.684   6.900
 3026POPC   C4A41238  10.490  11.422   7.238
 3026POPC   C1B41239  10.545  11.071   6.302
 3026POPC   C2B41240  10.517  11.235   6.701
 3026POPC   C3B41241  10.414  10.957   7.032
 3026POPC   C4B41242  10.378  10.912   7.472
 3027POPC   NC341243  24.061  14.925   5.268
 3027POPC   PO441244  23.429  14.838   5.144
 3027POPC   GL141245  23.578  15.057   5.600
 3027POPC   GL241246  23.950  15.129   5.750
 3027POPC   C1A41247  23.558  15.180   6.067
 3027POPC   D2A41248  23.662  15.051   6.484
 3027POPC   C3A41249  23.503  15.231   6.868
 3027POPC   C4A41250  23.524  15.011   7.256
 3027POPC   C1B41251  24.021  15.308   6.201
 3027POPC   C2B41252  24.001  15.416   6.654
 3027POPC   C3B41253  23.988  15.214   7.052
 3027POPC   C4B41254  23.985  14.995   7.434
 3028POPC   NC341255  36.680   5.334   5.421
 3028POPC   PO441256  36.674   4.730   5.472
 3028POPC   GL141257  36.925   4.992   5.793
 3028POPC   GL241258  37.000   5.360   5.862
 3028POPC   C1A41259  36.986   4.998   6.241
 3028POPC   D2A41260  36.855   5.219   6.618
 3028POPC   C3A41261  36.986   5.012   7.006
 3028POPC   C4A41262  36.903   4.967   7.457
 3028POPC   C1B41263  37.225   5.439   6.318
 3028POPC   C2B41264  37.255   5.460   6.813
 3028POPC   C3B41265  37.205   5.360   7.299
 3028POPC   C4B41266  37.218   5.224   7.795
 3029POPC   NC341267  35.418  13.597   5.148
 3029POPC   PO441268  34.808  13.781   5.290
 3029POPC   GL141269  35.137  13.588   5.583
 3029POPC   GL241270  35.365  13.847   5.713
 3029POPC   C1A41271  35.151  13.486   6.043
 3029POPC   D2A41272  35.475  13.568   6.393
 3029POPC   C3A41273  35.390  13.489   6.820
 3029POPC   C4A41274  35.588  13.350   7.178
 3029POPC   C1B41275  35.277  13.981   6.173
 3029POPC   C2B41276  35.281  13.968   6.650
 3029POPC   C3B41277  35.422  13.894   7.107
 3029POPC   C4B41278  35.197  13.991   7.487
 3030POPC   NC341279  34.012   5.303   5.061
 3030POPC   PO441280  33.905   4.801   5.300
 3030POPC   GL141281  33.829   4.776   5.814
 3030POPC   GL241282  33.949   5.051   6.027
 3030POPC   C1A41283  33.512   4.865   6.231
 3030POPC   D2A41284  33.403   5.186   6.625
 3030POPC   C3A41285  33.723   5.202   7.013
 3030POPC   C4A41286  33.853   5.053   7.465
 3030POPC   C1B41287  34.275   5.244   6.326
 3030POPC   C2B41288  34.228   5.295   6.815
 3030POPC   C3B41289  34.277   5.016   7.176
 3030POPC   C4B41290  34.361   5.109   7.636
 3031POPC   NC341291  30.517  20.022   5.442
 3031POPC   PO441292  30.496  19.307   5.354
 3031POPC   GL141293  30.629  19.572   5.704
 3031POPC   GL241294  30.311  19.726   5.821
 3031POPC   C1A41295  30.754  19.754   6.127
 3031POPC   D2A41296  30.876  19.659   6.562
 3031POPC   C3A41297  30.862  19.914   6.960
 3031POPC   C4A41298  30.855  19.718   7.378
 3031POPC   C1B41299  30.337  20.062   6.131
 3031POPC   C2B41300  30.546  20.057   6.552
 3031POPC   C3B41301  30.360  20.123   6.960
 3031POPC   C4B41302  30.371  19.850   7.286
 3032POPC   NC341303   8.481  19.695   5.258
 3032POPC   PO441304   7.863  19.916   5.443
 3032POPC   GL141305   8.104  19.622   5.674
 3032POPC   GL241306   8.391  19.851   5.743
 3032POPC   C1A41307   8.121  19.483   6.134
 3032POPC   D2A41308   8.165  19.696   6.549
 3032POPC   C3A41309   8.183  19.614   7.003
 3032POPC   C4A41310   8.549  19.622   7.280
 3032POPC   C1B41311   8.203  20.007   6.139
 3032POPC   C2B41312   8.191  20.207   6.582
 3032POPC   C3B41313   8.314  20.105   7.012
 3032POPC   C4B41314   8.238  19.985   7.427
 3033POPC   NC341315  21.375  32.008   5.292
 3033POPC   PO441316  21.536  32.650   5.399
 3033POPC   GL141317  21.314  32.407   5.676
 3033POPC   GL241318  21.562  32.148   5.737
 3033POPC   C1A41319  21.095  32.534   6.053
 3033POPC   D2A41320  21.309  32.600   6.460
 3033POPC   C3A41321  21.227  32.498   6.885
 3033POPC   C4A41322  21.508  32.447   7.227
 3033POPC   C1B41323  21.378  32.122   6.133
 3033POPC   C2B41324  21.379  32.100   6.549
 3033POPC   C3B41325  21.484  32.033   6.931
 3033POPC   C4B41326  21.384  31.968   7.339
 3034POPC   NC341327  24.361  11.782   5.484
 3034POPC   PO441328  24.724  11.172   5.532
 3034POPC   GL141329  24.645  11.479   5.828
 3034POPC   GL241330  24.315  11.410   5.860
 3034POPC   C1A41331  24.588  11.390   6.283
 3034POPC   D2A41332  24.297  11.279   6.586
 3034POPC   C3A41333  24.440  11.236   7.004
 3034POPC   C4A41334  24.188  10.966   7.251
 3034POPC   C1B41335  24.096  11.614   6.208
 3034POPC   C2B41336  24.038  11.720   6.656
 3034POPC   C3B41337  23.962  11.403   6.979
 3034POPC   C4B41338  24.116  11.445   7.394
 3035POPC   NC341339  19.336  28.108   5.378
 3035POPC   PO441340  18.819  28.424   5.208
 3035POPC   GL141341  18.975  28.502   5.668
 3035POPC   GL241342  19.193  28.252   5.834
 3035POPC   C1A41343  18.916  28.504   6.155
 3035POPC   D2A41344  18.842  28.308   6.555
 3035POPC   C3A41345  18.872  28.498   6.932
 3035POPC   C4A41346  18.699  28.328   7.257
 3035POPC   C1B41347  19.432  28.395   6.214
 3035POPC   C2B41348  19.324  28.491   6.649
 3035POPC   C3B41349  19.403  28.444   7.062
 3035POPC   C4B41350  19.384  28.571   7.498
 3036POPC   NC341351   2.736  18.895   5.459
 3036POPC   PO441352   3.169  19.373   5.448
 3036POPC   GL141353   2.976  19.211   5.834
 3036POPC   GL241354   2.612  19.299   5.782
 3036POPC   C1A41355   2.742  18.957   6.145
 3036POPC   D2A41356   2.516  18.956   6.538
 3036POPC   C3A41357   2.741  18.956   6.927
 3036POPC   C4A41358   2.527  18.871   7.287
 3036POPC   C1B41359   2.577  19.463   6.210
 3036POPC   C2B41360   2.694  19.447   6.642
 3036POPC   C3B41361   2.609  19.442   7.067
 3036POPC   C4B41362   2.841  19.293   7.402
 3037POPC   NC341363  19.516  20.581   5.540
 3037POPC   PO441364  18.942  20.389   5.204
 3037POPC   GL141365  19.026  20.534   5.673
 3037POPC   GL241366  19.078  20.893   5.668
 3037POPC   C1A41367  19.223  20.720   6.121
 3037POPC   D2A41368  19.234  20.830   6.596
 3037POPC   C3A41369  19.193  20.424   6.841
 3037POPC   C4A41370  18.866  20.231   7.089
 3037POPC   C1B41371  18.979  21.170   6.044
 3037POPC   C2B41372  18.808  21.157   6.470
 3037POPC   C3B41373  18.782  20.983   6.889
 3037POPC   C4B41374  19.104  20.814   7.153
 3038POPC   NC341375  34.090  30.468   5.250
 3038POPC   PO441376  33.560  30.908   5.140
 3038POPC   GL141377  33.737  30.927   5.606
 3038POPC   GL241378  33.482  31.011   5.898
 3038POPC   C1A41379  33.937  30.857   6.034
 3038POPC   D2A41380  33.840  31.031   6.459
 3038POPC   C3A41381  33.905  30.774   6.859
 3038POPC   C4A41382  34.034  30.662   7.287
 3038POPC   C1B41383  33.423  30.741   6.234
 3038POPC   C2B41384  33.392  30.792   6.670
 3038POPC   C3B41385  33.574  31.158   6.873
 3038POPC   C4B41386  33.796  31.118   7.243
 3039POPC   NC341387  38.655   1.296   5.274
 3039POPC   PO441388  38.173   0.771   5.296
 3039POPC   GL141389  38.316   1.077   5.596
 3039POPC   GL241390  38.173   0.906   5.848
 3039POPC   C1A41391  38.614   1.236   5.916
 3039POPC   D2A41392  38.645   1.243   6.375
 3039POPC   C3A41393  38.615   1.208   6.808
 3039POPC   C4A41394  38.452   1.365   7.163
 3039POPC   C1B41395  38.475   0.817   6.162
 3039POPC   C2B41396  38.452   0.729   6.586
 3039POPC   C3B41397  38.277   0.842   6.957
 3039POPC   C4B41398  38.469   0.899   7.318
 3040POPC   NC341399  25.909  10.890   5.595
 3040POPC   PO441400  26.087  11.362   5.167
 3040POPC   GL141401  26.153  11.347   5.653
 3040POPC   GL241402  26.372  11.077   5.791
 3040POPC   C1A41403  26.002  11.308   6.122
 3040POPC   D2A41404  26.035  11.201   6.582
 3040POPC   C3A41405  25.817  11.013   6.966
 3040POPC   C4A41406  25.932  11.273   7.326
 3040POPC   C1B41407  26.418  11.008   6.226
 3040POPC   C2B41408  26.500  10.985   6.657
 3040POPC   C3B41409  26.305  11.072   7.034
 3040POPC   C4B41410  26.121  10.813   7.374
 3041POPC   NC341411   9.584  44.343   5.601
 3041POPC   PO441412   9.911  43.801   5.473
 3041POPC   GL141413   9.844  43.954   5.836
 3041POPC   GL241414  10.051  44.246   5.793
 3041POPC   C1A41415   9.760  43.809   6.236
 3041POPC   D2A41416   9.576  43.780   6.606
 3041POPC   C3A41417   9.748  43.574   6.941
 3041POPC   C4A41418   9.638  43.805   7.332
 3041POPC   C1B41419   9.822  44.325   6.193
 3041POPC   C2B41420   9.965  44.195   6.565
 3041POPC   C3B41421   9.821  44.090   6.938
 3041POPC   C4B41422   9.981  44.200   7.306
 3042POPC   NC341423  39.682  24.782   5.414
 3042POPC   PO441424  40.108  24.233   5.188
 3042POPC   GL141425  40.043  24.386   5.649
 3042POPC   GL241426  40.022  24.729   5.793
 3042POPC   C1A41427  39.999  24.344   6.133
 3042POPC   D2A41428  39.958  24.570   6.546
 3042POPC   C3A41429  40.028  24.384   6.930
 3042POPC   C4A41430  40.327  24.185   7.183
 3042POPC   C1B41431  39.701  24.773   6.121
 3042POPC   C2B41432  39.547  24.894   6.548
 3042POPC   C3B41433  39.757  24.845   6.953
 3042POPC   C4B41434  40.032  24.740   7.306
 3043POPC   NC341435  26.242  20.925   4.879
 3043POPC   PO441436  25.882  21.372   5.303
 3043POPC   GL141437  25.928  21.460   5.736
 3043POPC   GL241438  26.285  21.357   5.797
 3043POPC   C1A41439  25.999  21.685   6.137
 3043POPC   D2A41440  26.134  21.852   6.535
 3043POPC   C3A41441  26.034  21.631   6.896
 3043POPC   C4A41442  26.268  21.429   7.209
 3043POPC   C1B41443  26.016  21.146   6.110
 3043POPC   C2B41444  25.938  21.295   6.502
 3043POPC   C3B41445  26.059  21.100   6.879
 3043POPC   C4B41446  25.904  21.027   7.259
 3044POPC   NC341447  28.635  21.670   5.421
 3044POPC   PO441448  28.541  20.991   5.372
 3044POPC   GL141449  28.367  21.314   5.784
 3044POPC   GL241450  28.167  21.642   5.945
 3044POPC   C1A41451  28.360  21.334   6.283
 3044POPC   D2A41452  28.725  21.395   6.556
 3044POPC   C3A41453  28.591  21.267   6.976
 3044POPC   C4A41454  28.389  21.303   7.385
 3044POPC   C1B41455  28.589  21.740   6.091
 3044POPC   C2B41456  28.735  21.909   6.486
 3044POPC   C3B41457  28.613  21.775   6.884
 3044POPC   C4B41458  28.796  21.682   7.265
 3045POPC   NC341459  25.424  29.038   5.222
 3045POPC   PO441460  24.811  29.224   5.327
 3045POPC   GL141461  25.016  29.300   5.716
 3045POPC   GL241462  25.122  28.972   5.702
 3045POPC   C1A41463  25.150  29.290   6.173
 3045POPC   D2A41464  25.013  29.435   6.599
 3045POPC   C3A41465  25.254  29.374   7.022
 3045POPC   C4A41466  25.293  29.410   7.501
 3045POPC   C1B41467  24.829  28.919   6.032
 3045POPC   C2B41468  24.859  28.958   6.469
 3045POPC   C3B41469  24.855  29.019   6.918
 3045POPC   C4B41470  25.076  28.993   7.307
 3046POPC   NC341471  23.330  39.462   5.404
 3046POPC   PO441472  22.763  39.084   5.508
 3046POPC   GL141473  23.002  39.072   5.885
 3046POPC   GL241474  23.067  39.447   5.849
 3046POPC   C1A41475  22.845  38.913   6.324
 3046POPC   D2A41476  22.580  39.208   6.615
 3046POPC   C3A41477  22.751  39.406   6.989
 3046POPC   C4A41478  23.057  39.176   7.210
 3046POPC   C1B41479  22.924  39.412   6.272
 3046POPC   C2B41480  23.109  39.242   6.652
 3046POPC   C3B41481  23.328  39.521   6.935
 3046POPC   C4B41482  23.147  39.675   7.296
 3047POPC   NC341483  22.536  21.765   5.430
 3047POPC   PO441484  23.109  22.224   5.450
 3047POPC   GL141485  23.038  22.219   5.849
 3047POPC   GL241486  22.696  22.188   5.765
 3047POPC   C1A41487  23.078  22.212   6.282
 3047POPC   D2A41488  22.913  21.992   6.619
 3047POPC   C3A41489  22.959  22.131   7.008
 3047POPC   C4A41490  23.132  22.153   7.404
 3047POPC   C1B41491  22.595  22.349   6.146
 3047POPC   C2B41492  22.497  22.275   6.562
 3047POPC   C3B41493  22.505  22.383   6.997
 3047POPC   C4B41494  22.615  22.165   7.384
 3048POPC   NC341495  13.003  36.692   4.912
 3048POPC   PO441496  12.857  37.147   5.444
 3048POPC   GL141497  12.726  37.017   5.864
 3048POPC   GL241498  13.068  37.013   5.919
 3048POPC   C1A41499  12.795  37.019   6.350
 3048POPC   D2A41500  12.742  37.028   6.800
 3048POPC   C3A41501  12.917  37.147   7.150
 3048POPC   C4A41502  12.689  37.412   7.390
 3048POPC   C1B41503  13.261  36.849   6.250
 3048POPC   C2B41504  13.126  36.708   6.647
 3048POPC   C3B41505  13.011  36.637   7.064
 3048POPC   C4B41506  12.992  36.737   7.496
 3049POPC   NC341507   1.338  22.468   5.561
 3049POPC   PO441508   1.037  21.846   5.432
 3049POPC   GL141509   1.195  21.860   5.881
 3049POPC   GL241510   1.155  22.199   5.968
 3049POPC   C1A41511   1.226  21.846   6.373
 3049POPC   D2A41512   1.267  22.017   6.818
 3049POPC   C3A41513   1.082  21.827   7.177
 3049POPC   C4A41514   1.245  21.595   7.565
 3049POPC   C1B41515   1.506  22.251   6.257
 3049POPC   C2B41516   1.645  22.359   6.682
 3049POPC   C3B41517   1.638  22.361   7.142
 3049POPC   C4B41518   1.273  22.262   7.391
 3050POPC   NC341519  37.565   5.420   5.378
 3050POPC   PO441520  37.915   4.850   5.425
 3050POPC   GL141521  37.803   5.186   5.766
 3050POPC   GL241522  37.450   5.133   5.783
 3050POPC   C1A41523  37.773   5.476   6.157
 3050POPC   D2A41524  37.710   5.344   6.602
 3050POPC   C3A41525  37.942   4.979   6.793
 3050POPC   C4A41526  38.078   4.984   7.226
 3050POPC   C1B41527  37.516   5.032   6.204
 3050POPC   C2B41528  37.361   4.969   6.621
 3050POPC   C3B41529  37.506   5.031   7.040
 3050POPC   C4B41530  37.418   4.915   7.448
 3051POPC   NC341531   5.503  14.809   5.585
 3051POPC   PO441532   4.997  14.491   5.249
 3051POPC   GL141533   4.913  14.393   5.736
 3051POPC   GL241534   5.111  14.625   5.902
 3051POPC   C1A41535   4.991  14.239   6.222
 3051POPC   D2A41536   5.142  14.222   6.688
 3051POPC   C3A41537   4.916  14.409   7.069
 3051POPC   C4A41538   4.987  14.460   7.532
 3051POPC   C1B41539   5.362  14.596   6.294
 3051POPC   C2B41540   5.393  14.679   6.746
 3051POPC   C3B41541   5.394  14.565   7.190
 3051POPC   C4B41542   5.482  14.574   7.650
 3052POPC   NC341543  27.096   4.734   5.134
 3052POPC   PO441544  26.589   5.090   5.420
 3052POPC   GL141545  26.960   5.030   5.693
 3052POPC   GL241546  26.754   4.823   5.909
 3052POPC   C1A41547  27.150   5.053   6.132
 3052POPC   D2A41548  26.910   4.961   6.520
 3052POPC   C3A41549  27.064   5.029   6.918
 3052POPC   C4A41550  26.905   4.886   7.298
 3052POPC   C1B41551  26.571   4.633   6.301
 3052POPC   C2B41552  26.412   4.753   6.711
 3052POPC   C3B41553  26.502   5.053   7.024
 3052POPC   C4B41554  26.443   5.047   7.481
 3053POPC   NC341555  22.885  37.999   5.433
 3053POPC   PO441556  23.193  37.444   5.308
 3053POPC   GL141557  22.948  37.507   5.690
 3053POPC   GL241558  23.065  37.269   5.909
 3053POPC   C1A41559  22.755  37.727   6.073
 3053POPC   D2A41560  22.857  37.986   6.452
 3053POPC   C3A41561  22.688  37.921   6.872
 3053POPC   C4A41562  22.726  37.683   7.259
 3053POPC   C1B41563  23.045  37.390   6.328
 3053POPC   C2B41564  22.977  37.533   6.689
 3053POPC   C3B41565  23.129  37.471   7.062
 3053POPC   C4B41566  23.208  37.265   7.450
 3054POPC   NC341567  13.847  24.467   5.402
 3054POPC   PO441568  13.139  24.235   5.459
 3054POPC   GL141569  13.462  24.434   5.741
 3054POPC   GL241570  13.678  24.106   5.744
 3054POPC   C1A41571  13.691  24.613   6.128
 3054POPC   D2A41572  13.752  24.810   6.594
 3054POPC   C3A41573  13.533  24.753   7.008
 3054POPC   C4A41574  13.777  24.663   7.375
 3054POPC   C1B41575  13.458  24.125   6.146
 3054POPC   C2B41576  13.469  24.370   6.553
 3054POPC   C3B41577  13.718  24.290   6.948
 3054POPC   C4B41578  13.513  24.237   7.355
 3055POPC   NC341579  38.253  32.034   5.446
 3055POPC   PO441580  38.249  31.407   5.177
 3055POPC   GL141581  38.219  31.488   5.656
 3055POPC   GL241582  38.520  31.678   5.772
 3055POPC   C1A41583  38.296  31.252   6.085
 3055POPC   D2A41584  38.323  31.117   6.554
 3055POPC   C3A41585  38.409  31.479   6.856
 3055POPC   C4A41586  38.222  31.800   7.174
 3055POPC   C1B41587  38.772  31.698   6.188
 3055POPC   C2B41588  38.799  31.801   6.642
 3055POPC   C3B41589  38.728  31.821   7.085
 3055POPC   C4B41590  38.775  31.631   7.493
 3056POPC   NC341591  27.059  28.955   5.553
 3056POPC   PO441592  26.559  29.413   5.475
 3056POPC   GL141593  26.876  29.323   5.836
 3056POPC   GL241594  27.117  29.546   5.987
 3056POPC   C1A41595  27.019  29.102   6.239
 3056POPC   D2A41596  26.826  28.909   6.609
 3056POPC   C3A41597  26.986  29.019   6.990
 3056POPC   C4A41598  27.145  28.839   7.336
 3056POPC   C1B41599  26.733  29.552   6.263
 3056POPC   C2B41600  26.734  29.416   6.689
 3056POPC   C3B41601  26.663  29.463   7.116
 3056POPC   C4B41602  26.818  29.221   7.434
 3057POPC   NC341603  20.233  26.191   5.450
 3057POPC   PO441604  19.660  25.739   5.377
 3057POPC   GL141605  19.765  26.057   5.683
 3057POPC   GL241606  19.832  26.390   5.713
 3057POPC   C1A41607  19.676  26.057   6.120
 3057POPC   D2A41608  19.945  26.164   6.457
 3057POPC   C3A41609  19.786  26.084   6.847
 3057POPC   C4A41610  20.017  26.176   7.227
 3057POPC   C1B41611  19.825  26.554   6.107
 3057POPC   C2B41612  19.586  26.535   6.452
 3057POPC   C3B41613  19.614  26.569   6.890
 3057POPC   C4B41614  19.527  26.349   7.245
 3058POPC   NC341615   9.420   8.109   4.976
 3058POPC   PO441616   9.912   8.113   5.429
 3058POPC   GL141617   9.919   8.153   5.866
 3058POPC   GL241618  10.073   8.479   5.843
 3058POPC   C1A41619   9.708   8.135   6.292
 3058POPC   D2A41620   9.561   8.017   6.738
 3058POPC   C3A41621   9.445   8.309   7.083
 3058POPC   C4A41622   9.452   8.392   7.526
 3058POPC   C1B41623  10.221   8.340   6.248
 3058POPC   C2B41624  10.088   8.145   6.625
 3058POPC   C3B41625   9.975   8.243   7.004
 3058POPC   C4B41626  10.185   8.049   7.301
 3059POPC   NC341627  31.955  23.703   5.355
 3059POPC   PO441628  32.640  23.766   5.428
 3059POPC   GL141629  32.620  23.501   5.761
 3059POPC   GL241630  32.242  23.500   5.747
 3059POPC   C1A41631  32.531  23.621   6.183
 3059POPC   D2A41632  32.347  23.807   6.534
 3059POPC   C3A41633  32.511  23.730   6.893
 3059POPC   C4A41634  32.391  23.804   7.269
 3059POPC   C1B41635  32.054  23.758   6.086
 3059POPC   C2B41636  31.847  23.781   6.505
 3059POPC   C3B41637  31.963  23.916   6.931
 3059POPC   C4B41638  31.919  24.023   7.379
 3060POPC   NC341639  27.397  11.147   5.410
 3060POPC   PO441640  27.894  11.143   5.768
 3060POPC   GL141641  27.433  11.207   5.936
 3060POPC   GL241642  27.205  11.479   5.794
 3060POPC   C1A41643  27.318  11.108   6.376
 3060POPC   D2A41644  27.524  10.967   6.782
 3060POPC   C3A41645  27.551  11.236   7.191
 3060POPC   C4A41646  27.449  11.132   7.642
 3060POPC   C1B41647  27.158  11.613   6.233
 3060POPC   C2B41648  27.341  11.703   6.672
 3060POPC   C3B41649  27.296  11.699   7.145
 3060POPC   C4B41650  27.389  11.759   7.579
 3061POPC   NC341651  24.149  22.948   5.380
 3061POPC   PO441652  24.786  22.779   5.386
 3061POPC   GL141653  24.575  22.996   5.722
 3061POPC   GL241654  24.873  22.951   5.871
 3061POPC   C1A41655  24.376  22.919   6.165
 3061POPC   D2A41656  24.413  22.982   6.647
 3061POPC   C3A41657  24.204  23.083   7.079
 3061POPC   C4A41658  24.159  22.925   7.536
 3061POPC   C1B41659  24.996  22.790   6.231
 3061POPC   C2B41660  24.931  22.930   6.637
 3061POPC   C3B41661  24.720  22.719   6.962
 3061POPC   C4B41662  24.609  22.877   7.340
 3062POPC   NC341663   3.955   8.003   5.229
 3062POPC   PO441664   3.312   7.758   5.223
 3062POPC   GL141665   3.498   7.999   5.630
 3062POPC   GL241666   3.838   8.120   5.728
 3062POPC   C1A41667   3.378   8.111   6.079
 3062POPC   D2A41668   3.515   7.968   6.522
 3062POPC   C3A41669   3.465   8.145   6.981
 3062POPC   C4A41670   3.444   8.360   7.428
 3062POPC   C1B41671   3.848   8.324   6.154
 3062POPC   C2B41672   3.722   8.453   6.590
 3062POPC   C3B41673   3.821   8.526   7.035
 3062POPC   C4B41674   3.924   8.235   7.320
 3063POPC   NC341675  29.020   3.282   5.554
 3063POPC   PO441676  28.759   2.689   5.358
 3063POPC   GL141677  29.004   2.796   5.774
 3063POPC   GL241678  29.357   2.908   5.719
 3063POPC   C1A41679  29.069   3.038   6.204
 3063POPC   D2A41680  29.077   3.199   6.667
 3063POPC   C3A41681  29.161   2.877   6.972
 3063POPC   C4A41682  28.924   2.517   7.144
 3063POPC   C1B41683  29.579   2.983   6.145
 3063POPC   C2B41684  29.635   2.807   6.594
 3063POPC   C3B41685  29.669   2.929   7.056
 3063POPC   C4B41686  29.515   2.826   7.507
 3064POPC   NC341687  39.324   4.779   5.421
 3064POPC   PO441688  39.142   4.196   5.283
 3064POPC   GL141689  39.129   4.403   5.718
 3064POPC   GL241690  38.955   4.693   5.793
 3064POPC   C1A41691  39.381   4.576   6.095
 3064POPC   D2A41692  39.297   4.404   6.542
 3064POPC   C3A41693  39.480   4.357   6.954
 3064POPC   C4A41694  39.403   4.117   7.323
 3064POPC   C1B41695  38.897   4.566   6.241
 3064POPC   C2B41696  38.805   4.539   6.704
 3064POPC   C3B41697  38.953   4.371   7.115
 3064POPC   C4B41698  39.142   4.527   7.502
 3065POPC   NC341699  26.106  17.265   5.296
 3065POPC   PO441700  26.273  17.730   5.790
 3065POPC   GL141701  26.210  17.338   5.982
 3065POPC   GL241702  25.946  17.295   5.783
 3065POPC   C1A41703  26.235  17.328   6.429
 3065POPC   D2A41704  26.372  17.696   6.680
 3065POPC   C3A41705  26.233  17.595   7.091
 3065POPC   C4A41706  25.941  17.723   7.405
 3065POPC   C1B41707  25.745  17.308   6.191
 3065POPC   C2B41708  25.728  17.481   6.605
 3065POPC   C3B41709  25.779  17.328   7.015
 3065POPC   C4B41710  26.032  17.045   7.241
 3066POPC   NC341711  34.785  19.807   5.409
 3066POPC   PO441712  35.389  20.037   5.176
 3066POPC   GL141713  35.253  19.885   5.597
 3066POPC   GL241714  34.990  20.125   5.735
 3066POPC   C1A41715  35.295  19.805   6.037
 3066POPC   D2A41716  35.033  19.786   6.390
 3066POPC   C3A41717  35.277  19.589   6.683
 3066POPC   C4A41718  35.416  19.663   7.081
 3066POPC   C1B41719  35.062  20.273   6.134
 3066POPC   C2B41720  35.282  20.228   6.492
 3066POPC   C3B41721  35.238  20.092   6.874
 3066POPC   C4B41722  35.001  20.335   7.106
 3067POPC   NC341723   9.492  28.125   5.482
 3067POPC   PO441724   9.950  28.583   5.439
 3067POPC   GL141725   9.754  28.456   5.800
 3067POPC   GL241726   9.837  28.170   5.890
 3067POPC   C1A41727   9.820  28.550   6.249
 3067POPC   D2A41728   9.741  28.319   6.625
 3067POPC   C3A41729   9.699  28.509   7.030
 3067POPC   C4A41730   9.681  28.247   7.399
 3067POPC   C1B41731   9.443  28.223   6.174
 3067POPC   C2B41732   9.346  27.975   6.545
 3067POPC   C3B41733   9.339  28.126   6.954
 3067POPC   C4B41734   9.012  28.042   7.232
 3068POPC   NC341735  26.420  38.720   5.500
 3068POPC   PO441736  25.899  38.250   5.421
 3068POPC   GL141737  25.862  38.452   5.816
 3068POPC   GL241738  26.221  38.415   5.874
 3068POPC   C1A41739  25.918  38.557   6.263
 3068POPC   D2A41740  26.033  38.374   6.659
 3068POPC   C3A41741  26.180  38.667   6.971
 3068POPC   C4A41742  25.922  38.811   7.332
 3068POPC   C1B41743  26.278  38.153   6.253
 3068POPC   C2B41744  26.322  37.931   6.664
 3068POPC   C3B41745  26.298  38.140   7.052
 3068POPC   C4B41746  25.937  38.315   7.255
 3069POPC   NC341747  12.264  39.702   5.483
 3069POPC   PO441748  12.412  40.360   5.485
 3069POPC   GL141749  12.266  40.075   5.836
 3069POPC   GL241750  11.922  39.916   5.797
 3069POPC   C1A41751  12.418  39.782   6.162
 3069POPC   D2A41752  12.495  39.653   6.606
 3069POPC   C3A41753  12.368  39.950   6.931
 3069POPC   C4A41754  12.367  40.371   7.125
 3069POPC   C1B41755  11.909  39.777   6.220
 3069POPC   C2B41756  11.980  39.722   6.674
 3069POPC   C3B41757  11.864  39.988   7.063
 3069POPC   C4B41758  11.672  39.808   7.494
 3070POPC   NC341759  13.855  39.184   5.322
 3070POPC   PO441760  14.033  38.625   5.690
 3070POPC   GL141761  13.942  38.975   5.878
 3070POPC   GL241762  13.793  39.304   5.829
 3070POPC   C1A41763  13.794  39.034   6.261
 3070POPC   D2A41764  13.618  38.828   6.543
 3070POPC   C3A41765  13.840  38.975   6.847
 3070POPC   C4A41766  13.761  39.166   7.189
 3070POPC   C1B41767  13.387  39.270   6.077
 3070POPC   C2B41768  13.376  39.276   6.505
 3070POPC   C3B41769  13.500  39.487   6.854
 3070POPC   C4B41770  13.707  39.661   7.207
 3071POPC   NC341771  42.442  39.873   5.385
 3071POPC   PO441772  42.069  40.453   5.276
 3071POPC   GL141773  42.278  40.276   5.689
 3071POPC   GL241774  42.053  39.967   5.722
 3071POPC   C1A41775  42.607  40.292   6.084
 3071POPC   D2A41776  42.807  40.172   6.514
 3071POPC   C3A41777  42.574  40.099   6.913
 3071POPC   C4A41778  42.606  40.268   7.332
 3071POPC   C1B41779  42.325  39.869   6.068
 3071POPC   C2B41780  42.280  39.785   6.496
 3071POPC   C3B41781  42.262  39.673   6.914
 3071POPC   C4B41782  42.584  39.484   7.105
 3072POPC   NC341783  24.104  28.182   5.152
 3072POPC   PO441784  23.490  28.107   5.432
 3072POPC   GL141785  23.528  28.325   5.845
 3072POPC   GL241786  23.293  28.465   5.921
 3072POPC   C1A41787  23.702  28.492   6.213
 3072POPC   D2A41788  23.881  28.550   6.581
 3072POPC   C3A41789  23.892  28.144   6.780
 3072POPC   C4A41790  23.744  28.149   7.189
 3072POPC   C1B41791  23.214  28.417   6.354
 3072POPC   C2B41792  23.384  28.408   6.742
 3072POPC   C3B41793  23.537  28.656   7.038
 3072POPC   C4B41794  23.629  28.610   7.434
 3073POPC   NC341795   8.378   5.988   5.578
 3073POPC   PO441796   7.763   5.638   5.664
 3073POPC   GL141797   8.154   5.708   5.930
 3073POPC   GL241798   8.213   6.103   6.022
 3073POPC   C1A41799   8.477   5.779   6.276
 3073POPC   D2A41800   8.490   5.960   6.709
 3073POPC   C3A41801   8.363   5.683   7.029
 3073POPC   C4A41802   8.249   5.690   7.450
 3073POPC   C1B41803   7.956   5.916   6.343
 3073POPC   C2B41804   7.720   5.957   6.689
 3073POPC   C3B41805   7.890   5.880   7.088
 3073POPC   C4B41806   8.181   6.162   7.268
 3074POPC   NC341807  10.811  33.962   5.576
 3074POPC   PO441808  11.470  33.794   5.273
 3074POPC   GL141809  11.354  33.751   5.720
 3074POPC   GL241810  11.264  34.072   5.764
 3074POPC   C1A41811  11.273  33.541   6.156
 3074POPC   D2A41812  11.300  33.365   6.601
 3074POPC   C3A41813  11.459  33.576   6.966
 3074POPC   C4A41814  11.188  33.625   7.259
 3074POPC   C1B41815  11.131  34.123   6.190
 3074POPC   C2B41816  11.257  34.254   6.608
 3074POPC   C3B41817  11.115  34.046   6.985
 3074POPC   C4B41818  11.361  34.095   7.357
 3075POPC   NC341819  33.477   9.936   5.405
 3075POPC   PO441820  33.962   9.550   5.198
 3075POPC   GL141821  33.960   9.636   5.681
 3075POPC   GL241822  34.263   9.559   5.868
 3075POPC   C1A41823  33.876   9.645   6.182
 3075POPC   D2A41824  33.931   9.947   6.572
 3075POPC   C3A41825  33.767   9.902   7.006
 3075POPC   C4A41826  33.832  10.046   7.423
 3075POPC   C1B41827  34.351   9.392   6.285
 3075POPC   C2B41828  34.170   9.266   6.672
 3075POPC   C3B41829  33.962   9.410   7.051
 3075POPC   C4B41830  33.633   9.483   7.301
 3076POPC   NC341831  28.307  43.496   5.555
 3076POPC   PO441832  28.552  43.050   5.135
 3076POPC   GL141833  28.560  43.070   5.642
 3076POPC   GL241834  28.360  42.849   5.818
 3076POPC   C1A41835  28.527  43.162   6.162
 3076POPC   D2A41836  28.269  43.304   6.552
 3076POPC   C3A41837  28.482  43.224   6.969
 3076POPC   C4A41838  28.646  43.334   7.379
 3076POPC   C1B41839  28.046  42.936   6.203
 3076POPC   C2B41840  27.941  42.821   6.637
 3076POPC   C3B41841  28.005  43.028   7.031
 3076POPC   C4B41842  27.947  42.948   7.467
 3077POPC   NC341843  21.806  36.648   4.861
 3077POPC   PO441844  21.247  36.804   5.213
 3077POPC   GL141845  21.143  36.807   5.677
 3077POPC   GL241846  21.471  36.940   5.776
 3077POPC   C1A41847  21.081  36.860   6.133
 3077POPC   D2A41848  21.290  36.992   6.518
 3077POPC   C3A41849  21.048  36.999   6.871
 3077POPC   C4A41850  21.238  37.041   7.246
 3077POPC   C1B41851  21.634  36.846   6.156
 3077POPC   C2B41852  21.637  36.605   6.532
 3077POPC   C3B41853  21.723  36.838   6.879
 3077POPC   C4B41854  21.641  36.750   7.264
 3078POPC   NC341855  42.139   4.265   5.558
 3078POPC   PO441856  42.683   3.868   5.452
 3078POPC   GL141857  42.641   4.228   5.755
 3078POPC   GL241858  42.465   4.550   5.839
 3078POPC   C1A41859  42.735   4.255   6.197
 3078POPC   D2A41860  42.883   4.268   6.603
 3078POPC   C3A41861  42.523   4.305   6.813
 3078POPC   C4A41862  42.398   4.475   7.177
 3078POPC   C1B41863  42.265   4.492   6.273
 3078POPC   C2B41864  42.196   4.681   6.705
 3078POPC   C3B41865  41.911   4.572   7.064
 3078POPC   C4B41866  42.024   4.546   7.494
 3079POPC   NC341867  10.718  34.742   5.491
 3079POPC   PO441868  10.399  34.122   5.360
 3079POPC   GL141869  10.533  34.356   5.754
 3079POPC   GL241870  10.285  34.617   5.802
 3079POPC   C1A41871  10.690  34.548   6.173
 3079POPC   D2A41872  10.757  34.838   6.546
 3079POPC   C3A41873  10.460  34.860   6.908
 3079POPC   C4A41874  10.598  34.763   7.340
 3079POPC   C1B41875  10.203  34.380   6.165
 3079POPC   C2B41876  10.335  34.378   6.569
 3079POPC   C3B41877  10.195  34.277   6.977
 3079POPC   C4B41878  10.131  34.603   7.261
 3080POPC   NC341879  24.170  39.795   5.549
 3080POPC   PO441880  24.608  39.296   5.275
 3080POPC   GL141881  24.640  39.313   5.742
 3080POPC   GL241882  24.414  39.055   5.905
 3080POPC   C1A41883  24.689  39.374   6.215
 3080POPC   D2A41884  24.417  39.169   6.551
 3080POPC   C3A41885  24.473  39.191   7.004
 3080POPC   C4A41886  24.682  39.420   7.322
 3080POPC   C1B41887  24.186  39.401   6.141
 3080POPC   C2B41888  24.050  39.525   6.557
 3080POPC   C3B41889  23.961  39.326   6.951
 3080POPC   C4B41890  24.096  39.373   7.355
 3081POPC   NC341891  15.801  40.964   5.453
 3081POPC   PO441892  16.299  41.435   5.299
 3081POPC   GL141893  16.228  41.373   5.723
 3081POPC   GL241894  16.254  41.036   5.689
 3081POPC   C1A41895  15.996  41.495   6.104
 3081POPC   D2A41896  15.736  41.656   6.447
 3081POPC   C3A41897  15.825  41.538   6.875
 3081POPC   C4A41898  15.696  41.720   7.275
 3081POPC   C1B41899  16.054  40.997   6.094
 3081POPC   C2B41900  15.984  41.146   6.524
 3081POPC   C3B41901  16.220  41.168   6.924
 3081POPC   C4B41902  16.321  41.428   7.290
 3082POPC   NC341903  37.066  23.977   5.475
 3082POPC   PO441904  37.102  23.343   5.627
 3082POPC   GL141905  36.890  23.667   5.844
 3082POPC   GL241906  36.727  23.428   5.991
 3082POPC   C1A41907  36.929  23.976   6.168
 3082POPC   D2A41908  37.032  24.029   6.626
 3082POPC   C3A41909  37.031  23.683   6.963
 3082POPC   C4A41910  37.296  23.345   7.171
 3082POPC   C1B41911  36.707  23.570   6.365
 3082POPC   C2B41912  36.546  23.815   6.643
 3082POPC   C3B41913  36.516  23.615   7.031
 3082POPC   C4B41914  36.497  23.659   7.443
 3083POPC   NC341915  22.133  19.303   5.171
 3083POPC   PO441916  21.919  18.845   5.634
 3083POPC   GL141917  22.046  18.923   5.991
 3083POPC   GL241918  22.362  18.991   5.863
 3083POPC   C1A41919  22.001  19.066   6.392
 3083POPC   D2A41920  21.838  18.814   6.711
 3083POPC   C3A41921  21.629  19.064   6.956
 3083POPC   C4A41922  21.716  19.358   7.265
 3083POPC   C1B41923  22.431  18.805   6.296
 3083POPC   C2B41924  22.399  18.970   6.725
 3083POPC   C3B41925  22.259  19.078   7.164
 3083POPC   C4B41926  22.333  18.868   7.558
 3084POPC   NC341927   4.328  12.313   5.561
 3084POPC   PO441928   4.233  11.606   5.445
 3084POPC   GL141929   4.183  11.839   5.820
 3084POPC   GL241930   4.504  11.947   5.886
 3084POPC   C1A41931   4.200  11.944   6.279
 3084POPC   D2A41932   4.046  12.056   6.629
 3084POPC   C3A41933   4.165  11.957   7.012
 3084POPC   C4A41934   3.945  12.139   7.356
 3084POPC   C1B41935   4.664  12.147   6.276
 3084POPC   C2B41936   4.550  12.162   6.680
 3084POPC   C3B41937   4.495  12.376   7.034
 3084POPC   C4B41938   4.431  12.188   7.420
 3085POPC   NC341939  26.648  22.708   5.275
 3085POPC   PO441940  27.181  23.101   5.358
 3085POPC   GL141941  26.977  22.927   5.734
 3085POPC   GL241942  26.614  22.795   5.777
 3085POPC   C1A41943  27.011  22.997   6.182
 3085POPC   D2A41944  27.096  22.821   6.590
 3085POPC   C3A41945  26.981  23.069   6.977
 3085POPC   C4A41946  26.995  23.043   7.459
 3085POPC   C1B41947  26.483  22.962   6.191
 3085POPC   C2B41948  26.592  22.986   6.624
 3085POPC   C3B41949  26.462  23.008   7.064
 3085POPC   C4B41950  26.498  22.966   7.509
 3086POPC   NC341951  12.910   7.028   5.439
 3086POPC   PO441952  12.724   6.395   5.408
 3086POPC   GL141953  12.989   6.531   5.757
 3086POPC   GL241954  13.294   6.755   5.692
 3086POPC   C1A41955  12.948   6.437   6.217
 3086POPC   D2A41956  13.071   6.462   6.655
 3086POPC   C3A41957  12.729   6.510   7.015
 3086POPC   C4A41958  12.376   6.740   7.280
 3086POPC   C1B41959  13.284   6.816   6.167
 3086POPC   C2B41960  13.226   6.957   6.605
 3086POPC   C3B41961  13.198   6.783   7.023
 3086POPC   C4B41962  13.162   6.549   7.397
 3087POPC   NC341963  10.059  34.445   5.341
 3087POPC   PO441964   9.540  34.770   5.421
 3087POPC   GL141965   9.756  34.576   5.789
 3087POPC   GL241966   9.741  34.206   5.704
 3087POPC   C1A41967   9.848  34.720   6.260
 3087POPC   D2A41968   9.940  34.651   6.739
 3087POPC   C3A41969   9.796  34.947   7.063
 3087POPC   C4A41970   9.359  34.977   7.168
 3087POPC   C1B41971   9.724  34.178   6.165
 3087POPC   C2B41972   9.839  34.087   6.608
 3087POPC   C3B41973   9.714  34.115   7.044
 3087POPC   C4B41974   9.630  34.496   7.263
 3088POPC   NC341975  11.839  29.385   5.376
 3088POPC   PO441976  12.518  29.529   5.482
 3088POPC   GL141977  12.276  29.162   5.746
 3088POPC   GL241978  11.916  29.135   5.806
 3088POPC   C1A41979  12.182  29.053   6.220
 3088POPC   D2A41980  11.999  29.230   6.615
 3088POPC   C3A41981  12.168  29.252   7.031
 3088POPC   C4A41982  11.944  29.476   7.308
 3088POPC   C1B41983  11.713  28.866   6.092
 3088POPC   C2B41984  11.716  28.780   6.544
 3088POPC   C3B41985  11.726  28.960   6.972
 3088POPC   C4B41986  11.870  28.950   7.380
 3089POPC   NC341987   0.180   2.737   5.432
 3089POPC   PO441988   0.322   3.385   5.452
 3089POPC   GL141989   0.232   3.107   5.797
 3089POPC   GL241990   0.572   2.957   5.767
 3089POPC   C1A41991   0.284   2.854   6.221
 3089POPC   D2A41992   0.135   2.777   6.691
 3089POPC   C3A41993   0.382   2.538   7.016
 3089POPC   C4A41994   0.654   2.290   7.300
 3089POPC   C1B41995   0.776   2.987   6.207
 3089POPC   C2B41996   0.651   2.874   6.676
 3089POPC   C3B41997   0.466   3.042   7.096
 3089POPC   C4B41998   0.524   3.434   7.363
 3090POPC   NC341999  15.140  38.873   5.398
 3090POPC   PO442000  15.468  38.298   5.355
 3090POPC   GL142001  15.271  38.487   5.758
 3090POPC   GL242002  14.960  38.710   5.845
 3090POPC   C1A42003  15.098  38.353   6.170
 3090POPC   D2A42004  14.853  38.570   6.486
 3090POPC   C3A42005  15.113  38.673   6.836
 3090POPC   C4A42006  15.031  38.453   7.212
 3090POPC   C1B42007  15.183  38.863   6.231
 3090POPC   C2B42008  15.428  39.023   6.577
 3090POPC   C3B42009  15.450  39.045   7.037
 3090POPC   C4B42010  15.230  38.865   7.385
 3091POPC   NC342011  17.408  27.245   5.353
 3091POPC   PO442012  17.793  26.717   5.239
 3091POPC   GL142013  17.751  26.931   5.684
 3091POPC   GL242014  17.434  27.080   5.862
 3091POPC   C1A42015  17.796  26.922   6.171
 3091POPC   D2A42016  17.774  26.792   6.623
 3091POPC   C3A42017  17.819  27.042   7.005
 3091POPC   C4A42018  17.592  27.073   7.389
 3091POPC   C1B42019  17.237  26.921   6.263
 3091POPC   C2B42020  17.251  26.748   6.703
 3091POPC   C3B42021  17.186  26.875   7.138
 3091POPC   C4B42022  17.222  26.795   7.610
 3092POPC   NC342023  23.357  40.982   5.581
 3092POPC   PO442024  23.819  40.594   5.272
 3092POPC   GL142025  23.890  40.547   5.851
 3092POPC   GL242026  23.550  40.588   5.873
 3092POPC   C1A42027  23.939  40.821   6.247
 3092POPC   D2A42028  23.742  41.053   6.603
 3092POPC   C3A42029  23.768  40.758   6.939
 3092POPC   C4A42030  23.846  40.701   7.363
 3092POPC   C1B42031  23.433  40.803   6.230
 3092POPC   C2B42032  23.379  40.682   6.599
 3092POPC   C3B42033  23.284  40.868   6.946
 3092POPC   C4B42034  23.409  41.024   7.255
 3093POPC   NC342035  44.444  10.235   5.637
 3093POPC   PO442036  44.730  10.748   5.240
 3093POPC   GL142037  44.910  10.681   5.720
 3093POPC   GL242038  44.939  10.325   5.848
 3093POPC   C1A42039  44.921  10.756   6.168
 3093POPC   D2A42040  44.866  10.649   6.602
 3093POPC   C3A42041  44.455  10.613   6.807
 3093POPC   C4A42042  44.479  10.834   7.193
 3093POPC   C1B42043  44.693  10.310   6.214
 3093POPC   C2B42044  44.603  10.165   6.563
 3093POPC   C3B42045  44.704  10.040   6.926
 3093POPC   C4B42046  44.621  10.337   7.230
 3094POPC   NC342047  41.651  37.353   5.445
 3094POPC   PO442048  41.348  37.990   5.405
 3094POPC   GL142049  41.492  37.695   5.792
 3094POPC   GL242050  41.877  37.611   5.804
 3094POPC   C1A42051  41.594  37.500   6.219
 3094POPC   D2A42052  41.570  37.471   6.675
 3094POPC   C3A42053  41.412  37.832   6.882
 3094POPC   C4A42054  41.282  37.778   7.277
 3094POPC   C1B42055  41.880  37.937   6.096
 3094POPC   C2B42056  41.724  37.961   6.502
 3094POPC   C3B42057  41.912  37.852   6.888
 3094POPC   C4B42058  41.741  37.593   7.188
 3095POPC   NC342059  13.190  31.652   4.789
 3095POPC   PO442060  12.828  31.482   5.159
 3095POPC   GL142061  12.832  31.353   5.663
 3095POPC   GL242062  12.508  31.375   5.844
 3095POPC   C1A42063  12.863  31.467   6.171
 3095POPC   D2A42064  12.692  31.607   6.602
 3095POPC   C3A42065  12.790  31.355   6.981
 3095POPC   C4A42066  13.132  31.427   7.269
 3095POPC   C1B42067  12.358  31.661   6.187
 3095POPC   C2B42068  12.200  31.738   6.622
 3095POPC   C3B42069  12.390  31.663   7.058
 3095POPC   C4B42070  12.593  31.494   7.451
 3096POPC   NC342071  44.820  24.353   5.312
 3096POPC   PO442072  44.969  24.958   5.436
 3096POPC   GL142073  44.686  24.689   5.703
 3096POPC   GL242074  44.648  24.339   5.809
 3096POPC   C1A42075  44.536  24.736   6.132
 3096POPC   D2A42076  44.417  24.443   6.442
 3096POPC   C3A42077  44.378  24.527   6.870
 3096POPC   C4A42078  44.211  24.620   7.286
 3096POPC   C1B42079  44.799  24.134   6.198
 3096POPC   C2B42080  44.770  24.137   6.666
 3096POPC   C3B42081  44.879  24.360   7.067
 3096POPC   C4B42082   0.112  24.327   7.480
 3097POPC   NC342083  32.150  10.047   5.473
 3097POPC   PO442084  32.410   9.489   5.219
 3097POPC   GL142085  32.165   9.495   5.653
 3097POPC   GL242086  32.221   9.773   5.872
 3097POPC   C1A42087  32.024   9.407   6.140
 3097POPC   D2A42088  32.227   9.364   6.589
 3097POPC   C3A42089  32.075   9.539   6.981
 3097POPC   C4A42090  31.690   9.681   7.215
 3097POPC   C1B42091  31.967   9.938   6.208
 3097POPC   C2B42092  32.084   9.971   6.642
 3097POPC   C3B42093  32.256  10.015   7.056
 3097POPC   C4B42094  32.161   9.875   7.472
 3098POPC   NC342095  29.394  38.364   5.331
 3098POPC   PO442096  28.802  38.722   5.475
 3098POPC   GL142097  29.041  38.420   5.733
 3098POPC   GL242098  29.320  38.612   5.756
 3098POPC   C1A42099  29.229  38.166   6.084
 3098POPC   D2A42100  29.370  38.268   6.492
 3098POPC   C3A42101  29.052  38.314   6.817
 3098POPC   C4A42102  29.196  38.311   7.219
 3098POPC   C1B42103  29.482  38.644   6.135
 3098POPC   C2B42104  29.595  38.753   6.528
 3098POPC   C3B42105  29.585  38.536   6.922
 3098POPC   C4B42106  29.519  38.668   7.362
 3099POPC   NC342107   5.477  11.549   5.393
 3099POPC   PO442108   5.965  11.142   5.494
 3099POPC   GL142109   5.824  11.426   5.782
 3099POPC   GL242110   5.628  11.178   5.938
 3099POPC   C1A42111   5.798  11.603   6.201
 3099POPC   D2A42112   6.010  11.534   6.596
 3099POPC   C3A42113   5.899  11.281   6.942
 3099POPC   C4A42114   5.843  11.410   7.378
 3099POPC   C1B42115   5.729  11.085   6.382
 3099POPC   C2B42116   5.659  10.844   6.761
 3099POPC   C3B42117   5.718  10.895   7.231
 3099POPC   C4B42118   5.556  11.034   7.647
 3100POPC   NC342119  30.138  29.375   5.478
 3100POPC   PO442120  29.510  29.064   5.350
 3100POPC   GL142121  29.700  29.238   5.743
 3100POPC   GL242122  30.011  29.010   5.815
 3100POPC   C1A42123  29.861  29.333   6.178
 3100POPC   D2A42124  30.125  29.079   6.452
 3100POPC   C3A42125  30.179  29.321   6.835
 3100POPC   C4A42126  29.884  29.527   7.133
 3100POPC   C1B42127  29.841  28.675   6.075
 3100POPC   C2B42128  29.890  28.590   6.530
 3100POPC   C3B42129  30.123  28.767   6.880
 3100POPC   C4B42130  30.020  29.012   7.243
 3101POPC   NC342131  14.927  41.367   5.445
 3101POPC   PO442132  15.633  41.380   5.536
 3101POPC   GL142133  15.296  41.524   5.782
 3101POPC   GL242134  15.210  41.175   5.822
 3101POPC   C1A42135  15.130  41.836   6.095
 3101POPC   D2A42136  15.186  42.031   6.516
 3101POPC   C3A42137  15.320  41.841   6.921
 3101POPC   C4A42138  15.201  41.811   7.374
 3101POPC   C1B42139  14.965  41.333   6.152
 3101POPC   C2B42140  15.016  41.549   6.530
 3101POPC   C3B42141  15.032  41.411   6.920
 3101POPC   C4B42142  15.379  41.359   7.141
 3102POPC   NC342143  28.626  28.677   5.382
 3102POPC   PO442144  27.983  28.333   5.340
 3102POPC   GL142145  28.232  28.568   5.704
 3102POPC   GL242146  28.531  28.340   5.776
 3102POPC   C1A42147  28.446  28.689   6.134
 3102POPC   D2A42148  28.597  28.448   6.517
 3102POPC   C3A42149  28.430  28.573   6.938
 3102POPC   C4A42150  28.136  28.420   7.270
 3102POPC   C1B42151  28.622  28.057   6.146
 3102POPC   C2B42152  28.615  27.906   6.595
 3102POPC   C3B42153  28.451  28.051   7.005
 3102POPC   C4B42154  28.474  28.069   7.481
 3103POPC   NC342155  15.100   5.154   5.278
 3103POPC   PO442156  15.445   5.036   5.791
 3103POPC   GL142157  15.022   4.982   5.821
 3103POPC   GL242158  14.916   4.672   5.690
 3103POPC   C1A42159  14.877   5.131   6.228
 3103POPC   D2A42160  15.110   5.337   6.596
 3103POPC   C3A42161  15.010   5.267   7.018
 3103POPC   C4A42162  15.122   5.405   7.407
 3103POPC   C1B42163  14.905   4.616   6.177
 3103POPC   C2B42164  15.029   4.805   6.619
 3103POPC   C3B42165  15.070   4.754   7.105
 3103POPC   C4B42166  15.080   4.930   7.584
 3104POPC   NC342167  33.843  28.805   5.485
 3104POPC   PO442168  33.587  29.439   5.375
 3104POPC   GL142169  33.822  29.345   5.720
 3104POPC   GL242170  33.582  29.103   5.851
 3104POPC   C1A42171  34.074  29.296   6.104
 3104POPC   D2A42172  34.029  29.040   6.480
 3104POPC   C3A42173  33.894  28.957   6.894
 3104POPC   C4A42174  34.039  29.090   7.270
 3104POPC   C1B42175  33.580  29.260   6.287
 3104POPC   C2B42176  33.530  29.296   6.741
 3104POPC   C3B42177  33.699  29.422   7.130
 3104POPC   C4B42178  33.624  29.344   7.584
 3105POPC   NC342179  44.704  28.442   5.152
 3105POPC   PO442180  44.297  28.484   5.596
 3105POPC   GL142181  44.552  28.534   5.933
 3105POPC   GL242182  44.392  28.841   6.041
 3105POPC   C1A42183  44.791  28.336   6.282
 3105POPC   D2A42184  44.806  28.058   6.572
 3105POPC   C3A42185  44.648  28.201   6.957
 3105POPC   C4A42186  44.841  28.400   7.259
 3105POPC   C1B42187  44.348  28.568   6.411
 3105POPC   C2B42188  44.292  28.548   6.849
 3105POPC   C3B42189  44.350  28.548   7.289
 3105POPC   C4B42190  44.285  28.539   7.763
 3106POPC   NC342191  15.655  27.092   5.463
 3106POPC   PO442192  16.138  26.677   5.575
 3106POPC   GL142193  16.023  26.797   5.910
 3106POPC   GL242194  15.676  26.809   5.871
 3106POPC   C1A42195  16.168  26.952   6.280
 3106POPC   D2A42196  15.896  26.941   6.622
 3106POPC   C3A42197  16.101  27.019   6.988
 3106POPC   C4A42198  16.170  26.612   7.120
 3106POPC   C1B42199  15.451  26.778   6.228
 3106POPC   C2B42200  15.441  26.540   6.595
 3106POPC   C3B42201  15.463  26.784   6.936
 3106POPC   C4B42202  15.721  26.761   7.252
 3107POPC   NC342203  40.590   5.745   5.111
 3107POPC   PO442204  41.220   5.938   5.175
 3107POPC   GL142205  40.969   5.865   5.603
 3107POPC   GL242206  40.608   5.753   5.661
 3107POPC   C1A42207  40.873   5.931   6.074
 3107POPC   D2A42208  40.681   5.960   6.489
 3107POPC   C3A42209  40.803   5.765   6.850
 3107POPC   C4A42210  40.888   5.836   7.267
 3107POPC   C1B42211  40.391   5.756   6.118
 3107POPC   C2B42212  40.321   5.574   6.549
 3107POPC   C3B42213  40.451   5.418   6.984
 3107POPC   C4B42214  40.510   5.532   7.455
 3108POPC   NC342215  38.462   3.032   5.403
 3108POPC   PO442216  38.368   2.406   5.303
 3108POPC   GL142217  38.406   2.602   5.750
 3108POPC   GL242218  38.361   2.954   5.881
 3108POPC   C1A42219  38.489   2.546   6.220
 3108POPC   D2A42220  38.763   2.668   6.583
 3108POPC   C3A42221  38.590   2.773   7.012
 3108POPC   C4A42222  38.349   2.870   7.425
 3108POPC   C1B42223  38.635   3.052   6.227
 3108POPC   C2B42224  38.455   3.115   6.630
 3108POPC   C3B42225  38.358   3.230   7.040
 3108POPC   C4B42226  38.699   3.200   7.315
 3109POPC   NC342227  12.148  35.015   5.527
 3109POPC   PO442228  12.243  35.676   5.328
 3109POPC   GL142229  12.205  35.465   5.773
 3109POPC   GL242230  11.879  35.311   5.869
 3109POPC   C1A42231  12.261  35.298   6.219
 3109POPC   D2A42232  12.105  35.352   6.675
 3109POPC   C3A42233  12.085  35.181   7.120
 3109POPC   C4A42234  11.833  34.979   7.468
 3109POPC   C1B42235  11.895  35.664   6.184
 3109POPC   C2B42236  12.005  35.849   6.588
 3109POPC   C3B42237  11.890  35.688   7.001
 3109POPC   C4B42238  12.145  35.643   7.347
 3110POPC   NC342239  42.757  29.712   5.271
 3110POPC   PO442240  42.320  30.262   5.405
 3110POPC   GL142241  42.414  30.041   5.782
 3110POPC   GL242242  42.514  29.655   5.732
 3110POPC   C1A42243  42.389  30.172   6.232
 3110POPC   D2A42244  42.193  30.223   6.637
 3110POPC   C3A42245  42.439  30.153   6.972
 3110POPC   C4A42246  42.392  30.074   7.401
 3110POPC   C1B42247  42.300  29.684   6.120
 3110POPC   C2B42248  42.415  29.754   6.545
 3110POPC   C3B42249  42.312  29.606   6.922
 3110POPC   C4B42250  42.426  29.579   7.319
 3111POPC   NC342251  40.963  38.973   5.602
 3111POPC   PO442252  40.595  38.401   5.600
 3111POPC   GL142253  40.715  38.396   5.966
 3111POPC   GL242254  40.681  38.744   5.987
 3111POPC   C1A42255  40.975  38.156   6.227
 3111POPC   D2A42256  41.249  38.216   6.578
 3111POPC   C3A42257  41.012  38.143   6.963
 3111POPC   C4A42258  40.989  38.438   7.316
 3111POPC   C1B42259  40.784  38.649   6.413
 3111POPC   C2B42260  40.511  38.582   6.773
 3111POPC   C3B42261  40.582  38.726   7.191
 3111POPC   C4B42262  40.511  38.621   7.631
 3112POPC   NC342263  22.928  18.770   5.463
 3112POPC   PO442264  22.529  18.238   5.451
 3112POPC   GL142265  22.747  18.305   5.834
 3112POPC   GL242266  22.726  18.645   5.914
 3112POPC   C1A42267  22.876  18.068   6.220
 3112POPC   D2A42268  22.702  17.939   6.637
 3112POPC   C3A42269  22.782  18.162   7.034
 3112POPC   C4A42270  23.111  18.119   7.338
 3112POPC   C1B42271  22.982  18.553   6.264
 3112POPC   C2B42272  23.132  18.298   6.605
 3112POPC   C3B42273  23.244  18.440   6.983
 3112POPC   C4B42274  22.961  18.634   7.270
 3113POPC   NC342275  31.133  26.230   5.346
 3113POPC   PO442276  31.159  25.582   5.519
 3113POPC   GL142277  31.275  25.909   5.766
 3113POPC   GL242278  31.636  25.895   5.791
 3113POPC   C1A42279  31.312  26.106   6.181
 3113POPC   D2A42280  31.545  26.113   6.578
 3113POPC   C3A42281  31.288  26.069   6.956
 3113POPC   C4A42282  31.309  26.252   7.346
 3113POPC   C1B42283  31.714  25.735   6.221
 3113POPC   C2B42284  31.834  25.693   6.661
 3113POPC   C3B42285  31.809  26.005   7.021
 3113POPC   C4B42286  31.808  25.860   7.459
 3114POPC   NC342287  30.740   5.479   5.046
 3114POPC   PO442288  30.287   5.865   5.383
 3114POPC   GL142289  30.578   5.854   5.752
 3114POPC   GL242290  30.832   6.110   5.757
 3114POPC   C1A42291  30.721   5.812   6.212
 3114POPC   D2A42292  30.530   5.931   6.654
 3114POPC   C3A42293  30.753   5.798   7.009
 3114POPC   C4A42294  30.998   5.621   7.310
 3114POPC   C1B42295  30.932   6.279   6.180
 3114POPC   C2B42296  30.999   6.083   6.557
 3114POPC   C3B42297  30.960   6.277   6.932
 3114POPC   C4B42298  30.698   6.248   7.271
 3115POPC   NC342299  24.900  15.131   5.455
 3115POPC   PO442300  24.262  15.334   5.386
 3115POPC   GL142301  24.467  15.323   5.788
 3115POPC   GL242302  24.474  14.958   5.762
 3115POPC   C1A42303  24.510  15.340   6.255
 3115POPC   D2A42304  24.351  15.051   6.609
 3115POPC   C3A42305  24.494  15.245   6.981
 3115POPC   C4A42306  24.685  15.476   7.277
 3115POPC   C1B42307  24.789  14.884   6.079
 3115POPC   C2B42308  24.850  15.034   6.482
 3115POPC   C3B42309  24.770  14.843   6.859
 3115POPC   C4B42310  24.894  14.942   7.261
 3116POPC   NC342311  12.226  23.444   5.325
 3116POPC   PO442312  11.705  22.994   5.311
 3116POPC   GL142313  11.916  23.161   5.679
 3116POPC   GL242314  12.170  22.921   5.712
 3116POPC   C1A42315  12.061  23.244   6.127
 3116POPC   D2A42316  11.811  23.385   6.498
 3116POPC   C3A42317  12.016  23.244   6.876
 3116POPC   C4A42318  12.161  22.968   7.196
 3116POPC   C1B42319  11.985  22.718   6.086
 3116POPC   C2B42320  11.935  22.866   6.497
 3116POPC   C3B42321  11.778  22.766   6.881
 3116POPC   C4B42322  11.787  22.466   7.181
 3117POPC   NC342323  14.235  15.833   5.325
 3117POPC   PO442324  14.805  16.238   5.426
 3117POPC   GL142325  14.482  16.043   5.722
 3117POPC   GL242326  14.580  15.685   5.670
 3117POPC   C1A42327  14.238  16.068   6.139
 3117POPC   D2A42328  14.356  16.174   6.597
 3117POPC   C3A42329  14.136  16.094   6.968
 3117POPC   C4A42330  14.254  16.309   7.335
 3117POPC   C1B42331  14.536  15.577   6.084
 3117POPC   C2B42332  14.318  15.669   6.456
 3117POPC   C3B42333  14.347  15.631   6.865
 3117POPC   C4B42334  14.459  15.820   7.239
 3118POPC   NC342335  39.914  36.637   5.426
 3118POPC   PO442336  40.542  36.561   5.432
 3118POPC   GL142337  40.277  36.889   5.696
 3118POPC   GL242338  40.023  37.194   5.721
 3118POPC   C1A42339  40.205  36.899   6.147
 3118POPC   D2A42340  39.838  36.960   6.413
 3118POPC   C3A42341  39.855  36.822   6.838
 3118POPC   C4A42342  39.709  36.611   7.213
 3118POPC   C1B42343  40.204  37.415   6.116
 3118POPC   C2B42344  40.231  37.248   6.559
 3118POPC   C3B42345  40.145  37.227   7.002
 3118POPC   C4B42346  40.147  36.887   7.287
 3119POPC   NC342347  10.816  18.475   5.444
 3119POPC   PO442348  10.135  18.322   5.435
 3119POPC   GL142349  10.403  18.242   5.783
 3119POPC   GL242350  10.692  17.989   5.685
 3119POPC   C1A42351  10.306  18.307   6.265
 3119POPC   D2A42352  10.302  18.622   6.650
 3119POPC   C3A42353  10.435  18.526   7.107
 3119POPC   C4A42354  10.603  18.191   7.402
 3119POPC   C1B42355  10.799  18.147   6.106
 3119POPC   C2B42356  10.686  18.032   6.550
 3119POPC   C3B42357  10.826  18.187   6.955
 3119POPC   C4B42358  10.949  18.564   7.218
 3120POPC   NC342359   2.638  28.539   5.469
 3120POPC   PO442360   3.265  28.868   5.499
 3120POPC   GL142361   3.134  28.584   5.842
 3120POPC   GL242362   2.939  28.332   5.836
 3120POPC   C1A42363   2.875  28.577   6.259
 3120POPC   D2A42364   2.705  28.597   6.674
 3120POPC   C3A42365   2.773  28.367   7.077
 3120POPC   C4A42366   2.992  28.379   7.490
 3120POPC   C1B42367   2.796  28.082   6.221
 3120POPC   C2B42368   2.556  28.089   6.631
 3120POPC   C3B42369   2.348  28.034   7.045
 3120POPC   C4B42370   2.117  28.297   7.361
 3121POPC   NC342371   0.773  13.317   5.507
 3121POPC   PO442372   0.312  13.637   5.103
 3121POPC   GL142373   0.275  13.580   5.608
 3121POPC   GL242374   0.389  13.871   5.855
 3121POPC   C1A42375   0.329  13.373   6.021
 3121POPC   D2A42376   0.478  13.195   6.416
 3121POPC   C3A42377   0.306  13.365   6.801
 3121POPC   C4A42378   0.529  13.416   7.178
 3121POPC   C1B42379   0.653  13.732   6.208
 3121POPC   C2B42380   0.701  13.661   6.640
 3121POPC   C3B42381   0.636  13.940   6.974
 3121POPC   C4B42382   0.636  13.876   7.388
 3122POPC   NC342383  18.945  34.083   5.099
 3122POPC   PO442384  19.126  33.558   5.359
 3122POPC   GL142385  18.986  33.862   5.697
 3122POPC   GL242386  19.257  34.051   5.865
 3122POPC   C1A42387  18.889  33.907   6.166
 3122POPC   D2A42388  19.068  33.969   6.566
 3122POPC   C3A42389  18.804  33.820   6.888
 3122POPC   C4A42390  18.772  33.978   7.296
 3122POPC   C1B42391  19.396  33.768   6.202
 3122POPC   C2B42392  19.566  33.582   6.573
 3122POPC   C3B42393  19.466  33.468   6.986
 3122POPC   C4B42394  19.179  33.700   7.194
 3123POPC   NC342395  36.800  17.845   5.567
 3123POPC   PO442396  37.194  18.522   5.484
 3123POPC   GL142397  36.951  18.309   5.774
 3123POPC   GL242398  37.175  18.080   5.799
 3123POPC   C1A42399  36.732  18.163   6.157
 3123POPC   D2A42400  36.712  18.391   6.532
 3123POPC   C3A42401  36.727  18.172   6.925
 3123POPC   C4A42402  36.875  18.409   7.270
 3123POPC   C1B42403  37.107  17.832   6.162
 3123POPC   C2B42404  37.000  17.932   6.561
 3123POPC   C3B42405  37.035  17.736   6.939
 3123POPC   C4B42406  37.014  17.927   7.313
 3124POPC   NC342407  36.322  29.705   5.309
 3124POPC   PO442408  35.810  30.067   5.179
 3124POPC   GL142409  36.078  30.068   5.590
 3124POPC   GL242410  35.998  29.735   5.719
 3124POPC   C1A42411  36.129  30.098   6.072
 3124POPC   D2A42412  35.919  30.192   6.495
 3124POPC   C3A42413  36.126  30.131   6.905
 3124POPC   C4A42414  35.914  29.963   7.256
 3124POPC   C1B42415  36.123  29.527   6.092
 3124POPC   C2B42416  36.134  29.699   6.489
 3124POPC   C3B42417  36.049  29.604   6.896
 3124POPC   C4B42418  36.328  29.605   7.190
 3125POPC   NC342419   3.947  38.288   5.083
 3125POPC   PO442420   4.456  38.584   5.466
 3125POPC   GL142421   4.306  38.350   5.869
 3125POPC   GL242422   3.947  38.357   5.977
 3125POPC   C1A42423   4.319  38.236   6.322
 3125POPC   D2A42424   4.477  38.038   6.693
 3125POPC   C3A42425   4.266  38.138   7.074
 3125POPC   C4A42426   4.421  38.188   7.486
 3125POPC   C1B42427   4.023  38.659   6.309
 3125POPC   C2B42428   4.166  38.568   6.732
 3125POPC   C3B42429   4.249  38.694   7.156
 3125POPC   C4B42430   3.895  38.715   7.401
 3126POPC   NC342431  27.322   0.935   5.453
 3126POPC   PO442432  27.219   1.584   5.702
 3126POPC   GL142433  27.543   1.380   5.889
 3126POPC   GL242434  27.586   1.011   5.890
 3126POPC   C1A42435  27.498   1.282   6.318
 3126POPC   D2A42436  27.776   1.257   6.639
 3126POPC   C3A42437  27.567   1.280   7.020
 3126POPC   C4A42438  27.768   1.228   7.397
 3126POPC   C1B42439  27.492   0.768   6.255
 3126POPC   C2B42440  27.405   0.875   6.692
 3126POPC   C3B42441  27.566   0.767   7.107
 3126POPC   C4B42442  27.519   0.827   7.559
 3127POPC   NC342443  36.677  42.930   5.377
 3127POPC   PO442444  37.192  43.406   5.479
 3127POPC   GL142445  36.868  43.257   5.750
 3127POPC   GL242446  37.014  42.927   5.769
 3127POPC   C1A42447  36.779  43.126   6.181
 3127POPC   D2A42448  36.803  42.881   6.551
 3127POPC   C3A42449  36.869  43.063   6.942
 3127POPC   C4A42450  37.090  43.200   7.318
 3127POPC   C1B42451  37.276  43.093   6.112
 3127POPC   C2B42452  37.319  42.957   6.535
 3127POPC   C3B42453  37.383  42.985   6.948
 3127POPC   C4B42454  37.573  43.017   7.331
 3128POPC   NC342455  29.875  27.813   5.417
 3128POPC   PO442456  30.035  27.158   5.501
 3128POPC   GL142457  29.980  27.537   5.809
 3128POPC   GL242458  30.235  27.773   5.872
 3128POPC   C1A42459  29.794  27.674   6.191
 3128POPC   D2A42460  29.761  27.417   6.537
 3128POPC   C3A42461  29.711  27.644   6.944
 3128POPC   C4A42462  29.741  27.934   7.324
 3128POPC   C1B42463  30.271  27.543   6.245
 3128POPC   C2B42464  30.183  27.675   6.650
 3128POPC   C3B42465  30.167  27.886   6.996
 3128POPC   C4B42466  30.133  27.612   7.291
 3129POPC   NC342467  39.029  34.139   5.214
 3129POPC   PO442468  39.446  33.670   5.412
 3129POPC   GL142469  39.126  33.822   5.683
 3129POPC   GL242470  39.396  33.878   5.899
 3129POPC   C1A42471  38.971  33.660   6.086
 3129POPC   D2A42472  39.097  33.752   6.501
 3129POPC   C3A42473  38.950  33.529   6.840
 3129POPC   C4A42474  38.933  33.680   7.259
 3129POPC   C1B42475  39.471  34.055   6.296
 3129POPC   C2B42476  39.630  33.868   6.660
 3129POPC   C3B42477  39.357  33.809   7.019
 3129POPC   C4B42478  39.331  33.902   7.483
 3130POPC   NC342479  18.147  23.327   5.158
 3130POPC   PO442480  18.009  22.781   5.461
 3130POPC   GL142481  18.207  22.902   5.809
 3130POPC   GL242482  18.209  23.252   5.759
 3130POPC   C1A42483  18.064  22.793   6.201
 3130POPC   D2A42484  18.012  22.512   6.507
 3130POPC   C3A42485  18.215  22.662   6.845
 3130POPC   C4A42486  18.094  22.962   7.143
 3130POPC   C1B42487  18.177  23.280   6.229
 3130POPC   C2B42488  18.430  23.019   6.543
 3130POPC   C3B42489  18.557  23.103   7.001
 3130POPC   C4B42490  18.333  23.351   7.336
 3131POPC   NC342491  35.269  16.586   5.147
 3131POPC   PO442492  35.561  16.232   5.583
 3131POPC   GL142493  35.279  16.596   5.701
 3131POPC   GL242494  35.524  16.804   5.791
 3131POPC   C1A42495  35.147  16.794   6.135
 3131POPC   D2A42496  35.105  16.623   6.561
 3131POPC   C3A42497  35.191  16.763   6.990
 3131POPC   C4A42498  35.352  16.558   7.375
 3131POPC   C1B42499  35.647  16.645   6.163
 3131POPC   C2B42500  35.618  16.716   6.597
 3131POPC   C3B42501  35.688  16.593   6.978
 3131POPC   C4B42502  35.828  16.798   7.355
 3132POPC   NC342503  42.087  27.679   5.444
 3132POPC   PO442504  42.663  27.290   5.507
 3132POPC   GL142505  42.384  27.501   5.828
 3132POPC   GL242506  41.999  27.414   5.865
 3132POPC   C1A42507  42.284  27.560   6.265
 3132POPC   D2A42508  42.194  27.371   6.621
 3132POPC   C3A42509  42.371  27.576   6.952
 3132POPC   C4A42510  42.266  27.343   7.260
 3132POPC   C1B42511  41.916  27.836   6.040
 3132POPC   C2B42512  41.989  27.991   6.444
 3132POPC   C3B42513  41.913  27.780   6.815
 3132POPC   C4B42514  41.898  27.679   7.258
 3133POPC   NC342515  11.199  27.925   5.566
 3133POPC   PO442516  11.694  28.315   5.362
 3133POPC   GL142517  11.465  28.293   5.796
 3133POPC   GL242518  11.059  28.295   5.876
 3133POPC   C1A42519  11.401  28.103   6.218
 3133POPC   D2A42520  11.367  28.347   6.582
 3133POPC   C3A42521  11.318  28.173   6.961
 3133POPC   C4A42522  11.140  28.214   7.345
 3133POPC   C1B42523  10.866  28.145   6.275
 3133POPC   C2B42524  10.838  28.295   6.712
 3133POPC   C3B42525  10.971  28.573   7.011
 3133POPC   C4B42526  10.866  28.617   7.436
 3134POPC   NC342527  29.959  18.020   5.523
 3134POPC   PO442528  29.819  18.572   5.308
 3134POPC   GL142529  29.550  18.434   5.677
 3134POPC   GL242530  29.502  18.045   5.779
 3134POPC   C1A42531  29.725  18.430   6.102
 3134POPC   D2A42532  29.787  18.625   6.492
 3134POPC   C3A42533  29.738  18.421   6.887
 3134POPC   C4A42534  29.903  18.543   7.277
 3134POPC   C1B42535  29.796  17.941   6.141
 3134POPC   C2B42536  29.966  18.135   6.488
 3134POPC   C3B42537  30.157  18.141   6.869
 3134POPC   C4B42538  30.070  18.059   7.295
 3135POPC   NC342539  23.104  30.377   5.391
 3135POPC   PO442540  22.852  31.026   5.547
 3135POPC   GL142541  22.992  30.697   5.819
 3135POPC   GL242542  22.735  30.441   5.780
 3135POPC   C1A42543  23.137  30.776   6.244
 3135POPC   D2A42544  23.199  31.131   6.556
 3135POPC   C3A42545  23.081  30.937   6.925
 3135POPC   C4A42546  23.128  30.704   7.312
 3135POPC   C1B42547  22.524  30.520   6.191
 3135POPC   C2B42548  22.638  30.707   6.600
 3135POPC   C3B42549  22.770  30.534   6.987
 3135POPC   C4B42550  22.657  30.430   7.402
 3136POPC   NC342551  39.269  36.521   5.656
 3136POPC   PO442552  38.941  36.107   5.252
 3136POPC   GL142553  38.979  35.980   5.742
 3136POPC   GL242554  39.336  36.054   5.852
 3136POPC   C1A42555  39.052  35.994   6.256
 3136POPC   D2A42556  38.827  36.221   6.640
 3136POPC   C3A42557  39.046  36.234   7.043
 3136POPC   C4A42558  39.175  35.824   7.118
 3136POPC   C1B42559  39.578  36.170   6.272
 3136POPC   C2B42560  39.620  36.197   6.759
 3136POPC   C3B42561  39.567  36.120   7.212
 3136POPC   C4B42562  39.626  36.283   7.643
 3137POPC   NC342563  20.863  40.536   5.304
 3137POPC   PO442564  20.573  41.166   5.427
 3137POPC   GL142565  20.712  40.830   5.712
 3137POPC   GL242566  20.556  40.490   5.729
 3137POPC   C1A42567  20.726  40.720   6.179
 3137POPC   D2A42568  20.535  40.896   6.584
 3137POPC   C3A42569  20.829  40.987   6.944
 3137POPC   C4A42570  20.864  41.130   7.411
 3137POPC   C1B42571  20.392  40.310   6.137
 3137POPC   C2B42572  20.578  40.350   6.551
 3137POPC   C3B42573  20.562  40.555   6.964
 3137POPC   C4B42574  20.865  40.623   7.309
 3138POPC   NC342575  42.898  41.520   5.222
 3138POPC   PO442576  43.474  41.437   5.470
 3138POPC   GL142577  43.151  41.666   5.652
 3138POPC   GL242578  42.823  41.483   5.727
 3138POPC   C1A42579  43.136  41.784   6.066
 3138POPC   D2A42580  43.015  41.687   6.470
 3138POPC   C3A42581  43.263  41.647   6.800
 3138POPC   C4A42582  43.228  41.721   7.209
 3138POPC   C1B42583  43.087  41.286   6.074
 3138POPC   C2B42584  43.099  41.144   6.488
 3138POPC   C3B42585  43.044  41.027   6.898
 3138POPC   C4B42586  43.182  41.204   7.274
 3139POPC   NC342587  30.843  17.223   5.406
 3139POPC   PO442588  31.215  17.869   5.356
 3139POPC   GL142589  30.905  17.833   5.721
 3139POPC   GL242590  30.711  17.500   5.841
 3139POPC   C1A42591  30.808  17.857   6.176
 3139POPC   D2A42592  30.954  17.572   6.497
 3139POPC   C3A42593  30.721  17.467   6.862
 3139POPC   C4A42594  30.698  17.686   7.221
 3139POPC   C1B42595  30.476  17.388   6.272
 3139POPC   C2B42596  30.290  17.219   6.684
 3139POPC   C3B42597  30.369  17.187   7.159
 3139POPC   C4B42598  30.441  17.147   7.635
 3140POPC   NC342599   8.626  43.231   5.328
 3140POPC   PO442600   8.093  43.494   5.376
 3140POPC   GL142601   8.155  43.332   5.821
 3140POPC   GL242602   8.483  43.459   5.837
 3140POPC   C1A42603   8.061  43.168   6.289
 3140POPC   D2A42604   7.914  43.229   6.744
 3140POPC   C3A42605   8.069  43.001   7.116
 3140POPC   C4A42606   8.162  43.094   7.556
 3140POPC   C1B42607   8.669  43.552   6.236
 3140POPC   C2B42608   8.414  43.456   6.595
 3140POPC   C3B42609   8.363  43.412   7.031
 3140POPC   C4B42610   8.649  43.503   7.369
 3141POPC   NC342611   8.202  44.749   5.039
 3141POPC   PO442612   8.141  44.396   5.589
 3141POPC   GL142613   8.001  44.585   5.953
 3141POPC   GL242614   8.295  44.801   5.970
 3141POPC   C1A42615   7.976  44.585   6.393
 3141POPC   D2A42616   8.299  44.770   6.628
 3141POPC   C3A42617   8.190  44.734   7.036
 3141POPC   C4A42618   8.138  44.866   7.447
 3141POPC   C1B42619   8.456  44.494   6.213
 3141POPC   C2B42620   8.621  44.388   6.590
 3141POPC   C3B42621   8.472  44.312   6.967
 3141POPC   C4B42622   8.637  44.351   7.368
 3142POPC   NC342623  22.289  12.576   5.402
 3142POPC   PO442624  21.915  13.003   5.519
 3142POPC   GL142625  22.108  12.716   5.875
 3142POPC   GL242626  22.452  12.606   5.889
 3142POPC   C1A42627  22.241  12.739   6.345
 3142POPC   D2A42628  22.170  12.731   6.811
 3142POPC   C3A42629  21.999  13.029   7.127
 3142POPC   C4A42630  22.156  13.398   7.356
 3142POPC   C1B42631  22.712  12.509   6.260
 3142POPC   C2B42632  22.721  12.716   6.676
 3142POPC   C3B42633  22.565  12.673   7.111
 3142POPC   C4B42634  22.365  12.853   7.458
 3143POPC   NC342635  37.412  32.371   5.434
 3143POPC   PO442636  38.025  32.368   5.239
 3143POPC   GL142637  37.825  32.168   5.675
 3143POPC   GL242638  37.655  32.408   5.881
 3143POPC   C1A42639  37.726  31.990   6.130
 3143POPC   D2A42640  37.625  32.164   6.532
 3143POPC   C3A42641  37.841  32.117   6.940
 3143POPC   C4A42642  37.735  32.047   7.375
 3143POPC   C1B42643  37.282  32.308   6.121
 3143POPC   C2B42644  37.159  32.367   6.548
 3143POPC   C3B42645  37.316  32.226   6.959
 3143POPC   C4B42646  37.456  32.468   7.325
 3144POPC   NC342647  28.219   0.831   5.483
 3144POPC   PO442648  28.621   1.267   5.597
 3144POPC   GL142649  28.467   1.186   5.988
 3144POPC   GL242650  28.781   1.309   6.081
 3144POPC   C1A42651  28.178   0.890   6.239
 3144POPC   D2A42652  27.904   0.755   6.595
 3144POPC   C3A42653  28.024   0.967   6.978
 3144POPC   C4A42654  28.258   1.059   7.306
 3144POPC   C1B42655  28.787   1.003   6.372
 3144POPC   C2B42656  28.477   1.032   6.659
 3144POPC   C3B42657  28.541   1.328   6.982
 3144POPC   C4B42658  28.685   1.601   7.291
 3145POPC   NC342659  11.088  11.619   5.526
 3145POPC   PO442660  11.601  11.333   5.098
 3145POPC   GL142661  11.513  11.222   5.608
 3145POPC   GL242662  11.159  11.154   5.743
 3145POPC   C1A42663  11.575  11.249   6.117
 3145POPC   D2A42664  11.541  11.509   6.535
 3145POPC   C3A42665  11.446  11.321   6.972
 3145POPC   C4A42666  11.315  11.343   7.429
 3145POPC   C1B42667  11.048  11.154   6.189
 3145POPC   C2B42668  11.036  11.324   6.599
 3145POPC   C3B42669  10.937  11.251   7.025
 3145POPC   C4B42670  10.864  10.925   7.283
 3146POPC   NC342671  25.536  30.360   5.335
 3146POPC   PO442672  25.090  30.800   5.321
 3146POPC   GL142673  25.071  30.585   5.727
 3146POPC   GL242674  25.411  30.511   5.832
 3146POPC   C1A42675  24.958  30.722   6.125
 3146POPC   D2A42676  24.987  30.695   6.564
 3146POPC   C3A42677  25.370  30.732   6.791
 3146POPC   C4A42678  25.321  30.812   7.216
 3146POPC   C1B42679  25.342  30.384   6.283
 3146POPC   C2B42680  25.550  30.228   6.671
 3146POPC   C3B42681  25.628  30.367   7.093
 3146POPC   C4B42682  25.653  30.570   7.494
 3147POPC   NC342683  33.362  42.351   5.633
 3147POPC   PO442684  33.965  42.305   5.244
 3147POPC   GL142685  33.889  42.254   5.752
 3147POPC   GL242686  33.683  42.505   5.995
 3147POPC   C1A42687  34.070  42.258   6.176
 3147POPC   D2A42688  33.815  42.250   6.555
 3147POPC   C3A42689  33.983  42.486   6.913
 3147POPC   C4A42690  33.951  42.376   7.361
 3147POPC   C1B42691  33.286  42.525   6.245
 3147POPC   C2B42692  33.150  42.618   6.636
 3147POPC   C3B42693  33.400  42.478   6.956
 3147POPC   C4B42694  33.434  42.542   7.359
 3148POPC   NC342695  36.364  20.545   5.403
 3148POPC   PO442696  35.790  20.819   5.118
 3148POPC   GL142697  35.869  20.707   5.613
 3148POPC   GL242698  35.999  20.376   5.746
 3148POPC   C1A42699  35.889  20.750   6.116
 3148POPC   D2A42700  35.960  20.920   6.581
 3148POPC   C3A42701  36.155  20.718   6.965
 3148POPC   C4A42702  36.439  20.639   7.342
 3148POPC   C1B42703  36.128  20.271   6.195
 3148POPC   C2B42704  36.150  20.147   6.654
 3148POPC   C3B42705  36.189  20.223   7.119
 3148POPC   C4B42706  36.385  20.133   7.534
 3149POPC   NC342707   5.430  16.259   5.657
 3149POPC   PO442708   4.919  16.060   5.263
 3149POPC   GL142709   4.984  15.974   5.733
 3149POPC   GL242710   4.664  15.852   5.861
 3149POPC   C1A42711   5.155  15.950   6.184
 3149POPC   D2A42712   5.072  15.693   6.573
 3149POPC   C3A42713   5.271  15.805   6.950
 3149POPC   C4A42714   5.327  16.223   7.101
 3149POPC   C1B42715   4.676  15.919   6.325
 3149POPC   C2B42716   4.593  15.927   6.755
 3149POPC   C3B42717   4.815  16.028   7.105
 3149POPC   C4B42718   4.718  16.139   7.526
 3150POPC   NC342719  16.133  20.363   5.352
 3150POPC   PO442720  16.005  19.630   5.428
 3150POPC   GL142721  15.900  19.838   5.858
 3150POPC   GL242722  16.213  19.999   6.001
 3150POPC   C1A42723  15.823  19.808   6.348
 3150POPC   D2A42724  15.750  19.717   6.820
 3150POPC   C3A42725  15.999  19.801   7.236
 3150POPC   C4A42726  15.803  19.736   7.692
 3150POPC   C1B42727  15.860  20.270   6.162
 3150POPC   C2B42728  15.636  20.240   6.587
 3150POPC   C3B42729  15.869  20.205   6.943
 3150POPC   C4B42730  15.935  20.295   7.360
 3151POPC   NC342731  29.648  44.877   5.481
 3151POPC   PO442732  29.283  44.321   5.394
 3151POPC   GL142733  29.012  44.538   5.674
 3151POPC   GL242734  29.050  44.879   5.601
 3151POPC   C1A42735  28.998  44.566   6.146
 3151POPC   D2A42736  29.320  44.663   6.452
 3151POPC   C3A42737  29.402  44.520   6.873
 3151POPC   C4A42738  29.266  44.596   7.283
 3151POPC   C1B42739  28.715  44.947   5.931
 3151POPC   C2B42740  28.717  44.958   6.413
 3151POPC   C3B42741  28.926  44.834   6.819
 3151POPC   C4B42742  28.842  44.889   7.263
 3152POPC   NC342743  24.080  15.679   5.651
 3152POPC   PO442744  23.428  15.790   5.450
 3152POPC   GL142745  23.600  15.872   5.857
 3152POPC   GL242746  23.511  16.232   5.844
 3152POPC   C1A42747  23.804  15.786   6.285
 3152POPC   D2A42748  23.610  15.742   6.669
 3152POPC   C3A42749  23.767  15.690   7.050
 3152POPC   C4A42750  23.578  15.508   7.378
 3152POPC   C1B42751  23.415  16.159   6.253
 3152POPC   C2B42752  23.631  16.229   6.580
 3152POPC   C3B42753  23.610  16.344   6.972
 3152POPC   C4B42754  23.930  16.410   7.226
 3153POPC   NC342755  17.132  36.790   5.515
 3153POPC   PO442756  17.672  37.025   5.121
 3153POPC   GL142757  17.751  36.914   5.567
 3153POPC   GL242758  17.747  36.567   5.623
 3153POPC   C1A42759  17.653  36.923   6.018
 3153POPC   D2A42760  17.453  36.803   6.423
 3153POPC   C3A42761  17.414  37.045   6.813
 3153POPC   C4A42762  17.503  36.995   7.243
 3153POPC   C1B42763  17.779  36.367   6.021
 3153POPC   C2B42764  17.632  36.325   6.423
 3153POPC   C3B42765  17.667  36.520   6.835
 3153POPC   C4B42766  17.576  36.457   7.264
 3154POPC   NC342767  39.704  20.501   5.341
 3154POPC   PO442768  40.273  20.773   5.456
 3154POPC   GL142769  40.042  20.527   5.769
 3154POPC   GL242770  39.733  20.692   5.926
 3154POPC   C1A42771  40.235  20.345   6.152
 3154POPC   D2A42772  40.107  20.525   6.547
 3154POPC   C3A42773  40.266  20.531   6.944
 3154POPC   C4A42774  40.304  20.947   7.138
 3154POPC   C1B42775  39.733  20.371   6.226
 3154POPC   C2B42776  39.695  20.212   6.623
 3154POPC   C3B42777  39.715  20.549   6.894
 3154POPC   C4B42778  39.846  20.719   7.240
 3155POPC   NC342779  11.373  37.316   5.427
 3155POPC   PO442780  11.494  37.872   5.474
 3155POPC   GL142781  11.535  37.558   5.850
 3155POPC   GL242782  11.172  37.421   5.877
 3155POPC   C1A42783  11.627  37.628   6.311
 3155POPC   D2A42784  11.401  37.792   6.690
 3155POPC   C3A42785  11.368  37.664   7.128
 3155POPC   C4A42786  11.352  37.593   7.595
 3155POPC   C1B42787  11.113  37.575   6.321
 3155POPC   C2B42788  10.971  37.497   6.787
 3155POPC   C3B42789  10.900  37.564   7.254
 3155POPC   C4B42790  11.002  37.944   7.457
 3156POPC   NC342791  32.666  43.252   5.428
 3156POPC   PO442792  33.349  43.093   5.234
 3156POPC   GL142793  33.154  43.088   5.707
 3156POPC   GL242794  32.833  43.236   5.896
 3156POPC   C1A42795  33.149  43.005   6.194
 3156POPC   D2A42796  33.283  43.119   6.611
 3156POPC   C3A42797  33.152  42.969   7.000
 3156POPC   C4A42798  32.964  43.154   7.331
 3156POPC   C1B42799  32.868  43.420   6.327
 3156POPC   C2B42800  32.854  43.379   6.784
 3156POPC   C3B42801  32.787  43.583   7.161
 3156POPC   C4B42802  32.696  43.586   7.636
 3157POPC   NC342803  11.679  20.913   5.422
 3157POPC   PO442804  12.394  20.866   5.426
 3157POPC   GL142805  12.197  20.727   5.859
 3157POPC   GL242806  11.857  20.541   5.809
 3157POPC   C1A42807  12.209  20.773   6.363
 3157POPC   D2A42808  12.070  21.099   6.732
 3157POPC   C3A42809  12.134  21.037   7.218
 3157POPC   C4A42810  12.125  20.758   7.632
 3157POPC   C1B42811  11.715  20.727   6.233
 3157POPC   C2B42812  11.814  20.660   6.684
 3157POPC   C3B42813  11.911  20.586   7.144
 3157POPC   C4B42814  11.783  20.396   7.564
 3158POPC   NC342815  10.646   6.917   5.359
 3158POPC   PO442816  10.345   6.432   5.190
 3158POPC   GL142817  10.354   6.555   5.667
 3158POPC   GL242818  10.671   6.655   5.784
 3158POPC   C1A42819  10.385   6.494   6.183
 3158POPC   D2A42820  10.255   6.371   6.659
 3158POPC   C3A42821  10.437   6.459   7.104
 3158POPC   C4A42822  10.538   6.440   7.592
 3158POPC   C1B42823  10.820   6.803   6.193
 3158POPC   C2B42824  10.635   6.735   6.573
 3158POPC   C3B42825  10.767   6.836   6.955
 3158POPC   C4B42826  10.580   6.893   7.331
 3159POPC   NC342827  38.623  16.418   5.256
 3159POPC   PO442828  38.706  17.047   5.357
 3159POPC   GL142829  38.973  16.783   5.646
 3159POPC   GL242830  39.274  16.952   5.708
 3159POPC   C1A42831  39.098  16.681   6.123
 3159POPC   D2A42832  39.254  16.845   6.557
 3159POPC   C3A42833  39.259  16.771   7.026
 3159POPC   C4A42834  39.430  16.758   7.481
 3159POPC   C1B42835  38.944  17.155   6.014
 3159POPC   C2B42836  38.880  17.211   6.488
 3159POPC   C3B42837  38.942  17.213   6.966
 3159POPC   C4B42838  39.005  17.042   7.405
 3160POPC   NC342839  28.810  20.572   5.403
 3160POPC   PO442840  28.189  20.375   5.347
 3160POPC   GL142841  28.406  20.474   5.697
 3160POPC   GL242842  28.382  20.796   5.812
 3160POPC   C1A42843  28.336  20.362   6.107
 3160POPC   D2A42844  28.533  20.420   6.481
 3160POPC   C3A42845  28.224  20.442   6.800
 3160POPC   C4A42846  28.332  20.422   7.211
 3160POPC   C1B42847  28.190  20.849   6.227
 3160POPC   C2B42848  28.152  21.011   6.651
 3160POPC   C3B42849  28.236  20.906   7.076
 3160POPC   C4B42850  27.978  20.983   7.448
 3161POPC   NC342851  32.977  18.030   5.420
 3161POPC   PO442852  32.850  17.379   5.158
 3161POPC   GL142853  32.937  17.469   5.671
 3161POPC   GL242854  32.806  17.209   5.925
 3161POPC   C1A42855  33.159  17.515   6.110
 3161POPC   D2A42856  33.310  17.499   6.544
 3161POPC   C3A42857  33.181  17.482   6.988
 3161POPC   C4A42858  32.928  17.530   7.338
 3161POPC   C1B42859  32.780  17.330   6.414
 3161POPC   C2B42860  32.686  17.380   6.872
 3161POPC   C3B42861  32.486  17.698   7.165
 3161POPC   C4B42862  32.698  17.983   7.489
 3162POPC   NC342863  35.906  14.287   5.409
 3162POPC   PO442864  36.496  14.081   5.212
 3162POPC   GL142865  36.319  14.213   5.727
 3162POPC   GL242866  36.036  14.454   5.868
 3162POPC   C1A42867  36.335  14.316   6.222
 3162POPC   D2A42868  36.041  14.491   6.535
 3162POPC   C3A42869  36.222  14.518   6.934
 3162POPC   C4A42870  36.221  14.417   7.340
 3162POPC   C1B42871  35.763  14.711   6.132
 3162POPC   C2B42872  35.720  14.906   6.546
 3162POPC   C3B42873  35.741  14.719   6.978
 3162POPC   C4B42874  35.759  14.741   7.454
 3163POPC   NC342875  33.277  29.607   5.677
 3163POPC   PO442876  33.012  30.110   5.389
 3163POPC   GL142877  33.012  30.031   5.807
 3163POPC   GL242878  33.330  30.016   5.971
 3163POPC   C1A42879  32.848  29.809   6.168
 3163POPC   D2A42880  32.953  29.964   6.609
 3163POPC   C3A42881  32.815  29.789   7.014
 3163POPC   C4A42882  33.060  29.883   7.406
 3163POPC   C1B42883  33.313  29.701   6.294
 3163POPC   C2B42884  33.462  29.786   6.609
 3163POPC   C3B42885  33.323  29.756   6.984
 3163POPC   C4B42886  33.191  29.419   7.201
 3164POPC   NC342887  23.338   1.020   5.602
 3164POPC   PO442888  22.666   1.170   5.520
 3164POPC   GL142889  22.891   0.971   5.842
 3164POPC   GL242890  23.047   1.292   5.932
 3164POPC   C1A42891  22.976   0.910   6.281
 3164POPC   D2A42892  22.817   1.232   6.586
 3164POPC   C3A42893  22.662   1.070   6.972
 3164POPC   C4A42894  22.985   1.023   7.268
 3164POPC   C1B42895  23.288   1.311   6.331
 3164POPC   C2B42896  23.241   1.565   6.709
 3164POPC   C3B42897  22.965   1.545   7.080
 3164POPC   C4B42898  23.074   1.443   7.542
 3165POPC   NC342899   8.606   8.312   5.520
 3165POPC   PO442900   9.270   8.468   5.226
 3165POPC   GL142901   9.103   8.356   5.710
 3165POPC   GL242902   8.816   8.550   5.892
 3165POPC   C1A42903   9.207   8.202   6.177
 3165POPC   D2A42904   9.147   8.315   6.650
 3165POPC   C3A42905   9.016   8.003   6.986
 3165POPC   C4A42906   8.911   7.873   7.430
 3165POPC   C1B42907   8.613   8.753   6.221
 3165POPC   C2B42908   8.712   8.582   6.609
 3165POPC   C3B42909   8.556   8.385   6.980
 3165POPC   C4B42910   8.420   8.743   7.163
 3166POPC   NC342911  23.604  11.900   5.542
 3166POPC   PO442912  24.163  12.244   5.496
 3166POPC   GL142913  24.017  12.032   5.853
 3166POPC   GL242914  23.759  12.294   5.882
 3166POPC   C1A42915  24.037  12.116   6.307
 3166POPC   D2A42916  23.827  12.339   6.659
 3166POPC   C3A42917  23.991  12.181   7.043
 3166POPC   C4A42918  23.805  11.831   7.201
 3166POPC   C1B42919  23.542  12.111   6.221
 3166POPC   C2B42920  23.355  12.127   6.637
 3166POPC   C3B42921  23.473  12.268   7.064
 3166POPC   C4B42922  23.418  12.526   7.484
 3167POPC   NC342923   2.742  41.445   5.537
 3167POPC   PO442924   2.675  42.076   5.548
 3167POPC   GL142925   2.974  41.819   5.839
 3167POPC   GL242926   2.993  41.428   5.969
 3167POPC   C1A42927   3.057  41.824   6.275
 3167POPC   D2A42928   2.894  41.568   6.616
 3167POPC   C3A42929   2.901  41.540   7.063
 3167POPC   C4A42930   2.574  41.661   7.361
 3167POPC   C1B42931   2.602  41.579   6.167
 3167POPC   C2B42932   2.334  41.520   6.513
 3167POPC   C3B42933   2.410  41.424   6.933
 3167POPC   C4B42934   2.143  41.222   7.210
 3168POPC   NC342935  41.284  28.480   5.501
 3168POPC   PO442936  41.736  27.975   5.313
 3168POPC   GL142937  41.598  28.141   5.724
 3168POPC   GL242938  41.241  28.149   5.867
 3168POPC   C1A42939  41.644  28.264   6.151
 3168POPC   D2A42940  41.611  28.524   6.498
 3168POPC   C3A42941  41.737  28.287   6.812
 3168POPC   C4A42942  41.675  28.330   7.225
 3168POPC   C1B42943  41.174  28.466   6.213
 3168POPC   C2B42944  41.106  28.320   6.649
 3168POPC   C3B42945  41.183  28.332   7.098
 3168POPC   C4B42946  41.222  28.312   7.560
 3169POPC   NC342947   5.992  12.406   5.397
 3169POPC   PO442948   5.437  11.991   5.484
 3169POPC   GL142949   5.663  12.200   5.791
 3169POPC   GL242950   5.905  11.945   5.796
 3169POPC   C1A42951   5.573  12.113   6.233
 3169POPC   D2A42952   5.467  11.817   6.566
 3169POPC   C3A42953   5.651  11.735   6.970
 3169POPC   C4A42954   5.677  11.923   7.385
 3169POPC   C1B42955   6.094  12.030   6.191
 3169POPC   C2B42956   5.948  12.040   6.598
 3169POPC   C3B42957   6.137  11.932   6.986
 3169POPC   C4B42958   6.188  12.202   7.336
 3170POPC   NC342959  44.495  41.192   5.040
 3170POPC   PO442960  44.425  41.557   5.599
 3170POPC   GL142961  44.699  41.620   5.885
 3170POPC   GL242962  44.842  41.942   5.865
 3170POPC   C1A42963  44.596  41.430   6.242
 3170POPC   D2A42964  44.716  41.484   6.604
 3170POPC   C3A42965  44.457  41.244   6.799
 3170POPC   C4A42966  44.442  41.192   7.208
 3170POPC   C1B42967  44.587  41.947   6.263
 3170POPC   C2B42968  44.629  41.963   6.703
 3170POPC   C3B42969  44.599  41.761   7.093
 3170POPC   C4B42970  44.560  41.949   7.518
 3171POPC   NC342971   9.583  29.899   5.405
 3171POPC   PO442972   8.969  29.956   5.409
 3171POPC   GL142973   9.102  29.917   5.791
 3171POPC   GL242974   9.262  30.196   5.767
 3171POPC   C1A42975   9.012  29.700   6.179
 3171POPC   D2A42976   8.710  29.719   6.527
 3171POPC   C3A42977   8.967  29.656   6.885
 3171POPC   C4A42978   9.232  29.761   7.215
 3171POPC   C1B42979   9.132  30.241   6.198
 3171POPC   C2B42980   9.102  30.037   6.587
 3171POPC   C3B42981   9.033  30.177   6.999
 3171POPC   C4B42982   9.262  30.478   7.219
 3172POPC   NC342983  40.160   3.133   5.423
 3172POPC   PO442984  39.909   2.509   5.451
 3172POPC   GL142985  40.081   2.742   5.797
 3172POPC   GL242986  39.986   2.463   5.969
 3172POPC   C1A42987  40.148   2.887   6.247
 3172POPC   D2A42988  40.160   3.145   6.645
 3172POPC   C3A42989  40.079   3.018   7.097
 3172POPC   C4A42990  40.019   3.070   7.569
 3172POPC   C1B42991  39.690   2.555   6.263
 3172POPC   C2B42992  39.494   2.543   6.655
 3172POPC   C3B42993  39.779   2.599   7.001
 3172POPC   C4B42994  40.175   2.490   7.234
 3173POPC   NC342995  23.179  29.557   5.366
 3173POPC   PO442996  22.711  30.046   5.412
 3173POPC   GL142997  22.982  29.986   5.762
 3173POPC   GL242998  23.100  29.659   5.879
 3173POPC   C1A42999  22.903  30.155   6.183
 3173POPC   D2A43000  23.042  30.365   6.562
 3173POPC   C3A43001  22.991  30.079   6.918
 3173POPC   C4A43002  23.101  30.184   7.339
 3173POPC   C1B43003  22.747  29.640   6.194
 3173POPC   C2B43004  22.666  29.726   6.640
 3173POPC   C3B43005  22.758  29.606   7.055
 3173POPC   C4B43006  23.195  29.566   7.182
 3174POPC   NC343007  25.871  11.808   5.199
 3174POPC   PO443008  26.447  12.024   5.482
 3174POPC   GL143009  26.126  12.230   5.755
 3174POPC   GL243010  25.770  12.185   5.705
 3174POPC   C1A43011  26.025  12.323   6.172
 3174POPC   D2A43012  26.122  12.456   6.583
 3174POPC   C3A43013  25.927  12.200   6.871
 3174POPC   C4A43014  26.053  12.265   7.269
 3174POPC   C1B43015  25.927  11.828   5.992
 3174POPC   C2B43016  25.983  11.737   6.430
 3174POPC   C3B43017  25.863  11.618   6.851
 3174POPC   C4B43018  25.910  11.785   7.246
 3175POPC   NC343019  11.327   1.656   5.259
 3175POPC   PO443020  11.042   0.981   5.268
 3175POPC   GL143021  11.224   1.253   5.616
 3175POPC   GL243022  11.570   1.216   5.746
 3175POPC   C1A43023  11.172   1.402   6.064
 3175POPC   D2A43024  11.363   1.413   6.486
 3175POPC   C3A43025  11.379   1.126   6.835
 3175POPC   C4A43026  11.196   1.028   7.261
 3175POPC   C1B43027  11.437   0.979   6.150
 3175POPC   C2B43028  11.187   0.715   6.485
 3175POPC   C3B43029  11.263   0.636   6.936
 3175POPC   C4B43030  11.647   0.837   7.194
 3176POPC   NC343031  42.663  29.057   5.672
 3176POPC   PO443032  42.062  28.901   5.503
 3176POPC   GL143033  42.220  29.212   5.877
 3176POPC   GL243034  42.170  28.971   6.119
 3176POPC   C1A43035  42.564  29.291   6.274
 3176POPC   D2A43036  42.491  29.163   6.708
 3176POPC   C3A43037  42.707  29.200   7.139
 3176POPC   C4A43038  42.654  29.296   7.673
 3176POPC   C1B43039  42.054  29.304   6.405
 3176POPC   C2B43040  41.970  29.224   6.836
 3176POPC   C3B43041  42.222  29.066   7.118
 3176POPC   C4B43042  42.554  28.703   7.016
 3177POPC   NC343043  13.350  10.121   5.603
 3177POPC   PO443044  12.906   9.598   5.406
 3177POPC   GL143045  12.727   9.631   5.826
 3177POPC   GL243046  13.052   9.814   5.928
 3177POPC   C1A43047  12.773   9.527   6.287
 3177POPC   D2A43048  13.093   9.656   6.600
 3177POPC   C3A43049  13.117   9.464   7.005
 3177POPC   C4A43050  12.824   9.185   7.210
 3177POPC   C1B43051  12.878  10.039   6.294
 3177POPC   C2B43052  12.601   9.928   6.649
 3177POPC   C3B43053  12.851   9.891   7.037
 3177POPC   C4B43054  13.233  10.137   7.101
 3178POPC   NC343055  31.714  35.352   5.382
 3178POPC   PO443056  31.077  35.084   5.392
 3178POPC   GL143057  31.320  35.351   5.729
 3178POPC   GL243058  31.184  35.710   5.828
 3178POPC   C1A43059  31.479  35.128   6.109
 3178POPC   D2A43060  31.361  35.091   6.543
 3178POPC   C3A43061  31.586  35.138   6.953
 3178POPC   C4A43062  31.450  35.213   7.367
 3178POPC   C1B43063  31.363  35.609   6.231
 3178POPC   C2B43064  31.522  35.555   6.643
 3178POPC   C3B43065  31.404  35.640   7.067
 3178POPC   C4B43066  31.786  35.588   7.275
 3179POPC   NC343067  29.285  37.405   5.451
 3179POPC   PO443068  29.106  38.018   5.412
 3179POPC   GL143069  28.892  37.831   5.744
 3179POPC   GL243070  29.194  37.677   5.866
 3179POPC   C1A43071  28.837  37.806   6.200
 3179POPC   D2A43072  29.099  37.818   6.577
 3179POPC   C3A43073  28.934  37.854   7.017
 3179POPC   C4A43074  28.852  37.523   7.334
 3179POPC   C1B43075  29.228  37.419   6.232
 3179POPC   C2B43076  29.456  37.407   6.599
 3179POPC   C3B43077  29.298  37.478   6.995
 3179POPC   C4B43078  29.403  37.275   7.387
 3180POPC   NC343079  36.318  25.455   5.534
 3180POPC   PO443080  35.733  25.729   5.457
 3180POPC   GL143081  35.876  25.448   5.827
 3180POPC   GL243082  36.032  25.103   5.794
 3180POPC   C1A43083  35.873  25.335   6.283
 3180POPC   D2A43084  35.797  25.568   6.666
 3180POPC   C3A43085  36.125  25.530   6.948
 3180POPC   C4A43086  36.207  25.234   7.282
 3180POPC   C1B43087  36.329  25.169   6.146
 3180POPC   C2B43088  36.369  25.231   6.585
 3180POPC   C3B43089  36.459  24.957   6.913
 3180POPC   C4B43090  36.635  24.979   7.298
 3181POPC   NC343091  14.787  39.617   5.034
 3181POPC   PO443092  14.968  40.121   5.516
 3181POPC   GL143093  15.262  39.904   5.775
 3181POPC   GL243094  15.048  39.678   5.878
 3181POPC   C1A43095  15.598  39.949   6.109
 3181POPC   D2A43096  15.673  40.157   6.512
 3181POPC   C3A43097  15.371  40.084   6.839
 3181POPC   C4A43098  15.481  40.059   7.272
 3181POPC   C1B43099  15.111  39.873   6.313
 3181POPC   C2B43100  14.909  39.884   6.745
 3181POPC   C3B43101  14.986  39.868   7.226
 3181POPC   C4B43102  14.885  39.710   7.673
 3182POPC   NC343103  25.390  42.951   5.683
 3182POPC   PO443104  25.433  43.615   5.408
 3182POPC   GL143105  25.370  43.437   5.815
 3182POPC   GL243106  25.027  43.319   5.828
 3182POPC   C1A43107  25.343  43.297   6.243
 3182POPC   D2A43108  25.499  43.070   6.570
 3182POPC   C3A43109  25.350  43.189   6.969
 3182POPC   C4A43110  25.378  42.910   7.312
 3182POPC   C1B43111  24.869  43.120   6.223
 3182POPC   C2B43112  24.899  42.871   6.611
 3182POPC   C3B43113  24.871  42.921   7.062
 3182POPC   C4B43114  24.974  43.223   7.374
 3183POPC   NC343115  16.923   5.225   5.036
 3183POPC   PO443116  16.448   4.747   5.117
 3183POPC   GL143117  16.686   4.837   5.542
 3183POPC   GL243118  16.856   5.170   5.584
 3183POPC   C1A43119  16.508   4.892   6.006
 3183POPC   D2A43120  16.679   4.986   6.448
 3183POPC   C3A43121  16.489   5.130   6.847
 3183POPC   C4A43122  16.509   5.049   7.283
 3183POPC   C1B43123  16.748   5.332   6.031
 3183POPC   C2B43124  16.803   5.508   6.446
 3183POPC   C3B43125  16.870   5.534   6.887
 3183POPC   C4B43126  16.633   5.521   7.252
 3184POPC   NC343127  38.440  40.358   5.265
 3184POPC   PO443128  38.834  39.818   5.117
 3184POPC   GL143129  38.719  39.862   5.592
 3184POPC   GL243130  38.420  40.056   5.703
 3184POPC   C1A43131  38.666  39.768   6.069
 3184POPC   D2A43132  38.361  39.815   6.434
 3184POPC   C3A43133  38.511  39.789   6.876
 3184POPC   C4A43134  38.508  40.029   7.251
 3184POPC   C1B43135  38.450  40.252   6.122
 3184POPC   C2B43136  38.454  40.542   6.493
 3184POPC   C3B43137  38.393  40.397   6.912
 3184POPC   C4B43138  38.200  40.431   7.332
 3185POPC   NC343139  19.494  19.854   5.320
 3185POPC   PO443140  20.109  19.577   5.239
 3185POPC   GL143141  19.876  19.716   5.693
 3185POPC   GL243142  20.061  19.864   5.941
 3185POPC   C1A43143  19.723  19.565   6.150
 3185POPC   D2A43144  19.685  19.772   6.568
 3185POPC   C3A43145  19.894  19.704   6.964
 3185POPC   C4A43146  19.611  19.503   7.240
 3185POPC   C1B43147  19.944  20.110   6.263
 3185POPC   C2B43148  19.997  20.182   6.704
 3185POPC   C3B43149  19.618  20.141   6.941
 3185POPC   C4B43150  19.673  20.021   7.324
 3186POPC   NC343151  22.290  18.644   5.412
 3186POPC   PO443152  21.868  18.148   5.240
 3186POPC   GL143153  22.083  18.170   5.686
 3186POPC   GL243154  22.238  18.459   5.872
 3186POPC   C1A43155  21.929  18.155   6.123
 3186POPC   D2A43156  22.003  18.385   6.509
 3186POPC   C3A43157  22.245  18.157   6.820
 3186POPC   C4A43158  22.251  18.068   7.250
 3186POPC   C1B43159  22.434  18.297   6.254
 3186POPC   C2B43160  22.624  18.470   6.640
 3186POPC   C3B43161  22.481  18.590   7.058
 3186POPC   C4B43162  22.551  18.421   7.450
 3187POPC   NC343163   3.084  38.187   5.380
 3187POPC   PO443164   2.700  38.713   5.393
 3187POPC   GL143165   2.717  38.372   5.716
 3187POPC   GL243166   3.039  38.320   5.894
 3187POPC   C1A43167   2.624  38.393   6.169
 3187POPC   D2A43168   2.680  38.574   6.561
 3187POPC   C3A43169   2.436  38.462   6.895
 3187POPC   C4A43170   2.559  38.295   7.290
 3187POPC   C1B43171   3.136  38.497   6.307
 3187POPC   C2B43172   3.155  38.722   6.715
 3187POPC   C3B43173   2.973  38.516   7.083
 3187POPC   C4B43174   3.159  38.159   7.356
 3188POPC   NC343175  44.127  16.246   5.390
 3188POPC   PO443176  43.476  15.979   5.243
 3188POPC   GL143177  43.772  15.971   5.621
 3188POPC   GL243178  43.832  16.304   5.790
 3188POPC   C1A43179  43.942  15.882   6.066
 3188POPC   D2A43180  43.787  15.913   6.523
 3188POPC   C3A43181  43.987  15.763   6.950
 3188POPC   C4A43182  43.908  15.776   7.426
 3188POPC   C1B43183  44.042  16.349   6.234
 3188POPC   C2B43184  44.167  16.199   6.706
 3188POPC   C3B43185  44.120  16.197   7.206
 3188POPC   C4B43186  43.999  16.308   7.643
 3189POPC   NC343187  34.821  28.633   5.606
 3189POPC   PO443188  34.359  28.205   5.250
 3189POPC   GL143189  34.419  28.282   5.723
 3189POPC   GL243190  34.400  28.562   5.860
 3189POPC   C1A43191  34.339  28.143   6.188
 3189POPC   D2A43192  34.580  28.166   6.615
 3189POPC   C3A43193  34.390  27.992   6.989
 3189POPC   C4A43194  34.236  28.208   7.392
 3189POPC   C1B43195  34.721  28.487   6.222
 3189POPC   C2B43196  35.054  28.527   6.508
 3189POPC   C3B43197  34.988  28.428   6.930
 3189POPC   C4B43198  34.561  28.466   7.089
 3190POPC   NC343199  31.148  20.346   5.362
 3190POPC   PO443200  31.671  20.806   5.386
 3190POPC   GL143201  31.729  20.694   5.819
 3190POPC   GL243202  31.536  20.403   5.756
 3190POPC   C1A43203  31.693  20.475   6.252
 3190POPC   D2A43204  31.627  20.342   6.709
 3190POPC   C3A43205  31.741  20.629   7.059
 3190POPC   C4A43206  31.650  20.953   7.365
 3190POPC   C1B43207  31.211  20.519   6.088
 3190POPC   C2B43208  31.092  20.402   6.558
 3190POPC   C3B43209  31.216  20.308   7.011
 3190POPC   C4B43210  31.284  20.553   7.403
 3191POPC   NC343211  35.841  39.896   5.478
 3191POPC   PO443212  36.409  40.264   5.441
 3191POPC   GL143213  36.167  40.121   5.808
 3191POPC   GL243214  35.869  40.320   5.810
 3191POPC   C1A43215  36.055  39.815   6.158
 3191POPC   D2A43216  35.974  39.625   6.581
 3191POPC   C3A43217  36.223  39.813   6.920
 3191POPC   C4A43218  36.278  39.687   7.332
 3191POPC   C1B43219  35.700  40.182   6.174
 3191POPC   C2B43220  35.923  40.145   6.536
 3191POPC   C3B43221  35.771  40.009   6.889
 3191POPC   C4B43222  35.937  40.070   7.266
 3192POPC   NC343223  39.022  37.455   5.401
 3192POPC   PO443224  39.573  37.749   5.394
 3192POPC   GL143225  39.336  37.684   5.774
 3192POPC   GL243226  39.068  37.901   5.868
 3192POPC   C1A43227  39.192  37.467   6.139
 3192POPC   D2A43228  39.042  37.504   6.555
 3192POPC   C3A43229  39.303  37.631   6.904
 3192POPC   C4A43230  39.293  37.463   7.334
 3192POPC   C1B43231  39.065  37.947   6.288
 3192POPC   C2B43232  39.015  38.027   6.701
 3192POPC   C3B43233  39.047  38.024   7.123
 3192POPC   C4B43234  39.424  37.945   7.350
 3193POPC   NC343235  11.926  37.782   5.593
 3193POPC   PO443236  12.172  38.349   5.308
 3193POPC   GL143237  12.163  38.510   5.770
 3193POPC   GL243238  11.823  38.586   5.884
 3193POPC   C1A43239  12.258  38.625   6.224
 3193POPC   D2A43240  12.198  38.699   6.656
 3193POPC   C3A43241  11.904  38.497   6.891
 3193POPC   C4A43242  11.867  38.437   7.318
 3193POPC   C1B43243  11.949  38.217   6.169
 3193POPC   C2B43244  11.866  38.020   6.592
 3193POPC   C3B43245  11.729  38.023   7.032
 3193POPC   C4B43246  11.521  38.081   7.440
 3194POPC   NC343247  30.407  20.997   5.525
 3194POPC   PO443248  30.705  20.433   5.271
 3194POPC   GL143249  30.745  20.407   5.723
 3194POPC   GL243250  30.437  20.573   5.821
 3194POPC   C1A43251  30.716  20.401   6.198
 3194POPC   D2A43252  30.493  20.558   6.582
 3194POPC   C3A43253  30.731  20.475   6.962
 3194POPC   C4A43254  30.767  20.261   7.356
 3194POPC   C1B43255  30.474  20.900   6.180
 3194POPC   C2B43256  30.421  21.073   6.626
 3194POPC   C3B43257  30.362  20.831   7.028
 3194POPC   C4B43258  30.476  20.684   7.478
 3195POPC   NC343259  17.726   0.635   5.514
 3195POPC   PO443260  17.194   0.246   5.278
 3195POPC   GL143261  17.453   0.207   5.710
 3195POPC   GL243262  17.214   0.381   5.900
 3195POPC   C1A43263  17.638   0.363   6.173
 3195POPC   D2A43264  17.561   0.602   6.608
 3195POPC   C3A43265  17.721   0.508   7.069
 3195POPC   C4A43266  17.693   0.243   7.474
 3195POPC   C1B43267  17.132   0.268   6.339
 3195POPC   C2B43268  17.046   0.540   6.683
 3195POPC   C3B43269  17.216   0.805   7.028
 3195POPC   C4B43270  17.333   0.632   7.435
 3196POPC   NC343271  23.084  32.709   5.372
 3196POPC   PO443272  23.306  33.407   5.365
 3196POPC   GL143273  23.054  33.142   5.743
 3196POPC   GL243274  23.130  32.813   5.871
 3196POPC   C1A43275  22.898  33.063   6.223
 3196POPC   D2A43276  22.647  33.136   6.612
 3196POPC   C3A43277  22.900  33.299   6.947
 3196POPC   C4A43278  22.990  33.154   7.355
 3196POPC   C1B43279  23.294  32.540   6.206
 3196POPC   C2B43280  23.280  32.645   6.636
 3196POPC   C3B43281  23.377  32.557   7.058
 3196POPC   C4B43282  23.238  32.681   7.449
 3197POPC   NC343283  26.872  35.217   5.435
 3197POPC   PO443284  26.600  35.839   5.360
 3197POPC   GL143285  26.665  35.584   5.748
 3197POPC   GL243286  26.995  35.612   5.817
 3197POPC   C1A43287  26.756  35.204   6.073
 3197POPC   D2A43288  26.671  35.221   6.521
 3197POPC   C3A43289  26.941  35.163   6.886
 3197POPC   C4A43290  26.755  35.213   7.283
 3197POPC   C1B43291  26.853  35.678   6.259
 3197POPC   C2B43292  26.911  35.651   6.695
 3197POPC   C3B43293  26.925  35.662   7.142
 3197POPC   C4B43294  26.863  35.730   7.579
 3198POPC   NC343295  29.726   2.182   5.499
 3198POPC   PO443296  30.014   1.643   5.385
 3198POPC   GL143297  29.874   1.708   5.797
 3198POPC   GL243298  29.545   1.788   5.766
 3198POPC   C1A43299  29.970   1.802   6.262
 3198POPC   D2A43300  30.064   1.774   6.729
 3198POPC   C3A43301  30.178   2.014   7.124
 3198POPC   C4A43302  30.017   1.947   7.568
 3198POPC   C1B43303  29.521   2.022   6.163
 3198POPC   C2B43304  29.704   2.190   6.544
 3198POPC   C3B43305  29.677   2.058   6.959
 3198POPC   C4B43306  29.555   1.990   7.379
 3199POPC   NC343307  35.419  44.119   5.506
 3199POPC   PO443308  35.003  43.516   5.478
 3199POPC   GL143309  35.219  43.765   5.815
 3199POPC   GL243310  35.049  44.071   5.870
 3199POPC   C1A43311  35.496  43.680   6.185
 3199POPC   D2A43312  35.665  43.531   6.583
 3199POPC   C3A43313  35.509  43.634   6.964
 3199POPC   C4A43314  35.456  43.825   7.396
 3199POPC   C1B43315  35.225  44.095   6.249
 3199POPC   C2B43316  35.521  44.023   6.588
 3199POPC   C3B43317  35.357  44.108   6.989
 3199POPC   C4B43318  35.104  44.223   7.359
 3200POPC   NC343319   3.971  18.442   5.311
 3200POPC   PO443320   3.489  18.048   5.232
 3200POPC   GL143321   3.609  18.195   5.630
 3200POPC   GL243322   3.890  18.051   5.747
 3200POPC   C1A43323   3.555  18.338   6.075
 3200POPC   D2A43324   3.355  18.337   6.485
 3200POPC   C3A43325   3.556  18.408   6.895
 3200POPC   C4A43326   3.342  18.244   7.244
 3200POPC   C1B43327   3.795  17.889   6.153
 3200POPC   C2B43328   3.798  18.094   6.552
 3200POPC   C3B43329   3.845  18.000   7.005
 3200POPC   C4B43330   3.920  18.328   7.277
 3201POPC   NC343331  25.543  38.385   5.157
 3201POPC   PO443332  25.166  38.780   5.452
 3201POPC   GL143333  25.204  38.416   5.735
 3201POPC   GL243334  24.863  38.229   5.732
 3201POPC   C1A43335  25.415  38.432   6.142
 3201POPC   D2A43336  25.450  38.603   6.544
 3201POPC   C3A43337  25.570  38.428   6.922
 3201POPC   C4A43338  25.424  38.606   7.310
 3201POPC   C1B43339  24.874  38.519   6.112
 3201POPC   C2B43340  24.950  38.389   6.532
 3201POPC   C3B43341  25.049  38.554   6.934
 3201POPC   C4B43342  24.964  38.385   7.335
 3202POPC   NC343343  41.629   4.681   5.316
 3202POPC   PO443344  41.759   4.050   5.378
 3202POPC   GL143345  41.607   4.311   5.701
 3202POPC   GL243346  41.287   4.396   5.579
 3202POPC   C1A43347  41.720   4.328   6.145
 3202POPC   D2A43348  41.822   4.339   6.587
 3202POPC   C3A43349  41.738   4.029   6.914
 3202POPC   C4A43350  41.648   4.190   7.323
 3202POPC   C1B43351  41.196   4.404   6.041
 3202POPC   C2B43352  41.268   4.343   6.501
 3202POPC   C3B43353  41.421   4.471   6.928
 3202POPC   C4B43354  41.289   4.574   7.364
 3203POPC   NC343355  27.736   8.001   5.540
 3203POPC   PO443356  27.644   7.373   5.480
 3203POPC   GL143357  27.618   7.339   5.891
 3203POPC   GL243358  27.352   7.609   5.840
 3203POPC   C1A43359  27.949   7.459   6.217
 3203POPC   D2A43360  28.116   7.495   6.651
 3203POPC   C3A43361  27.858   7.462   7.053
 3203POPC   C4A43362  27.840   7.687   7.478
 3203POPC   C1B43363  27.458   7.646   6.252
 3203POPC   C2B43364  27.587   7.410   6.591
 3203POPC   C3B43365  27.432   7.689   6.878
 3203POPC   C4B43366  27.340   7.628   7.273
 3204POPC   NC343367  44.023  43.446   5.394
 3204POPC   PO443368  43.596  44.110   5.401
 3204POPC   GL143369  43.827  43.957   5.757
 3204POPC   GL243370  43.762  43.618   5.790
 3204POPC   C1A43371  43.995  43.928   6.177
 3204POPC   D2A43372  43.822  43.954   6.567
 3204POPC   C3A43373  43.956  44.052   6.974
 3204POPC   C4A43374  43.651  43.946   7.243
 3204POPC   C1B43375  43.757  43.447   6.176
 3204POPC   C2B43376  43.850  43.416   6.596
 3204POPC   C3B43377  43.629  43.510   6.964
 3204POPC   C4B43378  43.359  43.553   7.360
 3205POPC   NC343379  44.086  20.643   5.385
 3205POPC   PO443380  43.627  21.058   5.555
 3205POPC   GL143381  43.721  20.686   5.806
 3205POPC   GL243382  43.731  20.324   5.644
 3205POPC   C1A43383  43.632  20.604   6.249
 3205POPC   D2A43384  43.451  20.614   6.679
 3205POPC   C3A43385  43.775  20.664   7.003
 3205POPC   C4A43386  43.762  20.758   7.434
 3205POPC   C1B43387  43.764  20.131   6.063
 3205POPC   C2B43388  43.691  20.143   6.535
 3205POPC   C3B43389  43.737  20.138   7.007
 3205POPC   C4B43390  44.030  20.332   7.323
 3206POPC   NC343391  17.853  24.676   5.082
 3206POPC   PO443392  18.443  24.560   5.452
 3206POPC   GL143393  18.232  24.562   5.832
 3206POPC   GL243394  18.262  24.200   5.812
 3206POPC   C1A43395  18.367  24.724   6.262
 3206POPC   D2A43396  18.572  24.569   6.632
 3206POPC   C3A43397  18.346  24.652   6.973
 3206POPC   C4A43398  18.471  24.826   7.328
 3206POPC   C1B43399  17.968  24.289   6.166
 3206POPC   C2B43400  18.074  24.378   6.575
 3206POPC   C3B43401  18.076  24.231   6.973
 3206POPC   C4B43402  18.253  24.362   7.385
 3207POPC   NC343403  18.164   1.250   5.395
 3207POPC   PO443404  18.523   1.872   5.548
 3207POPC   GL143405  18.490   1.452   5.784
 3207POPC   GL243406  18.432   1.063   5.777
 3207POPC   C1A43407  18.319   1.336   6.215
 3207POPC   D2A43408  18.195   1.207   6.649
 3207POPC   C3A43409  18.211   1.497   7.002
 3207POPC   C4A43410  17.836   1.540   7.236
 3207POPC   C1B43411  18.600   0.909   6.160
 3207POPC   C2B43412  18.640   0.877   6.612
 3207POPC   C3B43413  18.553   1.071   6.994
 3207POPC   C4B43414  18.122   1.019   7.185
 3208POPC   NC343415  39.402  43.948   5.192
 3208POPC   PO443416  39.193  43.488   5.517
 3208POPC   GL143417  39.403  43.780   5.759
 3208POPC   GL243418  39.303  44.119   5.672
 3208POPC   C1A43419  39.245  43.863   6.159
 3208POPC   D2A43420  38.996  43.923   6.546
 3208POPC   C3A43421  39.187  43.871   6.964
 3208POPC   C4A43422  38.970  43.840   7.348
 3208POPC   C1B43423  39.463  44.318   6.052
 3208POPC   C2B43424  39.437  44.190   6.510
 3208POPC   C3B43425  39.254  44.360   6.908
 3208POPC   C4B43426  39.303  44.221   7.352
 3209POPC   NC343427  42.488   5.176   5.375
 3209POPC   PO443428  42.045   4.728   5.538
 3209POPC   GL143429  42.254   5.018   5.870
 3209POPC   GL243430  42.579   5.152   5.882
 3209POPC   C1A43431  42.344   5.028   6.328
 3209POPC   D2A43432  42.096   5.250   6.652
 3209POPC   C3A43433  42.102   5.054   7.073
 3209POPC   C4A43434  42.137   5.035   7.522
 3209POPC   C1B43435  42.668   5.435   6.253
 3209POPC   C2B43436  42.591   5.331   6.708
 3209POPC   C3B43437  42.502   5.392   7.137
 3209POPC   C4B43438  42.538   5.322   7.627
 3210POPC   NC343439   4.346  36.301   5.191
 3210POPC   PO443440   4.441  36.966   5.394
 3210POPC   GL143441   4.388  37.024   5.815
 3210POPC   GL243442   4.067  36.916   5.925
 3210POPC   C1A43443   4.466  36.763   6.207
 3210POPC   D2A43444   4.337  36.634   6.616
 3210POPC   C3A43445   4.353  36.762   7.042
 3210POPC   C4A43446   4.514  36.470   7.336
 3210POPC   C1B43447   3.871  37.132   6.228
 3210POPC   C2B43448   3.948  37.181   6.662
 3210POPC   C3B43449   3.891  37.024   7.083
 3210POPC   C4B43450   4.143  37.218   7.385
 3211POPC   NC343451  31.984  34.517   5.515
 3211POPC   PO443452  32.623  34.856   5.615
 3211POPC   GL143453  32.254  34.794   5.884
 3211POPC   GL243454  32.243  34.432   5.981
 3211POPC   C1A43455  32.116  34.747   6.341
 3211POPC   D2A43456  32.207  34.484   6.711
 3211POPC   C3A43457  32.090  34.734   7.064
 3211POPC   C4A43458  31.973  34.996   7.396
 3211POPC   C1B43459  32.567  34.264   6.300
 3211POPC   C2B43460  32.689  34.208   6.756
 3211POPC   C3B43461  32.590  34.540   7.066
 3211POPC   C4B43462  32.391  34.660   7.471
 3212POPC   NC343463  25.689  44.096   5.368
 3212POPC   PO443464  26.263  43.692   5.233
 3212POPC   GL143465  26.320  43.635   5.681
 3212POPC   GL243466  26.334  43.283   5.671
 3212POPC   C1A43467  26.134  43.796   6.078
 3212POPC   D2A43468  25.810  44.007   6.354
 3212POPC   C3A43469  25.848  43.933   6.807
 3212POPC   C4A43470  25.793  44.095   7.225
 3212POPC   C1B43471  26.340  43.291   6.127
 3212POPC   C2B43472  26.271  43.528   6.506
 3212POPC   C3B43473  26.419  43.604   6.907
 3212POPC   C4B43474  26.330  44.003   7.104
 3213POPC   NC343475  12.114   8.704   5.440
 3213POPC   PO443476  11.914   9.381   5.390
 3213POPC   GL143477  11.932   9.092   5.722
 3213POPC   GL243478  12.238   9.127   5.772
 3213POPC   C1A43479  11.964   8.875   6.122
 3213POPC   D2A43480  11.896   8.943   6.532
 3213POPC   C3A43481  12.153   8.838   6.856
 3213POPC   C4A43482  12.068   9.024   7.244
 3213POPC   C1B43483  12.343   9.290   6.128
 3213POPC   C2B43484  12.472   9.131   6.518
 3213POPC   C3B43485  12.397   9.282   6.934
 3213POPC   C4B43486  12.487   9.574   7.258
 3214POPC   NC343487  15.473  37.194   5.506
 3214POPC   PO443488  15.199  36.606   5.287
 3214POPC   GL143489  15.024  36.630   5.720
 3214POPC   GL243490  15.072  36.972   5.757
 3214POPC   C1A43491  15.203  36.592   6.169
 3214POPC   D2A43492  15.451  36.554   6.548
 3214POPC   C3A43493  15.253  36.437   6.922
 3214POPC   C4A43494  15.039  36.619   7.249
 3214POPC   C1B43495  15.233  37.107   6.128
 3214POPC   C2B43496  15.373  37.080   6.537
 3214POPC   C3B43497  15.350  37.219   6.929
 3214POPC   C4B43498  15.189  37.116   7.341
 3215POPC   NC343499  30.202  20.410   5.044
 3215POPC   PO443500  29.895  20.917   5.375
 3215POPC   GL143501  29.968  20.812   5.807
 3215POPC   GL243502  29.941  20.443   5.867
 3215POPC   C1A43503  29.815  20.762   6.244
 3215POPC   D2A43504  30.007  20.773   6.640
 3215POPC   C3A43505  29.816  20.824   7.039
 3215POPC   C4A43506  30.003  20.542   7.337
 3215POPC   C1B43507  29.664  20.238   6.160
 3215POPC   C2B43508  29.618  20.390   6.561
 3215POPC   C3B43509  29.859  20.319   6.904
 3215POPC   C4B43510  29.876  20.008   7.207
 3216POPC   NC343511   1.060   2.879   5.415
 3216POPC   PO443512   0.585   2.518   5.467
 3216POPC   GL143513   0.894   2.566   5.861
 3216POPC   GL243514   1.182   2.806   5.903
 3216POPC   C1A43515   0.944   2.534   6.357
 3216POPC   D2A43516   0.858   2.400   6.815
 3216POPC   C3A43517   0.870   2.724   7.130
 3216POPC   C4A43518   1.090   3.111   7.115
 3216POPC   C1B43519   1.387   2.798   6.305
 3216POPC   C2B43520   1.373   2.532   6.679
 3216POPC   C3B43521   1.304   2.425   7.101
 3216POPC   C4B43522   1.292   2.722   7.413
 3217POPC   NC343523  26.539  26.705   5.238
 3217POPC   PO443524  27.191  26.932   5.262
 3217POPC   GL143525  27.172  26.717   5.714
 3217POPC   GL243526  26.859  26.561   5.798
 3217POPC   C1A43527  27.243  26.824   6.179
 3217POPC   D2A43528  27.113  26.769   6.621
 3217POPC   C3A43529  27.053  27.003   7.015
 3217POPC   C4A43530  26.873  26.845   7.400
 3217POPC   C1B43531  26.682  26.542   6.231
 3217POPC   C2B43532  26.680  26.518   6.685
 3217POPC   C3B43533  26.556  26.811   6.984
 3217POPC   C4B43534  26.513  27.193   7.201
 3218POPC   NC343535  44.960  36.208   5.393
 3218POPC   PO443536  44.415  36.591   5.570
 3218POPC   GL143537  44.548  36.257   5.805
 3218POPC   GL243538  44.820  36.016   5.840
 3218POPC   C1A43539  44.689  36.311   6.236
 3218POPC   D2A43540  44.764  36.565   6.566
 3218POPC   C3A43541  44.722  36.377   6.932
 3218POPC   C4A43542  44.744  36.478   7.356
 3218POPC   C1B43543  44.510  35.852   6.146
 3218POPC   C2B43544  44.591  35.930   6.596
 3218POPC   C3B43545  44.640  35.881   7.044
 3218POPC   C4B43546   0.030  36.065   7.228
 3219POPC   NC343547  18.368  41.432   5.402
 3219POPC   PO443548  18.950  41.832   5.348
 3219POPC   GL143549  18.666  41.666   5.759
 3219POPC   GL243550  18.359  41.395   5.896
 3219POPC   C1A43551  18.487  41.794   6.178
 3219POPC   D2A43552  18.498  41.825   6.650
 3219POPC   C3A43553  18.309  41.525   6.958
 3219POPC   C4A43554  18.293  41.539   7.402
 3219POPC   C1B43555  18.049  41.505   6.237
 3219POPC   C2B43556  17.930  41.706   6.646
 3219POPC   C3B43557  17.683  41.563   7.004
 3219POPC   C4B43558  17.781  41.584   7.445
 3220POPC   NC343559  16.698  28.382   5.444
 3220POPC   PO443560  16.616  27.800   5.674
 3220POPC   GL143561  16.886  28.041   5.904
 3220POPC   GL243562  16.776  28.377   5.957
 3220POPC   C1A43563  16.827  28.020   6.328
 3220POPC   D2A43564  16.679  28.168   6.670
 3220POPC   C3A43565  16.876  28.107   7.041
 3220POPC   C4A43566  16.555  28.251   7.289
 3220POPC   C1B43567  16.961  28.527   6.347
 3220POPC   C2B43568  16.880  28.638   6.781
 3220POPC   C3B43569  16.961  28.603   7.223
 3220POPC   C4B43570  17.168  28.769   7.614
 3221POPC   NC343571  35.373  10.043   5.468
 3221POPC   PO443572  35.217  10.776   5.446
 3221POPC   GL143573  35.236  10.645   5.861
 3221POPC   GL243574  35.426  10.369   5.855
 3221POPC   C1A43575  35.339  10.596   6.310
 3221POPC   D2A43576  35.525  10.520   6.700
 3221POPC   C3A43577  35.340  10.555   7.119
 3221POPC   C4A43578  35.654  10.665   7.440
 3221POPC   C1B43579  35.617  10.174   6.238
 3221POPC   C2B43580  35.541  10.001   6.668
 3221POPC   C3B43581  35.669  10.157   7.065
 3221POPC   C4B43582  35.538  10.168   7.496
 3222POPC   NC343583   0.750  38.299   5.422
 3222POPC   PO443584   0.069  38.363   5.629
 3222POPC   GL143585   0.473  38.576   5.764
 3222POPC   GL243586   0.627  38.274   5.926
 3222POPC   C1A43587   0.701  38.720   6.148
 3222POPC   D2A43588   0.433  38.567   6.484
 3222POPC   C3A43589   0.573  38.556   6.887
 3222POPC   C4A43590   0.329  38.603   7.227
 3222POPC   C1B43591   0.576  38.100   6.343
 3222POPC   C2B43592   0.692  38.041   6.799
 3222POPC   C3B43593   0.636  38.173   7.237
 3222POPC   C4B43594   0.833  38.261   7.654
 3223POPC   NC343595  24.996  10.776   5.520
 3223POPC   PO443596  25.509  10.390   5.211
 3223POPC   GL143597  25.429  10.392   5.706
 3223POPC   GL243598  25.074  10.370   5.811
 3223POPC   C1A43599  25.433  10.646   6.134
 3223POPC   D2A43600  25.591  10.664   6.606
 3223POPC   C3A43601  25.318  10.845   6.962
 3223POPC   C4A43602  25.409  11.081   7.376
 3223POPC   C1B43603  24.905  10.534   6.164
 3223POPC   C2B43604  25.081  10.533   6.557
 3223POPC   C3B43605  24.982  10.418   6.952
 3223POPC   C4B43606  24.974  10.266   7.339
 3224POPC   NC343607  12.676  44.639   5.329
 3224POPC   PO443608  12.902   0.220   5.183
 3224POPC   GL143609  12.961  44.949   5.593
 3224POPC   GL243610  13.062  44.607   5.755
 3224POPC   C1A43611  12.844  44.960   6.032
 3224POPC   D2A43612  12.776  44.712   6.388
 3224POPC   C3A43613  12.903  44.839   6.805
 3224POPC   C4A43614  12.623  44.803   7.154
 3224POPC   C1B43615  13.316  44.354   6.087
 3224POPC   C2B43616  13.215  44.428   6.517
 3224POPC   C3B43617  13.041  44.354   6.919
 3224POPC   C4B43618  13.316  44.234   7.205
 3225POPC   NC343619  20.003   8.467   5.421
 3225POPC   PO443620  19.682   7.895   5.419
 3225POPC   GL143621  19.634   8.092   5.842
 3225POPC   GL243622  19.583   8.428   5.738
 3225POPC   C1A43623  19.903   8.191   6.247
 3225POPC   D2A43624  19.997   8.431   6.657
 3225POPC   C3A43625  20.023   8.227   7.092
 3225POPC   C4A43626  20.163   8.298   7.527
 3225POPC   C1B43627  19.541   8.539   6.156
 3225POPC   C2B43628  19.500   8.301   6.543
 3225POPC   C3B43629  19.592   8.461   6.967
 3225POPC   C4B43630  19.660   8.421   7.406
 3226POPC   NC343631  41.470  26.907   5.291
 3226POPC   PO443632  41.547  26.290   5.196
 3226POPC   GL143633  41.664  26.501   5.647
 3226POPC   GL243634  41.754  26.874   5.698
 3226POPC   C1A43635  41.531  26.651   6.105
 3226POPC   D2A43636  41.273  26.848   6.448
 3226POPC   C3A43637  41.384  26.864   6.903
 3226POPC   C4A43638  41.413  26.634   7.319
 3226POPC   C1B43639  41.957  26.922   6.103
 3226POPC   C2B43640  41.774  26.989   6.502
 3226POPC   C3B43641  41.920  27.047   6.910
 3226POPC   C4B43642  41.730  27.031   7.255
 3227POPC   NC343643  29.667  16.078   5.308
 3227POPC   PO443644  30.237  16.071   5.564
 3227POPC   GL143645  29.826  16.081   5.804
 3227POPC   GL243646  29.655  15.791   5.840
 3227POPC   C1A43647  29.563  16.211   6.179
 3227POPC   D2A43648  29.728  16.264   6.627
 3227POPC   C3A43649  29.704  16.056   7.060
 3227POPC   C4A43650  29.965  16.039   7.456
 3227POPC   C1B43651  29.852  15.802   6.269
 3227POPC   C2B43652  29.876  15.720   6.721
 3227POPC   C3B43653  29.978  15.613   7.175
 3227POPC   C4B43654  30.205  15.587   7.592
 3228POPC   NC343655  23.664  18.431   5.384
 3228POPC   PO443656  24.314  18.489   5.375
 3228POPC   GL143657  23.991  18.507   5.761
 3228POPC   GL243658  23.751  18.215   5.843
 3228POPC   C1A43659  23.774  18.632   6.179
 3228POPC   D2A43660  23.593  18.612   6.645
 3228POPC   C3A43661  23.789  18.530   7.086
 3228POPC   C4A43662  23.872  18.497   7.578
 3228POPC   C1B43663  23.536  18.180   6.271
 3228POPC   C2B43664  23.600  18.091   6.716
 3228POPC   C3B43665  23.587  18.081   7.169
 3228POPC   C4B43666  23.564  18.024   7.597
 3229POPC   NC343667  31.578  17.740   5.628
 3229POPC   PO443668  31.316  17.145   5.388
 3229POPC   GL143669  31.515  17.251   5.770
 3229POPC   GL243670  31.238  17.460   5.907
 3229POPC   C1A43671  31.806  17.304   6.137
 3229POPC   D2A43672  31.878  17.465   6.571
 3229POPC   C3A43673  31.680  17.385   6.980
 3229POPC   C4A43674  31.807  17.224   7.393
 3229POPC   C1B43675  31.444  17.652   6.279
 3229POPC   C2B43676  31.651  17.925   6.574
 3229POPC   C3B43677  31.536  17.876   6.998
 3229POPC   C4B43678  31.236  17.594   7.205
 3230POPC   NC343679  40.820  44.969   5.465
 3230POPC   PO443680  41.230  44.426   5.508
 3230POPC   GL143681  40.905  44.506   5.756
 3230POPC   GL243682  40.649  44.296   5.855
 3230POPC   C1A43683  40.944  44.639   6.162
 3230POPC   D2A43684  40.739  44.747   6.516
 3230POPC   C3A43685  40.913  44.700   6.917
 3230POPC   C4A43686  40.685  44.976   7.214
 3230POPC   C1B43687  40.551  44.217   6.291
 3230POPC   C2B43688  40.522  44.335   6.738
 3230POPC   C3B43689  40.586  44.357   7.181
 3230POPC   C4B43690  40.466  44.200   7.621
 3231POPC   NC343691  28.078  36.686   5.516
 3231POPC   PO443692  28.702  37.050   5.436
 3231POPC   GL143693  28.450  36.905   5.788
 3231POPC   GL243694  28.376  37.252   5.919
 3231POPC   C1A43695  28.240  36.841   6.179
 3231POPC   D2A43696  28.340  37.142   6.474
 3231POPC   C3A43697  28.170  37.035   6.854
 3231POPC   C4A43698  28.310  36.706   7.097
 3231POPC   C1B43699  28.749  37.282   6.158
 3231POPC   C2B43700  28.917  37.160   6.580
 3231POPC   C3B43701  28.694  37.160   6.981
 3231POPC   C4B43702  28.352  37.279   7.257
 3232POPC   NC343703  18.513  43.647   5.325
 3232POPC   PO443704  19.130  44.023   5.291
 3232POPC   GL143705  19.107  44.049   5.726
 3232POPC   GL243706  19.306  44.331   5.745
 3232POPC   C1A43707  18.907  44.115   6.160
 3232POPC   D2A43708  18.638  44.086   6.539
 3232POPC   C3A43709  18.962  44.066   6.868
 3232POPC   C4A43710  19.091  43.715   7.135
 3232POPC   C1B43711  19.456  44.140   6.119
 3232POPC   C2B43712  19.351  44.234   6.550
 3232POPC   C3B43713  19.468  44.111   6.967
 3232POPC   C4B43714  19.394  44.028   7.406
 3233POPC   NC343715  39.322  38.137   5.480
 3233POPC   PO443716  38.979  38.702   5.289
 3233POPC   GL143717  39.004  38.460   5.733
 3233POPC   GL243718  39.311  38.344   5.962
 3233POPC   C1A43719  38.869  38.413   6.168
 3233POPC   D2A43720  38.766  38.460   6.579
 3233POPC   C3A43721  39.070  38.507   6.919
 3233POPC   C4A43722  39.219  38.436   7.353
 3233POPC   C1B43723  39.577  38.007   6.162
 3233POPC   C2B43724  39.654  37.955   6.629
 3233POPC   C3B43725  39.731  38.196   7.036
 3233POPC   C4B43726  39.710  38.340   7.496
 3234POPC   NC343727  10.355  21.046   5.312
 3234POPC   PO443728  10.043  20.556   5.358
 3234POPC   GL143729  10.333  20.657   5.712
 3234POPC   GL243730  10.653  20.862   5.684
 3234POPC   C1A43731  10.541  20.443   6.078
 3234POPC   D2A43732  10.651  20.568   6.512
 3234POPC   C3A43733  10.420  20.387   6.859
 3234POPC   C4A43734  10.482  20.470   7.289
 3234POPC   C1B43735  10.584  20.949   6.126
 3234POPC   C2B43736  10.386  21.040   6.531
 3234POPC   C3B43737  10.519  20.880   6.931
 3234POPC   C4B43738  10.767  20.971   7.274
 3235POPC   NC343739   3.091  16.026   5.677
 3235POPC   PO443740   2.671  15.568   5.361
 3235POPC   GL143741   2.587  15.886   5.708
 3235POPC   GL243742   2.502  16.259   5.716
 3235POPC   C1A43743   2.596  16.014   6.160
 3235POPC   D2A43744   2.357  15.955   6.532
 3235POPC   C3A43745   2.587  16.040   6.853
 3235POPC   C4A43746   2.452  16.002   7.217
 3235POPC   C1B43747   2.764  16.497   6.066
 3235POPC   C2B43748   3.048  16.560   6.451
 3235POPC   C3B43749   2.938  16.415   6.887
 3235POPC   C4B43750   2.970  16.101   7.223
 3236POPC   NC343751   5.869  28.707   5.494
 3236POPC   PO443752   6.274  28.106   5.496
 3236POPC   GL143753   5.978  28.296   5.766
 3236POPC   GL243754   5.669  28.155   5.647
 3236POPC   C1A43755   5.855  28.537   6.141
 3236POPC   D2A43756   6.037  28.660   6.529
 3236POPC   C3A43757   5.917  28.525   6.937
 3236POPC   C4A43758   6.082  28.642   7.346
 3236POPC   C1B43759   5.606  28.098   6.120
 3236POPC   C2B43760   5.651  28.292   6.538
 3236POPC   C3B43761   5.571  28.158   6.975
 3236POPC   C4B43762   5.906  28.105   7.289
 3237POPC   NC343763  16.518   1.593   5.390
 3237POPC   PO443764  16.868   0.996   5.228
 3237POPC   GL143765  16.862   1.251   5.626
 3237POPC   GL243766  16.547   1.274   5.786
 3237POPC   C1A43767  16.962   1.273   6.090
 3237POPC   D2A43768  16.850   1.005   6.457
 3237POPC   C3A43769  16.918   1.210   6.852
 3237POPC   C4A43770  16.791   1.303   7.246
 3237POPC   C1B43771  16.503   1.479   6.191
 3237POPC   C2B43772  16.443   1.295   6.636
 3237POPC   C3B43773  16.386   1.543   6.988
 3237POPC   C4B43774  16.535   1.741   7.331
 3238POPC   NC343775  13.037  26.328   5.433
 3238POPC   PO443776  12.416  26.052   5.306
 3238POPC   GL143777  12.700  26.000   5.675
 3238POPC   GL243778  12.803  25.647   5.805
 3238POPC   C1A43779  12.659  26.037   6.122
 3238POPC   D2A43780  12.502  26.139   6.527
 3238POPC   C3A43781  12.808  26.335   6.790
 3238POPC   C4A43782  12.753  26.168   7.179
 3238POPC   C1B43783  13.126  25.830   6.112
 3238POPC   C2B43784  13.217  26.065   6.491
 3238POPC   C3B43785  13.155  25.963   6.908
 3238POPC   C4B43786  13.119  25.865   7.338
 3239POPC   NC343787   8.367  27.772   5.515
 3239POPC   PO443788   7.820  27.403   5.505
 3239POPC   GL143789   7.995  27.695   5.844
 3239POPC   GL243790   8.304  27.486   5.919
 3239POPC   C1A43791   8.229  27.833   6.258
 3239POPC   D2A43792   8.376  27.553   6.609
 3239POPC   C3A43793   8.108  27.583   6.965
 3239POPC   C4A43794   8.054  27.909   7.244
 3239POPC   C1B43795   8.639  27.345   6.214
 3239POPC   C2B43796   8.674  27.153   6.663
 3239POPC   C3B43797   8.459  27.216   7.054
 3239POPC   C4B43798   8.447  27.552   7.361
 3240POPC   NC343799  32.602  35.366   5.589
 3240POPC   PO443800  32.067  35.000   5.398
 3240POPC   GL143801  32.082  35.345   5.748
 3240POPC   GL243802  32.331  35.302   6.010
 3240POPC   C1A43803  31.875  35.451   6.172
 3240POPC   D2A43804  31.901  35.180   6.549
 3240POPC   C3A43805  32.102  35.266   6.962
 3240POPC   C4A43806  32.249  35.399   7.373
 3240POPC   C1B43807  32.541  35.014   6.294
 3240POPC   C2B43808  32.453  34.948   6.741
 3240POPC   C3B43809  32.568  35.062   7.160
 3240POPC   C4B43810  32.601  35.107   7.606
 3241POPC   NC343811  21.571  21.608   5.477
 3241POPC   PO443812  21.107  21.196   5.442
 3241POPC   GL143813  21.311  21.325   5.809
 3241POPC   GL243814  21.653  21.174   5.734
 3241POPC   C1A43815  21.440  21.645   6.145
 3241POPC   D2A43816  21.696  21.685   6.539
 3241POPC   C3A43817  21.488  21.542   6.941
 3241POPC   C4A43818  21.095  21.621   7.147
 3241POPC   C1B43819  21.648  21.168   6.165
 3241POPC   C2B43820  21.431  21.234   6.523
 3241POPC   C3B43821  21.484  21.005   6.902
 3241POPC   C4B43822  21.348  20.980   7.313
 3242POPC   NC343823  42.423  32.161   5.232
 3242POPC   PO443824  41.806  32.001   5.445
 3242POPC   GL143825  42.184  32.014   5.755
 3242POPC   GL243826  42.565  32.081   5.752
 3242POPC   C1A43827  42.266  32.133   6.197
 3242POPC   D2A43828  42.177  31.964   6.622
 3242POPC   C3A43829  42.064  32.250   6.957
 3242POPC   C4A43830  42.264  32.387   7.343
 3242POPC   C1B43831  42.692  31.875   6.142
 3242POPC   C2B43832  42.661  32.074   6.563
 3242POPC   C3B43833  42.554  32.111   6.985
 3242POPC   C4B43834  42.716  31.916   7.319
 3243POPC   NC343835  12.572  38.531   5.451
 3243POPC   PO443836  13.127  38.218   5.576
 3243POPC   GL143837  12.951  38.507   5.929
 3243POPC   GL243838  12.640  38.684   5.918
 3243POPC   C1A43839  12.744  38.526   6.391
 3243POPC   D2A43840  12.686  38.698   6.817
 3243POPC   C3A43841  13.055  38.546   7.066
 3243POPC   C4A43842  13.071  38.597   7.520
 3243POPC   C1B43843  12.499  38.219   6.059
 3243POPC   C2B43844  12.358  38.148   6.514
 3243POPC   C3B43845  12.385  38.304   6.964
 3243POPC   C4B43846  12.649  38.378   7.341
 3244POPC   NC343847  14.673  40.514   5.525
 3244POPC   PO443848  14.344  41.160   5.437
 3244POPC   GL143849  14.398  40.875   5.773
 3244POPC   GL243850  14.726  40.932   5.922
 3244POPC   C1A43851  14.331  40.711   6.194
 3244POPC   D2A43852  14.526  40.727   6.600
 3244POPC   C3A43853  14.339  40.852   6.986
 3244POPC   C4A43854  14.492  41.177   7.193
 3244POPC   C1B43855  14.803  40.524   6.173
 3244POPC   C2B43856  14.911  40.362   6.575
 3244POPC   C3B43857  14.723  40.426   6.988
 3244POPC   C4B43858  14.735  40.741   7.333
 3245POPC   NC343859  26.551   0.707   5.262
 3245POPC   PO443860  27.112   0.534   5.592
 3245POPC   GL143861  26.793   0.609   5.882
 3245POPC   GL243862  26.511   0.788   5.765
 3245POPC   C1A43863  26.862   0.533   6.303
 3245POPC   D2A43864  26.921   0.333   6.670
 3245POPC   C3A43865  27.112   0.529   6.983
 3245POPC   C4A43866  27.067   0.230   7.278
 3245POPC   C1B43867  26.388   0.778   6.197
 3245POPC   C2B43868  26.330   0.908   6.620
 3245POPC   C3B43869  26.525   0.804   7.028
 3245POPC   C4B43870  26.797   0.656   7.368
 3246POPC   NC343871  24.558  12.505   5.468
 3246POPC   PO443872  24.810  11.862   5.376
 3246POPC   GL143873  24.725  11.995   5.817
 3246POPC   GL243874  24.486  12.260   5.895
 3246POPC   C1A43875  24.532  11.901   6.236
 3246POPC   D2A43876  24.547  11.867   6.686
 3246POPC   C3A43877  24.324  11.787   7.090
 3246POPC   C4A43878  24.301  11.877   7.563
 3246POPC   C1B43879  24.413  12.454   6.283
 3246POPC   C2B43880  24.339  12.328   6.705
 3246POPC   C3B43881  24.584  12.227   7.078
 3246POPC   C4B43882  24.775  12.127   7.483
 3247POPC   NC343883  40.544  30.991   5.057
 3247POPC   PO443884  41.062  31.333   5.417
 3247POPC   GL143885  40.966  31.585   5.786
 3247POPC   GL243886  40.976  31.245   5.910
 3247POPC   C1A43887  40.997  31.629   6.268
 3247POPC   D2A43888  41.222  31.694   6.699
 3247POPC   C3A43889  40.947  31.553   7.064
 3247POPC   C4A43890  40.561  31.749   7.170
 3247POPC   C1B43891  41.135  31.141   6.279
 3247POPC   C2B43892  40.986  31.243   6.642
 3247POPC   C3B43893  41.183  31.109   6.977
 3247POPC   C4B43894  40.995  31.099   7.385
 3248POPC   NC343895  12.758   8.541   5.308
 3248POPC   PO443896  13.239   8.075   5.202
 3248POPC   GL143897  12.952   8.168   5.638
 3248POPC   GL243898  12.618   7.942   5.694
 3248POPC   C1A43899  12.738   8.287   6.096
 3248POPC   D2A43900  12.753   8.167   6.601
 3248POPC   C3A43901  12.969   8.197   7.050
 3248POPC   C4A43902  13.172   7.902   7.361
 3248POPC   C1B43903  12.322   7.943   6.070
 3248POPC   C2B43904  12.262   8.145   6.499
 3248POPC   C3B43905  12.318   8.106   6.950
 3248POPC   C4B43906  12.509   8.260   7.274
 3249POPC   NC343907  38.170  42.578   5.563
 3249POPC   PO443908  38.640  42.111   5.520
 3249POPC   GL143909  38.676  42.282   5.921
 3249POPC   GL243910  38.430  42.520   6.005
 3249POPC   C1A43911  38.674  42.170   6.344
 3249POPC   D2A43912  38.459  42.035   6.678
 3249POPC   C3A43913  38.524  42.135   7.114
 3249POPC   C4A43914  38.572  42.090   7.534
 3249POPC   C1B43915  38.178  42.635   6.345
 3249POPC   C2B43916  38.131  42.448   6.732
 3249POPC   C3B43917  38.319  42.597   7.076
 3249POPC   C4B43918  38.359  42.553   7.543
 3250POPC   NC343919   7.698  32.779   5.282
 3250POPC   PO443920   7.277  33.226   5.517
 3250POPC   GL143921   7.424  33.115   5.927
 3250POPC   GL243922   7.632  32.849   5.848
 3250POPC   C1A43923   7.684  33.146   6.308
 3250POPC   D2A43924   7.879  33.331   6.688
 3250POPC   C3A43925   7.599  33.484   7.046
 3250POPC   C4A43926   7.298  33.145   7.155
 3250POPC   C1B43927   7.589  32.640   6.242
 3250POPC   C2B43928   7.730  32.751   6.670
 3250POPC   C3B43929   7.734  32.685   7.141
 3250POPC   C4B43930   7.431  32.763   7.509
 3251POPC   NC343931   0.938  17.714   5.479
 3251POPC   PO443932   1.404  17.130   5.406
 3251POPC   GL143933   1.319  17.410   5.750
 3251POPC   GL243934   1.649  17.565   5.820
 3251POPC   C1A43935   1.138  17.554   6.157
 3251POPC   D2A43936   0.959  17.513   6.570
 3251POPC   C3A43937   1.179  17.598   6.969
 3251POPC   C4A43938   1.133  17.680   7.436
 3251POPC   C1B43939   1.618  17.323   6.176
 3251POPC   C2B43940   1.570  17.500   6.570
 3251POPC   C3B43941   1.599  17.313   6.983
 3251POPC   C4B43942   1.620  17.600   7.332
 3252POPC   NC343943  11.098  21.656   5.234
 3252POPC   PO443944  11.551  22.253   5.371
 3252POPC   GL143945  11.459  22.164   5.751
 3252POPC   GL243946  11.099  22.052   5.745
 3252POPC   C1A43947  11.717  22.157   6.111
 3252POPC   D2A43948  11.666  21.941   6.506
 3252POPC   C3A43949  11.530  22.134   6.874
 3252POPC   C4A43950  11.313  22.264   7.242
 3252POPC   C1B43951  11.230  22.019   6.188
 3252POPC   C2B43952  11.108  22.107   6.597
 3252POPC   C3B43953  11.112  21.857   6.973
 3252POPC   C4B43954  11.358  21.700   7.303
 3253POPC   NC343955  23.660   1.967   5.577
 3253POPC   PO443956  23.365   1.401   5.331
 3253POPC   GL143957  23.492   1.562   5.832
 3253POPC   GL243958  23.835   1.803   6.003
 3253POPC   C1A43959  23.400   1.793   6.249
 3253POPC   D2A43960  23.703   1.850   6.581
 3253POPC   C3A43961  23.628   1.739   7.028
 3253POPC   C4A43962  24.012   1.598   7.198
 3253POPC   C1B43963  23.699   2.197   6.192
 3253POPC   C2B43964  23.770   2.369   6.575
 3253POPC   C3B43965  23.811   2.220   6.946
 3253POPC   C4B43966  23.549   2.229   7.254
 3254POPC   NC343967  12.278  40.650   5.165
 3254POPC   PO443968  11.834  41.128   5.359
 3254POPC   GL143969  11.987  41.022   5.793
 3254POPC   GL243970  12.266  40.771   5.769
 3254POPC   C1A43971  11.918  40.924   6.264
 3254POPC   D2A43972  11.869  40.990   6.731
 3254POPC   C3A43973  11.920  40.662   7.080
 3254POPC   C4A43974  11.902  40.833   7.502
 3254POPC   C1B43975  12.388  41.039   6.121
 3254POPC   C2B43976  12.353  40.918   6.557
 3254POPC   C3B43977  12.373  40.885   7.032
 3254POPC   C4B43978  12.368  41.103   7.422
 3255POPC   NC343979  33.984  20.259   5.319
 3255POPC   PO443980  33.753  19.623   5.108
 3255POPC   GL143981  33.677  19.895   5.534
 3255POPC   GL243982  33.993  19.974   5.756
 3255POPC   C1A43983  33.540  19.998   5.984
 3255POPC   D2A43984  33.676  19.770   6.369
 3255POPC   C3A43985  33.637  19.888   6.831
 3255POPC   C4A43986  33.640  20.133   7.219
 3255POPC   C1B43987  34.135  19.894   6.215
 3255POPC   C2B43988  34.094  19.726   6.672
 3255POPC   C3B43989  34.103  19.806   7.130
 3255POPC   C4B43990  34.181  20.120   7.436
 3256POPC   NC343991   9.547  15.391   5.654
 3256POPC   PO443992   8.951  15.278   5.341
 3256POPC   GL143993   8.886  15.232   5.802
 3256POPC   GL243994   8.896  15.568   5.867
 3256POPC   C1A43995   8.677  15.307   6.249
 3256POPC   D2A43996   8.583  15.079   6.628
 3256POPC   C3A43997   8.532  15.298   7.008
 3256POPC   C4A43998   8.558  15.026   7.331
 3256POPC   C1B43999   9.172  15.414   6.228
 3256POPC   C2B44000   9.021  15.356   6.651
 3256POPC   C3B44001   9.048  15.303   7.094
 3256POPC   C4B44002   9.271  15.462   7.474
 3257POPC   NC344003  18.778  19.495   5.501
 3257POPC   PO444004  19.185  19.739   4.975
 3257POPC   GL144005  19.025  19.937   5.448
 3257POPC   GL244006  18.731  19.989   5.669
 3257POPC   C1A44007  19.174  19.929   5.930
 3257POPC   D2A44008  19.177  19.683   6.350
 3257POPC   C3A44009  19.176  19.849   6.797
 3257POPC   C4A44010  19.199  19.893   7.245
 3257POPC   C1B44011  18.679  19.773   6.115
 3257POPC   C2B44012  18.545  19.768   6.599
 3257POPC   C3B44013  18.710  19.721   7.062
 3257POPC   C4B44014  18.800  19.672   7.519
 3258POPC   NC344015  19.650   7.443   5.284
 3258POPC   PO444016  20.055   6.968   5.373
 3258POPC   GL144017  19.874   7.258   5.760
 3258POPC   GL244018  19.623   7.545   5.811
 3258POPC   C1A44019  19.684   7.255   6.216
 3258POPC   D2A44020  19.836   7.445   6.607
 3258POPC   C3A44021  19.641   7.417   7.021
 3258POPC   C4A44022  19.670   7.043   7.324
 3258POPC   C1B44023  19.609   7.778   6.258
 3258POPC   C2B44024  19.750   7.918   6.731
 3258POPC   C3B44025  20.045   7.714   7.043
 3258POPC   C4B44026  20.124   7.302   7.248
 3259POPC   NC344027  44.040  44.258   5.389
 3259POPC   PO444028  44.412  44.789   5.295
 3259POPC   GL144029  44.109  44.723   5.678
 3259POPC   GL244030  43.758  44.545   5.694
 3259POPC   C1A44031  43.968  44.719   6.133
 3259POPC   D2A44032  43.877  44.475   6.494
 3259POPC   C3A44033  43.924  44.656   6.879
 3259POPC   C4A44034  43.998  44.479   7.271
 3259POPC   C1B44035  43.625  44.323   6.065
 3259POPC   C2B44036  43.405  44.266   6.444
 3259POPC   C3B44037  43.511  44.267   6.853
 3259POPC   C4B44038  43.499  44.424   7.258
 3260POPC   NC344039  12.371  41.155   5.451
 3260POPC   PO444040  12.237  41.838   5.424
 3260POPC   GL144041  12.095  41.533   5.710
 3260POPC   GL244042  12.425  41.496   5.840
 3260POPC   C1A44043  11.911  41.437   6.126
 3260POPC   D2A44044  11.895  41.697   6.526
 3260POPC   C3A44045  11.891  41.483   6.934
 3260POPC   C4A44046  11.897  41.762   7.282
 3260POPC   C1B44047  12.387  41.545   6.268
 3260POPC   C2B44048  12.332  41.409   6.688
 3260POPC   C3B44049  12.569  41.449   7.063
 3260POPC   C4B44050  12.379  41.617   7.406
 3261POPC   NC344051  22.651  11.034   5.390
 3261POPC   PO444052  23.194  11.536   5.471
 3261POPC   GL144053  23.120  11.411   5.863
 3261POPC   GL244054  23.002  11.103   5.802
 3261POPC   C1A44055  23.168  11.286   6.295
 3261POPC   D2A44056  23.069  11.134   6.703
 3261POPC   C3A44057  23.045  11.320   7.108
 3261POPC   C4A44058  23.253  11.064   7.404
 3261POPC   C1B44059  22.759  10.994   6.180
 3261POPC   C2B44060  22.628  10.877   6.610
 3261POPC   C3B44061  22.616  11.079   7.007
 3261POPC   C4B44062  22.758  10.965   7.447
 3262POPC   NC344063  17.836  40.605   5.395
 3262POPC   PO444064  17.220  40.998   5.434
 3262POPC   GL144065  17.529  40.883   5.733
 3262POPC   GL244066  17.547  40.536   5.814
 3262POPC   C1A44067  17.447  40.866   6.186
 3262POPC   D2A44068  17.393  40.562   6.527
 3262POPC   C3A44069  17.475  40.884   6.870
 3262POPC   C4A44070  17.531  41.059   7.300
 3262POPC   C1B44071  17.843  40.535   6.171
 3262POPC   C2B44072  17.880  40.669   6.621
 3262POPC   C3B44073  17.874  40.686   7.078
 3262POPC   C4B44074  17.869  40.724   7.525
 3263POPC   NC344075  16.265   5.069   5.396
 3263POPC   PO444076  15.570   4.919   5.289
 3263POPC   GL144077  15.939   5.018   5.746
 3263POPC   GL244078  15.828   5.040   6.115
 3263POPC   C1A44079  16.224   5.328   6.087
 3263POPC   D2A44080  16.155   5.421   6.546
 3263POPC   C3A44081  15.968   5.046   6.773
 3263POPC   C4A44082  15.965   4.894   7.195
 3263POPC   C1B44083  15.511   5.009   6.448
 3263POPC   C2B44084  15.448   5.019   6.883
 3263POPC   C3B44085  15.493   5.041   7.318
 3263POPC   C4B44086  15.677   4.822   7.680
 3264POPC   NC344087  13.398  43.450   5.239
 3264POPC   PO444088  13.699  43.999   5.185
 3264POPC   GL144089  13.687  44.003   5.647
 3264POPC   GL244090  13.775  43.644   5.682
 3264POPC   C1A44091  13.787  44.082   6.097
 3264POPC   D2A44092  13.728  43.892   6.540
 3264POPC   C3A44093  13.759  44.088   6.965
 3264POPC   C4A44094  13.737  44.069   7.451
 3264POPC   C1B44095  13.739  43.564   6.121
 3264POPC   C2B44096  13.952  43.425   6.502
 3264POPC   C3B44097  13.909  43.526   6.902
 3264POPC   C4B44098  13.612  43.648   7.208
 3265POPC   NC344099  32.004  36.278   5.638
 3265POPC   PO444100  32.314  35.703   5.413
 3265POPC   GL144101  32.315  35.904   5.803
 3265POPC   GL244102  32.494  36.261   5.787
 3265POPC   C1A44103  32.257  35.789   6.209
 3265POPC   D2A44104  32.355  35.943   6.591
 3265POPC   C3A44105  32.085  35.774   6.862
 3265POPC   C4A44106  32.200  35.882   7.267
 3265POPC   C1B44107  32.302  36.320   6.212
 3265POPC   C2B44108  31.997  36.301   6.557
 3265POPC   C3B44109  32.140  36.297   6.964
 3265POPC   C4B44110  32.000  36.340   7.366
 3266POPC   NC344111  35.957  42.908   5.327
 3266POPC   PO444112  36.415  43.326   5.387
 3266POPC   GL144113  36.262  43.035   5.707
 3266POPC   GL244114  36.364  43.209   5.930
 3266POPC   C1A44115  35.904  43.034   6.036
 3266POPC   D2A44116  36.060  43.327   6.359
 3266POPC   C3A44117  36.041  43.296   6.834
 3266POPC   C4A44118  35.820  43.333   7.242
 3266POPC   C1B44119  36.348  42.886   6.270
 3266POPC   C2B44120  36.321  42.839   6.721
 3266POPC   C3B44121  36.393  43.047   7.111
 3266POPC   C4B44122  36.650  43.019   7.490
 3267POPC   NC344123  41.408  31.740   5.441
 3267POPC   PO444124  41.806  31.119   5.426
 3267POPC   GL144125  41.638  31.389   5.761
 3267POPC   GL244126  41.963  31.550   5.777
 3267POPC   C1A44127  41.498  31.504   6.203
 3267POPC   D2A44128  41.550  31.271   6.622
 3267POPC   C3A44129  41.587  31.376   7.085
 3267POPC   C4A44130  41.401  31.748   7.208
 3267POPC   C1B44131  41.961  31.727   6.193
 3267POPC   C2B44132  41.712  31.781   6.587
 3267POPC   C3B44133  41.901  31.762   7.021
 3267POPC   C4B44134  42.199  31.896   7.338
 3268POPC   NC344135  28.276  16.258   5.175
 3268POPC   PO444136  28.305  15.727   5.585
 3268POPC   GL144137  28.417  16.099   5.679
 3268POPC   GL244138  28.099  16.181   5.863
 3268POPC   C1A44139  28.540  16.101   6.112
 3268POPC   D2A44140  28.338  16.194   6.504
 3268POPC   C3A44141  28.478  15.920   6.809
 3268POPC   C4A44142  28.487  15.917   7.240
 3268POPC   C1B44143  28.087  15.858   6.208
 3268POPC   C2B44144  27.894  15.896   6.625
 3268POPC   C3B44145  28.003  15.763   7.047
 3268POPC   C4B44146  27.989  15.953   7.425
 3269POPC   NC344147   7.215   2.200   5.357
 3269POPC   PO444148   7.883   2.264   5.393
 3269POPC   GL144149   7.620   2.099   5.690
 3269POPC   GL244150   7.692   1.772   5.693
 3269POPC   C1A44151   7.644   2.116   6.153
 3269POPC   D2A44152   7.686   2.194   6.608
 3269POPC   C3A44153   7.529   2.323   7.009
 3269POPC   C4A44154   7.546   2.074   7.372
 3269POPC   C1B44155   7.495   1.643   6.088
 3269POPC   C2B44156   7.337   1.812   6.488
 3269POPC   C3B44157   7.440   1.799   6.943
 3269POPC   C4B44158   7.372   1.555   7.359
 3270POPC   NC344159  27.849  35.720   5.402
 3270POPC   PO444160  27.343  35.171   5.418
 3270POPC   GL144161  27.578  35.432   5.748
 3270POPC   GL244162  27.469  35.785   5.764
 3270POPC   C1A44163  27.837  35.404   6.157
 3270POPC   D2A44164  27.803  35.143   6.551
 3270POPC   C3A44165  27.525  35.173   6.894
 3270POPC   C4A44166  27.705  35.330   7.257
 3270POPC   C1B44167  27.382  35.647   6.185
 3270POPC   C2B44168  27.587  35.657   6.581
 3270POPC   C3B44169  27.397  35.656   6.964
 3270POPC   C4B44170  27.369  35.747   7.386
 3271POPC   NC344171  27.472  27.323   5.221
 3271POPC   PO444172  27.143  27.917   5.097
 3271POPC   GL144173  27.247  28.121   5.678
 3271POPC   GL244174  27.536  27.926   5.818
 3271POPC   C1A44175  27.208  28.091   6.165
 3271POPC   D2A44176  27.492  27.925   6.544
 3271POPC   C3A44177  27.416  27.615   6.865
 3271POPC   C4A44178  27.620  27.620   7.267
 3271POPC   C1B44179  27.402  27.625   6.133
 3271POPC   C2B44180  27.252  27.332   6.425
 3271POPC   C3B44181  27.490  27.115   6.720
 3271POPC   C4B44182  27.531  27.136   7.177
 3272POPC   NC344183  33.835  37.830   5.445
 3272POPC   PO444184  33.578  37.228   5.675
 3272POPC   GL144185  33.833  37.430   5.925
 3272POPC   GL244186  34.045  37.154   5.946
 3272POPC   C1A44187  33.952  37.835   6.105
 3272POPC   D2A44188  33.781  38.123   6.418
 3272POPC   C3A44189  33.799  37.883   6.828
 3272POPC   C4A44190  33.976  37.904   7.250
 3272POPC   C1B44191  34.174  37.382   6.313
 3272POPC   C2B44192  34.201  37.487   6.748
 3272POPC   C3B44193  33.914  37.415   7.084
 3272POPC   C4B44194  33.853  37.473   7.509
 3273POPC   NC344195  19.592  34.764   5.444
 3273POPC   PO444196  20.145  34.445   5.514
 3273POPC   GL144197  19.901  34.573   5.804
 3273POPC   GL244198  19.670  34.337   5.736
 3273POPC   C1A44199  19.933  34.711   6.194
 3273POPC   D2A44200  20.188  34.541   6.511
 3273POPC   C3A44201  20.111  34.755   6.898
 3273POPC   C4A44202  20.162  34.573   7.293
 3273POPC   C1B44203  19.530  34.360   6.172
 3273POPC   C2B44204  19.415  34.359   6.628
 3273POPC   C3B44205  19.520  34.427   7.070
 3273POPC   C4B44206  19.709  34.795   7.260
 3274POPC   NC344207  26.277  37.922   5.441
 3274POPC   PO444208  25.645  37.581   5.463
 3274POPC   GL144209  25.804  37.650   5.861
 3274POPC   GL244210  25.997  37.949   5.872
 3274POPC   C1A44211  25.863  37.543   6.286
 3274POPC   D2A44212  25.716  37.340   6.652
 3274POPC   C3A44213  26.037  37.424   6.970
 3274POPC   C4A44214  26.433  37.637   7.148
 3274POPC   C1B44215  25.779  38.052   6.266
 3274POPC   C2B44216  25.792  37.883   6.706
 3274POPC   C3B44217  25.807  37.843   7.152
 3274POPC   C4B44218  25.812  37.991   7.620
 3275POPC   NC344219  25.032   0.470   5.454
 3275POPC   PO444220  25.665   0.281   5.478
 3275POPC   GL144221  25.463   0.368   5.847
 3275POPC   GL244222  25.178   0.169   5.855
 3275POPC   C1A44223  25.497   0.626   6.224
 3275POPC   D2A44224  25.360   0.487   6.586
 3275POPC   C3A44225  25.524   0.610   6.970
 3275POPC   C4A44226  25.603   0.238   7.236
 3275POPC   C1B44227  25.008   0.524   6.097
 3275POPC   C2B44228  24.879   0.684   6.478
 3275POPC   C3B44229  24.959   0.533   6.881
 3275POPC   C4B44230  25.121   0.513   7.275
 3276POPC   NC344231  23.112   9.811   5.304
 3276POPC   PO444232  22.554   9.918   5.468
 3276POPC   GL144233  22.854  10.002   5.813
 3276POPC   GL244234  23.145  10.167   5.705
 3276POPC   C1A44235  23.022   9.777   6.219
 3276POPC   D2A44236  23.281   9.602   6.582
 3276POPC   C3A44237  23.093   9.659   6.978
 3276POPC   C4A44238  22.690   9.563   7.185
 3276POPC   C1B44239  23.066  10.275   6.202
 3276POPC   C2B44240  23.133  10.089   6.651
 3276POPC   C3B44241  23.007  10.140   7.109
 3276POPC   C4B44242  22.759   9.970   7.486
 3277POPC   NC344243  14.183  17.765   5.569
 3277POPC   PO444244  14.365  17.135   5.470
 3277POPC   GL144245  14.406  17.357   5.856
 3277POPC   GL244246  14.079  17.303   5.869
 3277POPC   C1A44247  14.362  17.623   6.228
 3277POPC   D2A44248  14.522  17.806   6.629
 3277POPC   C3A44249  14.343  17.587   6.993
 3277POPC   C4A44250  14.071  17.783   7.303
 3277POPC   C1B44251  13.889  17.423   6.234
 3277POPC   C2B44252  13.912  17.611   6.625
 3277POPC   C3B44253  13.864  17.412   7.021
 3277POPC   C4B44254  14.072  17.293   7.411
 3278POPC   NC344255  31.723  40.640   5.440
 3278POPC   PO444256  31.041  40.844   5.516
 3278POPC   GL144257  31.313  40.671   5.848
 3278POPC   GL244258  31.662  40.826   5.909
 3278POPC   C1A44259  31.239  40.687   6.303
 3278POPC   D2A44260  31.007  40.590   6.685
 3278POPC   C3A44261  31.172  40.630   7.091
 3278POPC   C4A44262  31.307  40.950   7.330
 3278POPC   C1B44263  31.733  40.605   6.285
 3278POPC   C2B44264  31.547  40.655   6.713
 3278POPC   C3B44265  31.699  40.713   7.099
 3278POPC   C4B44266  31.749  40.398   7.364
 3279POPC   NC344267  22.730  35.342   5.423
 3279POPC   PO444268  23.277  35.015   5.295
 3279POPC   GL144269  23.078  35.099   5.752
 3279POPC   GL244270  22.711  35.051   5.841
 3279POPC   C1A44271  23.018  35.299   6.179
 3279POPC   D2A44272  23.098  35.088   6.568
 3279POPC   C3A44273  22.986  35.297   6.920
 3279POPC   C4A44274  23.076  35.457   7.302
 3279POPC   C1B44275  22.820  34.838   6.205
 3279POPC   C2B44276  22.605  34.855   6.595
 3279POPC   C3B44277  22.757  34.822   6.987
 3279POPC   C4B44278  22.826  35.014   7.350
 3280POPC   NC344279   2.619  13.068   5.717
 3280POPC   PO444280   3.082  12.783   5.246
 3280POPC   GL144281   2.962  12.673   5.727
 3280POPC   GL244282   2.669  12.514   5.843
 3280POPC   C1A44283   2.940  12.812   6.224
 3280POPC   D2A44284   2.778  13.236   6.459
 3280POPC   C3A44285   2.701  13.152   6.904
 3280POPC   C4A44286   2.989  12.825   7.026
 3280POPC   C1B44287   2.733  12.336   6.233
 3280POPC   C2B44288   2.724  12.498   6.623
 3280POPC   C3B44289   2.514  12.645   6.948
 3280POPC   C4B44290   2.552  12.495   7.337
 3281POPC   NC344291  25.769  27.781   5.047
 3281POPC   PO444292  26.324  27.430   5.277
 3281POPC   GL144293  26.076  27.355   5.666
 3281POPC   GL244294  26.013  27.706   5.726
 3281POPC   C1A44295  26.128  27.420   6.132
 3281POPC   D2A44296  26.032  27.594   6.523
 3281POPC   C3A44297  26.286  27.578   6.878
 3281POPC   C4A44298  26.064  27.499   7.227
 3281POPC   C1B44299  25.740  27.770   6.092
 3281POPC   C2B44300  25.726  27.996   6.493
 3281POPC   C3B44301  25.824  27.879   6.911
 3281POPC   C4B44302  26.145  27.988   7.209
 3282POPC   NC344303  14.836  24.316   5.378
 3282POPC   PO444304  14.282  24.615   5.341
 3282POPC   GL144305  14.158  24.715   5.768
 3282POPC   GL244306  14.104  24.388   5.866
 3282POPC   C1A44307  14.426  24.702   6.140
 3282POPC   D2A44308  14.285  24.661   6.558
 3282POPC   C3A44309  14.530  24.662   6.925
 3282POPC   C4A44310  14.284  24.504   7.269
 3282POPC   C1B44311  14.487  24.184   6.063
 3282POPC   C2B44312  14.504  23.998   6.473
 3282POPC   C3B44313  14.524  24.143   6.879
 3282POPC   C4B44314  14.346  24.001   7.231
 3283POPC   NC344315  10.704   4.324   5.302
 3283POPC   PO444316  10.042   4.028   5.454
 3283POPC   GL144317  10.440   4.064   5.679
 3283POPC   GL244318  10.515   4.422   5.766
 3283POPC   C1A44319  10.644   4.072   6.098
 3283POPC   D2A44320  10.714   4.394   6.425
 3283POPC   C3A44321  10.574   4.204   6.801
 3283POPC   C4A44322  10.724   4.163   7.231
 3283POPC   C1B44323  10.272   4.419   6.157
 3283POPC   C2B44324  10.270   4.605   6.591
 3283POPC   C3B44325  10.322   4.593   7.040
 3283POPC   C4B44326  10.000   4.755   7.311
 3284POPC   NC344327  23.921  28.139   5.632
 3284POPC   PO444328  24.519  28.230   5.394
 3284POPC   GL144329  24.476  28.394   5.812
 3284POPC   GL244330  24.123  28.501   5.896
 3284POPC   C1A44331  24.639  28.189   6.193
 3284POPC   D2A44332  24.843  27.942   6.517
 3284POPC   C3A44333  24.711  28.093   6.926
 3284POPC   C4A44334  24.676  28.535   7.119
 3284POPC   C1B44335  24.143  28.236   6.258
 3284POPC   C2B44336  24.350  28.343   6.635
 3284POPC   C3B44337  24.179  28.479   7.026
 3284POPC   C4B44338  24.268  28.145   7.286
 3285POPC   NC344339  13.237  27.203   5.594
 3285POPC   PO444340  13.383  27.913   5.513
 3285POPC   GL144341  13.448  27.692   5.902
 3285POPC   GL244342  13.600  27.399   5.877
 3285POPC   C1A44343  13.656  27.601   6.324
 3285POPC   D2A44344  13.514  27.698   6.701
 3285POPC   C3A44345  13.676  27.507   7.053
 3285POPC   C4A44346  13.665  27.658   7.451
 3285POPC   C1B44347  13.352  27.209   6.246
 3285POPC   C2B44348  13.455  27.191   6.687
 3285POPC   C3B44349  13.488  27.040   7.107
 3285POPC   C4B44350  13.504  27.171   7.547
 3286POPC   NC344351  21.104  44.970   4.948
 3286POPC   PO444352  20.531  44.611   5.312
 3286POPC   GL144353  20.436  44.774   5.724
 3286POPC   GL244354  20.726  44.907   5.933
 3286POPC   C1A44355  20.279  44.784   6.142
 3286POPC   D2A44356  20.500  44.796   6.515
 3286POPC   C3A44357  20.360  44.660   6.889
 3286POPC   C4A44358  20.492  44.792   7.266
 3286POPC   C1B44359  20.741  44.513   6.151
 3286POPC   C2B44360  20.787  44.212   6.472
 3286POPC   C3B44361  20.798  44.367   6.875
 3286POPC   C4B44362  20.821  44.414   7.280
 3287POPC   NC344363  12.877  40.421   5.469
 3287POPC   PO444364  12.718  39.752   5.525
 3287POPC   GL144365  12.879  39.783   5.911
 3287POPC   GL244366  12.774  40.132   5.917
 3287POPC   C1A44367  13.063  39.649   6.297
 3287POPC   D2A44368  12.972  39.760   6.757
 3287POPC   C3A44369  13.167  39.746   7.175
 3287POPC   C4A44370  13.065  39.594   7.611
 3287POPC   C1B44371  12.995  40.174   6.311
 3287POPC   C2B44372  13.086  40.269   6.740
 3287POPC   C3B44373  12.828  40.126   7.085
 3287POPC   C4B44374  12.673  39.757   7.287
 3288POPC   NC344375   9.009   2.372   5.470
 3288POPC   PO444376   9.230   1.757   5.151
 3288POPC   GL144377   8.969   1.818   5.621
 3288POPC   GL244378   8.592   1.846   5.775
 3288POPC   C1A44379   9.077   1.902   6.092
 3288POPC   D2A44380   9.400   2.038   6.441
 3288POPC   C3A44381   9.281   2.183   6.876
 3288POPC   C4A44382   9.197   1.978   7.254
 3288POPC   C1B44383   8.621   2.086   6.219
 3288POPC   C2B44384   8.856   2.256   6.592
 3288POPC   C3B44385   8.778   2.223   7.061
 3288POPC   C4B44386   8.783   2.016   7.523
 3289POPC   NC344387  12.501  14.145   5.357
 3289POPC   PO444388  12.018  14.592   5.247
 3289POPC   GL144389  12.051  14.478   5.729
 3289POPC   GL244390  12.343  14.269   5.826
 3289POPC   C1A44391  11.941  14.376   6.202
 3289POPC   D2A44392  11.864  14.258   6.659
 3289POPC   C3A44393  12.078  14.453   7.040
 3289POPC   C4A44394  12.287  14.605   7.431
 3289POPC   C1B44395  12.420  14.590   6.153
 3289POPC   C2B44396  12.380  14.421   6.575
 3289POPC   C3B44397  12.427  14.051   6.843
 3289POPC   C4B44398  12.179  13.977   7.202
 3290POPC   NC344399  31.885  24.684   5.535
 3290POPC   PO444400  32.648  24.699   5.555
 3290POPC   GL144401  32.459  24.376   5.837
 3290POPC   GL244402  32.084  24.375   5.897
 3290POPC   C1A44403  32.415  24.226   6.257
 3290POPC   D2A44404  32.266  24.437   6.629
 3290POPC   C3A44405  32.324  24.282   7.059
 3290POPC   C4A44406  32.571  24.609   7.276
 3290POPC   C1B44407  31.862  24.224   6.249
 3290POPC   C2B44408  31.771  24.341   6.663
 3290POPC   C3B44409  31.893  24.573   7.022
 3290POPC   C4B44410  32.077  24.537   7.429
 3291POPC   NC344411  37.303  28.951   4.981
 3291POPC   PO444412  37.851  29.002   5.468
 3291POPC   GL144413  37.762  29.173   5.893
 3291POPC   GL244414  37.397  29.111   5.893
 3291POPC   C1A44415  37.718  29.460   6.272
 3291POPC   D2A44416  37.579  29.581   6.706
 3291POPC   C3A44417  37.791  29.326   7.004
 3291POPC   C4A44418  37.831  29.266   7.468
 3291POPC   C1B44419  37.464  28.856   6.260
 3291POPC   C2B44420  37.679  28.899   6.639
 3291POPC   C3B44421  37.515  28.741   6.994
 3291POPC   C4B44422  37.471  28.938   7.341
 3292POPC   NC344423  15.972   4.667   5.229
 3292POPC   PO444424  15.774   4.121   5.559
 3292POPC   GL144425  15.939   4.241   5.948
 3292POPC   GL244426  15.834   4.561   5.913
 3292POPC   C1A44427  16.291   4.370   6.221
 3292POPC   D2A44428  16.318   4.613   6.620
 3292POPC   C3A44429  15.999   4.414   6.898
 3292POPC   C4A44430  16.225   4.116   7.167
 3292POPC   C1B44431  15.863   4.585   6.358
 3292POPC   C2B44432  15.773   4.164   6.482
 3292POPC   C3B44433  15.527   4.047   6.825
 3292POPC   C4B44434  15.716   4.052   7.227
 3293POPC   NC344435  43.660  17.103   5.501
 3293POPC   PO444436  44.176  17.390   5.412
 3293POPC   GL144437  44.001  17.539   5.775
 3293POPC   GL244438  43.690  17.619   5.642
 3293POPC   C1A44439  43.988  17.603   6.218
 3293POPC   D2A44440  44.023  17.338   6.601
 3293POPC   C3A44441  44.025  17.522   6.976
 3293POPC   C4A44442  44.057  17.308   7.350
 3293POPC   C1B44443  43.515  17.500   6.045
 3293POPC   C2B44444  43.552  17.563   6.492
 3293POPC   C3B44445  43.561  17.342   6.846
 3293POPC   C4B44446  43.575  17.362   7.248
 3294POPC   NC344447  26.160   6.170   5.004
 3294POPC   PO444448  25.977   5.642   5.317
 3294POPC   GL144449  26.096   5.816   5.746
 3294POPC   GL244450  26.406   5.708   5.904
 3294POPC   C1A44451  26.031   5.902   6.231
 3294POPC   D2A44452  25.890   6.063   6.666
 3294POPC   C3A44453  26.022   5.838   7.050
 3294POPC   C4A44454  25.849   5.754   7.452
 3294POPC   C1B44455  26.508   6.080   6.178
 3294POPC   C2B44456  26.401   6.093   6.623
 3294POPC   C3B44457  26.538   5.853   6.976
 3294POPC   C4B44458  26.473   6.031   7.381
 3295POPC   NC344459  19.015   4.054   5.343
 3295POPC   PO444460  18.822   4.629   5.536
 3295POPC   GL144461  19.007   4.287   5.803
 3295POPC   GL244462  19.348   4.389   5.814
 3295POPC   C1A44463  19.204   4.093   6.190
 3295POPC   D2A44464  18.919   4.171   6.523
 3295POPC   C3A44465  19.013   4.044   6.911
 3295POPC   C4A44466  19.276   4.192   7.211
 3295POPC   C1B44467  19.117   4.580   6.237
 3295POPC   C2B44468  19.089   4.639   6.718
 3295POPC   C3B44469  19.037   4.808   7.148
 3295POPC   C4B44470  19.240   5.083   7.481
 3296POPC   NC344471  18.031  10.437   5.308
 3296POPC   PO444472  18.447  10.710   5.615
 3296POPC   GL144473  18.311  10.345   5.886
 3296POPC   GL244474  18.040  10.269   5.770
 3296POPC   C1A44475  18.099  10.241   6.294
 3296POPC   D2A44476  17.927  10.269   6.712
 3296POPC   C3A44477  18.252  10.275   7.018
 3296POPC   C4A44478  18.527  10.603   7.200
 3296POPC   C1B44479  17.944  10.650   6.052
 3296POPC   C2B44480  18.199  10.724   6.452
 3296POPC   C3B44481  18.081  10.760   6.893
 3296POPC   C4B44482  17.772  11.010   7.154
 3297POPC   NC344483   3.157  19.861   5.406
 3297POPC   PO444484   2.482  20.100   5.425
 3297POPC   GL144485   2.821  20.047   5.783
 3297POPC   GL244486   3.036  19.722   5.873
 3297POPC   C1A44487   2.764  19.978   6.243
 3297POPC   D2A44488   2.421  19.883   6.544
 3297POPC   C3A44489   2.601  19.944   6.922
 3297POPC   C4A44490   2.911  20.205   7.012
 3297POPC   C1B44491   3.091  19.577   6.303
 3297POPC   C2B44492   3.080  19.793   6.723
 3297POPC   C3B44493   2.995  19.742   7.184
 3297POPC   C4B44494   3.107  19.676   7.620
 3298POPC   NC344495  14.113  14.321   5.166
 3298POPC   PO444496  13.683  14.637   5.620
 3298POPC   GL144497  13.538  14.467   5.927
 3298POPC   GL244498  13.243  14.657   5.920
 3298POPC   C1A44499  13.718  14.265   6.273
 3298POPC   D2A44500  13.984  14.127   6.616
 3298POPC   C3A44501  13.878  14.214   7.050
 3298POPC   C4A44502  13.718  14.568   7.302
 3298POPC   C1B44503  13.319  14.590   6.368
 3298POPC   C2B44504  13.580  14.472   6.709
 3298POPC   C3B44505  13.380  14.325   7.036
 3298POPC   C4B44506  13.047  14.516   7.216
 3299POPC   NC344507  29.295  43.316   5.425
 3299POPC   PO444508  28.742  43.628   5.734
 3299POPC   GL144509  28.995  43.282   5.892
 3299POPC   GL244510  28.973  42.899   5.888
 3299POPC   C1A44511  29.005  43.283   6.340
 3299POPC   D2A44512  28.779  43.524   6.665
 3299POPC   C3A44513  29.001  43.432   7.036
 3299POPC   C4A44514  29.098  43.073   7.249
 3299POPC   C1B44515  28.912  42.771   6.324
 3299POPC   C2B44516  28.932  42.853   6.773
 3299POPC   C3B44517  29.002  42.593   7.124
 3299POPC   C4B44518  29.197  42.620   7.520
 3300POPC   NC344519  14.056   9.413   5.627
 3300POPC   PO444520  14.626   9.131   5.373
 3300POPC   GL144521  14.420   9.021   5.723
 3300POPC   GL244522  14.543   9.323   5.894
 3300POPC   C1A44523  14.306   8.861   6.121
 3300POPC   D2A44524  14.506   8.745   6.511
 3300POPC   C3A44525  14.300   8.931   6.884
 3300POPC   C4A44526  14.459   9.060   7.295
 3300POPC   C1B44527  14.660   9.208   6.339
 3300POPC   C2B44528  14.772   9.111   6.773
 3300POPC   C3B44529  14.879   9.362   7.098
 3300POPC   C4B44530  14.651   9.595   7.384
 3301POPC   NC344531  42.297  23.361   5.418
 3301POPC   PO444532  42.420  24.006   5.346
 3301POPC   GL144533  42.240  23.989   5.777
 3301POPC   GL244534  42.134  23.657   5.840
 3301POPC   C1A44535  42.201  23.986   6.219
 3301POPC   D2A44536  42.346  23.708   6.567
 3301POPC   C3A44537  42.448  23.930   6.918
 3301POPC   C4A44538  42.745  23.756   7.187
 3301POPC   C1B44539  42.006  23.511   6.260
 3301POPC   C2B44540  41.827  23.481   6.631
 3301POPC   C3B44541  42.032  23.333   6.980
 3301POPC   C4B44542  42.249  23.583   7.248
 3302POPC   NC344543  37.374  20.691   5.413
 3302POPC   PO444544  36.746  20.525   5.086
 3302POPC   GL144545  36.854  20.688   5.535
 3302POPC   GL244546  37.007  20.396   5.709
 3302POPC   C1A44547  36.920  20.801   6.009
 3302POPC   D2A44548  36.827  20.891   6.473
 3302POPC   C3A44549  36.716  20.687   6.886
 3302POPC   C4A44550  36.951  20.778   7.251
 3302POPC   C1B44551  36.714  20.342   6.089
 3302POPC   C2B44552  36.796  20.327   6.539
 3302POPC   C3B44553  37.025  20.269   6.948
 3302POPC   C4B44554  36.813  20.291   7.339
 3303POPC   NC344555  15.416  19.825   5.418
 3303POPC   PO444556  14.843  20.201   5.542
 3303POPC   GL144557  15.130  20.008   5.829
 3303POPC   GL244558  15.232  19.678   5.867
 3303POPC   C1A44559  15.325  20.008   6.233
 3303POPC   D2A44560  15.104  20.130   6.594
 3303POPC   C3A44561  15.287  19.948   6.936
 3303POPC   C4A44562  15.526  19.940   7.300
 3303POPC   C1B44563  15.146  19.501   6.252
 3303POPC   C2B44564  15.304  19.516   6.646
 3303POPC   C3B44565  15.374  19.472   7.085
 3303POPC   C4B44566  15.474  19.378   7.497
 3304POPC   NC344567  16.775  41.186   5.399
 3304POPC   PO444568  17.210  41.734   5.499
 3304POPC   GL144569  16.800  41.576   5.756
 3304POPC   GL244570  16.714  41.210   5.887
 3304POPC   C1A44571  16.502  41.640   6.118
 3304POPC   D2A44572  16.304  41.532   6.525
 3304POPC   C3A44573  16.550  41.681   6.895
 3304POPC   C4A44574  16.777  41.832   7.259
 3304POPC   C1B44575  16.568  41.146   6.282
 3304POPC   C2B44576  16.727  41.288   6.649
 3304POPC   C3B44577  16.737  41.219   7.061
 3304POPC   C4B44578  17.029  41.027   7.304
 3305POPC   NC344579   3.444  35.617   5.384
 3305POPC   PO444580   3.126  35.030   5.394
 3305POPC   GL144581   3.388  35.242   5.738
 3305POPC   GL244582   3.729  35.111   5.793
 3305POPC   C1A44583   3.602  35.512   6.098
 3305POPC   D2A44584   3.775  35.528   6.540
 3305POPC   C3A44585   3.492  35.591   6.931
 3305POPC   C4A44586   3.357  35.283   7.285
 3305POPC   C1B44587   3.985  35.160   6.207
 3305POPC   C2B44588   4.154  35.170   6.635
 3305POPC   C3B44589   3.855  35.204   6.950
 3305POPC   C4B44590   3.884  35.048   7.349
 3306POPC   NC344591  36.024   6.876   5.165
 3306POPC   PO444592  36.393   6.427   5.422
 3306POPC   GL144593  36.128   6.548   5.744
 3306POPC   GL244594  36.031   6.904   5.725
 3306POPC   C1A44595  36.264   6.625   6.165
 3306POPC   D2A44596  36.507   6.647   6.532
 3306POPC   C3A44597  36.300   6.525   6.928
 3306POPC   C4A44598  36.054   6.714   7.166
 3306POPC   C1B44599  36.033   7.063   6.188
 3306POPC   C2B44600  36.044   6.912   6.628
 3306POPC   C3B44601  35.903   7.157   7.001
 3306POPC   C4B44602  35.700   7.032   7.381
 3307POPC   NC344603  26.280   2.203   5.464
 3307POPC   PO444604  25.703   1.810   5.395
 3307POPC   GL144605  25.991   1.904   5.757
 3307POPC   GL244606  25.766   2.077   5.982
 3307POPC   C1A44607  26.228   2.094   6.140
 3307POPC   D2A44608  26.031   2.108   6.533
 3307POPC   C3A44609  26.292   2.278   6.862
 3307POPC   C4A44610  26.267   2.110   7.254
 3307POPC   C1B44611  25.729   1.597   6.107
 3307POPC   C2B44612  25.629   1.405   6.516
 3307POPC   C3B44613  25.693   1.610   6.894
 3307POPC   C4B44614  25.815   2.052   7.005
 3308POPC   NC344615   3.304  34.631   5.295
 3308POPC   PO444616   3.777  34.285   5.254
 3308POPC   GL144617   3.679  34.557   5.662
 3308POPC   GL244618   3.351  34.690   5.804
 3308POPC   C1A44619   3.809  34.699   6.094
 3308POPC   D2A44620   4.080  34.675   6.463
 3308POPC   C3A44621   3.903  34.703   6.883
 3308POPC   C4A44622   3.509  34.813   7.096
 3308POPC   C1B44623   3.418  34.394   6.188
 3308POPC   C2B44624   3.664  34.345   6.607
 3308POPC   C3B44625   3.648  34.311   7.103
 3308POPC   C4B44626   3.449  34.264   7.533
 3309POPC   NC344627  24.758  30.370   5.372
 3309POPC   PO444628  24.130  30.564   5.461
 3309POPC   GL144629  24.470  30.564   5.763
 3309POPC   GL244630  24.648  30.851   5.601
 3309POPC   C1A44631  24.431  30.560   6.228
 3309POPC   D2A44632  24.263  30.345   6.600
 3309POPC   C3A44633  24.443  30.578   6.922
 3309POPC   C4A44634  24.834  30.723   7.076
 3309POPC   C1B44635  24.564  31.018   6.012
 3309POPC   C2B44636  24.587  31.008   6.457
 3309POPC   C3B44637  24.475  31.103   6.881
 3309POPC   C4B44638  24.302  30.943   7.256
 3310POPC   NC344639  25.918  31.497   5.369
 3310POPC   PO444640  26.558  31.724   5.451
 3310POPC   GL144641  26.337  31.439   5.760
 3310POPC   GL244642  26.121  31.723   5.797
 3310POPC   C1A44643  26.328  31.210   6.199
 3310POPC   D2A44644  26.166  31.073   6.636
 3310POPC   C3A44645  26.089  31.355   6.974
 3310POPC   C4A44646  26.196  31.447   7.381
 3310POPC   C1B44647  25.857  31.838   6.140
 3310POPC   C2B44648  26.007  31.761   6.522
 3310POPC   C3B44649  26.075  31.893   6.911
 3310POPC   C4B44650  25.857  31.816   7.260
 3311POPC   NC344651  39.420  25.656   5.159
 3311POPC   PO444652  38.844  25.939   5.360
 3311POPC   GL144653  38.918  25.847   5.745
 3311POPC   GL244654  39.124  26.127   5.797
 3311POPC   C1A44655  38.988  25.801   6.187
 3311POPC   D2A44656  39.315  25.876   6.472
 3311POPC   C3A44657  39.168  25.931   6.863
 3311POPC   C4A44658  39.229  25.737   7.249
 3311POPC   C1B44659  39.190  26.304   6.185
 3311POPC   C2B44660  39.137  26.460   6.591
 3311POPC   C3B44661  39.222  26.410   7.016
 3311POPC   C4B44662  39.061  26.202   7.325
 3312POPC   NC344663   8.429  17.144   5.448
 3312POPC   PO444664   7.883  17.588   5.256
 3312POPC   GL144665   8.268  17.572   5.672
 3312POPC   GL244666   8.161  17.278   5.894
 3312POPC   C1A44667   8.480  17.563   6.162
 3312POPC   D2A44668   8.441  17.313   6.583
 3312POPC   C3A44669   8.490  17.481   7.012
 3312POPC   C4A44670   8.124  17.465   7.277
 3312POPC   C1B44671   7.991  17.361   6.334
 3312POPC   C2B44672   8.001  17.557   6.757
 3312POPC   C3B44673   7.810  17.832   7.072
 3312POPC   C4B44674   7.677  17.676   7.450
 3313POPC   NC344675  40.154  26.113   5.408
 3313POPC   PO444676  39.425  26.092   5.394
 3313POPC   GL144677  39.790  26.071   5.790
 3313POPC   GL244678  40.106  25.801   5.814
 3313POPC   C1A44679  39.716  26.136   6.264
 3313POPC   D2A44680  39.604  26.225   6.727
 3313POPC   C3A44681  39.678  25.870   7.038
 3313POPC   C4A44682  39.713  25.848   7.527
 3313POPC   C1B44683  40.218  26.059   6.186
 3313POPC   C2B44684  40.071  26.006   6.631
 3313POPC   C3B44685  40.068  26.221   7.031
 3313POPC   C4B44686  40.135  26.146   7.484
 3314POPC   NC344687  27.796  29.621   5.564
 3314POPC   PO444688  27.329  30.103   5.510
 3314POPC   GL144689  27.426  29.957   5.900
 3314POPC   GL244690  27.752  30.038   5.856
 3314POPC   C1A44691  27.628  29.786   6.287
 3314POPC   D2A44692  27.573  29.870   6.728
 3314POPC   C3A44693  27.659  29.667   7.078
 3314POPC   C4A44694  27.408  29.960   7.263
 3314POPC   C1B44695  27.741  30.292   6.197
 3314POPC   C2B44696  27.948  30.213   6.546
 3314POPC   C3B44697  27.871  30.232   6.960
 3314POPC   C4B44698  27.901  30.045   7.352
 3315POPC   NC344699   8.469  22.678   5.486
 3315POPC   PO444700   8.009  23.127   5.222
 3315POPC   GL144701   8.071  23.016   5.670
 3315POPC   GL244702   8.388  23.118   5.762
 3315POPC   C1A44703   8.149  22.929   6.146
 3315POPC   D2A44704   8.225  23.103   6.557
 3315POPC   C3A44705   8.228  22.810   6.873
 3315POPC   C4A44706   8.102  22.526   7.174
 3315POPC   C1B44707   8.574  23.289   6.161
 3315POPC   C2B44708   8.601  23.449   6.587
 3315POPC   C3B44709   8.475  23.285   6.976
 3315POPC   C4B44710   8.100  23.223   7.175
 3316POPC   NC344711  13.158  28.321   5.451
 3316POPC   PO444712  13.136  28.896   5.589
 3316POPC   GL144713  13.446  28.574   5.844
 3316POPC   GL244714  13.594  28.215   5.864
 3316POPC   C1A44715  13.667  28.478   6.287
 3316POPC   D2A44716  13.709  28.177   6.668
 3316POPC   C3A44717  13.784  28.392   7.058
 3316POPC   C4A44718  14.177  28.464   7.306
 3316POPC   C1B44719  13.409  28.035   6.277
 3316POPC   C2B44720  13.135  28.039   6.634
 3316POPC   C3B44721  13.342  28.037   7.027
 3316POPC   C4B44722  13.479  28.143   7.390
 3317POPC   NC344723  11.716  15.713   5.690
 3317POPC   PO444724  11.244  15.994   5.329
 3317POPC   GL144725  11.316  16.220   5.742
 3317POPC   GL244726  11.659  16.241   5.884
 3317POPC   C1A44727  11.170  16.249   6.196
 3317POPC   D2A44728  11.116  15.924   6.539
 3317POPC   C3A44729  11.201  16.026   6.979
 3317POPC   C4A44730  11.254  16.171   7.415
 3317POPC   C1B44731  11.596  15.982   6.281
 3317POPC   C2B44732  11.761  15.689   6.592
 3317POPC   C3B44733  11.514  15.548   6.920
 3317POPC   C4B44734  11.484  15.701   7.296
 3318POPC   NC344735  40.352  27.848   5.542
 3318POPC   PO444736  39.865  27.485   5.238
 3318POPC   GL144737  40.007  27.495   5.678
 3318POPC   GL244738  39.718  27.436   5.818
 3318POPC   C1A44739  40.196  27.458   6.118
 3318POPC   D2A44740  40.256  27.707   6.489
 3318POPC   C3A44741  40.060  27.526   6.847
 3318POPC   C4A44742  40.097  27.657   7.238
 3318POPC   C1B44743  39.840  27.808   6.109
 3318POPC   C2B44744  39.948  28.117   6.457
 3318POPC   C3B44745  40.023  28.056   6.916
 3318POPC   C4B44746  39.789  28.046   7.346
 3319POPC   NC344747  19.294  42.812   5.395
 3319POPC   PO444748  18.795  43.259   5.323
 3319POPC   GL144749  18.981  43.096   5.692
 3319POPC   GL244750  18.830  42.849   5.840
 3319POPC   C1A44751  19.229  43.128   6.068
 3319POPC   D2A44752  19.178  43.439   6.377
 3319POPC   C3A44753  19.048  43.324   6.790
 3319POPC   C4A44754  19.308  43.230   7.112
 3319POPC   C1B44755  18.924  42.728   6.217
 3319POPC   C2B44756  18.803  42.923   6.575
 3319POPC   C3B44757  18.911  42.826   6.986
 3319POPC   C4B44758  19.301  42.739   7.152
 3320POPC   NC344759  39.226   9.926   5.361
 3320POPC   PO444760  39.437   9.288   5.254
 3320POPC   GL144761  39.423   9.516   5.641
 3320POPC   GL244762  39.068   9.582   5.728
 3320POPC   C1A44763  39.499   9.642   6.074
 3320POPC   D2A44764  39.629   9.607   6.517
 3320POPC   C3A44765  39.411   9.505   6.932
 3320POPC   C4A44766  39.602   9.512   7.351
 3320POPC   C1B44767  39.069   9.395   6.145
 3320POPC   C2B44768  39.083   9.625   6.531
 3320POPC   C3B44769  38.875   9.672   6.925
 3320POPC   C4B44770  38.971   9.608   7.362
 3321POPC   NC344771  24.123  27.202   5.349
 3321POPC   PO444772  24.556  26.640   5.214
 3321POPC   GL144773  24.489  26.723   5.793
 3321POPC   GL244774  24.194  26.906   5.901
 3321POPC   C1A44775  24.467  26.602   6.234
 3321POPC   D2A44776  24.351  26.672   6.661
 3321POPC   C3A44777  24.658  26.623   6.949
 3321POPC   C4A44778  24.471  26.466   7.289
 3321POPC   C1B44779  24.297  27.097   6.354
 3321POPC   C2B44780  24.506  27.140   6.826
 3321POPC   C3B44781  24.588  26.998   7.295
 3321POPC   C4B44782  24.623  27.177   7.740
 3322POPC   NC344783  39.515  28.307   5.440
 3322POPC   PO444784  38.966  28.088   5.727
 3322POPC   GL144785  39.282  28.309   5.909
 3322POPC   GL244786  39.276  28.638   5.759
 3322POPC   C1A44787  39.446  28.098   6.252
 3322POPC   D2A44788  39.169  27.950   6.551
 3322POPC   C3A44789  39.133  28.314   6.807
 3322POPC   C4A44790  39.342  28.212   7.199
 3322POPC   C1B44791  39.135  28.826   6.127
 3322POPC   C2B44792  39.029  28.793   6.550
 3322POPC   C3B44793  39.286  28.815   6.903
 3322POPC   C4B44794  39.453  28.772   7.290
 3323POPC   NC344795   8.868  24.675   5.591
 3323POPC   PO444796   9.580  24.701   5.473
 3323POPC   GL144797   9.310  24.677   5.857
 3323POPC   GL244798   9.135  24.375   5.891
 3323POPC   C1A44799   9.008  24.736   6.232
 3323POPC   D2A44800   8.924  24.922   6.626
 3323POPC   C3A44801   8.621  24.737   6.893
 3323POPC   C4A44802   8.766  24.541   7.241
 3323POPC   C1B44803   8.936  24.236   6.287
 3323POPC   C2B44804   8.910  24.354   6.723
 3323POPC   C3B44805   8.963  24.100   7.090
 3323POPC   C4B44806   9.122  24.172   7.487
 3324POPC   NC344807  16.434  43.057   5.456
 3324POPC   PO444808  16.957  43.444   5.267
 3324POPC   GL144809  16.858  43.269   5.735
 3324POPC   GL244810  16.784  42.879   5.793
 3324POPC   C1A44811  16.659  43.205   6.155
 3324POPC   D2A44812  16.803  43.048   6.559
 3324POPC   C3A44813  16.722  43.231   6.946
 3324POPC   C4A44814  16.841  43.078   7.334
 3324POPC   C1B44815  16.506  42.709   6.156
 3324POPC   C2B44816  16.400  42.553   6.586
 3324POPC   C3B44817  16.631  42.701   6.966
 3324POPC   C4B44818  16.389  42.859   7.290
 3325POPC   NC344819  37.571   0.385   5.419
 3325POPC   PO444820  38.070   0.012   5.390
 3325POPC   GL144821  37.882   0.165   5.757
 3325POPC   GL244822  37.804   0.502   5.845
 3325POPC   C1A44823  37.689   0.035   6.107
 3325POPC   D2A44824  37.516   0.038   6.513
 3325POPC   C3A44825  37.590   0.215   6.901
 3325POPC   C4A44826  37.357   0.149   7.291
 3325POPC   C1B44827  37.569   0.498   6.255
 3325POPC   C2B44828  37.443   0.674   6.655
 3325POPC   C3B44829  37.289   0.608   7.088
 3325POPC   C4B44830  37.691   0.562   7.267
 3326POPC   NC344831  37.411  42.987   5.441
 3326POPC   PO444832  38.047  43.230   5.278
 3326POPC   GL144833  37.792  43.253   5.676
 3326POPC   GL244834  37.806  42.902   5.790
 3326POPC   C1A44835  37.753  43.309   6.158
 3326POPC   D2A44836  37.595  43.409   6.606
 3326POPC   C3A44837  37.845  43.247   6.965
 3326POPC   C4A44838  38.096  43.013   7.252
 3326POPC   C1B44839  37.688  42.788   6.217
 3326POPC   C2B44840  37.813  42.862   6.648
 3326POPC   C3B44841  37.795  42.655   7.061
 3326POPC   C4B44842  37.849  42.637   7.550
 3327POPC   NC344843  33.814  16.482   5.554
 3327POPC   PO444844  33.644  15.873   5.352
 3327POPC   GL144845  33.849  15.902   5.742
 3327POPC   GL244846  33.585  16.121   5.864
 3327POPC   C1A44847  34.012  15.844   6.166
 3327POPC   D2A44848  33.991  16.107   6.545
 3327POPC   C3A44849  33.717  16.123   6.917
 3327POPC   C4A44850  33.878  16.230   7.314
 3327POPC   C1B44851  33.505  15.766   6.154
 3327POPC   C2B44852  33.704  15.669   6.574
 3327POPC   C3B44853  34.012  15.704   6.922
 3327POPC   C4B44854  33.870  15.721   7.371
 3328POPC   NC344855   7.525  10.246   5.620
 3328POPC   PO444856   7.353  10.760   5.288
 3328POPC   GL144857   7.555  10.699   5.782
 3328POPC   GL244858   7.220  10.654   5.892
 3328POPC   C1A44859   7.550  10.461   6.236
 3328POPC   D2A44860   7.497  10.048   6.488
 3328POPC   C3A44861   7.453  10.166   6.936
 3328POPC   C4A44862   7.526  10.567   7.145
 3328POPC   C1B44863   7.042  10.666   6.316
 3328POPC   C2B44864   7.165  10.578   6.736
 3328POPC   C3B44865   7.039  10.740   7.126
 3328POPC   C4B44866   7.277  10.928   7.448
 3329POPC   NC344867  12.084  15.040   5.368
 3329POPC   PO444868  11.508  15.391   5.431
 3329POPC   GL144869  11.832  15.243   5.808
 3329POPC   GL244870  12.166  15.060   5.869
 3329POPC   C1A44871  12.001  15.404   6.221
 3329POPC   D2A44872  12.054  15.132   6.573
 3329POPC   C3A44873  11.980  15.316   6.949
 3329POPC   C4A44874  11.907  15.427   7.348
 3329POPC   C1B44875  12.447  15.134   6.229
 3329POPC   C2B44876  12.539  14.903   6.601
 3329POPC   C3B44877  12.343  14.927   6.991
 3329POPC   C4B44878  12.290  15.118   7.371
 3330POPC   NC344879  19.433  25.299   5.287
 3330POPC   PO444880  18.826  25.481   5.381
 3330POPC   GL144881  19.045  25.242   5.692
 3330POPC   GL244882  19.351  25.459   5.771
 3330POPC   C1A44883  18.808  25.041   6.039
 3330POPC   D2A44884  18.743  25.073   6.476
 3330POPC   C3A44885  18.972  24.853   6.790
 3330POPC   C4A44886  18.995  24.946   7.179
 3330POPC   C1B44887  19.235  25.306   6.202
 3330POPC   C2B44888  19.255  25.254   6.634
 3330POPC   C3B44889  18.947  25.372   6.911
 3330POPC   C4B44890  18.971  25.680   7.283
 3331POPC   NC344891  32.297  28.582   5.418
 3331POPC   PO444892  31.852  28.171   5.431
 3331POPC   GL144893  31.996  28.381   5.791
 3331POPC   GL244894  32.306  28.196   5.795
 3331POPC   C1A44895  32.177  28.543   6.198
 3331POPC   D2A44896  32.453  28.515   6.567
 3331POPC   C3A44897  32.334  28.440   6.963
 3331POPC   C4A44898  32.251  28.658   7.309
 3331POPC   C1B44899  32.463  28.098   6.191
 3331POPC   C2B44900  32.444  27.859   6.529
 3331POPC   C3B44901  32.463  27.934   6.947
 3331POPC   C4B44902  32.134  28.030   7.194
 3332POPC   NC344903   4.865   5.274   5.418
 3332POPC   PO444904   4.791   4.721   5.424
 3332POPC   GL144905   4.983   4.949   5.820
 3332POPC   GL244906   5.348   5.020   5.802
 3332POPC   C1A44907   5.043   5.069   6.293
 3332POPC   D2A44908   5.160   5.009   6.764
 3332POPC   C3A44909   4.958   5.233   7.119
 3332POPC   C4A44910   4.644   5.233   7.473
 3332POPC   C1B44911   5.553   5.109   6.229
 3332POPC   C2B44912   5.495   5.356   6.620
 3332POPC   C3B44913   5.448   5.363   7.080
 3332POPC   C4B44914   5.406   4.930   7.231
 3333POPC   NC344915  43.351  36.436   5.409
 3333POPC   PO444916  42.966  37.036   5.334
 3333POPC   GL144917  42.993  36.964   5.795
 3333POPC   GL244918  43.355  37.034   5.873
 3333POPC   C1A44919  42.882  36.876   6.255
 3333POPC   D2A44920  43.049  37.061   6.640
 3333POPC   C3A44921  42.906  36.823   6.991
 3333POPC   C4A44922  43.105  36.559   7.307
 3333POPC   C1B44923  43.374  36.739   6.246
 3333POPC   C2B44924  43.294  36.605   6.696
 3333POPC   C3B44925  43.409  36.868   7.059
 3333POPC   C4B44926  43.618  37.136   7.342
 3334POPC   NC344927   5.482  22.113   5.519
 3334POPC   PO444928   5.871  22.601   5.486
 3334POPC   GL144929   5.901  22.279   5.832
 3334POPC   GL244930   5.828  21.918   5.890
 3334POPC   C1A44931   5.693  22.268   6.240
 3334POPC   D2A44932   5.607  22.058   6.618
 3334POPC   C3A44933   5.623  22.274   7.031
 3334POPC   C4A44934   5.794  22.550   7.364
 3334POPC   C1B44935   5.879  21.679   6.286
 3334POPC   C2B44936   6.045  21.798   6.696
 3334POPC   C3B44937   5.858  21.837   7.113
 3334POPC   C4B44938   5.891  22.073   7.490
 3335POPC   NC344939  37.801  31.435   5.350
 3335POPC   PO444940  37.395  31.909   5.482
 3335POPC   GL144941  37.609  31.622   5.795
 3335POPC   GL244942  37.485  31.281   5.771
 3335POPC   C1A44943  37.852  31.503   6.196
 3335POPC   D2A44944  37.981  31.699   6.616
 3335POPC   C3A44945  37.764  31.621   7.011
 3335POPC   C4A44946  37.522  31.308   7.275
 3335POPC   C1B44947  37.561  31.091   6.171
 3335POPC   C2B44948  37.613  31.188   6.599
 3335POPC   C3B44949  37.923  31.163   6.899
 3335POPC   C4B44950  38.181  31.226   7.237
 3336POPC   NC344951  34.054  27.996   5.524
 3336POPC   PO444952  33.887  27.355   5.484
 3336POPC   GL144953  33.820  27.647   5.828
 3336POPC   GL244954  33.580  27.934   5.783
 3336POPC   C1A44955  33.954  27.662   6.249
 3336POPC   D2A44956  33.773  27.457   6.605
 3336POPC   C3A44957  34.047  27.562   6.936
 3336POPC   C4A44958  33.955  27.846   7.213
 3336POPC   C1B44959  33.454  27.713   6.189
 3336POPC   C2B44960  33.389  27.815   6.623
 3336POPC   C3B44961  33.524  27.643   7.027
 3336POPC   C4B44962  33.558  27.675   7.504
 3337POPC   NC344963  19.758  29.769   5.305
 3337POPC   PO444964  20.256  29.547   5.668
 3337POPC   GL144965  19.846  29.728   5.820
 3337POPC   GL244966  19.683  30.068   5.728
 3337POPC   C1A44967  19.844  29.728   6.262
 3337POPC   D2A44968  19.824  29.981   6.613
 3337POPC   C3A44969  20.029  29.767   6.907
 3337POPC   C4A44970  19.813  29.779   7.216
 3337POPC   C1B44971  19.766  30.229   6.136
 3337POPC   C2B44972  19.713  30.476   6.510
 3337POPC   C3B44973  19.840  30.420   6.898
 3337POPC   C4B44974  19.668  30.259   7.231
 3338POPC   NC344975  23.779  38.406   5.372
 3338POPC   PO444976  23.654  39.154   5.247
 3338POPC   GL144977  23.608  38.826   5.603
 3338POPC   GL244978  23.923  38.675   5.783
 3338POPC   C1A44979  23.442  38.722   6.018
 3338POPC   D2A44980  23.452  38.769   6.493
 3338POPC   C3A44981  23.652  38.567   6.883
 3338POPC   C4A44982  23.471  38.699   7.303
 3338POPC   C1B44983  23.860  38.476   6.212
 3338POPC   C2B44984  23.754  38.164   6.550
 3338POPC   C3B44985  23.943  38.053   6.946
 3338POPC   C4B44986  24.073  38.399   7.171
 3339POPC   NC344987   1.750   6.854   5.460
 3339POPC   PO444988   2.267   6.413   5.417
 3339POPC   GL144989   2.137   6.640   5.814
 3339POPC   GL244990   2.393   6.846   5.935
 3339POPC   C1A44991   1.931   6.643   6.263
 3339POPC   D2A44992   1.948   6.881   6.700
 3339POPC   C3A44993   1.781   6.712   7.105
 3339POPC   C4A44994   1.731   6.848   7.566
 3339POPC   C1B44995   2.396   6.827   6.369
 3339POPC   C2B44996   2.319   6.545   6.656
 3339POPC   C3B44997   2.311   6.708   7.048
 3339POPC   C4B44998   2.191   6.644   7.438
 3340POPC   NC344999   0.643   4.694   5.399
 3340POPC   PO445000   0.412   4.161   5.195
 3340POPC   GL145001   0.368   4.323   5.624
 3340POPC   GL245002   0.113   4.150   5.773
 3340POPC   C1A45003   0.329   4.554   6.027
 3340POPC   D2A45004   0.227   4.487   6.461
 3340POPC   C3A45005   0.434   4.440   6.861
 3340POPC   C4A45006   0.653   4.391   7.240
 3340POPC   C1B45007   0.289   4.055   6.186
 3340POPC   C2B45008   0.209   4.012   6.660
 3340POPC   C3B45009   0.397   3.947   7.091
 3340POPC   C4B45010   0.503   3.977   7.555
 3341POPC   NC345011   2.191  36.873   5.444
 3341POPC   PO445012   1.684  37.272   5.343
 3341POPC   GL145013   1.877  37.093   5.780
 3341POPC   GL245014   1.954  36.733   5.877
 3341POPC   C1A45015   1.966  37.234   6.199
 3341POPC   D2A45016   1.891  37.202   6.626
 3341POPC   C3A45017   2.119  37.141   6.983
 3341POPC   C4A45018   1.921  37.141   7.353
 3341POPC   C1B45019   1.971  36.746   6.339
 3341POPC   C2B45020   1.954  36.694   6.792
 3341POPC   C3B45021   2.193  36.545   7.157
 3341POPC   C4B45022   2.257  36.580   7.640
 3342POPC   NC345023  19.529  35.576   5.542
 3342POPC   PO445024  20.021  35.058   5.385
 3342POPC   GL145025  19.824  35.100   5.827
 3342POPC   GL245026  19.528  35.329   6.006
 3342POPC   C1A45027  19.995  35.345   6.172
 3342POPC   D2A45028  19.860  35.514   6.538
 3342POPC   C3A45029  20.060  35.326   6.882
 3342POPC   C4A45030  20.043  35.531   7.265
 3342POPC   C1B45031  19.587  35.074   6.362
 3342POPC   C2B45032  19.584  35.128   6.786
 3342POPC   C3B45033  19.610  35.530   6.992
 3342POPC   C4B45034  19.579  35.282   7.306
 3343POPC   NC345035  26.154  15.965   5.362
 3343POPC   PO445036  25.519  16.140   5.396
 3343POPC   GL145037  25.778  16.214   5.709
 3343POPC   GL245038  25.768  15.852   5.773
 3343POPC   C1A45039  25.724  16.348   6.148
 3343POPC   D2A45040  25.872  16.454   6.575
 3343POPC   C3A45041  25.863  16.091   6.869
 3343POPC   C4A45042  26.166  16.069   7.198
 3343POPC   C1B45043  25.836  15.545   6.116
 3343POPC   C2B45044  26.026  15.417   6.530
 3343POPC   C3B45045  26.164  15.601   6.920
 3343POPC   C4B45046  25.841  15.621   7.202
 3344POPC   NC345047   3.735  16.043   5.349
 3344POPC   PO445048   3.289  15.613   5.669
 3344POPC   GL145049   3.659  15.754   5.810
 3344POPC   GL245050   3.573  16.069   5.838
 3344POPC   C1A45051   3.844  15.899   6.227
 3344POPC   D2A45052   4.094  15.943   6.598
 3344POPC   C3A45053   3.826  15.915   6.974
 3344POPC   C4A45054   3.410  15.781   7.171
 3344POPC   C1B45055   3.459  16.281   6.210
 3344POPC   C2B45056   3.678  16.288   6.614
 3344POPC   C3B45057   3.439  16.315   6.992
 3344POPC   C4B45058   3.397  16.304   7.423
 3345POPC   NC345059  27.094  38.356   5.570
 3345POPC   PO445060  27.525  38.424   5.050
 3345POPC   GL145061  27.673  38.326   5.586
 3345POPC   GL245062  27.471  38.205   5.884
 3345POPC   C1A45063  27.825  38.534   6.009
 3345POPC   D2A45064  27.531  38.600   6.368
 3345POPC   C3A45065  27.644  38.711   6.798
 3345POPC   C4A45066  27.729  38.486   7.149
 3345POPC   C1B45067  27.368  38.103   6.297
 3345POPC   C2B45068  27.552  38.198   6.701
 3345POPC   C3B45069  27.522  38.022   7.097
 3345POPC   C4B45070  27.644  38.140   7.497
 3346POPC   NC345071  31.216  10.403   5.491
 3346POPC   PO445072  31.720  10.164   5.485
 3346POPC   GL145073  31.567  10.284   5.903
 3346POPC   GL245074  31.205  10.225   5.980
 3346POPC   C1A45075  31.631  10.329   6.361
 3346POPC   D2A45076  31.827  10.410   6.784
 3346POPC   C3A45077  31.509  10.553   7.104
 3346POPC   C4A45078  31.130  10.744   7.284
 3346POPC   C1B45079  31.124  10.251   6.435
 3346POPC   C2B45080  31.377  10.169   6.794
 3346POPC   C3B45081  31.302  10.053   7.213
 3346POPC   C4B45082  31.399   9.866   7.623
 3347POPC   NC345083  10.683   9.370   5.507
 3347POPC   PO445084  10.725   8.663   5.336
 3347POPC   GL145085  10.544   8.723   5.814
 3347POPC   GL245086  10.271   8.959   5.766
 3347POPC   C1A45087  10.506   8.782   6.333
 3347POPC   D2A45088  10.695   9.029   6.704
 3347POPC   C3A45089  10.679   8.932   7.172
 3347POPC   C4A45090  10.686   8.767   7.618
 3347POPC   C1B45091  10.349   9.236   6.127
 3347POPC   C2B45092  10.189   9.171   6.542
 3347POPC   C3B45093  10.267   9.176   6.965
 3347POPC   C4B45094  10.357   9.237   7.407
 3348POPC   NC345095  43.691  27.315   5.235
 3348POPC   PO445096  44.110  27.736   5.414
 3348POPC   GL145097  43.765  27.663   5.739
 3348POPC   GL245098  43.562  27.353   5.745
 3348POPC   C1A45099  43.827  27.674   6.216
 3348POPC   D2A45100  43.662  27.556   6.635
 3348POPC   C3A45101  43.995  27.674   6.935
 3348POPC   C4A45102  44.125  28.098   7.082
 3348POPC   C1B45103  43.646  27.187   6.185
 3348POPC   C2B45104  43.975  27.160   6.525
 3348POPC   C3B45105  43.887  27.154   6.962
 3348POPC   C4B45106  44.059  27.342   7.304
 3349POPC   NC345107  39.226  23.309   5.333
 3349POPC   PO445108  39.388  22.671   5.312
 3349POPC   GL145109  39.258  22.891   5.669
 3349POPC   GL245110  38.906  22.897   5.680
 3349POPC   C1A45111  39.213  22.847   6.125
 3349POPC   D2A45112  39.294  23.028   6.547
 3349POPC   C3A45113  39.532  22.929   6.934
 3349POPC   C4A45114  39.530  23.143   7.327
 3349POPC   C1B45115  38.750  23.090   6.082
 3349POPC   C2B45116  38.766  22.948   6.497
 3349POPC   C3B45117  38.923  23.009   6.900
 3349POPC   C4B45118  39.087  22.917   7.274
 3350POPC   NC345119  20.949  43.199   5.295
 3350POPC   PO445120  20.255  42.999   5.311
 3350POPC   GL145121  20.585  43.084   5.645
 3350POPC   GL245122  20.942  42.968   5.745
 3350POPC   C1A45123  20.525  42.989   6.099
 3350POPC   D2A45124  20.311  43.043   6.500
 3350POPC   C3A45125  20.595  43.014   6.885
 3350POPC   C4A45126  20.522  43.246   7.264
 3350POPC   C1B45127  20.942  43.295   6.089
 3350POPC   C2B45128  21.043  43.259   6.544
 3350POPC   C3B45129  20.955  43.379   6.977
 3350POPC   C4B45130  20.886  43.561   7.400
 3351POPC   NC345131   3.063  11.499   5.529
 3351POPC   PO445132   2.622  11.024   5.306
 3351POPC   GL145133   2.631  11.260   5.732
 3351POPC   GL245134   2.430  11.571   5.769
 3351POPC   C1A45135   2.818  11.361   6.170
 3351POPC   D2A45136   2.646  11.470   6.608
 3351POPC   C3A45137   2.956  11.343   6.908
 3351POPC   C4A45138   3.126  11.126   7.240
 3351POPC   C1B45139   2.307  11.386   6.164
 3351POPC   C2B45140   2.138  11.529   6.544
 3351POPC   C3B45141   2.230  11.432   6.953
 3351POPC   C4B45142   2.589  11.597   7.157
 3352POPC   NC345143  44.511  18.431   5.108
 3352POPC   PO445144  44.885  17.931   5.440
 3352POPC   GL145145  44.683  18.049   5.840
 3352POPC   GL245146  44.323  17.921   5.931
 3352POPC   C1A45147  44.846  18.369   6.137
 3352POPC   D2A45148  44.861  18.532   6.552
 3352POPC   C3A45149  44.515  18.445   6.845
 3352POPC   C4A45150  44.600  18.488   7.279
 3352POPC   C1B45151  44.444  18.124   6.339
 3352POPC   C2B45152  44.760  18.019   6.666
 3352POPC   C3B45153  44.739  18.020   7.128
 3352POPC   C4B45154  44.883  18.010   7.594
 3353POPC   NC345155  25.736  26.416   5.484
 3353POPC   PO445156  25.814  25.821   5.295
 3353POPC   GL145157  25.962  25.975   5.693
 3353POPC   GL245158  26.329  25.891   5.658
 3353POPC   C1A45159  25.767  26.105   6.117
 3353POPC   D2A45160  25.866  26.172   6.573
 3353POPC   C3A45161  25.954  25.833   6.880
 3353POPC   C4A45162  25.915  26.149   7.180
 3353POPC   C1B45163  26.289  25.937   6.104
 3353POPC   C2B45164  26.494  26.108   6.454
 3353POPC   C3B45165  26.340  26.170   6.845
 3353POPC   C4B45166  26.397  25.929   7.204
 3354POPC   NC345167   8.406  12.522   5.344
 3354POPC   PO445168   8.087  13.192   5.397
 3354POPC   GL145169   8.269  12.886   5.702
 3354POPC   GL245170   8.093  12.592   5.785
 3354POPC   C1A45171   8.429  12.788   6.124
 3354POPC   D2A45172   8.181  13.039   6.413
 3354POPC   C3A45173   8.160  13.106   6.870
 3354POPC   C4A45174   8.297  12.860   7.251
 3354POPC   C1B45175   7.866  12.737   6.139
 3354POPC   C2B45176   7.774  12.806   6.573
 3354POPC   C3B45177   8.023  12.610   6.865
 3354POPC   C4B45178   7.864  12.540   7.240
 3355POPC   NC345179   9.947  16.263   5.365
 3355POPC   PO445180   9.776  15.585   5.296
 3355POPC   GL145181   9.822  15.854   5.691
 3355POPC   GL245182   9.561  16.127   5.696
 3355POPC   C1A45183   9.847  15.795   6.158
 3355POPC   D2A45184   9.606  15.591   6.516
 3355POPC   C3A45185   9.790  15.686   6.926
 3355POPC   C4A45186   9.641  15.750   7.319
 3355POPC   C1B45187   9.620  16.251   6.144
 3355POPC   C2B45188   9.468  16.135   6.564
 3355POPC   C3B45189   9.562  16.198   7.007
 3355POPC   C4B45190   9.942  16.155   7.224
 3356POPC   NC345191  43.595  24.437   5.317
 3356POPC   PO445192  44.160  24.430   5.578
 3356POPC   GL145193  43.770  24.436   5.805
 3356POPC   GL245194  43.571  24.133   5.768
 3356POPC   C1A45195  43.653  24.450   6.226
 3356POPC   D2A45196  43.917  24.361   6.560
 3356POPC   C3A45197  43.861  24.609   6.892
 3356POPC   C4A45198  43.729  24.477   7.281
 3356POPC   C1B45199  43.789  23.980   6.161
 3356POPC   C2B45200  43.678  23.896   6.580
 3356POPC   C3B45201  43.744  24.056   6.981
 3356POPC   C4B45202  44.168  24.142   7.144
 3357POPC   NC345203  41.883   6.978   5.588
 3357POPC   PO445204  42.087   6.418   5.309
 3357POPC   GL145205  41.768   6.367   5.713
 3357POPC   GL245206  41.435   6.507   5.844
 3357POPC   C1A45207  41.715   6.329   6.218
 3357POPC   D2A45208  41.417   6.525   6.542
 3357POPC   C3A45209  41.592   6.542   6.971
 3357POPC   C4A45210  41.419   6.684   7.371
 3357POPC   C1B45211  41.530   6.845   6.159
 3357POPC   C2B45212  41.429   7.050   6.559
 3357POPC   C3B45213  41.287   6.982   6.959
 3357POPC   C4B45214  41.709   7.009   7.113
 3358POPC   NC345215   5.135  44.960   5.553
 3358POPC   PO445216   5.079  44.418   5.328
 3358POPC   GL145217   5.137  44.317   5.784
 3358POPC   GL245218   5.475  44.230   5.893
 3358POPC   C1A45219   5.225  44.558   6.197
 3358POPC   D2A45220   5.409  44.634   6.624
 3358POPC   C3A45221   5.122  44.728   6.994
 3358POPC   C4A45222   4.814  44.608   7.331
 3358POPC   C1B45223   5.703  44.350   6.297
 3358POPC   C2B45224   5.661  44.198   6.725
 3358POPC   C3B45225   5.476  44.344   7.076
 3358POPC   C4B45226   5.603  44.771   7.140
 3359POPC   NC345227  32.557  30.239   5.389
 3359POPC   PO445228  31.982  29.777   5.360
 3359POPC   GL145229  32.212  29.969   5.711
 3359POPC   GL245230  32.558  29.834   5.695
 3359POPC   C1A45231  32.332  29.763   6.144
 3359POPC   D2A45232  32.554  29.652   6.541
 3359POPC   C3A45233  32.321  29.828   6.852
 3359POPC   C4A45234  32.320  29.701   7.238
 3359POPC   C1B45235  32.560  30.201   6.031
 3359POPC   C2B45236  32.481  30.178   6.496
 3359POPC   C3B45237  32.559  30.273   6.943
 3359POPC   C4B45238  32.609  30.122   7.359
 3360POPC   NC345239  13.616  44.429   5.323
 3360POPC   PO445240  13.766   0.129   5.230
 3360POPC   GL145241  13.697  44.867   5.625
 3360POPC   GL245242  13.438   0.086   5.707
 3360POPC   C1A45243  13.783  44.635   6.058
 3360POPC   D2A45244  13.740  44.416   6.486
 3360POPC   C3A45245  13.563  44.589   6.884
 3360POPC   C4A45246  13.727  44.550   7.296
 3360POPC   C1B45247  13.343  44.858   6.104
 3360POPC   C2B45248  13.349  44.914   6.537
 3360POPC   C3B45249  13.492   0.121   6.899
 3360POPC   C4B45250  13.652   0.072   7.300
 3361POPC   NC345251  31.483  37.948   5.213
 3361POPC   PO445252  31.355  37.373   5.516
 3361POPC   GL145253  31.482  37.649   5.825
 3361POPC   GL245254  31.469  38.008   5.726
 3361POPC   C1A45255  31.540  37.516   6.270
 3361POPC   D2A45256  31.645  37.445   6.715
 3361POPC   C3A45257  31.340  37.437   7.052
 3361POPC   C4A45258  31.075  37.772   7.158
 3361POPC   C1B45259  31.374  38.014   6.174
 3361POPC   C2B45260  31.629  37.953   6.545
 3361POPC   C3B45261  31.535  37.910   6.974
 3361POPC   C4B45262  31.801  38.044   7.295
 3362POPC   NC345263  33.187  28.240   5.492
 3362POPC   PO445264  32.742  28.677   5.315
 3362POPC   GL145265  32.734  28.501   5.738
 3362POPC   GL245266  32.847  28.163   5.866
 3362POPC   C1A45267  32.775  28.542   6.183
 3362POPC   D2A45268  32.874  28.225   6.496
 3362POPC   C3A45269  32.844  28.342   6.897
 3362POPC   C4A45270  32.739  28.259   7.309
 3362POPC   C1B45271  33.238  28.194   6.137
 3362POPC   C2B45272  33.395  28.331   6.543
 3362POPC   C3B45273  33.464  28.594   6.896
 3362POPC   C4B45274  33.169  28.565   7.247
 3363POPC   NC345275  25.605  24.063   5.706
 3363POPC   PO445276  25.108  23.648   5.445
 3363POPC   GL145277  25.389  23.613   5.774
 3363POPC   GL245278  25.182  23.840   5.924
 3363POPC   C1A45279  25.536  23.652   6.219
 3363POPC   D2A45280  25.490  23.838   6.628
 3363POPC   C3A45281  25.523  23.604   7.015
 3363POPC   C4A45282  25.292  23.576   7.434
 3363POPC   C1B45283  25.024  23.706   6.294
 3363POPC   C2B45284  24.977  23.895   6.663
 3363POPC   C3B45285  25.153  23.923   7.061
 3363POPC   C4B45286  25.092  24.065   7.477
 3364POPC   NC345287  33.330  29.834   5.203
 3364POPC   PO445288  33.989  29.987   5.213
 3364POPC   GL145289  33.752  29.872   5.614
 3364POPC   GL245290  33.614  30.218   5.599
 3364POPC   C1A45291  33.779  29.724   6.096
 3364POPC   D2A45292  33.937  29.589   6.544
 3364POPC   C3A45293  33.820  29.862   6.944
 3364POPC   C4A45294  33.613  29.846   7.403
 3364POPC   C1B45295  33.915  30.208   5.982
 3364POPC   C2B45296  34.030  30.106   6.439
 3364POPC   C3B45297  34.094  30.291   6.867
 3364POPC   C4B45298  33.723  30.298   7.176
 3365POPC   NC345299  15.892   0.142   5.001
 3365POPC   PO445300  16.315   0.439   5.327
 3365POPC   GL145301  15.933   0.310   5.648
 3365POPC   GL245302  15.852   0.609   5.839
 3365POPC   C1A45303  15.924   0.205   6.122
 3365POPC   D2A45304  16.065   0.356   6.541
 3365POPC   C3A45305  15.728   0.548   6.787
 3365POPC   C4A45306  15.648   0.325   7.144
 3365POPC   C1B45307  16.090   0.748   6.217
 3365POPC   C2B45308  16.147   0.850   6.689
 3365POPC   C3B45309  16.215   0.573   7.078
 3365POPC   C4B45310  16.260   0.692   7.556
 3366POPC   NC345311  28.964  32.495   5.523
 3366POPC   PO445312  29.505  32.028   5.486
 3366POPC   GL145313  29.360  32.223   5.853
 3366POPC   GL245314  29.079  31.997   5.859
 3366POPC   C1A45315  29.082  32.400   6.214
 3366POPC   D2A45316  28.825  32.316   6.590
 3366POPC   C3A45317  28.965  32.502   6.943
 3366POPC   C4A45318  29.383  32.471   7.103
 3366POPC   C1B45319  29.305  31.939   6.273
 3366POPC   C2B45320  29.311  32.135   6.687
 3366POPC   C3B45321  29.066  32.015   7.040
 3366POPC   C4B45322  29.081  31.633   7.297
 3367POPC   NC345323  25.514  36.394   5.336
 3367POPC   PO445324  24.930  36.129   5.419
 3367POPC   GL145325  25.087  35.889   5.753
 3367POPC   GL245326  25.414  35.987   5.660
 3367POPC   C1A45327  25.160  35.952   6.226
 3367POPC   D2A45328  25.068  36.230   6.618
 3367POPC   C3A45329  25.090  36.089   7.023
 3367POPC   C4A45330  25.145  35.720   7.197
 3367POPC   C1B45331  25.595  36.111   6.027
 3367POPC   C2B45332  25.585  36.109   6.494
 3367POPC   C3B45333  25.541  35.903   6.876
 3367POPC   C4B45334  25.558  36.037   7.268
 3368POPC   NC345335  34.040  25.259   5.570
 3368POPC   PO445336  33.329  25.239   5.446
 3368POPC   GL145337  33.505  25.400   5.792
 3368POPC   GL245338  33.638  25.060   5.820
 3368POPC   C1A45339  33.653  25.577   6.187
 3368POPC   D2A45340  33.978  25.577   6.499
 3368POPC   C3A45341  33.929  25.395   6.931
 3368POPC   C4A45342  33.524  25.385   7.141
 3368POPC   C1B45343  33.526  25.063   6.225
 3368POPC   C2B45344  33.456  25.261   6.600
 3368POPC   C3B45345  33.347  24.942   6.878
 3368POPC   C4B45346  33.583  24.891   7.229
 3369POPC   NC345347  41.155  18.782   5.564
 3369POPC   PO445348  40.436  19.074   5.362
 3369POPC   GL145349  40.750  19.107   5.715
 3369POPC   GL245350  40.763  19.456   5.708
 3369POPC   C1A45351  40.887  18.994   6.174
 3369POPC   D2A45352  40.984  18.919   6.651
 3369POPC   C3A45353  40.797  18.781   7.038
 3369POPC   C4A45354  40.797  18.933   7.441
 3369POPC   C1B45355  40.901  19.498   6.122
 3369POPC   C2B45356  40.884  19.414   6.563
 3369POPC   C3B45357  40.974  19.299   6.995
 3369POPC   C4B45358  41.097  19.362   7.440
 3370POPC   NC345359   2.656  35.466   5.009
 3370POPC   PO445360   2.092  35.579   5.339
 3370POPC   GL145361   1.956  35.551   5.778
 3370POPC   GL245362   1.900  35.191   5.899
 3370POPC   C1A45363   2.140  35.524   6.203
 3370POPC   D2A45364   2.052  35.624   6.621
 3370POPC   C3A45365   1.882  35.318   6.918
 3370POPC   C4A45366   1.808  35.350   7.376
 3370POPC   C1B45367   2.148  34.986   6.255
 3370POPC   C2B45368   1.959  34.853   6.702
 3370POPC   C3B45369   1.812  34.860   7.137
 3370POPC   C4B45370   1.930  34.877   7.574
 3371POPC   NC345371  22.379  24.741   5.467
 3371POPC   PO445372  22.450  24.095   5.662
 3371POPC   GL145373  22.067  24.235   5.871
 3371POPC   GL245374  22.024  24.583   5.880
 3371POPC   C1A45375  22.069  24.334   6.334
 3371POPC   D2A45376  22.295  24.190   6.711
 3371POPC   C3A45377  22.081  24.404   7.050
 3371POPC   C4A45378  21.634  24.420   7.147
 3371POPC   C1B45379  22.199  24.837   6.227
 3371POPC   C2B45380  22.283  24.722   6.653
 3371POPC   C3B45381  22.294  24.852   7.072
 3371POPC   C4B45382  22.320  24.606   7.483
 3372POPC   NC345383  40.414   3.993   4.982
 3372POPC   PO445384  40.112   4.274   5.511
 3372POPC   GL145385  39.929   4.394   5.858
 3372POPC   GL245386  39.614   4.224   5.800
 3372POPC   C1A45387  40.143   4.518   6.225
 3372POPC   D2A45388  40.284   4.716   6.589
 3372POPC   C3A45389  40.326   4.432   6.933
 3372POPC   C4A45390  39.959   4.448   7.168
 3372POPC   C1B45391  39.716   4.206   6.259
 3372POPC   C2B45392  39.905   4.237   6.661
 3372POPC   C3B45393  39.833   3.965   7.026
 3372POPC   C4B45394  39.905   4.036   7.472
 3373POPC   NC345395  31.307   4.117   5.490
 3373POPC   PO445396  31.544   3.654   5.878
 3373POPC   GL145397  31.360   4.083   5.998
 3373POPC   GL245398  31.013   4.074   5.949
 3373POPC   C1A45399  31.193   4.394   6.327
 3373POPC   D2A45400  31.164   4.236   6.761
 3373POPC   C3A45401  31.347   4.373   7.153
 3373POPC   C4A45402  31.421   4.289   7.616
 3373POPC   C1B45403  30.800   4.058   6.392
 3373POPC   C2B45404  30.761   3.952   6.855
 3373POPC   C3B45405  30.982   3.907   7.267
 3373POPC   C4B45406  30.934   4.130   7.691
 3374POPC   NC345407  41.440  20.847   5.391
 3374POPC   PO445408  41.696  20.236   5.294
 3374POPC   GL145409  41.532  20.428   5.712
 3374POPC   GL245410  41.741  20.630   5.916
 3374POPC   C1A45411  41.285  20.550   6.112
 3374POPC   D2A45412  41.208  20.390   6.509
 3374POPC   C3A45413  41.366  20.607   6.856
 3374POPC   C4A45414  41.183  20.645   7.240
 3374POPC   C1B45415  41.908  20.440   6.310
 3374POPC   C2B45416  41.880  20.457   6.775
 3374POPC   C3B45417  41.746  20.524   7.205
 3374POPC   C4B45418  41.939  20.313   7.569
 3375POPC   NC345419  44.427  16.986   5.401
 3375POPC   PO445420  44.651  16.372   5.397
 3375POPC   GL145421  44.513  16.591   5.720
 3375POPC   GL245422  44.798  16.820   5.720
 3375POPC   C1A45423  44.679  16.466   6.108
 3375POPC   D2A45424  44.548  16.497   6.525
 3375POPC   C3A45425  44.827  16.642   6.820
 3375POPC   C4A45426  44.650  16.724   7.198
 3375POPC   C1B45427  44.797  17.003   6.132
 3375POPC   C2B45428  44.980  17.069   6.543
 3375POPC   C3B45429  44.908  17.132   6.979
 3375POPC   C4B45430   0.146  16.818   7.210
 3376POPC   NC345431  28.748  31.031   5.607
 3376POPC   PO445432  28.385  30.543   5.241
 3376POPC   GL145433  28.451  30.474   5.707
 3376POPC   GL245434  28.196  30.296   5.910
 3376POPC   C1A45435  28.634  30.605   6.136
 3376POPC   D2A45436  28.615  30.888   6.526
 3376POPC   C3A45437  28.514  30.667   6.949
 3376POPC   C4A45438  28.475  30.850   7.386
 3376POPC   C1B45439  28.127  30.643   6.147
 3376POPC   C2B45440  28.126  30.704   6.584
 3376POPC   C3B45441  28.007  30.757   7.010
 3376POPC   C4B45442  28.076  30.538   7.398
 3377POPC   NC345443  16.764   2.372   5.349
 3377POPC   PO445444  16.988   1.728   5.387
 3377POPC   GL145445  16.812   1.742   5.792
 3377POPC   GL245446  16.734   2.084   5.782
 3377POPC   C1A45447  16.896   1.837   6.222
 3377POPC   D2A45448  16.656   1.762   6.596
 3377POPC   C3A45449  16.909   1.727   6.947
 3377POPC   C4A45450  17.055   1.800   7.347
 3377POPC   C1B45451  16.414   1.998   6.077
 3377POPC   C2B45452  16.375   2.180   6.470
 3377POPC   C3B45453  16.337   2.068   6.902
 3377POPC   C4B45454  16.369   2.242   7.336
 3378POPC   NC345455  26.301  41.774   5.597
 3378POPC   PO445456  26.818  41.648   5.177
 3378POPC   GL145457  26.803  41.483   5.630
 3378POPC   GL245458  26.497  41.367   5.853
 3378POPC   C1A45459  27.028  41.519   6.035
 3378POPC   D2A45460  27.201  41.384   6.450
 3378POPC   C3A45461  27.036  41.650   6.784
 3378POPC   C4A45462  26.790  41.809   7.110
 3378POPC   C1B45463  26.661  41.254   6.290
 3378POPC   C2B45464  26.783  41.225   6.758
 3378POPC   C3B45465  26.710  41.295   7.213
 3378POPC   C4B45466  26.627  41.145   7.658
 3379POPC   NC345467  29.863   3.688   5.201
 3379POPC   PO445468  30.291   3.342   5.606
 3379POPC   GL145469  29.954   3.454   5.880
 3379POPC   GL245470  29.776   3.725   5.704
 3379POPC   C1A45471  29.873   3.419   6.284
 3379POPC   D2A45472  30.160   3.672   6.541
 3379POPC   C3A45473  30.288   3.501   6.926
 3379POPC   C4A45474  30.563   3.603   7.242
 3379POPC   C1B45475  29.826   3.885   6.125
 3379POPC   C2B45476  29.677   3.777   6.588
 3379POPC   C3B45477  29.803   3.673   7.023
 3379POPC   C4B45478  30.066   3.701   7.392
 3380POPC   NC345479   0.754  40.101   5.371
 3380POPC   PO445480   0.364  39.628   5.446
 3380POPC   GL145481   0.554  39.807   5.842
 3380POPC   GL245482   0.561  40.178   5.849
 3380POPC   C1A45483   0.396  39.900   6.292
 3380POPC   D2A45484   0.124  39.927   6.690
 3380POPC   C3A45485   0.352  39.924   7.101
 3380POPC   C4A45486   0.687  39.614   7.363
 3380POPC   C1B45487   0.569  40.376   6.248
 3380POPC   C2B45488   0.436  40.348   6.670
 3380POPC   C3B45489   0.673  40.341   7.018
 3380POPC   C4B45490   0.671  40.154   7.411
 3381POPC   NC345491  24.351  18.017   5.349
 3381POPC   PO445492  24.544  17.329   5.324
 3381POPC   GL145493  24.669  17.323   5.771
 3381POPC   GL245494  24.566  17.674   5.751
 3381POPC   C1A45495  24.736  17.499   6.205
 3381POPC   D2A45496  24.454  17.394   6.550
 3381POPC   C3A45497  24.625  17.385   6.952
 3381POPC   C4A45498  24.930  17.572   7.189
 3381POPC   C1B45499  24.265  17.663   6.115
 3381POPC   C2B45500  24.331  17.899   6.512
 3381POPC   C3B45501  24.563  17.884   6.888
 3381POPC   C4B45502  24.398  17.715   7.279
 3382POPC   NC345503  35.326  27.337   5.577
 3382POPC   PO445504  35.588  27.866   5.265
 3382POPC   GL145505  35.329  27.869   5.673
 3382POPC   GL245506  35.034  27.695   5.773
 3382POPC   C1A45507  35.354  27.765   6.160
 3382POPC   D2A45508  35.534  27.792   6.595
 3382POPC   C3A45509  35.603  27.554   6.976
 3382POPC   C4A45510  35.398  27.702   7.364
 3382POPC   C1B45511  34.985  27.421   6.157
 3382POPC   C2B45512  35.197  27.408   6.551
 3382POPC   C3B45513  35.103  27.486   6.966
 3382POPC   C4B45514  34.922  27.463   7.346
 3383POPC   NC345515  38.242   5.267   5.481
 3383POPC   PO445516  38.905   4.968   5.350
 3383POPC   GL145517  38.676   5.104   5.700
 3383POPC   GL245518  38.794   5.384   5.799
 3383POPC   C1A45519  38.539   4.903   6.094
 3383POPC   D2A45520  38.699   5.014   6.517
 3383POPC   C3A45521  38.500   4.981   6.913
 3383POPC   C4A45522  38.738   4.827   7.265
 3383POPC   C1B45523  38.576   5.394   6.189
 3383POPC   C2B45524  38.226   5.278   6.483
 3383POPC   C3B45525  38.140   5.423   6.923
 3383POPC   C4B45526  38.411   5.383   7.261
 3384POPC   NC345527  31.579  31.165   5.502
 3384POPC   PO445528  31.267  31.792   5.392
 3384POPC   GL145529  31.369  31.608   5.819
 3384POPC   GL245530  31.729  31.623   5.828
 3384POPC   C1A45531  31.349  31.529   6.299
 3384POPC   D2A45532  31.430  31.729   6.694
 3384POPC   C3A45533  31.265  31.525   7.060
 3384POPC   C4A45534  31.110  31.103   7.180
 3384POPC   C1B45535  31.856  31.420   6.230
 3384POPC   C2B45536  31.769  31.334   6.682
 3384POPC   C3B45537  31.743  31.340   7.136
 3384POPC   C4B45538  31.905  31.380   7.548
 3385POPC   NC345539  19.899  38.547   5.405
 3385POPC   PO445540  19.760  37.877   5.412
 3385POPC   GL145541  19.836  38.160   5.769
 3385POPC   GL245542  20.173  38.354   5.792
 3385POPC   C1A45543  19.805  38.358   6.182
 3385POPC   D2A45544  20.078  38.393   6.539
 3385POPC   C3A45545  19.898  38.428   6.945
 3385POPC   C4A45546  19.679  38.085   7.137
 3385POPC   C1B45547  20.220  38.684   6.122
 3385POPC   C2B45548  20.278  38.855   6.550
 3385POPC   C3B45549  20.402  38.673   6.936
 3385POPC   C4B45550  20.261  38.692   7.356
 3386POPC   NC345551  38.932  20.730   5.454
 3386POPC   PO445552  39.323  20.285   5.233
 3386POPC   GL145553  39.321  20.386   5.669
 3386POPC   GL245554  39.583  20.221   5.775
 3386POPC   C1A45555  39.255  20.522   6.104
 3386POPC   D2A45556  39.439  20.747   6.475
 3386POPC   C3A45557  39.184  20.869   6.845
 3386POPC   C4A45558  39.302  20.738   7.256
 3386POPC   C1B45559  39.402  20.002   6.127
 3386POPC   C2B45560  39.208  20.156   6.493
 3386POPC   C3B45561  39.245  20.356   6.877
 3386POPC   C4B45562  39.501  20.294   7.279
 3387POPC   NC345563  27.026  17.257   5.502
 3387POPC   PO445564  26.454  17.588   5.236
 3387POPC   GL145565  26.615  17.415   5.685
 3387POPC   GL245566  26.890  17.653   5.796
 3387POPC   C1A45567  26.687  17.413   6.183
 3387POPC   D2A45568  26.898  17.550   6.576
 3387POPC   C3A45569  26.732  17.474   6.973
 3387POPC   C4A45570  26.493  17.133   7.047
 3387POPC   C1B45571  27.150  17.765   6.175
 3387POPC   C2B45572  27.307  17.849   6.584
 3387POPC   C3B45573  27.132  17.791   6.999
 3387POPC   C4B45574  27.047  17.966   7.418
 3388POPC   NC345575  37.791  34.817   5.329
 3388POPC   PO445576  37.283  34.416   5.603
 3388POPC   GL145577  37.654  34.485   5.851
 3388POPC   GL245578  37.765  34.844   5.838
 3388POPC   C1A45579  37.908  34.232   6.161
 3388POPC   D2A45580  37.867  34.337   6.602
 3388POPC   C3A45581  37.463  34.391   6.790
 3388POPC   C4A45582  37.554  34.247   7.166
 3388POPC   C1B45583  37.814  34.726   6.260
 3388POPC   C2B45584  37.737  34.822   6.662
 3388POPC   C3B45585  37.696  35.171   6.827
 3388POPC   C4B45586  37.984  35.163   7.094
 3389POPC   NC345587  27.226  15.177   5.299
 3389POPC   PO445588  27.791  14.923   5.289
 3389POPC   GL145589  27.627  15.226   5.667
 3389POPC   GL245590  27.260  15.297   5.804
 3389POPC   C1A45591  27.806  15.334   6.103
 3389POPC   D2A45592  27.698  15.417   6.558
 3389POPC   C3A45593  27.869  15.279   6.958
 3389POPC   C4A45594  27.808  15.277   7.400
 3389POPC   C1B45595  27.272  15.382   6.265
 3389POPC   C2B45596  27.148  15.399   6.727
 3389POPC   C3B45597  27.366  15.258   7.115
 3389POPC   C4B45598  27.327  15.294   7.586
 3390POPC   NC345599  39.212  39.880   5.383
 3390POPC   PO445600  39.691  40.344   5.323
 3390POPC   GL145601  39.473  40.196   5.723
 3390POPC   GL245602  39.081  40.220   5.741
 3390POPC   C1A45603  39.390  39.920   6.105
 3390POPC   D2A45604  39.089  39.741   6.377
 3390POPC   C3A45605  39.114  39.809   6.809
 3390POPC   C4A45606  39.091  39.751   7.250
 3390POPC   C1B45607  38.949  40.198   6.167
 3390POPC   C2B45608  38.768  40.140   6.576
 3390POPC   C3B45609  38.896  40.233   7.000
 3390POPC   C4B45610  38.956  40.205   7.449
 3391POPC   NC345611  43.255  21.307   5.440
 3391POPC   PO445612  42.626  21.584   5.645
 3391POPC   GL145613  42.910  21.306   5.839
 3391POPC   GL245614  43.284  21.311   5.928
 3391POPC   C1A45615  42.892  21.289   6.265
 3391POPC   D2A45616  42.713  21.108   6.613
 3391POPC   C3A45617  42.906  21.381   6.926
 3391POPC   C4A45618  42.963  21.783   7.179
 3391POPC   C1B45619  43.578  21.266   6.232
 3391POPC   C2B45620  43.612  21.510   6.605
 3391POPC   C3B45621  43.409  21.498   6.993
 3391POPC   C4B45622  43.355  21.119   7.241
 3392POPC   NC345623  35.208   8.495   5.618
 3392POPC   PO445624  35.140   7.858   5.395
 3392POPC   GL145625  35.381   7.999   5.772
 3392POPC   GL245626  35.710   8.185   5.806
 3392POPC   C1A45627  35.264   8.149   6.191
 3392POPC   D2A45628  35.038   8.107   6.579
 3392POPC   C3A45629  35.163   8.460   6.828
 3392POPC   C4A45630  35.104   8.375   7.240
 3392POPC   C1B45631  35.750   7.977   6.226
 3392POPC   C2B45632  35.569   8.142   6.621
 3392POPC   C3B45633  35.518   8.110   7.053
 3392POPC   C4B45634  35.854   8.262   7.294
 3393POPC   NC345635   1.478  11.585   5.560
 3393POPC   PO445636   1.190  10.949   5.683
 3393POPC   GL145637   1.194  11.295   5.861
 3393POPC   GL245638   0.965  11.474   5.662
 3393POPC   C1A45639   1.327  11.348   6.282
 3393POPC   D2A45640   1.310  10.966   6.534
 3393POPC   C3A45641   1.343  11.014   6.966
 3393POPC   C4A45642   1.202  10.871   7.365
 3393POPC   C1B45643   0.913  11.625   6.111
 3393POPC   C2B45644   0.864  11.473   6.557
 3393POPC   C3B45645   0.896  11.623   6.966
 3393POPC   C4B45646   1.228  11.467   7.208
 3394POPC   NC345647  40.342  44.106   5.498
 3394POPC   PO445648  39.959  43.515   5.340
 3394POPC   GL145649  39.918  43.627   5.795
 3394POPC   GL245650  40.260  43.757   5.860
 3394POPC   C1A45651  39.819  43.942   6.174
 3394POPC   D2A45652  40.102  44.097   6.530
 3394POPC   C3A45653  39.962  44.111   6.959
 3394POPC   C4A45654  39.670  43.901   7.244
 3394POPC   C1B45655  40.235  43.662   6.286
 3394POPC   C2B45656  39.950  43.585   6.614
 3394POPC   C3B45657  40.011  43.579   7.028
 3394POPC   C4B45658  40.357  43.488   7.232
 3395POPC   NC345659   2.766  41.167   5.011
 3395POPC   PO445660   2.902  40.528   5.261
 3395POPC   GL145661   2.737  40.621   5.670
 3395POPC   GL245662   2.809  40.966   5.740
 3395POPC   C1A45663   2.795  40.521   6.119
 3395POPC   D2A45664   2.568  40.602   6.522
 3395POPC   C3A45665   2.746  40.469   6.915
 3395POPC   C4A45666   2.917  40.668   7.270
 3395POPC   C1B45667   2.598  41.039   6.141
 3395POPC   C2B45668   2.644  41.101   6.588
 3395POPC   C3B45669   2.517  40.922   6.980
 3395POPC   C4B45670   2.667  41.139   7.335
 3396POPC   NC345671  10.024  24.878   5.385
 3396POPC   PO445672   9.680  25.430   5.265
 3396POPC   GL145673   9.909  25.326   5.650
 3396POPC   GL245674   9.782  25.621   5.807
 3396POPC   C1A45675   9.860  25.026   5.997
 3396POPC   D2A45676   9.915  24.988   6.465
 3396POPC   C3A45677   9.669  25.153   6.834
 3396POPC   C4A45678   9.348  25.332   7.123
 3396POPC   C1B45679   9.715  25.464   6.196
 3396POPC   C2B45680   9.942  25.538   6.536
 3396POPC   C3B45681   9.945  25.704   6.911
 3396POPC   C4B45682   9.810  25.477   7.243
 3397POPC   NC345683  41.277  20.043   5.377
 3397POPC   PO445684  41.867  19.682   5.621
 3397POPC   GL145685  41.545  19.898   5.767
 3397POPC   GL245686  41.240  19.673   5.740
 3397POPC   C1A45687  41.533  20.109   6.133
 3397POPC   D2A45688  41.742  19.981   6.487
 3397POPC   C3A45689  41.515  20.097   6.823
 3397POPC   C4A45690  41.607  20.050   7.228
 3397POPC   C1B45691  41.419  19.603   6.159
 3397POPC   C2B45692  41.348  19.636   6.597
 3397POPC   C3B45693  41.294  19.682   7.035
 3397POPC   C4B45694  41.568  19.567   7.348
 3398POPC   NC345695   9.635   6.020   5.271
 3398POPC   PO445696  10.249   5.832   5.445
 3398POPC   GL145697   9.852   5.712   5.662
 3398POPC   GL245698   9.695   6.038   5.768
 3398POPC   C1A45699   9.629   5.652   6.070
 3398POPC   D2A45700   9.580   5.783   6.508
 3398POPC   C3A45701   9.355   5.707   6.863
 3398POPC   C4A45702   9.599   5.691   7.248
 3398POPC   C1B45703   9.518   6.174   6.152
 3398POPC   C2B45704   9.737   6.250   6.542
 3398POPC   C3B45705   9.554   6.164   6.957
 3398POPC   C4B45706   9.588   6.192   7.421
 3399POPC   NC345707  37.519  23.168   5.508
 3399POPC   PO445708  38.127  22.828   5.335
 3399POPC   GL145709  37.862  22.818   5.748
 3399POPC   GL245710  37.472  22.713   5.756
 3399POPC   C1A45711  37.766  23.027   6.176
 3399POPC   D2A45712  37.785  23.234   6.612
 3399POPC   C3A45713  37.851  22.974   6.999
 3399POPC   C4A45714  37.801  22.963   7.458
 3399POPC   C1B45715  37.309  22.794   6.191
 3399POPC   C2B45716  37.377  22.889   6.668
 3399POPC   C3B45717  37.370  22.819   7.136
 3399POPC   C4B45718  37.528  22.534   7.457
 3400POPC   NC345719  40.261  10.176   5.337
 3400POPC   PO445720  39.685   9.956   5.420
 3400POPC   GL145721  39.940  10.212   5.768
 3400POPC   GL245722  40.277  10.101   5.872
 3400POPC   C1A45723  40.011  10.424   6.217
 3400POPC   D2A45724  39.916  10.679   6.617
 3400POPC   C3A45725  39.936  10.497   7.038
 3400POPC   C4A45726  39.670  10.440   7.425
 3400POPC   C1B45727  40.407  10.107   6.319
 3400POPC   C2B45728  40.361  10.397   6.696
 3400POPC   C3B45729  40.475  10.478   7.163
 3400POPC   C4B45730  40.532  10.446   7.634
 3401POPC   NC345731  25.503   2.253   5.529
 3401POPC   PO445732  24.933   1.858   5.530
 3401POPC   GL145733  25.030   1.928   5.903
 3401POPC   GL245734  25.357   1.826   5.847
 3401POPC   C1A45735  25.153   2.110   6.300
 3401POPC   D2A45736  25.439   1.941   6.604
 3401POPC   C3A45737  25.313   2.067   7.001
 3401POPC   C4A45738  24.981   2.223   7.195
 3401POPC   C1B45739  25.233   1.615   6.258
 3401POPC   C2B45740  25.082   1.448   6.656
 3401POPC   C3B45741  25.182   1.546   7.077
 3401POPC   C4B45742  25.485   1.731   7.340
 3402POPC   NC345743  30.398   2.975   5.322
 3402POPC   PO445744  30.902   2.665   5.297
 3402POPC   GL145745  30.671   2.705   5.708
 3402POPC   GL245746  30.650   3.040   5.808
 3402POPC   C1A45747  30.448   2.625   6.140
 3402POPC   D2A45748  30.521   2.788   6.596
 3402POPC   C3A45749  30.468   2.540   6.996
 3402POPC   C4A45750  30.779   2.423   7.307
 3402POPC   C1B45751  30.861   2.912   6.194
 3402POPC   C2B45752  30.998   2.922   6.635
 3402POPC   C3B45753  30.815   2.970   7.058
 3402POPC   C4B45754  30.827   3.238   7.443
 3403POPC   NC345755   4.858  19.936   5.444
 3403POPC   PO445756   4.889  19.286   5.342
 3403POPC   GL145757   4.846  19.509   5.740
 3403POPC   GL245758   5.173  19.690   5.762
 3403POPC   C1A45759   4.967  19.524   6.193
 3403POPC   D2A45760   5.201  19.630   6.535
 3403POPC   C3A45761   4.989  19.652   6.897
 3403POPC   C4A45762   4.718  19.628   7.263
 3403POPC   C1B45763   5.189  19.979   6.113
 3403POPC   C2B45764   5.039  20.101   6.539
 3403POPC   C3B45765   5.280  20.124   6.899
 3403POPC   C4B45766   5.007  20.058   7.217
 3404POPC   NC345767  21.519  39.187   5.407
 3404POPC   PO445768  20.984  39.020   5.734
 3404POPC   GL145769  21.355  39.246   5.898
 3404POPC   GL245770  21.754  39.216   5.854
 3404POPC   C1A45771  21.493  39.431   6.276
 3404POPC   D2A45772  21.377  39.606   6.666
 3404POPC   C3A45773  21.591  39.385   6.981
 3404POPC   C4A45774  21.613  39.464   7.415
 3404POPC   C1B45775  21.697  38.967   6.232
 3404POPC   C2B45776  21.511  38.984   6.655
 3404POPC   C3B45777  21.737  38.870   7.042
 3404POPC   C4B45778  21.725  38.981   7.517
 3405POPC   NC345779   5.887  15.455   5.414
 3405POPC   PO445780   5.969  14.805   5.373
 3405POPC   GL145781   5.936  14.984   5.758
 3405POPC   GL245782   6.204  15.181   5.697
 3405POPC   C1A45783   5.857  14.826   6.187
 3405POPC   D2A45784   5.962  14.679   6.617
 3405POPC   C3A45785   5.790  14.969   6.925
 3405POPC   C4A45786   5.629  14.978   7.318
 3405POPC   C1B45787   6.081  15.298   6.118
 3405POPC   C2B45788   6.151  15.156   6.527
 3405POPC   C3B45789   6.280  15.076   6.926
 3405POPC   C4B45790   6.100  15.232   7.355
 3406POPC   NC345791  12.524   0.440   5.319
 3406POPC   PO445792  13.129   0.778   5.446
 3406POPC   GL145793  13.041   0.439   5.690
 3406POPC   GL245794  12.773   0.402   5.783
 3406POPC   C1A45795  13.202   0.326   6.099
 3406POPC   D2A45796  12.957   0.233   6.456
 3406POPC   C3A45797  13.050   0.398   6.839
 3406POPC   C4A45798  12.971   0.194   7.193
 3406POPC   C1B45799  12.821   0.647   6.162
 3406POPC   C2B45800  12.665   0.647   6.597
 3406POPC   C3B45801  12.590   0.550   7.058
 3406POPC   C4B45802  12.421   0.834   7.416
 3407POPC   NC345803  21.070  36.072   5.218
 3407POPC   PO445804  20.630  36.445   5.426
 3407POPC   GL145805  20.638  36.118   5.739
 3407POPC   GL245806  20.922  35.883   5.702
 3407POPC   C1A45807  20.504  36.026   6.165
 3407POPC   D2A45808  20.561  36.203   6.580
 3407POPC   C3A45809  20.503  35.895   6.897
 3407POPC   C4A45810  20.287  35.963   7.256
 3407POPC   C1B45811  21.014  36.044   6.120
 3407POPC   C2B45812  20.986  35.925   6.556
 3407POPC   C3B45813  20.951  36.148   6.939
 3407POPC   C4B45814  20.965  35.936   7.324
 3408POPC   NC345815  27.064  21.988   5.457
 3408POPC   PO445816  26.435  22.307   5.397
 3408POPC   GL145817  26.692  22.220   5.758
 3408POPC   GL245818  27.007  22.411   5.774
 3408POPC   C1A45819  26.877  22.036   6.133
 3408POPC   D2A45820  27.076  22.160   6.505
 3408POPC   C3A45821  26.902  22.107   6.932
 3408POPC   C4A45822  27.078  22.213   7.314
 3408POPC   C1B45823  26.785  22.532   6.186
 3408POPC   C2B45824  26.703  22.484   6.630
 3408POPC   C3B45825  26.794  22.597   7.058
 3408POPC   C4B45826  26.411  22.526   7.259
 3409POPC   NC345827   9.182  20.039   5.526
 3409POPC   PO445828   8.781  19.487   5.523
 3409POPC   GL145829   8.815  19.639   5.934
 3409POPC   GL245830   9.054  19.898   6.003
 3409POPC   C1A45831   8.630  19.760   6.321
 3409POPC   D2A45832   8.639  19.803   6.765
 3409POPC   C3A45833   8.989  19.603   6.958
 3409POPC   C4A45834   9.353  19.709   7.160
 3409POPC   C1B45835   8.691  20.216   6.080
 3409POPC   C2B45836   8.635  20.472   6.463
 3409POPC   C3B45837   8.756  20.312   6.870
 3409POPC   C4B45838   8.873  20.039   7.173
 3410POPC   NC345839  24.995  31.208   5.112
 3410POPC   PO445840  24.286  31.324   5.113
 3410POPC   GL145841  24.360  31.419   5.592
 3410POPC   GL245842  24.697  31.386   5.701
 3410POPC   C1A45843  24.345  31.470   6.087
 3410POPC   D2A45844  24.196  31.364   6.519
 3410POPC   C3A45845  24.318  31.658   6.857
 3410POPC   C4A45846  24.193  31.777   7.267
 3410POPC   C1B45847  24.861  31.490   6.117
 3410POPC   C2B45848  24.706  31.510   6.538
 3410POPC   C3B45849  24.806  31.477   6.979
 3410POPC   C4B45850  24.518  31.412   7.317
 3411POPC   NC345851  35.736  34.062   5.602
 3411POPC   PO445852  36.374  33.795   5.524
 3411POPC   GL145853  36.303  33.853   5.923
 3411POPC   GL245854  36.562  33.649   6.045
 3411POPC   C1A45855  36.047  34.090   6.209
 3411POPC   D2A45856  35.873  33.880   6.537
 3411POPC   C3A45857  35.992  34.069   6.916
 3411POPC   C4A45858  36.018  33.855   7.278
 3411POPC   C1B45859  36.424  33.836   6.430
 3411POPC   C2B45860  36.290  33.651   6.802
 3411POPC   C3B45861  36.478  33.647   7.204
 3411POPC   C4B45862  36.346  33.709   7.651
 3412POPC   NC345863   4.951  10.078   5.555
 3412POPC   PO445864   5.287   9.533   5.536
 3412POPC   GL145865   5.255   9.748   5.900
 3412POPC   GL245866   4.919   9.632   5.959
 3412POPC   C1A45867   5.301   9.917   6.305
 3412POPC   D2A45868   5.012   9.854   6.638
 3412POPC   C3A45869   5.130   9.696   7.020
 3412POPC   C4A45870   5.394   9.985   7.243
 3412POPC   C1B45871   4.733   9.988   6.205
 3412POPC   C2B45872   4.524  10.012   6.621
 3412POPC   C3B45873   4.698  10.022   7.071
 3412POPC   C4B45874   4.683  10.037   7.553
 3413POPC   NC345875  15.926  41.713   5.429
 3413POPC   PO445876  15.661  42.235   5.117
 3413POPC   GL145877  15.676  42.097   5.634
 3413POPC   GL245878  16.007  42.225   5.781
 3413POPC   C1A45879  15.609  42.206   6.133
 3413POPC   D2A45880  15.894  42.380   6.486
 3413POPC   C3A45881  15.915  42.317   6.938
 3413POPC   C4A45882  16.008  42.534   7.295
 3413POPC   C1B45883  16.081  41.989   6.188
 3413POPC   C2B45884  16.183  41.991   6.650
 3413POPC   C3B45885  16.151  41.894   7.114
 3413POPC   C4B45886  15.991  42.068   7.488
 3414POPC   NC345887  42.786  35.645   5.174
 3414POPC   PO445888  43.297  35.337   5.397
 3414POPC   GL145889  43.139  35.209   5.783
 3414POPC   GL245890  42.930  34.923   5.768
 3414POPC   C1A45891  42.986  35.377   6.180
 3414POPC   D2A45892  43.219  35.630   6.489
 3414POPC   C3A45893  43.079  35.716   6.910
 3414POPC   C4A45894  43.374  35.577   7.224
 3414POPC   C1B45895  43.155  34.879   6.157
 3414POPC   C2B45896  43.225  35.097   6.532
 3414POPC   C3B45897  43.101  35.212   6.924
 3414POPC   C4B45898  43.176  34.919   7.226
 3415POPC   NC345899  30.276  30.146   5.448
 3415POPC   PO445900  29.763  29.749   5.492
 3415POPC   GL145901  29.831  30.027   5.845
 3415POPC   GL245902  30.158  30.126   5.958
 3415POPC   C1A45903  29.722  29.892   6.265
 3415POPC   D2A45904  29.871  29.761   6.674
 3415POPC   C3A45905  29.750  30.058   6.983
 3415POPC   C4A45906  29.727  30.311   7.369
 3415POPC   C1B45907  30.215  29.762   6.258
 3415POPC   C2B45908  30.384  29.801   6.700
 3415POPC   C3B45909  30.219  29.915   7.095
 3415POPC   C4B45910  30.245  29.828   7.574
 3416POPC   NC345911  34.380   9.736   5.343
 3416POPC   PO445912  35.067   9.699   5.393
 3416POPC   GL145913  34.744   9.729   5.702
 3416POPC   GL245914  34.472  10.007   5.778
 3416POPC   C1A45915  34.741   9.677   6.108
 3416POPC   D2A45916  34.894   9.741   6.508
 3416POPC   C3A45917  34.805   9.463   6.846
 3416POPC   C4A45918  34.799   9.725   7.200
 3416POPC   C1B45919  34.313   9.920   6.225
 3416POPC   C2B45920  34.398   9.755   6.668
 3416POPC   C3B45921  34.282   9.813   7.110
 3416POPC   C4B45922  34.197   9.700   7.539
 3417POPC   NC345923   9.917  43.462   5.184
 3417POPC   PO445924   9.958  42.833   5.225
 3417POPC   GL145925   9.799  43.057   5.609
 3417POPC   GL245926   9.450  43.150   5.600
 3417POPC   C1A45927   9.880  42.987   6.091
 3417POPC   D2A45928   9.818  42.836   6.533
 3417POPC   C3A45929   9.833  43.015   6.945
 3417POPC   C4A45930   9.989  42.849   7.294
 3417POPC   C1B45931   9.559  43.375   5.991
 3417POPC   C2B45932   9.507  43.279   6.451
 3417POPC   C3B45933   9.372  43.196   6.889
 3417POPC   C4B45934   9.545  43.302   7.321
 3418POPC   NC345935  23.414  40.432   5.399
 3418POPC   PO445936  24.005  40.090   5.238
 3418POPC   GL145937  23.737  40.135   5.648
 3418POPC   GL245938  23.360  40.008   5.733
 3418POPC   C1A45939  23.692  40.158   6.132
 3418POPC   D2A45940  23.793  40.398   6.528
 3418POPC   C3A45941  24.014  40.288   6.936
 3418POPC   C4A45942  23.783  40.194   7.287
 3418POPC   C1B45943  23.348  39.767   6.151
 3418POPC   C2B45944  23.572  39.813   6.548
 3418POPC   C3B45945  23.823  39.812   6.917
 3418POPC   C4B45946  23.692  39.685   7.303
 3419POPC   NC345947   3.419   6.408   5.331
 3419POPC   PO445948   3.625   7.033   5.414
 3419POPC   GL145949   3.661   6.779   5.769
 3419POPC   GL245950   3.341   6.614   5.796
 3419POPC   C1A45951   3.844   6.903   6.212
 3419POPC   D2A45952   3.845   7.021   6.669
 3419POPC   C3A45953   3.709   6.790   7.017
 3419POPC   C4A45954   3.632   6.614   7.427
 3419POPC   C1B45955   3.508   6.519   6.193
 3419POPC   C2B45956   3.568   6.474   6.640
 3419POPC   C3B45957   3.645   6.270   7.042
 3419POPC   C4B45958   3.489   6.136   7.462
 3420POPC   NC345959  16.530  23.954   5.185
 3420POPC   PO445960  15.864  23.742   5.307
 3420POPC   GL145961  15.764  23.772   5.756
 3420POPC   GL245962  15.977  23.471   5.899
 3420POPC   C1A45963  15.920  23.882   6.185
 3420POPC   D2A45964  15.911  23.700   6.584
 3420POPC   C3A45965  15.993  23.963   6.887
 3420POPC   C4A45966  15.788  23.968   7.269
 3420POPC   C1B45967  16.226  23.407   6.300
 3420POPC   C2B45968  16.115  23.241   6.718
 3420POPC   C3B45969  15.916  23.480   7.066
 3420POPC   C4B45970  16.183  23.657   7.393
 3421POPC   NC345971  11.090   8.397   5.491
 3421POPC   PO445972  11.690   8.592   5.587
 3421POPC   GL145973  11.493   8.292   5.812
 3421POPC   GL245974  11.378   7.960   5.683
 3421POPC   C1A45975  11.259   8.331   6.164
 3421POPC   D2A45976  11.096   8.106   6.493
 3421POPC   C3A45977  11.115   8.273   6.900
 3421POPC   C4A45978  11.488   8.418   7.122
 3421POPC   C1B45979  11.333   7.799   6.119
 3421POPC   C2B45980  11.422   7.721   6.568
 3421POPC   C3B45981  11.411   7.867   6.987
 3421POPC   C4B45982  11.130   7.814   7.317
 3422POPC   NC345983   1.485  18.393   5.569
 3422POPC   PO445984   0.845  18.189   5.551
 3422POPC   GL145985   1.102  18.177   5.884
 3422POPC   GL245986   1.306  17.940   5.781
 3422POPC   C1A45987   1.277  18.397   6.219
 3422POPC   D2A45988   1.082  18.561   6.543
 3422POPC   C3A45989   1.142  18.367   6.921
 3422POPC   C4A45990   1.133  18.465   7.353
 3422POPC   C1B45991   1.488  17.913   6.187
 3422POPC   C2B45992   1.332  17.966   6.612
 3422POPC   C3B45993   1.495  18.013   7.044
 3422POPC   C4B45994   1.423  18.084   7.499
 3423POPC   NC345995  17.733   4.731   5.520
 3423POPC   PO445996  17.344   5.181   5.215
 3423POPC   GL145997  17.353   5.067   5.673
 3423POPC   GL245998  17.180   4.727   5.674
 3423POPC   C1A45999  17.537   4.937   6.109
 3423POPC   D2A46000  17.811   4.826   6.470
 3423POPC   C3A46001  17.739   5.018   6.881
 3423POPC   C4A46002  17.563   4.966   7.290
 3423POPC   C1B46003  17.032   4.917   6.050
 3423POPC   C2B46004  17.181   4.880   6.475
 3423POPC   C3B46005  17.219   4.943   6.903
 3423POPC   C4B46006  17.018   5.158   7.249
 3424POPC   NC346007  29.321   6.216   5.377
 3424POPC   PO446008  29.070   6.915   5.330
 3424POPC   GL146009  29.241   6.642   5.649
 3424POPC   GL246010  28.970   6.609   5.896
 3424POPC   C1A46011  29.462   6.642   6.052
 3424POPC   D2A46012  29.533   6.681   6.513
 3424POPC   C3A46013  29.251   6.469   6.792
 3424POPC   C4A46014  29.133   6.628   7.186
 3424POPC   C1B46015  28.856   6.928   6.212
 3424POPC   C2B46016  28.995   6.916   6.649
 3424POPC   C3B46017  28.774   6.988   7.018
 3424POPC   C4B46018  28.689   7.340   7.318
 3425POPC   NC346019   3.982  20.240   5.266
 3425POPC   PO446020   3.601  19.752   5.361
 3425POPC   GL146021   3.580  19.986   5.692
 3425POPC   GL246022   3.941  20.040   5.753
 3425POPC   C1A46023   3.478  19.894   6.137
 3425POPC   D2A46024   3.712  19.813   6.525
 3425POPC   C3A46025   3.552  19.656   6.902
 3425POPC   C4A46026   3.465  19.864   7.277
 3425POPC   C1B46027   4.153  20.115   6.191
 3425POPC   C2B46028   4.129  20.077   6.661
 3425POPC   C3B46029   3.853  20.078   7.029
 3425POPC   C4B46030   3.881  20.061   7.503
 3426POPC   NC346031  27.279  19.440   5.122
 3426POPC   PO446032  27.644  18.988   5.481
 3426POPC   GL146033  27.352  18.993   5.826
 3426POPC   GL246034  27.053  18.780   5.832
 3426POPC   C1A46035  27.546  19.122   6.212
 3426POPC   D2A46036  27.857  19.317   6.486
 3426POPC   C3A46037  27.634  19.314   6.857
 3426POPC   C4A46038  27.674  19.110   7.203
 3426POPC   C1B46039  27.192  18.750   6.263
 3426POPC   C2B46040  27.432  18.785   6.663
 3426POPC   C3B46041  27.502  18.653   7.102
 3426POPC   C4B46042  27.411  18.838   7.546
 3427POPC   NC346043  21.961  10.989   5.498
 3427POPC   PO446044  22.330  11.444   5.235
 3427POPC   GL146045  22.262  11.364   5.680
 3427POPC   GL246046  22.593  11.417   5.759
 3427POPC   C1A46047  22.258  11.214   6.139
 3427POPC   D2A46048  22.096  11.301   6.555
 3427POPC   C3A46049  22.046  11.023   6.876
 3427POPC   C4A46050  22.172  11.278   7.187
 3427POPC   C1B46051  22.715  11.509   6.172
 3427POPC   C2B46052  22.615  11.401   6.583
 3427POPC   C3B46053  22.641  11.617   6.979
 3427POPC   C4B46054  22.585  11.448   7.392
 3428POPC   NC346055  20.260  43.486   5.435
 3428POPC   PO446056  19.635  43.169   5.415
 3428POPC   GL146057  19.804  42.944   5.746
 3428POPC   GL246058  20.100  43.116   5.800
 3428POPC   C1A46059  19.749  43.052   6.196
 3428POPC   D2A46060  19.484  43.068   6.570
 3428POPC   C3A46061  19.728  42.959   6.914
 3428POPC   C4A46062  19.750  43.117   7.324
 3428POPC   C1B46063  20.115  43.414   6.153
 3428POPC   C2B46064  19.919  43.391   6.583
 3428POPC   C3B46065  20.066  43.385   7.019
 3428POPC   C4B46066  20.046  43.528   7.458
 3429POPC   NC346067  18.833  23.761   4.903
 3429POPC   PO446068  19.145  23.848   5.466
 3429POPC   GL146069  18.974  23.743   5.871
 3429POPC   GL246070  18.784  24.010   5.929
 3429POPC   C1A46071  18.996  23.651   6.316
 3429POPC   D2A46072  18.977  23.835   6.703
 3429POPC   C3A46073  19.163  23.576   6.994
 3429POPC   C4A46074  19.101  23.509   7.408
 3429POPC   C1B46075  19.136  24.138   6.194
 3429POPC   C2B46076  19.462  24.024   6.509
 3429POPC   C3B46077  19.430  24.022   6.955
 3429POPC   C4B46078  19.034  24.018   7.216
 3430POPC   NC346079  13.423  18.072   5.434
 3430POPC   PO446080  14.047  18.135   5.339
 3430POPC   GL146081  13.867  18.165   5.737
 3430POPC   GL246082  13.985  18.486   5.762
 3430POPC   C1A46083  13.653  18.270   6.138
 3430POPC   D2A46084  13.596  18.048   6.547
 3430POPC   C3A46085  13.500  18.217   6.943
 3430POPC   C4A46086  13.720  18.151   7.308
 3430POPC   C1B46087  14.095  18.525   6.181
 3430POPC   C2B46088  13.902  18.535   6.592
 3430POPC   C3B46089  13.795  18.646   7.029
 3430POPC   C4B46090  13.918  18.640   7.458
 3431POPC   NC346091  28.205  15.068   5.125
 3431POPC   PO446092  28.794  15.174   5.518
 3431POPC   GL146093  28.464  15.282   5.799
 3431POPC   GL246094  28.146  15.234   5.627
 3431POPC   C1A46095  28.339  15.404   6.216
 3431POPC   D2A46096  28.209  15.501   6.639
 3431POPC   C3A46097  28.448  15.452   7.023
 3431POPC   C4A46098  28.750  15.264   7.306
 3431POPC   C1B46099  28.130  14.961   6.008
 3431POPC   C2B46100  28.062  15.032   6.469
 3431POPC   C3B46101  28.287  14.994   6.870
 3431POPC   C4B46102  28.269  15.045   7.328
 3432POPC   NC346103  26.871  34.458   5.362
 3432POPC   PO446104  26.466  34.962   5.382
 3432POPC   GL146105  26.477  34.650   5.687
 3432POPC   GL246106  26.314  34.869   5.907
 3432POPC   C1A46107  26.816  34.641   6.016
 3432POPC   D2A46108  26.987  34.833   6.406
 3432POPC   C3A46109  26.969  34.632   6.829
 3432POPC   C4A46110  27.034  34.752   7.262
 3432POPC   C1B46111  26.356  34.535   6.191
 3432POPC   C2B46112  26.502  34.720   6.551
 3432POPC   C3B46113  26.496  34.869   6.952
 3432POPC   C4B46114  26.555  34.490   7.172
 3433POPC   NC346115  10.348  33.206   5.375
 3433POPC   PO446116  10.500  32.619   5.483
 3433POPC   GL146117  10.428  32.864   5.852
 3433POPC   GL246118  10.289  33.223   5.886
 3433POPC   C1A46119  10.432  32.959   6.294
 3433POPC   D2A46120  10.429  33.283   6.613
 3433POPC   C3A46121  10.549  33.026   6.970
 3433POPC   C4A46122  10.738  32.713   7.259
 3433POPC   C1B46123  10.649  33.426   6.130
 3433POPC   C2B46124  10.830  33.624   6.484
 3433POPC   C3B46125  10.877  33.446   6.892
 3433POPC   C4B46126  10.901  33.208   7.279
 3434POPC   NC346127   3.059  17.907   5.311
 3434POPC   PO446128   2.775  18.461   5.337
 3434POPC   GL146129   2.796  18.175   5.702
 3434POPC   GL246130   3.125  18.132   5.808
 3434POPC   C1A46131   2.728  18.055   6.145
 3434POPC   D2A46132   2.872  18.220   6.548
 3434POPC   C3A46133   2.814  18.061   6.972
 3434POPC   C4A46134   2.580  17.990   7.384
 3434POPC   C1B46135   3.028  18.497   6.099
 3434POPC   C2B46136   3.020  18.731   6.512
 3434POPC   C3B46137   3.068  18.552   6.907
 3434POPC   C4B46138   2.865  18.473   7.285
 3435POPC   NC346139  13.950  12.849   5.569
 3435POPC   PO446140  13.326  13.162   5.430
 3435POPC   GL146141  13.467  12.845   5.777
 3435POPC   GL246142  13.702  12.545   5.888
 3435POPC   C1A46143  13.325  12.743   6.176
 3435POPC   D2A46144  13.559  12.549   6.531
 3435POPC   C3A46145  13.390  12.649   6.932
 3435POPC   C4A46146  13.514  12.801   7.334
 3435POPC   C1B46147  13.846  12.835   6.207
 3435POPC   C2B46148  13.977  12.960   6.596
 3435POPC   C3B46149  13.934  12.843   6.995
 3435POPC   C4B46150  13.953  13.199   7.242
 3436POPC   NC346151  20.018   0.869   5.470
 3436POPC   PO446152  19.504   1.360   5.564
 3436POPC   GL146153  19.801   1.122   5.867
 3436POPC   GL246154  20.129   0.883   5.954
 3436POPC   C1A46155  19.726   1.027   6.290
 3436POPC   D2A46156  19.497   0.880   6.646
 3436POPC   C3A46157  19.601   1.143   7.018
 3436POPC   C4A46158  19.860   1.526   7.133
 3436POPC   C1B46159  20.114   0.687   6.348
 3436POPC   C2B46160  19.984   0.840   6.767
 3436POPC   C3B46161  20.015   0.908   7.225
 3436POPC   C4B46162  20.133   0.913   7.708
 3437POPC   NC346163  37.325  42.262   5.038
 3437POPC   PO446164  37.802  42.284   5.485
 3437POPC   GL146165  37.591  42.405   5.816
 3437POPC   GL246166  37.911  42.410   5.977
 3437POPC   C1A46167  37.482  42.229   6.205
 3437POPC   D2A46168  37.623  42.398   6.576
 3437POPC   C3A46169  37.639  42.185   6.937
 3437POPC   C4A46170  37.483  42.330   7.319
 3437POPC   C1B46171  38.130  42.131   6.233
 3437POPC   C2B46172  37.966  41.983   6.599
 3437POPC   C3B46173  38.082  41.899   7.013
 3437POPC   C4B46174  38.035  42.234   7.291
 3438POPC   NC346175  22.698  28.884   5.207
 3438POPC   PO446176  23.316  29.092   5.417
 3438POPC   GL146177  23.041  29.153   5.774
 3438POPC   GL246178  22.666  29.090   5.713
 3438POPC   C1A46179  23.034  29.231   6.232
 3438POPC   D2A46180  23.094  29.409   6.653
 3438POPC   C3A46181  22.974  29.132   6.982
 3438POPC   C4A46182  22.934  29.181   7.420
 3438POPC   C1B46183  22.529  29.087   6.156
 3438POPC   C2B46184  22.620  29.205   6.580
 3438POPC   C3B46185  22.459  29.088   6.971
 3438POPC   C4B46186  22.560  28.838   7.306
 3439POPC   NC346187  23.639  19.460   5.599
 3439POPC   PO446188  23.388  18.866   5.374
 3439POPC   GL146189  23.521  18.984   5.806
 3439POPC   GL246190  23.215  18.838   5.898
 3439POPC   C1A46191  23.779  19.161   6.192
 3439POPC   D2A46192  24.005  18.929   6.523
 3439POPC   C3A46193  23.869  19.010   6.934
 3439POPC   C4A46194  23.712  18.947   7.375
 3439POPC   C1B46195  23.353  18.908   6.303
 3439POPC   C2B46196  23.460  19.119   6.656
 3439POPC   C3B46197  23.337  18.935   7.039
 3439POPC   C4B46198  23.223  19.028   7.461
 3440POPC   NC346199  28.127  18.414   5.080
 3440POPC   PO446200  28.030  18.074   5.601
 3440POPC   GL146201  28.246  18.195   5.971
 3440POPC   GL246202  28.522  17.963   6.028
 3440POPC   C1A46203  28.343  18.321   6.387
 3440POPC   D2A46204  28.588  18.178   6.732
 3440POPC   C3A46205  28.358  18.292   7.089
 3440POPC   C4A46206  28.171  18.581   7.332
 3440POPC   C1B46207  28.183  17.835   6.322
 3440POPC   C2B46208  28.159  17.903   6.746
 3440POPC   C3B46209  28.415  17.799   7.073
 3440POPC   C4B46210  28.401  17.887   7.498
 3441POPC   NC346211  32.760  18.763   5.580
 3441POPC   PO446212  33.118  19.101   5.140
 3441POPC   GL146213  33.119  19.145   5.608
 3441POPC   GL246214  33.285  18.846   5.777
 3441POPC   C1A46215  32.838  19.289   5.982
 3441POPC   D2A46216  32.967  19.308   6.420
 3441POPC   C3A46217  32.829  19.319   6.834
 3441POPC   C4A46218  33.031  19.325   7.239
 3441POPC   C1B46219  33.034  18.855   6.178
 3441POPC   C2B46220  32.867  18.836   6.603
 3441POPC   C3B46221  32.961  18.865   7.045
 3441POPC   C4B46222  33.103  18.844   7.494
 3442POPC   NC346223  38.054   7.668   5.462
 3442POPC   PO446224  37.572   7.131   5.358
 3442POPC   GL146225  37.661   7.370   5.717
 3442POPC   GL246226  37.373   7.477   5.876
 3442POPC   C1A46227  37.761   7.357   6.183
 3442POPC   D2A46228  37.784   7.558   6.594
 3442POPC   C3A46229  37.707   7.442   7.000
 3442POPC   C4A46230  37.826   7.711   7.323
 3442POPC   C1B46231  37.236   7.723   6.226
 3442POPC   C2B46232  37.373   7.866   6.632
 3442POPC   C3B46233  37.354   7.798   7.078
 3442POPC   C4B46234  37.370   7.485   7.425
 3443POPC   NC346235  18.707  27.590   5.363
 3443POPC   PO446236  19.381  27.656   5.469
 3443POPC   GL146237  19.050  27.637   5.770
 3443POPC   GL246238  18.810  27.899   5.747
 3443POPC   C1A46239  19.055  27.494   6.178
 3443POPC   D2A46240  19.341  27.492   6.526
 3443POPC   C3A46241  19.132  27.478   6.919
 3443POPC   C4A46242  19.018  27.363   7.322
 3443POPC   C1B46243  18.829  27.970   6.172
 3443POPC   C2B46244  18.880  27.795   6.600
 3443POPC   C3B46245  19.086  28.014   6.966
 3443POPC   C4B46246  19.122  28.150   7.404
 3444POPC   NC346247   7.463   6.388   5.611
 3444POPC   PO446248   7.356   6.951   5.234
 3444POPC   GL146249   7.535   6.893   5.715
 3444POPC   GL246250   7.227   6.745   5.896
 3444POPC   C1A46251   7.596   6.831   6.230
 3444POPC   D2A46252   7.563   6.630   6.694
 3444POPC   C3A46253   7.593   6.769   7.177
 3444POPC   C4A46254   7.550   7.022   7.589
 3444POPC   C1B46255   7.115   6.759   6.357
 3444POPC   C2B46256   7.120   6.878   6.810
 3444POPC   C3B46257   7.155   6.551   7.118
 3444POPC   C4B46258   7.077   6.123   7.229
 3445POPC   NC346259  39.526   6.319   5.406
 3445POPC   PO446260  39.007   6.844   5.167
 3445POPC   GL146261  39.225   6.901   5.603
 3445POPC   GL246262  39.256   6.560   5.761
 3445POPC   C1A46263  39.238   6.930   6.094
 3445POPC   D2A46264  39.430   6.677   6.434
 3445POPC   C3A46265  39.309   6.741   6.885
 3445POPC   C4A46266  39.351   6.765   7.338
 3445POPC   C1B46267  39.194   6.313   6.157
 3445POPC   C2B46268  39.052   6.362   6.599
 3445POPC   C3B46269  39.106   6.283   7.035
 3445POPC   C4B46270  39.382   6.280   7.405
 3446POPC   NC346271  30.349   8.509   5.253
 3446POPC   PO446272  30.910   8.776   5.388
 3446POPC   GL146273  30.749   8.581   5.795
 3446POPC   GL246274  30.451   8.776   5.966
 3446POPC   C1A46275  30.876   8.684   6.239
 3446POPC   D2A46276  30.601   8.754   6.603
 3446POPC   C3A46277  30.822   8.801   7.012
 3446POPC   C4A46278  30.633   8.864   7.423
 3446POPC   C1B46279  30.649   9.130   6.253
 3446POPC   C2B46280  30.793   9.225   6.707
 3446POPC   C3B46281  30.675   9.300   7.159
 3446POPC   C4B46282  30.505   9.382   7.588
 3447POPC   NC346283   7.268  11.608   5.585
 3447POPC   PO446284   7.150  12.267   5.599
 3447POPC   GL146285   7.457  12.026   5.841
 3447POPC   GL246286   7.759  11.885   5.699
 3447POPC   C1A46287   7.435  11.911   6.286
 3447POPC   D2A46288   7.010  11.976   6.524
 3447POPC   C3A46289   7.063  12.239   6.917
 3447POPC   C4A46290   7.390  12.200   7.239
 3447POPC   C1B46291   7.862  12.216   6.065
 3447POPC   C2B46292   7.831  12.281   6.507
 3447POPC   C3B46293   7.795  12.137   6.937
 3447POPC   C4B46294   7.887  12.034   7.395
 3448POPC   NC346295  12.426  20.379   5.433
 3448POPC   PO446296  13.197  20.523   5.309
 3448POPC   GL146297  13.136  20.503   5.761
 3448POPC   GL246298  13.073  20.859   5.890
 3448POPC   C1A46299  13.033  20.391   6.198
 3448POPC   D2A46300  13.210  20.622   6.563
 3448POPC   C3A46301  12.960  20.517   6.941
 3448POPC   C4A46302  12.927  20.413   7.373
 3448POPC   C1B46303  12.682  20.735   6.080
 3448POPC   C2B46304  12.660  20.581   6.508
 3448POPC   C3B46305  12.452  20.747   6.860
 3448POPC   C4B46306  12.465  20.627   7.282
 3449POPC   NC346307  31.271   7.783   5.518
 3449POPC   PO446308  31.323   7.170   5.133
 3449POPC   GL146309  31.406   7.249   5.640
 3449POPC   GL246310  31.751   7.153   5.744
 3449POPC   C1A46311  31.519   7.480   6.093
 3449POPC   D2A46312  31.641   7.665   6.553
 3449POPC   C3A46313  31.460   7.476   6.979
 3449POPC   C4A46314  31.556   7.630   7.429
 3449POPC   C1B46315  31.706   7.011   6.188
 3449POPC   C2B46316  31.612   6.885   6.626
 3449POPC   C3B46317  31.724   7.041   7.053
 3449POPC   C4B46318  31.733   7.176   7.512
 3450POPC   NC346319  43.268  37.392   5.431
 3450POPC   PO446320  42.877  38.013   5.524
 3450POPC   GL146321  43.037  37.656   5.775
 3450POPC   GL246322  43.228  37.834   5.906
 3450POPC   C1A46323  43.187  37.409   6.176
 3450POPC   D2A46324  43.221  37.559   6.583
 3450POPC   C3A46325  43.458  37.400   6.914
 3450POPC   C4A46326  43.211  37.601   7.197
 3450POPC   C1B46327  42.800  37.804   6.176
 3450POPC   C2B46328  42.768  37.964   6.564
 3450POPC   C3B46329  42.910  37.924   6.933
 3450POPC   C4B46330  42.735  37.799   7.270
 3451POPC   NC346331  26.616  14.537   5.456
 3451POPC   PO446332  27.137  14.139   5.605
 3451POPC   GL146333  26.877  14.428   5.882
 3451POPC   GL246334  26.516  14.422   5.932
 3451POPC   C1A46335  26.800  14.615   6.296
 3451POPC   D2A46336  26.690  14.454   6.684
 3451POPC   C3A46337  26.908  14.563   7.063
 3451POPC   C4A46338  27.042  14.379   7.455
 3451POPC   C1B46339  26.405  14.142   6.303
 3451POPC   C2B46340  26.419  14.019   6.733
 3451POPC   C3B46341  26.454  14.314   7.118
 3451POPC   C4B46342  26.476  14.394   7.560
 3452POPC   NC346343  15.410   8.146   5.392
 3452POPC   PO446344  14.745   8.167   5.610
 3452POPC   GL146345  15.133   8.164   5.829
 3452POPC   GL246346  15.307   7.826   5.769
 3452POPC   C1A46347  15.330   8.403   6.188
 3452POPC   D2A46348  15.257   8.329   6.620
 3452POPC   C3A46349  15.304   8.383   7.056
 3452POPC   C4A46350  15.020   8.372   7.401
 3452POPC   C1B46351  15.578   7.961   6.065
 3452POPC   C2B46352  15.630   8.019   6.478
 3452POPC   C3B46353  15.599   7.974   6.919
 3452POPC   C4B46354  15.545   7.926   7.369
 3453POPC   NC346355   9.915  19.767   5.149
 3453POPC   PO446356   9.581  19.959   5.741
 3453POPC   GL146357   9.796  19.653   5.933
 3453POPC   GL246358  10.045  19.849   6.075
 3453POPC   C1A46359   9.730  19.488   6.333
 3453POPC   D2A46360   9.469  19.622   6.642
 3453POPC   C3A46361   9.769  19.812   6.890
 3453POPC   C4A46362   9.838  19.587   7.270
 3453POPC   C1B46363   9.715  19.994   6.360
 3453POPC   C2B46364   9.646  20.286   6.623
 3453POPC   C3B46365   9.874  20.297   6.992
 3453POPC   C4B46366   9.725  20.065   7.348
 3454POPC   NC346367  19.753   5.974   5.163
 3454POPC   PO446368  20.231   5.816   5.558
 3454POPC   GL146369  19.781   5.961   5.706
 3454POPC   GL246370  19.592   5.673   5.851
 3454POPC   C1A46371  19.515   6.085   6.112
 3454POPC   D2A46372  19.659   6.015   6.565
 3454POPC   C3A46373  19.680   5.984   7.033
 3454POPC   C4A46374  19.987   5.837   7.361
 3454POPC   C1B46375  19.511   5.589   6.319
 3454POPC   C2B46376  19.583   5.536   6.798
 3454POPC   C3B46377  19.570   5.534   7.278
 3454POPC   C4B46378  19.482   5.490   7.722
 3455POPC   NC346379   1.379  23.396   5.189
 3455POPC   PO446380   1.049  22.846   5.451
 3455POPC   GL146381   1.128  23.057   5.821
 3455POPC   GL246382   1.429  22.894   5.893
 3455POPC   C1A46383   1.157  23.168   6.270
 3455POPC   D2A46384   1.338  22.952   6.639
 3455POPC   C3A46385   1.174  23.110   7.032
 3455POPC   C4A46386   1.332  23.384   7.366
 3455POPC   C1B46387   1.192  22.659   6.200
 3455POPC   C2B46388   1.125  22.442   6.577
 3455POPC   C3B46389   1.195  22.587   6.993
 3455POPC   C4B46390   1.358  22.771   7.391
 3456POPC   NC346391  42.023  11.797   5.455
 3456POPC   PO446392  42.568  12.020   5.475
 3456POPC   GL146393  42.326  11.942   5.878
 3456POPC   GL246394  41.949  12.020   5.914
 3456POPC   C1A46395  42.440  11.849   6.329
 3456POPC   D2A46396  42.698  11.863   6.725
 3456POPC   C3A46397  42.605  12.169   7.088
 3456POPC   C4A46398  42.447  12.052   7.509
 3456POPC   C1B46399  42.142  12.268   6.247
 3456POPC   C2B46400  42.244  12.190   6.700
 3456POPC   C3B46401  42.091  12.236   7.153
 3456POPC   C4B46402  41.964  12.219   7.609
 3457POPC   NC346403  14.366  20.215   5.534
 3457POPC   PO446404  14.243  19.554   5.443
 3457POPC   GL146405  14.403  19.781   5.787
 3457POPC   GL246406  14.722  19.713   5.798
 3457POPC   C1A46407  14.274  19.776   6.216
 3457POPC   D2A46408  14.080  19.924   6.601
 3457POPC   C3A46409  14.299  19.706   6.886
 3457POPC   C4A46410  14.422  19.818   7.293
 3457POPC   C1B46411  14.799  19.880   6.217
 3457POPC   C2B46412  14.592  20.009   6.586
 3457POPC   C3B46413  14.769  19.973   6.976
 3457POPC   C4B46414  14.932  19.663   7.273
 3458POPC   NC346415  43.773  30.415   5.378
 3458POPC   PO446416  43.908  29.753   5.336
 3458POPC   GL146417  43.745  30.005   5.697
 3458POPC   GL246418  43.759  29.718   5.844
 3458POPC   C1A46419  43.717  30.167   6.154
 3458POPC   D2A46420  43.645  30.308   6.594
 3458POPC   C3A46421  43.736  30.077   6.992
 3458POPC   C4A46422  44.052  29.898   7.210
 3458POPC   C1B46423  43.677  29.645   6.220
 3458POPC   C2B46424  43.802  29.797   6.561
 3458POPC   C3B46425  43.925  29.542   6.866
 3458POPC   C4B46426  43.793  29.408   7.241
 3459POPC   NC346427  42.638   9.693   5.250
 3459POPC   PO446428  43.236   9.640   5.520
 3459POPC   GL146429  43.126   9.689   5.948
 3459POPC   GL246430  43.206  10.023   6.037
 3459POPC   C1A46431  42.942   9.423   6.293
 3459POPC   D2A46432  42.772   9.512   6.692
 3459POPC   C3A46433  43.101   9.561   6.986
 3459POPC   C4A46434  43.170   9.266   7.304
 3459POPC   C1B46435  43.199   9.845   6.454
 3459POPC   C2B46436  43.021  10.066   6.796
 3459POPC   C3B46437  43.088  10.095   7.222
 3459POPC   C4B46438  43.152   9.754   7.480
 3460POPC   NC346439   0.761  21.668   5.073
 3460POPC   PO446440   0.327  21.200   5.354
 3460POPC   GL146441   0.360  21.267   5.793
 3460POPC   GL246442   0.602  21.565   5.776
 3460POPC   C1A46443   0.539  21.137   6.181
 3460POPC   D2A46444   0.742  21.080   6.573
 3460POPC   C3A46445   0.485  21.188   6.905
 3460POPC   C4A46446   0.302  21.208   7.302
 3460POPC   C1B46447   0.358  21.622   6.153
 3460POPC   C2B46448   0.520  21.573   6.553
 3460POPC   C3B46449   0.595  21.723   6.969
 3460POPC   C4B46450   0.297  21.708   7.260
 3461POPC   NC346451  34.053  24.437   5.494
 3461POPC   PO446452  33.449  24.676   5.296
 3461POPC   GL146453  33.610  24.553   5.755
 3461POPC   GL246454  33.952  24.648   5.956
 3461POPC   C1A46455  33.613  24.351   6.185
 3461POPC   D2A46456  33.593  24.613   6.554
 3461POPC   C3A46457  33.835  24.536   6.942
 3461POPC   C4A46458  33.643  24.408   7.340
 3461POPC   C1B46459  34.117  24.341   6.329
 3461POPC   C2B46460  34.156  24.082   6.744
 3461POPC   C3B46461  34.097  24.173   7.210
 3461POPC   C4B46462  34.158  24.540   7.423
 3462POPC   NC346463   8.170  10.071   5.409
 3462POPC   PO446464   8.418   9.486   5.278
 3462POPC   GL146465   8.335   9.518   5.742
 3462POPC   GL246466   8.094   9.791   5.822
 3462POPC   C1A46467   8.426   9.725   6.166
 3462POPC   D2A46468   8.390  10.041   6.526
 3462POPC   C3A46469   8.415   9.808   6.928
 3462POPC   C4A46470   8.101   9.555   7.153
 3462POPC   C1B46471   7.958   9.955   6.225
 3462POPC   C2B46472   7.923   9.789   6.664
 3462POPC   C3B46473   7.954  10.035   7.031
 3462POPC   C4B46474   8.254  10.089   7.328
 3463POPC   NC346475  15.128  23.456   5.575
 3463POPC   PO446476  14.985  22.815   5.424
 3463POPC   GL146477  15.312  22.850   5.770
 3463POPC   GL246478  15.113  23.090   5.934
 3463POPC   C1A46479  15.516  22.923   6.208
 3463POPC   D2A46480  15.618  23.278   6.509
 3463POPC   C3A46481  15.511  23.160   6.953
 3463POPC   C4A46482  15.424  22.817   7.254
 3463POPC   C1B46483  14.960  22.911   6.313
 3463POPC   C2B46484  14.937  22.972   6.769
 3463POPC   C3B46485  14.993  23.233   7.132
 3463POPC   C4B46486  14.828  23.134   7.524
 3464POPC   NC346487  44.977   4.340   5.290
 3464POPC   PO446488  44.284   4.371   5.189
 3464POPC   GL146489  44.429   4.491   5.627
 3464POPC   GL246490  44.621   4.237   5.742
 3464POPC   C1A46491  44.362   4.498   6.141
 3464POPC   D2A46492  44.253   4.283   6.570
 3464POPC   C3A46493  44.456   4.193   6.995
 3464POPC   C4A46494  44.555   4.419   7.374
 3464POPC   C1B46495  44.845   4.379   6.127
 3464POPC   C2B46496  44.728   4.487   6.553
 3464POPC   C3B46497  44.915   4.433   6.953
 3464POPC   C4B46498   0.059   4.245   7.346
 3465POPC   NC346499   5.210  29.453   5.403
 3465POPC   PO446500   4.940  30.084   5.517
 3465POPC   GL146501   5.090  29.875   5.860
 3465POPC   GL246502   4.996  29.518   5.860
 3465POPC   C1A46503   5.402  29.965   6.198
 3465POPC   D2A46504   5.389  29.808   6.632
 3465POPC   C3A46505   5.367  30.123   6.973
 3465POPC   C4A46506   5.254  30.169   7.427
 3465POPC   C1B46507   5.079  29.587   6.292
 3465POPC   C2B46508   4.954  29.543   6.722
 3465POPC   C3B46509   5.098  29.691   7.129
 3465POPC   C4B46510   4.907  29.789   7.527
 3466POPC   NC346511  37.685  27.565   5.431
 3466POPC   PO446512  38.095  28.089   5.640
 3466POPC   GL146513  37.781  27.821   5.915
 3466POPC   GL246514  37.771  27.438   5.917
 3466POPC   C1A46515  37.529  27.808   6.320
 3466POPC   D2A46516  37.435  27.933   6.777
 3466POPC   C3A46517  37.608  27.596   7.006
 3466POPC   C4A46518  38.048  27.511   7.162
 3466POPC   C1B46519  37.360  27.379   6.052
 3466POPC   C2B46520  37.291  27.336   6.498
 3466POPC   C3B46521  37.303  27.150   6.916
 3466POPC   C4B46522  37.416  27.258   7.342
 3467POPC   NC346523  17.103   7.164   5.338
 3467POPC   PO446524  16.690   7.720   5.381
 3467POPC   GL146525  16.911   7.653   5.802
 3467POPC   GL246526  16.929   7.300   5.866
 3467POPC   C1A46527  16.855   7.575   6.282
 3467POPC   D2A46528  16.532   7.717   6.571
 3467POPC   C3A46529  16.642   7.631   6.982
 3467POPC   C4A46530  16.878   7.621   7.375
 3467POPC   C1B46531  17.084   7.014   6.215
 3467POPC   C2B46532  17.096   6.959   6.660
 3467POPC   C3B46533  17.005   7.228   7.014
 3467POPC   C4B46534  16.600   7.187   7.220
 3468POPC   NC346535  21.716  14.373   5.184
 3468POPC   PO446536  22.240  14.506   5.294
 3468POPC   GL146537  22.166  14.467   5.753
 3468POPC   GL246538  22.335  14.744   5.891
 3468POPC   C1A46539  22.284  14.348   6.223
 3468POPC   D2A46540  22.332  14.105   6.609
 3468POPC   C3A46541  22.156  14.196   7.001
 3468POPC   C4A46542  22.011  14.071   7.397
 3468POPC   C1B46543  21.977  14.754   6.190
 3468POPC   C2B46544  21.991  14.575   6.611
 3468POPC   C3B46545  22.399  14.600   6.827
 3468POPC   C4B46546  22.551  14.868   7.147
 3469POPC   NC346547   6.143  21.762   5.517
 3469POPC   PO446548   6.537  21.216   5.312
 3469POPC   GL146549   6.685  21.397   5.749
 3469POPC   GL246550   7.005  21.580   5.821
 3469POPC   C1A46551   6.698  21.390   6.211
 3469POPC   D2A46552   6.774  21.210   6.628
 3469POPC   C3A46553   6.643  21.469   6.969
 3469POPC   C4A46554   6.265  21.571   7.104
 3469POPC   C1B46555   7.139  21.700   6.273
 3469POPC   C2B46556   7.071  21.640   6.703
 3469POPC   C3B46557   7.128  21.325   6.999
 3469POPC   C4B46558   7.045  21.274   7.478
 3470POPC   NC346559  32.790  21.270   5.499
 3470POPC   PO446560  33.062  21.871   5.324
 3470POPC   GL146561  33.161  21.531   5.730
 3470POPC   GL246562  33.042  21.208   5.940
 3470POPC   C1A46563  33.288  21.536   6.196
 3470POPC   D2A46564  33.106  21.590   6.599
 3470POPC   C3A46565  33.070  21.342   6.971
 3470POPC   C4A46566  33.167  21.383   7.409
 3470POPC   C1B46567  32.963  21.144   6.397
 3470POPC   C2B46568  32.648  21.346   6.704
 3470POPC   C3B46569  32.444  21.189   7.042
 3470POPC   C4B46570  32.731  21.098   7.311
 3471POPC   NC346571  34.394  24.279   5.040
 3471POPC   PO446572  34.258  24.873   5.395
 3471POPC   GL146573  34.567  24.707   5.740
 3471POPC   GL246574  34.794  24.387   5.769
 3471POPC   C1A46575  34.579  24.588   6.193
 3471POPC   D2A46576  34.728  24.720   6.606
 3471POPC   C3A46577  34.441  24.592   6.917
 3471POPC   C4A46578  34.591  24.271   7.148
 3471POPC   C1B46579  35.008  24.279   6.178
 3471POPC   C2B46580  35.135  24.314   6.626
 3471POPC   C3B46581  35.024  24.520   7.033
 3471POPC   C4B46582  35.004  24.415   7.486
 3472POPC   NC346583   3.123  10.837   5.296
 3472POPC   PO446584   3.504  11.481   5.354
 3472POPC   GL146585   3.522  11.356   5.809
 3472POPC   GL246586   3.801  11.101   5.964
 3472POPC   C1A46587   3.513  11.432   6.238
 3472POPC   D2A46588   3.620  11.222   6.600
 3472POPC   C3A46589   3.481  11.468   6.914
 3472POPC   C4A46590   3.524  11.407   7.321
 3472POPC   C1B46591   4.012  11.470   6.142
 3472POPC   C2B46592   3.999  11.554   6.582
 3472POPC   C3B46593   3.976  11.402   7.010
 3472POPC   C4B46594   4.004  11.633   7.376
 3473POPC   NC346595  43.015   1.998   4.943
 3473POPC   PO446596  42.862   2.152   5.615
 3473POPC   GL146597  43.259   2.043   5.801
 3473POPC   GL246598  43.280   2.338   5.881
 3473POPC   C1A46599  43.432   1.819   6.150
 3473POPC   D2A46600  43.364   1.647   6.590
 3473POPC   C3A46601  43.514   1.850   6.982
 3473POPC   C4A46602  43.214   1.942   7.281
 3473POPC   C1B46603  43.054   2.194   6.229
 3473POPC   C2B46604  43.061   2.400   6.548
 3473POPC   C3B46605  43.193   2.280   6.902
 3473POPC   C4B46606  43.447   2.379   7.206
 3474POPC   NC346607  14.041  11.034   5.563
 3474POPC   PO446608  13.445  11.291   5.264
 3474POPC   GL146609  13.551  11.329   5.711
 3474POPC   GL246610  13.535  10.976   5.794
 3474POPC   C1A46611  13.760  11.314   6.150
 3474POPC   D2A46612  13.945  11.570   6.501
 3474POPC   C3A46613  13.796  11.473   6.936
 3474POPC   C4A46614  13.781  11.427   7.406
 3474POPC   C1B46615  13.531  10.853   6.240
 3474POPC   C2B46616  13.582  11.056   6.633
 3474POPC   C3B46617  13.625  10.998   7.087
 3474POPC   C4B46618  13.362  11.057   7.473
 3475POPC   NC346619  22.433  39.074   5.196
 3475POPC   PO446620  21.923  39.476   5.370
 3475POPC   GL146621  22.241  39.358   5.701
 3475POPC   GL246622  22.297  39.005   5.709
 3475POPC   C1A46623  22.364  39.308   6.138
 3475POPC   D2A46624  22.068  39.244   6.476
 3475POPC   C3A46625  22.176  39.438   6.868
 3475POPC   C4A46626  22.035  39.241   7.216
 3475POPC   C1B46627  22.232  38.776   6.094
 3475POPC   C2B46628  22.352  38.759   6.496
 3475POPC   C3B46629  22.234  38.909   6.865
 3475POPC   C4B46630  22.544  38.948   7.167
 3476POPC   NC346631  40.284  41.209   5.291
 3476POPC   PO446632  40.948  41.349   5.405
 3476POPC   GL146633  40.897  41.577   5.789
 3476POPC   GL246634  40.533  41.559   5.882
 3476POPC   C1A46635  40.938  41.691   6.229
 3476POPC   D2A46636  40.691  41.555   6.608
 3476POPC   C3A46637  40.890  41.585   7.018
 3476POPC   C4A46638  40.979  41.213   7.212
 3476POPC   C1B46639  40.462  41.853   6.225
 3476POPC   C2B46640  40.475  42.004   6.684
 3476POPC   C3B46641  40.403  41.704   7.061
 3476POPC   C4B46642  40.316  41.719   7.510
 3477POPC   NC346643  24.914  19.239   5.471
 3477POPC   PO446644  25.318  18.793   5.700
 3477POPC   GL146645  25.137  18.979   6.050
 3477POPC   GL246646  25.094  19.335   5.944
 3477POPC   C1A46647  25.045  18.802   6.476
 3477POPC   D2A46648  25.338  18.560   6.749
 3477POPC   C3A46649  25.569  18.929   6.867
 3477POPC   C4A46650  25.339  19.170   7.206
 3477POPC   C1B46651  25.337  19.379   6.306
 3477POPC   C2B46652  25.194  19.298   6.737
 3477POPC   C3B46653  24.944  19.462   7.110
 3477POPC   C4B46654  25.054  19.394   7.582
 3478POPC   NC346655  44.149  23.956   5.564
 3478POPC   PO446656  44.751  23.940   5.508
 3478POPC   GL146657  44.558  23.804   5.856
 3478POPC   GL246658  44.865  23.615   5.903
 3478POPC   C1A46659  44.316  23.997   6.210
 3478POPC   D2A46660  44.235  23.969   6.656
 3478POPC   C3A46661  44.541  23.801   6.984
 3478POPC   C4A46662  44.977  23.863   7.089
 3478POPC   C1B46663  44.688  23.641   6.324
 3478POPC   C2B46664  44.893  23.561   6.691
 3478POPC   C3B46665  44.885  23.331   7.080
 3478POPC   C4B46666  44.677  23.501   7.422
 3479POPC   NC346667   3.983  38.598   5.533
 3479POPC   PO446668   3.511  38.246   5.229
 3479POPC   GL146669   3.515  38.347   5.661
 3479POPC   GL246670   3.333  38.652   5.658
 3479POPC   C1A46671   3.497  38.165   6.101
 3479POPC   D2A46672   3.617  38.388   6.487
 3479POPC   C3A46673   3.473  38.293   6.892
 3479POPC   C4A46674   3.779  38.238   7.236
 3479POPC   C1B46675   3.551  38.696   6.058
 3479POPC   C2B46676   3.595  38.910   6.468
 3479POPC   C3B46677   3.682  38.793   6.889
 3479POPC   C4B46678   3.434  38.667   7.223
 3480POPC   NC346679  21.926  11.678   5.193
 3480POPC   PO446680  21.898  12.345   5.268
 3480POPC   GL146681  22.140  12.185   5.687
 3480POPC   GL246682  22.385  11.899   5.657
 3480POPC   C1A46683  22.273  12.222   6.153
 3480POPC   D2A46684  22.388  12.310   6.600
 3480POPC   C3A46685  22.247  12.259   7.014
 3480POPC   C4A46686  22.023  12.510   7.310
 3480POPC   C1B46687  22.259  11.723   6.073
 3480POPC   C2B46688  22.265  11.790   6.539
 3480POPC   C3B46689  22.144  11.747   6.989
 3480POPC   C4B46690  22.387  11.908   7.357
 3481POPC   NC346691   3.192  40.879   5.378
 3481POPC   PO446692   3.829  40.721   5.500
 3481POPC   GL146693   3.581  40.822   5.861
 3481POPC   GL246694   3.262  40.676   5.839
 3481POPC   C1A46695   3.551  40.825   6.318
 3481POPC   D2A46696   3.659  40.600   6.676
 3481POPC   C3A46697   3.850  40.813   7.002
 3481POPC   C4A46698   3.719  41.108   7.326
 3481POPC   C1B46699   3.319  40.385   6.175
 3481POPC   C2B46700   3.101  40.403   6.545
 3481POPC   C3B46701   3.202  40.699   6.862
 3481POPC   C4B46702   3.437  40.684   7.249
 3482POPC   NC346703   9.432   5.069   5.502
 3482POPC   PO446704  10.143   4.985   5.560
 3482POPC   GL146705   9.862   5.112   5.790
 3482POPC   GL246706   9.683   4.793   5.856
 3482POPC   C1A46707   9.903   5.258   6.167
 3482POPC   D2A46708   9.571   5.272   6.432
 3482POPC   C3A46709   9.677   5.314   6.872
 3482POPC   C4A46710   9.654   5.143   7.283
 3482POPC   C1B46711   9.905   4.767   6.245
 3482POPC   C2B46712   9.818   4.875   6.646
 3482POPC   C3B46713   9.489   4.809   6.927
 3482POPC   C4B46714   9.513   4.562   7.303
 3483POPC   NC346715  22.114  24.020   5.354
 3483POPC   PO446716  22.332  23.383   5.164
 3483POPC   GL146717  22.228  23.348   5.631
 3483POPC   GL246718  22.086  23.686   5.762
 3483POPC   C1A46719  22.097  23.256   6.091
 3483POPC   D2A46720  21.942  23.435   6.490
 3483POPC   C3A46721  22.192  23.604   6.832
 3483POPC   C4A46722  22.096  23.502   7.242
 3483POPC   C1B46723  22.077  23.835   6.218
 3483POPC   C2B46724  21.841  23.937   6.642
 3483POPC   C3B46725  21.893  23.950   7.099
 3483POPC   C4B46726  22.302  24.039   7.369
 3484POPC   NC346727   8.075  14.643   5.630
 3484POPC   PO446728   8.471  14.098   5.281
 3484POPC   GL146729   8.228  14.152   5.683
 3484POPC   GL246730   8.515  14.255   5.825
 3484POPC   C1A46731   8.123  14.298   6.157
 3484POPC   D2A46732   8.113  14.207   6.583
 3484POPC   C3A46733   7.941  14.382   6.955
 3484POPC   C4A46734   8.069  14.093   7.292
 3484POPC   C1B46735   8.657  14.344   6.228
 3484POPC   C2B46736   8.582  14.491   6.625
 3484POPC   C3B46737   8.440  14.302   6.980
 3484POPC   C4B46738   8.413  14.464   7.348
 3485POPC   NC346739  30.268  31.728   5.639
 3485POPC   PO446740  29.772  31.532   5.244
 3485POPC   GL146741  29.788  31.429   5.691
 3485POPC   GL246742  29.710  31.728   5.843
 3485POPC   C1A46743  30.011  31.260   6.083
 3485POPC   D2A46744  29.891  31.144   6.529
 3485POPC   C3A46745  29.923  31.433   6.887
 3485POPC   C4A46746  30.108  31.540   7.303
 3485POPC   C1B46747  29.590  31.502   6.217
 3485POPC   C2B46748  29.323  31.500   6.550
 3485POPC   C3B46749  29.410  31.666   6.911
 3485POPC   C4B46750  29.594  31.549   7.275
 3486POPC   NC346751  12.570   3.072   5.082
 3486POPC   PO446752  12.067   2.744   5.427
 3486POPC   GL146753  11.873   2.851   5.823
 3486POPC   GL246754  12.190   2.995   5.901
 3486POPC   C1A46755  11.899   2.791   6.289
 3486POPC   D2A46756  12.024   2.425   6.577
 3486POPC   C3A46757  11.998   2.551   7.025
 3486POPC   C4A46758  11.824   2.938   7.197
 3486POPC   C1B46759  12.397   3.195   6.205
 3486POPC   C2B46760  12.327   3.424   6.575
 3486POPC   C3B46761  12.219   3.299   6.995
 3486POPC   C4B46762  12.272   3.081   7.389
 3487POPC   NC346763  28.657   4.137   5.636
 3487POPC   PO446764  27.993   4.262   5.486
 3487POPC   GL146765  28.263   4.399   5.803
 3487POPC   GL246766  28.543   4.639   5.631
 3487POPC   C1A46767  28.384   4.186   6.221
 3487POPC   D2A46768  28.252   4.315   6.629
 3487POPC   C3A46769  28.299   4.047   6.958
 3487POPC   C4A46770  28.427   4.063   7.376
 3487POPC   C1B46771  28.579   4.674   6.089
 3487POPC   C2B46772  28.699   4.580   6.514
 3487POPC   C3B46773  28.658   4.422   6.925
 3487POPC   C4B46774  28.543   4.687   7.218
 3488POPC   NC346775  13.365  35.768   5.660
 3488POPC   PO446776  13.901  35.480   5.304
 3488POPC   GL146777  13.687  35.379   5.715
 3488POPC   GL246778  13.403  35.248   5.846
 3488POPC   C1A46779  13.736  35.531   6.149
 3488POPC   D2A46780  13.798  35.391   6.573
 3488POPC   C3A46781  13.677  35.641   6.924
 3488POPC   C4A46782  13.682  35.530   7.351
 3488POPC   C1B46783  13.284  35.317   6.278
 3488POPC   C2B46784  13.317  35.346   6.718
 3488POPC   C3B46785  13.564  35.134   7.055
 3488POPC   C4B46786  13.422  35.096   7.487
 3489POPC   NC346787  14.110  41.559   5.353
 3489POPC   PO446788  14.772  41.867   5.388
 3489POPC   GL146789  14.700  41.726   5.808
 3489POPC   GL246790  14.391  41.526   5.795
 3489POPC   C1A46791  14.582  41.658   6.250
 3489POPC   D2A46792  14.554  41.344   6.568
 3489POPC   C3A46793  14.568  41.601   6.896
 3489POPC   C4A46794  14.698  41.661   7.283
 3489POPC   C1B46795  14.281  41.234   6.122
 3489POPC   C2B46796  14.127  41.086   6.521
 3489POPC   C3B46797  14.097  41.323   6.893
 3489POPC   C4B46798  14.179  41.576   7.232
 3490POPC   NC346799  38.894  24.100   5.431
 3490POPC   PO446800  39.539  24.339   5.450
 3490POPC   GL146801  39.328  24.553   5.775
 3490POPC   GL246802  39.061  24.299   5.871
 3490POPC   C1A46803  39.221  24.629   6.226
 3490POPC   D2A46804  39.021  24.359   6.540
 3490POPC   C3A46805  39.013  24.458   6.992
 3490POPC   C4A46806  39.369  24.663   7.222
 3490POPC   C1B46807  39.462  24.176   6.074
 3490POPC   C2B46808  39.550  24.311   6.445
 3490POPC   C3B46809  39.503  24.348   6.843
 3490POPC   C4B46810  39.639  24.190   7.214
 3491POPC   NC346811   3.008  21.629   5.458
 3491POPC   PO446812   2.793  20.999   5.400
 3491POPC   GL146813   2.840  21.158   5.814
 3491POPC   GL246814   2.517  21.086   5.846
 3491POPC   C1A46815   2.755  20.982   6.272
 3491POPC   D2A46816   2.617  20.910   6.707
 3491POPC   C3A46817   2.885  21.140   6.959
 3491POPC   C4A46818   2.995  21.464   7.198
 3491POPC   C1B46819   2.346  21.313   6.121
 3491POPC   C2B46820   2.386  21.330   6.505
 3491POPC   C3B46821   2.397  21.354   6.890
 3491POPC   C4B46822   2.477  21.305   7.251
 3492POPC   NC346823  26.410   5.517   5.420
 3492POPC   PO446824  26.512   6.154   5.322
 3492POPC   GL146825  26.790   5.989   5.724
 3492POPC   GL246826  26.924   5.623   5.816
 3492POPC   C1A46827  27.010   6.022   6.131
 3492POPC   D2A46828  26.901   6.052   6.561
 3492POPC   C3A46829  27.146   6.068   6.902
 3492POPC   C4A46830  26.976   5.950   7.265
 3492POPC   C1B46831  26.981   5.527   6.295
 3492POPC   C2B46832  26.778   5.438   6.723
 3492POPC   C3B46833  26.819   5.430   7.178
 3492POPC   C4B46834  27.189   5.502   7.378
 3493POPC   NC346835  42.736  27.748   5.503
 3493POPC   PO446836  43.346  27.611   5.280
 3493POPC   GL146837  43.241  27.751   5.697
 3493POPC   GL246838  43.035  27.470   5.813
 3493POPC   C1A46839  43.329  27.656   6.155
 3493POPC   D2A46840  43.132  27.624   6.549
 3493POPC   C3A46841  43.152  27.879   6.881
 3493POPC   C4A46842  43.163  27.795   7.306
 3493POPC   C1B46843  42.788  27.564   6.174
 3493POPC   C2B46844  42.704  27.319   6.553
 3493POPC   C3B46845  42.809  27.279   6.988
 3493POPC   C4B46846  42.754  27.494   7.359
 3494POPC   NC346847  10.832  16.141   5.505
 3494POPC   PO446848  10.265  15.808   5.416
 3494POPC   GL146849  10.374  15.943   5.845
 3494POPC   GL246850  10.723  16.059   5.984
 3494POPC   C1A46851  10.403  15.795   6.279
 3494POPC   D2A46852  10.193  15.655   6.615
 3494POPC   C3A46853  10.300  15.833   7.040
 3494POPC   C4A46854  10.127  15.629   7.391
 3494POPC   C1B46855  10.655  16.256   6.382
 3494POPC   C2B46856  10.694  16.072   6.798
 3494POPC   C3B46857  10.761  16.064   7.248
 3494POPC   C4B46858  10.826  16.195   7.705
 3495POPC   NC346859  19.325  39.346   5.583
 3495POPC   PO446860  18.802  39.028   5.671
 3495POPC   GL146861  18.932  39.341   5.992
 3495POPC   GL246862  19.264  39.568   6.044
 3495POPC   C1A46863  18.883  39.264   6.415
 3495POPC   D2A46864  18.869  38.882   6.665
 3495POPC   C3A46865  18.804  39.130   7.010
 3495POPC   C4A46866  18.880  39.565   7.109
 3495POPC   C1B46867  19.359  39.164   6.227
 3495POPC   C2B46868  19.372  39.050   6.653
 3495POPC   C3B46869  19.315  39.224   7.057
 3495POPC   C4B46870  19.166  39.000   7.428
 3496POPC   NC346871  27.278  32.936   5.467
 3496POPC   PO446872  27.919  32.838   5.706
 3496POPC   GL146873  27.549  32.814   5.901
 3496POPC   GL246874  27.520  33.174   5.891
 3496POPC   C1A46875  27.520  32.783   6.331
 3496POPC   D2A46876  27.418  32.748   6.738
 3496POPC   C3A46877  27.715  32.804   7.084
 3496POPC   C4A46878  27.555  32.965   7.470
 3496POPC   C1B46879  27.709  33.263   6.319
 3496POPC   C2B46880  27.690  33.232   6.777
 3496POPC   C3B46881  27.729  33.339   7.199
 3496POPC   C4B46882  27.373  33.433   7.468
 3497POPC   NC346883  26.391  19.523   5.486
 3497POPC   PO446884  26.791  20.120   5.450
 3497POPC   GL146885  26.575  19.908   5.804
 3497POPC   GL246886  26.821  19.702   5.870
 3497POPC   C1A46887  26.532  19.719   6.283
 3497POPC   D2A46888  26.463  19.686   6.774
 3497POPC   C3A46889  26.565  19.901   7.190
 3497POPC   C4A46890  26.549  20.291   7.470
 3497POPC   C1B46891  27.065  19.698   6.270
 3497POPC   C2B46892  26.959  19.685   6.677
 3497POPC   C3B46893  26.921  19.532   7.078
 3497POPC   C4B46894  27.170  19.650   7.427
 3498POPC   NC346895  44.826  25.393   5.409
 3498POPC   PO446896  44.188  25.366   5.644
 3498POPC   GL146897  44.559  25.423   5.889
 3498POPC   GL246898  44.779  25.146   5.895
 3498POPC   C1A46899  44.488  25.260   6.302
 3498POPC   D2A46900  44.586  25.164   6.696
 3498POPC   C3A46901  44.466  25.465   7.001
 3498POPC   C4A46902  44.480  25.562   7.449
 3498POPC   C1B46903  44.946  24.989   6.308
 3498POPC   C2B46904  44.827  24.714   6.671
 3498POPC   C3B46905  44.699  24.856   7.097
 3498POPC   C4B46906  44.764  25.150   7.430
 3499POPC   NC346907  17.739  23.118   5.624
 3499POPC   PO446908  17.218  22.717   5.452
 3499POPC   GL146909  17.397  22.778   5.855
 3499POPC   GL246910  17.717  22.659   5.861
 3499POPC   C1A46911  17.604  22.987   6.244
 3499POPC   D2A46912  17.881  23.028   6.621
 3499POPC   C3A46913  17.674  23.197   6.987
 3499POPC   C4A46914  17.506  22.953   7.347
 3499POPC   C1B46915  17.561  22.479   6.229
 3499POPC   C2B46916  17.474  22.621   6.626
 3499POPC   C3B46917  17.717  22.671   6.972
 3499POPC   C4B46918  17.871  22.603   7.409
 3500POPC   NC346919  40.805  19.311   5.212
 3500POPC   PO446920  40.758  19.902   5.382
 3500POPC   GL146921  40.785  19.974   5.821
 3500POPC   GL246922  41.094  20.154   5.850
 3500POPC   C1A46923  40.509  19.862   6.192
 3500POPC   D2A46924  40.386  19.539   6.517
 3500POPC   C3A46925  40.595  19.697   6.904
 3500POPC   C4A46926  40.554  20.110   7.107
 3500POPC   C1B46927  41.042  19.966   6.274
 3500POPC   C2B46928  40.985  19.977   6.727
 3500POPC   C3B46929  41.093  20.156   7.118
 3500POPC   C4B46930  40.940  20.264   7.508
 3501POPC   NC346931   8.662  21.891   5.491
 3501POPC   PO446932   8.869  22.563   5.305
 3501POPC   GL146933   8.830  22.336   5.728
 3501POPC   GL246934   9.160  22.139   5.837
 3501POPC   C1A46935   8.878  22.344   6.187
 3501POPC   D2A46936   9.094  22.634   6.447
 3501POPC   C3A46937   9.031  22.475   6.855
 3501POPC   C4A46938   8.974  22.209   7.204
 3501POPC   C1B46939   9.158  21.875   6.238
 3501POPC   C2B46940   9.276  21.958   6.678
 3501POPC   C3B46941   9.228  21.765   7.071
 3501POPC   C4B46942   9.257  21.893   7.497
 3502POPC   NC346943  16.755  25.731   5.087
 3502POPC   PO446944  16.675  26.347   5.317
 3502POPC   GL146945  16.859  26.088   5.689
 3502POPC   GL246946  16.541  26.100   5.890
 3502POPC   C1A46947  16.872  25.835   6.125
 3502POPC   D2A46948  16.639  26.033   6.473
 3502POPC   C3A46949  16.824  25.913   6.864
 3502POPC   C4A46950  16.562  25.799   7.221
 3502POPC   C1B46951  16.848  26.359   6.151
 3502POPC   C2B46952  16.817  26.500   6.592
 3502POPC   C3B46953  16.986  26.392   7.007
 3502POPC   C4B46954  16.964  26.225   7.428
 3503POPC   NC346955  27.941   7.073   5.319
 3503POPC   PO446956  27.368   6.664   5.411
 3503POPC   GL146957  27.496   6.829   5.812
 3503POPC   GL246958  27.849   6.857   5.822
 3503POPC   C1A46959  27.316   6.805   6.224
 3503POPC   D2A46960  27.105   6.887   6.591
 3503POPC   C3A46961  27.111   6.613   6.907
 3503POPC   C4A46962  27.349   6.773   7.209
 3503POPC   C1B46963  27.760   6.995   6.272
 3503POPC   C2B46964  27.628   6.862   6.712
 3503POPC   C3B46965  27.842   6.787   7.133
 3503POPC   C4B46966  27.698   6.643   7.574
 3504POPC   NC346967   0.009   9.474   5.495
 3504POPC   PO446968  44.847   8.848   5.718
 3504POPC   GL146969  44.656   9.013   6.036
 3504POPC   GL246970  44.634   9.353   5.885
 3504POPC   C1A46971  44.376   8.906   6.363
 3504POPC   D2A46972  44.248   9.058   6.756
 3504POPC   C3A46973  44.379   8.858   7.149
 3504POPC   C4A46974  44.767   8.703   7.273
 3504POPC   C1B46975  44.851   9.378   6.310
 3504POPC   C2B46976   0.096   9.196   6.628
 3504POPC   C3B46977  44.786   9.066   6.908
 3504POPC   C4B46978  44.679   9.230   7.307
 3505POPC   NC346979  11.472   6.895   5.252
 3505POPC   PO446980  11.651   7.614   5.381
 3505POPC   GL146981  11.397   7.394   5.712
 3505POPC   GL246982  11.590   7.127   5.861
 3505POPC   C1A46983  11.180   7.299   6.123
 3505POPC   D2A46984  11.361   7.223   6.541
 3505POPC   C3A46985  11.166   7.400   6.902
 3505POPC   C4A46986  10.954   7.224   7.228
 3505POPC   C1B46987  11.704   7.423   6.180
 3505POPC   C2B46988  11.841   7.371   6.617
 3505POPC   C3B46989  11.671   7.366   7.027
 3505POPC   C4B46990  11.614   7.626   7.392
 3506POPC   NC346991  29.592  26.992   5.468
 3506POPC   PO446992  30.057  26.501   5.334
 3506POPC   GL146993  29.892  26.747   5.781
 3506POPC   GL246994  29.765  27.106   5.929
 3506POPC   C1A46995  29.670  26.704   6.182
 3506POPC   D2A46996  29.736  26.893   6.596
 3506POPC   C3A46997  30.085  26.695   6.827
 3506POPC   C4A46998  30.098  26.534   7.249
 3506POPC   C1B46999  30.114  27.012   6.189
 3506POPC   C2B47000  30.199  27.158   6.582
 3506POPC   C3B47001  30.001  27.217   6.963
 3506POPC   C4B47002  29.927  27.047   7.354
 3507POPC   NC347003  34.736  37.693   5.466
 3507POPC   PO447004  34.124  37.478   5.505
 3507POPC   GL147005  34.357  37.578   5.845
 3507POPC   GL247006  34.554  37.891   5.889
 3507POPC   C1A47007  34.614  37.328   6.074
 3507POPC   D2A47008  34.663  37.182   6.505
 3507POPC   C3A47009  34.906  37.423   6.770
 3507POPC   C4A47010  34.941  37.718   7.108
 3507POPC   C1B47011  34.448  37.820   6.308
 3507POPC   C2B47012  34.592  37.825   6.715
 3507POPC   C3B47013  34.468  37.929   7.122
 3507POPC   C4B47014  34.356  38.136   7.512
 3508POPC   NC347015   5.272  30.411   5.548
 3508POPC   PO447016   6.028  30.427   5.500
 3508POPC   GL147017   5.933  30.502   5.903
 3508POPC   GL247018   5.644  30.297   5.883
 3508POPC   C1A47019   5.956  30.820   6.248
 3508POPC   D2A47020   5.797  30.827   6.696
 3508POPC   C3A47021   5.864  31.016   7.111
 3508POPC   C4A47022   5.490  30.880   7.396
 3508POPC   C1B47023   5.653  30.404   6.324
 3508POPC   C2B47024   5.784  30.144   6.629
 3508POPC   C3B47025   6.015  30.177   6.952
 3508POPC   C4B47026   5.751  30.498   7.147
 3509POPC   NC347027   9.684   3.741   5.364
 3509POPC   PO447028  10.042   3.175   5.255
 3509POPC   GL147029   9.749   3.330   5.647
 3509POPC   GL247030   9.890   3.603   5.845
 3509POPC   C1A47031   9.605   3.294   6.127
 3509POPC   D2A47032   9.634   3.448   6.572
 3509POPC   C3A47033   9.559   3.560   7.004
 3509POPC   C4A47034   9.835   3.748   7.287
 3509POPC   C1B47035  10.060   3.462   6.287
 3509POPC   C2B47036  10.162   3.438   6.731
 3509POPC   C3B47037  10.239   3.465   7.179
 3509POPC   C4B47038  10.102   3.490   7.628
 3510POPC   NC347039   6.559   2.472   5.371
 3510POPC   PO447040   6.840   1.977   5.240
 3510POPC   GL147041   6.846   2.085   5.704
 3510POPC   GL247042   7.154   1.963   5.840
 3510POPC   C1A47043   6.747   1.932   6.173
 3510POPC   D2A47044   6.837   1.871   6.658
 3510POPC   C3A47045   6.553   1.872   7.066
 3510POPC   C4A47046   6.283   1.854   7.473
 3510POPC   C1B47047   7.155   2.231   6.198
 3510POPC   C2B47048   7.166   2.263   6.656
 3510POPC   C3B47049   7.056   2.106   7.094
 3510POPC   C4B47050   7.143   2.398   7.428
 3511POPC   NC347051  27.958  38.179   5.201
 3511POPC   PO447052  27.349  37.943   5.470
 3511POPC   GL147053  27.585  37.701   5.825
 3511POPC   GL247054  27.897  37.489   5.752
 3511POPC   C1A47055  27.551  37.572   6.253
 3511POPC   D2A47056  27.477  37.693   6.691
 3511POPC   C3A47057  27.450  37.508   7.119
 3511POPC   C4A47058  27.327  37.751   7.492
 3511POPC   C1B47059  27.919  37.241   6.139
 3511POPC   C2B47060  27.880  37.361   6.580
 3511POPC   C3B47061  27.958  37.523   6.977
 3511POPC   C4B47062  27.889  37.656   7.386
 3512POPC   NC347063  13.882   6.151   5.284
 3512POPC   PO447064  13.233   6.009   5.144
 3512POPC   GL147065  13.473   6.013   5.619
 3512POPC   GL247066  13.778   5.974   5.856
 3512POPC   C1A47067  13.307   5.992   6.088
 3512POPC   D2A47068  13.437   6.115   6.503
 3512POPC   C3A47069  13.494   5.870   6.858
 3512POPC   C4A47070  13.550   5.897   7.287
 3512POPC   C1B47071  13.670   5.653   6.210
 3512POPC   C2B47072  13.819   5.504   6.613
 3512POPC   C3B47073  13.929   5.657   7.026
 3512POPC   C4B47074  14.012   5.527   7.431
 3513POPC   NC347075  27.957  16.938   5.330
 3513POPC   PO447076  27.594  16.360   5.278
 3513POPC   GL147077  27.605  16.615   5.746
 3513POPC   GL247078  27.712  16.973   5.822
 3513POPC   C1A47079  27.445  16.698   6.198
 3513POPC   D2A47080  27.377  16.857   6.610
 3513POPC   C3A47081  27.472  16.722   7.023
 3513POPC   C4A47082  27.395  16.557   7.436
 3513POPC   C1B47083  27.884  16.899   6.273
 3513POPC   C2B47084  27.817  17.060   6.717
 3513POPC   C3B47085  27.718  17.160   7.156
 3513POPC   C4B47086  27.781  16.900   7.547
 3514POPC   NC347087  39.780  32.338   5.500
 3514POPC   PO447088  40.359  31.981   5.512
 3514POPC   GL147089  40.264  32.174   5.904
 3514POPC   GL247090  39.940  32.347   5.974
 3514POPC   C1A47091  40.107  32.037   6.315
 3514POPC   D2A47092  40.280  32.150   6.665
 3514POPC   C3A47093  40.143  31.889   6.942
 3514POPC   C4A47094  40.164  32.003   7.349
 3514POPC   C1B47095  39.632  32.250   6.300
 3514POPC   C2B47096  39.719  32.124   6.723
 3514POPC   C3B47097  39.945  32.346   7.030
 3514POPC   C4B47098  39.856  32.383   7.453
 3515POPC   NC347099  28.669  38.192   5.427
 3515POPC   PO447100  28.097  38.599   5.371
 3515POPC   GL147101  28.293  38.402   5.726
 3515POPC   GL247102  28.562  38.570   5.879
 3515POPC   C1A47103  28.262  38.298   6.188
 3515POPC   D2A47104  28.000  38.441   6.529
 3515POPC   C3A47105  28.157  38.655   6.889
 3515POPC   C4A47106  28.228  38.556   7.298
 3515POPC   C1B47107  28.771  38.327   6.200
 3515POPC   C2B47108  28.613  38.095   6.567
 3515POPC   C3B47109  28.507  38.249   6.955
 3515POPC   C4B47110  28.713  38.405   7.319
 3516POPC   NC347111   1.650  16.719   5.405
 3516POPC   PO447112   2.199  17.106   5.410
 3516POPC   GL147113   1.923  16.947   5.773
 3516POPC   GL247114   2.028  16.597   5.825
 3516POPC   C1A47115   1.795  16.806   6.219
 3516POPC   D2A47116   1.591  16.674   6.605
 3516POPC   C3A47117   1.790  16.633   7.022
 3516POPC   C4A47118   1.811  16.852   7.439
 3516POPC   C1B47119   2.167  16.292   6.124
 3516POPC   C2B47120   2.045  16.381   6.544
 3516POPC   C3B47121   2.097  16.220   6.935
 3516POPC   C4B47122   2.092  16.354   7.381
 3517POPC   NC347123  43.137  27.199   5.399
 3517POPC   PO447124  42.930  26.639   5.173
 3517POPC   GL147125  43.024  26.737   5.648
 3517POPC   GL247126  43.229  26.983   5.842
 3517POPC   C1A47127  43.054  26.614   6.115
 3517POPC   D2A47128  43.175  26.568   6.558
 3517POPC   C3A47129  42.994  26.820   6.855
 3517POPC   C4A47130  43.027  26.665   7.254
 3517POPC   C1B47131  43.125  27.151   6.245
 3517POPC   C2B47132  43.308  27.178   6.649
 3517POPC   C3B47133  43.350  27.365   7.054
 3517POPC   C4B47134  43.144  27.148   7.391
 3518POPC   NC347135  39.006  31.741   5.519
 3518POPC   PO447136  39.102  31.086   5.588
 3518POPC   GL147137  39.405  31.073   5.936
 3518POPC   GL247138  39.584  31.382   5.900
 3518POPC   C1A47139  39.255  31.142   6.358
 3518POPC   D2A47140  38.845  31.249   6.585
 3518POPC   C3A47141  38.937  31.358   7.007
 3518POPC   C4A47142  39.356  31.323   7.124
 3518POPC   C1B47143  39.335  31.646   6.206
 3518POPC   C2B47144  39.273  31.579   6.647
 3518POPC   C3B47145  39.232  31.825   7.006
 3518POPC   C4B47146  39.251  31.729   7.416
 3519POPC   NC347147  20.237  42.498   5.303
 3519POPC   PO447148  20.866  42.362   5.303
 3519POPC   GL147149  20.567  42.348   5.666
 3519POPC   GL247150  20.351  42.645   5.758
 3519POPC   C1A47151  20.631  42.422   6.117
 3519POPC   D2A47152  20.620  42.627   6.501
 3519POPC   C3A47153  20.672  42.360   6.850
 3519POPC   C4A47154  20.868  42.472   7.213
 3519POPC   C1B47155  20.099  42.670   6.113
 3519POPC   C2B47156  19.936  42.667   6.514
 3519POPC   C3B47157  20.224  42.665   6.836
 3519POPC   C4B47158  20.170  42.888   7.181
 3520POPC   NC347159  42.984  20.416   5.389
 3520POPC   PO447160  42.923  21.073   5.235
 3520POPC   GL147161  43.147  20.867   5.677
 3520POPC   GL247162  43.229  20.525   5.818
 3520POPC   C1A47163  43.198  20.881   6.179
 3520POPC   D2A47164  43.245  21.102   6.605
 3520POPC   C3A47165  43.048  20.861   6.938
 3520POPC   C4A47166  43.300  20.599   7.211
 3520POPC   C1B47167  42.895  20.447   6.142
 3520POPC   C2B47168  42.878  20.577   6.551
 3520POPC   C3B47169  43.011  20.326   6.895
 3520POPC   C4B47170  42.862  20.270   7.333
 3521POPC   NC347171  17.245  15.196   5.571
 3521POPC   PO447172  16.840  15.164   5.229
 3521POPC   GL147173  16.757  15.187   5.731
 3521POPC   GL247174  16.430  15.137   5.863
 3521POPC   C1A47175  16.808  15.206   6.243
 3521POPC   D2A47176  16.725  14.973   6.671
 3521POPC   C3A47177  16.891  15.109   7.110
 3521POPC   C4A47178  16.974  15.205   7.566
 3521POPC   C1B47179  16.360  14.954   6.268
 3521POPC   C2B47180  16.238  15.178   6.635
 3521POPC   C3B47181  16.364  15.145   7.053
 3521POPC   C4B47182  16.510  14.993   7.437
 3522POPC   NC347183  28.653  25.405   5.519
 3522POPC   PO447184  29.229  25.034   5.432
 3522POPC   GL147185  29.007  25.128   5.814
 3522POPC   GL247186  29.075  25.478   5.807
 3522POPC   C1A47187  29.203  25.218   6.238
 3522POPC   D2A47188  29.473  25.161   6.624
 3522POPC   C3A47189  29.224  25.310   6.973
 3522POPC   C4A47190  29.129  25.426   7.399
 3522POPC   C1B47191  28.819  25.559   6.182
 3522POPC   C2B47192  28.858  25.536   6.644
 3522POPC   C3B47193  28.684  25.462   7.075
 3522POPC   C4B47194  28.666  25.573   7.532
 3523POPC   NC347195  26.325  20.279   5.033
 3523POPC   PO447196  26.002  19.839   5.419
 3523POPC   GL147197  26.002  19.604   5.796
 3523POPC   GL247198  26.066  19.947   5.930
 3523POPC   C1A47199  26.036  19.532   6.219
 3523POPC   D2A47200  26.068  19.890   6.484
 3523POPC   C3A47201  25.981  19.792   6.891
 3523POPC   C4A47202  25.972  19.683   7.294
 3523POPC   C1B47203  26.357  20.193   6.169
 3523POPC   C2B47204  26.283  20.388   6.508
 3523POPC   C3B47205  26.304  20.183   6.859
 3523POPC   C4B47206  26.122  20.164   7.228
 3524POPC   NC347207  12.085  43.637   5.565
 3524POPC   PO447208  12.110  43.016   5.282
 3524POPC   GL147209  12.153  43.078   5.742
 3524POPC   GL247210  12.518  42.996   5.773
 3524POPC   C1A47211  11.937  43.106   6.183
 3524POPC   D2A47212  11.728  42.935   6.583
 3524POPC   C3A47213  11.893  43.106   7.004
 3524POPC   C4A47214  11.965  43.492   7.251
 3524POPC   C1B47215  12.431  42.897   6.212
 3524POPC   C2B47216  12.277  43.002   6.647
 3524POPC   C3B47217  12.332  42.796   7.061
 3524POPC   C4B47218  12.628  42.832   7.401
 3525POPC   NC347219  33.365  33.170   5.112
 3525POPC   PO447220  32.740  33.000   5.436
 3525POPC   GL147221  33.012  32.765   5.706
 3525POPC   GL247222  32.753  32.809   5.914
 3525POPC   C1A47223  33.233  32.827   6.105
 3525POPC   D2A47224  33.115  32.870   6.540
 3525POPC   C3A47225  33.279  32.668   6.893
 3525POPC   C4A47226  33.305  32.899   7.263
 3525POPC   C1B47227  32.787  32.593   6.246
 3525POPC   C2B47228  32.631  32.735   6.631
 3525POPC   C3B47229  32.770  32.698   7.020
 3525POPC   C4B47230  32.815  33.058   7.181
 3526POPC   NC347231  27.985  30.400   5.467
 3526POPC   PO447232  27.481  30.908   5.466
 3526POPC   GL147233  27.746  30.755   5.783
 3526POPC   GL247234  27.531  30.490   5.784
 3526POPC   C1A47235  27.657  30.809   6.225
 3526POPC   D2A47236  27.619  30.619   6.630
 3526POPC   C3A47237  27.487  30.904   6.949
 3526POPC   C4A47238  27.688  31.014   7.304
 3526POPC   C1B47239  27.241  30.451   6.123
 3526POPC   C2B47240  27.304  30.223   6.492
 3526POPC   C3B47241  27.333  30.317   6.929
 3526POPC   C4B47242  27.575  30.487   7.280
 3527POPC   NC347243  34.488  43.629   5.340
 3527POPC   PO447244  34.245  44.306   5.387
 3527POPC   GL147245  34.572  44.122   5.690
 3527POPC   GL247246  34.663  43.751   5.809
 3527POPC   C1A47247  34.549  44.078   6.162
 3527POPC   D2A47248  34.594  43.788   6.511
 3527POPC   C3A47249  34.593  43.954   6.912
 3527POPC   C4A47250  34.417  44.004   7.296
 3527POPC   C1B47251  34.957  43.653   6.211
 3527POPC   C2B47252  35.082  43.775   6.653
 3527POPC   C3B47253  35.019  43.747   7.104
 3527POPC   C4B47254  34.933  43.790   7.536
 3528POPC   NC347255  33.396  42.625   5.187
 3528POPC   PO447256  32.921  42.212   5.387
 3528POPC   GL147257  32.846  42.503   5.689
 3528POPC   GL247258  32.893  42.192   5.911
 3528POPC   C1A47259  32.775  42.637   6.110
 3528POPC   D2A47260  32.806  42.313   6.425
 3528POPC   C3A47261  32.706  42.449   6.834
 3528POPC   C4A47262  32.927  42.566   7.215
 3528POPC   C1B47263  33.229  42.020   6.197
 3528POPC   C2B47264  33.274  42.123   6.598
 3528POPC   C3B47265  33.050  42.106   6.967
 3528POPC   C4B47266  33.336  42.050   7.257
 3529POPC   NC347267  15.208  44.057   5.491
 3529POPC   PO447268  15.482  43.466   5.579
 3529POPC   GL147269  15.212  43.725   5.906
 3529POPC   GL247270  14.891  43.975   5.873
 3529POPC   C1A47271  15.198  43.727   6.367
 3529POPC   D2A47272  15.070  43.561   6.785
 3529POPC   C3A47273  15.348  43.771   7.056
 3529POPC   C4A47274  15.303  44.222   7.170
 3529POPC   C1B47275  14.708  43.816   6.239
 3529POPC   C2B47276  14.760  44.028   6.636
 3529POPC   C3B47277  14.852  43.940   7.072
 3529POPC   C4B47278  14.716  43.527   7.252
 3530POPC   NC347279  40.594  26.945   5.486
 3530POPC   PO447280  41.180  26.596   5.518
 3530POPC   GL147281  40.912  26.762   5.861
 3530POPC   GL247282  40.555  26.618   5.882
 3530POPC   C1A47283  40.794  26.911   6.270
 3530POPC   D2A47284  40.599  26.834   6.683
 3530POPC   C3A47285  40.873  26.927   7.046
 3530POPC   C4A47286  40.948  26.813   7.486
 3530POPC   C1B47287  40.572  26.440   6.304
 3530POPC   C2B47288  40.489  26.312   6.727
 3530POPC   C3B47289  40.503  26.546   7.107
 3530POPC   C4B47290  40.434  26.939   7.326
 3531POPC   NC347291  15.033  15.828   5.496
 3531POPC   PO447292  15.573  16.163   5.686
 3531POPC   GL147293  15.254  16.006   5.990
 3531POPC   GL247294  14.918  15.987   5.956
 3531POPC   C1A47295  15.211  15.997   6.453
 3531POPC   D2A47296  15.366  15.726   6.764
 3531POPC   C3A47297  15.404  15.830   7.215
 3531POPC   C4A47298  15.589  15.852   7.630
 3531POPC   C1B47299  14.726  15.969   6.329
 3531POPC   C2B47300  14.819  15.708   6.689
 3531POPC   C3B47301  14.932  15.873   7.049
 3531POPC   C4B47302  14.732  16.234   7.131
 3532POPC   NC347303  16.670  36.348   5.203
 3532POPC   PO447304  16.280  36.087   5.649
 3532POPC   GL147305  16.669  36.212   5.829
 3532POPC   GL247306  16.930  35.940   5.778
 3532POPC   C1A47307  16.580  36.296   6.276
 3532POPC   D2A47308  16.392  36.334   6.717
 3532POPC   C3A47309  16.695  36.507   7.038
 3532POPC   C4A47310  16.995  36.337   7.352
 3532POPC   C1B47311  16.951  35.934   6.237
 3532POPC   C2B47312  16.678  35.901   6.598
 3532POPC   C3B47313  16.633  35.976   7.024
 3532POPC   C4B47314  16.875  35.834   7.351
 3533POPC   NC347315  22.919  33.679   5.350
 3533POPC   PO447316  23.252  34.243   5.321
 3533POPC   GL147317  23.125  33.992   5.710
 3533POPC   GL247318  22.753  33.940   5.780
 3533POPC   C1A47319  23.079  33.602   6.002
 3533POPC   D2A47320  22.974  33.529   6.442
 3533POPC   C3A47321  23.252  33.666   6.802
 3533POPC   C4A47322  23.287  33.549   7.240
 3533POPC   C1B47323  22.912  34.031   6.222
 3533POPC   C2B47324  22.822  33.949   6.664
 3533POPC   C3B47325  22.760  33.791   7.088
 3533POPC   C4B47326  22.633  34.031   7.459
 3534POPC   NC347327  28.877   9.057   5.626
 3534POPC   PO447328  28.245   9.043   5.434
 3534POPC   GL147329  28.413   8.810   5.810
 3534POPC   GL247330  28.743   8.579   5.807
 3534POPC   C1A47331  28.223   8.856   6.256
 3534POPC   D2A47332  28.133   9.173   6.592
 3534POPC   C3A47333  28.315   9.127   6.990
 3534POPC   C4A47334  28.419   9.381   7.330
 3534POPC   C1B47335  28.721   8.792   6.212
 3534POPC   C2B47336  28.726   9.010   6.605
 3534POPC   C3B47337  28.818   9.192   7.003
 3534POPC   C4B47338  28.698   8.948   7.343
 3535POPC   NC347339  17.965  38.490   5.288
 3535POPC   PO447340  17.315  38.637   5.368
 3535POPC   GL147341  17.573  38.662   5.766
 3535POPC   GL247342  17.742  38.356   5.820
 3535POPC   C1A47343  17.591  38.682   6.244
 3535POPC   D2A47344  17.380  38.735   6.667
 3535POPC   C3A47345  17.564  38.737   7.073
 3535POPC   C4A47346  17.549  38.481   7.443
 3535POPC   C1B47347  17.930  38.146   6.194
 3535POPC   C2B47348  17.831  38.337   6.599
 3535POPC   C3B47349  17.601  38.245   6.974
 3535POPC   C4B47350  17.760  38.034   7.320
 3536POPC   NC347351  41.892   9.958   5.488
 3536POPC   PO447352  41.279   9.698   5.432
 3536POPC   GL147353  41.529   9.664   5.803
 3536POPC   GL247354  41.828   9.762   5.944
 3536POPC   C1A47355  41.423   9.679   6.254
 3536POPC   D2A47356  41.124   9.606   6.581
 3536POPC   C3A47357  41.350   9.623   6.909
 3536POPC   C4A47358  41.346   9.759   7.287
 3536POPC   C1B47359  41.880   9.993   6.320
 3536POPC   C2B47360  41.934  10.191   6.733
 3536POPC   C3B47361  41.707  10.081   7.125
 3536POPC   C4B47362  41.774   9.852   7.526
 3537POPC   NC347363   9.621   0.600   5.067
 3537POPC   PO447364   9.437   1.170   5.392
 3537POPC   GL147365   9.662   1.276   5.754
 3537POPC   GL247366   9.620   0.945   5.852
 3537POPC   C1A47367   9.659   1.478   6.181
 3537POPC   D2A47368   9.895   1.423   6.580
 3537POPC   C3A47369   9.751   1.498   7.035
 3537POPC   C4A47370   9.830   1.341   7.467
 3537POPC   C1B47371   9.721   0.965   6.261
 3537POPC   C2B47372   9.465   1.084   6.578
 3537POPC   C3B47373   9.409   0.917   6.966
 3537POPC   C4B47374   9.437   1.003   7.388
 3538POPC   NC347375  29.336  35.753   5.343
 3538POPC   PO447376  28.826  35.377   5.424
 3538POPC   GL147377  29.013  35.580   5.776
 3538POPC   GL247378  29.387  35.544   5.859
 3538POPC   C1A47379  28.955  35.450   6.189
 3538POPC   D2A47380  29.080  35.144   6.483
 3538POPC   C3A47381  29.072  35.329   6.876
 3538POPC   C4A47382  28.983  35.242   7.292
 3538POPC   C1B47383  29.510  35.201   6.185
 3538POPC   C2B47384  29.548  34.928   6.596
 3538POPC   C3B47385  29.436  34.995   7.035
 3538POPC   C4B47386  29.468  35.400   7.266
 3539POPC   NC347387   2.263  11.347   5.323
 3539POPC   PO447388   1.640  11.153   5.441
 3539POPC   GL147389   1.928  11.347   5.740
 3539POPC   GL247390   2.147  11.051   5.808
 3539POPC   C1A47391   1.818  11.545   6.136
 3539POPC   D2A47392   1.649  11.718   6.516
 3539POPC   C3A47393   1.696  11.567   6.924
 3539POPC   C4A47394   1.765  11.480   7.330
 3539POPC   C1B47395   1.785  11.037   6.135
 3539POPC   C2B47396   1.750  11.203   6.558
 3539POPC   C3B47397   1.861  11.061   6.964
 3539POPC   C4B47398   1.692  10.960   7.362
 3540POPC   NC347399  25.041  39.468   5.317
 3540POPC   PO447400  25.633  39.628   5.569
 3540POPC   GL147401  25.347  39.241   5.734
 3540POPC   GL247402  25.513  38.886   5.849
 3540POPC   C1A47403  25.081  39.047   6.087
 3540POPC   D2A47404  25.023  38.896   6.533
 3540POPC   C3A47405  25.008  39.157   6.934
 3540POPC   C4A47406  25.071  39.618   7.029
 3540POPC   C1B47407  25.645  39.002   6.295
 3540POPC   C2B47408  25.750  38.952   6.780
 3540POPC   C3B47409  25.530  39.105   7.174
 3540POPC   C4B47410  25.540  38.996   7.623
 3541POPC   NC347411  18.535   5.244   5.198
 3541POPC   PO447412  18.111   4.722   5.255
 3541POPC   GL147413  18.217   4.763   5.705
 3541POPC   GL247414  18.480   5.023   5.743
 3541POPC   C1A47415  18.245   4.759   6.151
 3541POPC   D2A47416  18.296   4.970   6.552
 3541POPC   C3A47417  18.192   4.736   6.916
 3541POPC   C4A47418  18.097   4.972   7.290
 3541POPC   C1B47419  18.503   5.294   6.158
 3541POPC   C2B47420  18.594   5.385   6.632
 3541POPC   C3B47421  18.607   5.087   7.002
 3541POPC   C4B47422  18.725   5.156   7.442
 3542POPC   NC347423  10.405  28.531   5.532
 3542POPC   PO447424  10.757  27.995   5.501
 3542POPC   GL147425  10.510  28.127   5.863
 3542POPC   GL247426  10.253  27.865   5.862
 3542POPC   C1A47427  10.472  28.480   6.195
 3542POPC   D2A47428  10.644  28.732   6.546
 3542POPC   C3A47429  10.460  28.637   6.946
 3542POPC   C4A47430  10.373  28.577   7.366
 3542POPC   C1B47431  10.189  28.054   6.268
 3542POPC   C2B47432  10.279  28.243   6.658
 3542POPC   C3B47433  10.126  28.231   7.087
 3542POPC   C4B47434  10.160  28.145   7.560
 3543POPC   NC347435  24.747   9.356   5.648
 3543POPC   PO447436  24.367   9.723   5.179
 3543POPC   GL147437  24.473   9.834   5.644
 3543POPC   GL247438  24.774   9.957   5.731
 3543POPC   C1A47439  24.404   9.794   6.119
 3543POPC   D2A47440  24.590   9.705   6.543
 3543POPC   C3A47441  24.329   9.724   6.925
 3543POPC   C4A47442  24.371   9.671   7.359
 3543POPC   C1B47443  24.859  10.010   6.170
 3543POPC   C2B47444  24.978  10.024   6.609
 3543POPC   C3B47445  24.817   9.878   7.004
 3543POPC   C4B47446  24.866   9.800   7.434
 3544POPC   NC347447  24.683  31.893   5.514
 3544POPC   PO447448  24.249  32.218   5.144
 3544POPC   GL147449  24.400  32.434   5.631
 3544POPC   GL247450  24.718  32.305   5.802
 3544POPC   C1A47451  24.409  32.491   6.143
 3544POPC   D2A47452  24.749  32.539   6.498
 3544POPC   C3A47453  24.644  32.396   6.954
 3544POPC   C4A47454  24.317  32.265   7.231
 3544POPC   C1B47455  24.685  32.011   6.156
 3544POPC   C2B47456  24.651  32.023   6.576
 3544POPC   C3B47457  24.935  31.966   6.880
 3544POPC   C4B47458  24.703  31.898   7.248
 3545POPC   NC347459  29.528   4.614   5.025
 3545POPC   PO447460  28.982   4.397   5.418
 3545POPC   GL147461  29.106   4.267   5.831
 3545POPC   GL247462  29.427   4.120   5.793
 3545POPC   C1A47463  28.918   4.224   6.236
 3545POPC   D2A47464  29.182   4.369   6.570
 3545POPC   C3A47465  29.136   4.301   7.005
 3545POPC   C4A47466  29.380   4.290   7.362
 3545POPC   C1B47467  29.354   3.986   6.246
 3545POPC   C2B47468  29.192   3.862   6.676
 3545POPC   C3B47469  29.322   3.834   7.121
 3545POPC   C4B47470  29.586   3.838   7.507
 3546POPC   NC347471  41.647  33.131   5.569
 3546POPC   PO447472  41.081  33.395   5.376
 3546POPC   GL147473  41.178  33.151   5.792
 3546POPC   GL247474  41.406  32.821   5.874
 3546POPC   C1A47475  41.366  33.166   6.228
 3546POPC   D2A47476  41.779  33.055   6.469
 3546POPC   C3A47477  41.873  33.218   6.898
 3546POPC   C4A47478  41.647  33.053   7.246
 3546POPC   C1B47479  41.369  32.564   6.192
 3546POPC   C2B47480  41.339  32.775   6.560
 3546POPC   C3B47481  41.261  32.989   6.914
 3546POPC   C4B47482  41.118  32.708   7.202
 3547POPC   NC347483  27.507  22.787   5.369
 3547POPC   PO447484  27.780  23.411   5.481
 3547POPC   GL147485  27.683  23.080   5.747
 3547POPC   GL247486  27.913  22.812   5.678
 3547POPC   C1A47487  27.497  22.833   6.098
 3547POPC   D2A47488  27.613  22.936   6.535
 3547POPC   C3A47489  27.474  22.770   6.932
 3547POPC   C4A47490  27.749  22.817   7.260
 3547POPC   C1B47491  27.936  22.581   6.070
 3547POPC   C2B47492  28.026  22.419   6.482
 3547POPC   C3B47493  27.897  22.462   6.879
 3547POPC   C4B47494  28.104  22.388   7.264
 3548POPC   NC347495  28.305  44.881   5.324
 3548POPC   PO447496  28.545   0.504   5.384
 3548POPC   GL147497  28.593   0.539   5.812
 3548POPC   GL247498  28.831   0.810   5.887
 3548POPC   C1A47499  28.394   0.312   6.163
 3548POPC   D2A47500  28.327   0.454   6.572
 3548POPC   C3A47501  28.545   0.210   6.887
 3548POPC   C4A47502  28.531   0.272   7.317
 3548POPC   C1B47503  28.873   0.503   6.250
 3548POPC   C2B47504  28.806   0.590   6.682
 3548POPC   C3B47505  28.537   0.706   7.029
 3548POPC   C4B47506  28.862   0.671   7.256
 3549POPC   NC347507  14.238  23.575   5.348
 3549POPC   PO447508  14.870  23.808   5.391
 3549POPC   GL147509  14.572  23.781   5.732
 3549POPC   GL247510  14.189  23.883   5.748
 3549POPC   C1A47511  14.670  23.643   6.139
 3549POPC   D2A47512  14.784  23.431   6.519
 3549POPC   C3A47513  14.578  23.600   6.880
 3549POPC   C4A47514  14.563  23.550   7.326
 3549POPC   C1B47515  14.188  23.505   6.018
 3549POPC   C2B47516  14.254  23.522   6.461
 3549POPC   C3B47517  14.076  23.649   6.847
 3549POPC   C4B47518  14.050  23.415   7.216
 3550POPC   NC347519  16.490  27.378   5.560
 3550POPC   PO447520  17.038  27.470   5.195
 3550POPC   GL147521  17.070  27.439   5.717
 3550POPC   GL247522  16.850  27.257   5.916
 3550POPC   C1A47523  17.127  27.644   6.167
 3550POPC   D2A47524  17.182  27.836   6.637
 3550POPC   C3A47525  17.002  27.565   6.953
 3550POPC   C4A47526  16.715  27.263   7.138
 3550POPC   C1B47527  16.554  27.382   6.257
 3550POPC   C2B47528  16.601  27.626   6.628
 3550POPC   C3B47529  16.516  27.752   7.059
 3550POPC   C4B47530  16.761  27.739   7.424
 3551POPC   NC347531  35.390  42.393   5.349
 3551POPC   PO447532  34.741  42.618   5.529
 3551POPC   GL147533  35.165  42.627   5.766
 3551POPC   GL247534  35.389  42.305   5.833
 3551POPC   C1A47535  35.444  42.693   6.148
 3551POPC   D2A47536  35.475  42.485   6.543
 3551POPC   C3A47537  35.320  42.582   6.942
 3551POPC   C4A47538  35.390  42.380   7.371
 3551POPC   C1B47539  35.496  42.099   6.213
 3551POPC   C2B47540  35.362  41.967   6.635
 3551POPC   C3B47541  35.409  41.954   7.099
 3551POPC   C4B47542  35.307  41.897   7.565
 3552POPC   NC347543  23.388  42.275   5.589
 3552POPC   PO447544  24.052  42.479   5.372
 3552POPC   GL147545  23.868  42.448   5.769
 3552POPC   GL247546  23.658  42.708   5.857
 3552POPC   C1A47547  23.724  42.275   6.160
 3552POPC   D2A47548  23.438  42.271   6.515
 3552POPC   C3A47549  23.623  42.207   6.918
 3552POPC   C4A47550  23.689  42.292   7.362
 3552POPC   C1B47551  23.965  42.734   6.206
 3552POPC   C2B47552  23.923  42.525   6.613
 3552POPC   C3B47553  23.879  42.663   7.052
 3552POPC   C4B47554  24.141  42.528   7.400
 3553POPC   NC347555  32.640  35.035   5.180
 3553POPC   PO447556  33.018  35.521   5.396
 3553POPC   GL147557  33.245  35.266   5.664
 3553POPC   GL247558  33.104  35.472   5.953
 3553POPC   C1A47559  33.328  35.041   6.059
 3553POPC   D2A47560  33.041  35.069   6.415
 3553POPC   C3A47561  32.947  35.375   6.725
 3553POPC   C4A47562  33.142  35.391   7.128
 3553POPC   C1B47563  32.743  35.493   6.242
 3553POPC   C2B47564  32.436  35.441   6.578
 3553POPC   C3B47565  32.545  35.592   6.992
 3553POPC   C4B47566  32.727  35.561   7.401
 3554POPC   NC347567  28.727   2.167   5.522
 3554POPC   PO447568  28.413   1.664   5.183
 3554POPC   GL147569  28.458   1.720   5.683
 3554POPC   GL247570  28.134   1.796   5.896
 3554POPC   C1A47571  28.637   1.798   6.098
 3554POPC   D2A47572  28.409   1.978   6.451
 3554POPC   C3A47573  28.374   1.842   6.878
 3554POPC   C4A47574  28.647   2.080   7.114
 3554POPC   C1B47575  28.013   2.166   6.172
 3554POPC   C2B47576  27.909   2.060   6.584
 3554POPC   C3B47577  28.014   2.227   6.958
 3554POPC   C4B47578  27.941   2.050   7.324
 3555POPC   NC347579  34.806  31.056   5.423
 3555POPC   PO447580  34.771  31.753   5.512
 3555POPC   GL147581  34.581  31.478   5.822
 3555POPC   GL247582  34.803  31.218   5.904
 3555POPC   C1A47583  34.634  31.521   6.285
 3555POPC   D2A47584  34.830  31.546   6.690
 3555POPC   C3A47585  34.491  31.686   6.962
 3555POPC   C4A47586  34.258  31.583   7.352
 3555POPC   C1B47587  35.102  31.290   6.268
 3555POPC   C2B47588  35.173  31.123   6.685
 3555POPC   C3B47589  34.921  30.947   7.025
 3555POPC   C4B47590  34.672  31.214   7.280
 3556POPC   NC347591  40.216  23.912   5.495
 3556POPC   PO447592  39.753  23.436   5.303
 3556POPC   GL147593  39.996  23.478   5.725
 3556POPC   GL247594  40.378  23.451   5.740
 3556POPC   C1A47595  39.949  23.702   6.169
 3556POPC   D2A47596  39.949  24.005   6.551
 3556POPC   C3A47597  39.992  23.847   6.978
 3556POPC   C4A47598  39.749  23.711   7.327
 3556POPC   C1B47599  40.282  23.301   6.162
 3556POPC   C2B47600  40.193  23.425   6.601
 3556POPC   C3B47601  40.410  23.544   6.985
 3556POPC   C4B47602  40.266  23.683   7.401
 3557POPC   NC347603  10.381   5.383   5.473
 3557POPC   PO447604  10.534   4.749   5.264
 3557POPC   GL147605  10.623   4.919   5.734
 3557POPC   GL247606  10.789   5.244   5.797
 3557POPC   C1A47607  10.424   4.894   6.170
 3557POPC   D2A47608  10.248   5.158   6.511
 3557POPC   C3A47609  10.184   5.090   6.940
 3557POPC   C4A47610  10.419   5.041   7.309
 3557POPC   C1B47611  10.755   5.254   6.244
 3557POPC   C2B47612  10.719   4.996   6.633
 3557POPC   C3B47613  10.807   5.205   7.017
 3557POPC   C4B47614  10.575   5.547   7.225
 3558POPC   NC347615   3.168  27.699   5.349
 3558POPC   PO447616   2.616  28.067   5.521
 3558POPC   GL147617   3.018  27.842   5.826
 3558POPC   GL247618   3.346  27.639   5.824
 3558POPC   C1A47619   3.249  27.805   6.283
 3558POPC   D2A47620   3.669  27.865   6.509
 3558POPC   C3A47621   3.690  27.897   6.969
 3558POPC   C4A47622   3.416  27.781   7.308
 3558POPC   C1B47623   3.640  27.483   6.156
 3558POPC   C2B47624   3.565  27.364   6.603
 3558POPC   C3B47625   3.641  27.380   7.074
 3558POPC   C4B47626   3.825  27.510   7.494
 3559POPC   NC347627  27.434  42.883   5.289
 3559POPC   PO447628  27.977  43.063   5.567
 3559POPC   GL147629  27.629  43.298   5.766
 3559POPC   GL247630  27.336  43.147   5.753
 3559POPC   C1A47631  27.486  43.458   6.176
 3559POPC   D2A47632  27.717  43.282   6.534
 3559POPC   C3A47633  27.719  43.453   6.946
 3559POPC   C4A47634  27.603  43.274   7.313
 3559POPC   C1B47635  27.306  42.934   6.153
 3559POPC   C2B47636  27.152  43.015   6.546
 3559POPC   C3B47637  27.275  43.197   6.913
 3559POPC   C4B47638  27.121  43.093   7.295
 3560POPC   NC347639  15.018  12.619   5.450
 3560POPC   PO447640  15.535  12.976   5.293
 3560POPC   GL147641  15.451  12.793   5.735
 3560POPC   GL247642  15.270  12.506   5.895
 3560POPC   C1A47643  15.274  12.921   6.168
 3560POPC   D2A47644  15.423  12.814   6.574
 3560POPC   C3A47645  15.321  13.003   6.964
 3560POPC   C4A47646  15.207  12.668   7.237
 3560POPC   C1B47647  15.065  12.468   6.333
 3560POPC   C2B47648  14.972  12.407   6.788
 3560POPC   C3B47649  14.733  12.543   7.180
 3560POPC   C4B47650  14.492  12.567   7.605
 3561POPC   NC347651  28.064   4.717   5.375
 3561POPC   PO447652  28.550   5.131   5.379
 3561POPC   GL147653  28.442   5.165   5.824
 3561POPC   GL247654  28.175   4.909   5.855
 3561POPC   C1A47655  28.676   5.159   6.246
 3561POPC   D2A47656  28.654   5.052   6.709
 3561POPC   C3A47657  28.784   5.303   7.057
 3561POPC   C4A47658  28.439   5.168   7.282
 3561POPC   C1B47659  28.113   5.095   6.247
 3561POPC   C2B47660  27.948   5.128   6.664
 3561POPC   C3B47661  28.081   4.893   7.038
 3561POPC   C4B47662  28.115   4.862   7.502
 3562POPC   NC347663  11.684  15.937   5.179
 3562POPC   PO447664  12.121  15.550   5.513
 3562POPC   GL147665  12.202  15.748   5.878
 3562POPC   GL247666  12.161  16.080   5.772
 3562POPC   C1A47667  12.095  15.948   6.275
 3562POPC   D2A47668  12.106  16.105   6.692
 3562POPC   C3A47669  11.993  15.846   7.039
 3562POPC   C4A47670  11.675  16.132   7.142
 3562POPC   C1B47671  12.503  16.178   6.069
 3562POPC   C2B47672  12.568  16.249   6.538
 3562POPC   C3B47673  12.533  16.008   6.965
 3562POPC   C4B47674  12.413  15.872   7.405
 3563POPC   NC347675   1.648  37.576   4.985
 3563POPC   PO447676   2.196  37.859   5.264
 3563POPC   GL147677   2.052  37.879   5.705
 3563POPC   GL247678   2.044  37.546   5.673
 3563POPC   C1A47679   1.823  37.746   6.125
 3563POPC   D2A47680   1.898  37.708   6.590
 3563POPC   C3A47681   1.812  37.558   7.056
 3563POPC   C4A47682   1.915  37.601   7.534
 3563POPC   C1B47683   2.304  37.575   6.049
 3563POPC   C2B47684   2.374  37.530   6.477
 3563POPC   C3B47685   2.309  37.651   6.901
 3563POPC   C4B47686   2.363  37.443   7.310
 3564POPC   NC347687  33.849   7.751   5.345
 3564POPC   PO447688  34.033   7.055   5.595
 3564POPC   GL147689  33.923   7.429   5.746
 3564POPC   GL247690  33.687   7.318   5.969
 3564POPC   C1A47691  34.010   7.628   6.166
 3564POPC   D2A47692  33.793   7.616   6.549
 3564POPC   C3A47693  33.918   7.479   6.941
 3564POPC   C4A47694  33.872   7.193   7.307
 3564POPC   C1B47695  33.409   7.293   6.370
 3564POPC   C2B47696  33.361   7.441   6.779
 3564POPC   C3B47697  33.452   7.449   7.190
 3564POPC   C4B47698  33.561   7.482   7.636
 3565POPC   NC347699  20.055  20.863   5.498
 3565POPC   PO447700  19.807  20.208   5.571
 3565POPC   GL147701  20.034  20.479   5.861
 3565POPC   GL247702  19.786  20.759   5.934
 3565POPC   C1A47703  20.064  20.590   6.318
 3565POPC   D2A47704  19.646  20.512   6.541
 3565POPC   C3A47705  19.648  20.654   6.957
 3565POPC   C4A47706  19.970  20.437   7.188
 3565POPC   C1B47707  19.696  20.965   6.326
 3565POPC   C2B47708  20.028  20.965   6.684
 3565POPC   C3B47709  20.008  20.993   7.140
 3565POPC   C4B47710  19.562  21.147   7.143
 3566POPC   NC347711  38.282  44.342   5.469
 3566POPC   PO447712  38.657  44.784   5.260
 3566POPC   GL147713  38.602  44.669   5.710
 3566POPC   GL247714  38.591  44.994   5.754
 3566POPC   C1A47715  38.471  44.535   6.177
 3566POPC   D2A47716  38.210  44.558   6.593
 3566POPC   C3A47717  38.363  44.467   7.016
 3566POPC   C4A47718  38.725  44.174   7.077
 3566POPC   C1B47719  38.870  44.899   6.106
 3566POPC   C2B47720  38.848  44.922   6.544
 3566POPC   C3B47721  38.486  44.963   6.809
 3566POPC   C4B47722  38.385  44.959   7.245
 3567POPC   NC347723  23.456  22.543   5.365
 3567POPC   PO447724  23.784  23.026   5.121
 3567POPC   GL147725  23.680  22.968   5.605
 3567POPC   GL247726  23.392  22.775   5.805
 3567POPC   C1A47727  23.807  23.030   6.046
 3567POPC   D2A47728  23.965  23.160   6.463
 3567POPC   C3A47729  23.803  22.888   6.801
 3567POPC   C4A47730  23.963  22.618   7.137
 3567POPC   C1B47731  23.293  23.139   6.045
 3567POPC   C2B47732  23.454  23.126   6.452
 3567POPC   C3B47733  23.278  23.072   6.827
 3567POPC   C4B47734  23.399  22.871   7.194
 3568POPC   NC347735  37.742  44.686   5.307
 3568POPC   PO447736  37.902  44.108   5.538
 3568POPC   GL147737  37.811  44.485   5.781
 3568POPC   GL247738  38.094  44.700   5.790
 3568POPC   C1A47739  37.856  44.574   6.226
 3568POPC   D2A47740  37.662  44.559   6.633
 3568POPC   C3A47741  37.781  44.381   7.009
 3568POPC   C4A47742  37.571  44.711   7.219
 3568POPC   C1B47743  38.218  44.983   6.121
 3568POPC   C2B47744  38.038   0.052   6.532
 3568POPC   C3B47745  37.976  44.870   6.945
 3568POPC   C4B47746  37.888   0.099   7.342
 3569POPC   NC347747  34.413  38.539   5.041
 3569POPC   PO447748  34.980  38.824   5.446
 3569POPC   GL147749  34.763  38.480   5.737
 3569POPC   GL247750  34.413  38.370   5.747
 3569POPC   C1A47751  34.743  38.288   6.170
 3569POPC   D2A47752  34.597  38.497   6.564
 3569POPC   C3A47753  34.897  38.551   6.898
 3569POPC   C4A47754  34.941  38.785   7.273
 3569POPC   C1B47755  34.224  38.274   6.170
 3569POPC   C2B47756  34.219  38.177   6.666
 3569POPC   C3B47757  34.360  38.439   7.041
 3569POPC   C4B47758  34.484  38.614   7.466
 3570POPC   NC347759  38.496  35.906   5.397
 3570POPC   PO447760  38.755  36.462   5.644
 3570POPC   GL147761  38.458  36.153   5.854
 3570POPC   GL247762  38.363  35.795   5.875
 3570POPC   C1A47763  38.192  36.181   6.216
 3570POPC   D2A47764  38.321  36.402   6.588
 3570POPC   C3A47765  38.474  36.409   7.016
 3570POPC   C4A47766  38.657  36.319   7.410
 3570POPC   C1B47767  38.570  35.860   6.284
 3570POPC   C2B47768  38.425  35.895   6.714
 3570POPC   C3B47769  38.650  35.897   7.097
 3570POPC   C4B47770  38.832  35.847   7.516
 3571POPC   NC347771  32.482  31.822   5.285
 3571POPC   PO447772  31.992  31.372   5.442
 3571POPC   GL147773  32.242  31.621   5.709
 3571POPC   GL247774  32.453  31.366   5.737
 3571POPC   C1A47775  32.237  31.748   6.151
 3571POPC   D2A47776  32.456  31.804   6.522
 3571POPC   C3A47777  32.262  31.586   6.884
 3571POPC   C4A47778  32.215  31.709   7.312
 3571POPC   C1B47779  32.377  31.253   6.129
 3571POPC   C2B47780  32.255  31.188   6.531
 3571POPC   C3B47781  32.529  31.140   6.860
 3571POPC   C4B47782  32.421  31.249   7.256
 3572POPC   NC347783  32.301  15.568   5.305
 3572POPC   PO447784  31.809  15.167   5.445
 3572POPC   GL147785  32.019  15.434   5.780
 3572POPC   GL247786  32.376  15.416   5.841
 3572POPC   C1A47787  32.030  15.379   6.251
 3572POPC   D2A47788  32.230  15.082   6.559
 3572POPC   C3A47789  32.192  15.177   7.027
 3572POPC   C4A47790  31.980  15.430   7.348
 3572POPC   C1B47791  32.526  15.442   6.293
 3572POPC   C2B47792  32.401  15.539   6.701
 3572POPC   C3B47793  32.571  15.507   7.080
 3572POPC   C4B47794  32.754  15.126   7.233
 3573POPC   NC347795   3.345   7.349   5.002
 3573POPC   PO447796   2.851   7.367   5.405
 3573POPC   GL147797   2.567   7.282   5.747
 3573POPC   GL247798   2.686   7.591   5.861
 3573POPC   C1A47799   2.524   7.287   6.214
 3573POPC   D2A47800   2.678   7.567   6.546
 3573POPC   C3A47801   2.551   7.396   6.961
 3573POPC   C4A47802   2.541   7.104   7.325
 3573POPC   C1B47803   3.017   7.414   6.137
 3573POPC   C2B47804   3.188   7.545   6.517
 3573POPC   C3B47805   3.075   7.586   6.926
 3573POPC   C4B47806   2.940   7.466   7.307
 3574POPC   NC347807   6.873  13.165   5.438
 3574POPC   PO447808   6.357  12.749   5.467
 3574POPC   GL147809   6.583  12.905   5.802
 3574POPC   GL247810   6.324  13.108   5.840
 3574POPC   C1A47811   6.798  12.824   6.210
 3574POPC   D2A47812   6.783  12.707   6.669
 3574POPC   C3A47813   6.949  13.006   7.005
 3574POPC   C4A47814   7.065  13.126   7.460
 3574POPC   C1B47815   6.250  12.883   6.202
 3574POPC   C2B47816   6.208  12.771   6.625
 3574POPC   C3B47817   6.436  12.986   6.955
 3574POPC   C4B47818   6.597  12.869   7.359
 3575POPC   NC347819  40.326   2.202   5.486
 3575POPC   PO447820  39.805   1.781   5.253
 3575POPC   GL147821  39.963   1.976   5.711
 3575POPC   GL247822  40.189   1.676   5.804
 3575POPC   C1A47823  40.026   2.025   6.203
 3575POPC   D2A47824  39.900   2.207   6.631
 3575POPC   C3A47825  40.021   1.991   7.040
 3575POPC   C4A47826  40.408   1.974   7.273
 3575POPC   C1B47827  40.293   1.587   6.259
 3575POPC   C2B47828  40.447   1.657   6.705
 3575POPC   C3B47829  40.309   1.505   7.115
 3575POPC   C4B47830  40.039   1.655   7.469
 3576POPC   NC347831   8.725   5.085   5.394
 3576POPC   PO447832   9.302   5.511   5.435
 3576POPC   GL147833   9.005   5.335   5.839
 3576POPC   GL247834   8.803   5.000   5.880
 3576POPC   C1A47835   8.889   5.221   6.328
 3576POPC   D2A47836   9.150   5.258   6.692
 3576POPC   C3A47837   9.166   5.235   7.112
 3576POPC   C4A47838   8.892   5.133   7.464
 3576POPC   C1B47839   9.201   4.893   6.086
 3576POPC   C2B47840   9.216   4.762   6.487
 3576POPC   C3B47841   8.937   4.798   6.802
 3576POPC   C4B47842   9.060   4.751   7.209
 3577POPC   NC347843  44.387  37.028   5.421
 3577POPC   PO447844  44.809  36.584   5.177
 3577POPC   GL147845  44.897  36.637   5.685
 3577POPC   GL247846  44.688  36.975   5.813
 3577POPC   C1A47847  44.967  36.725   6.121
 3577POPC   D2A47848  44.829  37.064   6.394
 3577POPC   C3A47849  44.788  37.004   6.829
 3577POPC   C4A47850   0.057  36.778   7.091
 3577POPC   C1B47851  44.440  37.241   6.131
 3577POPC   C2B47852  44.193  37.135   6.535
 3577POPC   C3B47853  44.347  37.219   6.987
 3577POPC   C4B47854  44.635  37.031   7.332
 3578POPC   NC347855   4.915  37.071   5.479
 3578POPC   PO447856   5.377  36.527   5.419
 3578POPC   GL147857   5.216  36.756   5.805
 3578POPC   GL247858   4.880  36.908   5.953
 3578POPC   C1A47859   5.251  36.707   6.279
 3578POPC   D2A47860   5.098  36.863   6.693
 3578POPC   C3A47861   5.373  36.795   7.065
 3578POPC   C4A47862   5.419  36.900   7.521
 3578POPC   C1B47863   4.629  37.239   6.212
 3578POPC   C2B47864   4.471  37.135   6.619
 3578POPC   C3B47865   4.703  37.131   6.986
 3578POPC   C4B47866   4.880  36.734   7.126
 3579POPC   NC347867  13.182  15.695   5.276
 3579POPC   PO447868  13.786  15.760   5.436
 3579POPC   GL147869  13.508  15.828   5.781
 3579POPC   GL247870  13.306  15.542   5.834
 3579POPC   C1A47871  13.631  16.068   6.166
 3579POPC   D2A47872  13.854  16.012   6.554
 3579POPC   C3A47873  13.571  16.021   6.929
 3579POPC   C4A47874  13.352  16.187   7.321
 3579POPC   C1B47875  13.671  15.527   6.154
 3579POPC   C2B47876  13.857  15.476   6.589
 3579POPC   C3B47877  13.867  15.616   7.032
 3579POPC   C4B47878  13.469  15.665   7.310
 3580POPC   NC347879   2.005  14.431   5.240
 3580POPC   PO447880   1.832  15.026   5.312
 3580POPC   GL147881   1.927  14.699   5.681
 3580POPC   GL247882   2.043  14.324   5.729
 3580POPC   C1A47883   1.913  14.640   6.150
 3580POPC   D2A47884   2.094  14.825   6.552
 3580POPC   C3A47885   1.944  14.608   6.944
 3580POPC   C4A47886   1.686  14.245   7.136
 3580POPC   C1B47887   2.155  14.099   6.087
 3580POPC   C2B47888   2.276  14.218   6.494
 3580POPC   C3B47889   2.177  14.128   6.896
 3580POPC   C4B47890   2.287  14.155   7.295
 3581POPC   NC347891  33.826  44.078   5.439
 3581POPC   PO447892  33.243  44.351   5.386
 3581POPC   GL147893  33.566  44.393   5.753
 3581POPC   GL247894  33.943  44.421   5.803
 3581POPC   C1A47895  33.578  44.476   6.208
 3581POPC   D2A47896  33.800  44.419   6.597
 3581POPC   C3A47897  33.683  44.581   7.005
 3581POPC   C4A47898  33.938  44.856   7.245
 3581POPC   C1B47899  34.065  44.257   6.202
 3581POPC   C2B47900  34.216  44.118   6.606
 3581POPC   C3B47901  34.170  44.342   6.997
 3581POPC   C4B47902  33.886  44.228   7.325
 3582POPC   NC347903  30.441   1.497   5.335
 3582POPC   PO447904  30.208   0.900   5.276
 3582POPC   GL147905  30.439   1.007   5.664
 3582POPC   GL247906  30.790   1.131   5.712
 3582POPC   C1A47907  30.483   0.978   6.124
 3582POPC   D2A47908  30.658   0.887   6.537
 3582POPC   C3A47909  30.643   1.191   6.870
 3582POPC   C4A47910  30.575   1.615   7.056
 3582POPC   C1B47911  31.007   1.014   6.152
 3582POPC   C2B47912  31.133   1.075   6.635
 3582POPC   C3B47913  31.108   1.358   7.038
 3582POPC   C4B47914  30.959   1.560   7.427
 3583POPC   NC347915  28.791  10.389   5.594
 3583POPC   PO447916  29.299  10.341   5.280
 3583POPC   GL147917  29.254  10.172   5.724
 3583POPC   GL247918  28.957  10.025   5.915
 3583POPC   C1A47919  29.369  10.104   6.195
 3583POPC   D2A47920  29.319  10.270   6.643
 3583POPC   C3A47921  28.990  10.150   6.949
 3583POPC   C4A47922  28.832  10.219   7.395
 3583POPC   C1B47923  28.912  10.315   6.280
 3583POPC   C2B47924  28.895  10.584   6.652
 3583POPC   C3B47925  28.904  10.652   7.109
 3583POPC   C4B47926  28.757  10.711   7.558
 3584POPC   NC347927  24.677  35.023   5.475
 3584POPC   PO447928  24.184  35.426   5.388
 3584POPC   GL147929  24.441  35.403   5.772
 3584POPC   GL247930  24.752  35.228   5.932
 3584POPC   C1A47931  24.362  35.385   6.208
 3584POPC   D2A47932  24.630  35.354   6.555
 3584POPC   C3A47933  24.394  35.311   6.945
 3584POPC   C4A47934  24.320  35.169   7.375
 3584POPC   C1B47935  24.759  35.673   6.100
 3584POPC   C2B47936  24.739  35.856   6.516
 3584POPC   C3B47937  24.705  35.756   6.934
 3584POPC   C4B47938  24.698  35.506   7.309
 3585POPC   NC347939  16.258  26.245   5.496
 3585POPC   PO447940  15.844  25.798   5.232
 3585POPC   GL147941  15.865  25.958   5.695
 3585POPC   GL247942  15.818  26.309   5.798
 3585POPC   C1A47943  16.062  25.980   6.153
 3585POPC   D2A47944  16.194  25.820   6.591
 3585POPC   C3A47945  16.007  25.903   7.012
 3585POPC   C4A47946  15.683  25.907   7.355
 3585POPC   C1B47947  15.843  26.448   6.241
 3585POPC   C2B47948  15.857  26.239   6.632
 3585POPC   C3B47949  15.676  26.303   7.034
 3585POPC   C4B47950  15.916  26.331   7.446
 3586POPC   NC347951  17.969  19.271   5.441
 3586POPC   PO447952  18.620  19.043   5.392
 3586POPC   GL147953  18.358  19.017   5.713
 3586POPC   GL247954  18.390  19.323   5.825
 3586POPC   C1A47955  18.301  18.931   6.172
 3586POPC   D2A47956  18.171  18.835   6.603
 3586POPC   C3A47957  17.904  19.075   6.845
 3586POPC   C4A47958  18.011  19.061   7.249
 3586POPC   C1B47959  18.277  19.438   6.220
 3586POPC   C2B47960  18.378  19.289   6.630
 3586POPC   C3B47961  18.271  19.445   7.033
 3586POPC   C4B47962  18.305  19.640   7.438
 3587POPC   NC347963  44.673  32.190   5.439
 3587POPC   PO447964  44.211  31.746   5.533
 3587POPC   GL147965  44.336  32.074   5.867
 3587POPC   GL247966  44.678  32.256   5.950
 3587POPC   C1A47967  44.398  32.097   6.333
 3587POPC   D2A47968  44.465  31.883   6.731
 3587POPC   C3A47969  44.595  32.125   7.088
 3587POPC   C4A47970  44.457  32.549   7.231
 3587POPC   C1B47971  44.902  32.124   6.379
 3587POPC   C2B47972  44.984  31.914   6.803
 3587POPC   C3B47973   0.097  32.106   7.208
 3587POPC   C4B47974   0.237  32.409   7.543
 3588POPC   NC347975  14.341  35.344   5.312
 3588POPC   PO447976  14.740  35.800   5.488
 3588POPC   GL147977  14.511  35.497   5.773
 3588POPC   GL247978  14.172  35.459   5.784
 3588POPC   C1A47979  14.423  35.181   6.146
 3588POPC   D2A47980  14.649  35.113   6.564
 3588POPC   C3A47981  14.418  35.087   6.952
 3588POPC   C4A47982  14.070  35.335   7.056
 3588POPC   C1B47983  14.229  35.652   6.181
 3588POPC   C2B47984  14.297  35.515   6.576
 3588POPC   C3B47985  14.593  35.554   6.855
 3588POPC   C4B47986  14.535  35.505   7.252
 3589POPC   NC347987  39.541  19.897   5.384
 3589POPC   PO447988  38.911  19.481   5.393
 3589POPC   GL147989  39.204  19.566   5.707
 3589POPC   GL247990  39.106  19.914   5.733
 3589POPC   C1A47991  39.134  19.501   6.147
 3589POPC   D2A47992  39.013  19.683   6.529
 3589POPC   C3A47993  39.181  19.544   6.888
 3589POPC   C4A47994  39.403  19.881   7.028
 3589POPC   C1B47995  38.854  19.980   6.141
 3589POPC   C2B47996  38.704  20.100   6.567
 3589POPC   C3B47997  38.871  19.975   6.959
 3589POPC   C4B47998  38.926  20.277   7.253
 3590POPC   NC347999  33.335  33.869   5.162
 3590POPC   PO448000  32.693  33.902   5.559
 3590POPC   GL148001  32.973  33.652   5.874
 3590POPC   GL248002  32.990  33.282   5.827
 3590POPC   C1A48003  33.128  33.675   6.350
 3590POPC   D2A48004  33.214  33.821   6.795
 3590POPC   C3A48005  32.871  33.849   7.101
 3590POPC   C4A48006  32.818  33.698   7.521
 3590POPC   C1B48007  32.863  33.232   6.272
 3590POPC   C2B48008  32.953  33.348   6.739
 3590POPC   C3B48009  33.160  33.422   7.180
 3590POPC   C4B48010  33.011  33.224   7.601
 3591POPC   NC348011  22.499  10.350   5.615
 3591POPC   PO448012  21.853   9.852   5.336
 3591POPC   GL148013  21.828   9.856   5.752
 3591POPC   GL248014  22.189   9.974   5.831
 3591POPC   C1A48015  21.675   9.693   6.142
 3591POPC   D2A48016  21.824   9.862   6.534
 3591POPC   C3A48017  22.121   9.679   6.809
 3591POPC   C4A48018  22.034   9.677   7.229
 3591POPC   C1B48019  22.532   9.976   6.213
 3591POPC   C2B48020  22.658   9.844   6.653
 3591POPC   C3B48021  22.495  10.004   7.043
 3591POPC   C4B48022  22.371  10.280   7.334
 3592POPC   NC348023  31.588  43.641   5.563
 3592POPC   PO448024  31.398  42.907   5.468
 3592POPC   GL148025  31.434  43.012   5.855
 3592POPC   GL248026  31.290  43.310   5.798
 3592POPC   C1A48027  31.412  42.804   6.238
 3592POPC   D2A48028  31.414  43.062   6.567
 3592POPC   C3A48029  31.551  42.915   6.951
 3592POPC   C4A48030  31.301  42.854   7.289
 3592POPC   C1B48031  31.489  43.433   6.184
 3592POPC   C2B48032  31.713  43.452   6.591
 3592POPC   C3B48033  31.561  43.483   6.978
 3592POPC   C4B48034  31.451  43.320   7.329
 3593POPC   NC348035  17.689  35.965   5.423
 3593POPC   PO448036  17.059  36.326   5.451
 3593POPC   GL148037  17.321  36.281   5.807
 3593POPC   GL248038  17.460  35.932   5.897
 3593POPC   C1A48039  17.163  36.409   6.209
 3593POPC   D2A48040  16.962  36.336   6.617
 3593POPC   C3A48041  17.137  35.973   6.834
 3593POPC   C4A48042  17.380  35.984   7.195
 3593POPC   C1B48043  17.443  35.834   6.369
 3593POPC   C2B48044  17.683  35.942   6.744
 3593POPC   C3B48045  17.893  36.042   7.127
 3593POPC   C4B48046  17.734  36.033   7.558
 3594POPC   NC348047  24.072  39.315   5.125
 3594POPC   PO448048  23.733  39.653   5.601
 3594POPC   GL148049  23.585  39.300   5.813
 3594POPC   GL248050  23.915  39.196   5.764
 3594POPC   C1A48051  23.392  39.210   6.197
 3594POPC   D2A48052  23.610  39.279   6.562
 3594POPC   C3A48053  23.525  39.052   6.927
 3594POPC   C4A48054  23.574  39.204   7.332
 3594POPC   C1B48055  23.859  39.003   6.160
 3594POPC   C2B48056  23.967  38.898   6.545
 3594POPC   C3B48057  24.110  38.839   6.915
 3594POPC   C4B48058  23.981  38.884   7.320
 3595POPC   NC348059  43.184  39.689   5.486
 3595POPC   PO448060  42.786  40.238   5.437
 3595POPC   GL148061  42.987  40.084   5.784
 3595POPC   GL248062  42.802  39.790   5.834
 3595POPC   C1A48063  43.177  40.234   6.161
 3595POPC   D2A48064  43.398  40.100   6.528
 3595POPC   C3A48065  43.339  40.280   6.905
 3595POPC   C4A48066  43.108  40.264   7.268
 3595POPC   C1B48067  42.723  39.581   6.241
 3595POPC   C2B48068  42.753  39.675   6.662
 3595POPC   C3B48069  43.021  39.859   6.940
 3595POPC   C4B48070  43.350  39.821   7.205
 3596POPC   NC348071  23.333  34.630   5.063
 3596POPC   PO448072  22.636  34.779   5.425
 3596POPC   GL148073  22.566  34.531   5.829
 3596POPC   GL248074  22.881  34.423   5.901
 3596POPC   C1A48075  22.569  34.419   6.298
 3596POPC   D2A48076  22.920  34.445   6.613
 3596POPC   C3A48077  22.738  34.309   7.019
 3596POPC   C4A48078  22.576  34.534   7.385
 3596POPC   C1B48079  23.252  34.431   6.135
 3596POPC   C2B48080  23.416  34.624   6.505
 3596POPC   C3B48081  23.260  34.747   6.915
 3596POPC   C4B48082  23.114  34.523   7.280
 3597POPC   NC348083  36.241  26.987   5.376
 3597POPC   PO448084  36.130  26.364   5.375
 3597POPC   GL148085  36.230  26.612   5.746
 3597POPC   GL248086  35.952  26.884   5.777
 3597POPC   C1A48087  36.372  26.690   6.185
 3597POPC   D2A48088  36.384  26.969   6.594
 3597POPC   C3A48089  36.243  26.802   7.017
 3597POPC   C4A48090  36.427  26.485   7.296
 3597POPC   C1B48091  35.947  26.974   6.219
 3597POPC   C2B48092  35.960  26.693   6.573
 3597POPC   C3B48093  35.741  26.705   6.953
 3597POPC   C4B48094  35.830  27.056   7.223
 3598POPC   NC348095   0.155  19.453   5.541
 3598POPC   PO448096   0.480  18.869   5.303
 3598POPC   GL148097   0.374  18.819   5.755
 3598POPC   GL248098   0.465  19.136   5.890
 3598POPC   C1A48099   0.256  18.723   6.217
 3598POPC   D2A48100   0.311  18.934   6.637
 3598POPC   C3A48101   0.358  18.768   7.062
 3598POPC   C4A48102   0.370  18.979   7.453
 3598POPC   C1B48103   0.473  19.310   6.314
 3598POPC   C2B48104   0.545  19.441   6.756
 3598POPC   C3B48105   0.677  19.286   7.158
 3598POPC   C4B48106   0.684  19.325   7.634
 3599POPC   NC348107  29.412   5.707   5.628
 3599POPC   PO448108  28.897   6.166   5.568
 3599POPC   GL148109  28.994   5.863   5.871
 3599POPC   GL248110  28.764   5.584   5.929
 3599POPC   C1A48111  29.228   5.754   6.255
 3599POPC   D2A48112  29.511   5.594   6.573
 3599POPC   C3A48113  29.269   5.746   6.936
 3599POPC   C4A48114  29.300   6.115   7.195
 3599POPC   C1B48115  28.713   5.913   6.263
 3599POPC   C2B48116  28.925   6.018   6.634
 3599POPC   C3B48117  28.810   5.968   7.048
 3599POPC   C4B48118  28.979   5.730   7.372
 3600POPC   NC348119  15.410   4.599   5.610
 3600POPC   PO448120  14.977   4.109   5.387
 3600POPC   GL148121  15.082   4.181   5.823
 3600POPC   GL248122  15.423   4.118   5.938
 3600POPC   C1A48123  15.008   4.103   6.260
 3600POPC   D2A48124  15.031   4.299   6.683
 3600POPC   C3A48125  15.126   4.212   7.124
 3600POPC   C4A48126  14.885   3.986   7.438
 3600POPC   C1B48127  15.383   4.452   6.271
 3600POPC   C2B48128  15.487   4.548   6.707
 3600POPC   C3B48129  15.548   4.547   7.142
 3600POPC   C4B48130  15.318   4.510   7.518
 3601POPC   NC348131   5.175  36.129   5.311
 3601POPC   PO448132   4.617  35.738   5.664
 3601POPC   GL148133   4.932  35.950   5.913
 3601POPC   GL248134   5.282  36.010   5.847
 3601POPC   C1A48135   4.945  36.393   6.022
 3601POPC   D2A48136   4.817  36.491   6.470
 3601POPC   C3A48137   5.069  36.355   6.831
 3601POPC   C4A48138   4.980  36.211   7.261
 3601POPC   C1B48139   5.178  36.094   6.347
 3601POPC   C2B48140   4.913  35.876   6.676
 3601POPC   C3B48141   4.939  35.652   7.092
 3601POPC   C4B48142   4.935  35.774   7.554
 3602POPC   NC348143  40.547   7.918   5.401
 3602POPC   PO448144  40.867   8.479   5.567
 3602POPC   GL148145  40.815   8.157   5.835
 3602POPC   GL248146  40.449   8.192   5.836
 3602POPC   C1A48147  41.011   8.251   6.246
 3602POPC   D2A48148  40.835   8.394   6.639
 3602POPC   C3A48149  41.182   8.441   6.918
 3602POPC   C4A48150  41.291   8.504   7.345
 3602POPC   C1B48151  40.555   8.053   6.259
 3602POPC   C2B48152  40.710   7.879   6.631
 3602POPC   C3B48153  40.827   8.029   7.011
 3602POPC   C4B48154  40.641   7.816   7.299
 3603POPC   NC348155  42.025  17.705   5.139
 3603POPC   PO448156  42.671  17.557   5.352
 3603POPC   GL148157  42.533  17.488   5.783
 3603POPC   GL248158  42.337  17.770   5.861
 3603POPC   C1A48159  42.372  17.439   6.230
 3603POPC   D2A48160  42.256  17.624   6.631
 3603POPC   C3A48161  42.065  17.320   6.945
 3603POPC   C4A48162  42.239  17.110   7.339
 3603POPC   C1B48163  42.641  17.880   6.255
 3603POPC   C2B48164  42.726  17.886   6.706
 3603POPC   C3B48165  42.541  17.675   7.059
 3603POPC   C4B48166  42.101  17.756   7.222
 3604POPC   NC348167  18.972  32.972   5.289
 3604POPC   PO448168  19.583  32.994   5.269
 3604POPC   GL148169  19.314  33.048   5.677
 3604POPC   GL248170  19.249  33.394   5.811
 3604POPC   C1A48171  19.232  32.842   6.097
 3604POPC   D2A48172  19.154  32.967   6.514
 3604POPC   C3A48173  19.072  32.799   6.911
 3604POPC   C4A48174  19.353  33.011   7.170
 3604POPC   C1B48175  19.042  33.386   6.190
 3604POPC   C2B48176  19.068  33.453   6.629
 3604POPC   C3B48177  18.950  33.303   7.022
 3604POPC   C4B48178  18.754  33.475   7.395
 3605POPC   NC348179  15.388  16.454   5.394
 3605POPC   PO448180  15.055  17.008   5.552
 3605POPC   GL148181  14.956  16.807   5.906
 3605POPC   GL248182  15.045  16.467   5.799
 3605POPC   C1A48183  14.999  16.936   6.344
 3605POPC   D2A48184  14.963  16.887   6.795
 3605POPC   C3A48185  15.225  17.014   7.114
 3605POPC   C4A48186  15.330  16.736   7.464
 3605POPC   C1B48187  14.989  16.416   6.235
 3605POPC   C2B48188  14.872  16.390   6.664
 3605POPC   C3B48189  15.175  16.475   7.028
 3605POPC   C4B48190  15.581  16.327   7.221
 3606POPC   NC348191  26.762  31.968   5.113
 3606POPC   PO448192  26.814  32.567   5.192
 3606POPC   GL148193  27.070  32.491   5.626
 3606POPC   GL248194  26.987  32.184   5.758
 3606POPC   C1A48195  27.104  32.533   6.135
 3606POPC   D2A48196  26.878  32.443   6.581
 3606POPC   C3A48197  27.018  32.325   7.027
 3606POPC   C4A48198  26.868  32.430   7.473
 3606POPC   C1B48199  26.796  32.119   6.183
 3606POPC   C2B48200  26.901  31.894   6.586
 3606POPC   C3B48201  26.865  31.823   7.052
 3606POPC   C4B48202  26.902  31.912   7.510
 3607POPC   NC348203  32.913  23.425   5.284
 3607POPC   PO448204  32.704  22.769   5.377
 3607POPC   GL148205  33.045  22.792   5.691
 3607POPC   GL248206  33.096  23.145   5.733
 3607POPC   C1A48207  33.139  22.796   6.158
 3607POPC   D2A48208  32.914  22.893   6.561
 3607POPC   C3A48209  33.076  22.811   6.970
 3607POPC   C4A48210  32.917  22.650   7.334
 3607POPC   C1B48211  32.892  23.253   6.158
 3607POPC   C2B48212  32.660  23.332   6.582
 3607POPC   C3B48213  32.688  23.166   7.018
 3607POPC   C4B48214  32.990  23.152   7.370
 3608POPC   NC348215  37.962  25.336   5.155
 3608POPC   PO448216  37.361  25.351   5.416
 3608POPC   GL148217  37.668  25.319   5.679
 3608POPC   GL248218  37.872  25.038   5.580
 3608POPC   C1A48219  37.611  25.389   6.128
 3608POPC   D2A48220  37.315  25.235   6.456
 3608POPC   C3A48221  37.379  25.441   6.848
 3608POPC   C4A48222  37.588  25.241   7.193
 3608POPC   C1B48223  37.981  25.054   6.031
 3608POPC   C2B48224  37.883  25.129   6.511
 3608POPC   C3B48225  38.075  25.079   6.954
 3608POPC   C4B48226  38.012  25.142   7.454
 3609POPC   NC348227  24.192   1.125   5.487
 3609POPC   PO448228  24.679   1.443   5.114
 3609POPC   GL148229  24.671   1.215   5.581
 3609POPC   GL248230  24.510   1.452   5.804
 3609POPC   C1A48231  24.471   1.001   6.051
 3609POPC   D2A48232  24.127   1.043   6.422
 3609POPC   C3A48233  24.180   0.981   6.916
 3609POPC   C4A48234  24.384   0.817   7.327
 3609POPC   C1B48235  24.323   1.482   6.237
 3609POPC   C2B48236  24.451   1.594   6.690
 3609POPC   C3B48237  24.680   1.413   7.064
 3609POPC   C4B48238  24.741   1.302   7.513
 3610POPC   NC348239  14.610  16.731   5.507
 3610POPC   PO448240  13.937  16.539   5.500
 3610POPC   GL148241  14.246  16.506   5.832
 3610POPC   GL248242  14.309  16.841   5.891
 3610POPC   C1A48243  14.484  16.522   6.241
 3610POPC   D2A48244  14.498  16.807   6.602
 3610POPC   C3A48245  14.537  16.685   7.044
 3610POPC   C4A48246  14.817  16.644   7.442
 3610POPC   C1B48247  14.150  16.980   6.265
 3610POPC   C2B48248  13.899  17.065   6.621
 3610POPC   C3B48249  13.798  16.921   7.036
 3610POPC   C4B48250  14.105  16.799   7.339
 3611POPC   NC348251  36.057  27.971   5.386
 3611POPC   PO448252  35.892  28.659   5.295
 3611POPC   GL148253  35.909  28.372   5.665
 3611POPC   GL248254  36.190  28.211   5.830
 3611POPC   C1A48255  35.909  28.500   6.115
 3611POPC   D2A48256  35.918  28.632   6.536
 3611POPC   C3A48257  36.110  28.614   6.932
 3611POPC   C4A48258  35.837  28.390   7.192
 3611POPC   C1B48259  36.418  28.325   6.207
 3611POPC   C2B48260  36.371  28.288   6.645
 3611POPC   C3B48261  36.372  28.209   7.101
 3611POPC   C4B48262  36.687  28.106   7.404
 3612POPC   NC348263   4.035  31.321   5.198
 3612POPC   PO448264   4.576  31.408   5.274
 3612POPC   GL148265   4.665  31.332   5.751
 3612POPC   GL248266   4.737  31.649   5.886
 3612POPC   C1A48267   4.675  31.281   6.243
 3612POPC   D2A48268   4.704  31.413   6.718
 3612POPC   C3A48269   4.422  31.416   7.091
 3612POPC   C4A48270   4.294  31.694   7.437
 3612POPC   C1B48271   4.875  31.752   6.318
 3612POPC   C2B48272   4.872  31.954   6.727
 3612POPC   C3B48273   4.728  31.832   7.124
 3612POPC   C4B48274   4.794  31.646   7.504
 3613POPC   NC348275  28.113   3.722   5.458
 3613POPC   PO448276  28.784   3.696   5.542
 3613POPC   GL148277  28.461   3.676   5.833
 3613POPC   GL248278  28.190   3.379   5.844
 3613POPC   C1A48279  28.432   3.602   6.230
 3613POPC   D2A48280  28.196   3.327   6.463
 3613POPC   C3A48281  28.307   3.318   6.887
 3613POPC   C4A48282  28.343   3.580   7.220
 3613POPC   C1B48283  27.981   3.727   6.091
 3613POPC   C2B48284  28.081   3.832   6.523
 3613POPC   C3B48285  27.937   3.712   6.941
 3613POPC   C4B48286  27.821   3.989   7.262
 3614POPC   NC348287  12.243  26.481   5.400
 3614POPC   PO448288  11.867  27.064   5.376
 3614POPC   GL148289  11.753  26.863   5.742
 3614POPC   GL248290  12.038  26.643   5.859
 3614POPC   C1A48291  11.798  26.984   6.168
 3614POPC   D2A48292  11.968  26.761   6.489
 3614POPC   C3A48293  12.024  26.882   6.927
 3614POPC   C4A48294  11.986  26.603   7.301
 3614POPC   C1B48295  12.294  26.974   6.113
 3614POPC   C2B48296  12.370  27.177   6.544
 3614POPC   C3B48297  12.546  27.078   6.941
 3614POPC   C4B48298  12.376  27.013   7.338
 3615POPC   NC348299  27.332  44.310   5.359
 3615POPC   PO448300  27.856  44.781   5.431
 3615POPC   GL148301  27.516  44.677   5.700
 3615POPC   GL248302  27.598  44.363   5.816
 3615POPC   C1A48303  27.341  44.727   6.107
 3615POPC   D2A48304  27.320  44.409   6.428
 3615POPC   C3A48305  27.344  44.550   6.858
 3615POPC   C4A48306  27.356  44.767   7.236
 3615POPC   C1B48307  27.793  44.530   6.196
 3615POPC   C2B48308  27.690  44.811   6.534
 3615POPC   C3B48309  27.824  44.727   6.943
 3615POPC   C4B48310  27.709  44.414   7.237
 3616POPC   NC348311  32.908  38.573   5.510
 3616POPC   PO448312  33.415  38.080   5.481
 3616POPC   GL148313  33.184  38.296   5.856
 3616POPC   GL248314  33.139  38.680   5.962
 3616POPC   C1A48315  33.158  38.333   6.325
 3616POPC   D2A48316  33.274  38.375   6.751
 3616POPC   C3A48317  33.023  38.252   7.096
 3616POPC   C4A48318  33.162  38.022   7.477
 3616POPC   C1B48319  32.764  38.695   6.241
 3616POPC   C2B48320  32.848  38.661   6.686
 3616POPC   C3B48321  32.848  38.743   7.130
 3616POPC   C4B48322  32.972  38.517   7.519
 3617POPC   NC348323  30.453  28.489   5.343
 3617POPC   PO448324  29.774  28.278   5.334
 3617POPC   GL148325  29.911  28.193   5.771
 3617POPC   GL248326  29.602  28.027   5.891
 3617POPC   C1A48327  30.020  28.161   6.220
 3617POPC   D2A48328  29.828  28.070   6.642
 3617POPC   C3A48329  29.888  28.337   7.024
 3617POPC   C4A48330  29.875  28.521   7.453
 3617POPC   C1B48331  29.495  28.329   6.262
 3617POPC   C2B48332  29.452  28.446   6.729
 3617POPC   C3B48333  29.381  28.197   7.098
 3617POPC   C4B48334  29.434  28.259   7.577
 3618POPC   NC348335  34.338  31.909   5.528
 3618POPC   PO448336  34.609  32.499   5.325
 3618POPC   GL148337  34.559  32.328   5.800
 3618POPC   GL248338  34.592  31.962   5.959
 3618POPC   C1A48339  34.436  32.293   6.286
 3618POPC   D2A48340  34.705  32.059   6.566
 3618POPC   C3A48341  34.708  32.233   6.954
 3618POPC   C4A48342  34.508  32.133   7.302
 3618POPC   C1B48343  34.224  31.831   6.206
 3618POPC   C2B48344  34.196  31.959   6.626
 3618POPC   C3B48345  34.089  32.026   7.040
 3618POPC   C4B48346  34.028  32.009   7.492
 3619POPC   NC348347  21.815  25.557   5.341
 3619POPC   PO448348  22.028  25.000   5.611
 3619POPC   GL148349  22.166  25.379   5.851
 3619POPC   GL248350  22.492  25.582   5.707
 3619POPC   C1A48351  22.036  25.406   6.312
 3619POPC   D2A48352  22.230  25.233   6.707
 3619POPC   C3A48353  22.085  25.292   7.157
 3619POPC   C4A48354  22.318  25.120   7.524
 3619POPC   C1B48355  22.387  25.747   6.129
 3619POPC   C2B48356  22.355  25.711   6.566
 3619POPC   C3B48357  22.462  25.604   6.989
 3619POPC   C4B48358  22.288  25.672   7.414
 3620POPC   NC348359   0.479  18.398   5.356
 3620POPC   PO448360   0.596  17.790   5.167
 3620POPC   GL148361   0.378  17.983   5.621
 3620POPC   GL248362   0.459  18.288   5.863
 3620POPC   C1A48363   0.146  17.956   6.073
 3620POPC   D2A48364   0.249  18.213   6.448
 3620POPC   C3A48365   0.154  18.279   6.904
 3620POPC   C4A48366   0.242  17.980   7.220
 3620POPC   C1B48367   0.704  18.349   6.249
 3620POPC   C2B48368   0.605  18.492   6.691
 3620POPC   C3B48369   0.641  18.332   7.130
 3620POPC   C4B48370   0.669  18.568   7.519
 3621POPC   NC348371  28.550   8.158   5.361
 3621POPC   PO448372  29.196   7.907   5.337
 3621POPC   GL148373  29.391   7.939   5.716
 3621POPC   GL248374  29.182   8.248   5.796
 3621POPC   C1A48375  29.346   7.893   6.147
 3621POPC   D2A48376  29.312   8.068   6.547
 3621POPC   C3A48377  29.030   8.098   6.854
 3621POPC   C4A48378  29.342   8.110   7.168
 3621POPC   C1B48379  28.958   8.277   6.184
 3621POPC   C2B48380  28.975   8.513   6.548
 3621POPC   C3B48381  28.847   8.614   6.932
 3621POPC   C4B48382  28.883   8.350   7.280
 3622POPC   NC348383   7.426  17.764   5.280
 3622POPC   PO448384   7.805  17.659   5.787
 3622POPC   GL148385   7.359  17.522   5.801
 3622POPC   GL248386   7.247  17.145   5.746
 3622POPC   C1A48387   7.317  17.662   6.234
 3622POPC   D2A48388   7.592  17.825   6.564
 3622POPC   C3A48389   7.295  17.918   6.883
 3622POPC   C4A48390   7.196  17.794   7.284
 3622POPC   C1B48391   7.466  17.162   6.162
 3622POPC   C2B48392   7.514  17.315   6.577
 3622POPC   C3B48393   7.483  17.435   6.984
 3622POPC   C4B48394   7.527  17.181   7.314
 3623POPC   NC348395  16.118   6.828   5.020
 3623POPC   PO448396  15.978   6.227   5.343
 3623POPC   GL148397  15.822   6.433   5.741
 3623POPC   GL248398  15.791   6.802   5.804
 3623POPC   C1A48399  15.935   6.452   6.183
 3623POPC   D2A48400  15.983   6.657   6.581
 3623POPC   C3A48401  15.852   6.460   6.937
 3623POPC   C4A48402  16.157   6.247   7.141
 3623POPC   C1B48403  15.998   6.997   6.164
 3623POPC   C2B48404  15.758   7.106   6.510
 3623POPC   C3B48405  15.795   7.017   6.940
 3623POPC   C4B48406  15.505   6.781   7.136
 3624POPC   NC348407  18.527  30.318   5.182
 3624POPC   PO448408  18.388  29.683   5.332
 3624POPC   GL148409  18.320  29.712   5.789
 3624POPC   GL248410  18.501  30.043   5.731
 3624POPC   C1A48411  18.104  29.560   6.250
 3624POPC   D2A48412  18.136  29.433   6.744
 3624POPC   C3A48413  18.011  29.716   7.112
 3624POPC   C4A48414  17.997  29.894   7.577
 3624POPC   C1B48415  18.404  30.031   6.178
 3624POPC   C2B48416  18.397  29.839   6.570
 3624POPC   C3B48417  18.518  29.711   6.969
 3624POPC   C4B48418  18.436  29.887   7.347
 3625POPC   NC348419  11.959  22.543   5.329
 3625POPC   PO448420  12.247  21.854   5.381
 3625POPC   GL148421  12.097  22.100   5.746
 3625POPC   GL248422  12.220  22.402   5.742
 3625POPC   C1A48423  12.201  22.060   6.183
 3625POPC   D2A48424  12.333  21.939   6.595
 3625POPC   C3A48425  12.042  22.090   6.883
 3625POPC   C4A48426  11.800  21.932   7.231
 3625POPC   C1B48427  12.453  22.503   6.096
 3625POPC   C2B48428  12.294  22.461   6.513
 3625POPC   C3B48429  12.294  22.551   6.938
 3625POPC   C4B48430  12.250  22.477   7.382
 3626POPC   NC348431   4.010  10.401   5.449
 3626POPC   PO448432   4.629  10.248   5.296
 3626POPC   GL148433   4.437  10.256   5.730
 3626POPC   GL248434   4.630  10.472   5.893
 3626POPC   C1A48435   4.272  10.262   6.205
 3626POPC   D2A48436   3.975  10.232   6.589
 3626POPC   C3A48437   4.043  10.476   6.989
 3626POPC   C4A48438   4.172  10.860   7.135
 3626POPC   C1B48439   4.695  10.713   6.269
 3626POPC   C2B48440   4.562  10.776   6.644
 3626POPC   C3B48441   4.589  10.551   6.991
 3626POPC   C4B48442   4.654  10.842   7.314
 3627POPC   NC348443  30.525  39.644   5.312
 3627POPC   PO448444  30.747  38.918   5.327
 3627POPC   GL148445  30.682  39.039   5.779
 3627POPC   GL248446  30.698  39.411   5.825
 3627POPC   C1A48447  30.866  39.088   6.205
 3627POPC   D2A48448  30.892  39.360   6.561
 3627POPC   C3A48449  30.884  39.106   6.923
 3627POPC   C4A48450  30.807  39.197   7.344
 3627POPC   C1B48451  30.396  39.249   6.169
 3627POPC   C2B48452  30.436  39.131   6.627
 3627POPC   C3B48453  30.391  38.995   7.076
 3627POPC   C4B48454  30.354  38.983   7.539
 3628POPC   NC348455  13.519  38.256   5.358
 3628POPC   PO448456  13.918  38.711   5.187
 3628POPC   GL148457  13.561  38.716   5.583
 3628POPC   GL248458  13.612  38.367   5.833
 3628POPC   C1A48459  13.415  38.760   6.041
 3628POPC   D2A48460  13.270  38.416   6.325
 3628POPC   C3A48461  13.448  38.374   6.742
 3628POPC   C4A48462  13.626  38.582   7.089
 3628POPC   C1B48463  13.787  38.429   6.269
 3628POPC   C2B48464  13.955  38.488   6.691
 3628POPC   C3B48465  14.139  38.545   7.092
 3628POPC   C4B48466  13.972  38.555   7.508
 3629POPC   NC348467   5.731  10.703   5.522
 3629POPC   PO448468   6.336  10.508   5.752
 3629POPC   GL148469   5.980  10.215   5.877
 3629POPC   GL248470   5.629  10.401   5.945
 3629POPC   C1A48471   5.963  10.231   6.331
 3629POPC   D2A48472   6.074  10.641   6.514
 3629POPC   C3A48473   6.097  10.670   6.953
 3629POPC   C4A48474   6.118  10.364   7.277
 3629POPC   C1B48475   5.513  10.458   6.391
 3629POPC   C2B48476   5.536  10.164   6.711
 3629POPC   C3B48477   5.650  10.386   7.077
 3629POPC   C4B48478   5.458  10.507   7.455
 3630POPC   NC348479   4.637  16.311   5.570
 3630POPC   PO448480   4.245  16.669   5.159
 3630POPC   GL148481   4.285  16.678   5.660
 3630POPC   GL248482   4.573  16.896   5.759
 3630POPC   C1A48483   4.364  16.676   6.145
 3630POPC   D2A48484   4.144  16.821   6.521
 3630POPC   C3A48485   4.297  16.765   6.940
 3630POPC   C4A48486   4.330  16.587   7.369
 3630POPC   C1B48487   4.795  16.936   6.197
 3630POPC   C2B48488   4.734  16.910   6.687
 3630POPC   C3B48489   4.904  16.984   7.151
 3630POPC   C4B48490   4.802  16.893   7.634
 3631POPC   NC348491  11.068  44.748   5.365
 3631POPC   PO448492  11.543  44.250   5.468
 3631POPC   GL148493  11.195  44.315   5.800
 3631POPC   GL248494  11.260  44.679   5.919
 3631POPC   C1A48495  11.063  44.363   6.254
 3631POPC   D2A48496  11.204  44.768   6.497
 3631POPC   C3A48497  11.310  44.609   6.896
 3631POPC   C4A48498  11.099  44.336   7.168
 3631POPC   C1B48499  11.578  44.499   6.279
 3631POPC   C2B48500  11.732  44.351   6.735
 3631POPC   C3B48501  11.673  44.429   7.218
 3631POPC   C4B48502  11.782  44.541   7.664
 3632POPC   NC348503  23.818  33.271   5.510
 3632POPC   PO448504  23.504  32.659   5.581
 3632POPC   GL148505  23.621  32.972   5.889
 3632POPC   GL248506  23.503  33.336   5.890
 3632POPC   C1A48507  23.611  32.929   6.320
 3632POPC   D2A48508  23.813  33.074   6.687
 3632POPC   C3A48509  23.838  32.835   7.102
 3632POPC   C4A48510  23.751  32.666   7.540
 3632POPC   C1B48511  23.481  33.442   6.318
 3632POPC   C2B48512  23.282  33.172   6.624
 3632POPC   C3B48513  23.374  33.069   7.023
 3632POPC   C4B48514  23.516  33.105   7.434
 3633POPC   NC348515  14.739  43.176   5.422
 3633POPC   PO448516  14.099  43.429   5.323
 3633POPC   GL148517  14.244  43.306   5.774
 3633POPC   GL248518  14.476  43.007   5.808
 3633POPC   C1A48519  14.378  43.318   6.202
 3633POPC   D2A48520  14.301  43.073   6.582
 3633POPC   C3A48521  14.352  43.249   7.013
 3633POPC   C4A48522  14.316  42.916   7.324
 3633POPC   C1B48523  14.700  42.694   6.053
 3633POPC   C2B48524  14.609  42.619   6.481
 3633POPC   C3B48525  14.708  42.905   6.846
 3633POPC   C4B48526  14.809  42.860   7.280
 3634POPC   NC348527  38.185  33.587   5.019
 3634POPC   PO448528  38.712  33.836   5.352
 3634POPC   GL148529  38.572  33.741   5.759
 3634POPC   GL248530  38.602  33.392   5.746
 3634POPC   C1A48531  38.530  33.902   6.178
 3634POPC   D2A48532  38.575  33.734   6.561
 3634POPC   C3A48533  38.710  33.973   6.903
 3634POPC   C4A48534  38.574  34.056   7.314
 3634POPC   C1B48535  38.539  33.346   6.170
 3634POPC   C2B48536  38.227  33.371   6.473
 3634POPC   C3B48537  38.227  33.518   6.875
 3634POPC   C4B48538  38.447  33.548   7.256
 3635POPC   NC348539  27.905   8.817   5.668
 3635POPC   PO448540  27.459   8.349   5.383
 3635POPC   GL148541  27.598   8.441   5.796
 3635POPC   GL248542  27.289   8.608   5.883
 3635POPC   C1A48543  27.799   8.224   6.186
 3635POPC   D2A48544  27.822   7.888   6.523
 3635POPC   C3A48545  27.872   7.970   6.970
 3635POPC   C4A48546  27.565   8.088   7.283
 3635POPC   C1B48547  27.287   8.168   6.073
 3635POPC   C2B48548  27.327   8.065   6.512
 3635POPC   C3B48549  27.180   8.137   6.935
 3635POPC   C4B48550  27.020   8.007   7.340
 3636POPC   NC348551   7.987  17.981   5.496
 3636POPC   PO448552   8.527  18.431   5.498
 3636POPC   GL148553   8.252  18.446   5.868
 3636POPC   GL248554   8.181  18.087   5.944
 3636POPC   C1A48555   8.228  18.438   6.339
 3636POPC   D2A48556   7.967  18.573   6.704
 3636POPC   C3A48557   8.062  18.432   7.173
 3636POPC   C4A48558   8.253  18.386   7.614
 3636POPC   C1B48559   8.096  17.880   6.322
 3636POPC   C2B48560   8.042  18.073   6.676
 3636POPC   C3B48561   8.311  17.961   6.957
 3636POPC   C4B48562   8.248  17.945   7.362
 3637POPC   NC348563  18.346   2.232   5.329
 3637POPC   PO448564  17.980   1.666   5.276
 3637POPC   GL148565  18.057   1.815   5.734
 3637POPC   GL248566  18.032   2.185   5.723
 3637POPC   C1A48567  18.312   1.851   6.147
 3637POPC   D2A48568  18.255   1.754   6.569
 3637POPC   C3A48569  18.457   1.994   6.924
 3637POPC   C4A48570  18.484   1.862   7.357
 3637POPC   C1B48571  18.118   2.322   6.134
 3637POPC   C2B48572  17.992   2.194   6.557
 3637POPC   C3B48573  17.942   1.961   6.931
 3637POPC   C4B48574  18.057   2.157   7.306
 3638POPC   NC348575  24.427   0.157   5.323
 3638POPC   PO448576  24.391   0.791   5.216
 3638POPC   GL148577  24.440   0.609   5.684
 3638POPC   GL248578  24.653   0.312   5.750
 3638POPC   C1A48579  24.495   0.497   6.173
 3638POPC   D2A48580  24.387   0.651   6.580
 3638POPC   C3A48581  24.351   0.446   6.949
 3638POPC   C4A48582  24.647   0.319   7.229
 3638POPC   C1B48583  24.733   0.055   6.098
 3638POPC   C2B48584  24.925   0.162   6.485
 3638POPC   C3B48585  24.955   0.033   6.911
 3638POPC   C4B48586  25.123   0.004   7.342
 3639POPC   NC348587   1.131  36.870   5.245
 3639POPC   PO448588   1.244  37.564   5.192
 3639POPC   GL148589   1.219  37.267   5.581
 3639POPC   GL248590   1.401  36.966   5.666
 3639POPC   C1A48591   1.071  37.151   6.021
 3639POPC   D2A48592   1.043  37.243   6.480
 3639POPC   C3A48593   1.030  37.002   6.853
 3639POPC   C4A48594   1.121  36.817   7.243
 3639POPC   C1B48595   1.528  36.917   6.110
 3639POPC   C2B48596   1.465  36.940   6.554
 3639POPC   C3B48597   1.550  37.020   6.993
 3639POPC   C4B48598   1.707  36.692   7.261
 3640POPC   NC348599  11.127   3.602   5.215
 3640POPC   PO448600  11.751   3.758   5.407
 3640POPC   GL148601  11.564   3.452   5.727
 3640POPC   GL248602  11.174   3.360   5.782
 3640POPC   C1A48603  11.498   3.303   6.158
 3640POPC   D2A48604  11.255   3.504   6.505
 3640POPC   C3A48605  11.307   3.359   6.905
 3640POPC   C4A48606  11.143   3.503   7.280
 3640POPC   C1B48607  11.018   3.158   6.229
 3640POPC   C2B48608  10.867   3.191   6.684
 3640POPC   C3B48609  10.848   3.104   7.148
 3640POPC   C4B48610  10.945   3.152   7.626
 3641POPC   NC348611  30.426  23.378   5.341
 3641POPC   PO448612  30.827  23.907   5.536
 3641POPC   GL148613  30.583  23.672   5.785
 3641POPC   GL248614  30.453  23.939   5.934
 3641POPC   C1A48615  30.593  23.467   6.196
 3641POPC   D2A48616  30.776  23.367   6.606
 3641POPC   C3A48617  30.582  23.610   6.924
 3641POPC   C4A48618  30.624  23.617   7.356
 3641POPC   C1B48619  30.832  23.949   6.222
 3641POPC   C2B48620  30.991  23.830   6.636
 3641POPC   C3B48621  30.985  23.883   7.095
 3641POPC   C4B48622  30.556  24.103   7.185
 3642POPC   NC348623  13.545  41.943   5.206
 3642POPC   PO448624  13.687  41.305   5.399
 3642POPC   GL148625  13.878  41.388   5.777
 3642POPC   GL248626  13.854  41.730   5.772
 3642POPC   C1A48627  13.773  41.297   6.186
 3642POPC   D2A48628  13.742  41.524   6.547
 3642POPC   C3A48629  13.584  41.359   6.886
 3642POPC   C4A48630  13.678  41.507   7.243
 3642POPC   C1B48631  13.568  41.775   6.126
 3642POPC   C2B48632  13.279  41.786   6.508
 3642POPC   C3B48633  13.422  41.843   6.938
 3642POPC   C4B48634  13.374  41.860   7.390
 3643POPC   NC348635   9.938  20.143   5.518
 3643POPC   PO448636  10.375  19.747   5.171
 3643POPC   GL148637  10.287  19.734   5.631
 3643POPC   GL248638  10.175  19.401   5.707
 3643POPC   C1A48639  10.566  19.818   6.021
 3643POPC   D2A48640  10.549  20.046   6.442
 3643POPC   C3A48641  10.597  19.911   6.889
 3643POPC   C4A48642  10.247  20.018   7.196
 3643POPC   C1B48643  10.284  19.421   6.176
 3643POPC   C2B48644  10.176  19.634   6.574
 3643POPC   C3B48645  10.266  19.537   7.012
 3643POPC   C4B48646  10.272  19.345   7.412
 3644POPC   NC348647  34.617  44.585   5.385
 3644POPC   PO448648  34.937   0.115   5.368
 3644POPC   GL148649  34.673  44.928   5.759
 3644POPC   GL248650  34.489  44.589   5.886
 3644POPC   C1A48651  34.662  44.942   6.221
 3644POPC   D2A48652  34.862  44.778   6.604
 3644POPC   C3A48653  34.579  44.840   6.954
 3644POPC   C4A48654  34.433  44.979   7.375
 3644POPC   C1B48655  34.865  44.477   6.143
 3644POPC   C2B48656  34.847  44.251   6.544
 3644POPC   C3B48657  34.883  44.388   6.942
 3644POPC   C4B48658  34.622  44.466   7.281
 3645POPC   NC348659  31.332  32.944   5.468
 3645POPC   PO448660  31.900  32.459   5.564
 3645POPC   GL148661  31.786  32.866   5.782
 3645POPC   GL248662  31.448  33.014   5.928
 3645POPC   C1A48663  31.782  32.844   6.235
 3645POPC   D2A48664  31.590  32.763   6.623
 3645POPC   C3A48665  31.816  33.004   6.930
 3645POPC   C4A48666  31.923  33.192   7.309
 3645POPC   C1B48667  31.235  33.043   6.277
 3645POPC   C2B48668  31.341  33.202   6.655
 3645POPC   C3B48669  31.291  32.975   7.007
 3645POPC   C4B48670  31.240  33.177   7.359
 3646POPC   NC348671  36.472  29.099   5.516
 3646POPC   PO448672  36.835  28.701   5.222
 3646POPC   GL148673  36.915  28.981   5.716
 3646POPC   GL248674  36.735  29.328   5.870
 3646POPC   C1A48675  36.995  29.086   6.209
 3646POPC   D2A48676  37.274  29.255   6.494
 3646POPC   C3A48677  37.259  29.171   6.914
 3646POPC   C4A48678  37.005  28.867   7.163
 3646POPC   C1B48679  36.549  29.283   6.307
 3646POPC   C2B48680  36.766  29.170   6.726
 3646POPC   C3B48681  36.659  29.222   7.173
 3646POPC   C4B48682  36.725  29.221   7.658
 3647POPC   NC348683  26.218  24.868   5.433
 3647POPC   PO448684  25.675  24.469   5.510
 3647POPC   GL148685  25.878  24.733   5.809
 3647POPC   GL248686  26.272  24.721   5.913
 3647POPC   C1A48687  25.864  24.756   6.252
 3647POPC   D2A48688  26.080  24.759   6.633
 3647POPC   C3A48689  25.844  24.553   6.968
 3647POPC   C4A48690  25.943  24.342   7.390
 3647POPC   C1B48691  26.239  24.395   6.241
 3647POPC   C2B48692  26.210  24.259   6.678
 3647POPC   C3B48693  26.335  24.519   7.016
 3647POPC   C4B48694  26.217  24.779   7.319
 3648POPC   NC348695  18.667   0.610   5.453
 3648POPC   PO448696  19.272   0.524   5.748
 3648POPC   GL148697  18.842   0.454   5.914
 3648POPC   GL248698  18.669   0.138   5.923
 3648POPC   C1A48699  18.761   0.456   6.336
 3648POPC   D2A48700  19.147   0.469   6.554
 3648POPC   C3A48701  19.078   0.726   6.860
 3648POPC   C4A48702  18.990   0.694   7.256
 3648POPC   C1B48703  19.026   0.051   6.224
 3648POPC   C2B48704  18.997  44.996   6.678
 3648POPC   C3B48705  19.052   0.092   7.093
 3648POPC   C4B48706  19.349   0.363   7.096
 3649POPC   NC348707  16.610  37.867   5.672
 3649POPC   PO448708  16.741  37.218   5.471
 3649POPC   GL148709  16.842  37.451   5.859
 3649POPC   GL248710  17.133  37.673   5.737
 3649POPC   C1A48711  16.683  37.623   6.291
 3649POPC   D2A48712  16.646  37.541   6.744
 3649POPC   C3A48713  16.603  37.790   7.129
 3649POPC   C4A48714  16.473  37.628   7.574
 3649POPC   C1B48715  17.206  37.712   6.188
 3649POPC   C2B48716  17.068  37.767   6.624
 3649POPC   C3B48717  17.078  37.464   6.980
 3649POPC   C4B48718  16.987  37.591   7.380
 3650POPC   NC348719  10.758  43.064   5.616
 3650POPC   PO448720  10.375  43.498   5.221
 3650POPC   GL148721  10.325  43.501   5.694
 3650POPC   GL248722  10.571  43.389   5.966
 3650POPC   C1A48723  10.089  43.452   6.096
 3650POPC   D2A48724   9.998  43.315   6.550
 3650POPC   C3A48725  10.238  43.328   6.962
 3650POPC   C4A48726  10.506  43.196   7.332
 3650POPC   C1B48727  10.701  43.143   6.323
 3650POPC   C2B48728  10.670  43.124   6.771
 3650POPC   C3B48729  10.964  43.109   7.082
 3650POPC   C4B48730  10.926  42.934   7.479
 3651POPC   NC348731  36.928  19.032   5.235
 3651POPC   PO448732  36.999  19.657   5.512
 3651POPC   GL148733  36.962  19.254   5.723
 3651POPC   GL248734  37.151  18.926   5.820
 3651POPC   C1A48735  36.721  19.079   6.065
 3651POPC   D2A48736  36.679  19.124   6.519
 3651POPC   C3A48737  36.582  18.806   6.840
 3651POPC   C4A48738  36.774  18.928   7.211
 3651POPC   C1B48739  37.117  18.842   6.293
 3651POPC   C2B48740  37.093  18.893   6.752
 3651POPC   C3B48741  37.243  18.738   7.139
 3651POPC   C4B48742  37.101  18.759   7.590
 3652POPC   NC348743  11.014   0.527   5.152
 3652POPC   PO448744  10.704   0.042   5.338
 3652POPC   GL148745  10.547   0.180   5.757
 3652POPC   GL248746  10.165   0.170   5.810
 3652POPC   C1A48747  10.766   0.379   6.132
 3652POPC   D2A48748  10.896   0.213   6.550
 3652POPC   C3A48749  10.781   0.436   6.928
 3652POPC   C4A48750  10.733   0.644   7.324
 3652POPC   C1B48751  10.293   0.228   6.251
 3652POPC   C2B48752  10.484   0.577   6.538
 3652POPC   C3B48753  10.370   0.772   6.953
 3652POPC   C4B48754  10.246   0.488   7.265
 3653POPC   NC348755  36.934  31.811   5.438
 3653POPC   PO448756  36.589  31.322   5.554
 3653POPC   GL148757  36.666  31.640   5.838
 3653POPC   GL248758  37.028  31.526   5.845
 3653POPC   C1A48759  36.739  31.580   6.253
 3653POPC   D2A48760  36.992  31.372   6.475
 3653POPC   C3A48761  36.769  31.468   6.844
 3653POPC   C4A48762  36.968  31.409   7.215
 3653POPC   C1B48763  37.237  31.776   6.138
 3653POPC   C2B48764  37.461  31.671   6.491
 3653POPC   C3B48765  37.297  31.532   6.858
 3653POPC   C4B48766  37.321  31.777   7.227
 3654POPC   NC348767  44.910   6.862   5.312
 3654POPC   PO448768   0.315   6.550   5.648
 3654POPC   GL148769   0.374   6.562   6.069
 3654POPC   GL248770   0.730   6.533   6.098
 3654POPC   C1A48771   0.466   6.780   6.452
 3654POPC   D2A48772   0.294   7.066   6.748
 3654POPC   C3A48773   0.512   6.916   7.100
 3654POPC   C4A48774   0.310   6.618   7.343
 3654POPC   C1B48775   0.669   6.186   6.265
 3654POPC   C2B48776   0.531   6.250   6.641
 3654POPC   C3B48777   0.637   6.404   7.011
 3654POPC   C4B48778   0.619   6.190   7.420
 3655POPC   NC348779  28.070  20.847   5.374
 3655POPC   PO448780  27.393  20.825   5.322
 3655POPC   GL148781  27.384  20.816   5.768
 3655POPC   GL248782  27.477  20.462   5.793
 3655POPC   C1A48783  27.633  20.933   6.184
 3655POPC   D2A48784  27.644  21.076   6.648
 3655POPC   C3A48785  27.793  20.730   6.912
 3655POPC   C4A48786  27.817  20.519   7.295
 3655POPC   C1B48787  27.274  20.562   6.200
 3655POPC   C2B48788  27.391  20.606   6.625
 3655POPC   C3B48789  27.329  20.439   7.045
 3655POPC   C4B48790  27.337  20.470   7.491
 3656POPC   NC348791  11.599  18.472   5.492
 3656POPC   PO448792  11.092  18.061   5.347
 3656POPC   GL148793  11.348  18.017   5.685
 3656POPC   GL248794  11.245  18.331   5.854
 3656POPC   C1A48795  11.392  17.926   6.112
 3656POPC   D2A48796  11.204  18.120   6.478
 3656POPC   C3A48797  11.303  18.037   6.915
 3656POPC   C4A48798  11.352  18.274   7.302
 3656POPC   C1B48799  11.605  18.402   6.157
 3656POPC   C2B48800  11.647  18.432   6.607
 3656POPC   C3B48801  11.429  18.636   6.955
 3656POPC   C4B48802  11.567  18.813   7.345
 3657POPC   NC348803  12.436  36.118   5.503
 3657POPC   PO448804  11.688  36.110   5.586
 3657POPC   GL148805  12.016  36.289   5.790
 3657POPC   GL248806  12.129  35.961   5.856
 3657POPC   C1A48807  12.121  36.305   6.237
 3657POPC   D2A48808  12.180  36.332   6.672
 3657POPC   C3A48809  12.130  36.127   7.046
 3657POPC   C4A48810  12.132  36.336   7.410
 3657POPC   C1B48811  12.380  35.818   6.197
 3657POPC   C2B48812  12.518  35.952   6.577
 3657POPC   C3B48813  12.448  35.742   6.951
 3657POPC   C4B48814  12.628  35.839   7.350
 3658POPC   NC348815  19.480  30.442   5.382
 3658POPC   PO448816  18.757  30.696   5.322
 3658POPC   GL148817  19.095  30.618   5.671
 3658POPC   GL248818  19.259  30.897   5.882
 3658POPC   C1A48819  19.280  30.404   6.069
 3658POPC   D2A48820  19.253  30.223   6.513
 3658POPC   C3A48821  19.324  30.481   6.891
 3658POPC   C4A48822  19.184  30.712   7.278
 3658POPC   C1B48823  19.296  30.846   6.386
 3658POPC   C2B48824  19.069  30.938   6.805
 3658POPC   C3B48825  18.736  30.925   7.164
 3658POPC   C4B48826  18.629  31.204   7.519
 3659POPC   NC348827  34.154  40.235   5.599
 3659POPC   PO448828  33.773  39.820   5.268
 3659POPC   GL148829  33.789  39.678   5.726
 3659POPC   GL248830  34.080  39.818   5.898
 3659POPC   C1A48831  33.723  39.705   6.210
 3659POPC   D2A48832  33.700  39.973   6.544
 3659POPC   C3A48833  33.758  39.712   6.855
 3659POPC   C4A48834  33.709  39.677   7.299
 3659POPC   C1B48835  34.133  40.084   6.289
 3659POPC   C2B48836  34.090  40.311   6.698
 3659POPC   C3B48837  33.896  40.183   7.057
 3659POPC   C4B48838  34.155  39.822   7.152
 3660POPC   NC348839  21.097  27.961   5.593
 3660POPC   PO448840  20.549  28.339   5.454
 3660POPC   GL148841  20.459  28.381   5.885
 3660POPC   GL248842  20.444  28.012   5.876
 3660POPC   C1A48843  20.628  28.441   6.312
 3660POPC   D2A48844  20.770  28.099   6.597
 3660POPC   C3A48845  21.045  28.251   6.927
 3660POPC   C4A48846  20.870  28.535   7.248
 3660POPC   C1B48847  20.314  28.066   6.305
 3660POPC   C2B48848  20.323  28.267   6.743
 3660POPC   C3B48849  20.361  28.390   7.207
 3660POPC   C4B48850  20.256  28.603   7.665
 3661POPC   NC348851  29.775   4.711   5.578
 3661POPC   PO448852  29.848   4.149   5.215
 3661POPC   GL148853  29.920   4.233   5.698
 3661POPC   GL248854  30.199   4.473   5.739
 3661POPC   C1A48855  29.688   4.376   6.123
 3661POPC   D2A48856  29.832   4.235   6.496
 3661POPC   C3A48857  29.629   4.191   6.886
 3661POPC   C4A48858  29.869   4.171   7.254
 3661POPC   C1B48859  30.157   4.544   6.183
 3661POPC   C2B48860  30.092   4.633   6.620
 3661POPC   C3B48861  30.262   4.520   7.015
 3661POPC   C4B48862  30.222   4.484   7.459
 3662POPC   NC348863   9.690   9.486   5.483
 3662POPC   PO448864   9.616  10.106   5.565
 3662POPC   GL148865   9.665   9.840   5.890
 3662POPC   GL248866  10.010   9.754   5.880
 3662POPC   C1A48867   9.492   9.535   6.159
 3662POPC   D2A48868   9.269   9.575   6.541
 3662POPC   C3A48869   9.467   9.827   6.866
 3662POPC   C4A48870   9.661   9.628   7.188
 3662POPC   C1B48871   9.994   9.599   6.310
 3662POPC   C2B48872  10.007   9.605   6.772
 3662POPC   C3B48873  10.157   9.648   7.164
 3662POPC   C4B48874  10.002   9.611   7.599
 3663POPC   NC348875  13.033  11.473   5.187
 3663POPC   PO448876  12.539  11.065   5.303
 3663POPC   GL148877  12.624  11.395   5.648
 3663POPC   GL248878  13.007  11.358   5.685
 3663POPC   C1A48879  12.582  11.418   6.133
 3663POPC   D2A48880  12.531  11.147   6.526
 3663POPC   C3A48881  12.700  11.333   6.898
 3663POPC   C4A48882  12.560  11.442   7.278
 3663POPC   C1B48883  13.086  11.159   6.084
 3663POPC   C2B48884  13.014  11.336   6.489
 3663POPC   C3B48885  13.212  11.267   6.916
 3663POPC   C4B48886  13.051  11.393   7.292
 3664POPC   NC348887  42.180   6.055   5.588
 3664POPC   PO448888  42.116   5.427   5.183
 3664POPC   GL148889  42.334   5.542   5.689
 3664POPC   GL248890  42.456   5.837   5.943
 3664POPC   C1A48891  42.183   5.491   6.183
 3664POPC   D2A48892  42.349   5.739   6.529
 3664POPC   C3A48893  42.190   5.757   6.942
 3664POPC   C4A48894  42.110   6.168   7.185
 3664POPC   C1B48895  42.204   6.143   6.227
 3664POPC   C2B48896  42.113   6.189   6.662
 3664POPC   C3B48897  42.527   6.134   6.892
 3664POPC   C4B48898  42.630   6.277   7.302
 3665POPC   NC348899  31.116  23.607   5.720
 3665POPC   PO448900  31.501  23.683   5.187
 3665POPC   GL148901  31.608  23.616   5.696
 3665POPC   GL248902  31.605  23.904   5.896
 3665POPC   C1A48903  31.651  23.447   6.140
 3665POPC   D2A48904  31.605  23.315   6.578
 3665POPC   C3A48905  31.303  23.484   6.882
 3665POPC   C4A48906  31.516  23.717   7.178
 3665POPC   C1B48907  31.392  23.933   6.292
 3665POPC   C2B48908  31.452  23.972   6.749
 3665POPC   C3B48909  31.512  24.215   7.114
 3665POPC   C4B48910  31.328  24.076   7.475
 3666POPC   NC348911  23.188  15.412   5.285
 3666POPC   PO448912  22.766  15.001   5.697
 3666POPC   GL148913  23.090  15.166   5.919
 3666POPC   GL248914  23.246  15.476   5.811
 3666POPC   C1A48915  23.141  15.131   6.384
 3666POPC   D2A48916  22.884  15.134   6.787
 3666POPC   C3A48917  23.042  14.967   7.164
 3666POPC   C4A48918  23.168  14.789   7.576
 3666POPC   C1B48919  23.323  15.616   6.243
 3666POPC   C2B48920  23.157  15.554   6.658
 3666POPC   C3B48921  23.108  15.516   7.086
 3666POPC   C4B48922  22.699  15.372   7.223
 3667POPC   NC348923  39.435   1.526   5.418
 3667POPC   PO448924  39.044   1.029   5.205
 3667POPC   GL148925  39.084   1.187   5.651
 3667POPC   GL248926  39.431   1.134   5.756
 3667POPC   C1A48927  39.087   1.222   6.144
 3667POPC   D2A48928  39.347   1.272   6.568
 3667POPC   C3A48929  39.237   1.271   7.050
 3667POPC   C4A48930  39.421   1.426   7.476
 3667POPC   C1B48931  39.505   0.950   6.164
 3667POPC   C2B48932  39.490   0.751   6.559
 3667POPC   C3B48933  39.597   0.867   6.971
 3667POPC   C4B48934  39.318   0.796   7.313
 3668POPC   NC348935  29.871   3.209   5.468
 3668POPC   PO448936  29.662   2.606   5.353
 3668POPC   GL148937  29.823   2.702   5.756
 3668POPC   GL248938  30.148   2.853   5.749
 3668POPC   C1A48939  29.844   2.526   6.168
 3668POPC   D2A48940  30.081   2.563   6.549
 3668POPC   C3A48941  29.941   2.498   6.970
 3668POPC   C4A48942  29.988   2.705   7.370
 3668POPC   C1B48943  30.093   2.983   6.161
 3668POPC   C2B48944  30.114   3.100   6.585
 3668POPC   C3B48945  30.193   2.976   6.974
 3668POPC   C4B48946  30.080   3.206   7.314
 3669POPC   NC348947  36.350  28.715   5.167
 3669POPC   PO448948  36.078  29.320   5.431
 3669POPC   GL148949  36.067  29.091   5.817
 3669POPC   GL248950  36.208  28.753   5.760
 3669POPC   C1A48951  36.114  29.002   6.257
 3669POPC   D2A48952  36.256  29.098   6.693
 3669POPC   C3A48953  36.097  29.103   7.104
 3669POPC   C4A48954  36.263  29.178   7.494
 3669POPC   C1B48955  36.549  28.795   6.062
 3669POPC   C2B48956  36.585  28.743   6.488
 3669POPC   C3B48957  36.646  28.622   6.911
 3669POPC   C4B48958  36.485  28.742   7.313
 3670POPC   NC348959  38.400  21.776   5.300
 3670POPC   PO448960  38.752  21.184   5.359
 3670POPC   GL148961  38.579  21.228   5.761
 3670POPC   GL248962  38.545  21.598   5.795
 3670POPC   C1A48963  38.390  21.144   6.171
 3670POPC   D2A48964  38.309  21.411   6.534
 3670POPC   C3A48965  38.268  21.217   6.922
 3670POPC   C4A48966  38.220  21.222   7.348
 3670POPC   C1B48967  38.714  21.547   6.214
 3670POPC   C2B48968  38.798  21.585   6.647
 3670POPC   C3B48969  38.503  21.679   6.985
 3670POPC   C4B48970  38.532  21.608   7.432
 3671POPC   NC348971  28.758  29.373   5.453
 3671POPC   PO448972  28.262  28.971   5.367
 3671POPC   GL148973  28.456  29.058   5.745
 3671POPC   GL248974  28.137  29.119   5.855
 3671POPC   C1A48975  28.524  29.194   6.197
 3671POPC   D2A48976  28.640  29.000   6.571
 3671POPC   C3A48977  28.598  29.324   6.849
 3671POPC   C4A48978  28.494  29.388   7.233
 3671POPC   C1B48979  28.027  28.991   6.257
 3671POPC   C2B48980  28.158  29.211   6.605
 3671POPC   C3B48981  28.019  29.252   7.018
 3671POPC   C4B48982  27.982  28.918   7.289
 3672POPC   NC348983   4.891   9.256   5.562
 3672POPC   PO448984   5.179   8.678   5.268
 3672POPC   GL148985   5.119   8.813   5.721
 3672POPC   GL248986   4.751   8.773   5.779
 3672POPC   C1A48987   5.168   9.127   6.122
 3672POPC   D2A48988   5.084   9.170   6.568
 3672POPC   C3A48989   5.327   9.200   6.925
 3672POPC   C4A48990   5.096   9.241   7.318
 3672POPC   C1B48991   4.958   8.627   6.178
 3672POPC   C2B48992   5.166   8.628   6.614
 3672POPC   C3B48993   5.072   8.762   7.048
 3672POPC   C4B48994   4.667   8.686   7.224
 3673POPC   NC348995  37.568  18.786   5.543
 3673POPC   PO448996  37.294  19.304   5.233
 3673POPC   GL148997  37.497  19.292   5.708
 3673POPC   GL248998  37.826  19.120   5.847
 3673POPC   C1A48999  37.452  19.239   6.181
 3673POPC   D2A49000  37.629  19.238   6.623
 3673POPC   C3A49001  37.395  19.235   7.033
 3673POPC   C4A49002  37.453  19.119   7.497
 3673POPC   C1B49003  37.881  18.945   6.271
 3673POPC   C2B49004  37.980  18.879   6.733
 3673POPC   C3B49005  37.866  19.011   7.166
 3673POPC   C4B49006  37.995  19.115   7.601
 3674POPC   NC349007   9.304   0.726   5.504
 3674POPC   PO449008   9.750   0.224   5.308
 3674POPC   GL149009   9.782   0.498   5.647
 3674POPC   GL249010  10.064   0.719   5.712
 3674POPC   C1A49011   9.761   0.459   6.112
 3674POPC   D2A49012   9.968   0.524   6.531
 3674POPC   C3A49013   9.816   0.536   6.942
 3674POPC   C4A49014   9.691   0.409   7.356
 3674POPC   C1B49015  10.200   0.753   6.142
 3674POPC   C2B49016  10.165   0.993   6.534
 3674POPC   C3B49017   9.909   1.025   6.899
 3674POPC   C4B49018   9.925   0.866   7.330
 3675POPC   NC349019   3.252   8.229   5.251
 3675POPC   PO449020   2.703   8.511   5.441
 3675POPC   GL149021   3.034   8.367   5.731
 3675POPC   GL249022   2.995   7.995   5.744
 3675POPC   C1A49023   2.949   8.406   6.179
 3675POPC   D2A49024   2.594   8.331   6.437
 3675POPC   C3A49025   2.616   8.424   6.879
 3675POPC   C4A49026   2.486   8.255   7.271
 3675POPC   C1B49027   2.890   7.906   6.207
 3675POPC   C2B49028   2.956   8.024   6.644
 3675POPC   C3B49029   2.936   8.050   7.098
 3675POPC   C4B49030   3.224   7.901   7.405
 3676POPC   NC349031   3.385  10.179   5.589
 3676POPC   PO449032   3.542  10.888   5.530
 3676POPC   GL149033   3.742  10.597   5.837
 3676POPC   GL249034   4.115  10.656   5.889
 3676POPC   C1A49035   3.657  10.307   6.181
 3676POPC   D2A49036   3.375  10.190   6.531
 3676POPC   C3A49037   3.567  10.244   6.914
 3676POPC   C4A49038   3.450  10.479   7.264
 3676POPC   C1B49039   3.964  10.700   6.314
 3676POPC   C2B49040   3.702  10.713   6.697
 3676POPC   C3B49041   3.665  10.954   7.099
 3676POPC   C4B49042   3.894  11.124   7.479
 3677POPC   NC349043  37.885   4.354   5.386
 3677POPC   PO449044  37.473   3.821   5.539
 3677POPC   GL149045  37.700   4.184   5.822
 3677POPC   GL249046  37.687   4.594   5.829
 3677POPC   C1A49047  37.985   4.258   6.166
 3677POPC   D2A49048  38.130   4.085   6.568
 3677POPC   C3A49049  38.018   4.183   7.001
 3677POPC   C4A49050  38.027   3.972   7.385
 3677POPC   C1B49051  37.571   4.534   6.285
 3677POPC   C2B49052  37.731   4.520   6.726
 3677POPC   C3B49053  37.745   4.583   7.198
 3677POPC   C4B49054  37.593   4.484   7.628
 3678POPC   NC349055  11.712   4.197   5.579
 3678POPC   PO449056  11.108   4.524   5.408
 3678POPC   GL149057  10.992   4.204   5.719
 3678POPC   GL249058  11.176   3.880   5.705
 3678POPC   C1A49059  11.124   4.208   6.149
 3678POPC   D2A49060  11.030   3.999   6.539
 3678POPC   C3A49061  11.063   4.330   6.852
 3678POPC   C4A49062  11.266   4.352   7.235
 3678POPC   C1B49063  11.434   3.807   6.104
 3678POPC   C2B49064  11.554   3.908   6.553
 3678POPC   C3B49065  11.338   3.887   6.965
 3678POPC   C4B49066  11.534   3.844   7.367
 3679POPC   NC349067  35.937  23.923   5.666
 3679POPC   PO449068  36.629  23.790   5.395
 3679POPC   GL149069  36.384  23.730   5.766
 3679POPC   GL249070  36.209  23.444   5.800
 3679POPC   C1A49071  36.245  23.757   6.220
 3679POPC   D2A49072  35.902  23.744   6.541
 3679POPC   C3A49073  36.054  23.823   6.977
 3679POPC   C4A49074  36.143  24.044   7.377
 3679POPC   C1B49075  35.876  23.356   6.134
 3679POPC   C2B49076  35.630  23.322   6.512
 3679POPC   C3B49077  35.802  23.367   6.924
 3679POPC   C4B49078  35.839  23.097   7.274
 3680POPC   NC349079   1.277   9.629   5.370
 3680POPC   PO449080   1.245   9.024   4.989
 3680POPC   GL149081   1.244   8.988   5.507
 3680POPC   GL249082   1.489   9.234   5.623
 3680POPC   C1A49083   1.284   8.940   6.030
 3680POPC   D2A49084   1.316   8.836   6.511
 3680POPC   C3A49085   1.094   8.957   6.914
 3680POPC   C4A49086   1.124   8.817   7.362
 3680POPC   C1B49087   1.629   9.302   6.032
 3680POPC   C2B49088   1.532   9.297   6.455
 3680POPC   C3B49089   1.533   9.411   6.873
 3680POPC   C4B49090   1.471   9.159   7.214
 3681POPC   NC349091  22.175  10.160   5.301
 3681POPC   PO449092  22.353  10.785   5.644
 3681POPC   GL149093  22.105  10.522   5.885
 3681POPC   GL249094  21.944  10.800   5.992
 3681POPC   C1A49095  22.096  10.232   6.240
 3681POPC   D2A49096  22.223  10.177   6.653
 3681POPC   C3A49097  22.290  10.561   6.877
 3681POPC   C4A49098  22.299  10.782   7.252
 3681POPC   C1B49099  21.814  10.613   6.360
 3681POPC   C2B49100  21.808  10.475   6.777
 3681POPC   C3B49101  21.898  10.468   7.233
 3681POPC   C4B49102  21.858  10.564   7.719
 3682POPC   NC349103  20.852   8.693   5.359
 3682POPC   PO449104  21.199   9.202   5.356
 3682POPC   GL149105  21.368   8.987   5.676
 3682POPC   GL249106  21.074   9.019   5.850
 3682POPC   C1A49107  21.575   9.088   6.065
 3682POPC   D2A49108  21.623   9.286   6.467
 3682POPC   C3A49109  21.444   9.094   6.843
 3682POPC   C4A49110  21.502   8.819   7.199
 3682POPC   C1B49111  21.158   8.887   6.294
 3682POPC   C2B49112  21.196   8.674   6.699
 3682POPC   C3B49113  21.037   8.627   7.129
 3682POPC   C4B49114  21.168   8.689   7.576
 3683POPC   NC349115  14.345  21.826   5.438
 3683POPC   PO449116  14.087  22.474   5.500
 3683POPC   GL149117  14.177  22.191   5.830
 3683POPC   GL249118  14.535  22.131   5.863
 3683POPC   C1A49119  14.217  22.215   6.266
 3683POPC   D2A49120  14.519  22.149   6.557
 3683POPC   C3A49121  14.305  22.182   6.926
 3683POPC   C4A49122  14.448  22.238   7.331
 3683POPC   C1B49123  14.665  22.479   6.189
 3683POPC   C2B49124  14.919  22.470   6.585
 3683POPC   C3B49125  14.832  22.220   6.951
 3683POPC   C4B49126  14.664  21.835   7.115
 3684POPC   NC349127   8.573  30.168   5.493
 3684POPC   PO449128   8.012  29.831   5.529
 3684POPC   GL149129   8.299  29.835   5.827
 3684POPC   GL249130   8.633  29.696   5.813
 3684POPC   C1A49131   8.260  29.694   6.216
 3684POPC   D2A49132   8.225  29.897   6.562
 3684POPC   C3A49133   8.066  29.704   6.872
 3684POPC   C4A49134   8.149  29.779   7.254
 3684POPC   C1B49135   8.653  30.056   6.129
 3684POPC   C2B49136   8.632  30.230   6.549
 3684POPC   C3B49137   8.546  30.017   6.943
 3684POPC   C4B49138   8.725  29.868   7.304
 3685POPC   NC349139  33.018  44.714   5.248
 3685POPC   PO449140  32.498  44.436   5.501
 3685POPC   GL149141  32.862  44.512   5.827
 3685POPC   GL249142  33.116  44.243   5.930
 3685POPC   C1A49143  33.067  44.661   6.235
 3685POPC   D2A49144  32.953  44.790   6.667
 3685POPC   C3A49145  33.186  44.899   7.072
 3685POPC   C4A49146  32.983   0.123   7.442
 3685POPC   C1B49147  32.793  44.220   6.257
 3685POPC   C2B49148  32.693  44.351   6.706
 3685POPC   C3B49149  32.960  44.448   7.058
 3685POPC   C4B49150  33.327  44.279   7.273
 3686POPC   NC349151  35.772  13.135   5.449
 3686POPC   PO449152  36.130  12.599   5.183
 3686POPC   GL149153  36.025  12.694   5.606
 3686POPC   GL249154  36.224  12.509   5.808
 3686POPC   C1A49155  35.845  12.809   6.023
 3686POPC   D2A49156  35.922  12.963   6.433
 3686POPC   C3A49157  35.746  13.031   6.816
 3686POPC   C4A49158  36.073  13.135   7.136
 3686POPC   C1B49159  36.306  12.670   6.216
 3686POPC   C2B49160  36.316  12.611   6.667
 3686POPC   C3B49161  36.043  12.642   6.998
 3686POPC   C4B49162  36.072  12.634   7.455
 3687POPC   NC349163  26.483  24.012   5.068
 3687POPC   PO449164  26.922  23.929   5.531
 3687POPC   GL149165  26.964  23.592   5.861
 3687POPC   GL249166  26.685  23.333   5.881
 3687POPC   C1A49167  27.168  23.704   6.254
 3687POPC   D2A49168  27.004  23.870   6.622
 3687POPC   C3A49169  27.133  23.696   7.002
 3687POPC   C4A49170  27.027  23.944   7.354
 3687POPC   C1B49171  26.753  23.404   6.336
 3687POPC   C2B49172  26.706  23.477   6.772
 3687POPC   C3B49173  26.642  23.866   7.000
 3687POPC   C4B49174  26.276  24.032   7.139
 3688POPC   NC349175   8.489  15.313   5.409
 3688POPC   PO449176   8.514  14.622   5.482
 3688POPC   GL149177   8.489  14.913   5.800
 3688POPC   GL249178   8.346  15.228   5.901
 3688POPC   C1A49179   8.451  14.812   6.217
 3688POPC   D2A49180   8.135  14.729   6.541
 3688POPC   C3A49181   8.270  14.807   6.955
 3688POPC   C4A49182   8.019  14.763   7.320
 3688POPC   C1B49183   8.060  15.152   6.254
 3688POPC   C2B49184   8.093  15.261   6.706
 3688POPC   C3B49185   8.028  15.256   7.169
 3688POPC   C4B49186   8.267  15.360   7.547
 3689POPC   NC349187  19.460  43.717   5.377
 3689POPC   PO449188  20.165  43.995   5.315
 3689POPC   GL149189  19.968  43.923   5.702
 3689POPC   GL249190  19.845  43.573   5.708
 3689POPC   C1A49191  19.964  43.953   6.151
 3689POPC   D2A49192  19.856  44.144   6.548
 3689POPC   C3A49193  19.927  43.878   6.886
 3689POPC   C4A49194  19.885  44.038   7.275
 3689POPC   C1B49195  19.608  43.547   6.072
 3689POPC   C2B49196  19.568  43.751   6.446
 3689POPC   C3B49197  19.488  43.602   6.815
 3689POPC   C4B49198  19.616  43.611   7.219
 3690POPC   NC349199  25.262  12.260   5.050
 3690POPC   PO449200  25.464  11.842   5.466
 3690POPC   GL149201  25.256  12.057   5.790
 3690POPC   GL249202  25.203  12.420   5.766
 3690POPC   C1A49203  25.478  12.094   6.176
 3690POPC   D2A49204  25.476  11.763   6.495
 3690POPC   C3A49205  25.315  11.883   6.891
 3690POPC   C4A49206  25.426  11.968   7.295
 3690POPC   C1B49207  24.932  12.364   6.167
 3690POPC   C2B49208  24.867  12.321   6.649
 3690POPC   C3B49209  25.088  12.318   7.092
 3690POPC   C4B49210  25.307  12.439   7.492
 3691POPC   NC349211  36.410  43.788   5.476
 3691POPC   PO449212  35.761  43.808   5.517
 3691POPC   GL149213  35.824  43.957   5.910
 3691POPC   GL249214  36.131  43.716   5.916
 3691POPC   C1A49215  35.969  43.939   6.336
 3691POPC   D2A49216  36.218  43.750   6.633
 3691POPC   C3A49217  35.996  43.826   6.981
 3691POPC   C4A49218  35.835  44.197   7.199
 3691POPC   C1B49219  36.488  43.597   6.201
 3691POPC   C2B49220  36.523  43.330   6.592
 3691POPC   C3B49221  36.541  43.525   6.995
 3691POPC   C4B49222  36.433  43.860   7.275
 3692POPC   NC349223   8.223  32.123   5.485
 3692POPC   PO449224   8.108  31.401   5.425
 3692POPC   GL149225   8.193  31.407   5.809
 3692POPC   GL249226   8.333  31.740   5.808
 3692POPC   C1A49227   8.045  31.254   6.191
 3692POPC   D2A49228   7.803  31.394   6.508
 3692POPC   C3A49229   7.988  31.421   6.901
 3692POPC   C4A49230   8.230  31.204   7.195
 3692POPC   C1B49231   8.072  31.783   6.153
 3692POPC   C2B49232   8.220  31.710   6.528
 3692POPC   C3B49233   8.225  31.897   6.884
 3692POPC   C4B49234   8.223  31.753   7.234
 3693POPC   NC349235  28.785  26.358   5.620
 3693POPC   PO449236  29.363  26.526   5.554
 3693POPC   GL149237  29.105  26.759   5.843
 3693POPC   GL249238  29.255  27.084   5.881
 3693POPC   C1A49239  28.855  26.730   6.226
 3693POPC   D2A49240  29.044  26.645   6.636
 3693POPC   C3A49241  28.998  26.807   7.042
 3693POPC   C4A49242  29.378  26.714   7.294
 3693POPC   C1B49243  29.282  27.010   6.335
 3693POPC   C2B49244  29.319  27.262   6.708
 3693POPC   C3B49245  29.472  27.192   7.110
 3693POPC   C4B49246  29.146  27.148   7.409
 3694POPC   NC349247   6.432  13.947   5.021
 3694POPC   PO449248   6.868  13.589   5.281
 3694POPC   GL149249   6.718  13.450   5.807
 3694POPC   GL249250   6.400  13.609   5.908
 3694POPC   C1A49251   6.612  13.301   6.237
 3694POPC   D2A49252   6.749  13.511   6.605
 3694POPC   C3A49253   6.470  13.528   6.949
 3694POPC   C4A49254   6.661  13.364   7.279
 3694POPC   C1B49255   6.575  13.844   6.230
 3694POPC   C2B49256   6.664  14.100   6.560
 3694POPC   C3B49257   6.815  13.922   6.926
 3694POPC   C4B49258   6.716  13.856   7.308
 3695POPC   NC349259  36.579  30.852   5.495
 3695POPC   PO449260  37.047  30.548   5.164
 3695POPC   GL149261  37.071  30.629   5.617
 3695POPC   GL249262  37.208  30.389   5.847
 3695POPC   C1A49263  37.113  30.914   5.992
 3695POPC   D2A49264  37.197  30.884   6.457
 3695POPC   C3A49265  36.988  31.008   6.839
 3695POPC   C4A49266  37.023  30.906   7.260
 3695POPC   C1B49267  36.838  30.502   6.123
 3695POPC   C2B49268  36.748  30.636   6.555
 3695POPC   C3B49269  36.905  30.504   6.968
 3695POPC   C4B49270  36.647  30.500   7.357
 3696POPC   NC349271   3.139  15.086   5.558
 3696POPC   PO449272   3.615  15.577   5.245
 3696POPC   GL149273   3.665  15.265   5.658
 3696POPC   GL249274   3.434  15.213   5.929
 3696POPC   C1A49275   3.848  15.366   6.119
 3696POPC   D2A49276   3.641  15.203   6.524
 3696POPC   C3A49277   3.747  15.382   6.922
 3696POPC   C4A49278   3.883  15.534   7.305
 3696POPC   C1B49279   3.178  15.307   6.268
 3696POPC   C2B49280   3.094  15.117   6.655
 3696POPC   C3B49281   3.194  15.255   7.061
 3696POPC   C4B49282   3.146  15.439   7.461
 3697POPC   NC349283  31.539  28.594   5.480
 3697POPC   PO449284  30.896  28.313   5.412
 3697POPC   GL149285  31.111  28.180   5.815
 3697POPC   GL249286  31.492  28.233   5.846
 3697POPC   C1A49287  31.223  28.196   6.277
 3697POPC   D2A49288  31.484  28.249   6.649
 3697POPC   C3A49289  31.327  28.208   7.072
 3697POPC   C4A49290  31.191  28.367   7.476
 3697POPC   C1B49291  31.642  28.512   6.203
 3697POPC   C2B49292  31.804  28.651   6.634
 3697POPC   C3B49293  31.820  28.438   7.054
 3697POPC   C4B49294  31.760  28.258   7.459
 3698POPC   NC349295  18.483  28.617   5.491
 3698POPC   PO449296  18.953  29.123   5.603
 3698POPC   GL149297  19.133  28.936   5.935
 3698POPC   GL249298  18.787  28.984   6.098
 3698POPC   C1A49299  19.217  28.875   6.353
 3698POPC   D2A49300  18.906  28.922   6.642
 3698POPC   C3A49301  19.059  28.967   7.072
 3698POPC   C4A49302  18.736  28.831   7.322
 3698POPC   C1B49303  19.048  29.349   6.296
 3698POPC   C2B49304  19.114  29.378   6.755
 3698POPC   C3B49305  18.995  29.564   7.104
 3698POPC   C4B49306  18.846  29.349   7.444
 3699POPC   NC349307  26.651   3.032   5.495
 3699POPC   PO449308  26.925   2.460   5.542
 3699POPC   GL149309  26.816   2.709   5.877
 3699POPC   GL249310  26.992   3.019   5.844
 3699POPC   C1A49311  26.822   2.796   6.301
 3699POPC   D2A49312  26.840   2.960   6.685
 3699POPC   C3A49313  26.653   2.662   6.932
 3699POPC   C4A49314  26.481   2.573   7.315
 3699POPC   C1B49315  26.981   3.269   6.200
 3699POPC   C2B49316  27.192   3.337   6.567
 3699POPC   C3B49317  27.284   3.066   6.902
 3699POPC   C4B49318  26.945   2.954   7.214
 3700POPC   NC349319   1.318  19.938   5.352
 3700POPC   PO449320   0.885  20.401   5.578
 3700POPC   GL149321   1.117  20.091   5.849
 3700POPC   GL249322   1.256  19.728   5.808
 3700POPC   C1A49323   1.031  19.874   6.257
 3700POPC   D2A49324   0.987  19.471   6.481
 3700POPC   C3A49325   1.015  19.599   6.899
 3700POPC   C4A49326   1.175  19.998   7.032
 3700POPC   C1B49327   1.434  19.547   6.200
 3700POPC   C2B49328   1.428  19.727   6.641
 3700POPC   C3B49329   1.518  19.623   7.110
 3700POPC   C4B49330   1.501  19.632   7.633
 3701POPC   NC349331  22.861   1.578   5.393
 3701POPC   PO449332  23.233   2.162   5.631
 3701POPC   GL149333  23.031   1.800   5.854
 3701POPC   GL249334  22.681   1.701   5.841
 3701POPC   C1A49335  22.912   1.664   6.282
 3701POPC   D2A49336  22.964   2.007   6.555
 3701POPC   C3A49337  23.317   2.097   6.783
 3701POPC   C4A49338  23.095   2.052   7.132
 3701POPC   C1B49339  22.622   2.079   6.132
 3701POPC   C2B49340  22.502   2.254   6.552
 3701POPC   C3B49341  22.588   2.118   6.974
 3701POPC   C4B49342  22.692   2.351   7.325
 3702POPC   NC349343   0.411  13.995   5.369
 3702POPC   PO449344   0.678  14.583   5.164
 3702POPC   GL149345   0.571  14.445   5.611
 3702POPC   GL249346   0.222  14.338   5.690
 3702POPC   C1A49347   0.682  14.296   6.046
 3702POPC   D2A49348   0.666  14.169   6.496
 3702POPC   C3A49349   0.759  14.430   6.872
 3702POPC   C4A49350   0.666  14.376   7.318
 3702POPC   C1B49351   0.163  14.273   6.145
 3702POPC   C2B49352   0.271  14.484   6.525
 3702POPC   C3B49353   0.231  14.422   6.962
 3702POPC   C4B49354   0.203  14.601   7.369
 3703POPC   NC349355  36.312  12.218   5.396
 3703POPC   PO449356  35.887  11.713   5.577
 3703POPC   GL149357  36.021  12.024   5.804
 3703POPC   GL249358  36.369  12.012   5.858
 3703POPC   C1A49359  35.832  12.302   6.067
 3703POPC   D2A49360  35.868  12.469   6.461
 3703POPC   C3A49361  35.927  12.188   6.781
 3703POPC   C4A49362  35.849  12.223   7.206
 3703POPC   C1B49363  36.287  12.161   6.243
 3703POPC   C2B49364  36.424  12.105   6.618
 3703POPC   C3B49365  36.693  12.281   6.875
 3703POPC   C4B49366  36.355  12.232   7.154
 3704POPC   NC349367  20.385  34.820   5.601
 3704POPC   PO449368  20.891  34.380   5.340
 3704POPC   GL149369  20.663  34.404   5.737
 3704POPC   GL249370  20.729  34.725   5.961
 3704POPC   C1A49371  20.543  34.286   6.157
 3704POPC   D2A49372  20.686  34.398   6.558
 3704POPC   C3A49373  20.464  34.370   6.929
 3704POPC   C4A49374  20.609  34.296   7.324
 3704POPC   C1B49375  20.844  34.874   6.392
 3704POPC   C2B49376  20.687  34.856   6.845
 3704POPC   C3B49377  20.853  34.824   7.284
 3704POPC   C4B49378  20.915  35.016   7.729
 3705POPC   NC349379  36.683  21.334   5.409
 3705POPC   PO449380  37.367  21.146   5.559
 3705POPC   GL149381  37.033  21.236   5.786
 3705POPC   GL249382  36.868  21.534   5.840
 3705POPC   C1A49383  37.071  21.289   6.234
 3705POPC   D2A49384  37.245  21.228   6.628
 3705POPC   C3A49385  36.895  21.166   6.906
 3705POPC   C4A49386  36.528  21.104   7.153
 3705POPC   C1B49387  37.011  21.804   6.192
 3705POPC   C2B49388  37.169  21.927   6.605
 3705POPC   C3B49389  37.069  21.638   6.930
 3705POPC   C4B49390  36.845  21.530   7.269
 3706POPC   NC349391  43.372  38.753   5.565
 3706POPC   PO449392  43.908  39.098   5.258
 3706POPC   GL149393  43.770  39.098   5.684
 3706POPC   GL249394  44.061  38.965   5.815
 3706POPC   C1A49395  43.755  39.337   6.123
 3706POPC   D2A49396  43.832  39.485   6.594
 3706POPC   C3A49397  44.144  39.471   6.988
 3706POPC   C4A49398  44.110  39.513   7.496
 3706POPC   C1B49399  43.804  38.836   6.134
 3706POPC   C2B49400  43.649  38.990   6.514
 3706POPC   C3B49401  43.829  38.902   6.907
 3706POPC   C4B49402  44.004  39.054   7.274
 3707POPC   NC349403  24.035  20.934   5.507
 3707POPC   PO449404  23.394  21.336   5.561
 3707POPC   GL149405  23.757  21.472   5.817
 3707POPC   GL249406  23.899  21.168   5.933
 3707POPC   C1A49407  23.941  21.625   6.236
 3707POPC   D2A49408  23.746  21.654   6.658
 3707POPC   C3A49409  23.848  21.653   7.095
 3707POPC   C4A49410  23.807  21.546   7.512
 3707POPC   C1B49411  23.965  21.137   6.363
 3707POPC   C2B49412  23.660  21.153   6.691
 3707POPC   C3B49413  23.738  21.148   7.129
 3707POPC   C4B49414  24.084  20.858   7.084
 3708POPC   NC349415  42.090   8.312   5.430
 3708POPC   PO449416  42.723   7.915   5.433
 3708POPC   GL149417  42.417   8.099   5.764
 3708POPC   GL249418  42.192   8.374   5.920
 3708POPC   C1A49419  42.326   7.959   6.173
 3708POPC   D2A49420  42.114   7.947   6.569
 3708POPC   C3A49421  42.418   8.064   6.876
 3708POPC   C4A49422  42.447   8.018   7.313
 3708POPC   C1B49423  42.066   8.394   6.312
 3708POPC   C2B49424  42.241   8.516   6.674
 3708POPC   C3B49425  42.212   8.530   7.085
 3708POPC   C4B49426  42.439   8.770   7.344
 3709POPC   NC349427   9.980  11.870   5.579
 3709POPC   PO449428   9.295  11.690   5.505
 3709POPC   GL149429   9.495  11.917   5.831
 3709POPC   GL249430   9.602  11.597   5.933
 3709POPC   C1A49431   9.749  11.974   6.240
 3709POPC   D2A49432   9.989  12.027   6.591
 3709POPC   C3A49433   9.942  12.383   6.870
 3709POPC   C4A49434  10.042  12.235   7.267
 3709POPC   C1B49435   9.294  11.731   6.277
 3709POPC   C2B49436   9.318  11.931   6.679
 3709POPC   C3B49437   9.647  11.988   6.970
 3709POPC   C4B49438  10.057  11.741   7.051
 3710POPC   NC349439  13.165  27.010   5.101
 3710POPC   PO449440  12.682  26.653   5.377
 3710POPC   GL149441  12.615  26.794   5.754
 3710POPC   GL249442  12.762  26.480   5.866
 3710POPC   C1A49443  12.800  26.906   6.156
 3710POPC   D2A49444  12.888  27.138   6.510
 3710POPC   C3A49445  13.038  26.913   6.870
 3710POPC   C4A49446  13.030  27.075   7.284
 3710POPC   C1B49447  12.435  26.500   6.171
 3710POPC   C2B49448  12.444  26.665   6.596
 3710POPC   C3B49449  12.422  26.566   7.030
 3710POPC   C4B49450  12.774  26.659   7.241
 3711POPC   NC349451  27.553  28.079   5.300
 3711POPC   PO449452  27.385  28.635   5.549
 3711POPC   GL149453  27.724  28.403   5.797
 3711POPC   GL249454  28.008  28.112   5.776
 3711POPC   C1A49455  27.681  28.262   6.218
 3711POPC   D2A49456  27.553  28.432   6.630
 3711POPC   C3A49457  27.289  28.475   6.984
 3711POPC   C4A49458  27.582  28.557   7.320
 3711POPC   C1B49459  28.170  28.271   6.137
 3711POPC   C2B49460  28.081  28.490   6.504
 3711POPC   C3B49461  27.975  28.232   6.841
 3711POPC   C4B49462  27.620  28.083   7.046
 3712POPC   NC349463  17.861  20.046   5.472
 3712POPC   PO449464  18.335  19.547   5.366
 3712POPC   GL149465  18.253  19.803   5.730
 3712POPC   GL249466  17.965  19.638   5.808
 3712POPC   C1A49467  18.183  19.944   6.185
 3712POPC   D2A49468  18.071  20.100   6.612
 3712POPC   C3A49469  18.235  19.966   7.027
 3712POPC   C4A49470  18.479  20.119   7.406
 3712POPC   C1B49471  17.785  19.611   6.190
 3712POPC   C2B49472  17.955  19.574   6.607
 3712POPC   C3B49473  17.788  19.580   7.004
 3712POPC   C4B49474  17.820  19.506   7.435
 3713POPC   NC349475  44.108  21.685   5.451
 3713POPC   PO449476  43.488  21.865   5.468
 3713POPC   GL149477  43.728  21.582   5.800
 3713POPC   GL249478  44.020  21.306   5.777
 3713POPC   C1A49479  43.980  21.590   6.201
 3713POPC   D2A49480  44.120  21.413   6.588
 3713POPC   C3A49481  43.997  21.668   6.945
 3713POPC   C4A49482  43.817  21.594   7.341
 3713POPC   C1B49483  44.030  21.029   6.144
 3713POPC   C2B49484  43.842  20.976   6.570
 3713POPC   C3B49485  43.818  21.178   6.978
 3713POPC   C4B49486  44.087  21.154   7.330
 3714POPC   NC349487  11.601  25.183   5.526
 3714POPC   PO449488  11.045  25.459   5.722
 3714POPC   GL149489  11.213  25.162   5.943
 3714POPC   GL249490  11.545  25.150   6.011
 3714POPC   C1A49491  11.215  25.167   6.385
 3714POPC   D2A49492  11.072  24.944   6.685
 3714POPC   C3A49493  11.195  25.130   7.048
 3714POPC   C4A49494  11.408  25.028   7.372
 3714POPC   C1B49495  11.531  25.555   6.192
 3714POPC   C2B49496  11.639  25.724   6.613
 3714POPC   C3B49497  11.620  25.465   6.999
 3714POPC   C4B49498  11.754  25.381   7.408
 3715POPC   NC349499  32.630  36.880   5.420
 3715POPC   PO449500  33.194  37.219   5.241
 3715POPC   GL149501  33.083  37.014   5.669
 3715POPC   GL249502  32.781  37.103   5.849
 3715POPC   C1A49503  33.127  36.893   6.142
 3715POPC   D2A49504  33.200  36.991   6.594
 3715POPC   C3A49505  33.008  36.729   6.934
 3715POPC   C4A49506  33.248  36.589   7.296
 3715POPC   C1B49507  32.770  37.329   6.247
 3715POPC   C2B49508  33.006  37.481   6.600
 3715POPC   C3B49509  32.935  37.258   6.978
 3715POPC   C4B49510  32.545  37.310   7.197
 3716POPC   NC349511   6.622  13.868   5.560
 3716POPC   PO449512   6.455  14.391   5.163
 3716POPC   GL149513   6.504  14.385   5.636
 3716POPC   GL249514   6.302  14.637   5.743
 3716POPC   C1A49515   6.753  14.461   6.069
 3716POPC   D2A49516   7.051  14.496   6.455
 3716POPC   C3A49517   6.869  14.439   6.879
 3716POPC   C4A49518   6.669  14.355   7.282
 3716POPC   C1B49519   6.376  14.832   6.143
 3716POPC   C2B49520   6.504  14.639   6.531
 3716POPC   C3B49521   6.360  14.567   6.941
 3716POPC   C4B49522   6.361  14.793   7.336
 3717POPC   NC349523  44.472  35.411   5.437
 3717POPC   PO449524   0.025  35.724   5.466
 3717POPC   GL149525  44.779  35.495   5.830
 3717POPC   GL249526  44.919  35.194   5.934
 3717POPC   C1A49527  44.562  35.363   6.249
 3717POPC   D2A49528  44.706  35.442   6.674
 3717POPC   C3A49529  44.521  35.299   7.049
 3717POPC   C4A49530  44.641  35.390   7.489
 3717POPC   C1B49531   0.020  35.156   6.361
 3717POPC   C2B49532   0.123  35.170   6.803
 3717POPC   C3B49533  44.973  35.053   7.227
 3717POPC   C4B49534  44.924  35.021   7.715
 3718POPC   NC349535  17.270  44.760   5.486
 3718POPC   PO449536  17.907  44.890   5.538
 3718POPC   GL149537  17.749  44.809   5.923
 3718POPC   GL249538  17.571  44.533   5.843
 3718POPC   C1A49539  17.498  44.878   6.298
 3718POPC   D2A49540  17.484   0.096   6.712
 3718POPC   C3A49541  17.700  44.879   7.052
 3718POPC   C4A49542  17.818  44.438   7.138
 3718POPC   C1B49543  17.682  44.344   6.221
 3718POPC   C2B49544  17.626  44.510   6.644
 3718POPC   C3B49545  17.360  44.480   6.980
 3718POPC   C4B49546  17.007  44.441   7.152
 3719POPC   NC349547  43.987  40.185   5.417
 3719POPC   PO449548  43.631  39.567   5.466
 3719POPC   GL149549  43.589  39.804   5.808
 3719POPC   GL249550  43.503  40.135   5.762
 3719POPC   C1A49551  43.709  39.843   6.214
 3719POPC   D2A49552  43.913  40.033   6.543
 3719POPC   C3A49553  43.751  39.892   6.909
 3719POPC   C4A49554  44.041  39.927   7.212
 3719POPC   C1B49555  43.680  40.353   6.131
 3719POPC   C2B49556  43.748  40.521   6.549
 3719POPC   C3B49557  43.841  40.396   6.976
 3719POPC   C4B49558  43.620  40.246   7.346
 3720POPC   NC349559  16.891  21.641   5.431
 3720POPC   PO449560  16.969  21.055   5.556
 3720POPC   GL149561  16.620  21.321   5.769
 3720POPC   GL249562  16.704  21.663   5.886
 3720POPC   C1A49563  16.582  21.305   6.228
 3720POPC   D2A49564  16.882  21.248   6.534
 3720POPC   C3A49565  16.696  21.226   6.904
 3720POPC   C4A49566  16.904  21.326   7.238
 3720POPC   C1B49567  16.750  21.810   6.285
 3720POPC   C2B49568  16.578  21.658   6.646
 3720POPC   C3B49569  16.575  21.709   7.077
 3720POPC   C4B49570  16.955  21.858   7.208
 3721POPC   NC349571  29.630  24.065   5.186
 3721POPC   PO449572  29.957  24.643   5.293
 3721POPC   GL149573  29.857  24.492   5.726
 3721POPC   GL249574  30.199  24.415   5.819
 3721POPC   C1A49575  29.695  24.475   6.174
 3721POPC   D2A49576  29.886  24.532   6.603
 3721POPC   C3A49577  29.612  24.469   6.968
 3721POPC   C4A49578  29.324  24.233   7.227
 3721POPC   C1B49579  30.107  24.167   6.220
 3721POPC   C2B49580  30.169  24.083   6.676
 3721POPC   C3B49581  30.136  24.361   7.030
 3721POPC   C4B49582  30.101  24.517   7.458
 3722POPC   NC349583  22.458  40.670   5.563
 3722POPC   PO449584  22.111  41.223   5.502
 3722POPC   GL149585  22.050  40.969   5.863
 3722POPC   GL249586  22.003  40.578   5.799
 3722POPC   C1A49587  22.176  41.080   6.300
 3722POPC   D2A49588  22.363  40.751   6.578
 3722POPC   C3A49589  22.281  40.844   7.004
 3722POPC   C4A49590  22.466  40.675   7.356
 3722POPC   C1B49591  21.946  40.632   6.267
 3722POPC   C2B49592  21.843  40.827   6.695
 3722POPC   C3B49593  21.806  40.813   7.182
 3722POPC   C4B49594  22.003  40.582   7.564
 3723POPC   NC349595  27.490  26.546   5.362
 3723POPC   PO449596  27.672  25.909   5.348
 3723POPC   GL149597  27.809  25.945   5.770
 3723POPC   GL249598  27.832  26.318   5.758
 3723POPC   C1A49599  27.660  25.730   6.169
 3723POPC   D2A49600  27.344  25.663   6.512
 3723POPC   C3A49601  27.393  25.872   6.921
 3723POPC   C4A49602  27.766  25.819   7.227
 3723POPC   C1B49603  27.631  26.239   6.140
 3723POPC   C2B49604  27.660  26.084   6.538
 3723POPC   C3B49605  27.784  26.235   6.933
 3723POPC   C4B49606  27.489  26.242   7.271
 3724POPC   NC349607  44.213  22.678   5.409
 3724POPC   PO449608  43.521  22.714   5.468
 3724POPC   GL149609  43.877  22.851   5.776
 3724POPC   GL249610  44.172  22.632   5.905
 3724POPC   C1A49611  43.988  23.012   6.196
 3724POPC   D2A49612  43.713  23.043   6.550
 3724POPC   C3A49613  43.896  23.122   6.985
 3724POPC   C4A49614  43.770  23.181   7.433
 3724POPC   C1B49615  44.165  22.537   6.326
 3724POPC   C2B49616  44.187  22.813   6.652
 3724POPC   C3B49617  44.109  22.653   7.021
 3724POPC   C4B49618  43.909  22.718   7.361
 3725POPC   NC349619  31.349   2.672   5.266
 3725POPC   PO449620  31.846   2.488   5.473
 3725POPC   GL149621  31.458   2.587   5.774
 3725POPC   GL249622  31.212   2.886   5.792
 3725POPC   C1A49623  31.270   2.588   6.234
 3725POPC   D2A49624  31.217   2.458   6.701
 3725POPC   C3A49625  31.286   2.754   7.045
 3725POPC   C4A49626  31.573   2.868   7.382
 3725POPC   C1B49627  31.336   3.098   6.246
 3725POPC   C2B49628  31.405   3.194   6.731
 3725POPC   C3B49629  31.271   3.252   7.186
 3725POPC   C4B49630  31.315   3.221   7.661
 3726POPC   NC349631  34.292  14.863   5.387
 3726POPC   PO449632  34.938  14.743   5.530
 3726POPC   GL149633  34.590  14.583   5.782
 3726POPC   GL249634  34.463  14.222   5.832
 3726POPC   C1A49635  34.460  14.561   6.207
 3726POPC   D2A49636  34.705  14.608   6.546
 3726POPC   C3A49637  34.556  14.562   6.972
 3726POPC   C4A49638  34.898  14.330   7.206
 3726POPC   C1B49639  34.278  14.078   6.220
 3726POPC   C2B49640  34.294  14.250   6.643
 3726POPC   C3B49641  34.425  14.090   7.072
 3726POPC   C4B49642  34.459  14.359   7.466
 3727POPC   NC349643  18.805  29.563   5.527
 3727POPC   PO449644  19.342  29.980   5.350
 3727POPC   GL149645  19.246  29.797   5.717
 3727POPC   GL249646  19.017  30.063   5.776
 3727POPC   C1A49647  19.382  29.888   6.125
 3727POPC   D2A49648  19.390  29.735   6.533
 3727POPC   C3A49649  19.384  29.895   6.965
 3727POPC   C4A49650  19.378  29.792   7.467
 3727POPC   C1B49651  18.883  29.841   6.167
 3727POPC   C2B49652  18.900  29.822   6.623
 3727POPC   C3B49653  18.887  30.066   7.001
 3727POPC   C4B49654  19.169  30.213   7.300
 3728POPC   NC349655  41.675  39.347   5.349
 3728POPC   PO449656  41.107  39.404   5.692
 3728POPC   GL149657  41.485  39.201   5.820
 3728POPC   GL249658  41.841  39.261   5.817
 3728POPC   C1A49659  41.592  39.009   6.189
 3728POPC   D2A49660  41.438  39.132   6.568
 3728POPC   C3A49661  41.642  39.052   6.922
 3728POPC   C4A49662  41.434  38.963   7.316
 3728POPC   C1B49663  41.728  39.508   6.192
 3728POPC   C2B49664  41.886  39.429   6.598
 3728POPC   C3B49665  41.773  39.542   7.009
 3728POPC   C4B49666  41.855  39.772   7.359
 3729POPC   NC349667   3.649  43.049   5.281
 3729POPC   PO449668   3.235  43.563   5.341
 3729POPC   GL149669   3.499  43.329   5.697
 3729POPC   GL249670   3.444  42.977   5.782
 3729POPC   C1A49671   3.637  43.280   6.169
 3729POPC   D2A49672   3.455  43.252   6.609
 3729POPC   C3A49673   3.475  43.484   7.016
 3729POPC   C4A49674   3.269  43.430   7.425
 3729POPC   C1B49675   3.594  42.774   6.208
 3729POPC   C2B49676   3.553  42.758   6.671
 3729POPC   C3B49677   3.449  42.970   7.072
 3729POPC   C4B49678   3.709  43.179   7.376
 3730POPC   NC349679   2.689  36.491   5.230
 3730POPC   PO449680   3.100  35.918   5.202
 3730POPC   GL149681   2.915  36.172   5.591
 3730POPC   GL249682   2.681  36.484   5.729
 3730POPC   C1A49683   2.785  36.111   6.041
 3730POPC   D2A49684   2.824  36.221   6.474
 3730POPC   C3A49685   2.710  35.897   6.769
 3730POPC   C4A49686   2.547  35.889   7.189
 3730POPC   C1B49687   2.458  36.516   6.146
 3730POPC   C2B49688   2.384  36.477   6.589
 3730POPC   C3B49689   2.647  36.358   6.959
 3730POPC   C4B49690   2.659  36.353   7.408
 3731POPC   NC349691  32.036  43.132   5.341
 3731POPC   PO449692  32.512  43.679   5.506
 3731POPC   GL149693  32.308  43.291   5.798
 3731POPC   GL249694  31.903  43.258   5.812
 3731POPC   C1A49695  32.427  43.142   6.229
 3731POPC   D2A49696  32.748  42.929   6.534
 3731POPC   C3A49697  32.623  42.934   6.967
 3731POPC   C4A49698  32.424  43.242   7.192
 3731POPC   C1B49699  31.838  43.080   6.210
 3731POPC   C2B49700  31.880  42.852   6.549
 3731POPC   C3B49701  32.070  43.024   6.883
 3731POPC   C4B49702  31.927  43.127   7.276
 3732POPC   NC349703  13.953   2.136   5.522
 3732POPC   PO449704  14.510   1.787   5.410
 3732POPC   GL149705  14.353   1.960   5.804
 3732POPC   GL249706  14.025   1.777   5.861
 3732POPC   C1A49707  14.480   2.033   6.245
 3732POPC   D2A49708  14.482   2.196   6.676
 3732POPC   C3A49709  14.622   1.892   6.972
 3732POPC   C4A49710  14.612   2.001   7.384
 3732POPC   C1B49711  14.091   1.699   6.291
 3732POPC   C2B49712  14.176   1.779   6.725
 3732POPC   C3B49713  14.054   1.734   7.134
 3732POPC   C4B49714  14.311   1.650   7.533
 3733POPC   NC349715  44.343  23.508   5.069
 3733POPC   PO449716  43.758  23.785   5.398
 3733POPC   GL149717  43.845  23.643   5.802
 3733POPC   GL249718  43.984  23.338   5.769
 3733POPC   C1A49719  44.076  23.556   6.208
 3733POPC   D2A49720  43.971  23.466   6.608
 3733POPC   C3A49721  44.061  23.641   6.997
 3733POPC   C4A49722  44.208  23.717   7.420
 3733POPC   C1B49723  43.603  23.342   6.104
 3733POPC   C2B49724  43.403  23.459   6.506
 3733POPC   C3B49725  43.553  23.509   6.916
 3733POPC   C4B49726  43.682  23.643   7.306
 3734POPC   NC349727  42.824   8.370   5.517
 3734POPC   PO449728  43.379   8.408   5.314
 3734POPC   GL149729  43.235   8.113   5.702
 3734POPC   GL249730  42.901   8.024   5.904
 3734POPC   C1A49731  43.323   8.045   6.154
 3734POPC   D2A49732  43.041   8.061   6.499
 3734POPC   C3A49733  43.133   8.224   6.904
 3734POPC   C4A49734  42.936   7.958   7.208
 3734POPC   C1B49735  42.698   8.346   6.214
 3734POPC   C2B49736  42.762   8.519   6.667
 3734POPC   C3B49737  42.708   8.406   7.122
 3734POPC   C4B49738  42.695   8.352   7.600
 3735POPC   NC349739  12.333  25.210   5.625
 3735POPC   PO449740  12.946  25.175   5.603
 3735POPC   GL149741  12.718  24.997   5.923
 3735POPC   GL249742  13.027  24.863   6.037
 3735POPC   C1A49743  12.591  25.072   6.362
 3735POPC   D2A49744  12.635  24.873   6.764
 3735POPC   C3A49745  12.630  25.210   7.053
 3735POPC   C4A49746  12.815  25.423   7.404
 3735POPC   C1B49747  13.022  25.320   6.216
 3735POPC   C2B49748  13.164  25.546   6.563
 3735POPC   C3B49749  13.134  25.470   6.996
 3735POPC   C4B49750  13.335  25.393   7.401
 3736POPC   NC349751  39.433  38.906   5.353
 3736POPC   PO449752  39.040  39.464   5.499
 3736POPC   GL149753  39.318  39.231   5.767
 3736POPC   GL249754  39.271  38.883   5.862
 3736POPC   C1A49755  39.389  39.318   6.197
 3736POPC   D2A49756  39.201  39.284   6.592
 3736POPC   C3A49757  39.386  39.395   6.978
 3736POPC   C4A49758  39.254  39.269   7.380
 3736POPC   C1B49759  39.084  38.857   6.301
 3736POPC   C2B49760  38.800  38.949   6.671
 3736POPC   C3B49761  38.721  38.829   7.119
 3736POPC   C4B49762  38.963  38.887   7.515
 3737POPC   NC349763  33.349  39.685   5.362
 3737POPC   PO449764  32.857  40.208   5.290
 3737POPC   GL149765  33.048  40.002   5.698
 3737POPC   GL249766  33.413  40.053   5.711
 3737POPC   C1A49767  32.876  39.788   6.116
 3737POPC   D2A49768  32.759  39.536   6.520
 3737POPC   C3A49769  32.860  39.760   6.952
 3737POPC   C4A49770  32.917  40.228   7.126
 3737POPC   C1B49771  33.335  40.040   6.151
 3737POPC   C2B49772  33.202  40.112   6.577
 3737POPC   C3B49773  33.388  40.050   6.976
 3737POPC   C4B49774  33.230  39.904   7.336
 3738POPC   NC349775  27.882  24.511   5.127
 3738POPC   PO449776  27.689  24.560   5.642
 3738POPC   GL149777  27.795  24.584   6.004
 3738POPC   GL249778  27.827  24.271   6.130
 3738POPC   C1A49779  27.568  24.659   6.332
 3738POPC   D2A49780  27.680  24.432   6.697
 3738POPC   C3A49781  27.540  24.654   7.041
 3738POPC   C4A49782  27.647  24.785   7.455
 3738POPC   C1B49783  27.373  24.214   6.181
 3738POPC   C2B49784  27.193  24.350   6.558
 3738POPC   C3B49785  27.274  24.214   6.987
 3738POPC   C4B49786  27.130  24.500   7.317
 3739POPC   NC349787  21.202  27.134   5.041
 3739POPC   PO449788  21.333  27.588   5.483
 3739POPC   GL149789  21.444  27.638   5.836
 3739POPC   GL249790  21.719  27.506   5.829
 3739POPC   C1A49791  21.247  27.588   6.201
 3739POPC   D2A49792  21.205  27.886   6.501
 3739POPC   C3A49793  21.045  27.720   6.873
 3739POPC   C4A49794  21.162  27.675   7.284
 3739POPC   C1B49795  21.690  27.348   6.214
 3739POPC   C2B49796  21.585  27.549   6.592
 3739POPC   C3B49797  21.514  27.434   6.980
 3739POPC   C4B49798  21.642  27.478   7.394
 3740POPC   NC349799   1.059  14.486   5.407
 3740POPC   PO449800   1.721  14.092   5.405
 3740POPC   GL149801   1.468  14.314   5.691
 3740POPC   GL249802   1.135  14.135   5.788
 3740POPC   C1A49803   1.322  14.534   6.066
 3740POPC   D2A49804   1.058  14.522   6.432
 3740POPC   C3A49805   1.286  14.444   6.810
 3740POPC   C4A49806   1.165  14.620   7.186
 3740POPC   C1B49807   1.099  14.026   6.243
 3740POPC   C2B49808   1.090  13.983   6.714
 3740POPC   C3B49809   1.096  14.109   7.176
 3740POPC   C4B49810   1.024  14.135   7.637
 3741POPC   NC349811  34.940  34.201   5.489
 3741POPC   PO449812  35.415  33.626   5.583
 3741POPC   GL149813  35.432  33.658   5.954
 3741POPC   GL249814  35.583  33.918   6.082
 3741POPC   C1A49815  35.229  33.570   6.311
 3741POPC   D2A49816  35.362  33.482   6.693
 3741POPC   C3A49817  35.210  33.382   7.061
 3741POPC   C4A49818  35.479  33.593   7.375
 3741POPC   C1B49819  35.214  34.090   6.303
 3741POPC   C2B49820  35.037  33.902   6.657
 3741POPC   C3B49821  35.231  33.885   7.024
 3741POPC   C4B49822  35.082  33.946   7.419
 3742POPC   NC349823  30.563  21.787   5.480
 3742POPC   PO449824  30.846  21.155   5.571
 3742POPC   GL149825  30.716  21.473   5.852
 3742POPC   GL249826  30.922  21.805   5.838
 3742POPC   C1A49827  30.530  21.432   6.252
 3742POPC   D2A49828  30.351  21.590   6.622
 3742POPC   C3A49829  30.563  21.434   7.001
 3742POPC   C4A49830  30.398  21.475   7.391
 3742POPC   C1B49831  31.020  21.633   6.233
 3742POPC   C2B49832  30.927  21.486   6.644
 3742POPC   C3B49833  31.011  21.685   7.041
 3742POPC   C4B49834  30.795  21.815   7.404
 3743POPC   NC349835  15.902  12.190   5.637
 3743POPC   PO449836  15.678  11.583   5.583
 3743POPC   GL149837  15.797  11.756   5.933
 3743POPC   GL249838  16.123  11.763   5.890
 3743POPC   C1A49839  15.886  11.957   6.320
 3743POPC   D2A49840  16.148  12.112   6.629
 3743POPC   C3A49841  15.917  12.188   6.964
 3743POPC   C4A49842  15.717  11.882   7.234
 3743POPC   C1B49843  16.247  11.563   6.281
 3743POPC   C2B49844  16.063  11.600   6.669
 3743POPC   C3B49845  16.153  11.733   7.056
 3743POPC   C4B49846  16.277  11.822   7.515
 3744POPC   NC349847  34.111  12.942   5.406
 3744POPC   PO449848  33.508  12.908   5.403
 3744POPC   GL149849  33.774  12.852   5.808
 3744POPC   GL249850  34.104  13.023   5.901
 3744POPC   C1A49851  33.814  12.827   6.290
 3744POPC   D2A49852  34.005  12.900   6.723
 3744POPC   C3A49853  33.757  12.997   7.113
 3744POPC   C4A49854  33.579  12.998   7.560
 3744POPC   C1B49855  34.330  12.814   6.246
 3744POPC   C2B49856  34.389  12.553   6.610
 3744POPC   C3B49857  34.144  12.501   7.031
 3744POPC   C4B49858  33.998  12.719   7.455
 3745POPC   NC349859  41.275  43.390   5.286
 3745POPC   PO449860  41.473  44.014   5.185
 3745POPC   GL149861  41.613  43.938   5.670
 3745POPC   GL249862  41.869  43.644   5.755
 3745POPC   C1A49863  41.486  43.864   6.142
 3745POPC   D2A49864  41.230  43.832   6.580
 3745POPC   C3A49865  41.461  43.893   7.008
 3745POPC   C4A49866  41.388  44.036   7.454
 3745POPC   C1B49867  42.024  43.850   6.159
 3745POPC   C2B49868  42.090  43.981   6.602
 3745POPC   C3B49869  41.913  44.191   6.961
 3745POPC   C4B49870  41.866  44.010   7.373
 3746POPC   NC349871  37.949  28.528   5.482
 3746POPC   PO449872  37.364  28.496   5.092
 3746POPC   GL149873  37.421  28.499   5.608
 3746POPC   GL249874  37.664  28.669   5.852
 3746POPC   C1A49875  37.408  28.297   6.075
 3746POPC   D2A49876  37.453  28.412   6.544
 3746POPC   C3A49877  37.817  28.359   6.847
 3746POPC   C4A49878  37.910  27.999   7.127
 3746POPC   C1B49879  37.972  28.789   6.183
 3746POPC   C2B49880  38.195  28.702   6.546
 3746POPC   C3B49881  38.307  28.806   6.937
 3746POPC   C4B49882  37.965  28.880   7.163
 3747POPC   NC349883   9.186   4.198   5.422
 3747POPC   PO449884   8.668   4.628   5.529
 3747POPC   GL149885   9.032   4.517   5.778
 3747POPC   GL249886   8.930   4.146   5.864
 3747POPC   C1A49887   9.272   4.375   6.139
 3747POPC   D2A49888   9.066   4.223   6.514
 3747POPC   C3A49889   9.182   4.367   6.897
 3747POPC   C4A49890   9.047   4.264   7.327
 3747POPC   C1B49891   8.730   4.451   6.186
 3747POPC   C2B49892   8.538   4.376   6.585
 3747POPC   C3B49893   8.667   4.406   6.999
 3747POPC   C4B49894   8.569   4.726   7.297
 3748POPC   NC349895  29.866  17.054   5.283
 3748POPC   PO449896  29.627  17.697   5.403
 3748POPC   GL149897  29.860  17.447   5.694
 3748POPC   GL249898  30.201  17.596   5.741
 3748POPC   C1A49899  29.925  17.430   6.136
 3748POPC   D2A49900  29.989  17.615   6.517
 3748POPC   C3A49901  29.831  17.384   6.846
 3748POPC   C4A49902  29.865  17.336   7.266
 3748POPC   C1B49903  30.295  17.843   6.137
 3748POPC   C2B49904  30.452  17.822   6.586
 3748POPC   C3B49905  30.239  17.658   6.988
 3748POPC   C4B49906  30.252  17.596   7.449
 3749POPC   NC349907  32.256  22.756   5.471
 3749POPC   PO449908  31.822  23.249   5.423
 3749POPC   GL149909  31.985  23.047   5.807
 3749POPC   GL249910  31.909  22.681   5.847
 3749POPC   C1A49911  32.282  23.162   6.128
 3749POPC   D2A49912  32.116  23.347   6.469
 3749POPC   C3A49913  32.202  23.303   6.899
 3749POPC   C4A49914  31.974  23.488   7.253
 3749POPC   C1B49915  32.260  22.653   6.160
 3749POPC   C2B49916  32.359  22.875   6.562
 3749POPC   C3B49917  32.287  22.720   6.972
 3749POPC   C4B49918  32.416  22.557   7.355
 3750POPC   NC349919   0.165  35.280   5.501
 3750POPC   PO449920   0.760  35.474   5.419
 3750POPC   GL149921   0.513  35.509   5.850
 3750POPC   GL249922   0.239  35.713   5.923
 3750POPC   C1A49923   0.442  35.423   6.331
 3750POPC   D2A49924   0.635  35.251   6.721
 3750POPC   C3A49925   0.486  35.268   7.160
 3750POPC   C4A49926   0.663  35.446   7.564
 3750POPC   C1B49927  44.991  35.691   6.296
 3750POPC   C2B49928   0.091  35.771   6.740
 3750POPC   C3B49929   0.002  35.549   7.128
 3750POPC   C4B49930   0.154  35.444   7.525
 3751POPC   NC349931   8.701  20.657   5.101
 3751POPC   PO449932   8.092  20.694   5.281
 3751POPC   GL149933   8.280  20.552   5.698
 3751POPC   GL249934   8.638  20.662   5.771
 3751POPC   C1A49935   8.200  20.520   6.162
 3751POPC   D2A49936   8.186  20.744   6.570
 3751POPC   C3A49937   8.344  20.613   6.944
 3751POPC   C4A49938   8.130  20.461   7.319
 3751POPC   C1B49939   8.530  20.912   6.158
 3751POPC   C2B49940   8.627  21.038   6.576
 3751POPC   C3B49941   8.443  21.139   6.979
 3751POPC   C4B49942   8.355  20.906   7.371
 3752POPC   NC349943  37.599  10.685   5.357
 3752POPC   PO449944  37.344  10.031   5.362
 3752POPC   GL149945  37.404  10.364   5.712
 3752POPC   GL249946  37.763  10.383   5.810
 3752POPC   C1A49947  37.411  10.545   6.151
 3752POPC   D2A49948  37.477  10.294   6.569
 3752POPC   C3A49949  37.573  10.487   6.977
 3752POPC   C4A49950  37.315  10.519   7.317
 3752POPC   C1B49951  37.870  10.419   6.278
 3752POPC   C2B49952  38.017  10.382   6.688
 3752POPC   C3B49953  38.072  10.499   7.102
 3752POPC   C4B49954  37.884  10.889   7.195
 3753POPC   NC349955  28.342  38.947   5.561
 3753POPC   PO449956  28.551  39.547   5.315
 3753POPC   GL149957  28.505  39.455   5.789
 3753POPC   GL249958  28.642  39.146   5.918
 3753POPC   C1A49959  28.390  39.403   6.286
 3753POPC   D2A49960  28.479  39.136   6.676
 3753POPC   C3A49961  28.208  39.146   7.016
 3753POPC   C4A49962  28.048  39.421   7.300
 3753POPC   C1B49963  28.381  38.883   6.225
 3753POPC   C2B49964  28.529  38.617   6.543
 3753POPC   C3B49965  28.716  38.733   6.918
 3753POPC   C4B49966  28.588  38.973   7.282
 3754POPC   NC349967  43.474  31.080   5.338
 3754POPC   PO449968  44.084  30.761   5.416
 3754POPC   GL149969  43.937  30.697   5.831
 3754POPC   GL249970  43.628  30.563   5.846
 3754POPC   C1A49971  43.994  30.609   6.275
 3754POPC   D2A49972  44.107  30.976   6.522
 3754POPC   C3A49973  44.057  30.929   6.950
 3754POPC   C4A49974  44.019  30.495   7.067
 3754POPC   C1B49975  43.527  30.817   6.209
 3754POPC   C2B49976  43.616  30.810   6.661
 3754POPC   C3B49977  43.522  30.556   7.040
 3754POPC   C4B49978  43.552  30.709   7.453
 3755POPC   NC349979  14.932   9.315   5.063
 3755POPC   PO449980  15.286   9.804   5.399
 3755POPC   GL149981  15.182   9.775   5.834
 3755POPC   GL249982  14.839   9.920   5.817
 3755POPC   C1A49983  15.280   9.478   6.195
 3755POPC   D2A49984  15.177   9.385   6.630
 3755POPC   C3A49985  15.389   9.596   7.000
 3755POPC   C4A49986  15.635   9.641   7.409
 3755POPC   C1B49987  14.817   9.679   6.203
 3755POPC   C2B49988  14.902   9.826   6.621
 3755POPC   C3B49989  14.964   9.870   7.043
 3755POPC   C4B49990  15.144   9.775   7.451
 3756POPC   NC349991  33.906  10.839   5.383
 3756POPC   PO449992  33.771  10.256   5.541
 3756POPC   GL149993  33.889  10.596   5.868
 3756POPC   GL249994  34.216  10.750   5.820
 3756POPC   C1A49995  33.862  10.574   6.336
 3756POPC   D2A49996  34.038  10.439   6.733
 3756POPC   C3A49997  33.704  10.435   7.046
 3756POPC   C4A49998  33.432  10.806   7.179
 3756POPC   C1B49999  34.356  10.621   6.224
 3756POPC   C2B50000  34.491  10.789   6.626
 3756POPC   C3B50001  34.394  10.695   7.056
 3756POPC   C4B50002  34.189  10.322   7.207
 3757POPC   NC350003  35.224  31.836   5.433
 3757POPC   PO450004  35.243  31.208   5.445
 3757POPC   GL150005  35.363  31.464   5.789
 3757POPC   GL250006  35.090  31.624   5.885
 3757POPC   C1A50007  35.539  31.666   6.164
 3757POPC   D2A50008  35.613  31.445   6.527
 3757POPC   C3A50009  35.453  31.538   6.905
 3757POPC   C4A50010  35.163  31.376   7.165
 3757POPC   C1B50011  35.055  31.824   6.257
 3757POPC   C2B50012  35.208  31.914   6.658
 3757POPC   C3B50013  35.018  31.861   7.059
 3757POPC   C4B50014  34.778  31.703   7.369
 3758POPC   NC350015  14.560  13.507   5.500
 3758POPC   PO450016  14.376  14.119   5.507
 3758POPC   GL150017  14.222  13.861   5.808
 3758POPC   GL250018  14.558  13.822   5.903
 3758POPC   C1A50019  14.224  13.828   6.268
 3758POPC   D2A50020  14.469  13.720   6.627
 3758POPC   C3A50021  14.207  13.809   6.951
 3758POPC   C4A50022  14.210  13.978   7.345
 3758POPC   C1B50023  14.516  13.418   6.142
 3758POPC   C2B50024  14.476  13.193   6.510
 3758POPC   C3B50025  14.303  13.297   6.887
 3758POPC   C4B50026  14.398  13.486   7.279
 3759POPC   NC350027  25.389  33.277   5.414
 3759POPC   PO450028  24.800  33.060   5.207
 3759POPC   GL150029  24.998  33.126   5.704
 3759POPC   GL250030  25.366  32.954   5.799
 3759POPC   C1A50031  25.130  33.163   6.196
 3759POPC   D2A50032  25.246  32.940   6.614
 3759POPC   C3A50033  25.237  33.025   7.084
 3759POPC   C4A50034  25.115  33.105   7.525
 3759POPC   C1B50035  25.544  32.816   6.191
 3759POPC   C2B50036  25.764  32.824   6.575
 3759POPC   C3B50037  25.642  32.741   6.964
 3759POPC   C4B50038  25.480  32.531   7.280
 3760POPC   NC350039  34.733  39.929   5.346
 3760POPC   PO450040  34.271  39.527   5.512
 3760POPC   GL150041  34.571  39.744   5.810
 3760POPC   GL250042  34.916  39.711   5.797
 3760POPC   C1A50043  34.619  39.936   6.253
 3760POPC   D2A50044  34.438  39.889   6.710
 3760POPC   C3A50045  34.560  40.117   7.122
 3760POPC   C4A50046  34.628  40.227   7.576
 3760POPC   C1B50047  35.042  39.657   6.233
 3760POPC   C2B50048  34.964  39.867   6.638
 3760POPC   C3B50049  34.970  39.806   7.093
 3760POPC   C4B50050  34.961  39.864   7.539
 3761POPC   NC350051  31.854  27.651   5.371
 3761POPC   PO450052  31.230  27.455   5.582
 3761POPC   GL150053  31.457  27.708   5.920
 3761POPC   GL250054  31.800  27.823   5.852
 3761POPC   C1A50055  31.490  27.775   6.389
 3761POPC   D2A50056  31.204  27.808   6.770
 3761POPC   C3A50057  31.264  27.526   7.146
 3761POPC   C4A50058  31.182  27.480   7.627
 3761POPC   C1B50059  31.935  28.086   6.204
 3761POPC   C2B50060  31.998  28.150   6.662
 3761POPC   C3B50061  31.712  27.883   6.953
 3761POPC   C4B50062  31.743  27.570   7.302
 3762POPC   NC350063  43.326  22.279   5.641
 3762POPC   PO450064  42.985  22.060   5.084
 3762POPC   GL150065  43.001  21.904   5.579
 3762POPC   GL250066  42.820  22.105   5.816
 3762POPC   C1A50067  43.094  21.767   6.069
 3762POPC   D2A50068  43.012  21.732   6.540
 3762POPC   C3A50069  43.201  22.057   6.815
 3762POPC   C4A50070  43.452  21.977   7.189
 3762POPC   C1B50071  42.954  22.397   6.173
 3762POPC   C2B50072  43.221  22.508   6.481
 3762POPC   C3B50073  43.132  22.574   6.876
 3762POPC   C4B50074  43.107  22.391   7.247
 3763POPC   NC350075  31.954  32.771   5.245
 3763POPC   PO450076  32.220  32.190   5.166
 3763POPC   GL150077  32.316  32.159   5.641
 3763POPC   GL250078  32.009  32.068   5.851
 3763POPC   C1A50079  32.450  32.209   6.080
 3763POPC   D2A50080  32.396  32.308   6.520
 3763POPC   C3A50081  32.200  32.095   6.881
 3763POPC   C4A50082  32.080  32.201   7.298
 3763POPC   C1B50083  31.954  32.330   6.237
 3763POPC   C2B50084  31.786  32.300   6.654
 3763POPC   C3B50085  31.731  32.500   7.059
 3763POPC   C4B50086  31.599  32.818   7.384
 3764POPC   NC350087  42.766  34.118   5.394
 3764POPC   PO450088  43.419  33.932   5.297
 3764POPC   GL150089  43.220  33.899   5.729
 3764POPC   GL250090  42.890  33.724   5.768
 3764POPC   C1A50091  43.235  33.693   6.152
 3764POPC   D2A50092  42.995  33.658   6.550
 3764POPC   C3A50093  43.272  33.663   6.909
 3764POPC   C4A50094  43.331  33.658   7.334
 3764POPC   C1B50095  42.813  33.972   6.161
 3764POPC   C2B50096  42.772  34.148   6.610
 3764POPC   C3B50097  42.826  33.911   6.994
 3764POPC   C4B50098  42.880  33.451   7.132
 3765POPC   NC350099  33.518  18.145   5.369
 3765POPC   PO450100  33.931  18.522   5.197
 3765POPC   GL150101  33.728  18.489   5.668
 3765POPC   GL250102  33.749  18.096   5.808
 3765POPC   C1A50103  33.696  18.450   6.147
 3765POPC   D2A50104  33.764  18.145   6.516
 3765POPC   C3A50105  33.622  18.366   6.893
 3765POPC   C4A50106  33.943  18.488   7.181
 3765POPC   C1B50107  33.451  17.953   6.153
 3765POPC   C2B50108  33.283  18.005   6.581
 3765POPC   C3B50109  33.474  17.885   6.948
 3765POPC   C4B50110  33.710  18.025   7.286
 3766POPC   NC350111  38.216  41.116   5.066
 3766POPC   PO450112  38.578  41.474   5.410
 3766POPC   GL150113  38.399  41.542   5.782
 3766POPC   GL250114  38.268  41.234   5.821
 3766POPC   C1A50115  38.438  41.698   6.204
 3766POPC   D2A50116  38.668  41.551   6.564
 3766POPC   C3A50117  38.508  41.607   6.953
 3766POPC   C4A50118  38.530  41.613   7.363
 3766POPC   C1B50119  38.013  41.362   6.137
 3766POPC   C2B50120  38.082  41.506   6.547
 3766POPC   C3B50121  38.071  41.345   6.936
 3766POPC   C4B50122  37.933  41.413   7.320
 3767POPC   NC350123  40.093   4.759   5.539
 3767POPC   PO450124  40.439   5.349   5.299
 3767POPC   GL150125  40.169   5.239   5.754
 3767POPC   GL250126  40.449   5.328   5.899
 3767POPC   C1A50127  39.827   5.020   6.087
 3767POPC   D2A50128  39.731   4.713   6.452
 3767POPC   C3A50129  39.578   4.857   6.845
 3767POPC   C4A50130  39.636   4.961   7.272
 3767POPC   C1B50131  40.292   5.141   6.258
 3767POPC   C2B50132  39.973   5.172   6.568
 3767POPC   C3B50133  40.049   5.016   6.961
 3767POPC   C4B50134  40.076   5.257   7.287
 3768POPC   NC350135  23.835  16.364   5.473
 3768POPC   PO450136  23.533  16.982   5.413
 3768POPC   GL150137  23.721  16.776   5.768
 3768POPC   GL250138  23.394  16.749   5.871
 3768POPC   C1A50139  23.780  16.560   6.194
 3768POPC   D2A50140  23.951  16.614   6.627
 3768POPC   C3A50141  23.871  16.882   6.970
 3768POPC   C4A50142  23.932  16.869   7.447
 3768POPC   C1B50143  23.572  17.007   6.201
 3768POPC   C2B50144  23.470  16.896   6.617
 3768POPC   C3B50145  23.330  17.172   6.917
 3768POPC   C4B50146  23.629  17.241   7.258
 3769POPC   NC350147  18.268  17.744   5.255
 3769POPC   PO450148  17.733  17.818   5.530
 3769POPC   GL150149  18.015  17.781   5.883
 3769POPC   GL250150  18.345  17.633   5.824
 3769POPC   C1A50151  18.114  17.678   6.317
 3769POPC   D2A50152  18.280  17.844   6.696
 3769POPC   C3A50153  18.523  17.700   7.044
 3769POPC   C4A50154  18.583  17.844   7.485
 3769POPC   C1B50155  18.525  17.404   6.219
 3769POPC   C2B50156  18.387  17.336   6.667
 3769POPC   C3B50157  18.193  17.305   7.090
 3769POPC   C4B50158  18.127  17.275   7.553
 3770POPC   NC350159   8.912  14.148   5.397
 3770POPC   PO450160   9.040  13.495   5.416
 3770POPC   GL150161   9.154  13.800   5.723
 3770POPC   GL250162   8.999  14.098   5.896
 3770POPC   C1A50163   9.039  13.647   6.129
 3770POPC   D2A50164   8.829  13.569   6.472
 3770POPC   C3A50165   9.042  13.382   6.791
 3770POPC   C4A50166   8.974  13.507   7.231
 3770POPC   C1B50167   9.403  14.002   6.120
 3770POPC   C2B50168   9.471  13.753   6.490
 3770POPC   C3B50169   9.256  13.818   6.884
 3770POPC   C4B50170   9.307  13.900   7.312
 3771POPC   NC350171  35.001  32.564   5.559
 3771POPC   PO450172  35.556  32.156   5.510
 3771POPC   GL150173  35.362  32.069   5.889
 3771POPC   GL250174  35.038  32.120   5.799
 3771POPC   C1A50175  35.425  32.214   6.304
 3771POPC   D2A50176  35.639  32.547   6.560
 3771POPC   C3A50177  35.718  32.347   6.954
 3771POPC   C4A50178  35.484  32.029   7.093
 3771POPC   C1B50179  34.938  32.313   6.163
 3771POPC   C2B50180  35.126  32.606   6.410
 3771POPC   C3B50181  35.200  32.419   6.805
 3771POPC   C4B50182  35.121  32.469   7.226
 3772POPC   NC350183  40.857  40.919   5.287
 3772POPC   PO450184  40.544  40.428   5.168
 3772POPC   GL150185  40.742  40.527   5.622
 3772POPC   GL250186  40.510  40.451   5.872
 3772POPC   C1A50187  40.882  40.797   6.025
 3772POPC   D2A50188  41.019  41.036   6.430
 3772POPC   C3A50189  40.812  40.901   6.843
 3772POPC   C4A50190  40.840  40.739   7.280
 3772POPC   C1B50191  40.493  40.459   6.319
 3772POPC   C2B50192  40.346  40.707   6.676
 3772POPC   C3B50193  40.421  40.550   7.058
 3772POPC   C4B50194  40.602  40.288   7.359
 3773POPC   NC350195  24.442  38.007   5.409
 3773POPC   PO450196  24.070  37.595   5.080
 3773POPC   GL150197  24.526  37.532   5.523
 3773POPC   GL250198  24.765  37.272   5.737
 3773POPC   C1A50199  24.496  37.590   6.037
 3773POPC   D2A50200  24.695  37.749   6.438
 3773POPC   C3A50201  24.408  37.715   6.805
 3773POPC   C4A50202  24.254  37.725   7.225
 3773POPC   C1B50203  24.888  37.306   6.224
 3773POPC   C2B50204  24.714  37.284   6.676
 3773POPC   C3B50205  24.609  37.357   7.146
 3773POPC   C4B50206  24.695  37.375   7.619
 3774POPC   NC350207  24.079  20.138   5.405
 3774POPC   PO450208  23.616  20.676   5.289
 3774POPC   GL150209  23.575  20.822   5.708
 3774POPC   GL250210  23.682  20.468   5.790
 3774POPC   C1A50211  23.609  20.784   6.187
 3774POPC   D2A50212  23.863  20.669   6.569
 3774POPC   C3A50213  23.618  20.680   6.934
 3774POPC   C4A50214  23.688  20.695   7.358
 3774POPC   C1B50215  23.827  20.298   6.200
 3774POPC   C2B50216  23.883  20.028   6.574
 3774POPC   C3B50217  23.750  20.172   7.022
 3774POPC   C4B50218  23.695  20.206   7.476
 3775POPC   NC350219   2.488  10.438   5.323
 3775POPC   PO450220   3.166  10.374   5.244
 3775POPC   GL150221   2.905  10.454   5.639
 3775POPC   GL250222   2.615  10.718   5.729
 3775POPC   C1A50223   2.770  10.371   6.079
 3775POPC   D2A50224   2.518  10.495   6.448
 3775POPC   C3A50225   2.685  10.479   6.878
 3775POPC   C4A50226   2.573  10.310   7.302
 3775POPC   C1B50227   2.566  10.912   6.142
 3775POPC   C2B50228   2.670  10.963   6.616
 3775POPC   C3B50229   2.587  11.018   7.074
 3775POPC   C4B50230   2.515  10.786   7.467
 3776POPC   NC350231  36.259  31.627   5.487
 3776POPC   PO450232  36.053  30.906   5.434
 3776POPC   GL150233  36.029  31.041   5.874
 3776POPC   GL250234  36.236  31.361   5.944
 3776POPC   C1A50235  36.001  31.146   6.335
 3776POPC   D2A50236  36.118  31.481   6.614
 3776POPC   C3A50237  36.143  31.333   7.025
 3776POPC   C4A50238  36.496  31.266   7.271
 3776POPC   C1B50239  36.276  31.765   6.206
 3776POPC   C2B50240  36.460  31.888   6.633
 3776POPC   C3B50241  36.423  31.768   7.094
 3776POPC   C4B50242  36.224  31.714   7.483
 3777POPC   NC350243   4.031  15.525   5.444
 3777POPC   PO450244   4.511  15.154   5.376
 3777POPC   GL150245   4.361  15.298   5.781
 3777POPC   GL250246   4.105  15.046   5.832
 3777POPC   C1A50247   4.437  15.126   6.203
 3777POPC   D2A50248   4.539  14.933   6.581
 3777POPC   C3A50249   4.485  15.135   6.977
 3777POPC   C4A50250   4.357  15.357   7.362
 3777POPC   C1B50251   3.991  14.889   6.285
 3777POPC   C2B50252   4.044  14.926   6.761
 3777POPC   C3B50253   4.026  15.020   7.212
 3777POPC   C4B50254   3.991  15.186   7.676
 3778POPC   NC350255  35.712  19.740   5.373
 3778POPC   PO450256  36.362  20.007   5.478
 3778POPC   GL150257  36.255  19.904   5.874
 3778POPC   GL250258  35.903  19.877   5.824
 3778POPC   C1A50259  36.418  19.836   6.285
 3778POPC   D2A50260  36.209  19.630   6.630
 3778POPC   C3A50261  36.388  19.761   6.998
 3778POPC   C4A50262  36.740  19.807   7.201
 3778POPC   C1B50263  35.885  19.792   6.241
 3778POPC   C2B50264  35.682  19.892   6.599
 3778POPC   C3B50265  35.883  19.826   6.978
 3778POPC   C4B50266  36.052  19.787   7.385
 3779POPC   NC350267  22.403  44.640   5.474
 3779POPC   PO450268  21.751  44.620   5.287
 3779POPC   GL150269  21.922  44.553   5.759
 3779POPC   GL250270  22.063  44.855   5.799
 3779POPC   C1A50271  22.028  44.663   6.263
 3779POPC   D2A50272  22.251  44.821   6.629
 3779POPC   C3A50273  22.249  44.681   7.063
 3779POPC   C4A50274  22.129  44.836   7.465
 3779POPC   C1B50275  22.469  44.783   6.088
 3779POPC   C2B50276  22.669  44.570   6.449
 3779POPC   C3B50277  22.653  44.422   6.872
 3779POPC   C4B50278  22.763  44.511   7.289
 3780POPC   NC350279  17.116  10.674   4.981
 3780POPC   PO450280  17.583  10.299   5.325
 3780POPC   GL150281  17.547  10.363   5.782
 3780POPC   GL250282  17.411  10.049   5.785
 3780POPC   C1A50283  17.426  10.655   6.133
 3780POPC   D2A50284  17.674  10.777   6.498
 3780POPC   C3A50285  17.571  10.607   6.880
 3780POPC   C4A50286  17.492  10.605   7.306
 3780POPC   C1B50287  17.138  10.232   6.118
 3780POPC   C2B50288  17.155  10.450   6.551
 3780POPC   C3B50289  17.209  10.277   6.994
 3780POPC   C4B50290  17.308  10.139   7.433
 3781POPC   NC350291  42.413  43.900   5.299
 3781POPC   PO450292  42.129  43.296   5.379
 3781POPC   GL150293  42.386  43.534   5.708
 3781POPC   GL250294  42.410  43.883   5.801
 3781POPC   C1A50295  42.470  43.522   6.155
 3781POPC   D2A50296  42.549  43.704   6.559
 3781POPC   C3A50297  42.428  43.567   6.970
 3781POPC   C4A50298  42.296  43.917   7.163
 3781POPC   C1B50299  42.508  44.075   6.196
 3781POPC   C2B50300  42.503  44.350   6.552
 3781POPC   C3B50301  42.427  44.367   6.987
 3781POPC   C4B50302  42.631  44.236   7.370
 3782POPC   NC350303  14.546  22.617   5.394
 3782POPC   PO450304  14.129  23.139   5.319
 3782POPC   GL150305  14.235  22.927   5.748
 3782POPC   GL250306  14.620  22.870   5.832
 3782POPC   C1A50307  14.206  22.728   6.174
 3782POPC   D2A50308  14.202  22.589   6.620
 3782POPC   C3A50309  14.532  22.644   6.930
 3782POPC   C4A50310  14.497  22.732   7.373
 3782POPC   C1B50311  14.513  23.137   6.176
 3782POPC   C2B50312  14.445  23.054   6.612
 3782POPC   C3B50313  14.470  23.136   7.072
 3782POPC   C4B50314  14.307  23.160   7.560
 3783POPC   NC350315  38.037   8.114   5.124
 3783POPC   PO450316  37.579   7.839   5.430
 3783POPC   GL150317  37.742   7.881   5.803
 3783POPC   GL250318  37.761   8.212   5.816
 3783POPC   C1A50319  37.732   7.882   6.214
 3783POPC   D2A50320  37.794   8.158   6.522
 3783POPC   C3A50321  37.829   7.993   6.902
 3783POPC   C4A50322  37.761   8.240   7.257
 3783POPC   C1B50323  37.802   8.532   6.177
 3783POPC   C2B50324  37.945   8.645   6.619
 3783POPC   C3B50325  38.142   8.500   7.022
 3783POPC   C4B50326  38.100   8.577   7.468
 3784POPC   NC350327  20.370  40.019   5.516
 3784POPC   PO450328  20.940  40.115   5.159
 3784POPC   GL150329  20.947  40.110   5.643
 3784POPC   GL250330  20.776  39.790   5.770
 3784POPC   C1A50331  20.894  40.155   6.131
 3784POPC   D2A50332  20.993  39.954   6.559
 3784POPC   C3A50333  20.842  40.124   6.962
 3784POPC   C4A50334  20.543  40.168   7.304
 3784POPC   C1B50335  20.505  39.797   6.179
 3784POPC   C2B50336  20.525  39.798   6.653
 3784POPC   C3B50337  20.658  39.640   7.063
 3784POPC   C4B50338  20.385  39.632   7.422
 3785POPC   NC350339   9.193   6.781   5.404
 3785POPC   PO450340   8.717   6.283   5.466
 3785POPC   GL150341   8.981   6.371   5.795
 3785POPC   GL250342   8.860   6.713   5.786
 3785POPC   C1A50343   9.108   6.534   6.190
 3785POPC   D2A50344   9.032   6.868   6.458
 3785POPC   C3A50345   8.977   6.714   6.877
 3785POPC   C4A50346   9.210   6.475   7.167
 3785POPC   C1B50347   8.584   6.511   6.124
 3785POPC   C2B50348   8.699   6.423   6.558
 3785POPC   C3B50349   8.542   6.447   6.992
 3785POPC   C4B50350   8.765   6.605   7.368
 3786POPC   NC350351  23.072  16.989   5.310
 3786POPC   PO450352  22.622  16.571   5.380
 3786POPC   GL150353  22.878  16.596   5.779
 3786POPC   GL250354  22.909  16.934   5.796
 3786POPC   C1A50355  23.071  16.594   6.228
 3786POPC   D2A50356  23.182  16.453   6.654
 3786POPC   C3A50357  22.818  16.325   6.893
 3786POPC   C4A50358  22.656  16.446   7.294
 3786POPC   C1B50359  22.765  17.027   6.200
 3786POPC   C2B50360  22.905  16.885   6.647
 3786POPC   C3B50361  23.029  16.763   7.065
 3786POPC   C4B50362  23.448  16.758   7.218
 3787POPC   NC350363  12.266  34.278   5.287
 3787POPC   PO450364  11.781  34.738   5.389
 3787POPC   GL150365  11.870  34.614   5.804
 3787POPC   GL250366  11.573  34.438   5.952
 3787POPC   C1A50367  12.113  34.797   6.166
 3787POPC   D2A50368  12.345  34.903   6.560
 3787POPC   C3A50369  12.209  34.708   6.943
 3787POPC   C4A50370  11.824  34.548   7.168
 3787POPC   C1B50371  11.860  34.345   6.260
 3787POPC   C2B50372  11.912  34.393   6.671
 3787POPC   C3B50373  12.152  34.183   6.991
 3787POPC   C4B50374  12.304  34.298   7.387
 3788POPC   NC350375  19.706  40.156   5.534
 3788POPC   PO450376  20.185  39.598   5.562
 3788POPC   GL150377  20.029  39.862   5.885
 3788POPC   GL250378  19.680  39.858   5.932
 3788POPC   C1A50379  20.016  39.957   6.322
 3788POPC   D2A50380  20.145  40.123   6.690
 3788POPC   C3A50381  20.174  39.907   7.053
 3788POPC   C4A50382  20.061  40.029   7.472
 3788POPC   C1B50383  19.508  40.044   6.279
 3788POPC   C2B50384  19.645  40.216   6.662
 3788POPC   C3B50385  19.690  40.091   7.064
 3788POPC   C4B50386  19.460  40.257   7.393
 3789POPC   NC350387   5.056  14.051   5.368
 3789POPC   PO450388   5.436  13.449   5.509
 3789POPC   GL150389   5.121  13.538   5.845
 3789POPC   GL250390   4.949  13.881   5.864
 3789POPC   C1A50391   5.206  13.716   6.273
 3789POPC   D2A50392   5.276  13.513   6.641
 3789POPC   C3A50393   5.452  13.697   6.988
 3789POPC   C4A50394   5.072  13.639   7.194
 3789POPC   C1B50395   4.688  13.823   6.250
 3789POPC   C2B50396   4.817  13.816   6.701
 3789POPC   C3B50397   4.668  13.937   7.116
 3789POPC   C4B50398   4.858  13.932   7.532
 3790POPC   NC350399  21.251  10.312   5.422
 3790POPC   PO450400  21.901  10.538   5.381
 3790POPC   GL150401  21.614  10.491   5.740
 3790POPC   GL250402  21.463  10.813   5.701
 3790POPC   C1A50403  21.384  10.404   6.143
 3790POPC   D2A50404  21.342  10.618   6.558
 3790POPC   C3A50405  21.353  10.402   6.955
 3790POPC   C4A50406  21.052  10.322   7.278
 3790POPC   C1B50407  21.466  10.924   6.142
 3790POPC   C2B50408  21.643  11.040   6.552
 3790POPC   C3B50409  21.545  10.888   6.975
 3790POPC   C4B50410  21.461  10.659   7.363
 3791POPC   NC350411  12.529   2.757   5.535
 3791POPC   PO450412  13.145   2.867   5.278
 3791POPC   GL150413  13.024   2.688   5.727
 3791POPC   GL250414  12.771   2.919   5.932
 3791POPC   C1A50415  12.912   2.521   6.178
 3791POPC   D2A50416  12.876   2.869   6.465
 3791POPC   C3A50417  13.099   2.829   6.849
 3791POPC   C4A50418  12.981   2.646   7.205
 3791POPC   C1B50419  12.437   2.683   6.197
 3791POPC   C2B50420  12.343   2.843   6.583
 3791POPC   C3B50421  12.589   2.700   6.870
 3791POPC   C4B50422  12.465   2.645   7.226
 3792POPC   NC350423  38.942  28.433   5.409
 3792POPC   PO450424  38.336  28.653   5.269
 3792POPC   GL150425  38.485  28.451   5.686
 3792POPC   GL250426  38.788  28.526   5.882
 3792POPC   C1A50427  38.371  28.415   6.149
 3792POPC   D2A50428  38.163  28.171   6.477
 3792POPC   C3A50429  38.300  28.187   6.892
 3792POPC   C4A50430  38.200  28.440   7.258
 3792POPC   C1B50431  38.875  28.367   6.303
 3792POPC   C2B50432  38.637  28.480   6.647
 3792POPC   C3B50433  38.689  28.440   7.068
 3792POPC   C4B50434  39.000  28.562   7.271
 3793POPC   NC350435  12.991   6.035   5.528
 3793POPC   PO450436  12.383   5.809   5.450
 3793POPC   GL150437  12.568   5.892   5.834
 3793POPC   GL250438  12.842   5.652   5.806
 3793POPC   C1A50439  12.782   5.954   6.241
 3793POPC   D2A50440  12.759   6.063   6.691
 3793POPC   C3A50441  13.059   6.105   7.030
 3793POPC   C4A50442  12.727   5.941   7.280
 3793POPC   C1B50443  13.070   5.530   6.157
 3793POPC   C2B50444  13.124   5.695   6.548
 3793POPC   C3B50445  12.961   5.614   6.945
 3793POPC   C4B50446  13.118   5.625   7.345
 3794POPC   NC350447  39.234  19.148   5.354
 3794POPC   PO450448  38.706  18.721   5.246
 3794POPC   GL150449  39.008  18.848   5.656
 3794POPC   GL250450  38.878  19.147   5.790
 3794POPC   C1A50451  39.320  18.996   6.031
 3794POPC   D2A50452  39.266  18.929   6.517
 3794POPC   C3A50453  39.452  19.092   6.923
 3794POPC   C4A50454  39.407  18.927   7.349
 3794POPC   C1B50455  38.833  19.051   6.224
 3794POPC   C2B50456  38.864  19.216   6.641
 3794POPC   C3B50457  38.965  19.045   7.040
 3794POPC   C4B50458  38.923  19.079   7.467
 3795POPC   NC350459  13.115   1.245   5.363
 3795POPC   PO450460  12.499   1.544   5.575
 3795POPC   GL150461  12.555   1.207   5.871
 3795POPC   GL250462  12.901   1.048   5.833
 3795POPC   C1A50463  12.673   1.112   6.295
 3795POPC   D2A50464  12.980   1.082   6.574
 3795POPC   C3A50465  12.804   1.005   6.960
 3795POPC   C4A50466  12.635   1.317   7.187
 3795POPC   C1B50467  13.187   1.302   6.127
 3795POPC   C2B50468  13.258   1.542   6.523
 3795POPC   C3B50469  13.139   1.406   6.947
 3795POPC   C4B50470  13.255   1.046   7.213
 3796POPC   NC350471  30.167  33.812   5.772
 3796POPC   PO450472  29.686  33.954   5.283
 3796POPC   GL150473  29.631  33.760   5.704
 3796POPC   GL250474  29.279  33.836   5.833
 3796POPC   C1A50475  29.698  33.551   6.147
 3796POPC   D2A50476  29.829  33.448   6.592
 3796POPC   C3A50477  30.182  33.673   6.809
 3796POPC   C4A50478  30.065  33.666   7.234
 3796POPC   C1B50479  29.584  34.064   6.090
 3796POPC   C2B50480  29.863  33.956   6.449
 3796POPC   C3B50481  29.741  33.909   6.859
 3796POPC   C4B50482  29.571  33.709   7.184
 3797POPC   NC350483  15.568  24.492   5.374
 3797POPC   PO450484  16.198  24.297   5.276
 3797POPC   GL150485  16.024  24.462   5.641
 3797POPC   GL250486  16.248  24.729   5.715
 3797POPC   C1A50487  15.843  24.385   6.060
 3797POPC   D2A50488  15.953  24.469   6.502
 3797POPC   C3A50489  15.737  24.397   6.906
 3797POPC   C4A50490  15.853  24.541   7.315
 3797POPC   C1B50491  16.361  24.388   6.061
 3797POPC   C2B50492  16.462  24.413   6.531
 3797POPC   C3B50493  16.250  24.552   6.946
 3797POPC   C4B50494  16.344  24.612   7.425
 3798POPC   NC350495   3.880  11.214   5.482
 3798POPC   PO450496   4.424  10.749   5.460
 3798POPC   GL150497   4.305  11.119   5.764
 3798POPC   GL250498   4.549  11.406   5.810
 3798POPC   C1A50499   4.328  11.080   6.216
 3798POPC   D2A50500   4.134  11.064   6.629
 3798POPC   C3A50501   4.438  11.220   6.902
 3798POPC   C4A50502   4.401  11.284   7.324
 3798POPC   C1B50503   4.563  11.587   6.236
 3798POPC   C2B50504   4.476  11.671   6.668
 3798POPC   C3B50505   4.626  11.731   7.094
 3798POPC   C4B50506   4.529  11.714   7.546
 3799POPC   NC350507  20.142  25.529   5.282
 3799POPC   PO450508  20.649  25.070   5.379
 3799POPC   GL150509  20.698  25.235   5.751
 3799POPC   GL250510  20.484  25.496   5.705
 3799POPC   C1A50511  20.782  25.106   6.148
 3799POPC   D2A50512  20.807  24.845   6.500
 3799POPC   C3A50513  20.682  25.077   6.860
 3799POPC   C4A50514  20.726  25.080   7.297
 3799POPC   C1B50515  20.265  25.251   6.027
 3799POPC   C2B50516  20.327  25.127   6.447
 3799POPC   C3B50517  20.181  25.212   6.864
 3799POPC   C4B50518  20.301  25.371   7.260
 3800POPC   NC350519  12.343  19.591   5.496
 3800POPC   PO450520  11.927  20.119   5.405
 3800POPC   GL150521  11.915  19.853   5.741
 3800POPC   GL250522  12.239  20.014   5.842
 3800POPC   C1A50523  12.026  19.667   6.147
 3800POPC   D2A50524  12.234  19.785   6.520
 3800POPC   C3A50525  12.080  19.657   6.929
 3800POPC   C4A50526  12.342  19.591   7.282
 3800POPC   C1B50527  11.970  20.193   6.205
 3800POPC   C2B50528  11.974  20.183   6.678
 3800POPC   C3B50529  11.873  20.092   7.093
 3800POPC   C4B50530  11.997  19.923   7.479
 3801POPC   NC350531  34.299  42.483   5.534
 3801POPC   PO450532  34.346  41.808   5.576
 3801POPC   GL150533  34.547  42.156   5.821
 3801POPC   GL250534  34.893  42.189   5.800
 3801POPC   C1A50535  34.554  42.422   6.198
 3801POPC   D2A50536  34.397  42.296   6.602
 3801POPC   C3A50537  34.556  42.500   6.951
 3801POPC   C4A50538  34.471  42.400   7.375
 3801POPC   C1B50539  35.051  42.356   6.208
 3801POPC   C2B50540  34.951  42.288   6.633
 3801POPC   C3B50541  34.985  42.229   7.075
 3801POPC   C4B50542  34.937  42.577   7.334
 3802POPC   NC350543  43.799   8.235   5.306
 3802POPC   PO450544  44.352   8.529   5.472
 3802POPC   GL150545  44.111   8.212   5.802
 3802POPC   GL250546  43.739   8.092   5.800
 3802POPC   C1A50547  43.984   8.093   6.261
 3802POPC   D2A50548  44.095   8.152   6.711
 3802POPC   C3A50549  43.932   7.936   7.094
 3802POPC   C4A50550  43.966   8.176   7.500
 3802POPC   C1B50551  43.631   8.447   6.091
 3802POPC   C2B50552  43.454   8.434   6.515
 3802POPC   C3B50553  43.638   8.356   6.918
 3802POPC   C4B50554  43.488   8.160   7.273
 3803POPC   NC350555   3.138  15.523   5.237
 3803POPC   PO450556   2.710  14.972   5.349
 3803POPC   GL150557   2.666  15.088   5.778
 3803POPC   GL250558   2.835  15.408   5.829
 3803POPC   C1A50559   2.774  15.011   6.209
 3803POPC   D2A50560   2.558  15.066   6.616
 3803POPC   C3A50561   2.736  15.034   7.028
 3803POPC   C4A50562   2.778  15.068   7.472
 3803POPC   C1B50563   2.641  15.511   6.223
 3803POPC   C2B50564   2.705  15.554   6.667
 3803POPC   C3B50565   2.792  15.590   7.106
 3803POPC   C4B50566   2.744  15.742   7.517
 3804POPC   NC350567  30.305  16.515   5.485
 3804POPC   PO450568  29.695  16.586   5.276
 3804POPC   GL150569  29.884  16.804   5.710
 3804POPC   GL250570  29.955  16.551   5.895
 3804POPC   C1A50571  30.096  16.954   6.152
 3804POPC   D2A50572  30.050  16.722   6.566
 3804POPC   C3A50573  29.933  16.895   6.981
 3804POPC   C4A50574  30.036  16.892   7.434
 3804POPC   C1B50575  29.660  16.704   6.223
 3804POPC   C2B50576  29.533  16.749   6.652
 3804POPC   C3B50577  29.545  16.534   7.038
 3804POPC   C4B50578  29.728  16.480   7.448
 3805POPC   NC350579  27.188  41.915   5.325
 3805POPC   PO450580  26.527  42.254   5.487
 3805POPC   GL150581  26.776  41.990   5.662
 3805POPC   GL250582  27.063  42.151   5.774
 3805POPC   C1A50583  26.725  41.936   6.100
 3805POPC   D2A50584  26.925  42.050   6.465
 3805POPC   C3A50585  26.683  42.218   6.801
 3805POPC   C4A50586  26.788  42.317   7.217
 3805POPC   C1B50587  27.037  42.472   6.126
 3805POPC   C2B50588  27.198  42.498   6.552
 3805POPC   C3B50589  27.082  42.667   6.972
 3805POPC   C4B50590  27.159  42.608   7.423
 3806POPC   NC350591  23.273  13.660   5.434
 3806POPC   PO450592  22.842  13.186   5.147
 3806POPC   GL150593  22.848  13.418   5.604
 3806POPC   GL250594  22.860  13.802   5.725
 3806POPC   C1A50595  22.910  13.448   6.090
 3806POPC   D2A50596  22.989  13.656   6.515
 3806POPC   C3A50597  22.822  13.526   6.918
 3806POPC   C4A50598  22.634  13.593   7.342
 3806POPC   C1B50599  23.194  13.908   6.085
 3806POPC   C2B50600  23.347  14.028   6.548
 3806POPC   C3B50601  23.159  13.945   6.987
 3806POPC   C4B50602  23.087  13.830   7.449
 3807POPC   NC350603  31.007  37.730   5.537
 3807POPC   PO450604  30.434  38.088   5.390
 3807POPC   GL150605  30.453  37.799   5.746
 3807POPC   GL250606  30.646  37.509   5.790
 3807POPC   C1A50607  30.679  37.892   6.139
 3807POPC   D2A50608  30.895  37.917   6.553
 3807POPC   C3A50609  30.656  37.959   6.938
 3807POPC   C4A50610  30.600  37.722   7.297
 3807POPC   C1B50611  30.458  37.393   6.141
 3807POPC   C2B50612  30.529  37.267   6.517
 3807POPC   C3B50613  30.582  37.423   6.887
 3807POPC   C4B50614  30.865  37.232   7.131
 3808POPC   NC350615  11.850  27.531   5.404
 3808POPC   PO450616  11.227  27.465   5.472
 3808POPC   GL150617  11.380  27.548   5.868
 3808POPC   GL250618  11.688  27.382   5.875
 3808POPC   C1A50619  11.139  27.666   6.256
 3808POPC   D2A50620  11.076  27.861   6.644
 3808POPC   C3A50621  11.035  27.772   7.094
 3808POPC   C4A50622  11.249  27.760   7.491
 3808POPC   C1B50623  11.655  27.648   6.273
 3808POPC   C2B50624  11.578  27.851   6.654
 3808POPC   C3B50625  11.553  27.682   7.058
 3808POPC   C4B50626  11.749  27.631   7.449
 3809POPC   NC350627  14.548   8.553   5.493
 3809POPC   PO450628  13.965   8.381   5.340
 3809POPC   GL150629  14.133   8.413   5.792
 3809POPC   GL250630  14.487   8.414   5.973
 3809POPC   C1A50631  14.088   8.257   6.219
 3809POPC   D2A50632  14.328   8.283   6.558
 3809POPC   C3A50633  14.282   7.975   6.811
 3809POPC   C4A50634  14.220   8.071   7.211
 3809POPC   C1B50635  14.808   8.348   6.288
 3809POPC   C2B50636  14.795   8.116   6.657
 3809POPC   C3B50637  14.695   8.187   7.045
 3809POPC   C4B50638  14.500   8.545   7.174
 3810POPC   NC350639   6.943   0.483   5.240
 3810POPC   PO450640   6.389   0.131   5.348
 3810POPC   GL150641   6.601   0.083   5.748
 3810POPC   GL250642   6.993   0.079   5.751
 3810POPC   C1A50643   6.548   0.252   6.182
 3810POPC   D2A50644   6.471   0.458   6.584
 3810POPC   C3A50645   6.490   0.247   6.971
 3810POPC   C4A50646   6.392   0.205   7.411
 3810POPC   C1B50647   7.072   0.099   6.240
 3810POPC   C2B50648   6.957   0.165   6.730
 3810POPC   C3B50649   6.917   0.332   7.193
 3810POPC   C4B50650   6.894   0.127   7.621
 3811POPC   NC350651  17.558  41.360   5.472
 3811POPC   PO450652  18.101  41.894   5.548
 3811POPC   GL150653  17.732  41.710   5.860
 3811POPC   GL250654  17.582  41.340   5.975
 3811POPC   C1A50655  17.546  41.704   6.305
 3811POPC   D2A50656  17.503  41.313   6.556
 3811POPC   C3A50657  17.217  41.328   6.903
 3811POPC   C4A50658  17.257  41.475   7.320
 3811POPC   C1B50659  17.141  41.374   6.187
 3811POPC   C2B50660  17.051  41.676   6.543
 3811POPC   C3B50661  17.182  41.862   6.945
 3811POPC   C4B50662  17.445  41.939   7.310
 3812POPC   NC350663  44.270  31.277   5.484
 3812POPC   PO450664  43.596  31.550   5.281
 3812POPC   GL150665  43.685  31.434   5.692
 3812POPC   GL250666  43.526  31.725   5.773
 3812POPC   C1A50667  43.809  31.256   6.117
 3812POPC   D2A50668  43.717  31.312   6.571
 3812POPC   C3A50669  44.012  31.569   6.820
 3812POPC   C4A50670  44.284  31.701   7.181
 3812POPC   C1B50671  43.736  31.799   6.137
 3812POPC   C2B50672  43.539  31.828   6.512
 3812POPC   C3B50673  43.473  31.644   6.877
 3812POPC   C4B50674  43.734  31.794   7.180
 3813POPC   NC350675   5.848  36.353   5.423
 3813POPC   PO450676   5.485  35.776   5.406
 3813POPC   GL150677   5.845  35.794   5.662
 3813POPC   GL250678   5.839  36.088   5.861
 3813POPC   C1A50679   6.063  35.644   6.019
 3813POPC   D2A50680   6.055  35.748   6.451
 3813POPC   C3A50681   5.999  35.805   6.884
 3813POPC   C4A50682   5.799  36.135   7.108
 3813POPC   C1B50683   5.625  35.843   6.179
 3813POPC   C2B50684   5.547  35.842   6.617
 3813POPC   C3B50685   5.338  35.941   6.983
 3813POPC   C4B50686   5.424  35.864   7.404
 3814POPC   NC350687  34.152  33.871   5.333
 3814POPC   PO450688  33.594  33.516   5.366
 3814POPC   GL150689  33.572  33.835   5.720
 3814POPC   GL250690  33.925  33.911   5.812
 3814POPC   C1A50691  33.563  33.897   6.203
 3814POPC   D2A50692  33.652  33.637   6.580
 3814POPC   C3A50693  33.729  33.746   7.016
 3814POPC   C4A50694  34.031  34.083   7.067
 3814POPC   C1B50695  33.986  33.577   6.169
 3814POPC   C2B50696  33.948  33.221   6.462
 3814POPC   C3B50697  34.047  33.365   6.848
 3814POPC   C4B50698  34.225  33.605   7.156
 3815POPC   NC350699  20.173  41.839   5.408
 3815POPC   PO450700  19.677  41.298   5.518
 3815POPC   GL150701  19.902  41.566   5.730
 3815POPC   GL250702  19.746  41.904   5.739
 3815POPC   C1A50703  20.265  41.564   6.009
 3815POPC   D2A50704  20.325  41.723   6.418
 3815POPC   C3A50705  20.276  41.421   6.756
 3815POPC   C4A50706  20.151  41.520   7.156
 3815POPC   C1B50707  19.831  41.785   6.182
 3815POPC   C2B50708  19.796  41.543   6.552
 3815POPC   C3B50709  19.685  41.646   6.963
 3815POPC   C4B50710  19.831  41.917   7.243
 3816POPC   NC350711  27.496  40.383   5.467
 3816POPC   PO450712  27.536  39.800   5.199
 3816POPC   GL150713  27.666  39.869   5.703
 3816POPC   GL250714  27.536  40.147   5.918
 3816POPC   C1A50715  27.847  39.796   6.147
 3816POPC   D2A50716  27.699  39.926   6.592
 3816POPC   C3A50717  27.808  39.799   7.022
 3816POPC   C4A50718  27.827  40.096   7.345
 3816POPC   C1B50719  27.337  39.884   6.232
 3816POPC   C2B50720  27.142  39.899   6.635
 3816POPC   C3B50721  27.344  40.068   6.983
 3816POPC   C4B50722  27.344  39.925   7.364
 3817POPC   NC350723  14.847  20.592   5.309
 3817POPC   PO450724  15.514  20.295   5.344
 3817POPC   GL150725  15.488  20.358   5.799
 3817POPC   GL250726  15.138  20.524   5.795
 3817POPC   C1A50727  15.410  20.518   6.227
 3817POPC   D2A50728  15.191  20.635   6.615
 3817POPC   C3A50729  15.317  20.454   6.998
 3817POPC   C4A50730  15.444  20.723   7.332
 3817POPC   C1B50731  14.929  20.671   6.149
 3817POPC   C2B50732  14.707  20.495   6.504
 3817POPC   C3B50733  14.744  20.491   6.937
 3817POPC   C4B50734  14.944  20.636   7.325
 3818POPC   NC350735  25.677  10.837   5.064
 3818POPC   PO450736  26.322  10.807   5.360
 3818POPC   GL150737  26.277  10.585   5.766
 3818POPC   GL250738  25.944  10.442   5.817
 3818POPC   C1A50739  26.354  10.487   6.207
 3818POPC   D2A50740  26.097  10.705   6.511
 3818POPC   C3A50741  26.156  10.596   6.921
 3818POPC   C4A50742  26.270  10.193   7.058
 3818POPC   C1B50743  25.837  10.317   6.226
 3818POPC   C2B50744  25.983  10.219   6.627
 3818POPC   C3B50745  25.770  10.263   7.043
 3818POPC   C4B50746  25.646  10.618   7.289
 3819POPC   NC350747   0.448  24.857   5.399
 3819POPC   PO450748   0.692  25.546   5.250
 3819POPC   GL150749   0.543  25.323   5.629
 3819POPC   GL250750   0.225  25.304   5.718
 3819POPC   C1A50751   0.552  25.320   6.103
 3819POPC   D2A50752   0.338  25.249   6.512
 3819POPC   C3A50753   0.538  25.131   6.896
 3819POPC   C4A50754   0.758  25.236   7.243
 3819POPC   C1B50755   0.069  25.502   6.121
 3819POPC   C2B50756  44.915  25.530   6.573
 3819POPC   C3B50757   0.022  25.222   6.922
 3819POPC   C4B50758   0.241  25.264   7.300
 3820POPC   NC350759  44.556  12.608   5.056
 3820POPC   PO450760  44.816  12.352   5.605
 3820POPC   GL150761  44.750  12.703   5.865
 3820POPC   GL250762  44.447  12.906   5.797
 3820POPC   C1A50763  44.644  12.759   6.310
 3820POPC   D2A50764  44.382  12.553   6.628
 3820POPC   C3A50765  44.545  12.595   7.038
 3820POPC   C4A50766  44.621  12.855   7.426
 3820POPC   C1B50767  44.252  13.095   6.187
 3820POPC   C2B50768  44.226  13.107   6.670
 3820POPC   C3B50769  44.171  12.940   7.114
 3820POPC   C4B50770  44.181  13.058   7.572
 3821POPC   NC350771   4.723  22.739   5.351
 3821POPC   PO450772   5.023  22.202   5.532
 3821POPC   GL150773   4.914  22.616   5.842
 3821POPC   GL250774   5.158  22.915   5.899
 3821POPC   C1A50775   4.831  22.833   6.306
 3821POPC   D2A50776   5.079  22.965   6.716
 3821POPC   C3A50777   4.950  22.812   7.162
 3821POPC   C4A50778   4.727  22.781   7.569
 3821POPC   C1B50779   5.277  22.601   6.231
 3821POPC   C2B50780   5.446  22.573   6.648
 3821POPC   C3B50781   5.447  22.778   7.062
 3821POPC   C4B50782   5.380  22.863   7.527
 3822POPC   NC350783  43.080  35.697   5.614
 3822POPC   PO450784  42.928  36.262   5.310
 3822POPC   GL150785  43.065  36.209   5.784
 3822POPC   GL250786  43.289  35.966   5.994
 3822POPC   C1A50787  43.053  36.357   6.231
 3822POPC   D2A50788  43.115  36.128   6.592
 3822POPC   C3A50789  42.972  36.216   6.970
 3822POPC   C4A50790  43.078  35.992   7.349
 3822POPC   C1B50791  42.854  35.886   6.215
 3822POPC   C2B50792  42.608  35.972   6.618
 3822POPC   C3B50793  42.537  35.957   7.090
 3822POPC   C4B50794  42.641  35.784   7.515
 3823POPC   NC350795  31.546  17.780   5.044
 3823POPC   PO450796  31.647  18.451   5.324
 3823POPC   GL150797  31.598  18.368   5.744
 3823POPC   GL250798  31.296  18.209   5.727
 3823POPC   C1A50799  31.474  18.592   6.149
 3823POPC   D2A50800  31.452  18.394   6.559
 3823POPC   C3A50801  31.530  18.610   6.927
 3823POPC   C4A50802  31.269  18.772   7.235
 3823POPC   C1B50803  31.263  18.117   6.164
 3823POPC   C2B50804  31.037  18.080   6.567
 3823POPC   C3B50805  31.036  18.041   6.995
 3823POPC   C4B50806  31.333  18.266   7.271
 3824POPC   NC350807   6.999  21.375   5.331
 3824POPC   PO450808   7.455  20.878   5.220
 3824POPC   GL150809   7.380  21.175   5.639
 3824POPC   GL250810   7.678  21.296   5.825
 3824POPC   C1A50811   7.289  21.254   6.127
 3824POPC   D2A50812   7.473  21.338   6.566
 3824POPC   C3A50813   7.544  21.020   6.893
 3824POPC   C4A50814   7.279  20.901   7.246
 3824POPC   C1B50815   7.775  21.524   6.194
 3824POPC   C2B50816   7.838  21.727   6.602
 3824POPC   C3B50817   7.765  21.675   7.047
 3824POPC   C4B50818   7.522  21.391   7.293
 3825POPC   NC350819   9.962  28.990   5.231
 3825POPC   PO450820   9.389  29.255   5.527
 3825POPC   GL150821   9.598  28.954   5.818
 3825POPC   GL250822   9.979  28.893   5.863
 3825POPC   C1A50823   9.686  29.058   6.264
 3825POPC   D2A50824   9.808  29.351   6.578
 3825POPC   C3A50825  10.135  29.280   6.871
 3825POPC   C4A50826  10.100  28.952   7.192
 3825POPC   C1B50827  10.183  28.905   6.301
 3825POPC   C2B50828   9.958  28.832   6.690
 3825POPC   C3B50829   9.645  29.044   6.979
 3825POPC   C4B50830   9.534  28.862   7.373
 3826POPC   NC350831  16.037  42.493   5.304
 3826POPC   PO450832  15.992  43.153   5.335
 3826POPC   GL150833  15.984  43.049   5.734
 3826POPC   GL250834  16.158  42.734   5.770
 3826POPC   C1A50835  16.089  43.242   6.119
 3826POPC   D2A50836  15.914  43.212   6.534
 3826POPC   C3A50837  16.151  43.081   6.884
 3826POPC   C4A50838  15.921  43.058   7.265
 3826POPC   C1B50839  15.887  42.768   6.153
 3826POPC   C2B50840  15.547  42.754   6.458
 3826POPC   C3B50841  15.711  42.793   6.858
 3826POPC   C4B50842  15.539  42.718   7.250
 3827POPC   NC350843   7.525  41.537   5.166
 3827POPC   PO450844   7.412  41.396   5.599
 3827POPC   GL150845   7.248  41.649   5.972
 3827POPC   GL250846   7.020  41.960   5.931
 3827POPC   C1A50847   7.350  41.598   6.416
 3827POPC   D2A50848   7.605  41.304   6.658
 3827POPC   C3A50849   7.659  41.431   7.086
 3827POPC   C4A50850   7.471  41.396   7.486
 3827POPC   C1B50851   7.024  41.996   6.397
 3827POPC   C2B50852   7.069  41.820   6.828
 3827POPC   C3B50853   7.312  41.859   7.217
 3827POPC   C4B50854   7.335  41.891   7.683
 3828POPC   NC350855  25.326  40.408   5.133
 3828POPC   PO450856  24.777  40.728   5.412
 3828POPC   GL150857  25.136  40.851   5.730
 3828POPC   GL250858  25.325  40.583   5.914
 3828POPC   C1A50859  25.359  41.014   6.138
 3828POPC   D2A50860  25.196  41.008   6.576
 3828POPC   C3A50861  25.391  41.008   6.972
 3828POPC   C4A50862  25.176  40.983   7.332
 3828POPC   C1B50863  24.983  40.670   6.203
 3828POPC   C2B50864  24.941  40.500   6.607
 3828POPC   C3B50865  25.041  40.607   6.992
 3828POPC   C4B50866  24.934  40.533   7.403
 3829POPC   NC350867  27.170  20.412   5.330
 3829POPC   PO450868  26.541  20.651   5.196
 3829POPC   GL150869  26.860  20.745   5.569
 3829POPC   GL250870  26.960  20.448   5.793
 3829POPC   C1A50871  26.884  20.863   6.040
 3829POPC   D2A50872  26.820  20.598   6.437
 3829POPC   C3A50873  26.948  20.755   6.848
 3829POPC   C4A50874  26.888  20.656   7.294
 3829POPC   C1B50875  26.879  20.167   6.140
 3829POPC   C2B50876  26.714  20.110   6.553
 3829POPC   C3B50877  26.843  20.252   6.945
 3829POPC   C4B50878  27.008  20.130   7.344
 3830POPC   NC350879  21.913  38.207   5.444
 3830POPC   PO450880  21.395  38.638   5.231
 3830POPC   GL150881  21.392  38.563   5.718
 3830POPC   GL250882  21.198  38.249   5.663
 3830POPC   C1A50883  21.264  38.673   6.195
 3830POPC   D2A50884  21.403  38.486   6.580
 3830POPC   C3A50885  21.290  38.584   7.000
 3830POPC   C4A50886  21.525  38.546   7.381
 3830POPC   C1B50887  21.301  38.179   6.095
 3830POPC   C2B50888  21.075  38.143   6.476
 3830POPC   C3B50889  21.253  38.057   6.876
 3830POPC   C4B50890  21.190  38.154   7.298
 3831POPC   NC350891   0.728   6.388   5.638
 3831POPC   PO450892   1.257   6.737   5.370
 3831POPC   GL150893   1.043   6.828   5.769
 3831POPC   GL250894   1.190   6.540   5.861
 3831POPC   C1A50895   1.012   6.905   6.234
 3831POPC   D2A50896   0.980   6.578   6.544
 3831POPC   C3A50897   1.119   6.666   6.956
 3831POPC   C4A50898   0.900   6.682   7.352
 3831POPC   C1B50899   1.411   6.571   6.239
 3831POPC   C2B50900   1.532   6.534   6.648
 3831POPC   C3B50901   1.512   6.302   7.011
 3831POPC   C4B50902   1.388   6.516   7.384
 3832POPC   NC350903  31.107  25.125   5.470
 3832POPC   PO450904  30.454  25.247   5.346
 3832POPC   GL150905  30.562  25.292   5.797
 3832POPC   GL250906  30.920  25.309   5.910
 3832POPC   C1A50907  30.425  25.171   6.216
 3832POPC   D2A50908  30.560  24.982   6.588
 3832POPC   C3A50909  30.404  25.152   6.938
 3832POPC   C4A50910  30.647  25.219   7.278
 3832POPC   C1B50911  30.874  25.331   6.366
 3832POPC   C2B50912  30.873  25.346   6.780
 3832POPC   C3B50913  30.997  25.562   7.077
 3832POPC   C4B50914  31.176  25.275   7.340
 3833POPC   NC350915  38.125  27.069   5.139
 3833POPC   PO450916  38.548  26.565   5.351
 3833POPC   GL150917  38.549  26.641   5.838
 3833POPC   GL250918  38.250  26.496   6.036
 3833POPC   C1A50919  38.649  26.622   6.315
 3833POPC   D2A50920  38.405  26.598   6.707
 3833POPC   C3A50921  38.665  26.745   7.059
 3833POPC   C4A50922  38.799  27.174   7.168
 3833POPC   C1B50923  38.191  26.889   6.290
 3833POPC   C2B50924  38.355  27.190   6.610
 3833POPC   C3B50925  38.311  27.100   7.025
 3833POPC   C4B50926  38.136  26.714   7.157
 3834POPC   NC350927  36.015  38.153   5.513
 3834POPC   PO450928  35.697  38.755   5.640
 3834POPC   GL150929  35.974  38.717   5.981
 3834POPC   GL250930  36.144  38.402   5.942
 3834POPC   C1A50931  36.101  38.619   6.408
 3834POPC   D2A50932  36.449  38.617   6.681
 3834POPC   C3A50933  36.396  38.839   7.073
 3834POPC   C4A50934  36.605  38.783   7.452
 3834POPC   C1B50935  35.969  38.138   6.282
 3834POPC   C2B50936  36.160  38.183   6.717
 3834POPC   C3B50937  36.073  38.427   7.095
 3834POPC   C4B50938  36.027  38.347   7.538
 3835POPC   NC350939  40.980   3.071   5.423
 3835POPC   PO450940  40.740   2.420   5.433
 3835POPC   GL150941  40.885   2.696   5.765
 3835POPC   GL250942  40.598   2.932   5.758
 3835POPC   C1A50943  40.902   2.621   6.194
 3835POPC   D2A50944  40.839   2.463   6.598
 3835POPC   C3A50945  41.051   2.648   6.927
 3835POPC   C4A50946  40.938   2.803   7.321
 3835POPC   C1B50947  40.725   3.105   6.156
 3835POPC   C2B50948  40.615   2.899   6.546
 3835POPC   C3B50949  40.541   2.754   6.971
 3835POPC   C4B50950  40.466   2.920   7.394
 3836POPC   NC350951  35.174  22.051   5.373
 3836POPC   PO450952  35.655  22.537   5.334
 3836POPC   GL150953  35.513  22.267   5.687
 3836POPC   GL250954  35.164  22.233   5.846
 3836POPC   C1A50955  35.605  22.105   6.102
 3836POPC   D2A50956  35.689  21.959   6.517
 3836POPC   C3A50957  35.428  22.158   6.819
 3836POPC   C4A50958  35.522  22.107   7.227
 3836POPC   C1B50959  35.064  21.889   6.175
 3836POPC   C2B50960  35.067  21.729   6.629
 3836POPC   C3B50961  34.999  21.889   7.069
 3836POPC   C4B50962  34.952  22.344   7.183
 3837POPC   NC350963  10.059  24.074   5.477
 3837POPC   PO450964   9.455  23.710   5.425
 3837POPC   GL150965   9.726  23.574   5.791
 3837POPC   GL250966   9.876  23.835   5.872
 3837POPC   C1A50967   9.856  23.562   6.288
 3837POPC   D2A50968   9.858  23.435   6.726
 3837POPC   C3A50969   9.789  23.669   7.089
 3837POPC   C4A50970   9.821  23.568   7.523
 3837POPC   C1B50971   9.952  24.099   6.200
 3837POPC   C2B50972   9.859  23.957   6.608
 3837POPC   C3B50973   9.960  24.147   6.956
 3837POPC   C4B50974   9.929  24.076   7.349
 3838POPC   NC350975  13.330  21.644   5.307
 3838POPC   PO450976  13.970  21.483   5.438
 3838POPC   GL150977  13.624  21.402   5.736
 3838POPC   GL250978  13.243  21.334   5.718
 3838POPC   C1A50979  13.749  21.404   6.152
 3838POPC   D2A50980  13.720  21.551   6.536
 3838POPC   C3A50981  13.953  21.311   6.793
 3838POPC   C4A50982  13.886  21.316   7.237
 3838POPC   C1B50983  13.259  21.274   6.182
 3838POPC   C2B50984  13.421  21.144   6.608
 3838POPC   C3B50985  13.433  21.379   6.999
 3838POPC   C4B50986  13.058  21.400   7.269
 3839POPC   NC350987   1.431  42.543   5.398
 3839POPC   PO450988   0.856  42.178   5.237
 3839POPC   GL150989   1.133  42.268   5.657
 3839POPC   GL250990   1.008  42.515   5.871
 3839POPC   C1A50991   1.413  42.258   6.068
 3839POPC   D2A50992   1.508  42.167   6.533
 3839POPC   C3A50993   1.169  42.167   6.858
 3839POPC   C4A50994   1.091  42.161   7.303
 3839POPC   C1B50995   1.262  42.768   6.113
 3839POPC   C2B50996   1.179  42.841   6.540
 3839POPC   C3B50997   1.095  42.664   6.937
 3839POPC   C4B50998   1.345  42.655   7.289
 3840POPC   NC350999   4.000  29.362   5.401
 3840POPC   PO451000   4.717  29.325   5.414
 3840POPC   GL151001   4.525  29.326   5.806
 3840POPC   GL251002   4.719  29.044   5.883
 3840POPC   C1A51003   4.627  29.358   6.273
 3840POPC   D2A51004   4.691  29.115   6.658
 3840POPC   C3A51005   4.311  29.069   6.931
 3840POPC   C4A51006   4.204  29.382   7.274
 3840POPC   C1B51007   4.703  28.775   6.261
 3840POPC   C2B51008   4.570  28.623   6.695
 3840POPC   C3B51009   4.709  28.787   7.099
 3840POPC   C4B51010   4.408  28.938   7.420
 3841POPC   NC351011  17.040  27.854   5.451
 3841POPC   PO451012  17.766  27.669   5.427
 3841POPC   GL151013  17.566  27.575   5.806
 3841POPC   GL251014  17.408  27.890   5.812
 3841POPC   C1A51015  17.557  27.387   6.249
 3841POPC   D2A51016  17.463  27.235   6.679
 3841POPC   C3A51017  17.529  27.515   7.050
 3841POPC   C4A51018  17.287  27.859   7.263
 3841POPC   C1B51019  17.726  27.891   6.171
 3841POPC   C2B51020  17.686  27.757   6.589
 3841POPC   C3B51021  17.701  28.002   6.957
 3841POPC   C4B51022  17.814  27.938   7.342
 3842POPC   NC351023  24.116   2.842   5.419
 3842POPC   PO451024  24.622   3.258   5.456
 3842POPC   GL151025  24.576   2.937   5.820
 3842POPC   GL251026  24.244   2.773   5.897
 3842POPC   C1A51027  24.600   2.744   6.248
 3842POPC   D2A51028  24.684   2.794   6.698
 3842POPC   C3A51029  24.549   2.463   7.005
 3842POPC   C4A51030  24.480   2.589   7.442
 3842POPC   C1B51031  24.177   3.021   6.279
 3842POPC   C2B51032  24.270   3.097   6.728
 3842POPC   C3B51033  24.452   3.003   7.151
 3842POPC   C4B51034  24.318   3.037   7.614
 3843POPC   NC351035  25.833   8.277   5.469
 3843POPC   PO451036  26.369   7.867   5.525
 3843POPC   GL151037  26.147   8.071   5.839
 3843POPC   GL251038  26.277   8.412   5.707
 3843POPC   C1A51039  25.922   8.070   6.284
 3843POPC   D2A51040  25.807   8.143   6.751
 3843POPC   C3A51041  25.771   7.835   7.086
 3843POPC   C4A51042  26.029   7.725   7.448
 3843POPC   C1B51043  26.162   8.494   6.121
 3843POPC   C2B51044  26.051   8.567   6.531
 3843POPC   C3B51045  26.109   8.505   6.952
 3843POPC   C4B51046  26.029   8.596   7.367
 3844POPC   NC351047  33.521  43.567   5.016
 3844POPC   PO451048  34.010  43.635   5.438
 3844POPC   GL151049  33.821  43.744   5.812
 3844POPC   GL251050  34.129  43.924   5.843
 3844POPC   C1A51051  33.624  43.964   6.116
 3844POPC   D2A51052  33.765  43.895   6.522
 3844POPC   C3A51053  33.581  44.064   6.868
 3844POPC   C4A51054  33.567  43.850   7.180
 3844POPC   C1B51055  34.159  43.726   6.233
 3844POPC   C2B51056  34.176  43.588   6.685
 3844POPC   C3B51057  34.045  43.826   7.011
 3844POPC   C4B51058  33.990  43.735   7.459
 3845POPC   NC351059  28.607  30.110   5.244
 3845POPC   PO451060  28.117  29.948   5.520
 3845POPC   GL151061  28.502  29.915   5.736
 3845POPC   GL251062  28.518  29.572   5.868
 3845POPC   C1A51063  28.487  29.977   6.182
 3845POPC   D2A51064  28.516  29.685   6.507
 3845POPC   C3A51065  28.588  29.917   6.879
 3845POPC   C4A51066  28.360  30.211   7.130
 3845POPC   C1B51067  28.138  29.557   6.176
 3845POPC   C2B51068  28.029  29.703   6.614
 3845POPC   C3B51069  28.156  29.738   7.038
 3845POPC   C4B51070  28.081  29.554   7.448
 3846POPC   NC351071  42.881  24.003   5.328
 3846POPC   PO451072  42.888  23.295   5.343
 3846POPC   GL151073  42.973  23.551   5.696
 3846POPC   GL251074  42.646  23.671   5.708
 3846POPC   C1A51075  43.030  23.418   6.148
 3846POPC   D2A51076  42.806  23.428   6.552
 3846POPC   C3A51077  43.044  23.407   6.939
 3846POPC   C4A51078  43.273  23.334   7.313
 3846POPC   C1B51079  42.665  23.781   6.141
 3846POPC   C2B51080  42.834  23.951   6.531
 3846POPC   C3B51081  43.188  23.861   6.790
 3846POPC   C4B51082  43.242  23.855   7.226
 3847POPC   NC351083   0.319  27.809   5.420
 3847POPC   PO451084   0.042  27.243   5.710
 3847POPC   GL151085   0.235  27.515   5.999
 3847POPC   GL251086   0.509  27.708   5.889
 3847POPC   C1A51087   0.184  27.541   6.439
 3847POPC   D2A51088   0.011  27.665   6.803
 3847POPC   C3A51089   0.223  27.604   7.160
 3847POPC   C4A51090   0.626  27.451   7.318
 3847POPC   C1B51091   0.667  27.575   6.307
 3847POPC   C2B51092   0.578  27.614   6.784
 3847POPC   C3B51093   0.630  27.924   7.136
 3847POPC   C4B51094   0.648  27.919   7.624
 3848POPC   NC351095  39.071  17.325   5.364
 3848POPC   PO451096  39.231  17.891   5.435
 3848POPC   GL151097  39.059  17.641   5.776
 3848POPC   GL251098  39.352  17.438   5.813
 3848POPC   C1A51099  39.104  17.594   6.229
 3848POPC   D2A51100  38.996  17.694   6.647
 3848POPC   C3A51101  39.182  17.671   7.074
 3848POPC   C4A51102  39.131  17.526   7.501
 3848POPC   C1B51103  39.417  17.204   6.231
 3848POPC   C2B51104  39.364  17.322   6.701
 3848POPC   C3B51105  39.428  17.229   7.180
 3848POPC   C4B51106  39.531  17.232   7.646
 3849POPC   NC351107  21.633  27.224   5.427
 3849POPC   PO451108  21.217  26.704   5.210
 3849POPC   GL151109  21.215  27.007   5.618
 3849POPC   GL251110  21.542  26.981   5.847
 3849POPC   C1A51111  21.125  27.075   6.101
 3849POPC   D2A51112  21.336  27.108   6.503
 3849POPC   C3A51113  21.180  26.951   6.880
 3849POPC   C4A51114  21.175  27.160   7.270
 3849POPC   C1B51115  21.495  26.720   6.206
 3849POPC   C2B51116  21.714  26.565   6.574
 3849POPC   C3B51117  21.547  26.606   6.956
 3849POPC   C4B51118  21.627  26.967   7.174
 3850POPC   NC351119  37.388   6.040   5.394
 3850POPC   PO451120  37.943   5.659   5.520
 3850POPC   GL151121  37.688   5.892   5.815
 3850POPC   GL251122  37.406   5.669   5.810
 3850POPC   C1A51123  37.811   6.051   6.253
 3850POPC   D2A51124  37.904   5.816   6.661
 3850POPC   C3A51125  37.904   6.016   7.063
 3850POPC   C4A51126  37.698   6.070   7.495
 3850POPC   C1B51127  37.336   5.912   6.193
 3850POPC   C2B51128  37.413   6.035   6.641
 3850POPC   C3B51129  37.413   5.880   7.072
 3850POPC   C4B51130  37.668   5.518   7.108
 3851POPC   NC351131   2.270  15.101   5.421
 3851POPC   PO451132   1.808  15.602   5.408
 3851POPC   GL151133   1.953  15.421   5.756
 3851POPC   GL251134   2.311  15.463   5.760
 3851POPC   C1A51135   1.788  15.384   6.181
 3851POPC   D2A51136   1.585  15.358   6.584
 3851POPC   C3A51137   1.868  15.196   6.892
 3851POPC   C4A51138   1.917  15.337   7.300
 3851POPC   C1B51139   2.261  15.192   6.137
 3851POPC   C2B51140   2.202  15.418   6.544
 3851POPC   C3B51141   2.338  15.357   6.994
 3851POPC   C4B51142   2.261  14.949   7.221
 3852POPC   NC351143   3.533  20.786   5.350
 3852POPC   PO451144   4.208  20.633   5.249
 3852POPC   GL151145   3.850  20.532   5.644
 3852POPC   GL251146   3.650  20.815   5.834
 3852POPC   C1A51147   3.641  20.353   6.017
 3852POPC   D2A51148   3.727  20.322   6.444
 3852POPC   C3A51149   3.407  20.299   6.753
 3852POPC   C4A51150   3.354  20.349   7.188
 3852POPC   C1B51151   3.537  20.776   6.265
 3852POPC   C2B51152   3.560  20.891   6.659
 3852POPC   C3B51153   3.400  20.834   7.063
 3852POPC   C4B51154   3.313  21.111   7.365
 3853POPC   NC351155  28.370  28.093   5.343
 3853POPC   PO451156  28.524  27.470   5.316
 3853POPC   GL151157  28.463  27.719   5.717
 3853POPC   GL251158  28.116  27.612   5.717
 3853POPC   C1A51159  28.425  27.584   6.189
 3853POPC   D2A51160  28.282  27.374   6.603
 3853POPC   C3A51161  28.437  27.536   7.031
 3853POPC   C4A51162  28.356  27.562   7.507
 3853POPC   C1B51163  27.924  27.739   6.105
 3853POPC   C2B51164  28.074  27.874   6.484
 3853POPC   C3B51165  27.960  27.706   6.872
 3853POPC   C4B51166  28.054  27.874   7.254
 3854POPC   NC351167  29.004   7.387   4.915
 3854POPC   PO451168  29.464   7.469   5.473
 3854POPC   GL151169  29.374   7.423   5.888
 3854POPC   GL251170  29.220   7.113   5.840
 3854POPC   C1A51171  29.035   7.470   6.215
 3854POPC   D2A51172  28.961   7.630   6.624
 3854POPC   C3A51173  29.300   7.645   6.925
 3854POPC   C4A51174  29.230   7.601   7.359
 3854POPC   C1B51175  29.353   7.089   6.275
 3854POPC   C2B51176  29.436   7.194   6.706
 3854POPC   C3B51177  29.261   7.140   7.130
 3854POPC   C4B51178  29.444   6.919   7.485
 3855POPC   NC351179  44.039   9.697   5.399
 3855POPC   PO451180  44.013  10.265   5.452
 3855POPC   GL151181  43.938   9.986   5.808
 3855POPC   GL251182  44.154   9.734   5.916
 3855POPC   C1A51183  43.658   9.761   6.110
 3855POPC   D2A51184  43.715   9.859   6.545
 3855POPC   C3A51185  43.511   9.858   6.940
 3855POPC   C4A51186  43.606  10.073   7.349
 3855POPC   C1B51187  44.123  10.033   6.283
 3855POPC   C2B51188  44.202   9.911   6.746
 3855POPC   C3B51189  44.000   9.845   7.145
 3855POPC   C4B51190  44.077   9.672   7.574
 3856POPC   NC351191  41.995  42.867   5.300
 3856POPC   PO451192  41.370  42.933   5.334
 3856POPC   GL151193  41.584  43.106   5.683
 3856POPC   GL251194  41.714  42.771   5.750
 3856POPC   C1A51195  41.476  43.333   6.096
 3856POPC   D2A51196  41.614  43.527   6.513
 3856POPC   C3A51197  41.408  43.388   6.915
 3856POPC   C4A51198  41.671  43.123   7.176
 3856POPC   C1B51199  41.417  42.797   6.097
 3856POPC   C2B51200  41.248  42.599   6.495
 3856POPC   C3B51201  41.425  42.616   6.926
 3856POPC   C4B51202  41.483  42.687   7.382
 3857POPC   NC351203  12.144   3.847   5.161
 3857POPC   PO451204  12.082   4.479   5.456
 3857POPC   GL151205  12.176   4.176   5.815
 3857POPC   GL251206  12.520   4.159   5.869
 3857POPC   C1A51207  11.995   3.974   6.214
 3857POPC   D2A51208  12.068   3.867   6.672
 3857POPC   C3A51209  11.821   4.125   7.012
 3857POPC   C4A51210  11.899   4.228   7.481
 3857POPC   C1B51211  12.423   4.265   6.319
 3857POPC   C2B51212  12.291   4.322   6.780
 3857POPC   C3B51213  12.332   4.335   7.234
 3857POPC   C4B51214  12.278   4.527   7.684
 3858POPC   NC351215  35.470  12.571   4.928
 3858POPC   PO451216  35.320  13.170   5.314
 3858POPC   GL151217  35.391  12.947   5.734
 3858POPC   GL251218  35.520  12.585   5.679
 3858POPC   C1A51219  35.445  13.074   6.181
 3858POPC   D2A51220  35.179  13.157   6.510
 3858POPC   C3A51221  35.244  13.012   6.951
 3858POPC   C4A51222  35.123  12.727   7.248
 3858POPC   C1B51223  35.395  12.562   6.124
 3858POPC   C2B51224  35.391  12.676   6.539
 3858POPC   C3B51225  35.543  12.557   6.911
 3858POPC   C4B51226  35.629  12.773   7.290
 3859POPC   NC351227   3.348  36.294   5.263
 3859POPC   PO451228   3.970  36.340   5.457
 3859POPC   GL151229   3.740  36.171   5.822
 3859POPC   GL251230   3.422  36.037   5.704
 3859POPC   C1A51231   3.659  36.123   6.296
 3859POPC   D2A51232   3.795  35.991   6.749
 3859POPC   C3A51233   3.590  36.088   7.165
 3859POPC   C4A51234   3.546  36.213   7.606
 3859POPC   C1B51235   3.242  36.365   6.000
 3859POPC   C2B51236   3.268  36.472   6.457
 3859POPC   C3B51237   3.234  36.228   6.821
 3859POPC   C4B51238   3.045  36.038   7.173
 3860POPC   NC351239  39.180  21.440   5.370
 3860POPC   PO451240  39.445  20.862   5.519
 3860POPC   GL151241  39.226  21.076   5.870
 3860POPC   GL251242  39.072  21.433   5.868
 3860POPC   C1A51243  39.042  21.083   6.299
 3860POPC   D2A51244  38.702  21.064   6.605
 3860POPC   C3A51245  38.784  21.238   7.013
 3860POPC   C4A51246  39.111  21.203   7.268
 3860POPC   C1B51247  39.229  21.571   6.286
 3860POPC   C2B51248  39.269  21.354   6.689
 3860POPC   C3B51249  39.338  21.574   7.024
 3860POPC   C4B51250  38.986  21.709   7.200
 3861POPC   NC351251  17.982  23.982   5.417
 3861POPC   PO451252  18.544  23.591   5.224
 3861POPC   GL151253  18.431  23.708   5.690
 3861POPC   GL251254  18.072  23.727   5.883
 3861POPC   C1A51255  18.519  23.655   6.158
 3861POPC   D2A51256  18.552  23.509   6.619
 3861POPC   C3A51257  18.658  23.646   7.073
 3861POPC   C4A51258  18.619  23.701   7.558
 3861POPC   C1B51259  18.089  23.810   6.376
 3861POPC   C2B51260  18.110  23.714   6.848
 3861POPC   C3B51261  18.215  23.860   7.289
 3861POPC   C4B51262  18.130  24.005   7.733
 3862POPC   NC351263  13.226  41.109   5.481
 3862POPC   PO451264  12.678  40.813   5.280
 3862POPC   GL151265  12.785  40.817   5.760
 3862POPC   GL251266  13.039  40.574   5.921
 3862POPC   C1A51267  12.889  41.032   6.141
 3862POPC   D2A51268  12.751  41.247   6.445
 3862POPC   C3A51269  12.776  41.055   6.798
 3862POPC   C4A51270  12.840  41.052   7.255
 3862POPC   C1B51271  12.677  40.578   6.221
 3862POPC   C2B51272  12.646  40.521   6.675
 3862POPC   C3B51273  12.866  40.615   7.037
 3862POPC   C4B51274  12.837  40.559   7.469
 3863POPC   NC351275  42.132  10.327   5.137
 3863POPC   PO451276  42.686  10.144   5.393
 3863POPC   GL151277  42.313  10.216   5.647
 3863POPC   GL251278  42.207  10.541   5.612
 3863POPC   C1A51279  42.305  10.195   6.097
 3863POPC   D2A51280  42.582  10.420   6.404
 3863POPC   C3A51281  42.475  10.485   6.828
 3863POPC   C4A51282  42.578  10.277   7.199
 3863POPC   C1B51283  42.312  10.721   6.036
 3863POPC   C2B51284  42.187  10.782   6.480
 3863POPC   C3B51285  42.027  10.729   6.886
 3863POPC   C4B51286  42.085  10.422   7.189
 3864POPC   NC351287  40.344  25.411   5.375
 3864POPC   PO451288  39.818  25.718   5.402
 3864POPC   GL151289  39.783  25.344   5.689
 3864POPC   GL251290  40.077  25.269   5.792
 3864POPC   C1A51291  39.704  25.287   6.162
 3864POPC   D2A51292  39.737  25.561   6.552
 3864POPC   C3A51293  39.872  25.359   6.949
 3864POPC   C4A51294  39.917  25.399   7.396
 3864POPC   C1B51295  40.194  25.055   6.141
 3864POPC   C2B51296  40.052  25.065   6.541
 3864POPC   C3B51297  40.262  24.899   6.874
 3864POPC   C4B51298  40.359  25.140   7.225
 3865POPC   NC351299  20.644  27.080   5.461
 3865POPC   PO451300  21.008  26.545   5.688
 3865POPC   GL151301  20.573  26.409   5.782
 3865POPC   GL251302  20.386  26.692   5.749
 3865POPC   C1A51303  20.313  26.394   6.169
 3865POPC   D2A51304  20.570  26.475   6.545
 3865POPC   C3A51305  20.467  26.679   6.927
 3865POPC   C4A51306  20.795  26.794   7.224
 3865POPC   C1B51307  20.612  26.805   6.130
 3865POPC   C2B51308  20.542  26.991   6.504
 3865POPC   C3B51309  20.327  27.214   6.765
 3865POPC   C4B51310  20.361  27.109   7.197
 3866POPC   NC351311   9.106  34.780   5.205
 3866POPC   PO451312   8.604  34.444   5.556
 3866POPC   GL151313   8.851  34.589   5.825
 3866POPC   GL251314   9.170  34.498   5.667
 3866POPC   C1A51315   8.866  34.622   6.253
 3866POPC   D2A51316   9.039  34.734   6.647
 3866POPC   C3A51317   8.811  34.626   6.998
 3866POPC   C4A51318   8.897  34.589   7.427
 3866POPC   C1B51319   9.209  34.237   6.041
 3866POPC   C2B51320   9.155  34.238   6.484
 3866POPC   C3B51321   9.244  34.324   6.927
 3866POPC   C4B51322   9.240  34.154   7.349
 3867POPC   NC351323   9.379  33.364   5.566
 3867POPC   PO451324   8.973  32.979   5.115
 3867POPC   GL151325   9.085  32.927   5.569
 3867POPC   GL251326   9.434  32.812   5.527
 3867POPC   C1A51327   8.992  33.019   6.048
 3867POPC   D2A51328   8.774  32.975   6.457
 3867POPC   C3A51329   8.932  33.062   6.891
 3867POPC   C4A51330   8.760  32.819   7.253
 3867POPC   C1B51331   9.383  32.713   5.968
 3867POPC   C2B51332   9.246  32.758   6.407
 3867POPC   C3B51333   9.280  32.690   6.844
 3867POPC   C4B51334   9.322  32.841   7.238
 3868POPC   NC351335   8.441  24.502   5.270
 3868POPC   PO451336   8.101  25.056   5.367
 3868POPC   GL151337   8.361  24.800   5.718
 3868POPC   GL251338   8.215  24.470   5.750
 3868POPC   C1A51339   8.498  24.594   6.175
 3868POPC   D2A51340   8.435  24.273   6.536
 3868POPC   C3A51341   8.256  24.368   6.974
 3868POPC   C4A51342   8.280  24.535   7.400
 3868POPC   C1B51343   8.002  24.676   6.105
 3868POPC   C2B51344   8.042  24.658   6.561
 3868POPC   C3B51345   7.767  24.542   6.904
 3868POPC   C4B51346   7.785  24.373   7.305
 3869POPC   NC351347  16.900  43.891   5.159
 3869POPC   PO451348  16.476  43.579   5.578
 3869POPC   GL151349  16.544  43.983   5.816
 3869POPC   GL251350  16.665  43.705   6.053
 3869POPC   C1A51351  16.774  44.167   6.179
 3869POPC   D2A51352  16.709  43.934   6.539
 3869POPC   C3A51353  16.691  44.087   6.954
 3869POPC   C4A51354  16.455  43.932   7.312
 3869POPC   C1B51355  17.017  43.542   6.327
 3869POPC   C2B51356  17.063  43.634   6.761
 3869POPC   C3B51357  17.140  43.477   7.163
 3869POPC   C4B51358  16.962  43.501   7.577
 3870POPC   NC351359  37.922  43.703   5.310
 3870POPC   PO451360  37.447  44.241   5.253
 3870POPC   GL151361  37.435  44.128   5.742
 3870POPC   GL251362  37.590  43.752   5.752
 3870POPC   C1A51363  37.388  43.946   6.173
 3870POPC   D2A51364  37.269  43.826   6.583
 3870POPC   C3A51365  37.408  43.990   6.976
 3870POPC   C4A51366  37.506  43.911   7.406
 3870POPC   C1B51367  37.874  43.824   6.155
 3870POPC   C2B51368  37.801  43.942   6.610
 3870POPC   C3B51369  37.849  43.755   7.025
 3870POPC   C4B51370  37.944  43.593   7.429
 3871POPC   NC351371  20.892   1.484   5.626
 3871POPC   PO451372  21.487   1.279   5.323
 3871POPC   GL151373  21.319   1.204   5.718
 3871POPC   GL251374  21.079   0.987   5.662
 3871POPC   C1A51375  21.409   1.368   6.140
 3871POPC   D2A51376  21.708   1.300   6.476
 3871POPC   C3A51377  21.498   1.455   6.814
 3871POPC   C4A51378  21.387   1.517   7.226
 3871POPC   C1B51379  21.073   0.989   6.129
 3871POPC   C2B51380  21.340   0.967   6.499
 3871POPC   C3B51381  21.595   0.953   6.872
 3871POPC   C4B51382  21.388   0.829   7.236
 3872POPC   NC351383  24.174  31.762   5.245
 3872POPC   PO451384  23.620  31.381   5.327
 3872POPC   GL151385  23.623  31.311   5.781
 3872POPC   GL251386  23.301  31.155   5.900
 3872POPC   C1A51387  23.832  31.479   6.164
 3872POPC   D2A51388  23.784  31.720   6.551
 3872POPC   C3A51389  23.795  31.580   6.979
 3872POPC   C4A51390  23.710  31.813   7.373
 3872POPC   C1B51391  23.582  31.047   6.231
 3872POPC   C2B51392  23.709  31.191   6.646
 3872POPC   C3B51393  23.568  31.055   7.075
 3872POPC   C4B51394  23.509  30.976   7.533
 3873POPC   NC351395  30.432  38.552   5.378
 3873POPC   PO451396  30.948  38.068   5.223
 3873POPC   GL151397  30.795  38.227   5.712
 3873POPC   GL251398  30.402  38.309   5.831
 3873POPC   C1A51399  30.770  38.459   6.156
 3873POPC   D2A51400  30.914  38.707   6.546
 3873POPC   C3A51401  30.924  38.533   6.963
 3873POPC   C4A51402  30.731  38.703   7.318
 3873POPC   C1B51403  30.309  38.229   6.239
 3873POPC   C2B51404  30.529  38.332   6.611
 3873POPC   C3B51405  30.425  38.410   7.027
 3873POPC   C4B51406  30.253  38.099   7.305
 3874POPC   NC351407  25.852  13.900   5.554
 3874POPC   PO451408  26.237  13.585   5.097
 3874POPC   GL151409  26.233  13.600   5.626
 3874POPC   GL251410  25.928  13.474   5.881
 3874POPC   C1A51411  26.343  13.663   6.093
 3874POPC   D2A51412  26.046  13.639   6.418
 3874POPC   C3A51413  26.150  13.550   6.811
 3874POPC   C4A51414  26.273  13.616   7.193
 3874POPC   C1B51415  25.592  13.684   6.169
 3874POPC   C2B51416  25.466  13.735   6.580
 3874POPC   C3B51417  25.666  13.702   6.952
 3874POPC   C4B51418  25.798  13.731   7.366
 3875POPC   NC351419  19.888   4.016   5.405
 3875POPC   PO451420  20.047   4.614   5.430
 3875POPC   GL151421  19.897   4.333   5.821
 3875POPC   GL251422  20.135   4.020   5.850
 3875POPC   C1A51423  19.625   4.399   6.237
 3875POPC   D2A51424  19.422   4.261   6.637
 3875POPC   C3A51425  19.598   4.510   6.966
 3875POPC   C4A51426  19.482   4.659   7.347
 3875POPC   C1B51427  19.888   3.975   6.204
 3875POPC   C2B51428  19.769   3.902   6.608
 3875POPC   C3B51429  19.811   4.031   7.058
 3875POPC   C4B51430  19.954   4.045   7.508
 3876POPC   NC351431  10.610  41.860   5.421
 3876POPC   PO451432  10.546  42.587   5.410
 3876POPC   GL151433  10.651  42.504   5.847
 3876POPC   GL251434  11.004  42.626   5.870
 3876POPC   C1A51435  10.502  42.307   6.287
 3876POPC   D2A51436  10.644  42.094   6.687
 3876POPC   C3A51437  10.564  42.267   7.106
 3876POPC   C4A51438  10.490  42.702   7.225
 3876POPC   C1B51439  10.875  42.661   6.292
 3876POPC   C2B51440  10.712  42.610   6.716
 3876POPC   C3B51441  10.975  42.593   7.077
 3876POPC   C4B51442  10.892  42.429   7.491
 3877POPC   NC351443  10.084  10.170   5.529
 3877POPC   PO451444   9.728  10.789   5.510
 3877POPC   GL151445   9.875  10.597   5.854
 3877POPC   GL251446   9.566  10.431   5.960
 3877POPC   C1A51447   9.769  10.743   6.294
 3877POPC   D2A51448   9.576  10.896   6.677
 3877POPC   C3A51449   9.763  10.814   7.066
 3877POPC   C4A51450  10.078  10.551   7.227
 3877POPC   C1B51451   9.838  10.219   6.201
 3877POPC   C2B51452   9.822  10.024   6.555
 3877POPC   C3B51453   9.932  10.093   6.979
 3877POPC   C4B51454   9.756  10.083   7.368
 3878POPC   NC351455  28.654  17.008   5.498
 3878POPC   PO451456  28.058  16.527   5.494
 3878POPC   GL151457  28.252  16.802   5.764
 3878POPC   GL251458  28.477  16.560   5.906
 3878POPC   C1A51459  28.384  16.959   6.182
 3878POPC   D2A51460  28.263  16.728   6.560
 3878POPC   C3A51461  28.471  16.813   6.915
 3878POPC   C4A51462  28.216  17.013   7.207
 3878POPC   C1B51463  28.681  16.543   6.349
 3878POPC   C2B51464  28.740  16.379   6.789
 3878POPC   C3B51465  28.678  16.435   7.257
 3878POPC   C4B51466  28.777  16.455   7.733
 3879POPC   NC351467  40.563  31.572   5.371
 3879POPC   PO451468  40.101  31.126   5.603
 3879POPC   GL151469  40.469  31.283   5.831
 3879POPC   GL251470  40.455  31.649   5.889
 3879POPC   C1A51471  40.578  31.335   6.273
 3879POPC   D2A51472  40.306  31.597   6.539
 3879POPC   C3A51473  40.160  31.364   6.889
 3879POPC   C4A51474  40.509  31.244   7.144
 3879POPC   C1B51475  40.041  31.577   6.097
 3879POPC   C2B51476  39.786  31.643   6.485
 3879POPC   C3B51477  39.710  31.632   6.930
 3879POPC   C4B51478  39.678  31.948   7.241
 3880POPC   NC351479   4.554   8.801   5.275
 3880POPC   PO451480   4.046   9.045   5.632
 3880POPC   GL151481   4.279   8.942   5.972
 3880POPC   GL251482   4.502   9.205   5.887
 3880POPC   C1A51483   4.253   8.790   6.402
 3880POPC   D2A51484   4.286   9.123   6.678
 3880POPC   C3A51485   4.226   8.941   7.081
 3880POPC   C4A51486   4.167   9.299   7.298
 3880POPC   C1B51487   4.679   9.040   6.276
 3880POPC   C2B51488   4.701   8.847   6.694
 3880POPC   C3B51489   4.691   9.141   7.036
 3880POPC   C4B51490   4.591   9.102   7.517
 3881POPC   NC351491  43.144  44.290   5.442
 3881POPC   PO451492  42.861  44.966   5.330
 3881POPC   GL151493  42.891  44.696   5.735
 3881POPC   GL251494  42.689  44.374   5.778
 3881POPC   C1A51495  43.252  44.711   6.067
 3881POPC   D2A51496  43.500  44.821   6.452
 3881POPC   C3A51497  43.412  44.764   6.899
 3881POPC   C4A51498  43.329  44.901   7.327
 3881POPC   C1B51499  42.969  44.293   6.115
 3881POPC   C2B51500  42.997  44.551   6.488
 3881POPC   C3B51501  43.013  44.414   6.877
 3881POPC   C4B51502  42.957  44.589   7.218
 3882POPC   NC351503  16.511  26.802   5.338
 3882POPC   PO451504  17.102  26.939   5.524
 3882POPC   GL151505  16.883  26.752   5.843
 3882POPC   GL251506  16.570  26.607   5.807
 3882POPC   C1A51507  16.698  26.869   6.243
 3882POPC   D2A51508  16.802  27.048   6.651
 3882POPC   C3A51509  16.636  26.784   6.983
 3882POPC   C4A51510  16.785  26.684   7.387
 3882POPC   C1B51511  16.350  26.470   6.187
 3882POPC   C2B51512  16.300  26.517   6.621
 3882POPC   C3B51513  16.466  26.253   6.964
 3882POPC   C4B51514  16.447  26.312   7.432
 3883POPC   NC351515  22.350  21.080   5.140
 3883POPC   PO451516  21.850  21.489   5.127
 3883POPC   GL151517  22.061  21.581   5.589
 3883POPC   GL251518  22.363  21.427   5.785
 3883POPC   C1A51519  21.954  21.564   6.057
 3883POPC   D2A51520  22.062  21.319   6.430
 3883POPC   C3A51521  22.027  21.459   6.864
 3883POPC   C4A51522  21.828  21.244   7.196
 3883POPC   C1B51523  22.508  21.187   6.184
 3883POPC   C2B51524  22.483  21.159   6.672
 3883POPC   C3B51525  22.450  21.287   7.110
 3883POPC   C4B51526  22.550  21.344   7.554
 3884POPC   NC351527   2.269   9.829   5.372
 3884POPC   PO451528   1.685   9.597   5.180
 3884POPC   GL151529   1.760   9.815   5.573
 3884POPC   GL251530   2.074   9.944   5.805
 3884POPC   C1A51531   1.639   9.796   5.984
 3884POPC   D2A51532   1.898   9.666   6.342
 3884POPC   C3A51533   1.868   9.817   6.772
 3884POPC   C4A51534   1.878   9.606   7.191
 3884POPC   C1B51535   2.360  10.054   6.154
 3884POPC   C2B51536   2.387   9.814   6.536
 3884POPC   C3B51537   2.321   9.605   6.916
 3884POPC   C4B51538   2.359   9.831   7.292
 3885POPC   NC351539   9.676  22.663   5.319
 3885POPC   PO451540   9.962  22.057   5.457
 3885POPC   GL151541   9.719  22.177   5.837
 3885POPC   GL251542   9.536  22.494   5.833
 3885POPC   C1A51543   9.583  22.154   6.277
 3885POPC   D2A51544   9.790  22.001   6.658
 3885POPC   C3A51545   9.630  22.140   7.096
 3885POPC   C4A51546   9.744  22.126   7.564
 3885POPC   C1B51547   9.910  22.524   6.170
 3885POPC   C2B51548   9.857  22.532   6.624
 3885POPC   C3B51549  10.061  22.675   6.997
 3885POPC   C4B51550  10.104  22.502   7.450
 3886POPC   NC351551  27.318  43.561   5.428
 3886POPC   PO451552  27.676  43.988   5.337
 3886POPC   GL151553  27.585  43.860   5.768
 3886POPC   GL251554  27.897  43.730   5.756
 3886POPC   C1A51555  27.644  44.014   6.221
 3886POPC   D2A51556  27.720  44.218   6.669
 3886POPC   C3A51557  27.623  43.954   7.028
 3886POPC   C4A51558  27.308  43.675   7.233
 3886POPC   C1B51559  27.986  43.615   6.178
 3886POPC   C2B51560  27.970  43.753   6.611
 3886POPC   C3B51561  28.104  43.781   7.042
 3886POPC   C4B51562  28.010  43.941   7.445
 3887POPC   NC351563  31.828  18.898   5.243
 3887POPC   PO451564  32.474  19.148   5.357
 3887POPC   GL151565  32.245  18.932   5.690
 3887POPC   GL251566  32.082  18.600   5.592
 3887POPC   C1A51567  32.360  19.047   6.136
 3887POPC   D2A51568  32.136  19.201   6.506
 3887POPC   C3A51569  32.334  19.226   6.921
 3887POPC   C4A51570  32.155  19.254   7.333
 3887POPC   C1B51571  32.188  18.558   6.036
 3887POPC   C2B51572  32.441  18.611   6.421
 3887POPC   C3B51573  32.460  18.700   6.871
 3887POPC   C4B51574  32.316  18.692   7.270
 3888POPC   NC351575   6.472   5.836   5.238
 3888POPC   PO451576   6.800   5.265   5.464
 3888POPC   GL151577   6.799   5.332   5.862
 3888POPC   GL251578   6.567   5.073   5.956
 3888POPC   C1A51579   6.730   5.464   6.250
 3888POPC   D2A51580   6.873   5.372   6.636
 3888POPC   C3A51581   6.573   5.332   6.953
 3888POPC   C4A51582   6.758   5.151   7.280
 3888POPC   C1B51583   6.802   4.951   6.345
 3888POPC   C2B51584   6.763   4.880   6.810
 3888POPC   C3B51585   6.441   4.792   7.123
 3888POPC   C4B51586   6.080   4.939   7.355
 3889POPC   NC351587  37.734  40.631   5.303
 3889POPC   PO451588  37.984  41.303   5.410
 3889POPC   GL151589  37.744  41.034   5.731
 3889POPC   GL251590  37.566  40.687   5.781
 3889POPC   C1A51591  37.740  40.930   6.182
 3889POPC   D2A51592  37.950  40.750   6.535
 3889POPC   C3A51593  37.806  40.883   6.934
 3889POPC   C4A51594  37.466  40.951   7.187
 3889POPC   C1B51595  37.528  40.461   6.223
 3889POPC   C2B51596  37.624  40.357   6.678
 3889POPC   C3B51597  37.601  40.311   7.121
 3889POPC   C4B51598  37.232  40.489   7.303
 3890POPC   NC351599  40.176  19.471   5.448
 3890POPC   PO451600  39.975  20.125   5.437
 3890POPC   GL151601  39.936  19.854   5.808
 3890POPC   GL251602  40.093  19.541   5.942
 3890POPC   C1A51603  39.962  19.908   6.275
 3890POPC   D2A51604  40.203  20.007   6.642
 3890POPC   C3A51605  39.968  19.997   7.003
 3890POPC   C4A51606  40.008  20.235   7.321
 3890POPC   C1B51607  39.643  19.545   6.087
 3890POPC   C2B51608  39.529  19.687   6.518
 3890POPC   C3B51609  39.739  19.542   6.892
 3890POPC   C4B51610  40.158  19.516   7.072
 3891POPC   NC351611  27.409  10.185   5.241
 3891POPC   PO451612  27.134  10.768   5.295
 3891POPC   GL151613  27.228  10.492   5.667
 3891POPC   GL251614  27.497  10.702   5.839
 3891POPC   C1A51615  27.342  10.304   6.107
 3891POPC   D2A51616  27.522  10.472   6.503
 3891POPC   C3A51617  27.352  10.473   6.937
 3891POPC   C4A51618  27.252  10.833   7.196
 3891POPC   C1B51619  27.836  10.425   6.048
 3891POPC   C2B51620  27.989  10.218   6.441
 3891POPC   C3B51621  27.822  10.210   6.862
 3891POPC   C4B51622  27.701  10.208   7.277
 3892POPC   NC351623  44.994  16.064   5.528
 3892POPC   PO451624  44.356  15.831   5.446
 3892POPC   GL151625  44.446  16.067   5.806
 3892POPC   GL251626  44.738  15.853   5.905
 3892POPC   C1A51627  44.435  16.031   6.275
 3892POPC   D2A51628  44.702  16.003   6.641
 3892POPC   C3A51629  44.602  16.230   7.017
 3892POPC   C4A51630  44.964  16.339   7.297
 3892POPC   C1B51631  44.916  15.574   6.229
 3892POPC   C2B51632  44.735  15.479   6.615
 3892POPC   C3B51633  44.511  15.652   6.969
 3892POPC   C4B51634  44.804  15.815   7.220
 3893POPC   NC351635  38.419   0.322   5.327
 3893POPC   PO451636  39.046   0.323   5.490
 3893POPC   GL151637  38.722   0.486   5.820
 3893POPC   GL251638  38.336   0.426   5.826
 3893POPC   C1A51639  38.621   0.333   6.265
 3893POPC   D2A51640  38.835   0.409   6.677
 3893POPC   C3A51641  38.588   0.422   7.043
 3893POPC   C4A51642  38.687   0.472   7.461
 3893POPC   C1B51643  38.105   0.481   6.228
 3893POPC   C2B51644  37.945   0.582   6.616
 3893POPC   C3B51645  38.084   0.373   6.961
 3893POPC   C4B51646  38.181   0.506   7.366
 3894POPC   NC351647   3.047  42.330   5.630
 3894POPC   PO451648   3.635  42.187   5.339
 3894POPC   GL151649   3.520  42.450   5.791
 3894POPC   GL251650   3.165  42.620   6.000
 3894POPC   C1A51651   3.454  42.268   6.232
 3894POPC   D2A51652   3.496  41.903   6.507
 3894POPC   C3A51653   3.271  41.925   6.886
 3894POPC   C4A51654   3.566  41.953   7.217
 3894POPC   C1B51655   3.105  42.608   6.450
 3894POPC   C2B51656   3.196  42.460   6.888
 3894POPC   C3B51657   3.553  42.479   7.140
 3894POPC   C4B51658   3.654  42.703   7.552
 3895POPC   NC351659  41.794  21.626   5.618
 3895POPC   PO451660  41.896  20.913   5.514
 3895POPC   GL151661  41.728  21.158   5.854
 3895POPC   GL251662  41.417  21.356   5.860
 3895POPC   C1A51663  41.785  21.407   6.242
 3895POPC   D2A51664  41.696  21.230   6.651
 3895POPC   C3A51665  41.717  21.537   6.969
 3895POPC   C4A51666  41.428  21.569   7.273
 3895POPC   C1B51667  41.373  21.066   6.225
 3895POPC   C2B51668  41.148  21.030   6.620
 3895POPC   C3B51669  41.292  21.108   7.051
 3895POPC   C4B51670  41.694  21.033   7.147
 3896POPC   NC351671  36.290  11.523   5.690
 3896POPC   PO451672  36.204  10.854   5.454
 3896POPC   GL151673  36.043  11.077   5.843
 3896POPC   GL251674  35.815  11.370   5.926
 3896POPC   C1A51675  36.070  11.136   6.291
 3896POPC   D2A51676  35.848  11.240   6.642
 3896POPC   C3A51677  36.126  11.287   6.984
 3896POPC   C4A51678  36.182  11.311   7.425
 3896POPC   C1B51679  35.921  11.698   6.255
 3896POPC   C2B51680  36.079  11.709   6.683
 3896POPC   C3B51681  35.890  11.725   7.110
 3896POPC   C4B51682  35.834  11.673   7.566
 3897POPC   NC351683  15.059  38.098   5.398
 3897POPC   PO451684  14.965  37.383   5.474
 3897POPC   GL151685  15.179  37.548   5.820
 3897POPC   GL251686  15.126  37.925   5.888
 3897POPC   C1A51687  15.231  37.589   6.253
 3897POPC   D2A51688  15.045  37.478   6.590
 3897POPC   C3A51689  15.295  37.764   6.834
 3897POPC   C4A51690  15.517  37.883   7.203
 3897POPC   C1B51691  14.834  37.914   6.291
 3897POPC   C2B51692  14.783  37.896   6.767
 3897POPC   C3B51693  14.941  37.971   7.225
 3897POPC   C4B51694  15.262  38.128   7.557
 3898POPC   NC351695   7.159  23.940   5.499
 3898POPC   PO451696   7.613  23.491   5.489
 3898POPC   GL151697   7.618  23.531   5.932
 3898POPC   GL251698   7.901  23.715   5.945
 3898POPC   C1A51699   7.597  23.735   6.380
 3898POPC   D2A51700   7.335  23.584   6.727
 3898POPC   C3A51701   7.175  23.707   7.137
 3898POPC   C4A51702   7.172  23.956   7.495
 3898POPC   C1B51703   7.996  23.431   6.264
 3898POPC   C2B51704   7.860  23.422   6.727
 3898POPC   C3B51705   7.647  23.474   7.121
 3898POPC   C4B51706   7.602  23.376   7.559
 3899POPC   NC351707  22.874  11.923   5.458
 3899POPC   PO451708  23.437  12.424   5.491
 3899POPC   GL151709  23.201  12.118   5.825
 3899POPC   GL251710  22.809  12.092   5.936
 3899POPC   C1A51711  23.153  11.803   6.189
 3899POPC   D2A51712  23.047  11.668   6.625
 3899POPC   C3A51713  23.122  11.871   7.022
 3899POPC   C4A51714  22.945  11.804   7.379
 3899POPC   C1B51715  22.714  11.994   6.363
 3899POPC   C2B51716  22.859  12.206   6.742
 3899POPC   C3B51717  22.745  12.210   7.169
 3899POPC   C4B51718  22.487  12.365   7.532
 3900POPC   NC351719  35.695  33.272   5.423
 3900POPC   PO451720  35.064  33.025   5.454
 3900POPC   GL151721  35.339  33.146   5.765
 3900POPC   GL251722  35.298  32.820   5.938
 3900POPC   C1A51723  35.555  33.215   6.150
 3900POPC   D2A51724  35.407  33.015   6.483
 3900POPC   C3A51725  35.557  33.020   6.874
 3900POPC   C4A51726  35.585  33.083   7.307
 3900POPC   C1B51727  35.004  33.122   6.142
 3900POPC   C2B51728  34.914  33.180   6.561
 3900POPC   C3B51729  35.050  32.917   6.870
 3900POPC   C4B51730  35.029  32.964   7.300
 3901POPC   NC351731  30.165  26.076   5.151
 3901POPC   PO451732  29.869  25.760   5.686
 3901POPC   GL151733  30.148  25.995   5.922
 3901POPC   GL251734  29.959  26.253   5.786
 3901POPC   C1A51735  30.146  25.980   6.389
 3901POPC   D2A51736  30.233  26.019   6.837
 3901POPC   C3A51737  29.981  25.810   7.060
 3901POPC   C4A51738  29.867  25.833   7.460
 3901POPC   C1B51739  29.688  26.200   6.173
 3901POPC   C2B51740  29.538  26.382   6.559
 3901POPC   C3B51741  29.768  26.271   6.925
 3901POPC   C4B51742  29.658  26.279   7.348
 3902POPC   NC351743  16.632  33.896   5.031
 3902POPC   PO451744  16.771  34.469   5.317
 3902POPC   GL151745  16.713  34.168   5.589
 3902POPC   GL251746  16.427  34.267   5.781
 3902POPC   C1A51747  16.735  33.893   5.954
 3902POPC   D2A51748  16.832  33.910   6.398
 3902POPC   C3A51749  16.874  33.839   6.836
 3902POPC   C4A51750  17.004  34.060   7.176
 3902POPC   C1B51751  16.364  34.106   6.248
 3902POPC   C2B51752  16.426  34.037   6.713
 3902POPC   C3B51753  16.482  34.052   7.190
 3902POPC   C4B51754  16.309  34.250   7.603
 3903POPC   NC351755   6.126  29.979   5.391
 3903POPC   PO451756   5.661  29.535   5.347
 3903POPC   GL151757   5.534  29.636   5.772
 3903POPC   GL251758   5.840  29.805   5.864
 3903POPC   C1A51759   5.585  29.494   6.207
 3903POPC   D2A51760   5.902  29.668   6.509
 3903POPC   C3A51761   5.767  29.720   6.949
 3903POPC   C4A51762   5.719  29.989   7.301
 3903POPC   C1B51763   6.035  30.077   6.180
 3903POPC   C2B51764   6.293  30.010   6.535
 3903POPC   C3B51765   6.311  29.735   6.878
 3903POPC   C4B51766   6.163  29.719   7.279
 3904POPC   NC351767  19.181  21.337   5.390
 3904POPC   PO451768  19.609  21.898   5.391
 3904POPC   GL151769  19.467  21.574   5.708
 3904POPC   GL251770  19.083  21.624   5.807
 3904POPC   C1A51771  19.423  21.445   6.158
 3904POPC   D2A51772  19.105  21.576   6.487
 3904POPC   C3A51773  19.173  21.422   6.927
 3904POPC   C4A51774  19.127  21.529   7.378
 3904POPC   C1B51775  18.684  21.595   6.047
 3904POPC   C2B51776  18.509  21.607   6.469
 3904POPC   C3B51777  18.670  21.486   6.850
 3904POPC   C4B51778  18.610  21.592   7.268
 3905POPC   NC351779  43.682  28.035   5.350
 3905POPC   PO451780  43.901  28.656   5.273
 3905POPC   GL151781  43.799  28.455   5.687
 3905POPC   GL251782  43.976  28.136   5.773
 3905POPC   C1A51783  43.905  28.531   6.144
 3905POPC   D2A51784  43.881  28.340   6.565
 3905POPC   C3A51785  43.803  28.498   6.992
 3905POPC   C4A51786  43.886  28.490   7.439
 3905POPC   C1B51787  43.592  28.090   6.020
 3905POPC   C2B51788  43.473  28.038   6.469
 3905POPC   C3B51789  43.638  28.013   6.885
 3905POPC   C4B51790  43.548  28.143   7.280
 3906POPC   NC351791  19.893   9.978   5.183
 3906POPC   PO451792  19.483   9.751   5.746
 3906POPC   GL151793  19.783   9.987   5.962
 3906POPC   GL251794  20.080  10.036   5.738
 3906POPC   C1A51795  19.690  10.126   6.374
 3906POPC   D2A51796  19.452   9.783   6.542
 3906POPC   C3A51797  19.535   9.663   6.954
 3906POPC   C4A51798  19.836   9.880   7.185
 3906POPC   C1B51799  20.230   9.897   6.172
 3906POPC   C2B51800  20.062   9.845   6.609
 3906POPC   C3B51801  20.304   9.812   7.007
 3906POPC   C4B51802  20.231   9.705   7.452
 3907POPC   NC351803   5.077  33.793   5.432
 3907POPC   PO451804   5.684  33.973   5.319
 3907POPC   GL151805   5.458  33.894   5.777
 3907POPC   GL251806   5.357  33.563   5.832
 3907POPC   C1A51807   5.262  33.944   6.234
 3907POPC   D2A51808   5.079  33.778   6.646
 3907POPC   C3A51809   5.099  33.956   7.075
 3907POPC   C4A51810   4.889  34.090   7.473
 3907POPC   C1B51811   5.269  33.430   6.280
 3907POPC   C2B51812   5.484  33.380   6.698
 3907POPC   C3B51813   5.290  33.458   7.121
 3907POPC   C4B51814   5.211  33.327   7.574
 3908POPC   NC351815  36.357  41.986   5.458
 3908POPC   PO451816  36.308  42.625   5.403
 3908POPC   GL151817  36.275  42.524   5.857
 3908POPC   GL251818  36.164  42.160   5.903
 3908POPC   C1A51819  35.965  42.553   6.243
 3908POPC   D2A51820  35.812  42.895   6.561
 3908POPC   C3A51821  35.916  42.826   7.044
 3908POPC   C4A51822  36.241  42.628   7.326
 3908POPC   C1B51823  36.455  42.225   6.233
 3908POPC   C2B51824  36.621  42.403   6.590
 3908POPC   C3B51825  36.360  42.340   6.934
 3908POPC   C4B51826  36.468  42.192   7.364
 3909POPC   NC351827  10.793  30.838   5.298
 3909POPC   PO451828  11.387  30.483   5.165
 3909POPC   GL151829  11.167  30.603   5.589
 3909POPC   GL251830  11.151  30.985   5.711
 3909POPC   C1A51831  11.191  30.612   6.072
 3909POPC   D2A51832  11.083  30.502   6.515
 3909POPC   C3A51833  11.263  30.599   6.922
 3909POPC   C4A51834  11.328  30.694   7.352
 3909POPC   C1B51835  11.275  31.120   6.179
 3909POPC   C2B51836  11.407  31.047   6.632
 3909POPC   C3B51837  11.661  30.955   7.020
 3909POPC   C4B51838  11.803  30.795   7.458
 3910POPC   NC351839   5.309  43.212   5.428
 3910POPC   PO451840   4.790  42.971   5.178
 3910POPC   GL151841   4.859  43.085   5.638
 3910POPC   GL251842   5.113  42.857   5.766
 3910POPC   C1A51843   4.967  43.206   6.101
 3910POPC   D2A51844   5.134  43.317   6.532
 3910POPC   C3A51845   5.189  43.132   6.951
 3910POPC   C4A51846   5.321  43.315   7.351
 3910POPC   C1B51847   5.374  42.881   6.136
 3910POPC   C2B51848   5.491  42.957   6.545
 3910POPC   C3B51849   5.509  42.718   6.892
 3910POPC   C4B51850   5.481  42.828   7.290
 3911POPC   NC351851   7.741   5.262   5.408
 3911POPC   PO451852   8.335   4.994   5.156
 3911POPC   GL151853   8.297   5.081   5.665
 3911POPC   GL251854   8.005   5.187   5.855
 3911POPC   C1A51855   8.420   5.280   6.125
 3911POPC   D2A51856   8.473   5.395   6.599
 3911POPC   C3A51857   8.662   5.190   6.953
 3911POPC   C4A51858   8.430   5.219   7.311
 3911POPC   C1B51859   7.917   5.392   6.281
 3911POPC   C2B51860   7.979   5.509   6.718
 3911POPC   C3B51861   7.980   5.341   7.143
 3911POPC   C4B51862   8.037   5.236   7.623
 3912POPC   NC351863  26.071  14.005   5.085
 3912POPC   PO451864  25.999  14.600   5.261
 3912POPC   GL151865  26.022  14.368   5.692
 3912POPC   GL251866  26.171  14.077   5.868
 3912POPC   C1A51867  26.029  14.543   6.103
 3912POPC   D2A51868  26.231  14.563   6.503
 3912POPC   C3A51869  26.032  14.528   6.888
 3912POPC   C4A51870  25.729  14.686   7.168
 3912POPC   C1B51871  25.897  14.075   6.202
 3912POPC   C2B51872  25.866  14.084   6.637
 3912POPC   C3B51873  26.028  14.042   7.043
 3912POPC   C4B51874  26.002  14.304   7.373
 3913POPC   NC351875   6.431  44.639   5.400
 3913POPC   PO451876   7.065  44.650   5.402
 3913POPC   GL151877   6.798  44.603   5.784
 3913POPC   GL251878   6.565  44.340   5.796
 3913POPC   C1A51879   6.531  44.750   6.144
 3913POPC   D2A51880   6.370  44.924   6.552
 3913POPC   C3A51881   6.507  44.750   6.969
 3913POPC   C4A51882   6.938  44.813   7.158
 3913POPC   C1B51883   6.703  44.280   6.178
 3913POPC   C2B51884   6.736  44.488   6.566
 3913POPC   C3B51885   6.716  44.296   6.957
 3913POPC   C4B51886   6.434  44.308   7.282
 3914POPC   NC351887  18.464  37.951   5.486
 3914POPC   PO451888  18.400  38.655   5.362
 3914POPC   GL151889  18.161  38.665   5.743
 3914POPC   GL251890  18.243  38.314   5.783
 3914POPC   C1A51891  18.112  38.620   6.190
 3914POPC   D2A51892  18.420  38.583   6.520
 3914POPC   C3A51893  18.360  38.490   6.924
 3914POPC   C4A51894  18.008  38.510   7.150
 3914POPC   C1B51895  18.451  38.176   6.175
 3914POPC   C2B51896  18.303  38.065   6.613
 3914POPC   C3B51897  18.203  38.026   7.077
 3914POPC   C4B51898  18.180  37.955   7.586
 3915POPC   NC351899  36.795  40.322   5.150
 3915POPC   PO451900  37.198  40.843   5.344
 3915POPC   GL151901  37.083  40.883   5.751
 3915POPC   GL251902  36.743  40.950   5.827
 3915POPC   C1A51903  37.225  40.903   6.161
 3915POPC   D2A51904  37.403  40.835   6.584
 3915POPC   C3A51905  37.083  40.784   6.904
 3915POPC   C4A51906  36.951  41.088   7.232
 3915POPC   C1B51907  36.499  40.874   6.182
 3915POPC   C2B51908  36.604  40.604   6.523
 3915POPC   C3B51909  36.445  40.540   6.922
 3915POPC   C4B51910  36.727  40.580   7.266
 3916POPC   NC351911  28.056   8.683   5.193
 3916POPC   PO451912  27.512   9.051   5.521
 3916POPC   GL151913  27.552   9.075   5.952
 3916POPC   GL251914  27.875   9.284   5.920
 3916POPC   C1A51915  27.326   8.891   6.311
 3916POPC   D2A51916  27.192   8.588   6.644
 3916POPC   C3A51917  27.320   8.852   7.009
 3916POPC   C4A51918  27.502   9.246   7.180
 3916POPC   C1B51919  27.699   9.393   6.326
 3916POPC   C2B51920  27.622   9.137   6.693
 3916POPC   C3B51921  27.852   8.875   6.989
 3916POPC   C4B51922  27.941   8.687   7.393
 3917POPC   NC351923   8.038   7.721   5.429
 3917POPC   PO451924   8.437   7.153   5.350
 3917POPC   GL151925   8.332   7.386   5.731
 3917POPC   GL251926   7.988   7.274   5.795
 3917POPC   C1A51927   8.327   7.466   6.200
 3917POPC   D2A51928   8.166   7.324   6.606
 3917POPC   C3A51929   8.240   7.516   7.035
 3917POPC   C4A51930   8.502   7.886   7.112
 3917POPC   C1B51931   8.078   6.995   6.152
 3917POPC   C2B51932   8.016   6.836   6.565
 3917POPC   C3B51933   7.794   7.086   6.845
 3917POPC   C4B51934   7.933   7.151   7.248
 3918POPC   NC351935  35.267   9.281   5.422
 3918POPC   PO451936  35.633   8.685   5.665
 3918POPC   GL151937  35.404   8.963   5.777
 3918POPC   GL251938  35.672   9.242   5.724
 3918POPC   C1A51939  35.177   8.885   6.152
 3918POPC   D2A51940  35.379   8.885   6.536
 3918POPC   C3A51941  35.161   9.039   6.869
 3918POPC   C4A51942  35.315   8.826   7.183
 3918POPC   C1B51943  35.583   9.205   6.162
 3918POPC   C2B51944  35.784   9.300   6.526
 3918POPC   C3B51945  35.669   9.134   6.880
 3918POPC   C4B51946  35.570   9.266   7.254
 3919POPC   NC351947  37.006  30.138   5.387
 3919POPC   PO451948  36.699  29.461   5.357
 3919POPC   GL151949  36.583  29.800   5.727
 3919POPC   GL251950  36.901  29.956   5.837
 3919POPC   C1A51951  36.582  29.795   6.205
 3919POPC   D2A51952  36.921  29.623   6.506
 3919POPC   C3A51953  36.991  29.620   6.975
 3919POPC   C4A51954  36.787  29.676   7.391
 3919POPC   C1B51955  37.064  30.052   6.232
 3919POPC   C2B51956  36.773  30.121   6.584
 3919POPC   C3B51957  36.694  30.040   7.013
 3919POPC   C4B51958  36.983  30.126   7.354
 3920POPC   NC351959  27.274  24.428   5.517
 3920POPC   PO451960  26.641  24.522   5.303
 3920POPC   GL151961  26.817  24.662   5.678
 3920POPC   GL251962  26.681  24.968   5.632
 3920POPC   C1A51963  26.887  24.499   6.120
 3920POPC   D2A51964  26.692  24.275   6.480
 3920POPC   C3A51965  26.804  24.393   6.898
 3920POPC   C4A51966  26.670  24.297   7.314
 3920POPC   C1B51967  26.701  24.991   6.073
 3920POPC   C2B51968  26.576  24.798   6.466
 3920POPC   C3B51969  26.513  24.979   6.872
 3920POPC   C4B51970  26.730  24.832   7.226
 3921POPC   NC351971  11.622   0.854   5.369
 3921POPC   PO451972  11.333   0.201   5.241
 3921POPC   GL151973  11.186   0.255   5.679
 3921POPC   GL251974  11.415   0.539   5.821
 3921POPC   C1A51975  11.242   0.171   6.151
 3921POPC   D2A51976  11.416   0.247   6.581
 3921POPC   C3A51977  11.239   0.106   6.948
 3921POPC   C4A51978  11.033   0.222   7.308
 3921POPC   C1B51979  11.659   0.536   6.247
 3921POPC   C2B51980  11.693   0.696   6.657
 3921POPC   C3B51981  11.734   0.378   6.965
 3921POPC   C4B51982  11.494   0.385   7.306
 3922POPC   NC351983  26.760   8.016   5.325
 3922POPC   PO451984  26.618   8.643   5.348
 3922POPC   GL151985  26.799   8.448   5.764
 3922POPC   GL251986  26.684   8.103   5.840
 3922POPC   C1A51987  26.847   8.350   6.245
 3922POPC   D2A51988  26.640   8.493   6.615
 3922POPC   C3A51989  26.689   8.280   7.020
 3922POPC   C4A51990  26.679   8.363   7.472
 3922POPC   C1B51991  26.460   7.986   6.236
 3922POPC   C2B51992  26.305   8.112   6.640
 3922POPC   C3B51993  26.252   8.022   7.076
 3922POPC   C4B51994  26.547   7.865   7.381
 3923POPC   NC351995  27.604  17.699   4.938
 3923POPC   PO451996  27.479  17.254   5.444
 3923POPC   GL151997  27.603  17.515   5.759
 3923POPC   GL251998  27.340  17.398   5.919
 3923POPC   C1A51999  27.677  17.726   6.150
 3923POPC   D2A52000  27.805  17.583   6.549
 3923POPC   C3A52001  27.694  17.771   6.912
 3923POPC   C4A52002  27.543  17.641   7.259
 3923POPC   C1B52003  27.522  17.256   6.291
 3923POPC   C2B52004  27.376  17.359   6.719
 3923POPC   C3B52005  27.201  17.291   7.102
 3923POPC   C4B52006  27.309  17.068   7.444
 3924POPC   NC352007  33.703  20.977   5.420
 3924POPC   PO452008  33.508  20.341   5.338
 3924POPC   GL152009  33.733  20.508   5.712
 3924POPC   GL252010  33.567  20.812   5.875
 3924POPC   C1A52011  33.890  20.363   6.128
 3924POPC   D2A52012  33.726  20.312   6.571
 3924POPC   C3A52013  34.010  20.323   6.957
 3924POPC   C4A52014  34.100  20.596   7.336
 3924POPC   C1B52015  33.637  20.770   6.316
 3924POPC   C2B52016  33.923  20.795   6.672
 3924POPC   C3B52017  33.717  20.745   7.051
 3924POPC   C4B52018  33.352  20.974   7.174
 3925POPC   NC352019  20.126  41.064   5.524
 3925POPC   PO452020  20.100  40.391   5.524
 3925POPC   GL152021  20.004  40.647   5.827
 3925POPC   GL252022  19.635  40.665   5.786
 3925POPC   C1A52023  20.162  40.765   6.222
 3925POPC   D2A52024  20.074  40.613   6.627
 3925POPC   C3A52025  20.138  40.901   6.945
 3925POPC   C4A52026  20.406  41.066   7.214
 3925POPC   C1B52027  19.665  40.551   6.242
 3925POPC   C2B52028  19.566  40.732   6.658
 3925POPC   C3B52029  19.725  40.604   7.060
 3925POPC   C4B52030  20.104  40.404   7.110
 3926POPC   NC352031   5.833  30.857   5.533
 3926POPC   PO452032   6.182  31.396   5.306
 3926POPC   GL152033   6.103  31.666   5.686
 3926POPC   GL252034   5.726  31.722   5.642
 3926POPC   C1A52035   6.178  31.584   6.165
 3926POPC   D2A52036   6.063  31.258   6.500
 3926POPC   C3A52037   6.044  31.502   6.866
 3926POPC   C4A52038   6.079  31.557   7.283
 3926POPC   C1B52039   5.690  31.467   6.016
 3926POPC   C2B52040   5.664  31.550   6.454
 3926POPC   C3B52041   5.586  31.296   6.797
 3926POPC   C4B52042   5.583  31.500   7.173
 3927POPC   NC352043   1.074   0.673   5.525
 3927POPC   PO452044   1.273   0.129   5.434
 3927POPC   GL152045   1.251   0.286   5.849
 3927POPC   GL252046   0.921   0.230   5.876
 3927POPC   C1A52047   1.402   0.357   6.302
 3927POPC   D2A52048   1.370   0.271   6.793
 3927POPC   C3A52049   1.093   0.525   7.041
 3927POPC   C4A52050   1.115   0.960   7.120
 3927POPC   C1B52051   0.901   0.337   6.302
 3927POPC   C2B52052   0.737   0.199   6.686
 3927POPC   C3B52053   0.960   0.025   7.026
 3927POPC   C4B52054   1.194   0.161   7.402
 3928POPC   NC352055  14.076  42.992   5.440
 3928POPC   PO452056  13.397  42.977   5.343
 3928POPC   GL152057  13.662  43.109   5.706
 3928POPC   GL252058  13.656  42.767   5.824
 3928POPC   C1A52059  13.893  43.080   6.134
 3928POPC   D2A52060  13.761  42.951   6.559
 3928POPC   C3A52061  13.933  42.979   6.963
 3928POPC   C4A52062  13.909  43.235   7.335
 3928POPC   C1B52063  13.467  42.686   6.219
 3928POPC   C2B52064  13.274  42.826   6.603
 3928POPC   C3B52065  13.474  42.711   6.945
 3928POPC   C4B52066  13.603  42.836   7.338
 3929POPC   NC352067  32.033  39.476   5.634
 3929POPC   PO452068  32.357  38.979   5.301
 3929POPC   GL152069  32.455  38.981   5.746
 3929POPC   GL252070  32.113  38.972   5.847
 3929POPC   C1A52071  32.447  39.204   6.169
 3929POPC   D2A52072  32.507  39.049   6.588
 3929POPC   C3A52073  32.489  39.315   6.948
 3929POPC   C4A52074  32.497  39.234   7.409
 3929POPC   C1B52075  32.172  38.783   6.274
 3929POPC   C2B52076  31.992  38.908   6.694
 3929POPC   C3B52077  32.099  39.016   7.140
 3929POPC   C4B52078  32.154  38.907   7.589
 3930POPC   NC352079  10.267  44.897   5.363
 3930POPC   PO452080  10.798  44.356   5.422
 3930POPC   GL152081  10.737  44.669   5.779
 3930POPC   GL252082  10.378  44.676   5.803
 3930POPC   C1A52083  10.728  44.758   6.265
 3930POPC   D2A52084  10.817  44.531   6.707
 3930POPC   C3A52085  10.834  44.777   7.080
 3930POPC   C4A52086  10.560   0.057   7.279
 3930POPC   C1B52087  10.307  44.470   6.178
 3930POPC   C2B52088  10.290  44.589   6.585
 3930POPC   C3B52089  10.364  44.378   6.952
 3930POPC   C4B52090  10.327  44.590   7.323
 3931POPC   NC352091  28.633  42.614   5.213
 3931POPC   PO452092  28.224  42.160   5.487
 3931POPC   GL152093  28.391  42.029   5.879
 3931POPC   GL252094  28.488  42.357   5.887
 3931POPC   C1A52095  28.363  42.098   6.338
 3931POPC   D2A52096  28.194  42.346   6.638
 3931POPC   C3A52097  28.320  42.142   6.989
 3931POPC   C4A52098  28.570  42.307   7.297
 3931POPC   C1B52099  28.425  42.599   6.244
 3931POPC   C2B52100  28.452  42.820   6.591
 3931POPC   C3B52101  28.398  42.688   6.992
 3931POPC   C4B52102  28.611  42.834   7.328
 3932POPC   NC352103  21.729  28.950   5.443
 3932POPC   PO452104  22.391  29.230   5.267
 3932POPC   GL152105  22.176  29.281   5.659
 3932POPC   GL252106  22.145  28.938   5.801
 3932POPC   C1A52107  22.090  29.364   6.100
 3932POPC   D2A52108  22.226  29.511   6.499
 3932POPC   C3A52109  22.047  29.401   6.910
 3932POPC   C4A52110  22.288  29.476   7.291
 3932POPC   C1B52111  22.029  28.849   6.245
 3932POPC   C2B52112  21.936  28.891   6.709
 3932POPC   C3B52113  22.039  28.789   7.138
 3932POPC   C4B52114  21.896  28.512   7.459
 3933POPC   NC352115  25.054   3.145   5.584
 3933POPC   PO452116  25.450   2.702   5.385
 3933POPC   GL152117  25.491   2.836   5.830
 3933POPC   GL252118  25.165   2.889   6.009
 3933POPC   C1A52119  25.586   2.655   6.261
 3933POPC   D2A52120  25.619   2.423   6.685
 3933POPC   C3A52121  25.456   2.585   7.096
 3933POPC   C4A52122  25.321   2.925   7.401
 3933POPC   C1B52123  25.075   2.607   6.345
 3933POPC   C2B52124  25.073   2.472   6.760
 3933POPC   C3B52125  24.947   2.714   7.150
 3933POPC   C4B52126  24.977   2.551   7.594
 3934POPC   NC352127   9.098  20.285   4.895
 3934POPC   PO452128   9.063  20.745   5.405
 3934POPC   GL152129   9.171  20.774   5.833
 3934POPC   GL252130   9.117  20.427   5.897
 3934POPC   C1A52131   9.027  20.808   6.268
 3934POPC   D2A52132   9.071  20.656   6.693
 3934POPC   C3A52133   8.818  20.807   6.995
 3934POPC   C4A52134   8.884  21.005   7.359
 3934POPC   C1B52135   9.158  20.292   6.329
 3934POPC   C2B52136   9.168  20.035   6.687
 3934POPC   C3B52137   9.340  20.205   7.030
 3934POPC   C4B52138   9.145  20.526   7.261
 3935POPC   NC352139  38.257  21.057   5.330
 3935POPC   PO452140  38.474  20.378   5.441
 3935POPC   GL152141  38.490  20.276   5.884
 3935POPC   GL252142  38.833  20.360   5.818
 3935POPC   C1A52143  38.386  20.441   6.341
 3935POPC   D2A52144  38.260  20.781   6.651
 3935POPC   C3A52145  38.299  20.745   7.139
 3935POPC   C4A52146  38.173  20.792   7.625
 3935POPC   C1B52147  38.760  20.700   6.095
 3935POPC   C2B52148  38.907  20.594   6.492
 3935POPC   C3B52149  38.734  20.572   6.874
 3935POPC   C4B52150  38.804  20.790   7.249
 3936POPC   NC352151   8.613  44.384   5.532
 3936POPC   PO452152   8.457  44.995   5.336
 3936POPC   GL152153   8.785  44.838   5.713
 3936POPC   GL252154   9.177  44.835   5.793
 3936POPC   C1A52155   8.852  44.799   6.189
 3936POPC   D2A52156   8.825   0.014   6.612
 3936POPC   C3A52157   8.706  44.762   6.978
 3936POPC   C4A52158   8.891  44.768   7.421
 3936POPC   C1B52159   9.304  44.553   6.167
 3936POPC   C2B52160   9.103  44.558   6.587
 3936POPC   C3B52161   9.086  44.435   7.020
 3936POPC   C4B52162   9.485  44.375   7.184
 3937POPC   NC352163  25.577   9.244   5.449
 3937POPC   PO452164  24.949   9.008   5.275
 3937POPC   GL152165  25.150   8.999   5.715
 3937POPC   GL252166  25.491   8.890   5.800
 3937POPC   C1A52167  25.243   9.102   6.167
 3937POPC   D2A52168  25.226   9.181   6.601
 3937POPC   C3A52169  25.218   8.947   6.965
 3937POPC   C4A52170  25.144   9.096   7.364
 3937POPC   C1B52171  25.711   8.826   6.187
 3937POPC   C2B52172  25.652   8.867   6.637
 3937POPC   C3B52173  25.694   8.808   7.060
 3937POPC   C4B52174  25.539   8.791   7.450
 3938POPC   NC352175  22.743  22.569   5.430
 3938POPC   PO452176  23.223  23.022   5.385
 3938POPC   GL152177  22.898  23.000   5.721
 3938POPC   GL252178  22.889  22.696   5.910
 3938POPC   C1A52179  22.767  23.124   6.142
 3938POPC   D2A52180  22.777  22.998   6.569
 3938POPC   C3A52181  22.790  23.296   6.870
 3938POPC   C4A52182  22.994  23.220   7.232
 3938POPC   C1B52183  23.120  22.722   6.319
 3938POPC   C2B52184  23.038  22.601   6.790
 3938POPC   C3B52185  22.921  22.602   7.260
 3938POPC   C4B52186  22.839  22.440   7.729
 3939POPC   NC352187  34.795  30.158   5.441
 3939POPC   PO452188  34.419  30.793   5.364
 3939POPC   GL152189  34.594  30.754   5.800
 3939POPC   GL252190  34.871  30.597   5.731
 3939POPC   C1A52191  34.805  30.845   6.230
 3939POPC   D2A52192  34.626  31.075   6.594
 3939POPC   C3A52193  34.438  30.764   6.873
 3939POPC   C4A52194  34.532  30.720   7.290
 3939POPC   C1B52195  34.774  30.333   6.108
 3939POPC   C2B52196  34.722  30.224   6.558
 3939POPC   C3B52197  34.813  30.413   6.976
 3939POPC   C4B52198  34.994  30.547   7.391
 3940POPC   NC352199  23.670  42.759   5.337
 3940POPC   PO452200  23.753  43.433   5.422
 3940POPC   GL152201  23.715  43.208   5.784
 3940POPC   GL252202  24.041  43.121   5.860
 3940POPC   C1A52203  23.581  43.091   6.200
 3940POPC   D2A52204  23.764  43.041   6.600
 3940POPC   C3A52205  23.474  43.009   6.928
 3940POPC   C4A52206  23.607  43.071   7.320
 3940POPC   C1B52207  23.930  43.454   6.204
 3940POPC   C2B52208  23.904  43.552   6.644
 3940POPC   C3B52209  23.993  43.313   7.025
 3940POPC   C4B52210  23.903  43.498   7.425
 3941POPC   NC352211  41.054  21.760   5.522
 3941POPC   PO452212  41.148  22.293   5.084
 3941POPC   GL152213  40.952  22.256   5.584
 3941POPC   GL252214  41.069  22.467   5.850
 3941POPC   C1A52215  40.825  22.038   6.057
 3941POPC   D2A52216  40.634  21.874   6.482
 3941POPC   C3A52217  40.727  21.930   6.957
 3941POPC   C4A52218  40.615  22.127   7.354
 3941POPC   C1B52219  40.961  22.459   6.287
 3941POPC   C2B52220  40.940  22.275   6.655
 3941POPC   C3B52221  40.973  22.405   7.054
 3941POPC   C4B52222  41.368  22.505   7.235
 3942POPC   NC352223  29.042   0.671   5.430
 3942POPC   PO452224  29.356   0.145   5.240
 3942POPC   GL152225  29.408   0.260   5.725
 3942POPC   GL252226  29.086   0.348   5.817
 3942POPC   C1A52227  29.445   0.475   6.186
 3942POPC   D2A52228  29.263   0.741   6.500
 3942POPC   C3A52229  29.345   0.695   6.941
 3942POPC   C4A52230  29.355   0.586   7.387
 3942POPC   C1B52231  29.165   0.061   6.152
 3942POPC   C2B52232  29.184   0.212   6.576
 3942POPC   C3B52233  29.080   0.274   7.013
 3942POPC   C4B52234  29.327   0.088   7.322
 3943POPC   NC352235   0.417  25.926   5.219
 3943POPC   PO452236   0.494  26.525   5.422
 3943POPC   GL152237   0.234  26.196   5.666
 3943POPC   GL252238   0.278  25.814   5.691
 3943POPC   C1A52239   0.175  26.189   6.124
 3943POPC   D2A52240   0.505  26.267   6.467
 3943POPC   C3A52241   0.492  26.094   6.877
 3943POPC   C4A52242   0.141  26.085   7.149
 3943POPC   C1B52243   0.496  25.820   6.073
 3943POPC   C2B52244   0.371  25.758   6.491
 3943POPC   C3B52245   0.347  25.614   6.919
 3943POPC   C4B52246   0.478  25.730   7.346
 3944POPC   NC352247  19.205  10.934   5.150
 3944POPC   PO452248  19.313  10.736   5.749
 3944POPC   GL152249  19.151  11.179   5.927
 3944POPC   GL252250  18.786  11.294   5.906
 3944POPC   C1A52251  19.077  11.358   6.351
 3944POPC   D2A52252  19.144  11.130   6.736
 3944POPC   C3A52253  19.219  11.364   7.140
 3944POPC   C4A52254  19.171  11.139   7.536
 3944POPC   C1B52255  18.728  10.952   6.264
 3944POPC   C2B52256  18.696  10.839   6.723
 3944POPC   C3B52257  18.853  10.987   7.130
 3944POPC   C4B52258  18.670  11.043   7.534
 3945POPC   NC352259  32.650  27.416   5.447
 3945POPC   PO452260  32.117  27.397   5.099
 3945POPC   GL152261  32.275  27.703   5.616
 3945POPC   GL252262  32.595  27.697   5.867
 3945POPC   C1A52263  32.178  27.630   6.113
 3945POPC   D2A52264  31.968  27.677   6.503
 3945POPC   C3A52265  32.085  27.523   6.893
 3945POPC   C4A52266  32.240  27.527   7.276
 3945POPC   C1B52267  32.605  27.418   6.289
 3945POPC   C2B52268  32.569  27.369   6.766
 3945POPC   C3B52269  32.722  27.554   7.153
 3945POPC   C4B52270  32.573  27.828   7.507
 3946POPC   NC352271   2.252  21.987   5.391
 3946POPC   PO452272   1.677  22.158   5.580
 3946POPC   GL152273   1.977  22.094   5.902
 3946POPC   GL252274   2.331  22.049   5.899
 3946POPC   C1A52275   1.987  22.098   6.340
 3946POPC   D2A52276   1.705  21.827   6.544
 3946POPC   C3A52277   1.743  21.906   6.931
 3946POPC   C4A52278   1.573  21.867   7.301
 3946POPC   C1B52279   2.405  21.801   6.282
 3946POPC   C2B52280   2.213  21.792   6.699
 3946POPC   C3B52281   2.207  22.111   7.054
 3946POPC   C4B52282   2.195  22.415   7.408
 3947POPC   NC352283  35.712  23.030   5.427
 3947POPC   PO452284  35.054  23.327   5.451
 3947POPC   GL152285  35.282  23.117   5.777
 3947POPC   GL252286  35.318  22.753   5.685
 3947POPC   C1A52287  35.288  23.027   6.233
 3947POPC   D2A52288  35.187  23.138   6.678
 3947POPC   C3A52289  35.116  22.797   6.962
 3947POPC   C4A52290  35.171  22.774   7.396
 3947POPC   C1B52291  35.581  22.632   6.042
 3947POPC   C2B52292  35.573  22.669   6.490
 3947POPC   C3B52293  35.603  22.884   6.871
 3947POPC   C4B52294  35.622  22.617   7.224
 3948POPC   NC352295  20.037   2.511   5.365
 3948POPC   PO452296  19.419   2.356   5.588
 3948POPC   GL152297  19.738   2.546   5.802
 3948POPC   GL252298  19.765   2.901   5.706
 3948POPC   C1A52299  19.768   2.580   6.229
 3948POPC   D2A52300  19.675   2.859   6.541
 3948POPC   C3A52301  19.682   2.669   6.928
 3948POPC   C4A52302  19.458   2.757   7.317
 3948POPC   C1B52303  20.133   2.858   5.995
 3948POPC   C2B52304  20.142   3.020   6.429
 3948POPC   C3B52305  20.041   3.030   6.878
 3948POPC   C4B52306  19.995   2.848   7.293
 3949POPC   NC352307  11.095  15.182   5.316
 3949POPC   PO452308  11.019  14.541   5.236
 3949POPC   GL152309  11.166  14.775   5.653
 3949POPC   GL252310  10.965  14.751   5.965
 3949POPC   C1A52311  11.375  15.072   5.993
 3949POPC   D2A52312  11.498  15.278   6.395
 3949POPC   C3A52313  11.345  15.083   6.777
 3949POPC   C4A52314  11.575  15.070   7.175
 3949POPC   C1B52315  10.930  15.114   6.262
 3949POPC   C2B52316  10.780  15.490   6.527
 3949POPC   C3B52317  10.924  15.593   6.941
 3949POPC   C4B52318  11.126  15.298   7.229
 3950POPC   NC352319   6.104  19.538   5.435
 3950POPC   PO452320   5.980  20.228   5.468
 3950POPC   GL152321   5.961  19.907   5.778
 3950POPC   GL252322   5.688  19.688   5.719
 3950POPC   C1A52323   6.034  19.675   6.180
 3950POPC   D2A52324   6.190  19.567   6.621
 3950POPC   C3A52325   6.008  19.789   6.978
 3950POPC   C4A52326   5.889  19.634   7.379
 3950POPC   C1B52327   5.534  19.556   6.138
 3950POPC   C2B52328   5.694  19.643   6.569
 3950POPC   C3B52329   5.506  19.657   6.983
 3950POPC   C4B52330   5.451  19.888   7.361
 3951POPC   NC352331  16.496  15.101   4.915
 3951POPC   PO452332  15.951  15.089   5.253
 3951POPC   GL152333  15.932  15.043   5.741
 3951POPC   GL252334  15.595  15.114   5.891
 3951POPC   C1A52335  15.985  15.282   6.170
 3951POPC   D2A52336  15.729  15.386   6.569
 3951POPC   C3A52337  15.887  15.332   6.997
 3951POPC   C4A52338  16.047  15.619   7.373
 3951POPC   C1B52339  15.658  14.918   6.324
 3951POPC   C2B52340  15.570  14.925   6.780
 3951POPC   C3B52341  15.567  14.989   7.214
 3951POPC   C4B52342  15.583  15.386   7.397
 3952POPC   NC352343   7.235   4.942   5.416
 3952POPC   PO452344   7.363   5.541   5.263
 3952POPC   GL152345   7.310   5.367   5.731
 3952POPC   GL252346   7.512   5.092   5.842
 3952POPC   C1A52347   7.211   5.271   6.206
 3952POPC   D2A52348   7.260   5.015   6.588
 3952POPC   C3A52349   7.189   5.165   6.983
 3952POPC   C4A52350   7.500   5.295   7.241
 3952POPC   C1B52351   7.689   4.934   6.239
 3952POPC   C2B52352   7.762   5.034   6.695
 3952POPC   C3B52353   7.610   4.835   7.087
 3952POPC   C4B52354   7.661   4.876   7.551
 3953POPC   NC352355  36.249  34.848   5.257
 3953POPC   PO452356  35.729  34.549   5.645
 3953POPC   GL152357  36.159  34.675   5.781
 3953POPC   GL252358  36.347  34.371   5.908
 3953POPC   C1A52359  36.193  34.780   6.223
 3953POPC   D2A52360  36.057  34.507   6.586
 3953POPC   C3A52361  35.774  34.683   6.867
 3953POPC   C4A52362  35.669  34.600   7.285
 3953POPC   C1B52363  36.495  34.351   6.361
 3953POPC   C2B52364  36.530  34.768   6.608
 3953POPC   C3B52365  36.295  34.859   6.954
 3953POPC   C4B52366  36.151  34.497   7.161
 3954POPC   NC352367  42.712  17.007   5.340
 3954POPC   PO452368  43.367  16.853   5.183
 3954POPC   GL152369  43.442  16.674   5.613
 3954POPC   GL252370  43.106  16.727   5.655
 3954POPC   C1A52371  43.432  16.849   6.063
 3954POPC   D2A52372  43.258  17.160   6.374
 3954POPC   C3A52373  43.159  17.027   6.810
 3954POPC   C4A52374  43.298  16.930   7.225
 3954POPC   C1B52375  43.011  16.585   6.079
 3954POPC   C2B52376  43.214  16.619   6.487
 3954POPC   C3B52377  43.324  16.533   6.913
 3954POPC   C4B52378  43.145  16.424   7.303
 3955POPC   NC352379  29.523   8.339   5.417
 3955POPC   PO452380  30.164   8.083   5.354
 3955POPC   GL152381  29.908   8.095   5.767
 3955POPC   GL252382  29.686   8.356   5.885
 3955POPC   C1A52383  29.917   8.110   6.263
 3955POPC   D2A52384  29.782   8.236   6.686
 3955POPC   C3A52385  29.871   8.090   7.116
 3955POPC   C4A52386  29.694   7.825   7.454
 3955POPC   C1B52387  29.439   8.437   6.230
 3955POPC   C2B52388  29.466   8.618   6.627
 3955POPC   C3B52389  29.583   8.558   7.045
 3955POPC   C4B52390  29.994   8.594   7.193
 3956POPC   NC352391  11.784  21.794   5.504
 3956POPC   PO452392  11.431  21.300   5.217
 3956POPC   GL152393  11.303  21.582   5.686
 3956POPC   GL252394  11.570  21.689   5.964
 3956POPC   C1A52395  11.124  21.503   6.120
 3956POPC   D2A52396  11.264  21.606   6.546
 3956POPC   C3A52397  11.218  21.348   6.920
 3956POPC   C4A52398  11.253  21.193   7.341
 3956POPC   C1B52399  11.608  21.323   6.266
 3956POPC   C2B52400  11.518  21.071   6.612
 3956POPC   C3B52401  11.611  20.989   7.027
 3956POPC   C4B52402  11.679  20.930   7.462
 3957POPC   NC352403  30.242   6.264   5.627
 3957POPC   PO452404  30.749   6.683   5.430
 3957POPC   GL152405  30.885   6.648   5.836
 3957POPC   GL252406  30.569   6.515   5.914
 3957POPC   C1A52407  30.789   6.758   6.280
 3957POPC   D2A52408  30.626   6.516   6.615
 3957POPC   C3A52409  30.689   6.721   6.991
 3957POPC   C4A52410  30.799   6.932   7.340
 3957POPC   C1B52411  30.399   6.235   6.251
 3957POPC   C2B52412  30.157   6.268   6.643
 3957POPC   C3B52413  30.227   6.333   7.074
 3957POPC   C4B52414  30.256   6.256   7.548
 3958POPC   NC352415  39.979   0.354   5.439
 3958POPC   PO452416  39.742   0.959   5.380
 3958POPC   GL152417  39.802   0.741   5.807
 3958POPC   GL252418  40.127   0.562   5.864
 3958POPC   C1A52419  39.946   0.734   6.280
 3958POPC   D2A52420  40.183   0.484   6.557
 3958POPC   C3A52421  40.017   0.466   6.964
 3958POPC   C4A52422  40.187   0.177   7.283
 3958POPC   C1B52423  40.000   0.197   6.119
 3958POPC   C2B52424  39.756  44.989   6.449
 3958POPC   C3B52425  39.822   0.006   6.899
 3958POPC   C4B52426  39.695   0.016   7.316
 3959POPC   NC352427   1.294  43.473   5.289
 3959POPC   PO452428   1.035  42.918   5.491
 3959POPC   GL152429   1.123  43.225   5.792
 3959POPC   GL252430   1.464  43.313   5.790
 3959POPC   C1A52431   1.009  43.193   6.190
 3959POPC   D2A52432   1.090  43.339   6.603
 3959POPC   C3A52433   0.856  43.121   6.894
 3959POPC   C4A52434   0.969  42.996   7.310
 3959POPC   C1B52435   1.552  43.200   6.243
 3959POPC   C2B52436   1.581  43.131   6.692
 3959POPC   C3B52437   1.402  43.182   7.094
 3959POPC   C4B52438   1.411  43.519   7.399
 3960POPC   NC352439  18.039  34.371   5.164
 3960POPC   PO452440  18.465  34.782   5.453
 3960POPC   GL152441  18.410  34.688   5.873
 3960POPC   GL252442  18.091  34.769   5.889
 3960POPC   C1A52443  18.449  34.651   6.321
 3960POPC   D2A52444  18.488  34.814   6.730
 3960POPC   C3A52445  18.383  34.668   7.139
 3960POPC   C4A52446  18.415  34.723   7.628
 3960POPC   C1B52447  17.962  34.511   6.205
 3960POPC   C2B52448  18.114  34.395   6.622
 3960POPC   C3B52449  17.965  34.380   7.043
 3960POPC   C4B52450  17.941  34.657   7.380
 3961POPC   NC352451  40.220  38.561   5.361
 3961POPC   PO452452  39.563  38.526   5.575
 3961POPC   GL152453  39.827  38.475   5.933
 3961POPC   GL252454  40.163  38.397   5.860
 3961POPC   C1A52455  39.884  38.698   6.324
 3961POPC   D2A52456  39.849  38.982   6.702
 3961POPC   C3A52457  39.762  38.740   7.091
 3961POPC   C4A52458  40.122  38.509   7.167
 3961POPC   C1B52459  40.318  38.436   6.277
 3961POPC   C2B52460  40.085  38.283   6.623
 3961POPC   C3B52461  40.232  38.073   6.959
 3961POPC   C4B52462  40.549  38.207   7.178
 3962POPC   NC352463  12.992  36.686   5.529
 3962POPC   PO452464  12.996  35.997   5.502
 3962POPC   GL152465  12.906  36.281   5.825
 3962POPC   GL252466  12.569  36.251   5.964
 3962POPC   C1A52467  13.105  36.361   6.222
 3962POPC   D2A52468  12.950  36.219   6.592
 3962POPC   C3A52469  13.114  36.104   6.966
 3962POPC   C4A52470  13.058  36.228   7.382
 3962POPC   C1B52471  12.613  36.533   6.293
 3962POPC   C2B52472  12.617  36.556   6.734
 3962POPC   C3B52473  12.620  36.275   7.095
 3962POPC   C4B52474  12.609  36.335   7.596
 3963POPC   NC352475  10.130  18.658   5.085
 3963POPC   PO452476   9.523  18.497   5.437
 3963POPC   GL152477   9.705  18.217   5.731
 3963POPC   GL252478   9.736  17.894   5.618
 3963POPC   C1A52479   9.763  18.144   6.181
 3963POPC   D2A52480   9.810  18.425   6.541
 3963POPC   C3A52481   9.664  18.311   6.980
 3963POPC   C4A52482   9.814  18.557   7.301
 3963POPC   C1B52483  10.095  17.835   5.908
 3963POPC   C2B52484  10.162  17.806   6.371
 3963POPC   C3B52485  10.005  18.000   6.741
 3963POPC   C4B52486  10.142  18.098   7.151
 3964POPC   NC352487   0.899  10.738   5.414
 3964POPC   PO452488   0.315  10.515   5.471
 3964POPC   GL152489   0.383  10.607   5.883
 3964POPC   GL252490   0.696  10.591   5.923
 3964POPC   C1A52491   0.410  10.858   6.251
 3964POPC   D2A52492   0.312  11.015   6.650
 3964POPC   C3A52493   0.317  10.666   6.917
 3964POPC   C4A52494   0.123  10.433   7.242
 3964POPC   C1B52495   0.715  10.316   6.306
 3964POPC   C2B52496   0.681  10.316   6.783
 3964POPC   C3B52497   0.657  10.388   7.245
 3964POPC   C4B52498   0.814  10.660   7.602
 3965POPC   NC352499  43.633  14.226   5.456
 3965POPC   PO452500  44.145  14.569   5.467
 3965POPC   GL152501  44.052  14.304   5.843
 3965POPC   GL252502  43.705  14.360   5.949
 3965POPC   C1A52503  44.065  14.222   6.314
 3965POPC   D2A52504  43.878  14.419   6.674
 3965POPC   C3A52505  43.931  14.270   7.076
 3965POPC   C4A52506  43.927  14.522   7.444
 3965POPC   C1B52507  43.489  14.302   6.368
 3965POPC   C2B52508  43.424  14.224   6.848
 3965POPC   C3B52509  43.498  14.179   7.326
 3965POPC   C4B52510  43.460  14.477   7.656
 3966POPC   NC352511  30.273  40.610   5.252
 3966POPC   PO452512  29.748  41.000   5.360
 3966POPC   GL152513  29.979  40.816   5.663
 3966POPC   GL252514  29.948  40.463   5.629
 3966POPC   C1A52515  29.928  40.885   6.095
 3966POPC   D2A52516  29.727  40.779   6.489
 3966POPC   C3A52517  29.861  40.884   6.907
 3966POPC   C4A52518  29.650  40.582   7.207
 3966POPC   C1B52519  30.248  40.484   5.975
 3966POPC   C2B52520  30.201  40.597   6.414
 3966POPC   C3B52521  30.055  40.436   6.814
 3966POPC   C4B52522  30.163  40.564   7.214
 3967POPC   NC352523  23.492  14.314   5.189
 3967POPC   PO452524  24.101  14.461   5.310
 3967POPC   GL152525  23.771  14.549   5.622
 3967POPC   GL252526  23.518  14.282   5.698
 3967POPC   C1A52527  23.788  14.720   6.050
 3967POPC   D2A52528  24.044  14.679   6.417
 3967POPC   C3A52529  23.877  14.749   6.843
 3967POPC   C4A52530  23.910  14.483   7.189
 3967POPC   C1B52531  23.554  14.277   6.135
 3967POPC   C2B52532  23.523  14.538   6.504
 3967POPC   C3B52533  23.425  14.435   6.947
 3967POPC   C4B52534  23.528  14.131   7.280
 3968POPC   NC352535  41.348  30.961   5.470
 3968POPC   PO452536  40.870  30.673   5.151
 3968POPC   GL152537  40.900  30.742   5.633
 3968POPC   GL252538  41.086  30.467   5.797
 3968POPC   C1A52539  40.797  30.800   6.109
 3968POPC   D2A52540  40.946  30.740   6.558
 3968POPC   C3A52541  40.769  30.843   6.972
 3968POPC   C4A52542  40.910  30.596   7.322
 3968POPC   C1B52543  40.687  30.293   6.003
 3968POPC   C2B52544  40.499  30.251   6.419
 3968POPC   C3B52545  40.589  30.421   6.799
 3968POPC   C4B52546  40.454  30.383   7.219
 3969POPC   NC352547  18.654  34.358   5.503
 3969POPC   PO452548  19.290  34.224   5.371
 3969POPC   GL152549  19.211  34.555   5.738
 3969POPC   GL252550  18.910  34.729   5.743
 3969POPC   C1A52551  19.216  34.793   6.164
 3969POPC   D2A52552  19.095  34.987   6.586
 3969POPC   C3A52553  19.176  34.822   7.002
 3969POPC   C4A52554  18.993  34.989   7.376
 3969POPC   C1B52555  18.871  34.424   6.117
 3969POPC   C2B52556  18.910  34.486   6.563
 3969POPC   C3B52557  18.989  34.326   6.973
 3969POPC   C4B52558  18.816  34.503   7.342
 3970POPC   NC352559  23.968  36.523   5.452
 3970POPC   PO452560  23.544  35.979   5.296
 3970POPC   GL152561  23.555  35.947   5.738
 3970POPC   GL252562  23.881  36.103   5.891
 3970POPC   C1A52563  23.508  35.881   6.192
 3970POPC   D2A52564  23.850  36.018   6.509
 3970POPC   C3A52565  23.730  36.013   6.945
 3970POPC   C4A52566  23.495  35.711   7.132
 3970POPC   C1B52567  24.110  36.384   6.199
 3970POPC   C2B52568  24.044  36.495   6.638
 3970POPC   C3B52569  24.073  36.382   7.084
 3970POPC   C4B52570  24.053  36.411   7.584
 3971POPC   NC352571  21.980  22.715   5.370
 3971POPC   PO452572  22.180  22.029   5.323
 3971POPC   GL152573  22.188  22.260   5.739
 3971POPC   GL252574  22.273  21.953   5.929
 3971POPC   C1A52575  22.094  22.387   6.197
 3971POPC   D2A52576  22.084  22.540   6.646
 3971POPC   C3A52577  22.026  22.180   6.909
 3971POPC   C4A52578  22.122  22.226   7.330
 3971POPC   C1B52579  22.266  21.834   6.383
 3971POPC   C2B52580  22.408  21.831   6.833
 3971POPC   C3B52581  22.310  21.753   7.275
 3971POPC   C4B52582  22.450  21.814   7.719
 3972POPC   NC352583  27.042  29.740   5.522
 3972POPC   PO452584  26.689  30.302   5.410
 3972POPC   GL152585  26.753  30.175   5.802
 3972POPC   GL252586  26.418  30.277   5.862
 3972POPC   C1A52587  26.970  30.004   6.163
 3972POPC   D2A52588  27.153  29.721   6.471
 3972POPC   C3A52589  27.059  29.875   6.862
 3972POPC   C4A52590  26.870  29.941   7.245
 3972POPC   C1B52591  26.448  29.993   6.204
 3972POPC   C2B52592  26.600  29.927   6.610
 3972POPC   C3B52593  26.413  29.925   7.010
 3972POPC   C4B52594  26.419  30.097   7.440
 3973POPC   NC352595   6.650  18.015   5.276
 3973POPC   PO452596   6.604  18.613   5.207
 3973POPC   GL152597   6.474  18.368   5.628
 3973POPC   GL252598   6.448  17.994   5.764
 3973POPC   C1A52599   6.638  18.476   6.056
 3973POPC   D2A52600   6.909  18.385   6.464
 3973POPC   C3A52601   6.792  18.417   6.935
 3973POPC   C4A52602   6.598  18.788   7.218
 3973POPC   C1B52603   6.643  17.987   6.189
 3973POPC   C2B52604   6.609  18.017   6.644
 3973POPC   C3B52605   6.676  17.874   7.058
 3973POPC   C4B52606   6.298  17.766   7.231
 3974POPC   NC352607  43.285   0.277   5.415
 3974POPC   PO452608  42.745   0.471   5.684
 3974POPC   GL152609  43.128   0.449   5.904
 3974POPC   GL252610  43.418   0.649   5.798
 3974POPC   C1A52611  43.171   0.198   6.283
 3974POPC   D2A52612  43.082   0.076   6.711
 3974POPC   C3A52613  42.892   0.143   7.124
 3974POPC   C4A52614  43.046   0.294   7.509
 3974POPC   C1B52615  43.504   0.584   6.247
 3974POPC   C2B52616  43.289   0.574   6.650
 3974POPC   C3B52617  43.269   0.527   7.107
 3974POPC   C4B52618  43.313   0.712   7.546
 3975POPC   NC352619   0.968  41.734   5.376
 3975POPC   PO452620   1.551  41.418   5.240
 3975POPC   GL152621   1.355  41.428   5.657
 3975POPC   GL252622   1.025  41.245   5.622
 3975POPC   C1A52623   1.512  41.489   6.123
 3975POPC   D2A52624   1.398  41.548   6.594
 3975POPC   C3A52625   1.494  41.799   7.008
 3975POPC   C4A52626   1.575  41.796   7.515
 3975POPC   C1B52627   1.035  41.278   6.078
 3975POPC   C2B52628   0.991  41.152   6.526
 3975POPC   C3B52629   1.080  41.303   6.946
 3975POPC   C4B52630   0.874  41.197   7.322
 3976POPC   NC352631  37.478  17.216   5.514
 3976POPC   PO452632  37.170  17.766   5.300
 3976POPC   GL152633  37.395  17.657   5.714
 3976POPC   GL252634  37.736  17.644   5.791
 3976POPC   C1A52635  37.409  17.438   6.124
 3976POPC   D2A52636  37.283  17.503   6.541
 3976POPC   C3A52637  37.507  17.522   6.913
 3976POPC   C4A52638  37.758  17.802   7.104
 3976POPC   C1B52639  37.877  17.505   6.245
 3976POPC   C2B52640  37.950  17.620   6.659
 3976POPC   C3B52641  38.016  17.371   7.049
 3976POPC   C4B52642  38.109  17.323   7.500
 3977POPC   NC352643  27.921  15.950   5.426
 3977POPC   PO452644  27.244  15.657   5.423
 3977POPC   GL152645  27.527  15.760   5.737
 3977POPC   GL252646  27.544  16.110   5.767
 3977POPC   C1A52647  27.594  15.775   6.173
 3977POPC   D2A52648  27.381  15.819   6.536
 3977POPC   C3A52649  27.497  15.725   6.927
 3977POPC   C4A52650  27.533  15.702   7.332
 3977POPC   C1B52651  27.370  16.216   6.193
 3977POPC   C2B52652  27.446  16.306   6.666
 3977POPC   C3B52653  27.603  16.191   7.124
 3977POPC   C4B52654  27.559  16.117   7.611
 3978POPC   NC352655   6.865  27.967   5.616
 3978POPC   PO452656   7.153  28.513   5.247
 3978POPC   GL152657   6.919  28.606   5.704
 3978POPC   GL252658   6.596  28.407   5.786
 3978POPC   C1A52659   6.812  28.750   6.128
 3978POPC   D2A52660   6.576  28.640   6.515
 3978POPC   C3A52661   6.810  28.702   6.910
 3978POPC   C4A52662   6.835  28.381   7.238
 3978POPC   C1B52663   6.318  28.305   6.179
 3978POPC   C2B52664   6.227  28.208   6.643
 3978POPC   C3B52665   6.352  28.284   7.088
 3978POPC   C4B52666   6.430  28.356   7.554
 3979POPC   NC352667   7.286  20.459   5.327
 3979POPC   PO452668   7.739  20.764   5.755
 3979POPC   GL152669   7.415  20.803   5.989
 3979POPC   GL252670   7.103  20.774   5.802
 3979POPC   C1A52671   7.495  20.830   6.400
 3979POPC   D2A52672   7.694  20.473   6.572
 3979POPC   C3A52673   7.828  20.581   6.939
 3979POPC   C4A52674   7.759  20.800   7.327
 3979POPC   C1B52675   6.951  20.877   6.254
 3979POPC   C2B52676   7.092  20.824   6.711
 3979POPC   C3B52677   7.281  20.487   6.960
 3979POPC   C4B52678   7.145  20.448   7.406
 3980POPC   NC352679  14.210  12.532   5.170
 3980POPC   PO452680  14.323  13.108   5.494
 3980POPC   GL152681  14.421  12.704   5.741
 3980POPC   GL252682  14.739  12.511   5.868
 3980POPC   C1A52683  14.314  12.548   6.155
 3980POPC   D2A52684  14.530  12.493   6.548
 3980POPC   C3A52685  14.435  12.797   6.832
 3980POPC   C4A52686  14.397  12.937   7.243
 3980POPC   C1B52687  14.739  12.843   6.201
 3980POPC   C2B52688  14.904  12.904   6.635
 3980POPC   C3B52689  14.835  13.086   7.064
 3980POPC   C4B52690  14.843  12.919   7.513
 3981POPC   NC352691  30.976  41.303   5.416
 3981POPC   PO452692  30.475  41.686   5.346
 3981POPC   GL152693  30.472  41.640   5.780
 3981POPC   GL252694  30.638  41.331   5.819
 3981POPC   C1A52695  30.557  41.680   6.216
 3981POPC   D2A52696  30.577  41.401   6.537
 3981POPC   C3A52697  30.552  41.634   6.889
 3981POPC   C4A52698  30.718  41.586   7.274
 3981POPC   C1B52699  31.006  41.544   6.034
 3981POPC   C2B52700  31.030  41.702   6.450
 3981POPC   C3B52701  31.054  41.677   6.890
 3981POPC   C4B52702  31.207  41.443   7.237
 3982POPC   NC352703  32.614  32.553   5.417
 3982POPC   PO452704  32.143  33.161   5.391
 3982POPC   GL152705  32.254  33.080   5.805
 3982POPC   GL252706  32.281  32.732   5.749
 3982POPC   C1A52707  32.164  33.186   6.245
 3982POPC   D2A52708  32.441  33.203   6.591
 3982POPC   C3A52709  32.340  33.092   7.018
 3982POPC   C4A52710  32.447  33.372   7.378
 3982POPC   C1B52711  32.297  32.705   6.184
 3982POPC   C2B52712  32.122  32.742   6.592
 3982POPC   C3B52713  32.248  32.590   6.963
 3982POPC   C4B52714  32.103  32.717   7.329
 3983POPC   NC352715  13.940  19.413   5.114
 3983POPC   PO452716  13.406  19.331   5.496
 3983POPC   GL152717  13.430  19.138   5.863
 3983POPC   GL252718  13.689  18.898   5.799
 3983POPC   C1A52719  13.326  19.001   6.272
 3983POPC   D2A52720  13.617  19.008   6.621
 3983POPC   C3A52721  13.462  19.080   7.005
 3983POPC   C4A52722  13.721  19.093   7.319
 3983POPC   C1B52723  13.896  19.054   6.196
 3983POPC   C2B52724  13.957  19.415   6.495
 3983POPC   C3B52725  13.819  19.477   6.917
 3983POPC   C4B52726  14.087  19.427   7.251
 3984POPC   NC352727  13.540   3.108   5.318
 3984POPC   PO452728  13.731   2.484   5.307
 3984POPC   GL152729  13.826   2.739   5.680
 3984POPC   GL252730  13.507   2.895   5.776
 3984POPC   C1A52731  13.886   2.863   6.129
 3984POPC   D2A52732  13.843   2.658   6.528
 3984POPC   C3A52733  13.837   2.840   6.920
 3984POPC   C4A52734  13.959   2.609   7.292
 3984POPC   C1B52735  13.395   2.682   6.145
 3984POPC   C2B52736  13.319   2.486   6.524
 3984POPC   C3B52737  13.472   2.436   6.948
 3984POPC   C4B52738  13.463   2.752   7.269
 3985POPC   NC352739   6.569  30.375   5.442
 3985POPC   PO452740   6.859  30.930   5.263
 3985POPC   GL152741   6.930  30.767   5.731
 3985POPC   GL252742   6.790  30.463   5.884
 3985POPC   C1A52743   6.799  30.863   6.176
 3985POPC   D2A52744   6.470  30.923   6.466
 3985POPC   C3A52745   6.624  30.890   6.855
 3985POPC   C4A52746   6.687  30.850   7.293
 3985POPC   C1B52747   6.382  30.508   6.160
 3985POPC   C2B52748   6.177  30.510   6.591
 3985POPC   C3B52749   6.241  30.620   7.063
 3985POPC   C4B52750   6.153  30.319   7.428
 3986POPC   NC352751  31.030  30.112   5.593
 3986POPC   PO452752  30.529  29.662   5.419
 3986POPC   GL152753  30.598  29.849   5.839
 3986POPC   GL252754  30.902  29.697   5.849
 3986POPC   C1A52755  30.628  30.052   6.280
 3986POPC   D2A52756  30.973  30.192   6.590
 3986POPC   C3A52757  30.764  30.174   6.979
 3986POPC   C4A52758  30.658  29.980   7.342
 3986POPC   C1B52759  31.058  29.804   6.233
 3986POPC   C2B52760  30.889  29.698   6.627
 3986POPC   C3B52761  30.787  29.595   7.028
 3986POPC   C4B52762  30.422  29.487   7.242
 3987POPC   NC352763   8.630  36.507   5.542
 3987POPC   PO452764   8.851  35.945   5.314
 3987POPC   GL152765   9.043  35.971   5.737
 3987POPC   GL252766   8.751  35.847   5.905
 3987POPC   C1A52767   9.165  36.040   6.195
 3987POPC   D2A52768   8.961  36.157   6.613
 3987POPC   C3A52769   9.132  36.153   7.020
 3987POPC   C4A52770   9.429  35.879   7.090
 3987POPC   C1B52771   8.638  36.176   6.215
 3987POPC   C2B52772   8.574  36.473   6.589
 3987POPC   C3B52773   8.637  36.342   7.028
 3987POPC   C4B52774   8.701  35.924   7.226
 3988POPC   NC352775  31.943  41.616   5.428
 3988POPC   PO452776  31.392  41.311   5.207
 3988POPC   GL152777  31.434  41.484   5.676
 3988POPC   GL252778  31.297  41.188   5.792
 3988POPC   C1A52779  31.491  41.721   6.141
 3988POPC   D2A52780  31.510  41.628   6.638
 3988POPC   C3A52781  31.483  41.882   7.066
 3988POPC   C4A52782  31.480  41.744   7.528
 3988POPC   C1B52783  31.431  41.212   6.183
 3988POPC   C2B52784  31.657  41.109   6.510
 3988POPC   C3B52785  31.528  41.174   6.922
 3988POPC   C4B52786  31.734  41.326   7.300
 3989POPC   NC352787   9.384  44.932   5.312
 3989POPC   PO452788   9.933  44.585   5.441
 3989POPC   GL152789   9.862  44.735   5.838
 3989POPC   GL252790   9.673  44.993   5.772
 3989POPC   C1A52791   9.908  44.831   6.269
 3989POPC   D2A52792   9.666  44.641   6.611
 3989POPC   C3A52793   9.908  44.597   6.989
 3989POPC   C4A52794   9.813  44.647   7.438
 3989POPC   C1B52795   9.446   0.046   6.179
 3989POPC   C2B52796   9.600   0.174   6.565
 3989POPC   C3B52797   9.684   0.043   6.987
 3989POPC   C4B52798   9.367  44.890   7.230
 3990POPC   NC352799  41.262  29.316   5.462
 3990POPC   PO452800  41.524  28.731   5.198
 3990POPC   GL152801  41.558  28.898   5.642
 3990POPC   GL252802  41.704  29.220   5.737
 3990POPC   C1A52803  41.599  28.850   6.099
 3990POPC   D2A52804  41.592  29.084   6.511
 3990POPC   C3A52805  41.631  28.846   6.916
 3990POPC   C4A52806  41.378  28.776   7.269
 3990POPC   C1B52807  41.412  29.333   6.089
 3990POPC   C2B52808  41.142  29.496   6.410
 3990POPC   C3B52809  41.227  29.543   6.848
 3990POPC   C4B52810  41.469  29.300   7.171
 3991POPC   NC352811  11.620  34.277   5.460
 3991POPC   PO452812  12.067  33.845   5.154
 3991POPC   GL152813  11.874  33.779   5.612
 3991POPC   GL252814  11.931  34.079   5.811
 3991POPC   C1A52815  12.002  33.635   6.070
 3991POPC   D2A52816  12.019  33.876   6.503
 3991POPC   C3A52817  11.998  33.675   6.943
 3991POPC   C4A52818  12.254  33.777   7.339
 3991POPC   C1B52819  11.608  33.934   6.114
 3991POPC   C2B52820  11.521  33.837   6.539
 3991POPC   C3B52821  11.649  34.059   6.952
 3991POPC   C4B52822  11.847  34.079   7.415
 3992POPC   NC352823  29.816   7.751   5.361
 3992POPC   PO452824  30.084   7.086   5.333
 3992POPC   GL152825  29.954   7.342   5.718
 3992POPC   GL252826  29.781   7.107   5.946
 3992POPC   C1A52827  29.803   7.634   6.052
 3992POPC   D2A52828  29.675   7.684   6.498
 3992POPC   C3A52829  30.045   7.793   6.738
 3992POPC   C4A52830  30.168   7.650   7.151
 3992POPC   C1B52831  29.844   7.183   6.364
 3992POPC   C2B52832  29.956   7.289   6.762
 3992POPC   C3B52833  29.742   7.357   7.134
 3992POPC   C4B52834  29.914   7.079   7.404
 3993POPC   NC352835  21.228  34.023   5.308
 3993POPC   PO452836  21.775  33.487   5.281
 3993POPC   GL152837  21.604  33.816   5.624
 3993POPC   GL252838  21.251  33.752   5.731
 3993POPC   C1A52839  21.485  34.109   6.013
 3993POPC   D2A52840  21.500  33.929   6.433
 3993POPC   C3A52841  21.381  34.107   6.824
 3993POPC   C4A52842  21.368  33.848   7.185
 3993POPC   C1B52843  21.271  33.523   6.102
 3993POPC   C2B52844  21.069  33.339   6.448
 3993POPC   C3B52845  21.074  33.502   6.857
 3993POPC   C4B52846  21.091  33.340   7.262
 3994POPC   NC352847   9.415  33.057   5.048
 3994POPC   PO452848   9.880  33.269   5.419
 3994POPC   GL152849   9.930  32.910   5.679
 3994POPC   GL252850   9.706  33.088   5.891
 3994POPC   C1A52851   9.997  32.742   6.116
 3994POPC   D2A52852   9.740  32.833   6.497
 3994POPC   C3A52853   9.797  32.623   6.899
 3994POPC   C4A52854   9.811  32.795   7.336
 3994POPC   C1B52855   9.424  33.229   6.213
 3994POPC   C2B52856   9.380  33.273   6.648
 3994POPC   C3B52857   9.644  33.142   6.969
 3994POPC   C4B52858   9.676  33.309   7.369
 3995POPC   NC352859  13.399  14.396   5.333
 3995POPC   PO452860  12.698  14.542   5.517
 3995POPC   GL152861  12.871  14.317   5.855
 3995POPC   GL252862  13.184  14.156   5.731
 3995POPC   C1A52863  12.840  14.307   6.310
 3995POPC   D2A52864  12.908  14.529   6.705
 3995POPC   C3A52865  12.597  14.486   7.038
 3995POPC   C4A52866  12.630  14.183   7.399
 3995POPC   C1B52867  13.260  14.025   6.151
 3995POPC   C2B52868  13.220  14.107   6.597
 3995POPC   C3B52869  12.959  14.048   6.993
 3995POPC   C4B52870  13.255  13.950   7.347
 3996POPC   NC352871  31.940  36.227   5.109
 3996POPC   PO452872  31.438  35.777   5.373
 3996POPC   GL152873  31.665  35.898   5.759
 3996POPC   GL252874  31.511  36.223   5.845
 3996POPC   C1A52875  31.755  35.962   6.224
 3996POPC   D2A52876  31.523  36.052   6.607
 3996POPC   C3A52877  31.692  36.055   6.994
 3996POPC   C4A52878  31.566  36.080   7.385
 3996POPC   C1B52879  31.227  36.112   6.191
 3996POPC   C2B52880  31.083  36.322   6.596
 3996POPC   C3B52881  31.179  36.276   7.052
 3996POPC   C4B52882  31.060  36.510   7.459
 3997POPC   NC352883   5.969  33.581   5.285
 3997POPC   PO452884   6.322  34.177   5.166
 3997POPC   GL152885   6.101  34.008   5.619
 3997POPC   GL252886   5.912  33.702   5.765
 3997POPC   C1A52887   6.058  34.019   6.109
 3997POPC   D2A52888   6.074  33.825   6.518
 3997POPC   C3A52889   6.163  34.075   6.872
 3997POPC   C4A52890   6.113  33.859   7.258
 3997POPC   C1B52891   5.704  33.673   6.206
 3997POPC   C2B52892   5.589  33.876   6.643
 3997POPC   C3B52893   5.608  33.873   7.123
 3997POPC   C4B52894   5.341  33.830   7.523
 3998POPC   NC352895  11.568  16.651   5.529
 3998POPC   PO452896  10.913  16.562   5.675
 3998POPC   GL152897  11.221  16.702   5.931
 3998POPC   GL252898  11.280  17.033   5.876
 3998POPC   C1A52899  11.121  16.778   6.350
 3998POPC   D2A52900  11.047  16.464   6.663
 3998POPC   C3A52901  11.234  16.553   7.042
 3998POPC   C4A52902  10.932  16.551   7.338
 3998POPC   C1B52903  11.608  16.959   6.230
 3998POPC   C2B52904  11.533  16.894   6.699
 3998POPC   C3B52905  11.478  17.103   7.118
 3998POPC   C4B52906  11.600  17.059   7.568
 3999POPC   NC352907  41.600  10.900   5.327
 3999POPC   PO452908  41.755  11.446   5.381
 3999POPC   GL152909  41.772  11.186   5.786
 3999POPC   GL252910  41.822  10.829   5.792
 3999POPC   C1A52911  41.836  11.081   6.245
 3999POPC   D2A52912  41.764  11.302   6.631
 3999POPC   C3A52913  41.684  11.085   7.033
 3999POPC   C4A52914  41.713  11.195   7.485
 3999POPC   C1B52915  41.468  10.767   6.093
 3999POPC   C2B52916  41.352  10.984   6.518
 3999POPC   C3B52917  41.187  10.946   6.958
 3999POPC   C4B52918  40.769  10.957   7.233
 4000POPC   NC352919  35.442  20.520   5.165
 4000POPC   PO452920  34.932  20.881   5.456
 4000POPC   GL152921  35.183  20.608   5.741
 4000POPC   GL252922  35.462  20.355   5.671
 4000POPC   C1A52923  35.371  20.668   6.147
 4000POPC   D2A52924  35.469  20.873   6.504
 4000POPC   C3A52925  35.371  20.692   6.883
 4000POPC   C4A52926  35.647  20.706   7.205
 4000POPC   C1B52927  35.615  20.225   6.089
 4000POPC   C2B52928  35.738  20.426   6.491
 4000POPC   C3B52929  35.711  20.307   6.904
 4000POPC   C4B52930  35.676  20.137   7.304
 4001POPC   NC352931  34.896  25.938   5.431
 4001POPC   PO452932  34.237  25.654   5.405
 4001POPC   GL152933  34.494  25.874   5.759
 4001POPC   GL252934  34.848  25.715   5.872
 4001POPC   C1A52935  34.638  26.058   6.163
 4001POPC   D2A52936  34.806  25.860   6.531
 4001POPC   C3A52937  34.655  26.092   6.906
 4001POPC   C4A52938  34.539  26.217   7.322
 4001POPC   C1B52939  34.987  25.470   6.207
 4001POPC   C2B52940  34.903  25.341   6.616
 4001POPC   C3B52941  34.824  25.581   6.990
 4001POPC   C4B52942  34.743  25.730   7.392
 4002POPC   NC352943   0.090   7.542   5.319
 4002POPC   PO452944  44.560   7.161   5.387
 4002POPC   GL152945  44.771   7.200   5.767
 4002POPC   GL252946  44.967   6.889   5.861
 4002POPC   C1A52947  44.773   7.455   6.168
 4002POPC   D2A52948   0.083   7.564   6.491
 4002POPC   C3A52949  44.969   7.443   6.912
 4002POPC   C4A52950  44.635   7.427   7.219
 4002POPC   C1B52951  44.639   6.958   6.186
 4002POPC   C2B52952  44.561   7.164   6.567
 4002POPC   C3B52953  44.675   7.005   6.942
 4002POPC   C4B52954   0.015   7.020   7.226
 4003POPC   NC352955   9.042  28.881   5.482
 4003POPC   PO452956   9.030  28.192   5.409
 4003POPC   GL152957   8.911  28.432   5.707
 4003POPC   GL252958   9.255  28.527   5.773
 4003POPC   C1A52959   8.930  28.354   6.127
 4003POPC   D2A52960   9.091  28.410   6.520
 4003POPC   C3A52961   8.849  28.295   6.817
 4003POPC   C4A52962   8.762  28.497   7.179
 4003POPC   C1B52963   9.307  28.720   6.168
 4003POPC   C2B52964   9.441  28.761   6.600
 4003POPC   C3B52965   9.209  28.674   6.970
 4003POPC   C4B52966   9.242  28.463   7.344
 4004POPC   NC352967  32.188   2.216   5.565
 4004POPC   PO452968  32.566   1.812   5.630
 4004POPC   GL152969  32.345   1.946   5.992
 4004POPC   GL252970  32.049   1.796   5.845
 4004POPC   C1A52971  32.273   2.152   6.419
 4004POPC   D2A52972  32.250   2.009   6.888
 4004POPC   C3A52973  32.632   1.815   7.085
 4004POPC   C4A52974  32.681   1.487   7.422
 4004POPC   C1B52975  31.927   1.802   6.276
 4004POPC   C2B52976  32.001   1.587   6.658
 4004POPC   C3B52977  31.873   1.576   7.085
 4004POPC   C4B52978  32.210   1.681   7.329
 4005POPC   NC352979  25.001  40.346   5.616
 4005POPC   PO452980  25.392  39.966   5.197
 4005POPC   GL152981  25.188  39.868   5.616
 4005POPC   GL252982  25.377  40.069   5.840
 4005POPC   C1A52983  25.169  39.663   6.060
 4005POPC   D2A52984  25.443  39.743   6.454
 4005POPC   C3A52985  25.306  40.079   6.761
 4005POPC   C4A52986  25.162  40.128   7.183
 4005POPC   C1B52987  25.250  40.215   6.254
 4005POPC   C2B52988  25.446  40.547   6.522
 4005POPC   C3B52989  25.535  40.508   6.965
 4005POPC   C4B52990  25.432  40.499   7.409
 4006POPC   NC352991  28.163   9.672   5.293
 4006POPC   PO452992  28.731   9.958   5.456
 4006POPC   GL152993  28.543   9.734   5.793
 4006POPC   GL252994  28.493   9.369   5.775
 4006POPC   C1A52995  28.443   9.810   6.234
 4006POPC   D2A52996  28.074   9.689   6.491
 4006POPC   C3A52997  28.139   9.615   6.919
 4006POPC   C4A52998  28.173   9.995   7.171
 4006POPC   C1B52999  28.492   9.296   6.235
 4006POPC   C2B53000  28.584   9.509   6.655
 4006POPC   C3B53001  28.613   9.766   7.059
 4006POPC   C4B53002  28.494   9.830   7.534
 4007POPC   NC353003  38.786   4.513   5.271
 4007POPC   PO453004  38.317   4.131   5.302
 4007POPC   GL153005  38.278   4.139   5.751
 4007POPC   GL253006  38.521   4.393   5.881
 4007POPC   C1A53007  38.422   3.943   6.139
 4007POPC   D2A53008  38.739   4.034   6.467
 4007POPC   C3A53009  38.548   4.120   6.862
 4007POPC   C4A53010  38.556   4.061   7.284
 4007POPC   C1B53011  38.425   4.443   6.341
 4007POPC   C2B53012  38.270   4.561   6.742
 4007POPC   C3B53013  38.336   4.531   7.185
 4007POPC   C4B53014  38.105   4.448   7.560
 4008POPC   NC353015  26.447   7.396   5.439
 4008POPC   PO453016  25.832   7.199   5.448
 4008POPC   GL153017  26.070   7.506   5.812
 4008POPC   GL253018  26.426   7.570   5.926
 4008POPC   C1A53019  26.101   7.566   6.315
 4008POPC   D2A53020  26.120   7.255   6.698
 4008POPC   C3A53021  25.862   7.310   7.108
 4008POPC   C4A53022  25.922   7.249   7.581
 4008POPC   C1B53023  26.610   7.469   6.326
 4008POPC   C2B53024  26.467   7.630   6.709
 4008POPC   C3B53025  26.324   7.507   7.091
 4008POPC   C4B53026  26.292   7.073   7.263
 4009POPC   NC353027   9.221  12.289   5.443
 4009POPC   PO453028   8.561  11.919   5.355
 4009POPC   GL153029   8.729  12.200   5.662
 4009POPC   GL253030   8.962  11.975   5.804
 4009POPC   C1A53031   8.865  12.426   6.044
 4009POPC   D2A53032   9.032  12.273   6.434
 4009POPC   C3A53033   8.872  12.170   6.839
 4009POPC   C4A53034   9.202  12.200   7.161
 4009POPC   C1B53035   8.779  11.879   6.217
 4009POPC   C2B53036   8.871  11.668   6.629
 4009POPC   C3B53037   9.076  11.712   7.067
 4009POPC   C4B53038   9.078  11.861   7.531
 4010POPC   NC353039  15.545  13.460   5.330
 4010POPC   PO453040  14.958  13.747   5.513
 4010POPC   GL153041  15.040  13.944   5.912
 4010POPC   GL253042  15.346  14.107   5.928
 4010POPC   C1A53043  14.876  13.754   6.304
 4010POPC   D2A53044  14.917  13.438   6.654
 4010POPC   C3A53045  14.879  13.619   7.070
 4010POPC   C4A53046  14.726  13.931   7.369
 4010POPC   C1B53047  15.351  13.931   6.368
 4010POPC   C2B53048  15.314  13.753   6.785
 4010POPC   C3B53049  15.454  13.540   7.149
 4010POPC   C4B53050  15.640  13.736   7.525
 4011POPC   NC353051  28.795  44.073   5.650
 4011POPC   PO453052  29.247  43.798   5.175
 4011POPC   GL153053  29.264  43.770   5.667
 4011POPC   GL253054  29.453  44.035   5.771
 4011POPC   C1A53055  29.229  43.742   6.172
 4011POPC   D2A53056  29.287  43.639   6.653
 4011POPC   C3A53057  29.085  43.934   6.985
 4011POPC   C4A53058  28.963  43.998   7.447
 4011POPC   C1B53059  29.634  44.067   6.156
 4011POPC   C2B53060  29.391  44.119   6.525
 4011POPC   C3B53061  29.576  44.035   6.912
 4011POPC   C4B53062  29.468  44.136   7.303
 4012POPC   NC353063  40.245  42.481   5.413
 4012POPC   PO453064  40.128  41.880   5.618
 4012POPC   GL153065  40.243  42.210   5.887
 4012POPC   GL253066  40.067  42.544   5.893
 4012POPC   C1A53067  40.169  42.254   6.322
 4012POPC   D2A53068  39.998  42.335   6.693
 4012POPC   C3A53069  40.103  42.109   7.039
 4012POPC   C4A53070  39.870  41.912   7.376
 4012POPC   C1B53071  39.897  42.697   6.304
 4012POPC   C2B53072  40.045  42.849   6.725
 4012POPC   C3B53073  40.033  42.606   7.127
 4012POPC   C4B53074  39.926  42.614   7.555
 4013POPC   NC353075  38.489  43.294   5.129
 4013POPC   PO453076  38.550  42.846   5.626
 4013POPC   GL153077  38.313  43.031   5.899
 4013POPC   GL253078  38.287  43.358   5.748
 4013POPC   C1A53079  38.496  43.038   6.303
 4013POPC   D2A53080  38.299  43.039   6.687
 4013POPC   C3A53081  38.619  43.033   6.919
 4013POPC   C4A53082  38.590  42.946   7.314
 4013POPC   C1B53083  38.257  43.478   6.195
 4013POPC   C2B53084  38.145  43.540   6.642
 4013POPC   C3B53085  38.294  43.443   7.079
 4013POPC   C4B53086  38.388  43.348   7.556
 4014POPC   NC353087  18.584  42.101   5.477
 4014POPC   PO453088  18.109  42.436   5.113
 4014POPC   GL153089  18.208  42.493   5.589
 4014POPC   GL253090  18.493  42.472   5.824
 4014POPC   C1A53091  18.039  42.413   6.034
 4014POPC   D2A53092  18.259  42.222   6.383
 4014POPC   C3A53093  18.136  42.189   6.800
 4014POPC   C4A53094  18.023  41.920   7.147
 4014POPC   C1B53095  18.413  42.698   6.235
 4014POPC   C2B53096  18.296  42.736   6.673
 4014POPC   C3B53097  18.407  42.721   7.099
 4014POPC   C4B53098  18.255  42.352   7.261
 4015POPC   NC353099  34.970  17.498   5.430
 4015POPC   PO453100  34.317  17.717   5.341
 4015POPC   GL153101  34.400  17.504   5.768
 4015POPC   GL253102  34.742  17.436   5.864
 4015POPC   C1A53103  34.424  17.610   6.226
 4015POPC   D2A53104  34.251  17.383   6.577
 4015POPC   C3A53105  34.423  17.441   6.966
 4015POPC   C4A53106  34.611  17.772   7.096
 4015POPC   C1B53107  34.944  17.282   6.226
 4015POPC   C2B53108  34.882  17.420   6.633
 4015POPC   C3B53109  34.853  17.156   6.984
 4015POPC   C4B53110  34.811  17.373   7.346
 4016POPC   NC353111  20.654  27.950   5.226
 4016POPC   PO453112  20.850  27.378   5.182
 4016POPC   GL153113  20.738  27.609   5.627
 4016POPC   GL253114  20.954  27.433   5.785
 4016POPC   C1A53115  20.779  27.788   6.147
 4016POPC   D2A53116  20.469  27.627   6.485
 4016POPC   C3A53117  20.498  27.712   6.907
 4016POPC   C4A53118  20.707  27.984   7.188
 4016POPC   C1B53119  20.676  27.310   6.117
 4016POPC   C2B53120  20.892  27.361   6.527
 4016POPC   C3B53121  20.791  27.274   6.959
 4016POPC   C4B53122  20.735  27.361   7.408
 4017POPC   NC353123  15.664   5.427   5.691
 4017POPC   PO453124  15.292   5.879   5.265
 4017POPC   GL153125  15.218   5.840   5.723
 4017POPC   GL253126  15.142   5.487   5.789
 4017POPC   C1A53127  15.088   6.056   6.123
 4017POPC   D2A53128  15.197   6.006   6.555
 4017POPC   C3A53129  15.032   5.788   6.903
 4017POPC   C4A53130  15.249   5.870   7.275
 4017POPC   C1B53131  15.318   5.604   6.206
 4017POPC   C2B53132  15.591   5.610   6.564
 4017POPC   C3B53133  15.485   5.507   6.987
 4017POPC   C4B53134  15.617   5.533   7.390
 4018POPC   NC353135  33.246  30.822   5.487
 4018POPC   PO453136  32.648  30.685   5.485
 4018POPC   GL153137  32.833  30.890   5.853
 4018POPC   GL253138  32.921  31.169   5.681
 4018POPC   C1A53139  32.908  30.901   6.334
 4018POPC   D2A53140  32.775  30.700   6.741
 4018POPC   C3A53141  33.086  30.511   7.024
 4018POPC   C4A53142  33.461  30.742   7.182
 4018POPC   C1B53143  33.103  31.315   6.067
 4018POPC   C2B53144  33.301  31.237   6.439
 4018POPC   C3B53145  33.062  31.160   6.824
 4018POPC   C4B53146  32.899  30.955   7.183
 4019POPC   NC353147  36.533  32.727   5.425
 4019POPC   PO453148  36.518  32.016   5.429
 4019POPC   GL153149  36.774  32.150   5.805
 4019POPC   GL253150  36.914  32.498   5.795
 4019POPC   C1A53151  36.823  32.082   6.250
 4019POPC   D2A53152  37.002  31.880   6.605
 4019POPC   C3A53153  36.879  31.956   7.017
 4019POPC   C4A53154  37.032  32.144   7.394
 4019POPC   C1B53155  36.786  32.596   6.248
 4019POPC   C2B53156  36.666  32.381   6.682
 4019POPC   C3B53157  36.698  32.429   7.154
 4019POPC   C4B53158  36.573  32.606   7.619
 4020POPC   NC353159  34.739  32.913   5.156
 4020POPC   PO453160  34.438  33.479   5.428
 4020POPC   GL153161  34.582  33.244   5.819
 4020POPC   GL253162  34.634  32.883   5.733
 4020POPC   C1A53163  34.429  33.169   6.268
 4020POPC   D2A53164  34.432  33.054   6.718
 4020POPC   C3A53165  34.672  33.242   7.067
 4020POPC   C4A53166  34.517  33.354   7.485
 4020POPC   C1B53167  34.665  32.736   6.169
 4020POPC   C2B53168  34.681  32.625   6.619
 4020POPC   C3B53169  34.626  32.717   7.078
 4020POPC   C4B53170  34.691  32.589   7.496
 4021POPC   NC353171  31.805  33.824   5.492
 4021POPC   PO453172  31.215  33.509   5.467
 4021POPC   GL153173  31.459  33.586   5.823
 4021POPC   GL253174  31.778  33.382   5.783
 4021POPC   C1A53175  31.422  33.899   6.188
 4021POPC   D2A53176  31.429  34.170   6.585
 4021POPC   C3A53177  31.345  33.934   6.994
 4021POPC   C4A53178  31.256  33.954   7.465
 4021POPC   C1B53179  31.662  33.386   6.244
 4021POPC   C2B53180  31.631  33.636   6.627
 4021POPC   C3B53181  31.566  33.470   7.053
 4021POPC   C4B53182  31.599  33.558   7.495
 4022POPC   NC353183  33.489  41.030   5.617
 4022POPC   PO453184  33.741  40.425   5.594
 4022POPC   GL153185  33.994  40.668   5.847
 4022POPC   GL253186  33.775  40.901   5.991
 4022POPC   C1A53187  34.027  40.605   6.289
 4022POPC   D2A53188  33.845  40.893   6.577
 4022POPC   C3A53189  33.913  40.732   6.974
 4022POPC   C4A53190  34.289  40.568   7.181
 4022POPC   C1B53191  33.435  41.037   6.264
 4022POPC   C2B53192  33.452  41.241   6.648
 4022POPC   C3B53193  33.409  41.097   7.055
 4022POPC   C4B53194  33.496  40.960   7.469
 4023POPC   NC353195  44.597  14.574   5.424
 4023POPC   PO453196  44.938  13.963   5.427
 4023POPC   GL153197  44.735  14.157   5.820
 4023POPC   GL253198  44.789  14.527   5.894
 4023POPC   C1A53199  44.608  14.089   6.272
 4023POPC   D2A53200  44.861  14.185   6.653
 4023POPC   C3A53201  44.734  14.178   7.083
 4023POPC   C4A53202  44.396  14.398   7.288
 4023POPC   C1B53203  44.761  14.571   6.332
 4023POPC   C2B53204  44.862  14.718   6.715
 4023POPC   C3B53205  44.782  14.684   7.119
 4023POPC   C4B53206  44.638  14.843   7.501
 4024POPC   NC353207  36.033  37.233   5.385
 4024POPC   PO453208  36.293  36.660   5.209
 4024POPC   GL153209  36.067  36.763   5.618
 4024POPC   GL253210  36.233  37.046   5.812
 4024POPC   C1A53211  35.930  36.714   6.058
 4024POPC   D2A53212  36.155  36.836   6.452
 4024POPC   C3A53213  36.072  36.857   6.879
 4024POPC   C4A53214  35.891  36.967   7.240
 4024POPC   C1B53215  36.401  37.211   6.201
 4024POPC   C2B53216  36.543  37.155   6.625
 4024POPC   C3B53217  36.404  37.206   7.045
 4024POPC   C4B53218  36.591  36.974   7.377
 4025POPC   NC353219   0.906  20.690   5.223
 4025POPC   PO453220   1.533  20.335   5.216
 4025POPC   GL153221   1.361  20.529   5.654
 4025POPC   GL253222   1.148  20.820   5.716
 4025POPC   C1A53223   1.291  20.495   6.138
 4025POPC   D2A53224   1.115  20.308   6.540
 4025POPC   C3A53225   1.355  20.464   6.894
 4025POPC   C4A53226   1.281  20.463   7.316
 4025POPC   C1B53227   1.065  20.970   6.145
 4025POPC   C2B53228   1.176  20.825   6.562
 4025POPC   C3B53229   1.063  20.878   7.002
 4025POPC   C4B53230   0.925  20.806   7.431
 4026POPC   NC353231  20.831  21.581   5.427
 4026POPC   PO453232  20.278  21.264   5.493
 4026POPC   GL153233  20.455  21.470   5.810
 4026POPC   GL253234  20.769  21.268   5.850
 4026POPC   C1A53235  20.498  21.501   6.244
 4026POPC   D2A53236  20.426  21.316   6.645
 4026POPC   C3A53237  20.555  21.561   6.995
 4026POPC   C4A53238  20.576  21.556   7.425
 4026POPC   C1B53239  20.993  21.396   6.232
 4026POPC   C2B53240  20.962  21.428   6.677
 4026POPC   C3B53241  20.935  21.157   7.043
 4026POPC   C4B53242  20.962  21.253   7.509
 4027POPC   NC353243  16.936   8.756   5.435
 4027POPC   PO453244  16.294   8.921   5.354
 4027POPC   GL153245  16.515   8.727   5.718
 4027POPC   GL253246  16.747   8.975   5.849
 4027POPC   C1A53247  16.415   8.678   6.131
 4027POPC   D2A53248  16.591   8.855   6.490
 4027POPC   C3A53249  16.521   8.629   6.868
 4027POPC   C4A53250  16.568   8.708   7.288
 4027POPC   C1B53251  16.931   9.152   6.226
 4027POPC   C2B53252  17.060   9.152   6.640
 4027POPC   C3B53253  17.043   9.253   7.081
 4027POPC   C4B53254  16.945   9.015   7.424
 4028POPC   NC353255  12.048  25.821   5.166
 4028POPC   PO453256  11.769  26.386   5.407
 4028POPC   GL153257  12.056  26.104   5.700
 4028POPC   GL253258  12.250  25.763   5.722
 4028POPC   C1A53259  12.127  26.063   6.149
 4028POPC   D2A53260  11.936  26.218   6.535
 4028POPC   C3A53261  12.160  26.091   6.913
 4028POPC   C4A53262  12.274  26.134   7.325
 4028POPC   C1B53263  12.401  25.595   6.167
 4028POPC   C2B53264  12.384  25.622   6.660
 4028POPC   C3B53265  12.519  25.724   7.115
 4028POPC   C4B53266  12.643  25.875   7.588
 4029POPC   NC353267  39.591  43.222   5.462
 4029POPC   PO453268  39.002  42.943   5.354
 4029POPC   GL153269  39.153  43.041   5.819
 4029POPC   GL253270  39.407  43.282   5.924
 4029POPC   C1A53271  39.032  43.199   6.262
 4029POPC   D2A53272  39.025  42.920   6.612
 4029POPC   C3A53273  39.210  42.931   6.994
 4029POPC   C4A53274  39.068  43.004   7.399
 4029POPC   C1B53275  39.640  43.467   6.203
 4029POPC   C2B53276  39.433  43.611   6.563
 4029POPC   C3B53277  39.139  43.396   6.804
 4029POPC   C4B53278  39.288  43.427   7.230
 4030POPC   NC353279   4.304   7.096   5.097
 4030POPC   PO453280   4.591   7.099   5.664
 4030POPC   GL153281   4.506   7.434   5.933
 4030POPC   GL253282   4.171   7.440   5.950
 4030POPC   C1A53283   4.547   7.663   6.337
 4030POPC   D2A53284   4.555   7.890   6.735
 4030POPC   C3A53285   4.537   7.585   7.061
 4030POPC   C4A53286   4.388   7.303   7.411
 4030POPC   C1B53287   4.176   7.281   6.333
 4030POPC   C2B53288   4.221   7.368   6.742
 4030POPC   C3B53289   3.977   7.313   7.100
 4030POPC   C4B53290   3.955   6.988   7.420
 4031POPC   NC353291  44.911  21.997   5.629
 4031POPC   PO453292   0.254  22.410   5.171
 4031POPC   GL153293   0.356  22.354   5.664
 4031POPC   GL253294   0.670  22.133   5.735
 4031POPC   C1A53295   0.349  22.385   6.142
 4031POPC   D2A53296   0.079  22.317   6.557
 4031POPC   C3A53297   0.286  22.210   6.961
 4031POPC   C4A53298   0.251  22.400   7.371
 4031POPC   C1B53299   0.749  21.947   6.154
 4031POPC   C2B53300   0.796  22.024   6.594
 4031POPC   C3B53301   0.815  22.245   6.978
 4031POPC   C4B53302   0.645  22.089   7.333
 4032POPC   NC353303  28.992  19.641   5.463
 4032POPC   PO453304  29.157  20.271   5.574
 4032POPC   GL153305  29.066  19.907   5.900
 4032POPC   GL253306  29.071  19.499   5.926
 4032POPC   C1A53307  29.212  19.825   6.306
 4032POPC   D2A53308  29.553  19.865   6.577
 4032POPC   C3A53309  29.380  20.068   6.909
 4032POPC   C4A53310  28.940  20.174   7.027
 4032POPC   C1B53311  28.809  19.484   6.271
 4032POPC   C2B53312  28.863  19.668   6.662
 4032POPC   C3B53313  29.048  19.656   7.070
 4032POPC   C4B53314  28.775  19.840   7.386
 4033POPC   NC353315  30.026  35.118   5.232
 4033POPC   PO453316  29.753  35.703   5.137
 4033POPC   GL153317  29.865  35.538   5.578
 4033POPC   GL253318  30.166  35.710   5.698
 4033POPC   C1A53319  30.007  35.218   5.950
 4033POPC   D2A53320  29.976  35.211   6.448
 4033POPC   C3A53321  29.994  35.136   6.919
 4033POPC   C4A53322  30.036  35.364   7.337
 4033POPC   C1B53323  29.911  35.688   6.080
 4033POPC   C2B53324  29.962  35.715   6.494
 4033POPC   C3B53325  29.785  35.578   6.838
 4033POPC   C4B53326  29.787  35.787   7.178
 4034POPC   NC353327  40.892   0.762   5.422
 4034POPC   PO453328  40.417   0.228   5.477
 4034POPC   GL153329  40.615   0.507   5.761
 4034POPC   GL253330  40.915   0.392   5.861
 4034POPC   C1A53331  40.561   0.610   6.198
 4034POPC   D2A53332  40.733   0.567   6.608
 4034POPC   C3A53333  40.523   0.532   7.007
 4034POPC   C4A53334  40.629   0.525   7.446
 4034POPC   C1B53335  40.943   0.174   6.271
 4034POPC   C2B53336  41.069   0.163   6.708
 4034POPC   C3B53337  41.014   0.343   7.125
 4034POPC   C4B53338  40.980   0.207   7.583
 4035POPC   NC353339  33.424  31.741   5.351
 4035POPC   PO453340  32.833  32.127   5.419
 4035POPC   GL153341  32.902  32.235   5.846
 4035POPC   GL253342  33.259  32.280   5.911
 4035POPC   C1A53343  32.917  32.101   6.293
 4035POPC   D2A53344  32.932  32.338   6.658
 4035POPC   C3A53345  32.680  32.201   6.938
 4035POPC   C4A53346  32.672  31.929   7.241
 4035POPC   C1B53347  33.354  32.385   6.352
 4035POPC   C2B53348  33.380  32.148   6.736
 4035POPC   C3B53349  33.151  32.220   7.133
 4035POPC   C4B53350  33.376  32.414   7.462
 4036POPC   NC353351  25.830  27.211   5.211
 4036POPC   PO453352  26.113  26.645   5.383
 4036POPC   GL153353  25.986  26.805   5.760
 4036POPC   GL253354  26.044  26.469   5.876
 4036POPC   C1A53355  26.143  26.918   6.174
 4036POPC   D2A53356  26.329  27.143   6.541
 4036POPC   C3A53357  26.104  27.080   6.903
 4036POPC   C4A53358  26.002  27.002   7.324
 4036POPC   C1B53359  26.177  26.422   6.253
 4036POPC   C2B53360  26.175  26.638   6.615
 4036POPC   C3B53361  26.091  26.589   7.022
 4036POPC   C4B53362  26.401  26.430   7.291
 4037POPC   NC353363  43.642  41.873   5.469
 4037POPC   PO453364  44.078  41.312   5.204
 4037POPC   GL153365  43.919  41.471   5.699
 4037POPC   GL253366  43.612  41.642   5.905
 4037POPC   C1A53367  44.026  41.531   6.171
 4037POPC   D2A53368  44.234  41.670   6.544
 4037POPC   C3A53369  44.061  41.534   6.937
 4037POPC   C4A53370  44.163  41.615   7.346
 4037POPC   C1B53371  43.618  41.905   6.236
 4037POPC   C2B53372  43.745  41.808   6.635
 4037POPC   C3B53373  43.671  41.937   7.034
 4037POPC   C4B53374  43.658  41.915   7.494
 4038POPC   NC353375  27.819  13.301   4.945
 4038POPC   PO453376  27.202  13.373   5.250
 4038POPC   GL153377  27.188  13.395   5.750
 4038POPC   GL253378  27.276  13.175   6.063
 4038POPC   C1A53379  27.248  13.657   6.168
 4038POPC   D2A53380  27.221  13.427   6.571
 4038POPC   C3A53381  27.443  13.428   6.992
 4038POPC   C4A53382  27.607  13.607   7.384
 4038POPC   C1B53383  27.648  13.357   6.302
 4038POPC   C2B53384  27.859  13.342   6.713
 4038POPC   C3B53385  27.964  13.292   7.178
 4038POPC   C4B53386  28.199  13.012   7.459
 4039POPC   NC353387  10.775  36.911   5.004
 4039POPC   PO453388  10.427  36.489   5.334
 4039POPC   GL153389  10.694  36.718   5.701
 4039POPC   GL253390  10.770  37.069   5.789
 4039POPC   C1A53391  10.701  36.635   6.154
 4039POPC   D2A53392  10.484  36.779   6.522
 4039POPC   C3A53393  10.590  36.634   6.948
 4039POPC   C4A53394  10.277  36.788   7.262
 4039POPC   C1B53395  10.891  37.126   6.235
 4039POPC   C2B53396  10.928  36.962   6.672
 4039POPC   C3B53397  10.749  37.106   7.067
 4039POPC   C4B53398  10.414  37.436   7.169
 4040POPC   NC353399  14.659  19.348   5.454
 4040POPC   PO453400  14.039  19.018   5.354
 4040POPC   GL153401  14.235  18.961   5.764
 4040POPC   GL253402  14.348  19.284   5.876
 4040POPC   C1A53403  14.390  18.922   6.212
 4040POPC   D2A53404  14.393  19.152   6.599
 4040POPC   C3A53405  14.085  19.042   6.851
 4040POPC   C4A53406  14.223  18.949   7.208
 4040POPC   C1B53407  14.646  19.390   6.222
 4040POPC   C2B53408  14.767  19.490   6.696
 4040POPC   C3B53409  14.577  19.339   7.126
 4040POPC   C4B53410  14.494  19.456   7.604
 4041POPC   NC353411   5.375  19.011   5.340
 4041POPC   PO453412   4.878  18.543   5.400
 4041POPC   GL153413   4.842  18.926   5.711
 4041POPC   GL253414   5.165  19.108   5.793
 4041POPC   C1A53415   4.829  19.042   6.172
 4041POPC   D2A53416   5.076  19.140   6.578
 4041POPC   C3A53417   4.908  19.157   7.026
 4041POPC   C4A53418   5.188  19.403   7.316
 4041POPC   C1B53419   5.335  18.941   6.179
 4041POPC   C2B53420   5.361  18.702   6.557
 4041POPC   C3B53421   5.335  18.870   6.973
 4041POPC   C4B53422   5.496  18.660   7.317
 4042POPC   NC353423  44.803   1.831   5.241
 4042POPC   PO453424  44.249   2.084   5.474
 4042POPC   GL153425  44.384   2.061   5.937
 4042POPC   GL253426  44.714   2.194   5.914
 4042POPC   C1A53427  44.639   1.879   6.338
 4042POPC   D2A53428  44.914   1.862   6.738
 4042POPC   C3A53429  44.692   1.912   7.115
 4042POPC   C4A53430  44.291   2.091   7.141
 4042POPC   C1B53431  44.562   2.380   6.320
 4042POPC   C2B53432  44.549   2.257   6.734
 4042POPC   C3B53433  44.884   2.370   6.993
 4042POPC   C4B53434   0.152   2.175   7.336
 4043POPC   NC353435  11.402  33.330   5.434
 4043POPC   PO453436  11.089  32.801   5.353
 4043POPC   GL153437  11.211  32.983   5.782
 4043POPC   GL253438  10.903  33.035   5.972
 4043POPC   C1A53439  11.342  33.018   6.224
 4043POPC   D2A53440  11.503  32.866   6.604
 4043POPC   C3A53441  11.557  33.080   6.991
 4043POPC   C4A53442  11.753  32.833   7.293
 4043POPC   C1B53443  10.895  33.082   6.462
 4043POPC   C2B53444  11.072  32.961   6.871
 4043POPC   C3B53445  11.231  32.837   7.288
 4043POPC   C4B53446  11.041  32.924   7.715
 4044POPC   NC353447  12.122  33.421   5.333
 4044POPC   PO453448  11.710  32.996   5.541
 4044POPC   GL153449  11.681  33.250   5.926
 4044POPC   GL253450  11.817  32.944   6.083
 4044POPC   C1A53451  11.771  33.315   6.425
 4044POPC   D2A53452  12.009  33.074   6.785
 4044POPC   C3A53453  12.077  33.203   7.249
 4044POPC   C4A53454  11.854  33.143   7.697
 4044POPC   C1B53455  11.952  32.677   6.435
 4044POPC   C2B53456  12.260  32.619   6.769
 4044POPC   C3B53457  12.202  32.589   7.211
 4044POPC   C4B53458  12.209  32.793   7.614
 4045POPC   NC353459  40.078  21.881   5.345
 4045POPC   PO453460  40.009  22.511   5.382
 4045POPC   GL153461  40.150  22.315   5.747
 4045POPC   GL253462  40.449  22.090   5.679
 4045POPC   C1A53463  40.015  22.303   6.203
 4045POPC   D2A53464  39.970  22.561   6.593
 4045POPC   C3A53465  39.896  22.357   7.005
 4045POPC   C4A53466  40.134  22.271   7.381
 4045POPC   C1B53467  40.305  21.902   6.074
 4045POPC   C2B53468  40.115  21.875   6.507
 4045POPC   C3B53469  40.207  21.919   6.968
 4045POPC   C4B53470  40.265  21.769   7.404
 4046POPC   NC353471  31.790  29.936   4.961
 4046POPC   PO453472  31.393  29.809   5.500
 4046POPC   GL153473  31.443  29.933   5.894
 4046POPC   GL253474  31.762  29.770   5.872
 4046POPC   C1A53475  31.454  30.098   6.320
 4046POPC   D2A53476  31.385  29.811   6.648
 4046POPC   C3A53477  31.263  30.032   7.021
 4046POPC   C4A53478  31.580  30.308   7.184
 4046POPC   C1B53479  31.858  29.801   6.287
 4046POPC   C2B53480  31.938  30.062   6.591
 4046POPC   C3B53481  31.794  29.877   6.959
 4046POPC   C4B53482  31.616  29.828   7.349
 4047POPC   NC353483  19.849  42.876   5.130
 4047POPC   PO453484  19.878  42.204   5.316
 4047POPC   GL153485  19.861  42.409   5.733
 4047POPC   GL253486  19.497  42.501   5.798
 4047POPC   C1A53487  19.763  42.282   6.192
 4047POPC   D2A53488  19.691  42.064   6.609
 4047POPC   C3A53489  19.907  42.300   6.927
 4047POPC   C4A53490  20.245  42.351   7.246
 4047POPC   C1B53491  19.430  42.655   6.246
 4047POPC   C2B53492  19.469  42.524   6.704
 4047POPC   C3B53493  19.452  42.265   7.123
 4047POPC   C4B53494  19.347  42.429   7.551
 4048POPC   NC353495   7.230   9.358   5.486
 4048POPC   PO453496   7.606   8.748   5.351
 4048POPC   GL153497   7.510   8.950   5.728
 4048POPC   GL253498   7.182   8.851   5.822
 4048POPC   C1A53499   7.678   9.087   6.118
 4048POPC   D2A53500   7.858   9.158   6.529
 4048POPC   C3A53501   7.616   8.874   6.791
 4048POPC   C4A53502   7.456   8.986   7.182
 4048POPC   C1B53503   7.083   8.971   6.264
 4048POPC   C2B53504   7.092   8.941   6.717
 4048POPC   C3B53505   6.967   9.098   7.091
 4048POPC   C4B53506   7.053   8.887   7.480
 4049POPC   NC353507   4.697   6.269   5.394
 4049POPC   PO453508   5.065   5.682   5.400
 4049POPC   GL153509   5.243   5.767   5.827
 4049POPC   GL253510   5.319   5.491   5.988
 4049POPC   C1A53511   5.264   6.030   6.203
 4049POPC   D2A53512   5.359   6.139   6.660
 4049POPC   C3A53513   5.032   6.188   7.035
 4049POPC   C4A53514   5.119   6.098   7.499
 4049POPC   C1B53515   5.107   5.574   6.369
 4049POPC   C2B53516   5.125   5.671   6.795
 4049POPC   C3B53517   4.821   5.721   7.090
 4049POPC   C4B53518   4.921   5.648   7.472
 4050POPC   NC353519  41.605  32.425   5.521
 4050POPC   PO453520  41.047  32.037   5.463
 4050POPC   GL153521  41.315  32.095   5.816
 4050POPC   GL253522  41.610  31.922   5.899
 4050POPC   C1A53523  41.273  32.038   6.252
 4050POPC   D2A53524  41.306  32.251   6.602
 4050POPC   C3A53525  41.530  32.125   6.908
 4050POPC   C4A53526  41.314  32.248   7.248
 4050POPC   C1B53527  41.755  32.207   6.267
 4050POPC   C2B53528  41.772  32.518   6.630
 4050POPC   C3B53529  41.674  32.566   7.097
 4050POPC   C4B53530  41.791  32.207   7.399
 4051POPC   NC353531   2.744   8.969   5.435
 4051POPC   PO453532   3.233   9.403   5.474
 4051POPC   GL153533   3.073   9.124   5.807
 4051POPC   GL253534   2.678   9.137   5.900
 4051POPC   C1A53535   3.023   8.918   6.189
 4051POPC   D2A53536   2.825   8.776   6.556
 4051POPC   C3A53537   2.926   9.025   6.903
 4051POPC   C4A53538   2.929   9.037   7.327
 4051POPC   C1B53539   2.488   8.770   6.136
 4051POPC   C2B53540   2.298   8.754   6.553
 4051POPC   C3B53541   2.420   8.935   6.891
 4051POPC   C4B53542   2.502   8.762   7.258
 4052POPC   NC353543  32.001  44.751   5.468
 4052POPC   PO453544  31.641  44.128   5.517
 4052POPC   GL153545  31.953  44.394   5.839
 4052POPC   GL253546  32.307  44.267   5.965
 4052POPC   C1A53547  32.010  44.578   6.261
 4052POPC   D2A53548  32.144  44.390   6.676
 4052POPC   C3A53549  32.198  44.590   7.079
 4052POPC   C4A53550  31.940  44.963   7.219
 4052POPC   C1B53551  32.508  44.622   6.242
 4052POPC   C2B53552  32.442  44.817   6.661
 4052POPC   C3B53553  32.643  44.843   7.084
 4052POPC   C4B53554  32.588  44.571   7.450
 4053POPC   NC353555  24.943  43.770   5.323
 4053POPC   PO453556  25.298  44.381   5.339
 4053POPC   GL153557  25.047  44.199   5.686
 4053POPC   GL253558  25.147  43.887   5.786
 4053POPC   C1A53559  24.942  44.193   6.146
 4053POPC   D2A53560  24.966  43.945   6.541
 4053POPC   C3A53561  25.195  44.086   6.903
 4053POPC   C4A53562  25.014  44.105   7.269
 4053POPC   C1B53563  25.341  43.809   6.205
 4053POPC   C2B53564  25.407  43.677   6.652
 4053POPC   C3B53565  25.482  43.687   7.113
 4053POPC   C4B53566  25.533  43.370   7.430
 4054POPC   NC353567  43.160  38.275   5.021
 4054POPC   PO453568  42.965  38.856   5.297
 4054POPC   GL153569  42.917  38.636   5.756
 4054POPC   GL253570  43.173  38.350   5.815
 4054POPC   C1A53571  43.023  38.679   6.214
 4054POPC   D2A53572  42.993  38.476   6.653
 4054POPC   C3A53573  42.829  38.432   7.109
 4054POPC   C4A53574  43.146  38.518   7.449
 4054POPC   C1B53575  43.109  38.186   6.236
 4054POPC   C2B53576  43.292  38.060   6.611
 4054POPC   C3B53577  43.302  38.236   7.032
 4054POPC   C4B53578  43.346  38.038   7.437
 4055POPC   NC353579   8.020  43.958   5.385
 4055POPC   PO453580   8.618  44.011   5.256
 4055POPC   GL153581   8.424  43.944   5.705
 4055POPC   GL253582   8.085  43.840   5.856
 4055POPC   C1A53583   8.445  44.002   6.165
 4055POPC   D2A53584   8.169  44.122   6.509
 4055POPC   C3A53585   8.245  43.881   6.862
 4055POPC   C4A53586   8.351  43.908   7.290
 4055POPC   C1B53587   8.072  43.670   6.259
 4055POPC   C2B53588   7.827  43.711   6.622
 4055POPC   C3B53589   7.824  43.708   7.067
 4055POPC   C4B53590   8.030  43.534   7.392
 4056POPC   NC353591   1.213   6.095   5.148
 4056POPC   PO453592   0.630   5.964   5.458
 4056POPC   GL153593   0.816   5.910   5.828
 4056POPC   GL253594   1.131   6.040   5.697
 4056POPC   C1A53595   1.068   5.634   6.076
 4056POPC   D2A53596   1.223   5.473   6.482
 4056POPC   C3A53597   1.134   5.650   6.871
 4056POPC   C4A53598   1.380   5.816   7.117
 4056POPC   C1B53599   1.167   6.128   6.146
 4056POPC   C2B53600   1.327   6.046   6.534
 4056POPC   C3B53601   1.054   6.152   6.810
 4056POPC   C4B53602   1.054   6.194   7.205
 4057POPC   NC353603   1.452   5.328   5.318
 4057POPC   PO453604   0.787   5.119   5.338
 4057POPC   GL153605   0.999   5.220   5.720
 4057POPC   GL253606   0.872   4.912   5.823
 4057POPC   C1A53607   1.209   5.104   6.137
 4057POPC   D2A53608   1.108   4.940   6.572
 4057POPC   C3A53609   1.229   5.142   6.988
 4057POPC   C4A53610   1.466   5.044   7.393
 4057POPC   C1B53611   0.754   4.775   6.217
 4057POPC   C2B53612   0.579   4.862   6.610
 4057POPC   C3B53613   0.780   4.857   7.004
 4057POPC   C4B53614   1.105   4.684   7.271
 4058POPC   NC353615  24.634  24.788   5.305
 4058POPC   PO453616  24.347  24.185   5.508
 4058POPC   GL153617  24.503  24.450   5.843
 4058POPC   GL253618  24.754  24.731   5.800
 4058POPC   C1A53619  24.332  24.369   6.245
 4058POPC   D2A53620  24.074  24.346   6.607
 4058POPC   C3A53621  24.346  24.286   6.964
 4058POPC   C4A53622  24.466  24.556   7.309
 4058POPC   C1B53623  24.689  24.737   6.253
 4058POPC   C2B53624  24.434  24.757   6.653
 4058POPC   C3B53625  24.775  24.802   6.954
 4058POPC   C4B53626  24.841  25.054   7.315
 4059POPC   NC353627   4.522  38.113   5.441
 4059POPC   PO453628   4.751  37.488   5.564
 4059POPC   GL153629   4.965  37.468   5.906
 4059POPC   GL253630   5.239  37.267   5.866
 4059POPC   C1A53631   4.988  37.675   6.299
 4059POPC   D2A53632   4.780  37.539   6.653
 4059POPC   C3A53633   4.972  37.589   7.066
 4059POPC   C4A53634   5.347  37.801   7.193
 4059POPC   C1B53635   5.135  37.198   6.310
 4059POPC   C2B53636   5.268  37.347   6.720
 4059POPC   C3B53637   5.444  37.300   7.145
 4059POPC   C4B53638   5.398  37.444   7.593
 4060POPC   NC353639  16.868   4.283   5.369
 4060POPC   PO453640  16.254   4.496   5.558
 4060POPC   GL153641  16.620   4.414   5.813
 4060POPC   GL253642  16.612   4.099   5.898
 4060POPC   C1A53643  16.769   4.521   6.228
 4060POPC   D2A53644  16.945   4.439   6.620
 4060POPC   C3A53645  16.767   4.690   6.943
 4060POPC   C4A53646  16.395   4.589   7.168
 4060POPC   C1B53647  16.875   4.035   6.255
 4060POPC   C2B53648  16.760   3.935   6.672
 4060POPC   C3B53649  16.727   4.179   7.060
 4060POPC   C4B53650  16.925   4.221   7.474
 4061POPC   NC353651  16.852  20.643   5.382
 4061POPC   PO453652  16.474  20.176   5.599
 4061POPC   GL153653  16.735  20.439   5.844
 4061POPC   GL253654  17.080  20.406   5.766
 4061POPC   C1A53655  16.785  20.739   6.176
 4061POPC   D2A53656  16.542  20.846   6.529
 4061POPC   C3A53657  16.711  20.723   6.895
 4061POPC   C4A53658  16.805  20.814   7.285
 4061POPC   C1B53659  17.146  20.352   6.190
 4061POPC   C2B53660  16.900  20.364   6.556
 4061POPC   C3B53661  17.101  20.409   6.955
 4061POPC   C4B53662  16.942  20.317   7.318
 4062POPC   NC353663  37.097  44.510   5.386
 4062POPC   PO453664  36.755   0.102   5.425
 4062POPC   GL153665  36.923  44.792   5.765
 4062POPC   GL253666  37.289  44.655   5.847
 4062POPC   C1A53667  36.877  44.640   6.188
 4062POPC   D2A53668  37.066  44.797   6.583
 4062POPC   C3A53669  36.833  44.675   6.950
 4062POPC   C4A53670  36.809  44.769   7.379
 4062POPC   C1B53671  37.333  44.441   6.263
 4062POPC   C2B53672  37.158  44.322   6.700
 4062POPC   C3B53673  37.175  44.380   7.199
 4062POPC   C4B53674  37.092  44.266   7.643
 4063POPC   NC353675  21.018  37.678   5.326
 4063POPC   PO453676  20.448  37.395   5.326
 4063POPC   GL153677  20.543  37.608   5.746
 4063POPC   GL253678  20.861  37.833   5.783
 4063POPC   C1A53679  20.372  37.522   6.182
 4063POPC   D2A53680  20.170  37.460   6.581
 4063POPC   C3A53681  20.396  37.624   6.920
 4063POPC   C4A53682  20.512  37.565   7.339
 4063POPC   C1B53683  20.791  37.807   6.228
 4063POPC   C2B53684  20.833  37.762   6.694
 4063POPC   C3B53685  20.777  37.920   7.111
 4063POPC   C4B53686  20.776  38.002   7.569
 4064POPC   NC353687  29.720  39.064   5.186
 4064POPC   PO453688  30.094  39.548   5.123
 4064POPC   GL153689  29.939  39.388   5.515
 4064POPC   GL253690  30.204  39.484   5.705
 4064POPC   C1A53691  29.870  39.146   5.923
 4064POPC   D2A53692  29.930  39.114   6.369
 4064POPC   C3A53693  29.657  39.251   6.704
 4064POPC   C4A53694  29.759  39.064   7.116
 4064POPC   C1B53695  30.202  39.709   6.083
 4064POPC   C2B53696  30.151  39.563   6.502
 4064POPC   C3B53697  30.118  39.409   6.910
 4064POPC   C4B53698  30.349  39.462   7.304
 4065POPC   NC353699  30.842  30.958   5.591
 4065POPC   PO453700  30.639  30.339   5.672
 4065POPC   GL153701  30.986  30.575   5.897
 4065POPC   GL253702  31.029  30.274   6.066
 4065POPC   C1A53703  30.968  30.989   6.229
 4065POPC   D2A53704  30.580  31.217   6.482
 4065POPC   C3A53705  30.420  31.156   6.948
 4065POPC   C4A53706  30.614  31.028   7.376
 4065POPC   C1B53707  30.746  30.550   6.325
 4065POPC   C2B53708  30.882  30.750   6.687
 4065POPC   C3B53709  30.640  30.679   7.011
 4065POPC   C4B53710  30.666  30.513   7.395
 4066POPC   NC353711  37.195  43.858   5.397
 4066POPC   PO453712  36.648  44.273   5.452
 4066POPC   GL153713  36.915  44.175   5.797
 4066POPC   GL253714  36.848  43.807   5.803
 4066POPC   C1A53715  36.908  44.091   6.255
 4066POPC   D2A53716  36.754  43.809   6.570
 4066POPC   C3A53717  36.822  43.992   6.931
 4066POPC   C4A53718  37.006  43.886   7.309
 4066POPC   C1B53719  37.025  43.578   6.151
 4066POPC   C2B53720  37.031  43.374   6.544
 4066POPC   C3B53721  37.054  43.532   6.933
 4066POPC   C4B53722  37.429  43.498   7.105
 4067POPC   NC353723  44.235   6.452   5.405
 4067POPC   PO453724  44.896   6.418   5.174
 4067POPC   GL153725  44.736   6.470   5.638
 4067POPC   GL253726  44.484   6.762   5.712
 4067POPC   C1A53727  44.791   6.463   6.130
 4067POPC   D2A53728  44.932   6.700   6.545
 4067POPC   C3A53729  44.889   6.545   7.003
 4067POPC   C4A53730  44.816   6.537   7.461
 4067POPC   C1B53731  44.269   6.610   6.083
 4067POPC   C2B53732  44.404   6.611   6.507
 4067POPC   C3B53733  44.242   6.701   6.896
 4067POPC   C4B53734  44.388   6.750   7.282
 4068POPC   NC353735  13.041  39.436   5.523
 4068POPC   PO453736  12.474  38.973   5.509
 4068POPC   GL153737  12.670  39.208   5.813
 4068POPC   GL253738  13.005  39.031   5.815
 4068POPC   C1A53739  12.658  39.333   6.228
 4068POPC   D2A53740  12.886  39.278   6.611
 4068POPC   C3A53741  12.784  39.323   7.016
 4068POPC   C4A53742  12.817  38.949   7.253
 4068POPC   C1B53743  12.984  38.946   6.232
 4068POPC   C2B53744  13.128  38.815   6.615
 4068POPC   C3B53745  13.318  38.980   6.957
 4068POPC   C4B53746  13.239  39.261   7.252
 4069POPC   NC353747  38.283  24.664   5.308
 4069POPC   PO453748  38.502  24.217   5.656
 4069POPC   GL153749  38.574  24.463   5.962
 4069POPC   GL253750  38.369  24.736   5.829
 4069POPC   C1A53751  38.541  24.262   6.366
 4069POPC   D2A53752  38.642  24.068   6.772
 4069POPC   C3A53753  38.438  24.250   7.113
 4069POPC   C4A53754  38.690  24.468   7.393
 4069POPC   C1B53755  38.229  24.680   6.255
 4069POPC   C2B53756  38.336  24.638   6.658
 4069POPC   C3B53757  38.508  24.762   6.995
 4069POPC   C4B53758  38.269  24.737   7.344
 4070POPC   NC353759  40.382   3.835   5.588
 4070POPC   PO453760  39.850   3.492   5.319
 4070POPC   GL153761  40.007   3.514   5.755
 4070POPC   GL253762  39.969   3.857   5.901
 4070POPC   C1A53763  40.034   3.418   6.204
 4070POPC   D2A53764  39.912   3.632   6.591
 4070POPC   C3A53765  40.110   3.527   6.977
 4070POPC   C4A53766  39.885   3.508   7.317
 4070POPC   C1B53767  40.194   3.976   6.293
 4070POPC   C2B53768  40.321   3.929   6.747
 4070POPC   C3B53769  40.345   3.967   7.218
 4070POPC   C4B53770  40.382   3.980   7.686
 4071POPC   NC353771  20.435  10.768   5.403
 4071POPC   PO453772  20.603  11.412   5.289
 4071POPC   GL153773  20.612  11.258   5.689
 4071POPC   GL253774  20.354  11.055   5.842
 4071POPC   C1A53775  20.650  11.395   6.121
 4071POPC   D2A53776  20.665  11.099   6.455
 4071POPC   C3A53777  20.667  11.162   6.888
 4071POPC   C4A53778  20.724  11.305   7.276
 4071POPC   C1B53779  20.208  11.180   6.267
 4071POPC   C2B53780  20.183  11.058   6.718
 4071POPC   C3B53781  20.188  11.161   7.187
 4071POPC   C4B53782  19.954  11.175   7.619
 4072POPC   NC353783  19.370  26.451   5.511
 4072POPC   PO453784  20.071  26.650   5.355
 4072POPC   GL153785  19.920  26.906   5.723
 4072POPC   GL253786  19.570  26.868   5.807
 4072POPC   C1A53787  20.106  26.982   6.155
 4072POPC   D2A53788  20.077  26.734   6.540
 4072POPC   C3A53789  19.959  26.920   6.935
 4072POPC   C4A53790  20.077  26.691   7.313
 4072POPC   C1B53791  19.599  27.132   6.176
 4072POPC   C2B53792  19.536  27.021   6.598
 4072POPC   C3B53793  19.452  27.087   7.025
 4072POPC   C4B53794  19.593  26.834   7.338
 4073POPC   NC353795  37.712  38.149   5.392
 4073POPC   PO453796  37.327  38.783   5.477
 4073POPC   GL153797  37.568  38.476   5.791
 4073POPC   GL253798  37.849  38.188   5.861
 4073POPC   C1A53799  37.574  38.366   6.247
 4073POPC   D2A53800  37.657  38.644   6.605
 4073POPC   C3A53801  37.825  38.506   6.999
 4073POPC   C4A53802  37.552  38.263   7.254
 4073POPC   C1B53803  38.108  38.119   6.181
 4073POPC   C2B53804  38.002  38.182   6.585
 4073POPC   C3B53805  37.758  37.987   6.881
 4073POPC   C4B53806  38.031  38.057   7.257
 4074POPC   NC353807  34.795  13.247   5.427
 4074POPC   PO453808  34.469  12.644   5.322
 4074POPC   GL153809  34.564  12.804   5.773
 4074POPC   GL253810  34.624  13.145   5.909
 4074POPC   C1A53811  34.824  12.709   6.183
 4074POPC   D2A53812  34.890  12.770   6.656
 4074POPC   C3A53813  34.660  12.650   7.031
 4074POPC   C4A53814  34.470  12.527   7.403
 4074POPC   C1B53815  34.688  13.174   6.370
 4074POPC   C2B53816  34.483  13.064   6.758
 4074POPC   C3B53817  34.303  12.999   7.161
 4074POPC   C4B53818  34.430  12.967   7.608
 4075POPC   NC353819  28.390  31.771   5.370
 4075POPC   PO453820  28.280  31.062   5.505
 4075POPC   GL153821  28.401  31.410   5.760
 4075POPC   GL253822  28.600  31.245   6.039
 4075POPC   C1A53823  28.312  31.667   6.123
 4075POPC   D2A53824  28.477  31.518   6.506
 4075POPC   C3A53825  28.289  31.639   6.892
 4075POPC   C4A53826  28.511  31.630   7.259
 4075POPC   C1B53827  28.199  31.155   6.209
 4075POPC   C2B53828  28.093  31.205   6.622
 4075POPC   C3B53829  28.377  31.152   6.950
 4075POPC   C4B53830  28.122  31.285   7.258
 4076POPC   NC353831  19.039  44.498   5.333
 4076POPC   PO453832  18.859   0.181   5.457
 4076POPC   GL153833  19.009  44.786   5.754
 4076POPC   GL253834  18.797  44.454   5.795
 4076POPC   C1A53835  19.156  44.571   6.165
 4076POPC   D2A53836  18.916  44.514   6.559
 4076POPC   C3A53837  19.111  44.569   6.966
 4076POPC   C4A53838  19.016  44.368   7.347
 4076POPC   C1B53839  18.648  44.699   6.152
 4076POPC   C2B53840  18.519   0.012   6.506
 4076POPC   C3B53841  18.577  44.927   6.982
 4076POPC   C4B53842  18.728  44.792   7.409
 4077POPC   NC353843  23.974  30.985   5.285
 4077POPC   PO453844  23.554  30.385   5.276
 4077POPC   GL153845  23.636  30.449   5.730
 4077POPC   GL253846  23.777  30.805   5.784
 4077POPC   C1A53847  23.645  30.513   6.209
 4077POPC   D2A53848  23.505  30.711   6.619
 4077POPC   C3A53849  23.390  30.450   6.952
 4077POPC   C4A53850  23.652  30.287   7.262
 4077POPC   C1B53851  24.070  30.946   6.142
 4077POPC   C2B53852  24.103  30.845   6.592
 4077POPC   C3B53853  23.917  30.663   6.977
 4077POPC   C4B53854  23.907  30.698   7.443
 4078POPC   NC353855  33.543  18.839   5.255
 4078POPC   PO453856  33.646  19.388   5.609
 4078POPC   GL153857  33.948  19.254   5.870
 4078POPC   GL253858  33.775  18.948   5.953
 4078POPC   C1A53859  34.027  19.371   6.279
 4078POPC   D2A53860  33.741  19.343   6.632
 4078POPC   C3A53861  33.828  19.373   7.049
 4078POPC   C4A53862  34.022  18.997   7.178
 4078POPC   C1B53863  33.465  19.142   6.242
 4078POPC   C2B53864  33.333  19.013   6.668
 4078POPC   C3B53865  33.482  18.919   7.089
 4078POPC   C4B53866  33.485  19.200   7.415
 4079POPC   NC353867  13.768  23.121   5.020
 4079POPC   PO453868  13.368  22.832   5.518
 4079POPC   GL153869  13.663  22.632   5.813
 4079POPC   GL253870  13.736  22.917   6.037
 4079POPC   C1A53871  13.763  22.453   6.217
 4079POPC   D2A53872  13.713  22.699   6.585
 4079POPC   C3A53873  13.771  22.446   6.950
 4079POPC   C4A53874  13.520  22.572   7.290
 4079POPC   C1B53875  13.926  23.144   6.343
 4079POPC   C2B53876  13.975  23.142   6.768
 4079POPC   C3B53877  14.035  22.879   7.085
 4079POPC   C4B53878  13.833  22.992   7.443
 4080POPC   NC353879  33.959  17.451   5.480
 4080POPC   PO453880  33.351  17.763   5.528
 4080POPC   GL153881  33.615  17.595   5.823
 4080POPC   GL253882  33.473  17.304   5.746
 4080POPC   C1A53883  33.886  17.661   6.215
 4080POPC   D2A53884  33.797  17.589   6.673
 4080POPC   C3A53885  34.060  17.802   6.997
 4080POPC   C4A53886  34.222  17.957   7.420
 4080POPC   C1B53887  33.604  17.242   6.188
 4080POPC   C2B53888  33.881  17.040   6.473
 4080POPC   C3B53889  33.829  17.070   6.903
 4080POPC   C4B53890  33.488  17.085   7.214
 4081POPC   NC353891  38.059  16.781   5.484
 4081POPC   PO453892  37.423  16.799   5.309
 4081POPC   GL153893  37.557  16.782   5.756
 4081POPC   GL253894  37.770  16.551   5.894
 4081POPC   C1A53895  37.502  16.933   6.189
 4081POPC   D2A53896  37.658  17.158   6.580
 4081POPC   C3A53897  37.603  16.998   7.025
 4081POPC   C4A53898  37.802  16.920   7.469
 4081POPC   C1B53899  37.361  16.416   6.110
 4081POPC   C2B53900  37.191  16.375   6.551
 4081POPC   C3B53901  37.466  16.353   6.938
 4081POPC   C4B53902  37.499  16.524   7.368
 4082POPC   NC353903   5.663   8.063   5.685
 4082POPC   PO453904   6.121   8.409   5.477
 4082POPC   GL153905   6.045   8.371   5.864
 4082POPC   GL253906   6.117   8.045   5.935
 4082POPC   C1A53907   5.859   8.475   6.249
 4082POPC   D2A53908   5.638   8.384   6.606
 4082POPC   C3A53909   5.865   8.335   6.935
 4082POPC   C4A53910   6.098   8.692   7.089
 4082POPC   C1B53911   5.840   7.984   6.312
 4082POPC   C2B53912   5.621   7.872   6.700
 4082POPC   C3B53913   5.436   7.783   7.119
 4082POPC   C4B53914   5.539   7.995   7.492
 4083POPC   NC353915  38.782  29.989   5.276
 4083POPC   PO453916  38.240  29.572   5.170
 4083POPC   GL153917  38.409  29.770   5.597
 4083POPC   GL253918  38.349  30.136   5.698
 4083POPC   C1A53919  38.625  29.721   6.044
 4083POPC   D2A53920  38.535  29.544   6.481
 4083POPC   C3A53921  38.599  29.739   6.916
 4083POPC   C4A53922  38.263  29.732   7.244
 4083POPC   C1B53923  38.530  30.234   6.120
 4083POPC   C2B53924  38.477  30.082   6.550
 4083POPC   C3B53925  38.341  30.195   6.987
 4083POPC   C4B53926  38.229  30.375   7.387
 4084POPC   NC353927  44.569  22.062   5.115
 4084POPC   PO453928  44.854  22.454   5.584
 4084POPC   GL153929  44.599  22.352   5.891
 4084POPC   GL253930  44.398  22.152   5.697
 4084POPC   C1A53931  44.610  22.297   6.336
 4084POPC   D2A53932  44.483  22.406   6.755
 4084POPC   C3A53933  44.800  22.381   7.075
 4084POPC   C4A53934  44.893  22.000   7.292
 4084POPC   C1B53935  44.407  21.877   6.076
 4084POPC   C2B53936  44.295  21.906   6.522
 4084POPC   C3B53937  44.457  21.924   6.959
 4084POPC   C4B53938  44.413  22.167   7.347
 4085POPC   NC353939  34.424   8.762   5.564
 4085POPC   PO453940  35.057   8.868   5.392
 4085POPC   GL153941  34.931   9.165   5.802
 4085POPC   GL253942  34.608   9.187   5.871
 4085POPC   C1A53943  34.855   9.228   6.321
 4085POPC   D2A53944  34.653   8.984   6.695
 4085POPC   C3A53945  34.775   8.834   7.146
 4085POPC   C4A53946  34.975   8.731   7.569
 4085POPC   C1B53947  34.468   8.894   6.198
 4085POPC   C2B53948  34.205   8.748   6.513
 4085POPC   C3B53949  34.288   8.683   6.929
 4085POPC   C4B53950  34.286   9.037   7.161
 4086POPC   NC353951   3.991  21.465   5.387
 4086POPC   PO453952   3.428  21.771   5.361
 4086POPC   GL153953   3.468  21.344   5.615
 4086POPC   GL253954   3.780  21.311   5.828
 4086POPC   C1A53955   3.303  21.180   6.049
 4086POPC   D2A53956   3.156  21.199   6.519
 4086POPC   C3A53957   3.411  21.342   6.909
 4086POPC   C4A53958   3.446  21.692   7.245
 4086POPC   C1B53959   3.932  21.110   6.210
 4086POPC   C2B53960   4.058  21.103   6.653
 4086POPC   C3B53961   3.847  21.063   7.054
 4086POPC   C4B53962   3.756  21.319   7.412
 4087POPC   NC353963  38.848   7.322   5.131
 4087POPC   PO453964  39.349   7.513   5.546
 4087POPC   GL153965  39.391   7.360   5.894
 4087POPC   GL253966  39.696   7.521   5.948
 4087POPC   C1A53967  39.214   7.439   6.254
 4087POPC   D2A53968  38.966   7.379   6.575
 4087POPC   C3A53969  39.106   7.507   6.938
 4087POPC   C4A53970  39.076   7.138   7.146
 4087POPC   C1B53971  39.687   7.154   6.246
 4087POPC   C2B53972  39.436   7.152   6.617
 4087POPC   C3B53973  39.547   7.269   7.009
 4087POPC   C4B53974  39.520   7.700   7.257
 4088POPC   NC353975  31.108  32.277   5.485
 4088POPC   PO453976  30.498  32.024   5.370
 4088POPC   GL153977  30.664  32.233   5.746
 4088POPC   GL253978  30.476  32.506   5.810
 4088POPC   C1A53979  30.805  32.332   6.185
 4088POPC   D2A53980  30.670  32.178   6.583
 4088POPC   C3A53981  30.825  32.402   6.951
 4088POPC   C4A53982  30.795  32.287   7.405
 4088POPC   C1B53983  30.302  32.245   6.138
 4088POPC   C2B53984  30.148  32.236   6.551
 4088POPC   C3B53985  30.321  32.210   6.976
 4088POPC   C4B53986  30.364  31.989   7.383
 4089POPC   NC353987  31.714  29.384   5.543
 4089POPC   PO453988  31.185  28.914   5.522
 4089POPC   GL153989  31.409  29.079   5.858
 4089POPC   GL253990  31.310  29.414   5.832
 4089POPC   C1A53991  31.414  28.972   6.297
 4089POPC   D2A53992  31.200  28.706   6.615
 4089POPC   C3A53993  31.382  28.705   7.026
 4089POPC   C4A53994  31.293  28.906   7.405
 4089POPC   C1B53995  31.464  29.495   6.220
 4089POPC   C2B53996  31.662  29.348   6.575
 4089POPC   C3B53997  31.555  29.198   6.975
 4089POPC   C4B53998  31.296  29.516   7.061
 4090POPC   NC353999  37.105  12.196   5.498
 4090POPC   PO454000  36.608  11.768   5.475
 4090POPC   GL154001  36.878  11.924   5.865
 4090POPC   GL254002  37.261  11.970   5.938
 4090POPC   C1A54003  36.821  12.040   6.308
 4090POPC   D2A54004  36.792  11.736   6.698
 4090POPC   C3A54005  36.926  11.884   7.120
 4090POPC   C4A54006  36.960  12.329   7.321
 4090POPC   C1B54007  37.271  11.824   6.357
 4090POPC   C2B54008  37.177  12.072   6.709
 4090POPC   C3B54009  37.371  12.144   7.071
 4090POPC   C4B54010  37.410  11.794   7.296
 4091POPC   NC354011  18.523  22.472   5.515
 4091POPC   PO454012  17.967  22.055   5.409
 4091POPC   GL154013  18.219  22.077   5.768
 4091POPC   GL254014  18.156  22.394   5.887
 4091POPC   C1A54015  18.416  22.015   6.163
 4091POPC   D2A54016  18.221  22.044   6.555
 4091POPC   C3A54017  18.262  21.789   6.907
 4091POPC   C4A54018  18.276  21.968   7.312
 4091POPC   C1B54019  18.470  22.509   6.208
 4091POPC   C2B54020  18.681  22.311   6.562
 4091POPC   C3B54021  18.493  22.245   6.937
 4091POPC   C4B54022  18.353  22.463   7.291
 4092POPC   NC354023  14.257  35.881   5.511
 4092POPC   PO454024  14.528  36.490   5.366
 4092POPC   GL154025  14.579  36.312   5.755
 4092POPC   GL254026  14.530  35.991   5.916
 4092POPC   C1A54027  14.721  36.415   6.129
 4092POPC   D2A54028  14.536  36.567   6.518
 4092POPC   C3A54029  14.654  36.500   6.912
 4092POPC   C4A54030  14.248  36.470   7.078
 4092POPC   C1B54031  14.320  36.142   6.280
 4092POPC   C2B54032  14.500  36.052   6.669
 4092POPC   C3B54033  14.403  35.975   7.078
 4092POPC   C4B54034  14.079  35.818   7.278
 4093POPC   NC354035  24.986  22.373   5.479
 4093POPC   PO454036  25.111  21.811   5.149
 4093POPC   GL154037  25.303  22.008   5.631
 4093POPC   GL254038  25.502  22.338   5.688
 4093POPC   C1A54039  25.355  21.879   6.098
 4093POPC   D2A54040  25.635  21.865   6.463
 4093POPC   C3A54041  25.535  21.767   6.894
 4093POPC   C4A54042  25.270  22.006   7.153
 4093POPC   C1B54043  25.314  22.374   6.117
 4093POPC   C2B54044  25.199  22.202   6.550
 4093POPC   C3B54045  25.178  22.443   6.941
 4093POPC   C4B54046  25.389  22.412   7.422
 4094POPC   NC354047   8.384  13.547   5.340
 4094POPC   PO454048   7.792  13.922   5.406
 4094POPC   GL154049   8.042  13.652   5.713
 4094POPC   GL254050   8.436  13.697   5.805
 4094POPC   C1A54051   8.107  13.444   6.111
 4094POPC   D2A54052   8.314  13.511   6.523
 4094POPC   C3A54053   8.128  13.730   6.864
 4094POPC   C4A54054   8.264  13.497   7.214
 4094POPC   C1B54055   8.432  13.880   6.184
 4094POPC   C2B54056   8.542  13.966   6.589
 4094POPC   C3B54057   8.646  13.736   6.919
 4094POPC   C4B54058   8.554  13.898   7.286
 4095POPC   NC354059  26.134  42.531   5.531
 4095POPC   PO454060  25.979  41.942   5.298
 4095POPC   GL154061  25.951  42.101   5.771
 4095POPC   GL254062  25.763  42.438   5.887
 4095POPC   C1A54063  26.140  42.242   6.189
 4095POPC   D2A54064  26.228  42.525   6.550
 4095POPC   C3A54065  26.155  42.326   6.958
 4095POPC   C4A54066  26.276  41.963   7.187
 4095POPC   C1B54067  25.737  42.601   6.327
 4095POPC   C2B54068  25.812  42.717   6.781
 4095POPC   C3B54069  25.759  42.577   7.199
 4095POPC   C4B54070  25.846  42.204   7.374
 4096POPC   NC354071   5.917  34.365   5.268
 4096POPC   PO454072   5.575  34.845   5.127
 4096POPC   GL154073   5.674  34.734   5.584
 4096POPC   GL254074   5.612  34.371   5.662
 4096POPC   C1A54075   5.826  34.746   6.051
 4096POPC   D2A54076   5.830  34.864   6.515
 4096POPC   C3A54077   6.064  34.664   6.878
 4096POPC   C4A54078   6.086  34.756   7.339
 4096POPC   C1B54079   5.620  34.277   6.093
 4096POPC   C2B54080   5.831  34.323   6.483
 4096POPC   C3B54081   5.656  34.337   6.885
 4096POPC   C4B54082   5.877  34.307   7.248
 4097POPC   NC354083  36.528   6.831   5.561
 4097POPC   PO454084  37.079   6.396   5.396
 4097POPC   GL154085  36.919   6.573   5.777
 4097POPC   GL254086  37.235   6.563   5.888
 4097POPC   C1A54087  36.935   6.749   6.237
 4097POPC   D2A54088  37.076   6.845   6.672
 4097POPC   C3A54089  36.779   6.632   6.947
 4097POPC   C4A54090  36.538   6.688   7.356
 4097POPC   C1B54091  37.427   6.427   6.278
 4097POPC   C2B54092  37.477   6.550   6.719
 4097POPC   C3B54093  37.231   6.584   7.136
 4097POPC   C4B54094  37.185   6.218   7.434
 4098POPC   NC354095  26.054   0.024   5.447
 4098POPC   PO454096  26.083  44.375   5.428
 4098POPC   GL154097  25.831  44.613   5.751
 4098POPC   GL254098  25.845  44.979   5.902
 4098POPC   C1A54099  25.825  44.547   6.204
 4098POPC   D2A54100  25.989  44.753   6.564
 4098POPC   C3A54101  25.943  44.548   6.977
 4098POPC   C4A54102  25.893  44.798   7.346
 4098POPC   C1B54103  26.267  44.807   6.075
 4098POPC   C2B54104  26.528  44.795   6.475
 4098POPC   C3B54105  26.381  44.867   6.887
 4098POPC   C4B54106  26.405  44.890   7.321
 4099POPC   NC354107  21.829  41.589   5.583
 4099POPC   PO454108  22.434  41.766   5.343
 4099POPC   GL154109  22.322  41.673   5.756
 4099POPC   GL254110  22.415  41.348   5.891
 4099POPC   C1A54111  22.208  41.765   6.179
 4099POPC   D2A54112  22.398  41.729   6.589
 4099POPC   C3A54113  22.091  41.815   6.868
 4099POPC   C4A54114  22.080  41.659   7.254
 4099POPC   C1B54115  22.624  41.439   6.232
 4099POPC   C2B54116  22.605  41.219   6.605
 4099POPC   C3B54117  22.461  41.340   7.002
 4099POPC   C4B54118  22.553  41.199   7.416
 4100POPC   NC354119  11.071  13.250   5.483
 4100POPC   PO454120  11.493  13.743   5.301
 4100POPC   GL154121  11.439  13.586   5.722
 4100POPC   GL254122  11.154  13.773   5.816
 4100POPC   C1A54123  11.426  13.606   6.206
 4100POPC   D2A54124  11.379  13.853   6.591
 4100POPC   C3A54125  11.288  13.727   7.025
 4100POPC   C4A54126  11.590  13.569   7.304
 4100POPC   C1B54127  10.899  13.836   6.228
 4100POPC   C2B54128  10.884  13.806   6.696
 4100POPC   C3B54129  10.822  13.939   7.125
 4100POPC   C4B54130  11.016  13.781   7.520
 4101POPC   NC354131   7.664  31.294   5.470
 4101POPC   PO454132   7.136  31.627   5.498
 4101POPC   GL154133   7.472  31.682   5.812
 4101POPC   GL254134   7.593  31.333   5.973
 4101POPC   C1A54135   7.520  31.743   6.248
 4101POPC   D2A54136   7.317  31.521   6.558
 4101POPC   C3A54137   7.473  31.525   6.948
 4101POPC   C4A54138   7.220  31.862   7.097
 4101POPC   C1B54139   7.249  31.125   6.217
 4101POPC   C2B54140   6.961  31.167   6.579
 4101POPC   C3B54141   7.058  31.158   7.025
 4101POPC   C4B54142   7.182  30.966   7.425
 4102POPC   NC354143  36.327  16.936   5.296
 4102POPC   PO454144  35.706  16.686   5.268
 4102POPC   GL154145  36.019  16.774   5.673
 4102POPC   GL254146  36.210  17.107   5.751
 4102POPC   C1A54147  36.177  16.659   6.101
 4102POPC   D2A54148  35.996  16.385   6.435
 4102POPC   C3A54149  36.176  16.341   6.844
 4102POPC   C4A54150  36.238  16.510   7.237
 4102POPC   C1B54151  35.958  17.116   6.105
 4102POPC   C2B54152  35.882  17.129   6.548
 4102POPC   C3B54153  36.072  16.906   6.914
 4102POPC   C4B54154  36.291  17.013   7.303
 4103POPC   NC354155  35.011  21.361   5.369
 4103POPC   PO454156  35.604  21.760   5.306
 4103POPC   GL154157  35.427  21.756   5.754
 4103POPC   GL254158  35.164  21.506   5.844
 4103POPC   C1A54159  35.555  21.590   6.186
 4103POPC   D2A54160  35.685  21.413   6.606
 4103POPC   C3A54161  35.482  21.647   6.930
 4103POPC   C4A54162  35.354  21.610   7.340
 4103POPC   C1B54163  35.219  21.197   6.197
 4103POPC   C2B54164  35.130  21.209   6.661
 4103POPC   C3B54165  35.226  21.175   7.112
 4103POPC   C4B54166  35.053  21.256   7.560
 4104POPC   NC354167  26.355   9.038   5.309
 4104POPC   PO454168  25.742   8.738   5.405
 4104POPC   GL154169  26.040   8.896   5.762
 4104POPC   GL254170  26.231   9.228   5.771
 4104POPC   C1A54171  26.208   8.988   6.215
 4104POPC   D2A54172  26.411   8.953   6.616
 4104POPC   C3A54173  26.106   9.038   6.907
 4104POPC   C4A54174  26.113   9.074   7.342
 4104POPC   C1B54175  25.838   9.303   6.031
 4104POPC   C2B54176  25.669   9.331   6.424
 4104POPC   C3B54177  25.650   9.310   6.877
 4104POPC   C4B54178  25.660   9.262   7.292
 4105POPC   NC354179  21.996  17.744   5.088
 4105POPC   PO454180  22.330  17.284   5.392
 4105POPC   GL154181  22.475  17.369   5.809
 4105POPC   GL254182  22.243  17.672   5.856
 4105POPC   C1A54183  22.445  17.425   6.257
 4105POPC   D2A54184  22.292  17.650   6.566
 4105POPC   C3A54185  22.350  17.442   6.890
 4105POPC   C4A54186  22.575  17.691   7.136
 4105POPC   C1B54187  21.945  17.631   6.200
 4105POPC   C2B54188  21.840  17.896   6.579
 4105POPC   C3B54189  21.805  17.906   7.018
 4105POPC   C4B54190  21.917  17.556   7.270
 4106POPC   NC354191  37.968  35.602   5.584
 4106POPC   PO454192  37.388  35.234   5.381
 4106POPC   GL154193  37.498  35.304   5.788
 4106POPC   GL254194  37.474  35.646   5.760
 4106POPC   C1A54195  37.611  35.209   6.212
 4106POPC   D2A54196  37.988  35.199   6.419
 4106POPC   C3A54197  38.046  35.539   6.699
 4106POPC   C4A54198  37.935  35.653   7.121
 4106POPC   C1B54199  37.678  35.725   6.172
 4106POPC   C2B54200  37.513  35.582   6.571
 4106POPC   C3B54201  37.240  35.388   6.887
 4106POPC   C4B54202  37.448  35.265   7.254
 4107POPC   NC354203  10.175  12.714   5.614
 4107POPC   PO454204   9.507  12.667   5.533
 4107POPC   GL154205   9.757  12.656   5.877
 4107POPC   GL254206   9.837  12.319   5.866
 4107POPC   C1A54207   9.905  12.633   6.295
 4107POPC   D2A54208   9.730  12.890   6.615
 4107POPC   C3A54209   9.921  12.866   7.009
 4107POPC   C4A54210   9.648  12.975   7.306
 4107POPC   C1B54211   9.444  12.360   6.132
 4107POPC   C2B54212   9.528  12.379   6.565
 4107POPC   C3B54213   9.459  12.595   6.938
 4107POPC   C4B54214   9.599  12.478   7.313
 4108POPC   NC354215  41.745   0.378   5.381
 4108POPC   PO454216  41.103   0.337   5.375
 4108POPC   GL154217  41.363   0.583   5.707
 4108POPC   GL254218  41.721   0.738   5.744
 4108POPC   C1A54219  41.371   0.427   6.144
 4108POPC   D2A54220  41.567   0.211   6.507
 4108POPC   C3A54221  41.475   0.419   6.912
 4108POPC   C4A54222  41.489   0.389   7.352
 4108POPC   C1B54223  41.843   0.565   6.168
 4108POPC   C2B54224  41.735   0.700   6.565
 4108POPC   C3B54225  41.902   0.691   6.984
 4108POPC   C4B54226  41.846   0.756   7.421
 4109POPC   NC354227  40.732  37.010   5.483
 4109POPC   PO454228  41.213  36.736   5.239
 4109POPC   GL154229  41.057  36.698   5.763
 4109POPC   GL254230  40.701  36.718   5.913
 4109POPC   C1A54231  41.041  36.868   6.234
 4109POPC   D2A54232  40.613  36.818   6.496
 4109POPC   C3A54233  40.663  36.662   6.932
 4109POPC   C4A54234  41.028  36.810   7.145
 4109POPC   C1B54235  40.659  37.174   6.117
 4109POPC   C2B54236  40.728  37.328   6.555
 4109POPC   C3B54237  40.656  37.203   7.030
 4109POPC   C4B54238  40.631  37.324   7.493
 4110POPC   NC354239  23.975  30.159   5.297
 4110POPC   PO454240  23.595  29.624   5.207
 4110POPC   GL154241  23.513  29.925   5.579
 4110POPC   GL254242  23.830  29.794   5.662
 4110POPC   C1A54243  23.401  30.050   6.047
 4110POPC   D2A54244  23.229  29.889   6.480
 4110POPC   C3A54245  23.478  29.921   6.886
 4110POPC   C4A54246  23.715  29.610   7.108
 4110POPC   C1B54247  23.906  30.056   6.031
 4110POPC   C2B54248  23.856  30.021   6.498
 4110POPC   C3B54249  23.982  30.060   6.945
 4110POPC   C4B54250  24.184  30.315   7.264
 4111POPC   NC354251  10.371  17.927   5.255
 4111POPC   PO454252  10.761  17.420   5.413
 4111POPC   GL154253  10.555  17.461   5.774
 4111POPC   GL254254  10.251  17.314   5.654
 4111POPC   C1A54255  10.643  17.301   6.183
 4111POPC   D2A54256  10.564  17.521   6.560
 4111POPC   C3A54257  10.652  17.388   6.960
 4111POPC   C4A54258  10.557  17.758   7.146
 4111POPC   C1B54259  10.152  17.359   6.103
 4111POPC   C2B54260  10.210  17.167   6.490
 4111POPC   C3B54261  10.270  17.056   6.924
 4111POPC   C4B54262  10.268  17.323   7.330
 4112POPC   NC354263  10.732  12.207   5.293
 4112POPC   PO454264  10.089  12.292   5.419
 4112POPC   GL154265  10.341  12.214   5.759
 4112POPC   GL254266  10.701  12.173   5.816
 4112POPC   C1A54267  10.263  12.174   6.173
 4112POPC   D2A54268  10.321  12.425   6.525
 4112POPC   C3A54269  10.389  12.144   6.892
 4112POPC   C4A54270  10.467  11.944   7.293
 4112POPC   C1B54271  10.884  12.273   6.224
 4112POPC   C2B54272  10.807  12.377   6.652
 4112POPC   C3B54273  10.871  12.150   7.032
 4112POPC   C4B54274  11.197  12.108   7.294
 4113POPC   NC354275   7.646  43.396   5.437
 4113POPC   PO454276   7.270  42.932   5.450
 4113POPC   GL154277   7.320  43.226   5.806
 4113POPC   GL254278   7.118  43.515   5.820
 4113POPC   C1A54279   7.511  43.218   6.230
 4113POPC   D2A54280   7.551  42.870   6.535
 4113POPC   C3A54281   7.518  42.937   6.980
 4113POPC   C4A54282   7.631  43.270   7.245
 4113POPC   C1B54283   6.990  43.318   6.203
 4113POPC   C2B54284   7.123  43.152   6.601
 4113POPC   C3B54285   7.217  43.359   6.969
 4113POPC   C4B54286   7.113  43.485   7.380
 4114POPC   NC354287  42.812  18.704   5.319
 4114POPC   PO454288  42.205  19.133   5.381
 4114POPC   GL154289  42.210  18.976   5.792
 4114POPC   GL254290  42.504  18.767   5.747
 4114POPC   C1A54291  42.110  19.142   6.207
 4114POPC   D2A54292  42.236  19.304   6.601
 4114POPC   C3A54293  42.134  19.100   6.967
 4114POPC   C4A54294  41.955  19.280   7.262
 4114POPC   C1B54295  42.702  18.947   6.119
 4114POPC   C2B54296  42.687  19.043   6.569
 4114POPC   C3B54297  42.650  19.126   7.012
 4114POPC   C4B54298  42.582  18.835   7.348
 4115POPC   NC354299  30.170  41.327   5.238
 4115POPC   PO454300  29.672  41.716   5.217
 4115POPC   GL154301  29.783  41.552   5.631
 4115POPC   GL254302  30.055  41.326   5.722
 4115POPC   C1A54303  29.727  41.658   6.069
 4115POPC   D2A54304  29.895  41.609   6.503
 4115POPC   C3A54305  29.703  41.365   6.810
 4115POPC   C4A54306  29.790  41.446   7.230
 4115POPC   C1B54307  30.150  41.374   6.133
 4115POPC   C2B54308  30.117  41.139   6.512
 4115POPC   C3B54309  30.184  41.297   6.909
 4115POPC   C4B54310  30.393  41.188   7.240
 4116POPC   NC354311  27.822  28.782   5.436
 4116POPC   PO454312  27.364  29.359   5.550
 4116POPC   GL154313  27.397  29.122   5.892
 4116POPC   GL254314  27.667  28.915   5.888
 4116POPC   C1A54315  27.566  29.269   6.257
 4116POPC   D2A54316  27.656  29.349   6.655
 4116POPC   C3A54317  27.287  29.397   6.848
 4116POPC   C4A54318  27.161  29.523   7.231
 4116POPC   C1B54319  27.495  28.752   6.235
 4116POPC   C2B54320  27.346  28.914   6.609
 4116POPC   C3B54321  27.546  28.938   6.973
 4116POPC   C4B54322  27.562  29.209   7.291
 4117POPC   NC354323   3.085  39.014   5.387
 4117POPC   PO454324   2.607  39.447   5.188
 4117POPC   GL154325   2.744  39.194   5.700
 4117POPC   GL254326   2.872  38.845   5.836
 4117POPC   C1A54327   2.868  39.372   6.142
 4117POPC   D2A54328   2.702  39.610   6.461
 4117POPC   C3A54329   2.859  39.506   6.888
 4117POPC   C4A54330   2.706  39.338   7.270
 4117POPC   C1B54331   2.604  38.916   6.152
 4117POPC   C2B54332   2.726  39.081   6.534
 4117POPC   C3B54333   2.695  38.960   6.921
 4117POPC   C4B54334   2.503  38.818   7.287
 4118POPC   NC354335  24.988  17.454   5.374
 4118POPC   PO454336  25.703  17.490   5.372
 4118POPC   GL154337  25.466  17.515   5.797
 4118POPC   GL254338  25.096  17.603   5.836
 4118POPC   C1A54339  25.358  17.648   6.258
 4118POPC   D2A54340  25.045  17.594   6.604
 4118POPC   C3A54341  25.333  17.653   6.888
 4118POPC   C4A54342  25.457  17.646   7.257
 4118POPC   C1B54343  25.149  17.209   6.095
 4118POPC   C2B54344  25.310  17.173   6.489
 4118POPC   C3B54345  25.249  17.170   6.928
 4118POPC   C4B54346  25.389  17.149   7.310
 4119POPC   NC354347  20.475  19.302   5.342
 4119POPC   PO454348  20.947  18.904   5.405
 4119POPC   GL154349  20.665  19.019   5.769
 4119POPC   GL254350  20.753  19.362   5.768
 4119POPC   C1A54351  20.555  18.946   6.236
 4119POPC   D2A54352  20.846  18.916   6.649
 4119POPC   C3A54353  20.780  18.876   7.106
 4119POPC   C4A54354  20.345  18.854   7.266
 4119POPC   C1B54355  20.852  19.358   6.198
 4119POPC   C2B54356  20.573  19.352   6.575
 4119POPC   C3B54357  20.521  19.304   6.999
 4119POPC   C4B54358  20.841  19.384   7.319
 4120POPC   NC354359  41.175  42.469   5.551
 4120POPC   PO454360  41.701  42.002   5.489
 4120POPC   GL154361  41.578  42.282   5.885
 4120POPC   GL254362  41.228  42.311   6.046
 4120POPC   C1A54363  41.725  42.426   6.323
 4120POPC   D2A54364  41.907  42.341   6.771
 4120POPC   C3A54365  41.677  42.210   7.178
 4120POPC   C4A54366  41.744  42.186   7.643
 4120POPC   C1B54367  41.425  42.010   6.345
 4120POPC   C2B54368  41.535  41.880   6.768
 4120POPC   C3B54369  41.300  41.860   7.146
 4120POPC   C4B54370  41.302  41.968   7.574
 4121POPC   NC354371  22.622  41.332   5.433
 4121POPC   PO454372  22.917  40.636   5.433
 4121POPC   GL154373  22.832  40.935   5.749
 4121POPC   GL254374  23.041  40.726   5.930
 4121POPC   C1A54375  22.639  40.925   6.158
 4121POPC   D2A54376  22.889  40.752   6.486
 4121POPC   C3A54377  22.780  40.841   6.909
 4121POPC   C4A54378  22.952  40.783   7.322
 4121POPC   C1B54379  23.172  40.336   6.114
 4121POPC   C2B54380  23.188  40.184   6.522
 4121POPC   C3B54381  23.084  40.415   6.902
 4121POPC   C4B54382  23.369  40.490   7.274
 4122POPC   NC354383  15.267  10.980   5.542
 4122POPC   PO454384  14.841  11.470   5.408
 4122POPC   GL154385  14.990  11.324   5.813
 4122POPC   GL254386  15.340  11.386   5.883
 4122POPC   C1A54387  15.076  11.171   6.245
 4122POPC   D2A54388  15.267  11.323   6.637
 4122POPC   C3A54389  15.119  11.220   7.001
 4122POPC   C4A54390  14.874  11.415   7.293
 4122POPC   C1B54391  15.456  11.610   6.272
 4122POPC   C2B54392  15.506  11.795   6.691
 4122POPC   C3B54393  15.289  11.688   7.098
 4122POPC   C4B54394  15.381  11.384   7.455
 4123POPC   NC354395  28.917  44.176   5.148
 4123POPC   PO454396  28.348  43.991   5.518
 4123POPC   GL154397  28.344  43.942   5.922
 4123POPC   GL254398  28.069  44.174   5.929
 4123POPC   C1A54399  28.455  43.760   6.328
 4123POPC   D2A54400  28.455  43.968   6.726
 4123POPC   C3A54401  28.608  43.777   7.115
 4123POPC   C4A54402  28.488  43.777   7.562
 4123POPC   C1B54403  28.116  44.153   6.331
 4123POPC   C2B54404  28.175  44.432   6.617
 4123POPC   C3B54405  28.144  44.296   7.015
 4123POPC   C4B54406  28.417  44.222   7.325
 4124POPC   NC354407  15.204  40.339   5.172
 4124POPC   PO454408  14.993  40.894   5.454
 4124POPC   GL154409  15.139  40.651   5.793
 4124POPC   GL254410  15.390  40.397   5.710
 4124POPC   C1A54411  15.182  40.860   6.216
 4124POPC   D2A54412  14.965  41.001   6.590
 4124POPC   C3A54413  15.150  40.898   7.000
 4124POPC   C4A54414  15.380  40.910   7.414
 4124POPC   C1B54415  15.312  40.367   6.189
 4124POPC   C2B54416  15.361  40.589   6.606
 4124POPC   C3B54417  15.523  40.533   7.014
 4124POPC   C4B54418  15.168  40.442   7.261
 4125POPC   NC354419  21.351   1.720   5.245
 4125POPC   PO454420  21.688   2.371   5.274
 4125POPC   GL154421  21.442   2.102   5.610
 4125POPC   GL254422  21.398   1.731   5.758
 4125POPC   C1A54423  21.563   2.080   6.080
 4125POPC   D2A54424  21.508   1.843   6.480
 4125POPC   C3A54425  21.433   1.968   6.918
 4125POPC   C4A54426  21.697   2.155   7.235
 4125POPC   C1B54427  21.116   1.819   6.151
 4125POPC   C2B54428  20.982   1.887   6.594
 4125POPC   C3B54429  20.955   1.681   7.011
 4125POPC   C4B54430  21.121   1.924   7.370
 4126POPC   NC354431   0.749   8.790   5.238
 4126POPC   PO454432   0.192   9.062   5.372
 4126POPC   GL154433   0.424   9.255   5.739
 4126POPC   GL254434   0.139   9.228   5.926
 4126POPC   C1A54435   0.592   9.093   6.160
 4126POPC   D2A54436   0.799   8.849   6.506
 4126POPC   C3A54437   0.615   8.695   6.926
 4126POPC   C4A54438   0.650   8.926   7.319
 4126POPC   C1B54439   0.320   9.519   6.212
 4126POPC   C2B54440   0.582   9.426   6.536
 4126POPC   C3B54441   0.593   9.209   6.895
 4126POPC   C4B54442   0.212   9.125   7.177
 4127POPC   NC354443  40.988  27.701   5.206
 4127POPC   PO454444  40.515  27.389   5.574
 4127POPC   GL154445  40.701  27.677   5.863
 4127POPC   GL254446  41.026  27.705   5.733
 4127POPC   C1A54447  40.786  27.697   6.297
 4127POPC   D2A54448  40.903  27.853   6.696
 4127POPC   C3A54449  40.547  27.725   6.938
 4127POPC   C4A54450  40.503  27.358   7.096
 4127POPC   C1B54451  41.059  27.342   6.042
 4127POPC   C2B54452  41.156  27.363   6.511
 4127POPC   C3B54453  41.028  27.433   6.977
 4127POPC   C4B54454  40.918  27.324   7.434
 4128POPC   NC354455   6.467  42.059   5.568
 4128POPC   PO454456   6.483  42.699   5.451
 4128POPC   GL154457   6.387  42.606   5.856
 4128POPC   GL254458   6.669  42.403   5.947
 4128POPC   C1A54459   6.271  42.613   6.282
 4128POPC   D2A54460   6.471  42.611   6.644
 4128POPC   C3A54461   6.474  42.528   7.070
 4128POPC   C4A54462   6.465  42.172   7.272
 4128POPC   C1B54463   6.554  42.189   6.328
 4128POPC   C2B54464   6.666  42.149   6.765
 4128POPC   C3B54465   6.966  42.309   7.057
 4128POPC   C4B54466   7.279  42.379   7.397
 4129POPC   NC354467  14.360  38.794   5.409
 4129POPC   PO454468  14.435  39.411   5.250
 4129POPC   GL154469  14.333  39.257   5.679
 4129POPC   GL254470  14.648  39.246   5.836
 4129POPC   C1A54471  14.227  39.321   6.153
 4129POPC   D2A54472  13.966  39.426   6.544
 4129POPC   C3A54473  14.191  39.342   6.938
 4129POPC   C4A54474  14.257  39.005   7.247
 4129POPC   C1B54475  14.654  39.033   6.262
 4129POPC   C2B54476  14.621  39.267   6.624
 4129POPC   C3B54477  14.671  39.518   6.999
 4129POPC   C4B54478  14.608  39.372   7.363
 4130POPC   NC354479  33.061  26.507   5.378
 4130POPC   PO454480  33.212  27.118   5.350
 4130POPC   GL154481  32.883  26.938   5.624
 4130POPC   GL254482  33.030  26.673   5.848
 4130POPC   C1A54483  32.685  26.972   6.043
 4130POPC   D2A54484  32.663  26.721   6.417
 4130POPC   C3A54485  32.813  26.906   6.811
 4130POPC   C4A54486  33.022  26.893   7.216
 4130POPC   C1B54487  33.192  26.790   6.259
 4130POPC   C2B54488  33.303  26.537   6.624
 4130POPC   C3B54489  33.179  26.435   7.061
 4130POPC   C4B54490  33.357  26.575   7.473
 4131POPC   NC354491  27.832  31.200   5.485
 4131POPC   PO454492  27.935  31.875   5.440
 4131POPC   GL154493  27.925  31.618   5.774
 4131POPC   GL254494  27.594  31.750   5.814
 4131POPC   C1A54495  27.745  31.401   6.161
 4131POPC   D2A54496  27.580  31.222   6.544
 4131POPC   C3A54497  27.711  31.418   6.926
 4131POPC   C4A54498  27.458  31.489   7.291
 4131POPC   C1B54499  27.820  31.921   6.152
 4131POPC   C2B54500  27.943  31.735   6.516
 4131POPC   C3B54501  27.879  31.932   6.888
 4131POPC   C4B54502  27.880  31.773   7.291
 4132POPC   NC354503   3.541  12.899   5.368
 4132POPC   PO454504   3.066  13.167   5.694
 4132POPC   GL154505   3.396  12.880   5.905
 4132POPC   GL254506   3.769  12.858   5.832
 4132POPC   C1A54507   3.549  12.844   6.337
 4132POPC   D2A54508   3.863  12.888   6.677
 4132POPC   C3A54509   3.735  12.909   7.116
 4132POPC   C4A54510   3.337  12.944   7.373
 4132POPC   C1B54511   3.859  12.500   6.111
 4132POPC   C2B54512   3.686  12.381   6.504
 4132POPC   C3B54513   3.468  12.562   6.842
 4132POPC   C4B54514   3.518  12.425   7.250
 4133POPC   NC354515  34.664  39.247   5.436
 4133POPC   PO454516  34.128  38.887   5.237
 4133POPC   GL154517  34.398  38.874   5.656
 4133POPC   GL254518  34.415  39.176   5.859
 4133POPC   C1A54519  34.511  38.767   6.126
 4133POPC   D2A54520  34.396  39.040   6.512
 4133POPC   C3A54521  34.552  38.958   6.945
 4133POPC   C4A54522  34.563  39.113   7.388
 4133POPC   C1B54523  34.570  39.417   6.201
 4133POPC   C2B54524  34.736  39.415   6.615
 4133POPC   C3B54525  34.564  39.485   7.005
 4133POPC   C4B54526  34.544  39.635   7.401
 4134POPC   NC354527  11.361  26.957   5.373
 4134POPC   PO454528  10.888  26.435   5.566
 4134POPC   GL154529  11.258  26.655   5.762
 4134POPC   GL254530  11.265  27.029   5.871
 4134POPC   C1A54531  11.481  26.594   6.121
 4134POPC   D2A54532  11.502  26.543   6.553
 4134POPC   C3A54533  11.350  26.864   6.818
 4134POPC   C4A54534  11.405  26.815   7.262
 4134POPC   C1B54535  11.365  27.198   6.274
 4134POPC   C2B54536  11.346  27.393   6.665
 4134POPC   C3B54537  11.183  27.289   7.059
 4134POPC   C4B54538  10.936  26.991   7.281
 4135POPC   NC354539   7.413  44.365   5.346
 4135POPC   PO454540   7.321  43.732   5.388
 4135POPC   GL154541   7.575  43.843   5.723
 4135POPC   GL254542   7.700  44.180   5.719
 4135POPC   C1A54543   7.570  43.751   6.154
 4135POPC   D2A54544   7.328  43.608   6.505
 4135POPC   C3A54545   7.378  43.840   6.867
 4135POPC   C4A54546   7.211  43.957   7.225
 4135POPC   C1B54547   7.649  44.272   6.129
 4135POPC   C2B54548   7.613  44.158   6.519
 4135POPC   C3B54549   7.799  44.279   6.891
 4135POPC   C4B54550   7.683  44.151   7.285
 4136POPC   NC354551  16.741  18.713   5.091
 4136POPC   PO454552  16.708  19.314   5.400
 4136POPC   GL154553  16.785  19.144   5.795
 4136POPC   GL254554  16.758  18.820   5.697
 4136POPC   C1A54555  16.973  18.961   6.166
 4136POPC   D2A54556  16.982  19.023   6.605
 4136POPC   C3A54557  16.636  19.020   6.912
 4136POPC   C4A54558  16.853  18.991   7.295
 4136POPC   C1B54559  16.469  18.800   6.033
 4136POPC   C2B54560  16.520  18.750   6.459
 4136POPC   C3B54561  16.423  18.567   6.823
 4136POPC   C4B54562  16.521  18.565   7.217
 4137POPC   NC354563  17.161  10.436   5.474
 4137POPC   PO454564  16.621  10.833   5.189
 4137POPC   GL154565  16.767  10.738   5.614
 4137POPC   GL254566  16.647  10.418   5.646
 4137POPC   C1A54567  16.839  10.659   6.099
 4137POPC   D2A54568  16.663  10.680   6.539
 4137POPC   C3A54569  16.880  10.649   6.951
 4137POPC   C4A54570  16.977  10.583   7.379
 4137POPC   C1B54571  16.628  10.197   6.039
 4137POPC   C2B54572  16.744  10.138   6.461
 4137POPC   C3B54573  16.674  10.195   6.883
 4137POPC   C4B54574  16.824  10.094   7.256
 4138POPC   NC354575  21.012  41.299   5.477
 4138POPC   PO454576  20.620  41.841   5.439
 4138POPC   GL154577  20.797  41.673   5.801
 4138POPC   GL254578  20.617  41.926   5.966
 4138POPC   C1A54579  20.828  41.593   6.266
 4138POPC   D2A54580  20.778  41.897   6.615
 4138POPC   C3A54581  20.982  41.745   6.953
 4138POPC   C4A54582  20.677  41.475   7.088
 4138POPC   C1B54583  20.227  42.114   6.055
 4138POPC   C2B54584  20.199  42.222   6.502
 4138POPC   C3B54585  20.310  41.968   6.892
 4138POPC   C4B54586  20.632  41.982   7.227
 4139POPC   NC354587   3.850  11.776   5.258
 4139POPC   PO454588   3.711  12.458   5.398
 4139POPC   GL154589   3.582  12.211   5.766
 4139POPC   GL254590   3.440  11.868   5.704
 4139POPC   C1A54591   3.710  11.989   6.143
 4139POPC   D2A54592   3.585  11.844   6.540
 4139POPC   C3A54593   3.624  12.036   6.929
 4139POPC   C4A54594   3.504  11.902   7.342
 4139POPC   C1B54595   3.210  11.828   6.126
 4139POPC   C2B54596   3.124  11.658   6.532
 4139POPC   C3B54597   3.127  11.822   6.971
 4139POPC   C4B54598   3.060  11.630   7.360
 4140POPC   NC354599  17.567  21.831   5.457
 4140POPC   PO454600  17.807  21.300   5.387
 4140POPC   GL154601  17.547  21.374   5.788
 4140POPC   GL254602  17.250  21.658   5.816
 4140POPC   C1A54603  17.693  21.243   6.216
 4140POPC   D2A54604  17.624  20.975   6.596
 4140POPC   C3A54605  17.690  21.166   7.012
 4140POPC   C4A54606  17.417  21.224   7.388
 4140POPC   C1B54607  17.193  21.510   6.218
 4140POPC   C2B54608  17.383  21.418   6.613
 4140POPC   C3B54609  17.300  21.539   7.015
 4140POPC   C4B54610  17.445  21.736   7.412
 4141POPC   NC354611  10.519  23.201   5.315
 4141POPC   PO454612  10.772  22.640   5.388
 4141POPC   GL154613  10.702  22.891   5.723
 4141POPC   GL254614  10.996  22.724   5.862
 4141POPC   C1A54615  10.425  22.821   6.084
 4141POPC   D2A54616  10.349  22.574   6.481
 4141POPC   C3A54617  10.528  22.763   6.861
 4141POPC   C4A54618  10.374  22.930   7.306
 4141POPC   C1B54619  10.965  23.077   6.148
 4141POPC   C2B54620  10.701  23.148   6.512
 4141POPC   C3B54621  10.967  23.022   6.872
 4141POPC   C4B54622  10.853  22.763   7.249
 4142POPC   NC354623  39.713  30.883   5.525
 4142POPC   PO454624  40.124  30.427   5.208
 4142POPC   GL154625  40.064  30.537   5.708
 4142POPC   GL254626  39.882  30.780   5.968
 4142POPC   C1A54627  40.316  30.640   6.133
 4142POPC   D2A54628  40.446  30.878   6.530
 4142POPC   C3A54629  40.246  30.812   6.947
 4142POPC   C4A54630  40.010  30.631   7.288
 4142POPC   C1B54631  39.826  31.123   6.273
 4142POPC   C2B54632  39.647  31.175   6.677
 4142POPC   C3B54633  39.770  31.023   7.040
 4142POPC   C4B54634  40.061  31.123   7.362
 4143POPC   NC354635  37.624   9.691   5.241
 4143POPC   PO454636  37.941   9.251   5.616
 4143POPC   GL154637  37.639   9.518   5.737
 4143POPC   GL254638  37.785   9.861   5.714
 4143POPC   C1A54639  37.461   9.516   6.141
 4143POPC   D2A54640  37.352   9.760   6.495
 4143POPC   C3A54641  37.533   9.653   6.867
 4143POPC   C4A54642  37.467   9.655   7.248
 4143POPC   C1B54643  37.688   9.972   6.155
 4143POPC   C2B54644  37.870   9.907   6.577
 4143POPC   C3B54645  37.811  10.043   7.015
 4143POPC   C4B54646  37.634  10.112   7.384
 4144POPC   NC354647  16.022  18.465   5.545
 4144POPC   PO454648  16.315  17.957   5.446
 4144POPC   GL154649  16.050  18.041   5.811
 4144POPC   GL254650  15.701  18.059   5.715
 4144POPC   C1A54651  15.849  18.287   6.162
 4144POPC   D2A54652  16.011  18.424   6.541
 4144POPC   C3A54653  15.780  18.528   6.903
 4144POPC   C4A54654  16.031  18.376   7.218
 4144POPC   C1B54655  15.666  17.805   6.107
 4144POPC   C2B54656  15.683  17.709   6.566
 4144POPC   C3B54657  15.848  18.013   6.867
 4144POPC   C4B54658  15.727  17.968   7.265
 4145POPC   NC354659  44.730  15.565   5.447
 4145POPC   PO454660  44.894  14.942   5.392
 4145POPC   GL154661  44.710  15.035   5.783
 4145POPC   GL254662  44.387  14.851   5.836
 4145POPC   C1A54663  44.673  15.087   6.241
 4145POPC   D2A54664  44.474  15.038   6.643
 4145POPC   C3A54665  44.705  15.171   7.020
 4145POPC   C4A54666  44.585  15.359   7.424
 4145POPC   C1B54667  44.280  14.680   6.268
 4145POPC   C2B54668  44.376  14.543   6.733
 4145POPC   C3B54669  44.285  14.845   7.099
 4145POPC   C4B54670  44.157  14.995   7.528
 4146POPC   NC354671  38.571  22.698   5.346
 4146POPC   PO454672  38.742  23.285   5.356
 4146POPC   GL154673  38.438  23.143   5.679
 4146POPC   GL254674  38.408  22.792   5.816
 4146POPC   C1A54675  38.236  23.233   6.082
 4146POPC   D2A54676  38.296  23.280   6.548
 4146POPC   C3A54677  38.408  22.988   6.881
 4146POPC   C4A54678  38.604  23.120   7.294
 4146POPC   C1B54679  38.734  22.576   6.094
 4146POPC   C2B54680  38.622  22.400   6.482
 4146POPC   C3B54681  38.713  22.537   6.855
 4146POPC   C4B54682  38.587  22.627   7.197
 4147POPC   NC354683  27.106  30.512   5.465
 4147POPC   PO454684  26.591  30.962   5.493
 4147POPC   GL154685  26.742  30.711   5.792
 4147POPC   GL254686  26.453  30.760   5.989
 4147POPC   C1A54687  26.909  30.903   6.174
 4147POPC   D2A54688  26.611  30.874   6.514
 4147POPC   C3A54689  26.750  30.902   6.929
 4147POPC   C4A54690  27.066  30.694   7.144
 4147POPC   C1B54691  26.706  30.441   6.255
 4147POPC   C2B54692  26.860  30.383   6.687
 4147POPC   C3B54693  26.670  30.389   7.100
 4147POPC   C4B54694  26.694  30.556   7.534
 4148POPC   NC354695   8.162  27.224   5.249
 4148POPC   PO454696   8.338  26.566   5.328
 4148POPC   GL154697   8.194  26.665   5.760
 4148POPC   GL254698   8.184  27.032   5.738
 4148POPC   C1A54699   8.254  26.542   6.221
 4148POPC   D2A54700   8.376  26.456   6.662
 4148POPC   C3A54701   8.308  26.693   7.056
 4148POPC   C4A54702   8.208  26.549   7.487
 4148POPC   C1B54703   8.200  27.078   6.211
 4148POPC   C2B54704   8.157  27.007   6.674
 4148POPC   C3B54705   7.974  27.095   7.118
 4148POPC   C4B54706   8.205  27.100   7.525
 4149POPC   NC354707  28.322  22.297   5.235
 4149POPC   PO454708  28.173  21.730   5.465
 4149POPC   GL154709  28.448  22.054   5.708
 4149POPC   GL254710  28.595  22.391   5.654
 4149POPC   C1A54711  28.395  22.208   6.140
 4149POPC   D2A54712  28.233  21.910   6.472
 4149POPC   C3A54713  28.160  21.999   6.922
 4149POPC   C4A54714  28.302  21.813   7.337
 4149POPC   C1B54715  28.797  22.558   6.025
 4149POPC   C2B54716  28.800  22.447   6.458
 4149POPC   C3B54717  28.761  22.538   6.907
 4149POPC   C4B54718  28.590  22.200   7.171
 4150POPC   NC354719   6.279  20.574   5.548
 4150POPC   PO454720   6.908  20.322   5.564
 4150POPC   GL154721   6.658  20.539   5.905
 4150POPC   GL254722   6.535  20.905   5.893
 4150POPC   C1A54723   6.615  20.464   6.335
 4150POPC   D2A54724   6.576  20.719   6.665
 4150POPC   C3A54725   6.765  20.572   7.044
 4150POPC   C4A54726   6.778  20.991   7.144
 4150POPC   C1B54727   6.204  20.727   6.189
 4150POPC   C2B54728   6.104  20.536   6.590
 4150POPC   C3B54729   6.259  20.503   7.010
 4150POPC   C4B54730   6.293  20.410   7.471
 4151POPC   NC354731   9.694  31.908   5.409
 4151POPC   PO454732   9.629  31.289   5.099
 4151POPC   GL154733   9.513  31.281   5.592
 4151POPC   GL254734   9.684  31.571   5.799
 4151POPC   C1A54735   9.524  31.164   6.101
 4151POPC   D2A54736   9.351  31.188   6.596
 4151POPC   C3A54737   9.568  31.319   7.024
 4151POPC   C4A54738   9.824  31.290   7.446
 4151POPC   C1B54739   9.949  31.505   6.186
 4151POPC   C2B54740  10.070  31.639   6.591
 4151POPC   C3B54741   9.960  31.677   7.013
 4151POPC   C4B54742   9.754  31.790   7.375
 4152POPC   NC354743  36.803  40.469   5.632
 4152POPC   PO454744  37.195  39.998   5.291
 4152POPC   GL154745  37.117  39.825   5.717
 4152POPC   GL254746  36.757  39.766   5.793
 4152POPC   C1A54747  37.110  39.963   6.165
 4152POPC   D2A54748  36.934  39.855   6.597
 4152POPC   C3A54749  37.141  39.988   7.006
 4152POPC   C4A54750  37.028  40.052   7.448
 4152POPC   C1B54751  36.556  39.974   6.151
 4152POPC   C2B54752  36.448  40.111   6.565
 4152POPC   C3B54753  36.648  40.089   6.974
 4152POPC   C4B54754  36.548  40.108   7.383
 4153POPC   NC354755   2.210  27.836   5.574
 4153POPC   PO454756   1.672  27.752   5.423
 4153POPC   GL154757   1.625  27.659   5.863
 4153POPC   GL254758   1.966  27.529   5.946
 4153POPC   C1A54759   1.680  27.701   6.333
 4153POPC   D2A54760   2.015  27.811   6.642
 4153POPC   C3A54761   1.877  27.806   7.078
 4153POPC   C4A54762   2.087  27.817   7.480
 4153POPC   C1B54763   2.009  27.327   6.371
 4153POPC   C2B54764   1.886  27.347   6.820
 4153POPC   C3B54765   2.121  27.377   7.217
 4153POPC   C4B54766   2.527  27.587   7.272
 4154POPC   NC354767   2.503  37.472   5.287
 4154POPC   PO454768   3.136  37.724   5.441
 4154POPC   GL154769   2.898  37.851   5.766
 4154POPC   GL254770   2.703  37.598   5.738
 4154POPC   C1A54771   2.679  37.886   6.171
 4154POPC   D2A54772   2.543  38.054   6.578
 4154POPC   C3A54773   2.817  38.050   6.926
 4154POPC   C4A54774   2.727  37.782   7.257
 4154POPC   C1B54775   2.851  37.364   6.075
 4154POPC   C2B54776   2.790  37.230   6.470
 4154POPC   C3B54777   2.674  37.314   6.885
 4154POPC   C4B54778   2.868  37.211   7.279
 4155POPC   NC354779  14.551  44.811   5.484
 4155POPC   PO454780  14.056  44.385   5.518
 4155POPC   GL154781  14.295  44.597   5.872
 4155POPC   GL254782  14.694  44.498   5.877
 4155POPC   C1A54783  14.214  44.692   6.317
 4155POPC   D2A54784  13.890  44.901   6.578
 4155POPC   C3A54785  14.015  44.876   7.001
 4155POPC   C4A54786  14.341  44.695   7.267
 4155POPC   C1B54787  14.790  44.553   6.327
 4155POPC   C2B54788  14.561  44.695   6.691
 4155POPC   C3B54789  14.756  44.896   7.027
 4155POPC   C4B54790  14.832  44.907   7.459
 4156POPC   NC354791  43.117   5.768   5.389
 4156POPC   PO454792  42.634   6.243   5.550
 4156POPC   GL154793  42.946   6.002   5.818
 4156POPC   GL254794  42.898   5.604   5.817
 4156POPC   C1A54795  43.044   6.015   6.270
 4156POPC   D2A54796  42.859   5.756   6.599
 4156POPC   C3A54797  42.888   5.747   7.034
 4156POPC   C4A54798  43.023   5.986   7.376
 4156POPC   C1B54799  43.165   5.530   6.173
 4156POPC   C2B54800  43.365   5.683   6.555
 4156POPC   C3B54801  43.379   5.547   7.004
 4156POPC   C4B54802  43.357   5.620   7.466
 4157POPC   NC354803   6.854  15.706   5.245
 4157POPC   PO454804   6.716  16.342   5.383
 4157POPC   GL154805   6.740  16.094   5.777
 4157POPC   GL254806   6.430  16.113   5.921
 4157POPC   C1A54807   6.832  15.961   6.221
 4157POPC   D2A54808   6.936  16.142   6.623
 4157POPC   C3A54809   6.742  15.989   6.978
 4157POPC   C4A54810   6.890  15.706   7.223
 4157POPC   C1B54811   6.296  16.194   6.341
 4157POPC   C2B54812   6.421  16.303   6.748
 4157POPC   C3B54813   6.236  16.105   7.106
 4157POPC   C4B54814   6.352  15.707   7.216
 4158POPC   NC354815  30.488  36.632   5.464
 4158POPC   PO454816  30.361  37.294   5.437
 4158POPC   GL154817  30.403  37.046   5.771
 4158POPC   GL254818  30.762  36.996   5.751
 4158POPC   C1A54819  30.438  36.857   6.178
 4158POPC   D2A54820  30.203  36.881   6.574
 4158POPC   C3A54821  30.476  36.911   6.907
 4158POPC   C4A54822  30.597  36.721   7.247
 4158POPC   C1B54823  30.910  37.068   6.171
 4158POPC   C2B54824  30.846  36.806   6.543
 4158POPC   C3B54825  31.014  36.745   6.948
 4158POPC   C4B54826  31.253  36.936   7.264
 4159POPC   NC354827  18.354   0.046   5.502
 4159POPC   PO454828  18.195   0.685   5.485
 4159POPC   GL154829  18.317   0.506   5.873
 4159POPC   GL254830  18.142   0.167   5.947
 4159POPC   C1A54831  18.240   0.527   6.332
 4159POPC   D2A54832  18.067   0.715   6.721
 4159POPC   C3A54833  18.351   0.580   7.002
 4159POPC   C4A54834  18.707   0.395   6.856
 4159POPC   C1B54835  18.002   0.047   6.364
 4159POPC   C2B54836  18.035   0.198   6.771
 4159POPC   C3B54837  18.140   0.124   7.189
 4159POPC   C4B54838  18.196   0.082   7.633
 4160POPC   NC354839  17.432  26.413   5.365
 4160POPC   PO454840  17.216  25.753   5.239
 4160POPC   GL154841  17.396  25.957   5.621
 4160POPC   GL254842  17.698  25.819   5.826
 4160POPC   C1A54843  17.308  26.114   6.047
 4160POPC   D2A54844  17.149  26.115   6.498
 4160POPC   C3A54845  17.406  26.116   6.862
 4160POPC   C4A54846  17.382  25.975   7.269
 4160POPC   C1B54847  17.824  25.592   6.217
 4160POPC   C2B54848  17.741  25.787   6.624
 4160POPC   C3B54849  17.858  25.861   7.045
 4160POPC   C4B54850  17.915  25.528   7.336
 4161POPC   NC354851  43.469  39.205   5.224
 4161POPC   PO454852  42.859  39.366   5.359
 4161POPC   GL154853  43.063  39.158   5.749
 4161POPC   GL254854  43.338  39.342   5.815
 4161POPC   C1A54855  43.192  39.163   6.251
 4161POPC   D2A54856  42.939  39.203   6.640
 4161POPC   C3A54857  43.013  39.205   7.126
 4161POPC   C4A54858  43.045  39.002   7.547
 4161POPC   C1B54859  43.227  39.669   6.144
 4161POPC   C2B54860  43.284  39.597   6.574
 4161POPC   C3B54861  43.442  39.325   6.884
 4161POPC   C4B54862  43.685  39.442   7.212
 4162POPC   NC354863   4.866  21.759   5.484
 4162POPC   PO454864   4.937  21.016   5.390
 4162POPC   GL154865   5.058  21.263   5.730
 4162POPC   GL254866   5.364  21.375   5.723
 4162POPC   C1A54867   5.081  21.306   6.188
 4162POPC   D2A54868   4.952  21.204   6.593
 4162POPC   C3A54869   5.209  21.236   6.936
 4162POPC   C4A54870   5.107  21.533   7.266
 4162POPC   C1B54871   5.399  21.688   6.077
 4162POPC   C2B54872   5.204  21.759   6.500
 4162POPC   C3B54873   5.405  21.721   6.917
 4162POPC   C4B54874   5.426  21.907   7.366
 4163POPC   NC354875  16.247   3.037   5.394
 4163POPC   PO454876  15.714   2.674   5.160
 4163POPC   GL154877  15.890   2.604   5.605
 4163POPC   GL254878  16.206   2.414   5.695
 4163POPC   C1A54879  15.792   2.774   6.033
 4163POPC   D2A54880  15.936   2.965   6.439
 4163POPC   C3A54881  15.820   2.776   6.842
 4163POPC   C4A54882  15.458   2.913   7.070
 4163POPC   C1B54883  16.293   2.646   6.090
 4163POPC   C2B54884  16.373   2.695   6.544
 4163POPC   C3B54885  16.286   3.041   6.827
 4163POPC   C4B54886  16.065   3.052   7.212
 4164POPC   NC354887  23.098  36.030   5.470
 4164POPC   PO454888  22.398  35.942   5.385
 4164POPC   GL154889  22.649  36.074   5.794
 4164POPC   GL254890  22.987  36.259   5.904
 4164POPC   C1A54891  22.846  35.842   6.164
 4164POPC   D2A54892  23.026  35.664   6.546
 4164POPC   C3A54893  23.027  35.867   6.953
 4164POPC   C4A54894  22.763  35.886   7.299
 4164POPC   C1B54895  22.756  36.367   6.271
 4164POPC   C2B54896  22.866  36.600   6.647
 4164POPC   C3B54897  23.186  36.511   6.935
 4164POPC   C4B54898  23.088  36.303   7.283
 4165POPC   NC354899  10.103  42.377   5.301
 4165POPC   PO454900   9.504  42.249   5.358
 4165POPC   GL154901   9.727  42.522   5.692
 4165POPC   GL254902  10.108  42.669   5.710
 4165POPC   C1A54903   9.550  42.603   6.140
 4165POPC   D2A54904   9.354  42.654   6.586
 4165POPC   C3A54905   9.641  42.515   6.944
 4165POPC   C4A54906   9.561  42.314   7.365
 4165POPC   C1B54907  10.043  42.419   6.058
 4165POPC   C2B54908   9.908  42.346   6.447
 4165POPC   C3B54909  10.142  42.394   6.817
 4165POPC   C4B54910  10.066  42.339   7.239
 4166POPC   NC354911  34.211  11.452   5.436
 4166POPC   PO454912  33.690  11.236   5.359
 4166POPC   GL154913  33.914  11.161   5.788
 4166POPC   GL254914  33.627  11.037   5.971
 4166POPC   C1A54915  34.036  11.041   6.258
 4166POPC   D2A54916  34.016  10.952   6.758
 4166POPC   C3A54917  34.001  11.273   7.130
 4166POPC   C4A54918  33.899  11.357   7.586
 4166POPC   C1B54919  33.565  10.998   6.444
 4166POPC   C2B54920  33.569  11.192   6.859
 4166POPC   C3B54921  33.496  11.343   7.276
 4166POPC   C4B54922  33.432  11.566   7.685
 4167POPC   NC354923  13.596   8.627   5.212
 4167POPC   PO454924  13.677   9.375   5.328
 4167POPC   GL154925  13.589   9.036   5.625
 4167POPC   GL254926  13.889   8.841   5.621
 4167POPC   C1A54927  13.422   9.025   6.082
 4167POPC   D2A54928  13.479   8.810   6.495
 4167POPC   C3A54929  13.726   8.907   6.893
 4167POPC   C4A54930  13.552   8.852   7.317
 4167POPC   C1B54931  13.811   8.696   6.071
 4167POPC   C2B54932  13.992   8.682   6.503
 4167POPC   C3B54933  14.031   8.489   6.925
 4167POPC   C4B54934  14.040   8.725   7.303
 4168POPC   NC354935  12.370  21.377   5.393
 4168POPC   PO454936  11.721  21.332   5.636
 4168POPC   GL154937  12.097  21.243   5.798
 4168POPC   GL254938  12.209  21.597   5.828
 4168POPC   C1A54939  12.154  21.249   6.221
 4168POPC   D2A54940  12.003  21.571   6.486
 4168POPC   C3A54941  11.707  21.514   6.836
 4168POPC   C4A54942  11.783  21.411   7.273
 4168POPC   C1B54943  12.477  21.639   6.176
 4168POPC   C2B54944  12.484  21.433   6.596
 4168POPC   C3B54945  12.204  21.536   6.978
 4168POPC   C4B54946  12.348  21.498   7.411
 4169POPC   NC354947  28.901  21.098   5.071
 4169POPC   PO454948  29.186  21.620   5.422
 4169POPC   GL154949  28.976  21.550   5.783
 4169POPC   GL254950  28.875  21.224   5.687
 4169POPC   C1A54951  29.061  21.578   6.206
 4169POPC   D2A54952  29.301  21.447   6.519
 4169POPC   C3A54953  29.118  21.586   6.861
 4169POPC   C4A54954  29.271  21.496   7.234
 4169POPC   C1B54955  29.191  21.126   6.016
 4169POPC   C2B54956  29.138  20.962   6.450
 4169POPC   C3B54957  29.054  21.067   6.883
 4169POPC   C4B54958  29.324  20.963   7.219
 4170POPC   NC354959  24.161  13.607   5.420
 4170POPC   PO454960  23.642  13.865   5.231
 4170POPC   GL154961  23.790  13.854   5.686
 4170POPC   GL254962  24.065  14.104   5.741
 4170POPC   C1A54963  23.710  13.779   6.151
 4170POPC   D2A54964  23.908  13.709   6.577
 4170POPC   C3A54965  23.620  13.712   6.943
 4170POPC   C4A54966  23.259  13.462   7.139
 4170POPC   C1B54967  24.044  14.181   6.220
 4170POPC   C2B54968  23.885  14.228   6.681
 4170POPC   C3B54969  24.042  13.999   7.045
 4170POPC   C4B54970  24.207  13.571   7.002
 4171POPC   NC354971  24.568  16.903   5.480
 4171POPC   PO454972  24.286  16.332   5.315
 4171POPC   GL154973  24.280  16.560   5.747
 4171POPC   GL254974  24.520  16.296   5.825
 4171POPC   C1A54975  24.306  16.642   6.245
 4171POPC   D2A54976  24.381  16.882   6.692
 4171POPC   C3A54977  24.341  16.720   7.130
 4171POPC   C4A54978  24.431  16.962   7.525
 4171POPC   C1B54979  24.711  16.318   6.237
 4171POPC   C2B54980  24.771  16.553   6.629
 4171POPC   C3B54981  24.777  16.428   7.074
 4171POPC   C4B54982  24.760  16.585   7.502
 4172POPC   NC354983   0.636  22.623   5.342
 4172POPC   PO454984   0.324  23.210   5.374
 4172POPC   GL154985   0.328  22.897   5.705
 4172POPC   GL254986   0.632  22.931   5.768
 4172POPC   C1A54987   0.185  22.889   6.146
 4172POPC   D2A54988   0.363  22.733   6.541
 4172POPC   C3A54989   0.185  22.746   6.940
 4172POPC   C4A54990   0.319  23.072   7.202
 4172POPC   C1B54991   0.711  22.817   6.159
 4172POPC   C2B54992   0.847  22.870   6.577
 4172POPC   C3B54993   0.725  22.842   6.997
 4172POPC   C4B54994   0.794  23.087   7.391
 4173POPC   NC354995  43.127  13.773   5.216
 4173POPC   PO454996  43.183  14.307   5.433
 4173POPC   GL154997  43.325  14.015   5.802
 4173POPC   GL254998  43.361  13.650   5.819
 4173POPC   C1A54999  43.210  13.894   6.250
 4173POPC   D2A55000  43.263  13.746   6.688
 4173POPC   C3A55001  43.105  13.911   7.107
 4173POPC   C4A55002  43.025  14.092   7.534
 4173POPC   C1B55003  43.500  13.458   6.263
 4173POPC   C2B55004  43.634  13.391   6.708
 4173POPC   C3B55005  43.345  13.418   7.083
 4173POPC   C4B55006  43.257  13.185   7.457
 4174POPC   NC355007  20.566  36.925   5.357
 4174POPC   PO455008  21.154  37.290   5.535
 4174POPC   GL155009  20.762  37.135   5.788
 4174POPC   GL255010  20.653  36.760   5.823
 4174POPC   C1A55011  20.581  37.061   6.220
 4174POPC   D2A55012  20.658  37.283   6.601
 4174POPC   C3A55013  20.591  37.152   7.019
 4174POPC   C4A55014  20.762  37.151   7.421
 4174POPC   C1B55015  20.661  36.541   6.201
 4174POPC   C2B55016  20.665  36.724   6.620
 4174POPC   C3B55017  20.417  36.681   6.978
 4174POPC   C4B55018  20.386  36.807   7.416
 4175POPC   NC355019  35.691  10.774   5.581
 4175POPC   PO455020  35.326  11.259   5.200
 4175POPC   GL155021  35.407  11.198   5.656
 4175POPC   GL255022  35.295  11.462   5.827
 4175POPC   C1A55023  35.489  11.042   6.123
 4175POPC   D2A55024  35.338  11.093   6.564
 4175POPC   C3A55025  35.519  11.005   6.964
 4175POPC   C4A55026  35.714  11.212   7.301
 4175POPC   C1B55027  35.429  11.527   6.262
 4175POPC   C2B55028  35.552  11.636   6.658
 4175POPC   C3B55029  35.412  11.546   7.068
 4175POPC   C4B55030  35.363  11.819   7.426
 4176POPC   NC355031  43.748  19.809   5.301
 4176POPC   PO455032  44.243  20.175   5.431
 4176POPC   GL155033  44.044  19.830   5.731
 4176POPC   GL255034  43.683  19.697   5.793
 4176POPC   C1A55035  44.088  19.571   6.116
 4176POPC   D2A55036  43.967  19.440   6.544
 4176POPC   C3A55037  44.073  19.766   6.849
 4176POPC   C4A55038  44.088  19.810   7.305
 4176POPC   C1B55039  43.571  19.666   6.239
 4176POPC   C2B55040  43.539  19.673   6.702
 4176POPC   C3B55041  43.655  19.628   7.123
 4176POPC   C4B55042  43.579  19.787   7.536
 4177POPC   NC355043  27.724  21.794   5.601
 4177POPC   PO455044  27.417  22.341   5.330
 4177POPC   GL155045  27.618  22.356   5.708
 4177POPC   GL255046  27.978  22.257   5.686
 4177POPC   C1A55047  27.413  22.312   6.107
 4177POPC   D2A55048  27.504  22.451   6.509
 4177POPC   C3A55049  27.398  22.253   6.895
 4177POPC   C4A55050  27.598  22.307   7.256
 4177POPC   C1B55051  27.873  22.070   6.147
 4177POPC   C2B55052  27.732  21.979   6.613
 4177POPC   C3B55053  27.709  21.838   7.094
 4177POPC   C4B55054  27.884  22.016   7.540
 4178POPC   NC355055  20.121  28.171   5.535
 4178POPC   PO455056  19.588  28.493   5.467
 4178POPC   GL155057  19.786  28.428   5.833
 4178POPC   GL255058  19.684  28.098   5.820
 4178POPC   C1A55059  19.988  28.468   6.221
 4178POPC   D2A55060  19.820  28.344   6.608
 4178POPC   C3A55061  19.959  28.563   6.939
 4178POPC   C4A55062  19.877  28.559   7.324
 4178POPC   C1B55063  19.830  27.980   6.234
 4178POPC   C2B55064  19.999  27.874   6.659
 4178POPC   C3B55065  19.977  28.047   7.079
 4178POPC   C4B55066  19.638  28.131   7.381
 4179POPC   NC355067  36.604   6.080   5.198
 4179POPC   PO455068  37.132   5.601   5.349
 4179POPC   GL155069  36.864   5.817   5.634
 4179POPC   GL255070  37.065   6.064   5.786
 4179POPC   C1A55071  36.785   5.766   6.095
 4179POPC   D2A55072  36.945   5.842   6.518
 4179POPC   C3A55073  36.803   5.683   6.894
 4179POPC   C4A55074  36.930   5.792   7.286
 4179POPC   C1B55075  36.959   6.245   6.164
 4179POPC   C2B55076  37.000   6.353   6.567
 4179POPC   C3B55077  37.010   6.168   6.944
 4179POPC   C4B55078  36.710   6.237   7.254
 4180POPC   NC355079  16.198   8.462   5.399
 4180POPC   PO455080  15.796   7.871   5.408
 4180POPC   GL155081  15.957   8.119   5.770
 4180POPC   GL255082  16.264   8.255   5.868
 4180POPC   C1A55083  15.865   8.385   6.164
 4180POPC   D2A55084  15.769   8.513   6.577
 4180POPC   C3A55085  16.042   8.387   6.887
 4180POPC   C4A55086  15.798   8.341   7.234
 4180POPC   C1B55087  16.103   7.941   6.232
 4180POPC   C2B55088  16.069   7.903   6.692
 4180POPC   C3B55089  16.052   7.894   7.147
 4180POPC   C4B55090  16.349   7.703   7.389
 4181POPC   NC355091  41.070  35.486   5.569
 4181POPC   PO455092  41.726  35.368   5.365
 4181POPC   GL155093  41.552  35.252   5.763
 4181POPC   GL255094  41.297  35.393   6.009
 4181POPC   C1A55095  41.750  35.243   6.151
 4181POPC   D2A55096  41.841  35.349   6.564
 4181POPC   C3A55097  41.782  35.054   6.885
 4181POPC   C4A55098  41.775  35.350   7.232
 4181POPC   C1B55099  41.093  35.786   6.184
 4181POPC   C2B55100  41.224  35.971   6.568
 4181POPC   C3B55101  41.359  35.570   6.790
 4181POPC   C4B55102  41.261  35.399   7.197
 4182POPC   NC355103  10.898  36.443   5.330
 4182POPC   PO455104  10.618  35.813   5.375
 4182POPC   GL155105  10.722  35.967   5.779
 4182POPC   GL255106  10.554  36.232   5.750
 4182POPC   C1A55107  10.712  36.089   6.212
 4182POPC   D2A55108  10.563  35.863   6.534
 4182POPC   C3A55109  10.566  36.041   6.902
 4182POPC   C4A55110  10.416  35.798   7.243
 4182POPC   C1B55111  10.281  36.332   6.092
 4182POPC   C2B55112  10.289  36.298   6.533
 4182POPC   C3B55113  10.162  36.346   6.957
 4182POPC   C4B55114  10.413  36.306   7.315
 4183POPC   NC355115  27.656  33.936   5.276
 4183POPC   PO455116  27.315  33.397   5.437
 4183POPC   GL155117  27.649  33.611   5.663
 4183POPC   GL255118  27.414  33.850   5.739
 4183POPC   C1A55119  27.758  33.714   6.085
 4183POPC   D2A55120  27.885  33.860   6.480
 4183POPC   C3A55121  27.851  33.716   6.886
 4183POPC   C4A55122  27.674  33.831   7.300
 4183POPC   C1B55123  27.419  34.081   6.125
 4183POPC   C2B55124  27.473  34.195   6.558
 4183POPC   C3B55125  27.246  34.129   6.983
 4183POPC   C4B55126  26.974  34.230   7.350
 4184POPC   NC355127  42.614  25.682   5.448
 4184POPC   PO455128  42.406  26.346   5.225
 4184POPC   GL155129  42.328  26.107   5.611
 4184POPC   GL255130  42.010  26.162   5.790
 4184POPC   C1A55131  42.408  25.977   6.039
 4184POPC   D2A55132  42.359  25.810   6.434
 4184POPC   C3A55133  42.660  25.873   6.735
 4184POPC   C4A55134  42.508  26.017   7.107
 4184POPC   C1B55135  42.043  26.376   6.164
 4184POPC   C2B55136  42.294  26.311   6.516
 4184POPC   C3B55137  42.133  26.363   6.919
 4184POPC   C4B55138  41.916  26.535   7.246
 4185POPC   NC355139   0.109   0.680   5.248
 4185POPC   PO455140   0.679   0.464   5.477
 4185POPC   GL155141   0.424   0.383   5.821
 4185POPC   GL255142   0.091   0.352   5.711
 4185POPC   C1A55143   0.398   0.383   6.270
 4185POPC   D2A55144   0.344   0.610   6.630
 4185POPC   C3A55145   0.571   0.573   7.013
 4185POPC   C4A55146   0.725   0.366   7.388
 4185POPC   C1B55147   0.145   0.006   6.050
 4185POPC   C2B55148   0.290  44.939   6.505
 4185POPC   C3B55149   0.256   0.164   6.902
 4185POPC   C4B55150  44.898   0.151   7.174
 4186POPC   NC355151  44.031   4.742   5.361
 4186POPC   PO455152  43.663   5.317   5.486
 4186POPC   GL155153  43.819   4.982   5.799
 4186POPC   GL255154  44.151   4.857   5.849
 4186POPC   C1A55155  43.881   4.914   6.262
 4186POPC   D2A55156  44.074   5.079   6.640
 4186POPC   C3A55157  43.959   4.957   7.034
 4186POPC   C4A55158  43.854   5.189   7.414
 4186POPC   C1B55159  44.364   5.010   6.201
 4186POPC   C2B55160  44.550   4.966   6.582
 4186POPC   C3B55161  44.453   4.745   6.978
 4186POPC   C4B55162  44.282   4.903   7.415
 4187POPC   NC355163  21.683  18.463   5.522
 4187POPC   PO455164  21.056  18.390   5.394
 4187POPC   GL155165  21.209  18.562   5.762
 4187POPC   GL255166  21.298  18.226   5.868
 4187POPC   C1A55167  21.515  18.581   6.137
 4187POPC   D2A55168  21.498  18.247   6.421
 4187POPC   C3A55169  21.577  18.339   6.829
 4187POPC   C4A55170  21.840  18.412   7.160
 4187POPC   C1B55171  21.029  18.358   6.229
 4187POPC   C2B55172  21.047  18.341   6.680
 4187POPC   C3B55173  21.192  18.004   6.934
 4187POPC   C4B55174  21.386  18.139   7.311
 4188POPC   NC355175   1.478  44.094   5.431
 4188POPC   PO455176   0.910  43.729   5.377
 4188POPC   GL155177   1.225  43.758   5.718
 4188POPC   GL255178   1.157  44.061   5.842
 4188POPC   C1A55179   1.253  43.619   6.164
 4188POPC   D2A55180   1.498  43.647   6.578
 4188POPC   C3A55181   1.335  43.770   6.953
 4188POPC   C4A55182   0.980  43.568   7.110
 4188POPC   C1B55183   1.425  44.071   6.212
 4188POPC   C2B55184   1.443  44.170   6.634
 4188POPC   C3B55185   1.588  44.256   7.043
 4188POPC   C4B55186   1.575  44.015   7.404
 4189POPC   NC355187  28.078  23.580   5.157
 4189POPC   PO455188  28.637  23.326   5.455
 4189POPC   GL155189  28.641  23.593   5.812
 4189POPC   GL255190  28.341  23.818   5.771
 4189POPC   C1A55191  28.636  23.698   6.258
 4189POPC   D2A55192  28.792  23.932   6.620
 4189POPC   C3A55193  28.595  23.844   7.048
 4189POPC   C4A55194  28.515  23.629   7.441
 4189POPC   C1B55195  28.213  23.957   6.202
 4189POPC   C2B55196  28.020  24.064   6.598
 4189POPC   C3B55197  28.010  24.044   7.055
 4189POPC   C4B55198  28.312  24.181   7.351
 4190POPC   NC355199   9.898  29.355   5.684
 4190POPC   PO455200   9.938  30.086   5.620
 4190POPC   GL155201   9.700  30.024   5.912
 4190POPC   GL255202   9.557  29.696   5.890
 4190POPC   C1A55203   9.768  30.160   6.280
 4190POPC   D2A55204   9.522  30.298   6.566
 4190POPC   C3A55205   9.560  30.146   6.965
 4190POPC   C4A55206   9.556  30.091   7.376
 4190POPC   C1B55207   9.515  29.738   6.352
 4190POPC   C2B55208   9.844  29.840   6.688
 4190POPC   C3B55209   9.749  29.613   7.084
 4190POPC   C4B55210   9.773  29.671   7.538
 4191POPC   NC355211  42.953  17.884   5.134
 4191POPC   PO455212  43.290  18.430   5.376
 4191POPC   GL155213  43.229  18.407   5.767
 4191POPC   GL255214  42.891  18.415   5.742
 4191POPC   C1A55215  43.268  18.324   6.196
 4191POPC   D2A55216  43.525  18.439   6.558
 4191POPC   C3A55217  43.422  18.328   6.996
 4191POPC   C4A55218  43.459  18.595   7.336
 4191POPC   C1B55219  42.728  18.395   6.137
 4191POPC   C2B55220  42.878  18.346   6.544
 4191POPC   C3B55221  42.733  18.584   6.881
 4191POPC   C4B55222  42.952  18.417   7.208
 4192POPC   NC355223  43.240   7.766   5.312
 4192POPC   PO455224  42.932   7.158   5.401
 4192POPC   GL155225  43.024   7.529   5.718
 4192POPC   GL255226  43.404   7.628   5.786
 4192POPC   C1A55227  43.051   7.576   6.181
 4192POPC   D2A55228  43.250   7.321   6.518
 4192POPC   C3A55229  43.017   7.238   6.904
 4192POPC   C4A55230  42.963   7.363   7.320
 4192POPC   C1B55231  43.666   7.673   6.174
 4192POPC   C2B55232  43.594   7.906   6.572
 4192POPC   C3B55233  43.283   7.739   6.844
 4192POPC   C4B55234  43.352   7.677   7.244
 4193POPC   NC355235  15.537  44.975   5.488
 4193POPC   PO455236  15.048  44.511   5.495
 4193POPC   GL155237  15.309  44.439   5.840
 4193POPC   GL255238  15.174  44.744   5.989
 4193POPC   C1A55239  15.305  44.332   6.288
 4193POPC   D2A55240  15.333  44.509   6.704
 4193POPC   C3A55241  14.940  44.437   6.905
 4193POPC   C4A55242  14.775  44.421   7.332
 4193POPC   C1B55243  15.579  44.809   6.186
 4193POPC   C2B55244  15.706  44.998   6.583
 4193POPC   C3B55245  15.622  44.843   6.979
 4193POPC   C4B55246  15.245  44.739   7.205
 4194POPC   NC355247  43.567   0.924   5.399
 4194POPC   PO455248  44.148   1.367   5.302
 4194POPC   GL155249  43.852   1.329   5.672
 4194POPC   GL255250  43.474   1.413   5.658
 4194POPC   C1A55251  43.975   1.285   6.112
 4194POPC   D2A55252  44.168   1.075   6.466
 4194POPC   C3A55253  43.993   1.243   6.839
 4194POPC   C4A55254  44.095   1.158   7.262
 4194POPC   C1B55255  43.498   1.111   6.028
 4194POPC   C2B55256  43.656   1.041   6.449
 4194POPC   C3B55257  43.610   0.899   6.873
 4194POPC   C4B55258  43.607   1.057   7.288
 4195POPC   NC355259  16.141  16.561   5.438
 4195POPC   PO455260  16.729  16.698   5.447
 4195POPC   GL155261  16.448  16.778   5.802
 4195POPC   GL255262  16.402  17.116   5.902
 4195POPC   C1A55263  16.505  16.741   6.236
 4195POPC   D2A55264  16.703  16.959   6.563
 4195POPC   C3A55265  16.580  16.884   6.998
 4195POPC   C4A55266  16.812  16.868   7.378
 4195POPC   C1B55267  16.329  17.241   6.335
 4195POPC   C2B55268  16.376  17.291   6.774
 4195POPC   C3B55269  16.115  17.117   7.088
 4195POPC   C4B55270  16.288  16.916   7.432
 4196POPC   NC355271  18.306  21.695   5.417
 4196POPC   PO455272  18.758  21.160   5.396
 4196POPC   GL155273  18.462  21.213   5.755
 4196POPC   GL255274  18.116  21.344   5.774
 4196POPC   C1A55275  18.377  21.196   6.202
 4196POPC   D2A55276  18.105  21.173   6.588
 4196POPC   C3A55277  18.237  21.273   7.015
 4196POPC   C4A55278  18.227  21.149   7.459
 4196POPC   C1B55279  18.094  21.617   6.120
 4196POPC   C2B55280  17.886  21.641   6.512
 4196POPC   C3B55281  17.756  21.716   6.916
 4196POPC   C4B55282  17.923  21.594   7.273
 4197POPC   NC355283   6.797  33.057   5.485
 4197POPC   PO455284   6.179  32.789   5.480
 4197POPC   GL155285   6.491  32.748   5.812
 4197POPC   GL255286   6.518  33.109   5.910
 4197POPC   C1A55287   6.643  32.784   6.267
 4197POPC   D2A55288   6.526  33.163   6.485
 4197POPC   C3A55289   6.382  33.090   6.915
 4197POPC   C4A55290   6.504  32.754   7.175
 4197POPC   C1B55291   6.922  33.214   6.113
 4197POPC   C2B55292   7.133  33.086   6.466
 4197POPC   C3B55293   6.895  33.056   6.840
 4197POPC   C4B55294   6.793  33.159   7.251
 4198POPC   NC355295  18.050   6.844   5.378
 4198POPC   PO455296  18.509   6.408   5.425
 4198POPC   GL155297  18.300   6.604   5.776
 4198POPC   GL255298  18.454   6.928   5.790
 4198POPC   C1A55299  18.280   6.536   6.243
 4198POPC   D2A55300  18.024   6.400   6.635
 4198POPC   C3A55301  18.225   6.440   7.035
 4198POPC   C4A55302  18.473   6.799   7.184
 4198POPC   C1B55303  18.090   7.006   6.038
 4198POPC   C2B55304  17.990   6.915   6.463
 4198POPC   C3B55305  17.982   6.893   6.890
 4198POPC   C4B55306  17.989   6.943   7.322
 4199POPC   NC355307   4.722  17.846   5.596
 4199POPC   PO455308   4.394  18.310   5.180
 4199POPC   GL155309   4.370  18.268   5.641
 4199POPC   GL255310   4.596  18.487   5.845
 4199POPC   C1A55311   4.216  18.237   6.089
 4199POPC   D2A55312   4.454  18.313   6.473
 4199POPC   C3A55313   4.279  18.248   6.878
 4199POPC   C4A55314   4.593  18.163   7.204
 4199POPC   C1B55315   4.408  18.748   6.193
 4199POPC   C2B55316   4.336  18.792   6.656
 4199POPC   C3B55317   4.462  18.665   7.095
 4199POPC   C4B55318   4.324  18.476   7.530
 4200POPC   NC355319  13.801  27.675   5.493
 4200POPC   PO455320  14.463  27.423   5.380
 4200POPC   GL155321  14.480  27.485   5.812
 4200POPC   GL255322  14.141  27.338   5.811
 4200POPC   C1A55323  14.669  27.566   6.252
 4200POPC   D2A55324  14.492  27.468   6.683
 4200POPC   C3A55325  14.466  27.785   7.030
 4200POPC   C4A55326  14.728  28.018   7.338
 4200POPC   C1B55327  14.157  27.546   6.241
 4200POPC   C2B55328  14.022  27.651   6.697
 4200POPC   C3B55329  13.956  27.917   7.086
 4200POPC   C4B55330  14.195  27.970   7.464
 4201POPC   NC355331   1.280   8.174   5.424
 4201POPC   PO455332   0.829   8.664   5.675
 4201POPC   GL155333   1.200   8.473   5.857
 4201POPC   GL255334   1.465   8.205   5.891
 4201POPC   C1A55335   1.191   8.373   6.286
 4201POPC   D2A55336   1.297   8.338   6.702
 4201POPC   C3A55337   1.061   8.448   7.014
 4201POPC   C4A55338   1.024   8.179   7.318
 4201POPC   C1B55339   1.333   7.876   6.177
 4201POPC   C2B55340   1.317   7.754   6.622
 4201POPC   C3B55341   1.318   7.876   7.043
 4201POPC   C4B55342   1.265   7.751   7.471
 4202POPC   NC355343  17.879   3.076   5.592
 4202POPC   PO455344  18.319   2.766   5.149
 4202POPC   GL155345  18.283   2.714   5.635
 4202POPC   GL255346  18.640   2.787   5.709
 4202POPC   C1A55347  18.288   2.809   6.119
 4202POPC   D2A55348  18.342   2.574   6.544
 4202POPC   C3A55349  18.189   2.615   6.992
 4202POPC   C4A55350  17.995   2.983   7.198
 4202POPC   C1B55351  18.817   2.913   6.127
 4202POPC   C2B55352  18.757   2.951   6.586
 4202POPC   C3B55353  18.527   3.011   6.981
 4202POPC   C4B55354  18.455   2.883   7.420
 4203POPC   NC355355   9.893  27.212   5.405
 4203POPC   PO455356   9.501  27.679   5.378
 4203POPC   GL155357   9.765  27.659   5.758
 4203POPC   GL255358   9.469  27.815   5.900
 4203POPC   C1A55359  10.064  27.464   6.121
 4203POPC   D2A55360   9.965  27.309   6.547
 4203POPC   C3A55361  10.166  27.406   6.966
 4203POPC   C4A55362  10.265  27.765   7.239
 4203POPC   C1B55363   9.740  27.819   6.260
 4203POPC   C2B55364   9.911  27.830   6.671
 4203POPC   C3B55365   9.776  27.843   7.075
 4203POPC   C4B55366   9.444  27.783   7.343
 4204POPC   NC355367  32.584   5.713   5.473
 4204POPC   PO455368  32.061   5.822   5.360
 4204POPC   GL155369  32.141   5.876   5.806
 4204POPC   GL255370  32.464   6.000   5.877
 4204POPC   C1A55371  32.078   6.154   6.170
 4204POPC   D2A55372  32.222   6.308   6.571
 4204POPC   C3A55373  32.017   6.158   6.927
 4204POPC   C4A55374  32.231   6.001   7.270
 4204POPC   C1B55375  32.447   5.854   6.321
 4204POPC   C2B55376  32.458   5.893   6.773
 4204POPC   C3B55377  32.561   5.648   7.147
 4204POPC   C4B55378  32.855   5.739   7.479
 4205POPC   NC355379  21.540   0.811   5.269
 4205POPC   PO455380  20.984   0.429   5.167
 4205POPC   GL155381  21.235   0.502   5.566
 4205POPC   GL255382  21.170   0.223   5.864
 4205POPC   C1A55383  21.413   0.653   5.962
 4205POPC   D2A55384  21.153   0.515   6.344
 4205POPC   C3A55385  21.288   0.527   6.812
 4205POPC   C4A55386  21.269   0.332   7.248
 4205POPC   C1B55387  21.582   0.170   6.118
 4205POPC   C2B55388  21.751   0.003   6.542
 4205POPC   C3B55389  21.588   0.002   6.983
 4205POPC   C4B55390  21.738   0.172   7.385
 4206POPC   NC355391  16.247  41.058   5.048
 4206POPC   PO455392  15.903  40.517   5.282
 4206POPC   GL155393  15.885  40.588   5.765
 4206POPC   GL255394  15.614  40.831   5.910
 4206POPC   C1A55395  15.908  40.483   6.181
 4206POPC   D2A55396  15.847  40.667   6.574
 4206POPC   C3A55397  16.076  40.655   6.945
 4206POPC   C4A55398  15.852  40.740   7.339
 4206POPC   C1B55399  15.563  41.204   6.193
 4206POPC   C2B55400  15.447  41.207   6.623
 4206POPC   C3B55401  15.687  41.020   6.942
 4206POPC   C4B55402  15.851  41.236   7.307
 4207POPC   NC355403  38.277  29.118   5.302
 4207POPC   PO455404  38.979  28.938   5.399
 4207POPC   GL155405  38.643  28.991   5.744
 4207POPC   GL255406  38.269  28.903   5.775
 4207POPC   C1A55407  38.609  28.869   6.202
 4207POPC   D2A55408  38.589  29.050   6.588
 4207POPC   C3A55409  38.794  28.962   6.972
 4207POPC   C4A55410  38.793  29.256   7.270
 4207POPC   C1B55411  38.242  29.236   6.112
 4207POPC   C2B55412  38.097  29.222   6.540
 4207POPC   C3B55413  38.303  29.322   6.915
 4207POPC   C4B55414  38.307  29.220   7.316
 4208POPC   NC355415  19.556   3.384   5.447
 4208POPC   PO455416  20.103   3.616   5.425
 4208POPC   GL155417  19.915   3.523   5.808
 4208POPC   GL255418  19.673   3.759   5.811
 4208POPC   C1A55419  19.775   3.236   6.128
 4208POPC   D2A55420  19.677   3.380   6.546
 4208POPC   C3A55421  19.933   3.519   6.880
 4208POPC   C4A55422  19.832   3.391   7.265
 4208POPC   C1B55423  19.477   3.664   6.176
 4208POPC   C2B55424  19.285   3.732   6.566
 4208POPC   C3B55425  19.442   3.686   6.976
 4208POPC   C4B55426  19.520   3.788   7.402
 4209POPC   NC355427  11.951   7.299   5.529
 4209POPC   PO455428  12.632   7.386   5.510
 4209POPC   GL155429  12.335   7.459   5.848
 4209POPC   GL255430  12.182   7.099   5.931
 4209POPC   C1A55431  12.239   7.462   6.288
 4209POPC   D2A55432  12.295   7.126   6.599
 4209POPC   C3A55433  12.216   7.275   7.010
 4209POPC   C4A55434  12.129   7.629   7.259
 4209POPC   C1B55435  11.893   6.949   6.257
 4209POPC   C2B55436  11.740   6.852   6.676
 4209POPC   C3B55437  11.874   6.882   7.125
 4209POPC   C4B55438  11.929   7.194   7.451
 4210POPC   NC355439  19.638  23.986   5.452
 4210POPC   PO455440  20.055  23.482   5.265
 4210POPC   GL155441  20.024  23.809   5.711
 4210POPC   GL255442  19.651  23.726   5.876
 4210POPC   C1A55443  20.022  23.813   6.224
 4210POPC   D2A55444  20.179  23.618   6.628
 4210POPC   C3A55445  20.023  23.670   7.031
 4210POPC   C4A55446  19.903  24.041   7.215
 4210POPC   C1B55447  19.353  23.396   6.024
 4210POPC   C2B55448  19.386  23.341   6.448
 4210POPC   C3B55449  19.617  23.486   6.781
 4210POPC   C4B55450  19.579  23.376   7.223
 4211POPC   NC355451  17.058  39.747   5.370
 4211POPC   PO455452  17.504  40.250   5.372
 4211POPC   GL155453  17.312  40.079   5.756
 4211POPC   GL255454  17.077  40.325   5.903
 4211POPC   C1A55455  17.517  40.125   6.181
 4211POPC   D2A55456  17.468  39.961   6.604
 4211POPC   C3A55457  17.605  40.280   6.908
 4211POPC   C4A55458  17.789  40.223   7.312
 4211POPC   C1B55459  17.040  40.017   6.255
 4211POPC   C2B55460  16.985  39.672   6.556
 4211POPC   C3B55461  17.192  39.627   6.904
 4211POPC   C4B55462  17.439  39.872   7.161
 4212POPC   NC355463   4.380  41.918   4.937
 4212POPC   PO455464   4.099  41.464   5.323
 4212POPC   GL155465   4.205  41.374   5.802
 4212POPC   GL255466   4.533  41.435   5.861
 4212POPC   C1A55467   4.270  41.282   6.260
 4212POPC   D2A55468   4.216  41.569   6.613
 4212POPC   C3A55469   4.477  41.594   6.993
 4212POPC   C4A55470   4.483  41.313   7.382
 4212POPC   C1B55471   4.494  41.778   6.152
 4212POPC   C2B55472   4.529  41.969   6.554
 4212POPC   C3B55473   4.211  42.046   6.825
 4212POPC   C4B55474   4.123  41.891   7.222
 4213POPC   NC355475  16.923   7.881   5.019
 4213POPC   PO455476  16.661   8.372   5.389
 4213POPC   GL155477  16.762   8.177   5.760
 4213POPC   GL255478  17.019   8.412   5.829
 4213POPC   C1A55479  16.604   8.008   6.141
 4213POPC   D2A55480  16.422   8.264   6.493
 4213POPC   C3A55481  16.502   8.115   6.919
 4213POPC   C4A55482  16.732   8.097   7.311
 4213POPC   C1B55483  16.849   8.449   6.217
 4213POPC   C2B55484  16.977   8.552   6.601
 4213POPC   C3B55485  16.964   8.387   6.961
 4213POPC   C4B55486  17.051   8.516   7.331
 4214POPC   NC355487  44.615   1.132   5.251
 4214POPC   PO455488  44.691   0.474   5.326
 4214POPC   GL155489  44.587   0.270   5.728
 4214POPC   GL255490  44.417   0.555   5.816
 4214POPC   C1A55491  44.758   0.316   6.134
 4214POPC   D2A55492  44.864   0.196   6.523
 4214POPC   C3A55493  44.873   0.516   6.792
 4214POPC   C4A55494  44.585   0.521   7.078
 4214POPC   C1B55495  44.266   0.390   6.208
 4214POPC   C2B55496  44.373   0.415   6.633
 4214POPC   C3B55497  44.146   0.264   7.022
 4214POPC   C4B55498  43.859  44.998   7.267
 4215POPC   NC355499  22.030  35.726   5.174
 4215POPC   PO455500  21.835  36.360   5.231
 4215POPC   GL155501  21.957  36.223   5.664
 4215POPC   GL255502  21.798  36.472   5.859
 4215POPC   C1A55503  22.153  35.999   6.072
 4215POPC   D2A55504  22.430  35.881   6.460
 4215POPC   C3A55505  22.457  36.059   6.894
 4215POPC   C4A55506  22.207  36.028   7.282
 4215POPC   C1B55507  22.030  36.465   6.246
 4215POPC   C2B55508  22.019  36.242   6.664
 4215POPC   C3B55509  21.764  36.311   7.025
 4215POPC   C4B55510  21.774  36.312   7.478
 4216POPC   NC355511   8.356   0.826   5.489
 4216POPC   PO455512   8.382   1.461   5.430
 4216POPC   GL155513   8.263   1.438   5.855
 4216POPC   GL255514   8.278   1.095   5.913
 4216POPC   C1A55515   8.222   1.376   6.333
 4216POPC   D2A55516   8.498   1.348   6.695
 4216POPC   C3A55517   8.224   1.412   7.039
 4216POPC   C4A55518   8.219   1.351   7.456
 4216POPC   C1B55519   8.536   0.979   6.264
 4216POPC   C2B55520   8.414   0.826   6.692
 4216POPC   C3B55521   8.470   0.965   7.123
 4216POPC   C4B55522   8.582   1.041   7.561
 4217POPC   NC355523  13.727   7.241   5.018
 4217POPC   PO455524  13.448   7.625   5.528
 4217POPC   GL155525  13.666   7.471   5.873
 4217POPC   GL255526  13.618   7.128   5.975
 4217POPC   C1A55527  13.821   7.515   6.281
 4217POPC   D2A55528  13.840   7.829   6.601
 4217POPC   C3A55529  13.929   7.643   7.011
 4217POPC   C4A55530  14.003   7.311   7.261
 4217POPC   C1B55531  13.342   7.343   6.274
 4217POPC   C2B55532  13.501   7.412   6.703
 4217POPC   C3B55533  13.543   7.147   7.063
 4217POPC   C4B55534  13.326   7.036   7.470
 4218POPC   NC355535  14.192   5.504   5.509
 4218POPC   PO455536  14.636   4.996   5.365
 4218POPC   GL155537  14.499   4.950   5.792
 4218POPC   GL255538  14.318   5.230   5.918
 4218POPC   C1A55539  14.414   4.796   6.200
 4218POPC   D2A55540  14.278   4.999   6.583
 4218POPC   C3A55541  14.604   4.964   6.890
 4218POPC   C4A55542  14.672   5.017   7.314
 4218POPC   C1B55543  14.447   5.408   6.291
 4218POPC   C2B55544  14.321   5.538   6.687
 4218POPC   C3B55545  14.356   5.376   7.088
 4218POPC   C4B55546  14.654   5.546   7.324
 4219POPC   NC355547  31.078  39.214   5.499
 4219POPC   PO455548  31.649  39.335   5.442
 4219POPC   GL155549  31.601  39.262   5.866
 4219POPC   GL255550  31.296  39.083   5.951
 4219POPC   C1A55551  31.609  39.357   6.287
 4219POPC   D2A55552  31.402  39.262   6.642
 4219POPC   C3A55553  31.740  39.323   6.907
 4219POPC   C4A55554  31.775  39.354   7.344
 4219POPC   C1B55555  31.158  39.519   6.105
 4219POPC   C2B55556  31.177  39.781   6.488
 4219POPC   C3B55557  31.257  39.665   6.930
 4219POPC   C4B55558  31.293  39.293   7.175
 4220POPC   NC355559  23.871  12.653   5.501
 4220POPC   PO455560  23.422  13.182   5.597
 4220POPC   GL155561  23.544  12.796   5.868
 4220POPC   GL255562  23.927  12.786   5.987
 4220POPC   C1A55563  23.572  12.611   6.296
 4220POPC   D2A55564  23.308  12.639   6.654
 4220POPC   C3A55565  23.547  12.760   7.011
 4220POPC   C4A55566  23.874  12.612   7.273
 4220POPC   C1B55567  23.732  13.109   6.266
 4220POPC   C2B55568  23.531  13.175   6.684
 4220POPC   C3B55569  23.697  13.230   7.092
 4220POPC   C4B55570  24.049  13.115   7.195
 4221POPC   NC355571  18.628  20.709   5.364
 4221POPC   PO455572  18.041  20.483   5.559
 4221POPC   GL155573  18.250  20.735   5.809
 4221POPC   GL255574  18.531  20.475   5.809
 4221POPC   C1A55575  18.043  20.825   6.204
 4221POPC   D2A55576  17.966  20.610   6.598
 4221POPC   C3A55577  18.073  20.785   6.994
 4221POPC   C4A55578  18.104  20.427   7.247
 4221POPC   C1B55579  18.659  20.772   6.120
 4221POPC   C2B55580  18.455  20.774   6.525
 4221POPC   C3B55581  18.442  20.459   6.846
 4221POPC   C4B55582  18.578  20.636   7.220
 4222POPC   NC355583   4.941   8.170   5.220
 4222POPC   PO455584   5.270   7.830   5.738
 4222POPC   GL155585   5.214   8.263   5.838
 4222POPC   GL255586   4.890   8.282   5.744
 4222POPC   C1A55587   5.304   8.264   6.263
 4222POPC   D2A55588   5.153   8.068   6.642
 4222POPC   C3A55589   5.338   8.274   7.005
 4222POPC   C4A55590   5.197   8.383   7.396
 4222POPC   C1B55591   4.820   8.117   6.190
 4222POPC   C2B55592   4.713   8.355   6.542
 4222POPC   C3B55593   4.825   8.330   6.926
 4222POPC   C4B55594   4.912   7.996   7.139
 4223POPC   NC355595  28.219   7.980   4.950
 4223POPC   PO455596  28.103   8.307   5.506
 4223POPC   GL155597  28.259   8.021   5.801
 4223POPC   GL255598  28.625   8.048   5.861
 4223POPC   C1A55599  28.257   7.877   6.242
 4223POPC   D2A55600  28.366   8.023   6.675
 4223POPC   C3A55601  28.352   8.097   7.149
 4223POPC   C4A55602  28.042   8.178   7.496
 4223POPC   C1B55603  28.435   8.362   6.174
 4223POPC   C2B55604  28.447   8.548   6.612
 4223POPC   C3B55605  28.353   8.620   7.072
 4223POPC   C4B55606  28.438   8.511   7.506
 4224POPC   NC355607  44.063   5.578   5.609
 4224POPC   PO455608  44.089   6.091   5.136
 4224POPC   GL155609  43.684   5.960   5.549
 4224POPC   GL255610  43.450   5.682   5.752
 4224POPC   C1A55611  43.612   6.007   6.072
 4224POPC   D2A55612  43.890   6.056   6.455
 4224POPC   C3A55613  43.706   5.943   6.851
 4224POPC   C4A55614  43.751   5.869   7.276
 4224POPC   C1B55615  43.674   5.484   6.137
 4224POPC   C2B55616  43.850   5.538   6.541
 4224POPC   C3B55617  43.911   5.466   6.970
 4224POPC   C4B55618  44.151   5.568   7.337
 4225POPC   NC355619  39.325   0.678   5.324
 4225POPC   PO455620  39.615   0.080   5.307
 4225POPC   GL155621  39.512   0.329   5.715
 4225POPC   GL255622  39.271   0.640   5.820
 4225POPC   C1A55623  39.528   0.397   6.174
 4225POPC   D2A55624  39.299   0.236   6.528
 4225POPC   C3A55625  39.423   0.372   6.959
 4225POPC   C4A55626  39.254   0.282   7.388
 4225POPC   C1B55627  39.048   0.660   6.221
 4225POPC   C2B55628  38.972   0.899   6.591
 4225POPC   C3B55629  38.893   0.842   7.041
 4225POPC   C4B55630  38.914   1.029   7.488
 4226POPC   NC355631  44.918  42.810   5.368
 4226POPC   PO455632  44.367  43.104   5.406
 4226POPC   GL155633  44.581  43.152   5.807
 4226POPC   GL255634  44.478  42.822   5.817
 4226POPC   C1A55635  44.777  43.337   6.233
 4226POPC   D2A55636  44.869  43.512   6.684
 4226POPC   C3A55637  44.676  43.304   7.039
 4226POPC   C4A55638  44.278  43.165   7.149
 4226POPC   C1B55639  44.630  42.835   6.236
 4226POPC   C2B55640  44.757  42.978   6.639
 4226POPC   C3B55641  44.839  42.771   7.028
 4226POPC   C4B55642  44.588  42.769   7.380
 4227POPC   NC355643  36.465   7.692   5.104
 4227POPC   PO455644  36.108   8.092   5.490
 4227POPC   GL155645  36.350   8.192   5.851
 4227POPC   GL255646  36.344   8.579   5.894
 4227POPC   C1A55647  36.346   7.988   6.266
 4227POPC   D2A55648  36.121   7.861   6.643
 4227POPC   C3A55649  36.347   8.073   6.997
 4227POPC   C4A55650  36.278   8.508   7.165
 4227POPC   C1B55651  36.048   8.408   6.206
 4227POPC   C2B55652  36.026   8.362   6.668
 4227POPC   C3B55653  35.708   8.580   6.904
 4227POPC   C4B55654  35.824   8.798   7.244
 4228POPC   NC355655  32.135   6.262   5.471
 4228POPC   PO455656  32.317   6.858   5.238
 4228POPC   GL155657  32.062   6.758   5.600
 4228POPC   GL255658  32.243   6.994   5.784
 4228POPC   C1A55659  32.015   6.632   6.056
 4228POPC   D2A55660  32.100   6.800   6.476
 4228POPC   C3A55661  32.013   6.661   6.893
 4228POPC   C4A55662  32.313   6.491   7.175
 4228POPC   C1B55663  32.475   6.933   6.166
 4228POPC   C2B55664  32.628   6.749   6.562
 4228POPC   C3B55665  32.567   6.928   6.971
 4228POPC   C4B55666  32.215   7.094   7.175
 4229POPC   NC355667  23.678   0.271   5.413
 4229POPC   PO455668  23.771   0.929   5.471
 4229POPC   GL155669  23.651   0.634   5.787
 4229POPC   GL255670  23.958   0.450   5.800
 4229POPC   C1A55671  23.557   0.390   6.157
 4229POPC   D2A55672  23.579   0.133   6.523
 4229POPC   C3A55673  23.327   0.245   6.876
 4229POPC   C4A55674  23.489   0.247   7.320
 4229POPC   C1B55675  24.012   0.587   6.213
 4229POPC   C2B55676  23.855   0.638   6.613
 4229POPC   C3B55677  23.817   0.391   6.941
 4229POPC   C4B55678  23.961   0.515   7.312
 4230POPC   NC355679  22.218   1.260   5.438
 4230POPC   PO455680  21.948   0.609   5.328
 4230POPC   GL155681  21.863   0.962   5.712
 4230POPC   GL255682  21.796   1.362   5.739
 4230POPC   C1A55683  22.079   1.185   6.119
 4230POPC   D2A55684  22.297   1.298   6.529
 4230POPC   C3A55685  22.139   1.176   6.930
 4230POPC   C4A55686  22.263   1.011   7.352
 4230POPC   C1B55687  21.833   1.654   6.132
 4230POPC   C2B55688  21.985   1.685   6.627
 4230POPC   C3B55689  21.890   1.634   7.077
 4230POPC   C4B55690  21.776   1.209   7.288
 4231POPC   NC355691  19.337   0.127   5.517
 4231POPC   PO455692  19.666   0.689   5.251
 4231POPC   GL155693  19.757   0.580   5.780
 4231POPC   GL255694  20.037   0.380   5.917
 4231POPC   C1A55695  19.631   0.519   6.269
 4231POPC   D2A55696  19.623   0.271   6.671
 4231POPC   C3A55697  19.854   0.441   7.049
 4231POPC   C4A55698  20.055   0.462   7.465
 4231POPC   C1B55699  19.989   0.159   6.320
 4231POPC   C2B55700  20.126   0.115   6.749
 4231POPC   C3B55701  20.025  44.986   7.190
 4231POPC   C4B55702  20.205  44.972   7.636
 4232POPC   NC355703  30.355  32.931   5.557
 4232POPC   PO455704  30.966  32.705   5.665
 4232POPC   GL155705  30.718  32.955   5.937
 4232POPC   GL255706  30.725  33.305   5.805
 4232POPC   C1A55707  30.404  32.804   6.243
 4232POPC   D2A55708  30.441  32.663   6.666
 4232POPC   C3A55709  30.742  32.924   6.901
 4232POPC   C4A55710  30.871  32.800   7.287
 4232POPC   C1B55711  30.528  33.352   6.233
 4232POPC   C2B55712  30.389  33.227   6.665
 4232POPC   C3B55713  30.458  33.331   7.129
 4232POPC   C4B55714  30.409  33.496   7.575
 4233POPC   NC355715  29.506  42.160   5.260
 4233POPC   PO455716  28.738  42.176   5.166
 4233POPC   GL155717  28.943  42.343   5.631
 4233POPC   GL255718  28.916  42.076   5.879
 4233POPC   C1A55719  29.246  42.413   6.073
 4233POPC   D2A55720  29.223  42.236   6.563
 4233POPC   C3A55721  29.419  42.319   6.983
 4233POPC   C4A55722  29.527  42.238   7.424
 4233POPC   C1B55723  28.815  42.268   6.267
 4233POPC   C2B55724  28.728  42.357   6.709
 4233POPC   C3B55725  28.960  42.109   7.038
 4233POPC   C4B55726  29.022  42.135   7.480
 4234POPC   NC355727   5.200  12.409   5.433
 4234POPC   PO455728   4.542  12.122   5.192
 4234POPC   GL155729   4.883  12.042   5.581
 4234POPC   GL255730   4.854  12.320   5.831
 4234POPC   C1A55731   5.066  11.938   6.074
 4234POPC   D2A55732   4.951  11.820   6.531
 4234POPC   C3A55733   5.119  11.673   6.941
 4234POPC   C4A55734   5.087  11.858   7.365
 4234POPC   C1B55735   5.115  12.462   6.167
 4234POPC   C2B55736   5.179  12.287   6.572
 4234POPC   C3B55737   4.979  12.171   6.958
 4234POPC   C4B55738   4.916  12.382   7.347
 4235POPC   NC355739  21.642  27.964   5.382
 4235POPC   PO455740  21.100  28.296   5.286
 4235POPC   GL155741  21.194  28.455   5.719
 4235POPC   GL255742  21.532  28.471   5.867
 4235POPC   C1A55743  21.103  28.367   6.149
 4235POPC   D2A55744  21.093  28.583   6.525
 4235POPC   C3A55745  21.467  28.527   6.775
 4235POPC   C4A55746  21.444  28.452   7.212
 4235POPC   C1B55747  21.537  28.072   6.112
 4235POPC   C2B55748  21.694  28.045   6.537
 4235POPC   C3B55749  21.505  27.973   6.933
 4235POPC   C4B55750  21.682  28.004   7.315
 4236POPC   NC355751  42.130  18.671   5.373
 4236POPC   PO455752  42.623  18.226   5.319
 4236POPC   GL155753  42.373  18.270   5.735
 4236POPC   GL255754  42.063  18.473   5.834
 4236POPC   C1A55755  42.229  18.144   6.166
 4236POPC   D2A55756  42.377  18.272   6.535
 4236POPC   C3A55757  42.258  18.087   6.869
 4236POPC   C4A55758  42.472  18.163   7.218
 4236POPC   C1B55759  42.266  18.654   6.194
 4236POPC   C2B55760  42.206  18.747   6.624
 4236POPC   C3B55761  42.233  18.588   7.065
 4236POPC   C4B55762  42.231  18.509   7.539
 4237POPC   NC355763  42.559  38.908   5.513
 4237POPC   PO455764  42.149  38.348   5.572
 4237POPC   GL155765  42.364  38.581   5.902
 4237POPC   GL255766  42.238  38.936   5.899
 4237POPC   C1A55767  42.583  38.349   6.244
 4237POPC   D2A55768  42.501  38.378   6.688
 4237POPC   C3A55769  42.409  38.093   6.980
 4237POPC   C4A55770  42.459  38.212   7.426
 4237POPC   C1B55771  42.077  38.868   6.301
 4237POPC   C2B55772  42.162  38.754   6.705
 4237POPC   C3B55773  42.276  38.599   7.101
 4237POPC   C4B55774  41.914  38.776   7.241
 4238POPC   NC355775  16.345   5.941   5.424
 4238POPC   PO455776  16.860   5.654   5.203
 4238POPC   GL155777  16.694   5.656   5.648
 4238POPC   GL255778  16.999   5.685   5.783
 4238POPC   C1A55779  16.541   5.801   6.106
 4238POPC   D2A55780  16.675   6.034   6.538
 4238POPC   C3A55781  16.561   5.958   7.006
 4238POPC   C4A55782  16.347   5.890   7.450
 4238POPC   C1B55783  17.053   5.897   6.168
 4238POPC   C2B55784  17.160   5.885   6.593
 4238POPC   C3B55785  17.065   6.044   6.984
 4238POPC   C4B55786  17.079   5.763   7.305
 4239POPC   NC355787  44.185  32.930   5.592
 4239POPC   PO455788  43.704  32.583   5.325
 4239POPC   GL155789  43.622  32.843   5.700
 4239POPC   GL255790  43.743  33.183   5.723
 4239POPC   C1A55791  43.769  32.784   6.128
 4239POPC   D2A55792  44.085  33.076   6.339
 4239POPC   C3A55793  44.110  33.072   6.824
 4239POPC   C4A55794  43.996  32.697   7.077
 4239POPC   C1B55795  43.626  33.283   6.143
 4239POPC   C2B55796  43.523  33.482   6.514
 4239POPC   C3B55797  43.736  33.425   6.894
 4239POPC   C4B55798  43.821  33.210   7.279
 4240POPC   NC355799  21.064  41.937   5.339
 4240POPC   PO455800  21.470  41.373   5.390
 4240POPC   GL155801  21.322  41.647   5.732
 4240POPC   GL255802  21.207  41.376   5.957
 4240POPC   C1A55803  21.463  41.797   6.145
 4240POPC   D2A55804  21.283  41.673   6.522
 4240POPC   C3A55805  21.527  41.697   6.899
 4240POPC   C4A55806  21.361  41.728   7.325
 4240POPC   C1B55807  21.626  41.301   6.155
 4240POPC   C2B55808  21.890  41.479   6.495
 4240POPC   C3B55809  21.948  41.300   6.904
 4240POPC   C4B55810  21.664  41.314   7.240
 4241POPC   NC355811   0.045  16.607   5.236
 4241POPC   PO455812   0.635  16.501   5.522
 4241POPC   GL155813   0.572  16.760   5.861
 4241POPC   GL255814   0.322  17.038   5.837
 4241POPC   C1A55815   0.746  16.647   6.236
 4241POPC   D2A55816   0.529  16.588   6.613
 4241POPC   C3A55817   0.735  16.426   6.972
 4241POPC   C4A55818   0.494  16.404   7.332
 4241POPC   C1B55819   0.609  17.145   6.226
 4241POPC   C2B55820   0.775  17.040   6.603
 4241POPC   C3B55821   0.581  16.967   6.974
 4241POPC   C4B55822   0.360  17.300   7.172
 4242POPC   NC355823  13.830   7.142   5.519
 4242POPC   PO455824  13.618   6.548   5.280
 4242POPC   GL155825  13.710   6.455   5.687
 4242POPC   GL255826  13.852   6.713   5.780
 4242POPC   C1A55827  13.604   6.416   6.124
 4242POPC   D2A55828  13.630   6.602   6.549
 4242POPC   C3A55829  13.515   6.385   6.942
 4242POPC   C4A55830  13.650   6.662   7.245
 4242POPC   C1B55831  13.972   6.810   6.185
 4242POPC   C2B55832  14.135   6.907   6.566
 4242POPC   C3B55833  13.994   6.923   6.955
 4242POPC   C4B55834  14.130   6.821   7.365
 4243POPC   NC355835  37.836  29.763   5.044
 4243POPC   PO455836  37.458  30.092   5.515
 4243POPC   GL155837  37.573  29.964   5.929
 4243POPC   GL255838  37.914  29.881   5.844
 4243POPC   C1A55839  37.597  29.996   6.379
 4243POPC   D2A55840  37.267  30.020   6.703
 4243POPC   C3A55841  37.387  29.958   7.093
 4243POPC   C4A55842  37.505  29.624   7.292
 4243POPC   C1B55843  38.139  29.792   6.228
 4243POPC   C2B55844  38.091  29.728   6.660
 4243POPC   C3B55845  37.873  29.878   6.977
 4243POPC   C4B55846  37.855  30.017   7.379
 4244POPC   NC355847  12.698  35.786   5.206
 4244POPC   PO455848  13.192  35.344   5.398
 4244POPC   GL155849  12.935  35.510   5.758
 4244POPC   GL255850  12.649  35.744   5.773
 4244POPC   C1A55851  12.790  35.410   6.170
 4244POPC   D2A55852  12.603  35.445   6.562
 4244POPC   C3A55853  12.596  35.175   6.912
 4244POPC   C4A55854  12.571  35.335   7.289
 4244POPC   C1B55855  12.890  35.897   6.160
 4244POPC   C2B55856  13.037  35.725   6.536
 4244POPC   C3B55857  12.938  35.591   6.963
 4244POPC   C4B55858  13.142  35.718   7.339
 4245POPC   NC355859   0.621  11.667   5.232
 4245POPC   PO455860   0.347  12.215   5.311
 4245POPC   GL155861   0.388  11.942   5.655
 4245POPC   GL255862   0.695  11.921   5.762
 4245POPC   C1A55863   0.192  12.020   6.059
 4245POPC   D2A55864   0.254  12.275   6.425
 4245POPC   C3A55865   0.333  12.048   6.794
 4245POPC   C4A55866   0.478  11.851   7.165
 4245POPC   C1B55867   0.686  12.166   6.145
 4245POPC   C2B55868   0.788  12.226   6.605
 4245POPC   C3B55869   0.673  12.357   7.057
 4245POPC   C4B55870   0.654  12.186   7.481
 4246POPC   NC355871  39.926  22.983   5.268
 4246POPC   PO455872  40.554  23.048   5.360
 4246POPC   GL155873  40.203  22.959   5.703
 4246POPC   GL255874  39.813  22.982   5.769
 4246POPC   C1A55875  40.146  22.807   6.137
 4246POPC   D2A55876  40.370  22.919   6.527
 4246POPC   C3A55877  40.188  22.877   6.947
 4246POPC   C4A55878  39.925  22.797   7.311
 4246POPC   C1B55879  39.707  23.224   6.189
 4246POPC   C2B55880  39.686  23.362   6.658
 4246POPC   C3B55881  39.938  23.315   7.068
 4246POPC   C4B55882  39.949  23.288   7.555
 4247POPC   NC355883  14.560  26.224   5.147
 4247POPC   PO455884  14.312  25.614   5.310
 4247POPC   GL155885  14.474  25.925   5.647
 4247POPC   GL255886  14.237  25.922   5.854
 4247POPC   C1A55887  14.606  26.152   6.110
 4247POPC   D2A55888  14.299  26.160   6.441
 4247POPC   C3A55889  14.232  26.118   6.898
 4247POPC   C4A55890  14.460  26.163   7.292
 4247POPC   C1B55891  14.578  25.667   6.083
 4247POPC   C2B55892  14.653  25.791   6.514
 4247POPC   C3B55893  14.523  25.695   6.930
 4247POPC   C4B55894  14.614  25.707   7.372
 4248POPC   NC355895   7.074  32.099   5.411
 4248POPC   PO455896   7.810  32.331   5.274
 4248POPC   GL155897   7.542  32.226   5.670
 4248POPC   GL255898   7.320  32.489   5.701
 4248POPC   C1A55899   7.308  32.191   6.098
 4248POPC   D2A55900   7.175  32.046   6.517
 4248POPC   C3A55901   7.448  32.249   6.811
 4248POPC   C4A55902   7.402  32.326   7.235
 4248POPC   C1B55903   7.116  32.702   6.056
 4248POPC   C2B55904   7.147  32.574   6.502
 4248POPC   C3B55905   7.262  32.708   6.898
 4248POPC   C4B55906   7.014  32.705   7.248
 4249POPC   NC355907  39.676   7.826   5.377
 4249POPC   PO455908  40.184   8.311   5.403
 4249POPC   GL155909  39.917   8.210   5.760
 4249POPC   GL255910  40.035   7.861   5.743
 4249POPC   C1A55911  39.723   8.304   6.207
 4249POPC   D2A55912  39.748   8.059   6.642
 4249POPC   C3A55913  39.845   8.189   7.098
 4249POPC   C4A55914  39.913   8.515   7.446
 4249POPC   C1B55915  40.078   7.961   6.168
 4249POPC   C2B55916  40.208   7.827   6.567
 4249POPC   C3B55917  40.297   7.986   6.969
 4249POPC   C4B55918  40.132   7.822   7.361
 4250POPC   NC355919  39.001   7.851   5.528
 4250POPC   PO455920  38.401   8.006   5.372
 4250POPC   GL155921  38.255   8.248   5.694
 4250POPC   GL255922  38.605   8.255   5.850
 4250POPC   C1A55923  38.169   8.173   6.122
 4250POPC   D2A55924  38.488   8.169   6.396
 4250POPC   C3A55925  38.335   8.090   6.809
 4250POPC   C4A55926  38.226   8.013   7.257
 4250POPC   C1B55927  38.773   8.544   6.168
 4250POPC   C2B55928  38.971   8.608   6.569
 4250POPC   C3B55929  38.831   8.313   6.850
 4250POPC   C4B55930  38.637   8.272   7.185
 4251POPC   NC355931   5.597   7.463   5.482
 4251POPC   PO455932   5.012   7.692   5.258
 4251POPC   GL155933   5.075   7.344   5.666
 4251POPC   GL255934   5.404   7.271   5.903
 4251POPC   C1A55935   4.986   7.380   6.155
 4251POPC   D2A55936   5.233   7.556   6.496
 4251POPC   C3A55937   5.028   7.588   6.879
 4251POPC   C4A55938   5.003   7.506   7.322
 4251POPC   C1B55939   5.400   7.074   6.352
 4251POPC   C2B55940   5.264   7.133   6.819
 4251POPC   C3B55941   5.265   7.055   7.295
 4251POPC   C4B55942   5.264   6.898   7.740
 4252POPC   NC355943  31.376  42.420   5.444
 4252POPC   PO455944  31.947  42.064   5.560
 4252POPC   GL155945  31.621  42.206   5.852
 4252POPC   GL255946  31.690  42.568   5.840
 4252POPC   C1A55947  31.350  42.285   6.230
 4252POPC   D2A55948  31.213  42.145   6.657
 4252POPC   C3A55949  31.308  42.380   7.048
 4252POPC   C4A55950  31.232  42.403   7.494
 4252POPC   C1B55951  31.869  42.435   6.240
 4252POPC   C2B55952  31.712  42.332   6.652
 4252POPC   C3B55953  31.827  42.334   7.078
 4252POPC   C4B55954  31.758  42.652   7.362
 4253POPC   NC355955  15.753   9.858   5.225
 4253POPC   PO455956  16.157   9.449   5.498
 4253POPC   GL155957  15.921   9.736   5.794
 4253POPC   GL255958  15.670  10.011   5.715
 4253POPC   C1A55959  16.023   9.994   6.174
 4253POPC   D2A55960  15.839  10.151   6.562
 4253POPC   C3A55961  15.833   9.846   6.885
 4253POPC   C4A55962  16.109   9.627   7.170
 4253POPC   C1B55963  15.530   9.922   6.143
 4253POPC   C2B55964  15.394   9.886   6.551
 4253POPC   C3B55965  15.392  10.153   6.901
 4253POPC   C4B55966  15.656  10.137   7.261
 4254POPC   NC355967  15.994  35.712   5.109
 4254POPC   PO455968  15.594  35.447   5.639
 4254POPC   GL155969  15.754  35.532   6.024
 4254POPC   GL255970  16.021  35.290   5.909
 4254POPC   C1A55971  15.927  35.505   6.439
 4254POPC   D2A55972  16.065  35.117   6.651
 4254POPC   C3A55973  15.942  35.209   7.067
 4254POPC   C4A55974  15.796  35.621   7.105
 4254POPC   C1B55975  16.298  35.536   6.099
 4254POPC   C2B55976  16.450  35.463   6.501
 4254POPC   C3B55977  16.396  35.394   6.919
 4254POPC   C4B55978  16.344  35.622   7.277
 4255POPC   NC355979  41.467   9.274   5.389
 4255POPC   PO455980  41.794   8.736   5.293
 4255POPC   GL155981  41.588   8.862   5.715
 4255POPC   GL255982  41.667   9.192   5.842
 4255POPC   C1A55983  41.437   8.946   6.196
 4255POPC   D2A55984  41.484   9.201   6.606
 4255POPC   C3A55985  41.488   8.875   6.941
 4255POPC   C4A55986  41.800   8.778   7.263
 4255POPC   C1B55987  41.832   9.337   6.251
 4255POPC   C2B55988  41.836   9.608   6.644
 4255POPC   C3B55989  41.820   9.573   7.086
 4255POPC   C4B55990  41.587   9.276   7.233
 4256POPC   NC355991  35.399  14.740   5.567
 4256POPC   PO455992  35.457  15.341   5.344
 4256POPC   GL155993  35.475  15.233   5.745
 4256POPC   GL255994  35.162  15.124   5.855
 4256POPC   C1A55995  35.535  15.374   6.151
 4256POPC   D2A55996  35.280  15.323   6.547
 4256POPC   C3A55997  35.462  15.159   6.900
 4256POPC   C4A55998  35.572  15.201   7.317
 4256POPC   C1B55999  35.308  14.937   6.206
 4256POPC   C2B56000  35.176  14.825   6.577
 4256POPC   C3B56001  35.017  14.755   6.924
 4256POPC   C4B56002  35.288  14.792   7.224
 4257POPC   NC356003  16.851  22.396   5.475
 4257POPC   PO456004  16.414  21.791   5.428
 4257POPC   GL156005  16.482  22.126   5.792
 4257POPC   GL256006  16.862  22.158   5.923
 4257POPC   C1A56007  16.502  22.332   6.228
 4257POPC   D2A56008  16.748  22.218   6.608
 4257POPC   C3A56009  16.633  22.228   7.052
 4257POPC   C4A56010  16.697  22.410   7.501
 4257POPC   C1B56011  17.029  22.483   6.251
 4257POPC   C2B56012  16.959  22.693   6.691
 4257POPC   C3B56013  16.951  22.695   7.171
 4257POPC   C4B56014  17.118  22.692   7.636
 4258POPC   NC356015   3.712  41.728   5.324
 4258POPC   PO456016   3.109  41.340   5.269
 4258POPC   GL156017   3.381  41.431   5.614
 4258POPC   GL256018   3.717  41.272   5.650
 4258POPC   C1A56019   3.464  41.623   6.026
 4258POPC   D2A56020   3.376  41.394   6.427
 4258POPC   C3A56021   3.529  41.488   6.854
 4258POPC   C4A56022   3.370  41.476   7.274
 4258POPC   C1B56023   3.786  41.237   6.125
 4258POPC   C2B56024   3.882  41.175   6.613
 4258POPC   C3B56025   3.995  41.415   7.054
 4258POPC   C4B56026   3.814  41.597   7.475
 4259POPC   NC356027  15.962  17.673   5.356
 4259POPC   PO456028  16.055  17.023   5.513
 4259POPC   GL156029  15.918  17.335   5.793
 4259POPC   GL256030  16.168  17.558   5.824
 4259POPC   C1A56031  15.852  17.351   6.226
 4259POPC   D2A56032  15.841  17.189   6.638
 4259POPC   C3A56033  15.667  17.366   7.003
 4259POPC   C4A56034  15.780  17.489   7.424
 4259POPC   C1B56035  16.252  17.762   6.211
 4259POPC   C2B56036  16.183  17.719   6.630
 4259POPC   C3B56037  16.116  17.632   7.062
 4259POPC   C4B56038  16.189  17.834   7.438
 4260POPC   NC356039  25.489  44.805   5.383
 4260POPC   PO456040  24.849  44.989   5.422
 4260POPC   GL156041  24.968  44.712   5.804
 4260POPC   GL256042  25.312  44.652   5.823
 4260POPC   C1A56043  25.055  44.683   6.273
 4260POPC   D2A56044  24.924  44.452   6.644
 4260POPC   C3A56045  24.956  44.571   7.090
 4260POPC   C4A56046  25.030  44.547   7.559
 4260POPC   C1B56047  25.431  44.286   6.023
 4260POPC   C2B56048  25.384  44.273   6.462
 4260POPC   C3B56049  25.423  44.549   6.824
 4260POPC   C4B56050  25.450  44.485   7.265
 4261POPC   NC356051  28.842   1.591   5.345
 4261POPC   PO456052  29.333   1.085   5.181
 4261POPC   GL156053  29.145   1.155   5.630
 4261POPC   GL256054  29.150   1.483   5.747
 4261POPC   C1A56055  29.228   1.090   6.108
 4261POPC   D2A56056  29.274   1.248   6.537
 4261POPC   C3A56057  28.991   1.053   6.856
 4261POPC   C4A56058  29.179   1.056   7.265
 4261POPC   C1B56059  29.141   1.636   6.179
 4261POPC   C2B56060  28.877   1.569   6.568
 4261POPC   C3B56061  29.081   1.533   6.984
 4261POPC   C4B56062  29.386   1.510   7.317
 4262POPC   NC356063  13.364  10.778   5.311
 4262POPC   PO456064  13.888  10.603   5.680
 4262POPC   GL156065  13.631  10.390   5.937
 4262POPC   GL256066  13.287  10.530   5.906
 4262POPC   C1A56067  13.748  10.366   6.339
 4262POPC   D2A56068  13.917  10.640   6.595
 4262POPC   C3A56069  13.899  10.418   6.939
 4262POPC   C4A56070  13.772  10.545   7.300
 4262POPC   C1B56071  13.238  10.441   6.350
 4262POPC   C2B56072  13.426  10.546   6.778
 4262POPC   C3B56073  13.293  10.617   7.216
 4262POPC   C4B56074  13.400  10.603   7.702
 4263POPC   NC356075  21.933  19.323   5.695
 4263POPC   PO456076  22.282  19.791   5.352
 4263POPC   GL156077  22.349  19.960   5.806
 4263POPC   GL256078  22.373  20.306   5.783
 4263POPC   C1A56079  22.243  19.891   6.259
 4263POPC   D2A56080  21.820  19.878   6.467
 4263POPC   C3A56081  21.829  19.643   6.855
 4263POPC   C4A56082  22.141  19.620   7.194
 4263POPC   C1B56083  21.998  20.281   6.058
 4263POPC   C2B56084  22.065  20.330   6.508
 4263POPC   C3B56085  22.130  20.151   6.929
 4263POPC   C4B56086  22.456  20.015   7.208
 4264POPC   NC356087  11.721   9.803   5.341
 4264POPC   PO456088  11.155   9.475   5.502
 4264POPC   GL156089  11.488   9.546   5.814
 4264POPC   GL256090  11.611   9.910   5.817
 4264POPC   C1A56091  11.327   9.349   6.208
 4264POPC   D2A56092  11.040   9.399   6.571
 4264POPC   C3A56093  11.139   9.700   6.918
 4264POPC   C4A56094  11.002   9.744   7.347
 4264POPC   C1B56095  11.689   9.826   6.228
 4264POPC   C2B56096  11.539   9.889   6.617
 4264POPC   C3B56097  11.642   9.818   7.006
 4264POPC   C4B56098  11.432  10.001   7.324
 4265POPC   NC356099  15.538   3.733   5.507
 4265POPC   PO456100  16.158   3.493   5.523
 4265POPC   GL156101  15.790   3.391   5.786
 4265POPC   GL256102  15.768   3.722   5.974
 4265POPC   C1A56103  15.593   3.261   6.164
 4265POPC   D2A56104  15.770   3.529   6.477
 4265POPC   C3A56105  15.815   3.316   6.849
 4265POPC   C4A56106  15.592   3.372   7.221
 4265POPC   C1B56107  16.154   3.862   6.224
 4265POPC   C2B56108  16.258   4.040   6.622
 4265POPC   C3B56109  15.981   3.817   6.855
 4265POPC   C4B56110  16.014   3.637   7.238
 4266POPC   NC356111  23.376  20.200   5.300
 4266POPC   PO456112  23.905  19.720   5.336
 4266POPC   GL156113  23.670  19.960   5.680
 4266POPC   GL256114  23.951  19.935   5.869
 4266POPC   C1A56115  23.535  19.869   6.132
 4266POPC   D2A56116  23.574  19.602   6.484
 4266POPC   C3A56117  23.427  19.826   6.821
 4266POPC   C4A56118  23.360  19.887   7.245
 4266POPC   C1B56119  24.074  19.623   6.194
 4266POPC   C2B56120  24.042  19.426   6.614
 4266POPC   C3B56121  23.914  19.675   6.961
 4266POPC   C4B56122  23.821  19.730   7.422
 4267POPC   NC356123   1.094  25.308   5.179
 4267POPC   PO456124   0.905  24.701   5.414
 4267POPC   GL156125   1.005  25.084   5.664
 4267POPC   GL256126   1.030  25.469   5.679
 4267POPC   C1A56127   1.031  25.162   6.120
 4267POPC   D2A56128   0.857  25.322   6.532
 4267POPC   C3A56129   1.053  25.067   6.871
 4267POPC   C4A56130   1.301  25.185   7.227
 4267POPC   C1B56131   0.972  25.669   6.130
 4267POPC   C2B56132   0.866  25.854   6.564
 4267POPC   C3B56133   0.859  25.690   7.004
 4267POPC   C4B56134   0.985  25.626   7.468
 4268POPC   NC356135  33.414  34.832   5.354
 4268POPC   PO456136  33.799  34.204   5.365
 4268POPC   GL156137  33.607  34.500   5.710
 4268POPC   GL256138  33.467  34.347   5.974
 4268POPC   C1A56139  33.763  34.772   6.101
 4268POPC   D2A56140  33.996  34.755   6.509
 4268POPC   C3A56141  33.766  34.627   6.888
 4268POPC   C4A56142  33.876  34.649   7.319
 4268POPC   C1B56143  33.604  34.396   6.401
 4268POPC   C2B56144  33.625  34.150   6.749
 4268POPC   C3B56145  33.557  34.239   7.210
 4268POPC   C4B56146  33.518  34.454   7.652
 4269POPC   NC356147  43.324  23.137   5.436
 4269POPC   PO456148  42.950  22.533   5.561
 4269POPC   GL156149  43.176  22.759   5.834
 4269POPC   GL256150  42.995  23.043   5.799
 4269POPC   C1A56151  43.321  22.935   6.211
 4269POPC   D2A56152  43.133  23.023   6.602
 4269POPC   C3A56153  43.406  22.997   6.947
 4269POPC   C4A56154  43.395  22.826   7.343
 4269POPC   C1B56155  42.806  22.926   6.179
 4269POPC   C2B56156  42.718  22.707   6.531
 4269POPC   C3B56157  42.667  22.746   6.958
 4269POPC   C4B56158  42.946  22.966   7.170
 4270POPC   NC356159   4.421  43.255   5.244
 4270POPC   PO456160   3.934  42.922   5.621
 4270POPC   GL156161   4.312  43.040   5.699
 4270POPC   GL256162   4.496  42.738   5.555
 4270POPC   C1A56163   4.265  43.152   6.151
 4270POPC   D2A56164   4.016  42.929   6.475
 4270POPC   C3A56165   3.910  43.134   6.869
 4270POPC   C4A56166   4.228  43.213   7.212
 4270POPC   C1B56167   4.610  42.810   6.012
 4270POPC   C2B56168   4.651  42.988   6.458
 4270POPC   C3B56169   4.665  42.972   6.943
 4270POPC   C4B56170   4.770  43.330   7.236
 4271POPC   NC356171  14.593  11.045   5.358
 4271POPC   PO456172  14.100  11.527   5.493
 4271POPC   GL156173  14.453  11.420   5.789
 4271POPC   GL256174  14.536  11.093   5.870
 4271POPC   C1A56175  14.636  11.484   6.210
 4271POPC   D2A56176  14.751  11.290   6.619
 4271POPC   C3A56177  14.479  11.343   6.954
 4271POPC   C4A56178  14.399  11.680   7.208
 4271POPC   C1B56179  14.257  11.074   6.252
 4271POPC   C2B56180  14.096  11.104   6.693
 4271POPC   C3B56181  14.149  10.977   7.135
 4271POPC   C4B56182  14.280  11.262   7.484
 4272POPC   NC356183  35.116   6.654   5.421
 4272POPC   PO456184  35.778   6.526   5.356
 4272POPC   GL156185  35.578   6.659   5.764
 4272POPC   GL256186  35.248   6.824   5.874
 4272POPC   C1A56187  35.625   6.777   6.226
 4272POPC   D2A56188  35.523   6.972   6.648
 4272POPC   C3A56189  35.577   6.692   7.003
 4272POPC   C4A56190  35.305   6.393   7.203
 4272POPC   C1B56191  35.182   7.072   6.250
 4272POPC   C2B56192  35.004   7.064   6.669
 4272POPC   C3B56193  35.110   6.898   7.086
 4272POPC   C4B56194  34.855   6.593   7.380
 4273POPC   NC356195   7.001  22.202   5.543
 4273POPC   PO456196   7.421  21.662   5.451
 4273POPC   GL156197   7.466  21.789   5.885
 4273POPC   GL256198   7.236  22.072   5.958
 4273POPC   C1A56199   7.650  22.032   6.222
 4273POPC   D2A56200   7.627  22.244   6.592
 4273POPC   C3A56201   7.460  22.056   6.915
 4273POPC   C4A56202   7.660  22.269   7.202
 4273POPC   C1B56203   7.316  22.448   6.238
 4273POPC   C2B56204   7.270  22.607   6.692
 4273POPC   C3B56205   7.256  22.668   7.167
 4273POPC   C4B56206   7.072  22.534   7.557
 4274POPC   NC356207  21.445  33.056   5.179
 4274POPC   PO456208  20.922  33.031   5.536
 4274POPC   GL156209  21.276  32.968   5.712
 4274POPC   GL256210  21.448  33.282   5.643
 4274POPC   C1A56211  21.477  32.919   6.104
 4274POPC   D2A56212  21.712  32.917   6.507
 4274POPC   C3A56213  21.384  32.998   6.802
 4274POPC   C4A56214  21.369  32.933   7.221
 4274POPC   C1B56215  21.733  33.343   6.001
 4274POPC   C2B56216  21.620  33.418   6.469
 4274POPC   C3B56217  21.579  33.449   6.928
 4274POPC   C4B56218  21.588  33.387   7.364
 4275POPC   NC356219  15.532  17.116   5.541
 4275POPC   PO456220  15.766  16.609   5.194
 4275POPC   GL156221  15.759  16.668   5.726
 4275POPC   GL256222  15.474  16.723   5.871
 4275POPC   C1A56223  16.001  16.833   6.154
 4275POPC   D2A56224  16.192  16.829   6.631
 4275POPC   C3A56225  16.139  16.590   7.043
 4275POPC   C4A56226  15.979  16.517   7.490
 4275POPC   C1B56227  15.513  16.921   6.277
 4275POPC   C2B56228  15.486  16.802   6.715
 4275POPC   C3B56229  15.697  16.831   7.110
 4275POPC   C4B56230  15.788  16.992   7.522
 4276POPC   NC356231  36.552  19.584   5.612
 4276POPC   PO456232  36.343  19.016   5.342
 4276POPC   GL156233  36.256  19.177   5.782
 4276POPC   GL256234  35.921  19.349   5.860
 4276POPC   C1A56235  36.297  19.320   6.223
 4276POPC   D2A56236  36.186  19.116   6.632
 4276POPC   C3A56237  36.369  19.248   7.011
 4276POPC   C4A56238  36.273  19.017   7.370
 4276POPC   C1B56239  35.804  19.287   6.326
 4276POPC   C2B56240  35.759  19.391   6.745
 4276POPC   C3B56241  35.884  19.353   7.185
 4276POPC   C4B56242  35.968  19.341   7.660
 4277POPC   NC356243  42.244  25.089   5.518
 4277POPC   PO456244  42.774  25.285   5.268
 4277POPC   GL156245  42.732  25.281   5.747
 4277POPC   GL256246  42.584  25.037   5.978
 4277POPC   C1A56247  42.679  25.500   6.169
 4277POPC   D2A56248  42.509  25.365   6.603
 4277POPC   C3A56249  42.679  25.308   7.013
 4277POPC   C4A56250  42.584  24.905   7.264
 4277POPC   C1B56251  42.236  25.184   6.191
 4277POPC   C2B56252  42.116  24.995   6.572
 4277POPC   C3B56253  42.200  25.096   6.971
 4277POPC   C4B56254  41.935  24.956   7.256
 4278POPC   NC356255  33.655  14.485   5.431
 4278POPC   PO456256  34.322  14.328   5.353
 4278POPC   GL156257  34.083  14.559   5.746
 4278POPC   GL256258  33.926  14.293   5.892
 4278POPC   C1A56259  33.977  14.698   6.226
 4278POPC   D2A56260  33.854  14.602   6.709
 4278POPC   C3A56261  34.029  14.391   7.112
 4278POPC   C4A56262  33.989  14.190   7.566
 4278POPC   C1B56263  33.804  14.225   6.341
 4278POPC   C2B56264  33.825  14.068   6.767
 4278POPC   C3B56265  33.768  13.932   7.185
 4278POPC   C4B56266  33.737  13.695   7.572
 4279POPC   NC356267  30.615  43.792   5.387
 4279POPC   PO456268  30.466  43.262   5.395
 4279POPC   GL156269  30.376  43.625   5.796
 4279POPC   GL256270  30.585  43.999   5.828
 4279POPC   C1A56271  30.505  43.739   6.238
 4279POPC   D2A56272  30.671  43.639   6.622
 4279POPC   C3A56273  30.461  43.751   6.996
 4279POPC   C4A56274  30.503  43.581   7.408
 4279POPC   C1B56275  30.694  44.268   6.169
 4279POPC   C2B56276  30.668  44.209   6.606
 4279POPC   C3B56277  30.553  44.292   7.019
 4279POPC   C4B56278  30.722  44.062   7.368
 4280POPC   NC356279  41.389  41.519   5.473
 4280POPC   PO456280  40.973  42.073   5.656
 4280POPC   GL156281  41.353  41.820   5.879
 4280POPC   GL256282  41.753  41.694   5.875
 4280POPC   C1A56283  41.412  41.505   6.218
 4280POPC   D2A56284  41.210  41.485   6.623
 4280POPC   C3A56285  41.412  41.394   6.993
 4280POPC   C4A56286  41.766  41.585   7.209
 4280POPC   C1B56287  41.921  41.421   6.212
 4280POPC   C2B56288  41.718  41.248   6.572
 4280POPC   C3B56289  41.782  41.068   6.949
 4280POPC   C4B56290  42.057  41.142   7.226
 4281POPC   NC356291   7.269   0.037   5.255
 4281POPC   PO456292   7.804  44.594   5.234
 4281POPC   GL156293   7.581  44.726   5.670
 4281POPC   GL256294   7.308  44.505   5.832
 4281POPC   C1A56295   7.553  44.817   6.150
 4281POPC   D2A56296   7.480  44.663   6.563
 4281POPC   C3A56297   7.445  44.870   6.956
 4281POPC   C4A56298   7.714  44.674   7.246
 4281POPC   C1B56299   7.169  44.082   6.023
 4281POPC   C2B56300   7.026  44.011   6.464
 4281POPC   C3B56301   7.179  44.293   6.766
 4281POPC   C4B56302   7.292  44.433   7.130
 4282POPC   NC356303   6.888  16.791   5.376
 4282POPC   PO456304   6.366  17.132   5.456
 4282POPC   GL156305   6.588  16.938   5.789
 4282POPC   GL256306   6.497  16.600   5.785
 4282POPC   C1A56307   6.605  16.990   6.217
 4282POPC   D2A56308   6.503  17.125   6.598
 4282POPC   C3A56309   6.590  16.925   6.983
 4282POPC   C4A56310   6.822  16.878   7.350
 4282POPC   C1B56311   6.687  16.479   6.187
 4282POPC   C2B56312   6.800  16.647   6.574
 4282POPC   C3B56313   6.878  16.513   6.975
 4282POPC   C4B56314   6.542  16.476   7.253
 4283POPC   NC356315   8.062  44.872   5.545
 4283POPC   PO456316   8.183   0.513   5.182
 4283POPC   GL156317   8.214   0.370   5.654
 4283POPC   GL256318   8.514   0.267   5.794
 4283POPC   C1A56319   8.169   0.530   6.141
 4283POPC   D2A56320   7.944   0.541   6.593
 4283POPC   C3A56321   8.123   0.558   7.056
 4283POPC   C4A56322   8.169   0.372   7.519
 4283POPC   C1B56323   8.470   0.145   6.266
 4283POPC   C2B56324   8.371   0.269   6.693
 4283POPC   C3B56325   8.437   0.168   7.138
 4283POPC   C4B56326   8.648   0.230   7.562
 4284POPC   NC356327  41.897  28.491   5.369
 4284POPC   PO456328  42.426  28.002   5.260
 4284POPC   GL156329  42.331  28.018   5.722
 4284POPC   GL256330  42.089  28.275   5.820
 4284POPC   C1A56331  42.463  28.035   6.148
 4284POPC   D2A56332  42.581  28.355   6.444
 4284POPC   C3A56333  42.315  28.267   6.766
 4284POPC   C4A56334  42.150  28.099   7.121
 4284POPC   C1B56335  42.106  28.466   6.248
 4284POPC   C2B56336  42.086  28.740   6.620
 4284POPC   C3B56337  42.059  28.604   7.044
 4284POPC   C4B56338  42.028  28.716   7.446
 4285POPC   NC356339   1.374  40.985   5.342
 4285POPC   PO456340   1.055  40.449   5.322
 4285POPC   GL156341   1.121  40.719   5.730
 4285POPC   GL256342   1.383  40.968   5.879
 4285POPC   C1A56343   1.238  40.544   6.155
 4285POPC   D2A56344   1.294  40.227   6.483
 4285POPC   C3A56345   1.188  40.308   6.916
 4285POPC   C4A56346   1.111  40.503   7.334
 4285POPC   C1B56347   1.435  40.998   6.312
 4285POPC   C2B56348   1.433  40.710   6.632
 4285POPC   C3B56349   1.214  40.810   6.943
 4285POPC   C4B56350   1.330  40.974   7.285
 4286POPC   NC356351  38.566  26.172   5.093
 4286POPC   PO456352  38.025  25.762   5.323
 4286POPC   GL156353  38.160  26.069   5.655
 4286POPC   GL256354  38.488  26.163   5.654
 4286POPC   C1A56355  38.217  26.004   6.111
 4286POPC   D2A56356  38.086  26.194   6.515
 4286POPC   C3A56357  38.293  26.064   6.888
 4286POPC   C4A56358  38.689  25.778   7.032
 4286POPC   C1B56359  38.687  26.195   6.044
 4286POPC   C2B56360  38.661  26.117   6.485
 4286POPC   C3B56361  38.760  26.266   6.882
 4286POPC   C4B56362  38.558  26.282   7.269
 4287POPC   NC356363  41.421  16.214   5.123
 4287POPC   PO456364  41.300  16.783   5.247
 4287POPC   GL156365  41.444  17.033   5.675
 4287POPC   GL256366  41.773  17.215   5.757
 4287POPC   C1A56367  41.480  17.073   6.174
 4287POPC   D2A56368  41.683  17.240   6.587
 4287POPC   C3A56369  41.523  17.058   6.989
 4287POPC   C4A56370  41.444  16.632   7.156
 4287POPC   C1B56371  41.985  17.105   6.192
 4287POPC   C2B56372  42.013  16.864   6.622
 4287POPC   C3B56373  41.939  16.789   7.082
 4287POPC   C4B56374  41.746  16.980   7.462
 4288POPC   NC356375  43.238  19.499   5.341
 4288POPC   PO456376  43.411  20.125   5.266
 4288POPC   GL156377  43.298  20.031   5.712
 4288POPC   GL256378  43.155  19.708   5.834
 4288POPC   C1A56379  43.267  20.079   6.184
 4288POPC   D2A56380  43.091  19.726   6.437
 4288POPC   C3A56381  43.072  19.801   6.870
 4288POPC   C4A56382  43.264  19.984   7.195
 4288POPC   C1B56383  42.795  19.937   6.058
 4288POPC   C2B56384  42.734  20.074   6.512
 4288POPC   C3B56385  42.603  20.006   6.964
 4288POPC   C4B56386  42.795  19.708   7.299
 4289POPC   NC356387  36.514  17.727   5.127
 4289POPC   PO456388  36.949  17.333   5.495
 4289POPC   GL156389  36.946  17.447   5.876
 4289POPC   GL256390  36.601  17.507   5.905
 4289POPC   C1A56391  36.973  17.221   6.246
 4289POPC   D2A56392  36.867  17.273   6.674
 4289POPC   C3A56393  37.110  17.211   7.000
 4289POPC   C4A56394  37.093  17.438   7.357
 4289POPC   C1B56395  36.656  17.612   6.347
 4289POPC   C2B56396  36.559  17.656   6.784
 4289POPC   C3B56397  36.610  17.395   7.140
 4289POPC   C4B56398  36.522  17.346   7.601
 4290POPC   NC356399  32.389  42.203   5.456
 4290POPC   PO456400  32.398  42.881   5.458
 4290POPC   GL156401  32.344  42.577   5.815
 4290POPC   GL256402  32.151  42.790   5.968
 4290POPC   C1A56403  32.387  42.217   6.144
 4290POPC   D2A56404  32.381  42.067   6.622
 4290POPC   C3A56405  32.372  42.162   7.125
 4290POPC   C4A56406  32.573  42.375   7.535
 4290POPC   C1B56407  32.328  42.658   6.382
 4290POPC   C2B56408  32.207  42.534   6.793
 4290POPC   C3B56409  32.245  42.666   7.232
 4290POPC   C4B56410  32.123  42.843   7.667
 4291POPC   NC356411  16.242  39.203   5.491
 4291POPC   PO456412  16.919  39.252   5.410
 4291POPC   GL156413  16.749  39.366   5.774
 4291POPC   GL256414  16.572  39.068   5.859
 4291POPC   C1A56415  16.916  39.285   6.163
 4291POPC   D2A56416  16.764  39.024   6.486
 4291POPC   C3A56417  16.771  39.243   6.871
 4291POPC   C4A56418  16.919  39.400   7.263
 4291POPC   C1B56419  16.383  39.303   6.235
 4291POPC   C2B56420  16.300  39.156   6.677
 4291POPC   C3B56421  16.385  38.912   7.064
 4291POPC   C4B56422  16.336  39.024   7.508
 4292POPC   NC356423  16.162  19.160   5.429
 4292POPC   PO456424  15.627  18.677   5.537
 4292POPC   GL156425  15.653  19.017   5.770
 4292POPC   GL256426  15.995  18.903   5.846
 4292POPC   C1A56427  15.631  19.379   6.028
 4292POPC   D2A56428  15.762  19.321   6.457
 4292POPC   C3A56429  15.629  19.120   6.821
 4292POPC   C4A56430  15.870  19.319   7.158
 4292POPC   C1B56431  15.853  18.838   6.264
 4292POPC   C2B56432  16.068  18.919   6.662
 4292POPC   C3B56433  16.120  18.876   7.096
 4292POPC   C4B56434  16.357  19.051   7.393
 4293POPC   NC356435  27.777  41.120   5.474
 4293POPC   PO456436  27.269  40.761   5.275
 4293POPC   GL156437  27.365  40.844   5.715
 4293POPC   GL256438  27.321  41.198   5.766
 4293POPC   C1A56439  27.413  40.598   6.121
 4293POPC   D2A56440  27.394  40.337   6.502
 4293POPC   C3A56441  27.672  40.455   6.846
 4293POPC   C4A56442  27.651  40.701   7.213
 4293POPC   C1B56443  27.544  41.096   6.153
 4293POPC   C2B56444  27.717  40.894   6.540
 4293POPC   C3B56445  27.694  41.103   6.938
 4293POPC   C4B56446  27.617  41.310   7.353
 4294POPC   NC356447  40.811  23.413   5.445
 4294POPC   PO456448  40.654  24.037   5.460
 4294POPC   GL156449  40.791  23.782   5.815
 4294POPC   GL256450  41.144  23.691   5.788
 4294POPC   C1A56451  40.800  23.443   6.135
 4294POPC   D2A56452  40.701  23.327   6.578
 4294POPC   C3A56453  40.930  23.503   6.943
 4294POPC   C4A56454  40.758  23.913   7.142
 4294POPC   C1B56455  41.218  23.887   6.227
 4294POPC   C2B56456  41.334  23.795   6.706
 4294POPC   C3B56457  41.259  23.812   7.187
 4294POPC   C4B56458  41.057  23.986   7.568
 4295POPC   NC356459  41.153  26.128   5.383
 4295POPC   PO456460  40.584  25.790   5.432
 4295POPC   GL156461  40.588  26.051   5.805
 4295POPC   GL256462  40.911  26.240   5.826
 4295POPC   C1A56463  40.754  25.970   6.234
 4295POPC   D2A56464  41.083  25.940   6.552
 4295POPC   C3A56465  40.897  25.956   6.968
 4295POPC   C4A56466  40.616  26.096   7.310
 4295POPC   C1B56467  41.080  26.397   6.228
 4295POPC   C2B56468  40.985  26.466   6.683
 4295POPC   C3B56469  40.997  26.422   7.143
 4295POPC   C4B56470  40.951  26.317   7.606
 4296POPC   NC356471  13.046  16.612   5.230
 4296POPC   PO456472  12.580  17.024   5.317
 4296POPC   GL156473  12.894  16.849   5.648
 4296POPC   GL256474  12.924  16.488   5.726
 4296POPC   C1A56475  13.041  16.867   6.079
 4296POPC   D2A56476  12.935  17.095   6.445
 4296POPC   C3A56477  12.945  16.974   6.876
 4296POPC   C4A56478  12.710  16.961   7.213
 4296POPC   C1B56479  12.967  16.355   6.163
 4296POPC   C2B56480  12.990  16.551   6.572
 4296POPC   C3B56481  12.796  16.483   6.990
 4296POPC   C4B56482  12.977  16.562   7.387
 4297POPC   NC356483  18.401   7.936   5.445
 4297POPC   PO456484  18.304   7.231   5.392
 4297POPC   GL156485  18.261   7.504   5.804
 4297POPC   GL256486  18.242   7.885   5.934
 4297POPC   C1A56487  18.184   7.495   6.271
 4297POPC   D2A56488  18.009   7.390   6.684
 4297POPC   C3A56489  18.303   7.279   7.004
 4297POPC   C4A56490  18.287   7.421   7.390
 4297POPC   C1B56491  17.890   7.943   6.251
 4297POPC   C2B56492  17.813   7.874   6.704
 4297POPC   C3B56493  18.109   7.772   7.053
 4297POPC   C4B56494  17.994   7.802   7.534
 4298POPC   NC356495  26.984  37.954   5.190
 4298POPC   PO456496  26.606  38.292   5.519
 4298POPC   GL156497  26.722  38.514   5.878
 4298POPC   GL256498  26.931  38.256   6.030
 4298POPC   C1A56499  26.517  38.606   6.257
 4298POPC   D2A56500  26.606  38.363   6.611
 4298POPC   C3A56501  26.694  38.531   6.991
 4298POPC   C4A56502  26.676  38.340   7.352
 4298POPC   C1B56503  27.024  38.534   6.324
 4298POPC   C2B56504  27.156  38.539   6.730
 4298POPC   C3B56505  27.202  38.455   7.135
 4298POPC   C4B56506  27.164  38.253   7.523
 4299POPC   NC356507  28.009  42.580   5.568
 4299POPC   PO456508  27.341  42.440   5.369
 4299POPC   GL156509  27.537  42.360   5.777
 4299POPC   GL256510  27.604  42.712   5.829
 4299POPC   C1A56511  27.391  42.103   6.153
 4299POPC   D2A56512  27.411  41.897   6.531
 4299POPC   C3A56513  27.217  42.108   6.891
 4299POPC   C4A56514  27.447  42.279   7.173
 4299POPC   C1B56515  27.649  42.547   6.268
 4299POPC   C2B56516  27.685  42.337   6.686
 4299POPC   C3B56517  27.895  42.496   7.060
 4299POPC   C4B56518  27.558  42.798   7.157
 4300POPC   NC356519  39.026   5.462   5.344
 4300POPC   PO456520  39.655   5.095   5.448
 4300POPC   GL156521  39.264   5.178   5.724
 4300POPC   GL256522  39.308   5.517   5.773
 4300POPC   C1A56523  39.038   5.083   6.120
 4300POPC   D2A56524  39.216   4.895   6.478
 4300POPC   C3A56525  39.069   4.948   6.888
 4300POPC   C4A56526  38.872   5.294   7.073
 4300POPC   C1B56527  39.436   5.389   6.196
 4300POPC   C2B56528  39.451   5.322   6.625
 4300POPC   C3B56529  39.373   5.344   7.035
 4300POPC   C4B56530  39.644   5.514   7.276
 4301POPC   NC356531  34.751  35.887   5.084
 4301POPC   PO456532  34.667  36.421   5.483
 4301POPC   GL156533  34.621  36.173   5.821
 4301POPC   GL256534  34.685  35.837   5.689
 4301POPC   C1A56535  34.703  36.263   6.256
 4301POPC   D2A56536  34.516  36.529   6.563
 4301POPC   C3A56537  34.443  36.261   6.925
 4301POPC   C4A56538  34.389  36.015   7.282
 4301POPC   C1B56539  34.486  35.783   6.113
 4301POPC   C2B56540  34.556  35.873   6.563
 4301POPC   C3B56541  34.761  35.819   6.949
 4301POPC   C4B56542  34.850  35.792   7.373
 4302POPC   NC356543  32.044  21.751   5.695
 4302POPC   PO456544  32.152  22.319   5.408
 4302POPC   GL156545  32.180  22.234   5.838
 4302POPC   GL256546  31.836  22.169   5.898
 4302POPC   C1A56547  32.466  22.176   6.190
 4302POPC   D2A56548  32.661  22.446   6.519
 4302POPC   C3A56549  32.595  22.309   6.935
 4302POPC   C4A56550  32.358  22.053   7.188
 4302POPC   C1B56551  31.981  22.027   6.300
 4302POPC   C2B56552  32.111  22.140   6.732
 4302POPC   C3B56553  31.938  22.312   7.132
 4302POPC   C4B56554  31.761  22.104   7.526
 4303POPC   NC356555  24.473  14.206   5.354
 4303POPC   PO456556  25.006  14.666   5.357
 4303POPC   GL156557  24.750  14.492   5.695
 4303POPC   GL256558  24.791  14.134   5.765
 4303POPC   C1A56559  24.443  14.474   6.030
 4303POPC   D2A56560  24.569  14.565   6.453
 4303POPC   C3A56561  24.331  14.492   6.806
 4303POPC   C4A56562  24.330  14.779   7.131
 4303POPC   C1B56563  24.918  14.293   6.158
 4303POPC   C2B56564  24.864  14.165   6.587
 4303POPC   C3B56565  24.799  14.359   6.988
 4303POPC   C4B56566  24.414  14.300   7.272
 4304POPC   NC356567  22.313  26.431   4.966
 4304POPC   PO456568  21.889  26.757   5.501
 4304POPC   GL156569  22.264  26.944   5.737
 4304POPC   GL256570  22.058  27.147   5.871
 4304POPC   C1A56571  22.450  26.817   6.157
 4304POPC   D2A56572  22.294  26.757   6.605
 4304POPC   C3A56573  22.525  26.942   6.950
 4304POPC   C4A56574  22.792  26.881   7.297
 4304POPC   C1B56575  21.956  26.927   6.247
 4304POPC   C2B56576  21.821  27.082   6.659
 4304POPC   C3B56577  22.058  27.145   7.008
 4304POPC   C4B56578  22.061  26.671   7.071
 4305POPC   NC356579  43.425  22.191   5.127
 4305POPC   PO456580  44.129  22.123   5.257
 4305POPC   GL156581  43.902  22.090   5.657
 4305POPC   GL256582  43.810  22.363   5.697
 4305POPC   C1A56583  43.951  22.105   6.110
 4305POPC   D2A56584  43.780  22.010   6.518
 4305POPC   C3A56585  44.008  22.180   6.857
 4305POPC   C4A56586  43.933  22.108   7.279
 4305POPC   C1B56587  43.678  22.550   6.142
 4305POPC   C2B56588  43.724  22.542   6.612
 4305POPC   C3B56589  43.601  22.456   7.039
 4305POPC   C4B56590  43.567  22.375   7.495
 4306POPC   NC356591   6.264  17.572   5.397
 4306POPC   PO456592   6.951  17.668   5.266
 4306POPC   GL156593   6.796  17.415   5.653
 4306POPC   GL256594   6.470  17.455   5.850
 4306POPC   C1A56595   6.917  17.372   6.101
 4306POPC   D2A56596   6.898  17.600   6.525
 4306POPC   C3A56597   6.811  17.397   6.910
 4306POPC   C4A56598   7.048  17.322   7.280
 4306POPC   C1B56599   6.442  17.539   6.294
 4306POPC   C2B56600   6.317  17.591   6.708
 4306POPC   C3B56601   6.271  17.312   7.025
 4306POPC   C4B56602   6.551  17.329   7.360
 4307POPC   NC356603  12.006  24.269   5.533
 4307POPC   PO456604  11.966  24.925   5.661
 4307POPC   GL156605  11.984  24.595   5.942
 4307POPC   GL256606  11.969  24.205   6.015
 4307POPC   C1A56607  12.195  24.581   6.328
 4307POPC   D2A56608  12.388  24.422   6.683
 4307POPC   C3A56609  12.245  24.573   7.064
 4307POPC   C4A56610  12.586  24.464   7.283
 4307POPC   C1B56611  11.717  24.394   6.311
 4307POPC   C2B56612  11.834  24.524   6.714
 4307POPC   C3B56613  11.772  24.291   7.082
 4307POPC   C4B56614  11.853  24.417   7.487
 4308POPC   NC356615  26.424  18.010   5.454
 4308POPC   PO456616  26.945  18.421   5.490
 4308POPC   GL156617  26.663  18.410   5.855
 4308POPC   GL256618  26.641  18.088   5.905
 4308POPC   C1A56619  26.691  18.533   6.315
 4308POPC   D2A56620  26.889  18.733   6.701
 4308POPC   C3A56621  26.654  18.518   7.020
 4308POPC   C4A56622  26.704  18.337   7.447
 4308POPC   C1B56623  26.687  17.947   6.303
 4308POPC   C2B56624  26.786  18.051   6.694
 4308POPC   C3B56625  26.643  17.983   7.082
 4308POPC   C4B56626  26.622  17.707   7.419
 4309POPC   NC356627  26.844  31.343   5.539
 4309POPC   PO456628  27.132  31.839   5.352
 4309POPC   GL156629  27.095  31.697   5.783
 4309POPC   GL256630  26.765  31.699   5.916
 4309POPC   C1A56631  27.146  31.443   6.159
 4309POPC   D2A56632  26.875  31.352   6.513
 4309POPC   C3A56633  27.118  31.361   6.890
 4309POPC   C4A56634  27.063  31.177   7.288
 4309POPC   C1B56635  26.484  31.696   6.271
 4309POPC   C2B56636  26.469  31.619   6.717
 4309POPC   C3B56637  26.609  31.383   7.066
 4309POPC   C4B56638  26.676  31.442   7.506
 4310POPC   NC356639  26.285  33.774   5.310
 4310POPC   PO456640  25.780  33.492   5.538
 4310POPC   GL156641  26.076  33.670   5.792
 4310POPC   GL256642  25.841  33.715   6.037
 4310POPC   C1A56643  26.331  33.855   6.107
 4310POPC   D2A56644  26.374  33.751   6.549
 4310POPC   C3A56645  26.046  33.761   6.875
 4310POPC   C4A56646  26.045  33.709   7.307
 4310POPC   C1B56647  25.784  33.773   6.445
 4310POPC   C2B56648  25.493  33.803   6.764
 4310POPC   C3B56649  25.600  33.924   7.146
 4310POPC   C4B56650  25.602  33.899   7.587
 4311POPC   NC356651  44.036  24.900   5.608
 4311POPC   PO456652  43.642  25.197   5.201
 4311POPC   GL156653  43.706  25.228   5.789
 4311POPC   GL256654  43.705  24.914   6.015
 4311POPC   C1A56655  43.921  25.309   6.236
 4311POPC   D2A56656  44.094  25.517   6.584
 4311POPC   C3A56657  43.921  25.401   6.939
 4311POPC   C4A56658  44.006  25.431   7.332
 4311POPC   C1B56659  44.036  24.788   6.266
 4311POPC   C2B56660  44.146  24.962   6.618
 4311POPC   C3B56661  44.213  25.025   7.029
 4311POPC   C4B56662  43.814  24.978   7.263
 4312POPC   NC356663  34.898  11.304   5.349
 4312POPC   PO456664  34.361  10.985   5.373
 4312POPC   GL156665  34.578  11.119   5.726
 4312POPC   GL256666  34.922  11.041   5.782
 4312POPC   C1A56667  34.521  11.107   6.168
 4312POPC   D2A56668  34.346  11.303   6.563
 4312POPC   C3A56669  34.484  11.190   6.973
 4312POPC   C4A56670  34.536  11.525   7.239
 4312POPC   C1B56671  35.009  11.221   6.171
 4312POPC   C2B56672  34.841  11.179   6.573
 4312POPC   C3B56673  34.949  11.397   6.914
 4312POPC   C4B56674  35.016  11.386   7.349
 4313POPC   NC356675  22.415  43.739   5.453
 4313POPC   PO456676  21.820  44.070   5.593
 4313POPC   GL156677  22.128  43.923   5.820
 4313POPC   GL256678  22.374  44.184   5.750
 4313POPC   C1A56679  22.383  43.735   6.138
 4313POPC   D2A56680  22.193  43.785   6.524
 4313POPC   C3A56681  22.422  43.765   6.877
 4313POPC   C4A56682  22.279  43.712   7.273
 4313POPC   C1B56683  22.267  44.233   6.197
 4313POPC   C2B56684  22.206  44.299   6.628
 4313POPC   C3B56685  22.109  44.151   7.030
 4313POPC   C4B56686  22.285  44.269   7.400
 4314POPC   NC356687  11.491   6.518   5.645
 4314POPC   PO456688  11.082   7.072   5.415
 4314POPC   GL156689  11.159   6.853   5.814
 4314POPC   GL256690  11.106   6.472   5.950
 4314POPC   C1A56691  11.373   6.813   6.226
 4314POPC   D2A56692  11.150   6.769   6.600
 4314POPC   C3A56693  11.322   6.916   6.984
 4314POPC   C4A56694  11.435   6.695   7.322
 4314POPC   C1B56695  10.855   6.220   6.223
 4314POPC   C2B56696  10.810   6.273   6.675
 4314POPC   C3B56697  11.087   6.439   6.972
 4314POPC   C4B56698  10.963   6.544   7.349
 4315POPC   NC356699  44.909  40.388   5.404
 4315POPC   PO456700  44.422  39.947   5.437
 4315POPC   GL156701  44.755  39.934   5.795
 4315POPC   GL256702   0.094  39.996   5.701
 4315POPC   C1A56703  44.786  39.928   6.284
 4315POPC   D2A56704  44.542  40.186   6.615
 4315POPC   C3A56705  44.523  39.992   7.021
 4315POPC   C4A56706  44.837  39.732   7.161
 4315POPC   C1B56707   0.088  40.280   6.077
 4315POPC   C2B56708  44.968  40.470   6.500
 4315POPC   C3B56709  44.934  40.311   6.956
 4315POPC   C4B56710  44.914  40.163   7.422
 4316POPC   NC356711  40.012  37.583   5.340
 4316POPC   PO456712  40.389  38.141   5.165
 4316POPC   GL156713  40.250  37.937   5.654
 4316POPC   GL256714  39.901  37.745   5.796
 4316POPC   C1A56715  40.130  37.975   6.161
 4316POPC   D2A56716  40.139  37.746   6.565
 4316POPC   C3A56717  39.919  37.689   6.997
 4316POPC   C4A56718  40.269  37.640   7.301
 4316POPC   C1B56719  39.701  37.469   6.122
 4316POPC   C2B56720  39.720  37.438   6.584
 4316POPC   C3B56721  39.629  37.251   6.998
 4316POPC   C4B56722  39.779  37.356   7.409
 4317POPC   NC356723  38.476  19.197   5.453
 4317POPC   PO456724  38.604  18.600   5.755
 4317POPC   GL156725  38.304  18.829   5.933
 4317POPC   GL256726  38.375  19.185   5.952
 4317POPC   C1A56727  38.366  18.867   6.355
 4317POPC   D2A56728  38.363  19.178   6.565
 4317POPC   C3A56729  38.468  19.023   6.906
 4317POPC   C4A56730  38.398  19.094   7.280
 4317POPC   C1B56731  38.096  19.423   6.205
 4317POPC   C2B56732  38.034  19.578   6.574
 4317POPC   C3B56733  38.158  19.444   6.992
 4317POPC   C4B56734  38.294  19.551   7.432
 4318POPC   NC356735   0.052  36.941   5.326
 4318POPC   PO456736   0.726  37.002   5.443
 4318POPC   GL156737   0.380  36.837   5.756
 4318POPC   GL256738   0.179  37.096   5.808
 4318POPC   C1A56739   0.447  36.625   6.181
 4318POPC   D2A56740   0.237  36.745   6.567
 4318POPC   C3A56741   0.520  36.879   6.881
 4318POPC   C4A56742   0.591  36.807   7.299
 4318POPC   C1B56743   0.351  37.135   6.242
 4318POPC   C2B56744   0.219  37.247   6.680
 4318POPC   C3B56745   0.240  37.270   7.136
 4318POPC   C4B56746   0.494  37.303   7.519
 4319POPC   NC356747  18.037  36.721   5.163
 4319POPC   PO456748  18.415  37.207   5.206
 4319POPC   GL156749  18.258  37.004   5.563
 4319POPC   GL256750  18.505  37.081   5.776
 4319POPC   C1A56751  18.156  36.738   5.933
 4319POPC   D2A56752  17.973  36.715   6.361
 4319POPC   C3A56753  18.096  36.806   6.769
 4319POPC   C4A56754  17.988  36.828   7.205
 4319POPC   C1B56755  18.588  37.247   6.182
 4319POPC   C2B56756  18.418  37.151   6.557
 4319POPC   C3B56757  18.248  37.251   6.949
 4319POPC   C4B56758  18.371  37.174   7.339
 4320POPC   NC356759  36.764   9.180   5.229
 4320POPC   PO456760  37.220   8.772   5.397
 4320POPC   GL156761  37.013   8.825   5.801
 4320POPC   GL256762  37.029   9.169   5.818
 4320POPC   C1A56763  36.804   8.782   6.235
 4320POPC   D2A56764  36.886   8.963   6.681
 4320POPC   C3A56765  37.113   8.697   7.018
 4320POPC   C4A56766  37.172   8.717   7.486
 4320POPC   C1B56767  37.113   9.181   6.259
 4320POPC   C2B56768  37.314   9.259   6.654
 4320POPC   C3B56769  37.298   9.168   7.125
 4320POPC   C4B56770  37.327   9.253   7.593
 4321POPC   NC356771  29.747   0.816   5.270
 4321POPC   PO456772  30.070   0.136   5.437
 4321POPC   GL156773  29.906   0.395   5.804
 4321POPC   GL256774  29.987   0.739   5.831
 4321POPC   C1A56775  29.957   0.465   6.286
 4321POPC   D2A56776  29.667   0.396   6.660
 4321POPC   C3A56777  29.771   0.466   7.116
 4321POPC   C4A56778  29.906   0.484   7.573
 4321POPC   C1B56779  29.745   0.926   6.220
 4321POPC   C2B56780  29.725   0.917   6.665
 4321POPC   C3B56781  29.644   1.115   7.051
 4321POPC   C4B56782  29.723   0.936   7.431
 4322POPC   NC356783   1.834  24.873   5.028
 4322POPC   PO456784   2.133  24.433   5.090
 4322POPC   GL156785   2.178  24.354   5.582
 4322POPC   GL256786   1.868  24.211   5.746
 4322POPC   C1A56787   2.193  24.430   6.074
 4322POPC   D2A56788   2.144  24.556   6.542
 4322POPC   C3A56789   2.024  24.457   7.000
 4322POPC   C4A56790   1.777  24.425   7.387
 4322POPC   C1B56791   1.858  24.053   6.196
 4322POPC   C2B56792   1.911  24.086   6.654
 4322POPC   C3B56793   1.758  24.004   7.095
 4322POPC   C4B56794   1.941  23.954   7.521
 4323POPC   NC356795  15.852  28.653   4.983
 4323POPC   PO456796  16.275  28.212   5.318
 4323POPC   GL156797  16.301  28.207   5.805
 4323POPC   GL256798  16.007  28.057   5.962
 4323POPC   C1A56799  16.209  28.444   6.244
 4323POPC   D2A56800  16.240  28.441   6.732
 4323POPC   C3A56801  15.902  28.547   7.059
 4323POPC   C4A56802  15.904  28.859   7.409
 4323POPC   C1B56803  16.334  27.961   6.278
 4323POPC   C2B56804  16.208  27.932   6.701
 4323POPC   C3B56805  16.072  28.074   7.095
 4323POPC   C4B56806  15.791  28.037   7.443
 4324POPC   NC356807  10.847  29.431   5.379
 4324POPC   PO456808  10.353  28.991   5.477
 4324POPC   GL156809  10.483  28.939   5.872
 4324POPC   GL256810  10.338  29.255   5.963
 4324POPC   C1A56811  10.767  29.059   6.172
 4324POPC   D2A56812  10.903  29.248   6.534
 4324POPC   C3A56813  10.647  29.127   6.879
 4324POPC   C4A56814  10.631  29.036   7.280
 4324POPC   C1B56815  10.291  29.417   6.374
 4324POPC   C2B56816  10.552  29.586   6.692
 4324POPC   C3B56817  10.516  29.597   7.133
 4324POPC   C4B56818  10.168  29.426   7.360
 4325POPC   NC356819  42.446  33.191   5.387
 4325POPC   PO456820  41.929  32.771   5.510
 4325POPC   GL156821  42.147  33.103   5.829
 4325POPC   GL256822  42.515  33.274   5.878
 4325POPC   C1A56823  42.287  32.962   6.266
 4325POPC   D2A56824  42.394  32.537   6.487
 4325POPC   C3A56825  42.442  32.609   6.918
 4325POPC   C4A56826  42.105  32.816   7.125
 4325POPC   C1B56827  42.648  33.341   6.307
 4325POPC   C2B56828  42.404  33.279   6.703
 4325POPC   C3B56829  42.517  33.093   7.091
 4325POPC   C4B56830  42.563  33.285   7.494
 4326POPC   NC356831  15.670  36.377   5.203
 4326POPC   PO456832  15.886  36.980   5.428
 4326POPC   GL156833  15.893  36.766   5.774
 4326POPC   GL256834  15.536  36.744   5.788
 4326POPC   C1A56835  16.179  36.723   6.160
 4326POPC   D2A56836  16.053  36.718   6.600
 4326POPC   C3A56837  16.331  36.860   6.946
 4326POPC   C4A56838  16.207  37.043   7.352
 4326POPC   C1B56839  15.720  36.968   6.183
 4326POPC   C2B56840  15.851  37.212   6.535
 4326POPC   C3B56841  15.843  37.037   6.955
 4326POPC   C4B56842  15.533  36.791   7.148
 4327POPC   NC356843   3.031  40.009   5.303
 4327POPC   PO456844   2.606  39.667   5.676
 4327POPC   GL156845   2.717  40.091   5.776
 4327POPC   GL256846   3.063  40.209   5.771
 4327POPC   C1A56847   2.537  40.063   6.191
 4327POPC   D2A56848   2.682  40.103   6.556
 4327POPC   C3A56849   2.518  39.890   6.888
 4327POPC   C4A56850   2.568  40.112   7.215
 4327POPC   C1B56851   3.045  39.930   6.151
 4327POPC   C2B56852   3.154  39.787   6.559
 4327POPC   C3B56853   3.021  40.019   6.924
 4327POPC   C4B56854   3.193  40.242   7.256
 4328POPC   NC356855  33.379  40.435   5.317
 4328POPC   PO456856  33.043  40.994   5.477
 4328POPC   GL156857  32.973  40.717   5.785
 4328POPC   GL256858  33.311  40.576   5.838
 4328POPC   C1A56859  33.008  40.739   6.228
 4328POPC   D2A56860  33.175  40.798   6.641
 4328POPC   C3A56861  32.898  40.722   6.968
 4328POPC   C4A56862  33.012  40.902   7.330
 4328POPC   C1B56863  33.510  40.522   6.257
 4328POPC   C2B56864  33.578  40.458   6.698
 4328POPC   C3B56865  33.397  40.568   7.102
 4328POPC   C4B56866  33.241  40.439   7.511
 4329POPC   NC356867  26.185  29.603   5.261
 4329POPC   PO456868  25.978  30.234   5.342
 4329POPC   GL156869  25.942  30.046   5.750
 4329POPC   GL256870  26.229  29.837   5.729
 4329POPC   C1A56871  25.801  30.133   6.203
 4329POPC   D2A56872  26.053  30.004   6.599
 4329POPC   C3A56873  25.899  29.924   7.043
 4329POPC   C4A56874  25.909  30.113   7.475
 4329POPC   C1B56875  26.045  29.696   6.152
 4329POPC   C2B56876  26.258  29.515   6.510
 4329POPC   C3B56877  26.186  29.423   6.949
 4329POPC   C4B56878  26.185  29.606   7.363
 4330POPC   NC356879   0.847  19.073   5.522
 4330POPC   PO456880   1.445  18.863   5.565
 4330POPC   GL156881   1.183  18.794   5.901
 4330POPC   GL256882   0.857  18.639   5.825
 4330POPC   C1A56883   1.262  18.996   6.295
 4330POPC   D2A56884   1.399  18.913   6.698
 4330POPC   C3A56885   1.236  19.158   6.986
 4330POPC   C4A56886   1.410  19.209   7.350
 4330POPC   C1B56887   0.759  18.864   6.222
 4330POPC   C2B56888   0.829  19.002   6.647
 4330POPC   C3B56889   0.874  18.798   7.028
 4330POPC   C4B56890   0.974  18.953   7.411
 4331POPC   NC356891  15.619  39.558   5.569
 4331POPC   PO456892  14.991  39.324   5.391
 4331POPC   GL156893  15.149  39.194   5.822
 4331POPC   GL256894  15.451  39.057   5.853
 4331POPC   C1A56895  15.030  39.351   6.264
 4331POPC   D2A56896  15.109  39.406   6.699
 4331POPC   C3A56897  14.952  39.116   7.005
 4331POPC   C4A56898  15.105  39.352   7.322
 4331POPC   C1B56899  15.511  39.411   6.187
 4331POPC   C2B56900  15.537  39.661   6.580
 4331POPC   C3B56901  15.460  39.600   7.061
 4331POPC   C4B56902  15.397  39.665   7.576
 4332POPC   NC356903  26.514  11.188   5.169
 4332POPC   PO456904  27.074  11.464   5.295
 4332POPC   GL156905  26.868  11.158   5.566
 4332POPC   GL256906  26.659  11.446   5.621
 4332POPC   C1A56907  26.892  11.158   6.033
 4332POPC   D2A56908  26.862  11.290   6.491
 4332POPC   C3A56909  27.125  11.297   6.885
 4332POPC   C4A56910  27.052  11.281   7.358
 4332POPC   C1B56911  26.494  11.493   6.074
 4332POPC   C2B56912  26.427  11.518   6.539
 4332POPC   C3B56913  26.641  11.468   6.951
 4332POPC   C4B56914  26.467  11.429   7.356
 4333POPC   NC356915  42.986  30.579   5.126
 4333POPC   PO456916  42.426  30.794   5.536
 4333POPC   GL156917  42.404  30.561   5.884
 4333POPC   GL256918  42.089  30.440   5.858
 4333POPC   C1A56919  42.541  30.661   6.285
 4333POPC   D2A56920  42.546  30.601   6.700
 4333POPC   C3A56921  42.501  30.969   6.930
 4333POPC   C4A56922  42.398  30.981   7.374
 4333POPC   C1B56923  42.078  30.842   6.123
 4333POPC   C2B56924  42.083  30.855   6.590
 4333POPC   C3B56925  42.113  30.625   7.002
 4333POPC   C4B56926  41.773  30.432   7.228
 4334POPC   NC356927  39.737  23.964   5.237
 4334POPC   PO456928  39.177  23.755   5.344
 4334POPC   GL156929  39.023  23.745   5.766
 4334POPC   GL256930  39.009  23.396   5.776
 4334POPC   C1A56931  39.061  23.881   6.215
 4334POPC   D2A56932  39.486  23.790   6.415
 4334POPC   C3A56933  39.502  23.821   6.853
 4334POPC   C4A56934  39.226  23.888   7.202
 4334POPC   C1B56935  39.182  23.380   6.174
 4334POPC   C2B56936  39.107  23.501   6.591
 4334POPC   C3B56937  39.256  23.390   6.974
 4334POPC   C4B56938  39.005  23.422   7.297
 4335POPC   NC356939   1.410  39.367   5.194
 4335POPC   PO456940   0.960  38.885   5.354
 4335POPC   GL156941   1.012  39.120   5.721
 4335POPC   GL256942   1.269  39.369   5.693
 4335POPC   C1A56943   0.879  39.238   6.133
 4335POPC   D2A56944   1.012  39.237   6.551
 4335POPC   C3A56945   0.844  39.010   6.890
 4335POPC   C4A56946   1.043  39.134   7.255
 4335POPC   C1B56947   1.434  39.344   6.109
 4335POPC   C2B56948   1.770  39.477   6.392
 4335POPC   C3B56949   1.782  39.394   6.818
 4335POPC   C4B56950   1.511  39.302   7.173
 4336POPC   NC356951  11.013  24.375   5.499
 4336POPC   PO456952  11.520  24.717   5.289
 4336POPC   GL156953  11.483  24.709   5.742
 4336POPC   GL256954  11.513  24.367   5.815
 4336POPC   C1A56955  11.364  24.722   6.187
 4336POPC   D2A56956  11.322  24.515   6.593
 4336POPC   C3A56957  11.420  24.658   7.004
 4336POPC   C4A56958  11.356  24.502   7.405
 4336POPC   C1B56959  11.202  24.229   6.125
 4336POPC   C2B56960  11.167  24.034   6.522
 4336POPC   C3B56961  11.225  24.166   6.970
 4336POPC   C4B56962  11.417  24.006   7.350
 4337POPC   NC356963  38.270  23.409   5.283
 4337POPC   PO456964  38.391  24.104   5.048
 4337POPC   GL156965  38.520  23.756   5.518
 4337POPC   GL256966  38.222  23.684   5.699
 4337POPC   C1A56967  38.607  23.593   5.995
 4337POPC   D2A56968  38.575  23.691   6.441
 4337POPC   C3A56969  38.674  23.488   6.870
 4337POPC   C4A56970  38.677  23.800   7.219
 4337POPC   C1B56971  38.129  23.751   6.124
 4337POPC   C2B56972  38.003  23.709   6.528
 4337POPC   C3B56973  38.214  23.703   6.903
 4337POPC   C4B56974  38.180  23.350   7.143
 4338POPC   NC356975  27.916  25.147   5.250
 4338POPC   PO456976  28.500  24.962   5.410
 4338POPC   GL156977  28.385  25.192   5.880
 4338POPC   GL256978  28.023  25.402   5.991
 4338POPC   C1A56979  28.564  25.072   6.281
 4338POPC   D2A56980  28.694  24.989   6.703
 4338POPC   C3A56981  28.382  25.028   7.019
 4338POPC   C4A56982  28.413  25.142   7.437
 4338POPC   C1B56983  28.309  25.540   6.274
 4338POPC   C2B56984  28.350  25.399   6.667
 4338POPC   C3B56985  28.157  25.503   7.051
 4338POPC   C4B56986  28.151  25.582   7.490
 4339POPC   NC356987   0.505  14.991   5.392
 4339POPC   PO456988   0.157  15.617   5.615
 4339POPC   GL156989   0.325  15.225   5.841
 4339POPC   GL256990   0.216  14.848   5.779
 4339POPC   C1A56991   0.584  15.112   6.224
 4339POPC   D2A56992   0.595  15.291   6.648
 4339POPC   C3A56993   0.698  15.179   7.066
 4339POPC   C4A56994   0.609  14.886   7.354
 4339POPC   C1B56995   0.132  14.872   6.188
 4339POPC   C2B56996   0.117  15.130   6.551
 4339POPC   C3B56997   0.218  14.987   6.973
 4339POPC   C4B56998   0.067  15.081   7.370
 4340POPC   NC356999  38.051  24.138   5.525
 4340POPC   PO457000  37.793  23.547   5.437
 4340POPC   GL157001  37.718  23.761   5.809
 4340POPC   GL257002  37.380  23.839   5.844
 4340POPC   C1A57003  37.628  23.553   6.208
 4340POPC   D2A57004  37.405  23.600   6.610
 4340POPC   C3A57005  37.695  23.628   6.962
 4340POPC   C4A57006  37.754  23.479   7.383
 4340POPC   C1B57007  37.438  24.033   6.250
 4340POPC   C2B57008  37.638  24.058   6.626
 4340POPC   C3B57009  37.413  24.077   6.976
 4340POPC   C4B57010  37.388  23.859   7.328
 4341POPC   NC357011  44.881  43.774   5.630
 4341POPC   PO457012  44.234  43.848   5.450
 4341POPC   GL157013  44.403  43.883   5.874
 4341POPC   GL257014  44.652  44.157   5.939
 4341POPC   C1A57015  44.517  43.808   6.337
 4341POPC   D2A57016  44.750  44.013   6.707
 4341POPC   C3A57017  44.653  43.874   7.141
 4341POPC   C4A57018  44.840  44.002   7.530
 4341POPC   C1B57019  44.335  44.333   6.193
 4341POPC   C2B57020  44.275  44.187   6.609
 4341POPC   C3B57021  44.413  44.320   7.018
 4341POPC   C4B57022  44.450  44.351   7.485
 4342POPC   NC357023   4.134   8.604   5.623
 4342POPC   PO457024   3.683   8.387   5.274
 4342POPC   GL157025   3.541   8.545   5.723
 4342POPC   GL257026   3.574   8.920   5.813
 4342POPC   C1A57027   3.421   8.607   6.197
 4342POPC   D2A57028   3.346   8.881   6.594
 4342POPC   C3A57029   3.338   8.749   7.069
 4342POPC   C4A57030   3.336   8.857   7.552
 4342POPC   C1B57031   3.792   8.947   6.250
 4342POPC   C2B57032   3.832   8.927   6.732
 4342POPC   C3B57033   3.728   9.071   7.159
 4342POPC   C4B57034   3.712   9.232   7.596
 4343POPC   NC357035  21.090  23.158   5.473
 4343POPC   PO457036  21.571  22.753   5.083
 4343POPC   GL157037  21.488  22.837   5.594
 4343POPC   GL257038  21.158  22.710   5.757
 4343POPC   C1A57039  21.413  23.025   6.072
 4343POPC   D2A57040  21.313  22.865   6.525
 4343POPC   C3A57041  21.414  22.986   6.984
 4343POPC   C4A57042  21.507  23.065   7.427
 4343POPC   C1B57043  20.931  22.777   6.172
 4343POPC   C2B57044  20.848  22.686   6.618
 4343POPC   C3B57045  21.162  22.533   6.934
 4343POPC   C4B57046  21.294  22.600   7.372
 4344POPC   NC357047   6.860  34.036   5.294
 4344POPC   PO457048   6.534  33.470   5.462
 4344POPC   GL157049   6.618  33.881   5.718
 4344POPC   GL257050   6.546  34.259   5.617
 4344POPC   C1A57051   6.844  33.907   6.116
 4344POPC   D2A57052   6.858  33.606   6.487
 4344POPC   C3A57053   6.481  33.584   6.795
 4344POPC   C4A57054   6.442  33.490   7.245
 4344POPC   C1B57055   6.471  34.269   6.033
 4344POPC   C2B57056   6.495  34.067   6.440
 4344POPC   C3B57057   6.744  34.013   6.792
 4344POPC   C4B57058   6.599  33.972   7.177
 4345POPC   NC357059  28.684  35.832   5.457
 4345POPC   PO457060  28.453  36.440   5.532
 4345POPC   GL157061  28.270  36.389   5.908
 4345POPC   GL257062  28.318  36.022   5.938
 4345POPC   C1A57063  28.425  36.364   6.322
 4345POPC   D2A57064  28.441  36.067   6.654
 4345POPC   C3A57065  28.522  36.217   7.047
 4345POPC   C4A57066  28.086  36.249   7.118
 4345POPC   C1B57067  28.701  35.938   6.203
 4345POPC   C2B57068  28.845  35.745   6.620
 4345POPC   C3B57069  28.554  35.663   6.992
 4345POPC   C4B57070  28.619  35.530   7.490
 4346POPC   NC357071   8.814   3.278   5.094
 4346POPC   PO457072   9.227   3.728   5.434
 4346POPC   GL157073   9.191   3.556   5.848
 4346POPC   GL257074   8.822   3.585   5.919
 4346POPC   C1A57075   9.179   3.567   6.304
 4346POPC   D2A57076   9.093   3.483   6.722
 4346POPC   C3A57077   9.079   3.833   6.995
 4346POPC   C4A57078   9.124   3.772   7.422
 4346POPC   C1B57079   8.703   3.308   6.289
 4346POPC   C2B57080   8.629   3.208   6.746
 4346POPC   C3B57081   8.749   3.436   7.143
 4346POPC   C4B57082   8.671   3.290   7.562
 4347POPC   NC357083  26.265  25.608   5.218
 4347POPC   PO457084  25.840  25.112   5.406
 4347POPC   GL157085  26.089  25.206   5.799
 4347POPC   GL257086  26.370  25.361   5.694
 4347POPC   C1A57087  26.228  25.128   6.245
 4347POPC   D2A57088  26.088  25.276   6.654
 4347POPC   C3A57089  25.943  25.079   7.016
 4347POPC   C4A57090  25.623  25.262   7.241
 4347POPC   C1B57091  26.570  25.500   6.087
 4347POPC   C2B57092  26.442  25.616   6.521
 4347POPC   C3B57093  26.447  25.495   6.949
 4347POPC   C4B57094  26.160  25.471   7.301
 4348POPC   NC357095  41.283   6.427   5.351
 4348POPC   PO457096  40.646   6.717   5.428
 4348POPC   GL157097  40.958   6.722   5.729
 4348POPC   GL257098  40.929   6.367   5.786
 4348POPC   C1A57099  40.996   6.946   6.126
 4348POPC   D2A57100  40.958   6.852   6.561
 4348POPC   C3A57101  40.753   7.061   6.886
 4348POPC   C4A57102  40.653   6.827   7.254
 4348POPC   C1B57103  40.861   6.447   6.244
 4348POPC   C2B57104  40.593   6.446   6.643
 4348POPC   C3B57105  40.712   6.280   7.063
 4348POPC   C4B57106  40.968   6.343   7.452
 4349POPC   NC357107  40.101  40.275   5.613
 4349POPC   PO457108  40.001  40.880   5.417
 4349POPC   GL157109  40.071  40.736   5.814
 4349POPC   GL257110  39.760  40.616   5.828
 4349POPC   C1A57111  40.044  40.699   6.257
 4349POPC   D2A57112  39.981  41.114   6.459
 4349POPC   C3A57113  40.215  41.227   6.827
 4349POPC   C4A57114  40.088  40.924   7.129
 4349POPC   C1B57115  39.590  40.888   6.167
 4349POPC   C2B57116  39.615  40.740   6.583
 4349POPC   C3B57117  39.867  40.530   6.900
 4349POPC   C4B57118  39.714  40.614   7.309
 4350POPC   NC357119  43.599  18.087   5.333
 4350POPC   PO457120  44.096  18.531   5.308
 4350POPC   GL157121  43.755  18.439   5.660
 4350POPC   GL257122  43.735  18.102   5.829
 4350POPC   C1A57123  43.770  18.529   6.116
 4350POPC   D2A57124  44.061  18.471   6.480
 4350POPC   C3A57125  43.919  18.465   6.917
 4350POPC   C4A57126  44.075  18.454   7.340
 4350POPC   C1B57127  43.680  18.016   6.270
 4350POPC   C2B57128  43.971  17.939   6.624
 4350POPC   C3B57129  44.180  18.013   7.025
 4350POPC   C4B57130  43.933  17.845   7.385
 4351POPC   NC357131  15.275  11.696   5.392
 4351POPC   PO457132  15.501  12.332   5.439
 4351POPC   GL157133  15.395  12.037   5.754
 4351POPC   GL257134  15.027  12.088   5.692
 4351POPC   C1A57135  15.400  12.102   6.202
 4351POPC   D2A57136  15.523  12.307   6.583
 4351POPC   C3A57137  15.398  12.206   6.996
 4351POPC   C4A57138  15.426  12.245   7.444
 4351POPC   C1B57139  15.031  11.783   6.034
 4351POPC   C2B57140  15.001  11.749   6.483
 4351POPC   C3B57141  14.836  11.748   6.895
 4351POPC   C4B57142  14.953  12.074   7.188
 4352POPC   NC357143  44.299  38.707   5.376
 4352POPC   PO457144  43.692  38.478   5.381
 4352POPC   GL157145  43.967  38.465   5.709
 4352POPC   GL257146  43.743  38.230   5.832
 4352POPC   C1A57147  44.099  38.422   6.131
 4352POPC   D2A57148  44.037  38.563   6.530
 4352POPC   C3A57149  44.304  38.487   6.868
 4352POPC   C4A57150  44.144  38.554   7.293
 4352POPC   C1B57151  43.562  38.402   6.205
 4352POPC   C2B57152  43.543  38.499   6.630
 4352POPC   C3B57153  43.795  38.378   6.969
 4352POPC   C4B57154  43.642  38.465   7.370
 4353POPC   NC357155   6.007   0.369   5.438
 4353POPC   PO457156   5.436   0.294   5.603
 4353POPC   GL157157   5.809   0.253   5.924
 4353POPC   GL257158   6.097  44.991   5.981
 4353POPC   C1A57159   6.012   0.350   6.337
 4353POPC   D2A57160   6.033   0.240   6.780
 4353POPC   C3A57161   6.096   0.548   7.117
 4353POPC   C4A57162   6.007   0.543   7.563
 4353POPC   C1B57163   5.864  44.863   6.406
 4353POPC   C2B57164   5.565   0.099   6.732
 4353POPC   C3B57165   5.663   0.265   7.181
 4353POPC   C4B57166   5.765   0.009   7.578
 4354POPC   NC357167  42.594   9.287   5.729
 4354POPC   PO457168  42.177   9.615   5.324
 4354POPC   GL157169  42.309   9.720   5.748
 4354POPC   GL257170  42.653   9.829   5.810
 4354POPC   C1A57171  42.269   9.663   6.205
 4354POPC   D2A57172  42.283   9.340   6.518
 4354POPC   C3A57173  42.297   9.525   6.921
 4354POPC   C4A57174  42.190   9.925   7.105
 4354POPC   C1B57175  42.719   9.918   6.276
 4354POPC   C2B57176  42.525   9.967   6.711
 4354POPC   C3B57177  42.679   9.793   7.140
 4354POPC   C4B57178  42.644   9.676   7.578
 4355POPC   NC357179   6.976  19.859   5.485
 4355POPC   PO457180   6.475  19.517   5.159
 4355POPC   GL157181   6.496  19.745   5.660
 4355POPC   GL257182   6.434  20.102   5.746
 4355POPC   C1A57183   6.546  19.701   6.160
 4355POPC   D2A57184   6.652  19.390   6.534
 4355POPC   C3A57185   6.705  19.616   6.934
 4355POPC   C4A57186   6.943  20.030   7.029
 4355POPC   C1B57187   6.216  20.172   6.178
 4355POPC   C2B57188   6.316  20.078   6.648
 4355POPC   C3B57189   6.434  20.031   7.113
 4355POPC   C4B57190   6.315  19.890   7.529
 4356POPC   NC357191  38.679  39.388   5.230
 4356POPC   PO457192  38.004  39.317   5.316
 4356POPC   GL157193  38.374  39.239   5.659
 4356POPC   GL257194  38.754  39.082   5.693
 4356POPC   C1A57195  38.360  39.328   6.120
 4356POPC   D2A57196  38.332  39.074   6.484
 4356POPC   C3A57197  38.389  39.175   6.911
 4356POPC   C4A57198  38.104  38.991   7.189
 4356POPC   C1B57199  38.867  39.280   6.121
 4356POPC   C2B57200  38.707  39.439   6.528
 4356POPC   C3B57201  38.851  39.392   6.959
 4356POPC   C4B57202  38.714  39.290   7.352
 4357POPC   NC357203  10.948   7.527   5.452
 4357POPC   PO457204  10.283   7.205   5.388
 4357POPC   GL157205  10.495   7.431   5.687
 4357POPC   GL257206  10.756   7.191   5.800
 4357POPC   C1A57207  10.416   7.571   6.117
 4357POPC   D2A57208  10.248   7.672   6.524
 4357POPC   C3A57209  10.396   7.807   6.917
 4357POPC   C4A57210  10.649   7.630   7.274
 4357POPC   C1B57211  10.410   7.055   6.052
 4357POPC   C2B57212  10.433   7.187   6.472
 4357POPC   C3B57213  10.568   7.318   6.870
 4357POPC   C4B57214  10.236   7.363   7.188
 4358POPC   NC357215   6.368  16.025   5.404
 4358POPC   PO457216   5.761  16.187   5.347
 4358POPC   GL157217   5.944  16.029   5.751
 4358POPC   GL257218   6.162  15.704   5.782
 4358POPC   C1A57219   5.814  16.031   6.198
 4358POPC   D2A57220   5.542  16.165   6.569
 4358POPC   C3A57221   5.762  15.985   6.927
 4358POPC   C4A57222   5.780  16.067   7.377
 4358POPC   C1B57223   6.372  15.701   6.217
 4358POPC   C2B57224   6.281  15.774   6.667
 4358POPC   C3B57225   6.003  15.511   6.907
 4358POPC   C4B57226   5.733  15.584   7.242
 4359POPC   NC357227  33.899  39.361   5.284
 4359POPC   PO457228  33.208  39.277   5.195
 4359POPC   GL157229  33.510  39.252   5.627
 4359POPC   GL257230  33.897  39.147   5.725
 4359POPC   C1A57231  33.550  39.068   6.079
 4359POPC   D2A57232  33.683  39.213   6.499
 4359POPC   C3A57233  33.496  39.027   6.855
 4359POPC   C4A57234  33.682  39.172   7.199
 4359POPC   C1B57235  34.034  39.313   6.135
 4359POPC   C2B57236  34.134  39.514   6.522
 4359POPC   C3B57237  34.092  39.343   6.932
 4359POPC   C4B57238  34.124  39.356   7.369
 4360POPC   NC357239  35.944  18.901   5.120
 4360POPC   PO457240  35.462  19.406   5.156
 4360POPC   GL157241  35.517  19.085   5.533
 4360POPC   GL257242  35.332  18.760   5.631
 4360POPC   C1A57243  35.477  19.069   6.022
 4360POPC   D2A57244  35.355  19.069   6.510
 4360POPC   C3A57245  35.470  19.049   6.967
 4360POPC   C4A57246  35.404  19.250   7.370
 4360POPC   C1B57247  35.058  18.767   6.020
 4360POPC   C2B57248  34.919  18.799   6.467
 4360POPC   C3B57249  35.010  18.792   6.924
 4360POPC   C4B57250  35.091  18.612   7.350
 4361POPC   NC357251  41.762  27.561   5.060
 4361POPC   PO457252  41.199  27.274   5.121
 4361POPC   GL157253  41.397  27.320   5.588
 4361POPC   GL257254  41.561  27.631   5.681
 4361POPC   C1A57255  41.556  27.242   6.046
 4361POPC   D2A57256  41.743  27.491   6.406
 4361POPC   C3A57257  41.559  27.407   6.837
 4361POPC   C4A57258  41.441  27.452   7.283
 4361POPC   C1B57259  41.400  27.745   6.121
 4361POPC   C2B57260  41.452  27.911   6.560
 4361POPC   C3B57261  41.457  27.899   7.028
 4361POPC   C4B57262  41.545  27.926   7.504
 4362POPC   NC357263  34.243  36.218   5.439
 4362POPC   PO457264  33.592  36.010   5.400
 4362POPC   GL157265  33.607  36.208   5.811
 4362POPC   GL257266  33.958  36.266   5.840
 4362POPC   C1A57267  33.700  36.181   6.269
 4362POPC   D2A57268  33.618  35.960   6.649
 4362POPC   C3A57269  33.680  36.234   6.973
 4362POPC   C4A57270  33.740  36.326   7.391
 4362POPC   C1B57271  34.209  36.228   6.197
 4362POPC   C2B57272  34.054  36.308   6.608
 4362POPC   C3B57273  34.056  36.577   6.985
 4362POPC   C4B57274  34.232  36.502   7.382
 4363POPC   NC357275   9.915   6.564   5.148
 4363POPC   PO457276   9.399   6.355   5.505
 4363POPC   GL157277   9.505   6.665   5.803
 4363POPC   GL257278   9.759   6.843   5.581
 4363POPC   C1A57279   9.574   6.693   6.259
 4363POPC   D2A57280   9.458   6.642   6.680
 4363POPC   C3A57281   9.834   6.600   6.903
 4363POPC   C4A57282   9.664   6.651   7.245
 4363POPC   C1B57283   9.992   6.773   5.980
 4363POPC   C2B57284  10.049   6.828   6.456
 4363POPC   C3B57285  10.247   6.902   6.877
 4363POPC   C4B57286  10.092   6.892   7.295
 4364POPC   NC357287  11.960  44.326   5.666
 4364POPC   PO457288  12.272  44.936   5.460
 4364POPC   GL157289  12.412  44.763   5.853
 4364POPC   GL257290  12.552  44.417   5.802
 4364POPC   C1A57291  12.222  44.833   6.284
 4364POPC   D2A57292  11.907   0.074   6.548
 4364POPC   C3A57293  11.795  44.859   6.930
 4364POPC   C4A57294  12.113  44.715   7.248
 4364POPC   C1B57295  12.374  44.351   6.228
 4364POPC   C2B57296  12.394  44.517   6.697
 4364POPC   C3B57297  12.447  44.299   7.113
 4364POPC   C4B57298  12.167  44.262   7.480
 4365POPC   NC357299  27.226  19.477   5.681
 4365POPC   PO457300  27.640  19.701   5.290
 4365POPC   GL157301  27.584  19.850   5.721
 4365POPC   GL257302  27.232  20.001   5.720
 4365POPC   C1A57303  27.626  19.639   6.152
 4365POPC   D2A57304  27.578  19.751   6.573
 4365POPC   C3A57305  27.943  19.715   6.857
 4365POPC   C4A57306  27.787  19.594   7.267
 4365POPC   C1B57307  27.388  20.080   6.150
 4365POPC   C2B57308  27.228  20.126   6.576
 4365POPC   C3B57309  27.299  19.919   6.977
 4365POPC   C4B57310  27.515  20.023   7.341
 4366POPC   NC357311  38.019  20.265   5.379
 4366POPC   PO457312  37.799  20.897   5.259
 4366POPC   GL157313  37.824  20.646   5.657
 4366POPC   GL257314  38.177  20.691   5.736
 4366POPC   C1A57315  37.541  20.625   6.034
 4366POPC   D2A57316  37.224  20.565   6.355
 4366POPC   C3A57317  37.259  20.728   6.780
 4366POPC   C4A57318  37.444  20.613   7.166
 4366POPC   C1B57319  38.016  20.783   6.154
 4366POPC   C2B57320  37.750  20.658   6.508
 4366POPC   C3B57321  37.896  20.472   6.875
 4366POPC   C4B57322  37.915  20.461   7.299
 4367POPC   NC357323   6.153  43.007   5.526
 4367POPC   PO457324   5.483  42.715   5.430
 4367POPC   GL157325   5.671  43.019   5.754
 4367POPC   GL257326   5.864  43.351   5.768
 4367POPC   C1A57327   5.855  43.048   6.176
 4367POPC   D2A57328   6.068  43.008   6.527
 4367POPC   C3A57329   5.862  43.094   6.918
 4367POPC   C4A57330   6.003  42.933   7.301
 4367POPC   C1B57331   6.105  43.485   6.187
 4367POPC   C2B57332   6.266  43.443   6.664
 4367POPC   C3B57333   6.190  43.446   7.135
 4367POPC   C4B57334   5.884  43.547   7.450
 4368POPC   NC357335  21.791  35.611   5.636
 4368POPC   PO457336  22.266  35.335   5.252
 4368POPC   GL157337  22.220  35.275   5.723
 4368POPC   GL257338  21.915  35.155   5.892
 4368POPC   C1A57339  22.295  35.446   6.164
 4368POPC   D2A57340  22.604  35.366   6.523
 4368POPC   C3A57341  22.477  35.264   6.972
 4368POPC   C4A57342  22.526  35.440   7.413
 4368POPC   C1B57343  21.761  35.358   6.256
 4368POPC   C2B57344  21.956  35.676   6.526
 4368POPC   C3B57345  22.116  35.639   6.946
 4368POPC   C4B57346  22.017  35.421   7.343
 4369POPC   NC357347  11.310   5.708   5.297
 4369POPC   PO457348  11.082   6.383   5.430
 4369POPC   GL157349  11.273   6.049   5.702
 4369POPC   GL257350  11.149   5.723   5.763
 4369POPC   C1A57351  11.394   6.069   6.139
 4369POPC   D2A57352  11.315   6.286   6.509
 4369POPC   C3A57353  11.369   6.034   6.871
 4369POPC   C4A57354  11.352   6.166   7.316
 4369POPC   C1B57355  11.062   5.673   6.155
 4369POPC   C2B57356  11.006   5.828   6.546
 4369POPC   C3B57357  11.024   5.676   6.960
 4369POPC   C4B57358  11.416   5.651   7.208
 4370POPC   NC357359  20.743  39.323   5.493
 4370POPC   PO457360  20.271  38.827   5.379
 4370POPC   GL157361  20.299  39.100   5.790
 4370POPC   GL257362  20.581  39.324   5.952
 4370POPC   C1A57363  20.171  39.222   6.201
 4370POPC   D2A57364  20.516  39.333   6.459
 4370POPC   C3A57365  20.610  39.142   6.820
 4370POPC   C4A57366  20.461  39.136   7.223
 4370POPC   C1B57367  20.944  39.518   6.178
 4370POPC   C2B57368  21.048  39.261   6.500
 4370POPC   C3B57369  21.090  39.254   6.933
 4370POPC   C4B57370  21.309  39.051   7.240
 4371POPC   NC357371  39.532  34.800   5.641
 4371POPC   PO457372  38.896  34.546   5.433
 4371POPC   GL157373  39.062  34.664   5.834
 4371POPC   GL257374  39.334  34.397   5.880
 4371POPC   C1A57375  39.237  34.829   6.237
 4371POPC   D2A57376  39.165  35.046   6.633
 4371POPC   C3A57377  39.165  34.673   6.873
 4371POPC   C4A57378  39.505  34.599   7.108
 4371POPC   C1B57379  38.986  34.181   6.060
 4371POPC   C2B57380  38.859  34.222   6.457
 4371POPC   C3B57381  39.169  34.191   6.749
 4371POPC   C4B57382  39.115  34.229   7.174
 4372POPC   NC357383   5.034  35.688   5.487
 4372POPC   PO457384   4.801  35.050   5.340
 4372POPC   GL157385   4.960  35.242   5.740
 4372POPC   GL257386   5.293  35.434   5.829
 4372POPC   C1A57387   4.924  35.184   6.181
 4372POPC   D2A57388   4.699  35.399   6.518
 4372POPC   C3A57389   4.712  35.218   6.916
 4372POPC   C4A57390   4.843  34.937   7.239
 4372POPC   C1B57391   5.182  35.603   6.237
 4372POPC   C2B57392   5.216  35.445   6.661
 4372POPC   C3B57393   5.228  35.203   7.037
 4372POPC   C4B57394   5.133  35.316   7.455
 4373POPC   NC357395  38.904   8.520   5.269
 4373POPC   PO457396  39.284   7.953   5.189
 4373POPC   GL157397  39.405   8.080   5.714
 4373POPC   GL257398  39.290   7.849   5.953
 4373POPC   C1A57399  39.220   8.305   6.128
 4373POPC   D2A57400  39.204   8.118   6.561
 4373POPC   C3A57401  39.345   8.369   6.932
 4373POPC   C4A57402  39.435   8.317   7.377
 4373POPC   C1B57403  38.897   7.868   6.209
 4373POPC   C2B57404  38.736   7.811   6.635
 4373POPC   C3B57405  38.697   7.790   7.041
 4373POPC   C4B57406  39.077   7.982   7.198
 4374POPC   NC357407  29.520  26.049   5.570
 4374POPC   PO457408  28.818  25.897   5.568
 4374POPC   GL157409  29.031  25.970   5.911
 4374POPC   GL257410  29.212  26.251   5.933
 4374POPC   C1A57411  29.314  25.800   6.229
 4374POPC   D2A57412  29.621  25.879   6.577
 4374POPC   C3A57413  29.484  25.762   6.980
 4374POPC   C4A57414  29.338  25.893   7.367
 4374POPC   C1B57415  29.070  26.254   6.318
 4374POPC   C2B57416  29.115  26.038   6.669
 4374POPC   C3B57417  29.261  26.251   6.985
 4374POPC   C4B57418  29.041  26.333   7.285
 4375POPC   NC357419  41.629  36.583   5.373
 4375POPC   PO457420  41.351  37.095   5.675
 4375POPC   GL157421  41.494  36.902   6.002
 4375POPC   GL257422  41.552  36.571   5.887
 4375POPC   C1A57423  41.568  37.006   6.412
 4375POPC   D2A57424  41.273  36.957   6.714
 4375POPC   C3A57425  41.519  36.819   7.030
 4375POPC   C4A57426  41.585  37.119   7.295
 4375POPC   C1B57427  41.891  36.657   6.204
 4375POPC   C2B57428  41.971  36.717   6.669
 4375POPC   C3B57429  42.005  36.677   7.116
 4375POPC   C4B57430  41.845  36.773   7.544
 4376POPC   NC357431  16.242   6.728   5.599
 4376POPC   PO457432  16.841   6.732   5.339
 4376POPC   GL157433  16.931   6.749   5.791
 4376POPC   GL257434  16.629   6.887   5.879
 4376POPC   C1A57435  16.784   6.587   6.245
 4376POPC   D2A57436  16.486   6.519   6.611
 4376POPC   C3A57437  16.649   6.469   7.031
 4376POPC   C4A57438  16.759   6.729   7.391
 4376POPC   C1B57439  16.589   7.110   6.251
 4376POPC   C2B57440  16.614   7.211   6.662
 4376POPC   C3B57441  16.313   6.974   6.840
 4376POPC   C4B57442  16.231   6.751   7.173
 4377POPC   NC357443  17.873   7.461   5.428
 4377POPC   PO457444  17.256   7.636   5.236
 4377POPC   GL157445  17.393   7.439   5.668
 4377POPC   GL257446  17.358   7.062   5.786
 4377POPC   C1A57447  17.348   7.467   6.134
 4377POPC   D2A57448  17.314   7.694   6.532
 4377POPC   C3A57449  17.462   7.552   6.944
 4377POPC   C4A57450  17.807   7.390   7.168
 4377POPC   C1B57451  17.587   7.004   6.157
 4377POPC   C2B57452  17.549   7.192   6.575
 4377POPC   C3B57453  17.489   7.019   7.007
 4377POPC   C4B57454  17.503   7.045   7.454
 4378POPC   NC357455  17.873  28.109   5.547
 4378POPC   PO457456  17.199  28.421   5.460
 4378POPC   GL157457  17.286  28.401   5.868
 4378POPC   GL257458  17.633  28.346   5.914
 4378POPC   C1A57459  17.297  28.163   6.231
 4378POPC   D2A57460  17.530  28.258   6.550
 4378POPC   C3A57461  17.295  28.337   6.882
 4378POPC   C4A57462  17.405  28.370   7.288
 4378POPC   C1B57463  17.926  28.399   6.260
 4378POPC   C2B57464  17.897  28.659   6.580
 4378POPC   C3B57465  17.776  28.535   6.943
 4378POPC   C4B57466  17.912  28.449   7.325
 4379POPC   NC357467  35.766  26.138   5.186
 4379POPC   PO457468  36.364  25.912   5.536
 4379POPC   GL157469  36.422  26.082   5.899
 4379POPC   GL257470  36.280  25.740   5.998
 4379POPC   C1A57471  36.339  26.183   6.344
 4379POPC   D2A57472  36.013  26.061   6.672
 4379POPC   C3A57473  36.032  26.275   7.057
 4379POPC   C4A57474  36.051  26.121   7.489
 4379POPC   C1B57475  36.235  25.678   6.395
 4379POPC   C2B57476  36.510  25.808   6.683
 4379POPC   C3B57477  36.414  25.947   7.073
 4379POPC   C4B57478  36.310  25.713   7.398
 4380POPC   NC357479  38.061  41.770   5.468
 4380POPC   PO457480  37.375  41.804   5.140
 4380POPC   GL157481  37.487  41.595   5.572
 4380POPC   GL257482  37.600  41.872   5.767
 4380POPC   C1A57483  37.469  41.368   6.008
 4380POPC   D2A57484  37.588  41.323   6.477
 4380POPC   C3A57485  37.286  41.294   6.839
 4380POPC   C4A57486  37.364  41.433   7.308
 4380POPC   C1B57487  37.716  41.782   6.187
 4380POPC   C2B57488  37.492  41.825   6.575
 4380POPC   C3B57489  37.649  41.649   6.927
 4380POPC   C4B57490  37.682  41.843   7.325
 4381POPC   NC357491  28.020  24.243   5.663
 4381POPC   PO457492  28.625  24.238   5.471
 4381POPC   GL157493  28.509  24.324   5.835
 4381POPC   GL257494  28.338  24.641   5.821
 4381POPC   C1A57495  28.699  24.212   6.188
 4381POPC   D2A57496  28.704  24.455   6.532
 4381POPC   C3A57497  28.439  24.293   6.850
 4381POPC   C4A57498  28.562  24.586   7.172
 4381POPC   C1B57499  28.268  24.505   6.254
 4381POPC   C2B57500  28.230  24.694   6.648
 4381POPC   C3B57501  28.053  24.566   7.052
 4381POPC   C4B57502  28.146  24.713   7.453
 4382POPC   NC357503  21.011  11.205   5.331
 4382POPC   PO457504  21.609  11.393   5.366
 4382POPC   GL157505  21.451  11.333   5.786
 4382POPC   GL257506  21.774  11.263   5.890
 4382POPC   C1A57507  21.223  11.363   6.209
 4382POPC   D2A57508  21.148  11.103   6.578
 4382POPC   C3A57509  21.179  11.290   6.960
 4382POPC   C4A57510  21.162  11.048   7.288
 4382POPC   C1B57511  21.736  11.493   6.252
 4382POPC   C2B57512  21.610  11.521   6.693
 4382POPC   C3B57513  21.677  11.366   7.108
 4382POPC   C4B57514  21.667  11.433   7.550
 4383POPC   NC357515  12.701  41.960   5.482
 4383POPC   PO457516  12.803  41.279   5.557
 4383POPC   GL157517  12.984  41.641   5.775
 4383POPC   GL257518  13.353  41.600   5.696
 4383POPC   C1A57519  12.864  41.833   6.188
 4383POPC   D2A57520  12.735  41.719   6.617
 4383POPC   C3A57521  12.863  41.887   6.991
 4383POPC   C4A57522  12.868  41.849   7.408
 4383POPC   C1B57523  13.269  41.372   6.093
 4383POPC   C2B57524  13.244  41.275   6.506
 4383POPC   C3B57525  13.082  41.442   6.884
 4383POPC   C4B57526  13.171  41.420   7.303
 4384POPC   NC357527   3.000  13.602   5.558
 4384POPC   PO457528   3.664  13.738   5.400
 4384POPC   GL157529   3.802  13.639   5.802
 4384POPC   GL257530   3.789  14.016   5.870
 4384POPC   C1A57531   3.606  13.339   6.137
 4384POPC   D2A57532   3.370  13.271   6.569
 4384POPC   C3A57533   3.511  13.472   6.975
 4384POPC   C4A57534   3.752  13.356   7.363
 4384POPC   C1B57535   3.440  13.831   6.109
 4384POPC   C2B57536   3.587  13.733   6.507
 4384POPC   C3B57537   3.884  13.806   6.819
 4384POPC   C4B57538   3.745  13.993   7.205
 4385POPC   NC357539  18.016  39.797   5.449
 4385POPC   PO457540  18.301  40.440   5.432
 4385POPC   GL157541  18.245  40.148   5.759
 4385POPC   GL257542  17.867  40.129   5.805
 4385POPC   C1A57543  18.212  40.068   6.192
 4385POPC   D2A57544  17.940  40.179   6.523
 4385POPC   C3A57545  18.150  40.271   6.912
 4385POPC   C4A57546  18.242  40.016   7.282
 4385POPC   C1B57547  17.837  39.739   6.084
 4385POPC   C2B57548  17.914  39.682   6.504
 4385POPC   C3B57549  17.899  39.829   6.916
 4385POPC   C4B57550  17.882  39.648   7.294
 4386POPC   NC357551  27.628  25.505   5.567
 4386POPC   PO457552  27.525  24.890   5.201
 4386POPC   GL157553  27.644  25.038   5.708
 4386POPC   GL257554  27.965  24.978   5.734
 4386POPC   C1A57555  27.592  25.197   6.175
 4386POPC   D2A57556  27.814  25.430   6.547
 4386POPC   C3A57557  27.501  25.359   6.890
 4386POPC   C4A57558  27.312  25.538   7.287
 4386POPC   C1B57559  28.037  24.963   6.231
 4386POPC   C2B57560  27.802  24.947   6.657
 4386POPC   C3B57561  27.881  25.042   7.061
 4386POPC   C4B57562  27.757  25.312   7.312
 4387POPC   NC357563  17.612   1.857   5.472
 4387POPC   PO457564  17.622   2.501   5.426
 4387POPC   GL157565  17.534   2.242   5.815
 4387POPC   GL257566  17.256   2.007   5.846
 4387POPC   C1A57567  17.688   2.004   6.178
 4387POPC   D2A57568  17.495   2.031   6.606
 4387POPC   C3A57569  17.451   1.936   7.056
 4387POPC   C4A57570  17.588   1.901   7.491
 4387POPC   C1B57571  17.228   2.270   6.237
 4387POPC   C2B57572  17.302   2.489   6.677
 4387POPC   C3B57573  17.202   2.409   7.135
 4387POPC   C4B57574  17.172   2.246   7.545
 4388POPC   NC357575  10.814  23.534   5.683
 4388POPC   PO457576  10.250  23.684   5.285
 4388POPC   GL157577  10.295  23.551   5.746
 4388POPC   GL257578  10.525  23.330   6.032
 4388POPC   C1A57579  10.315  23.762   6.149
 4388POPC   D2A57580  10.335  23.545   6.517
 4388POPC   C3A57581  10.250  23.729   6.887
 4388POPC   C4A57582  10.508  23.901   7.160
 4388POPC   C1B57583  10.795  23.666   6.299
 4388POPC   C2B57584  10.741  23.834   6.696
 4388POPC   C3B57585  10.698  23.482   6.911
 4388POPC   C4B57586  10.751  23.282   7.245
 4389POPC   NC357587  37.613  39.822   5.435
 4389POPC   PO457588  38.032  40.306   5.464
 4389POPC   GL157589  37.785  40.206   5.797
 4389POPC   GL257590  37.973  40.423   5.983
 4389POPC   C1A57591  37.680  39.961   6.185
 4389POPC   D2A57592  37.440  39.880   6.558
 4389POPC   C3A57593  37.607  39.801   6.946
 4389POPC   C4A57594  37.493  39.863   7.381
 4389POPC   C1B57595  38.034  40.256   6.403
 4389POPC   C2B57596  38.040  40.039   6.795
 4389POPC   C3B57597  37.998  39.954   7.238
 4389POPC   C4B57598  37.850  40.181   7.587
 4390POPC   NC357599   8.992  43.756   5.263
 4390POPC   PO457600   9.137  44.424   5.504
 4390POPC   GL157601   9.141  44.124   5.848
 4390POPC   GL257602   9.328  43.801   5.737
 4390POPC   C1A57603   8.935  44.129   6.279
 4390POPC   D2A57604   8.703  43.891   6.635
 4390POPC   C3A57605   8.826  43.955   7.090
 4390POPC   C4A57606   9.141  44.114   7.427
 4390POPC   C1B57607   9.234  43.723   6.189
 4390POPC   C2B57608   9.112  43.580   6.610
 4390POPC   C3B57609   9.217  43.640   7.086
 4390POPC   C4B57610   9.151  43.616   7.569
 4391POPC   NC357611  29.602  21.554   5.619
 4391POPC   PO457612  30.241  21.417   5.421
 4391POPC   GL157613  30.194  21.367   5.842
 4391POPC   GL257614  30.246  21.712   5.900
 4391POPC   C1A57615  30.065  21.208   6.249
 4391POPC   D2A57616  29.842  21.274   6.636
 4391POPC   C3A57617  30.088  21.274   7.002
 4391POPC   C4A57618  30.117  21.034   7.417
 4391POPC   C1B57619  29.983  21.717   6.259
 4391POPC   C2B57620  29.702  21.769   6.608
 4391POPC   C3B57621  29.757  21.714   7.054
 4391POPC   C4B57622  30.107  21.885   7.286
 4392POPC   NC357623  31.171  44.203   5.568
 4392POPC   PO457624  31.606  44.638   5.252
 4392POPC   GL157625  31.544  44.683   5.713
 4392POPC   GL257626  31.451  44.415   5.920
 4392POPC   C1A57627  31.564  44.867   6.150
 4392POPC   D2A57628  31.703  44.838   6.590
 4392POPC   C3A57629  31.377  44.801   6.892
 4392POPC   C4A57630  31.386  44.926   7.318
 4392POPC   C1B57631  31.554  44.395   6.340
 4392POPC   C2B57632  31.631  44.343   6.772
 4392POPC   C3B57633  31.710  44.511   7.160
 4392POPC   C4B57634  31.573  44.508   7.549
 4393POPC   NC357635  12.907  22.830   5.438
 4393POPC   PO457636  13.439  23.294   5.305
 4393POPC   GL157637  13.042  23.251   5.678
 4393POPC   GL257638  13.110  22.932   5.913
 4393POPC   C1A57639  12.738  23.187   6.083
 4393POPC   D2A57640  12.440  22.969   6.371
 4393POPC   C3A57641  12.549  23.008   6.808
 4393POPC   C4A57642  12.650  22.831   7.196
 4393POPC   C1B57643  13.314  22.719   6.238
 4393POPC   C2B57644  13.218  22.859   6.624
 4393POPC   C3B57645  13.224  22.914   7.034
 4393POPC   C4B57646  12.987  23.207   7.211
 4394POPC   NC357647  14.482  37.314   5.565
 4394POPC   PO457648  14.039  37.761   5.472
 4394POPC   GL157649  14.305  37.804   5.878
 4394POPC   GL257650  14.662  37.722   5.829
 4394POPC   C1A57651  14.359  37.683   6.358
 4394POPC   D2A57652  14.097  37.454   6.712
 4394POPC   C3A57653  14.149  37.674   7.118
 4394POPC   C4A57654  14.492  37.761   7.404
 4394POPC   C1B57655  14.763  37.404   6.150
 4394POPC   C2B57656  14.577  37.237   6.538
 4394POPC   C3B57657  14.571  37.432   6.932
 4394POPC   C4B57658  14.964  37.502   7.083
 4395POPC   NC357659  21.397  24.714   5.282
 4395POPC   PO457660  21.656  24.103   5.373
 4395POPC   GL157661  21.568  24.406   5.745
 4395POPC   GL257662  21.555  24.794   5.744
 4395POPC   C1A57663  21.629  24.570   6.199
 4395POPC   D2A57664  21.624  24.454   6.629
 4395POPC   C3A57665  21.209  24.444   6.846
 4395POPC   C4A57666  21.123  24.392   7.299
 4395POPC   C1B57667  21.229  24.855   6.072
 4395POPC   C2B57668  21.312  24.912   6.527
 4395POPC   C3B57669  21.466  24.871   6.965
 4395POPC   C4B57670  21.210  24.901   7.333
 4396POPC   NC357671   9.301  17.628   5.310
 4396POPC   PO457672   8.758  17.460   5.557
 4396POPC   GL157673   8.981  17.643   5.876
 4396POPC   GL257674   9.318  17.676   5.832
 4396POPC   C1A57675   9.021  17.736   6.291
 4396POPC   D2A57676   8.886  17.564   6.654
 4396POPC   C3A57677   8.844  17.881   6.917
 4396POPC   C4A57678   8.764  17.874   7.298
 4396POPC   C1B57679   9.292  17.306   6.124
 4396POPC   C2B57680   9.310  17.216   6.595
 4396POPC   C3B57681   9.272  17.457   7.003
 4396POPC   C4B57682   9.344  17.888   7.201
 4397POPC   NC357683  21.382  40.067   5.300
 4397POPC   PO457684  21.162  39.486   5.426
 4397POPC   GL157685  21.374  39.764   5.768
 4397POPC   GL257686  21.523  40.141   5.796
 4397POPC   C1A57687  21.356  39.911   6.211
 4397POPC   D2A57688  21.489  40.133   6.589
 4397POPC   C3A57689  21.345  40.009   6.969
 4397POPC   C4A57690  21.187  39.683   7.206
 4397POPC   C1B57691  21.822  40.145   6.192
 4397POPC   C2B57692  21.959  40.299   6.668
 4397POPC   C3B57693  21.786  40.296   7.103
 4397POPC   C4B57694  21.596  39.979   7.417
 4398POPC   NC357695  33.335  19.528   5.290
 4398POPC   PO457696  32.825  20.017   5.374
 4398POPC   GL157697  33.059  20.026   5.733
 4398POPC   GL257698  33.046  19.667   5.705
 4398POPC   C1A57699  32.929  19.966   6.164
 4398POPC   D2A57700  32.691  19.779   6.540
 4398POPC   C3A57701  32.924  19.814   6.943
 4398POPC   C4A57702  33.123  20.121   7.192
 4398POPC   C1B57703  33.251  19.590   6.096
 4398POPC   C2B57704  33.213  19.726   6.528
 4398POPC   C3B57705  33.323  19.492   6.872
 4398POPC   C4B57706  33.424  19.678   7.253
 4399POPC   NC357707  40.881   4.691   5.484
 4399POPC   PO457708  40.762   3.979   5.334
 4399POPC   GL157709  40.813   4.190   5.692
 4399POPC   GL257710  41.063   3.979   5.809
 4399POPC   C1A57711  40.629   4.397   6.052
 4399POPC   D2A57712  40.567   4.298   6.474
 4399POPC   C3A57713  40.811   4.528   6.739
 4399POPC   C4A57714  40.817   4.506   7.159
 4399POPC   C1B57715  40.886   3.984   6.191
 4399POPC   C2B57716  40.810   3.852   6.590
 4399POPC   C3B57717  40.788   4.044   6.958
 4399POPC   C4B57718  41.150   4.117   7.173
 4400POPC   NC357719  41.588   5.662   5.129
 4400POPC   PO457720  41.874   5.701   5.690
 4400POPC   GL157721  41.701   5.659   6.082
 4400POPC   GL257722  41.358   5.782   5.986
 4400POPC   C1A57723  41.831   5.759   6.516
 4400POPC   D2A57724  41.598   6.081   6.716
 4400POPC   C3A57725  41.333   6.126   7.096
 4400POPC   C4A57726  41.653   6.244   7.435
 4400POPC   C1B57727  41.313   5.686   6.434
 4400POPC   C2B57728  41.563   5.344   6.649
 4400POPC   C3B57729  41.773   5.440   6.990
 4400POPC   C4B57730  41.732   5.827   7.152
 4401POPC   NC357731  31.236  18.662   5.446
 4401POPC   PO457732  31.491  19.228   5.285
 4401POPC   GL157733  31.625  19.219   5.700
 4401POPC   GL257734  31.654  18.871   5.727
 4401POPC   C1A57735  31.411  19.205   6.101
 4401POPC   D2A57736  31.145  19.243   6.454
 4401POPC   C3A57737  31.283  19.078   6.825
 4401POPC   C4A57738  31.535  19.191   7.170
 4401POPC   C1B57739  31.851  18.948   6.118
 4401POPC   C2B57740  31.673  18.964   6.525
 4401POPC   C3B57741  31.911  18.946   6.911
 4401POPC   C4B57742  31.827  18.791   7.312
 4402POPC   NC357743  25.319  31.040   5.652
 4402POPC   PO457744  25.025  31.579   5.389
 4402POPC   GL157745  25.258  31.560   5.778
 4402POPC   GL257746  25.618  31.552   5.770
 4402POPC   C1A57747  25.376  31.527   6.225
 4402POPC   D2A57748  25.201  31.583   6.632
 4402POPC   C3A57749  25.260  31.239   6.916
 4402POPC   C4A57750  25.134  31.275   7.332
 4402POPC   C1B57751  25.840  31.336   6.105
 4402POPC   C2B57752  25.726  31.318   6.542
 4402POPC   C3B57753  25.643  31.571   6.880
 4402POPC   C4B57754  25.641  31.359   7.285
 4403POPC   NC357755  25.113  13.915   5.436
 4403POPC   PO457756  25.590  13.531   5.509
 4403POPC   GL157757  25.261  13.560   5.826
 4403POPC   GL257758  24.934  13.583   5.812
 4403POPC   C1A57759  25.063  13.781   6.249
 4403POPC   D2A57760  24.936  13.681   6.675
 4403POPC   C3A57761  25.170  13.816   7.032
 4403POPC   C4A57762  25.262  13.539   7.365
 4403POPC   C1B57763  25.069  13.276   6.191
 4403POPC   C2B57764  25.237  13.272   6.595
 4403POPC   C3B57765  25.049  13.231   6.989
 4403POPC   C4B57766  24.863  13.161   7.379
 4404POPC   NC357767  42.647   3.480   5.192
 4404POPC   PO457768  43.290   3.609   5.517
 4404POPC   GL157769  43.275   3.778   5.880
 4404POPC   GL257770  42.934   3.859   5.939
 4404POPC   C1A57771  43.371   3.582   6.284
 4404POPC   D2A57772  43.166   3.412   6.629
 4404POPC   C3A57773  43.295   3.535   7.034
 4404POPC   C4A57774  43.190   3.773   7.372
 4404POPC   C1B57775  42.828   3.749   6.360
 4404POPC   C2B57776  42.893   3.800   6.805
 4404POPC   C3B57777  42.797   3.525   7.139
 4404POPC   C4B57778  42.498   3.405   7.427
 4405POPC   NC357779  36.989   0.504   5.361
 4405POPC   PO457780  37.380  44.953   5.422
 4405POPC   GL157781  37.281   0.187   5.804
 4405POPC   GL257782  37.278   0.555   5.829
 4405POPC   C1A57783  37.113   0.167   6.229
 4405POPC   D2A57784  37.095   0.310   6.704
 4405POPC   C3A57785  36.883   0.229   7.139
 4405POPC   C4A57786  36.961   0.196   7.629
 4405POPC   C1B57787  37.089   0.683   6.270
 4405POPC   C2B57788  36.970   0.837   6.718
 4405POPC   C3B57789  36.793   0.750   7.128
 4405POPC   C4B57790  36.572   0.516   7.464
 4406POPC   NC357791  20.449  30.196   5.417
 4406POPC   PO457792  20.530  30.915   5.475
 4406POPC   GL157793  20.631  30.757   5.868
 4406POPC   GL257794  20.542  30.478   5.947
 4406POPC   C1A57795  20.610  30.863   6.320
 4406POPC   D2A57796  20.921  30.923   6.655
 4406POPC   C3A57797  20.736  30.863   7.051
 4406POPC   C4A57798  20.901  30.731   7.417
 4406POPC   C1B57799  20.695  30.339   6.313
 4406POPC   C2B57800  20.672  30.493   6.687
 4406POPC   C3B57801  20.670  30.353   7.070
 4406POPC   C4B57802  20.688  30.077   7.347
 4407POPC   NC357803  30.352   0.510   5.469
 4407POPC   PO457804  30.791  44.991   5.415
 4407POPC   GL157805  30.735   0.149   5.844
 4407POPC   GL257806  30.374   0.209   5.934
 4407POPC   C1A57807  30.714   0.484   6.188
 4407POPC   D2A57808  30.470   0.412   6.574
 4407POPC   C3A57809  30.702   0.241   6.935
 4407POPC   C4A57810  30.805   0.581   7.220
 4407POPC   C1B57811  30.204   0.027   6.360
 4407POPC   C2B57812  30.109   0.157   6.827
 4407POPC   C3B57813  30.275   0.402   7.180
 4407POPC   C4B57814  30.449   0.318   7.568
 4408POPC   NC357815  12.936   3.657   5.376
 4408POPC   PO457816  12.477   3.220   5.527
 4408POPC   GL157817  12.736   3.421   5.892
 4408POPC   GL257818  12.923   3.731   5.863
 4408POPC   C1A57819  12.817   3.396   6.376
 4408POPC   D2A57820  12.766   3.249   6.828
 4408POPC   C3A57821  12.920   3.527   7.171
 4408POPC   C4A57822  12.805   3.862   7.441
 4408POPC   C1B57823  13.212   3.667   6.209
 4408POPC   C2B57824  13.143   3.656   6.673
 4408POPC   C3B57825  13.352   3.768   7.048
 4408POPC   C4B57826  13.292   3.735   7.508
 4409POPC   NC357827  11.381  39.489   5.362
 4409POPC   PO457828  11.477  38.903   5.509
 4409POPC   GL157829  11.613  39.183   5.846
 4409POPC   GL257830  11.516  39.546   5.855
 4409POPC   C1A57831  11.650  39.356   6.295
 4409POPC   D2A57832  11.509  39.515   6.682
 4409POPC   C3A57833  11.419  39.216   7.007
 4409POPC   C4A57834  11.538  38.794   7.140
 4409POPC   C1B57835  11.168  39.451   6.194
 4409POPC   C2B57836  11.017  39.347   6.649
 4409POPC   C3B57837  10.932  39.328   7.109
 4409POPC   C4B57838  11.211  39.511   7.427
 4410POPC   NC357839  18.440   4.403   5.438
 4410POPC   PO457840  17.777   4.289   5.345
 4410POPC   GL157841  18.013   4.221   5.729
 4410POPC   GL257842  18.356   4.135   5.849
 4410POPC   C1A57843  18.000   3.983   6.152
 4410POPC   D2A57844  18.365   3.913   6.410
 4410POPC   C3A57845  18.435   4.039   6.847
 4410POPC   C4A57846  18.248   4.297   7.197
 4410POPC   C1B57847  18.593   4.339   6.152
 4410POPC   C2B57848  18.580   4.549   6.542
 4410POPC   C3B57849  18.667   4.490   6.961
 4410POPC   C4B57850  18.573   4.669   7.345
 4411POPC   NC357851  26.176  35.646   5.280
 4411POPC   PO457852  25.779  35.193   5.354
 4411POPC   GL157853  25.926  35.153   5.741
 4411POPC   GL257854  26.166  35.417   5.753
 4411POPC   C1A57855  25.922  35.265   6.177
 4411POPC   D2A57856  26.177  35.131   6.493
 4411POPC   C3A57857  26.028  35.184   6.878
 4411POPC   C4A57858  25.973  35.529   7.114
 4411POPC   C1B57859  26.368  35.511   6.157
 4411POPC   C2B57860  26.324  35.644   6.571
 4411POPC   C3B57861  26.465  35.453   6.932
 4411POPC   C4B57862  26.441  35.630   7.311
 4412POPC   NC357863   7.334  14.058   5.439
 4412POPC   PO457864   7.677  14.632   5.353
 4412POPC   GL157865   7.547  14.506   5.731
 4412POPC   GL257866   7.726  14.211   5.828
 4412POPC   C1A57867   7.499  14.658   6.146
 4412POPC   D2A57868   7.668  14.463   6.510
 4412POPC   C3A57869   7.447  14.582   6.860
 4412POPC   C4A57870   7.224  14.541   7.223
 4412POPC   C1B57871   7.416  14.149   6.174
 4412POPC   C2B57872   7.172  13.993   6.527
 4412POPC   C3B57873   7.275  14.099   6.937
 4412POPC   C4B57874   7.571  14.154   7.229
 4413POPC   NC357875  24.619  26.210   5.039
 4413POPC   PO457876  24.277  26.166   5.544
 4413POPC   GL157877  24.364  26.216   5.917
 4413POPC   GL257878  24.727  26.235   5.871
 4413POPC   C1A57879  24.426  26.088   6.337
 4413POPC   D2A57880  24.489  26.134   6.785
 4413POPC   C3A57881  24.219  25.841   7.004
 4413POPC   C4A57882  24.088  25.949   7.405
 4413POPC   C1B57883  24.797  25.818   6.081
 4413POPC   C2B57884  24.759  25.714   6.535
 4413POPC   C3B57885  24.893  25.841   6.965
 4413POPC   C4B57886  24.623  25.992   7.298
 4414POPC   NC357887  22.057  42.052   5.358
 4414POPC   PO457888  22.262  42.751   5.356
 4414POPC   GL157889  22.102  42.500   5.682
 4414POPC   GL257890  21.744  42.568   5.774
 4414POPC   C1A57891  22.318  42.412   6.059
 4414POPC   D2A57892  22.344  42.219   6.446
 4414POPC   C3A57893  22.197  42.355   6.830
 4414POPC   C4A57894  22.250  42.162   7.213
 4414POPC   C1B57895  21.873  42.176   6.041
 4414POPC   C2B57896  21.831  42.028   6.459
 4414POPC   C3B57897  21.710  42.182   6.847
 4414POPC   C4B57898  21.740  42.043   7.241
 4415POPC   NC357899  29.587  36.463   5.598
 4415POPC   PO457900  29.025  36.129   5.346
 4415POPC   GL157901  29.019  36.096   5.797
 4415POPC   GL257902  28.791  36.358   5.898
 4415POPC   C1A57903  29.204  35.903   6.202
 4415POPC   D2A57904  29.390  35.622   6.500
 4415POPC   C3A57905  29.325  35.784   6.920
 4415POPC   C4A57906  28.993  35.745   7.188
 4415POPC   C1B57907  29.070  36.398   6.219
 4415POPC   C2B57908  28.897  36.265   6.583
 4415POPC   C3B57909  29.043  36.216   6.969
 4415POPC   C4B57910  29.303  36.517   7.159
 4416POPC   NC357911  19.995  21.623   5.518
 4416POPC   PO457912  19.594  21.048   5.540
 4416POPC   GL157913  19.880  21.279   5.867
 4416POPC   GL257914  19.853  21.697   5.991
 4416POPC   C1A57915  20.020  21.338   6.285
 4416POPC   D2A57916  19.725  21.426   6.604
 4416POPC   C3A57917  19.986  21.456   6.913
 4416POPC   C4A57918  20.087  21.526   7.294
 4416POPC   C1B57919  19.635  21.902   6.345
 4416POPC   C2B57920  19.666  21.926   6.796
 4416POPC   C3B57921  19.601  21.669   7.188
 4416POPC   C4B57922  19.565  21.685   7.656
 4417POPC   NC357923  43.928  28.898   4.906
 4417POPC   PO457924  43.710  29.189   5.532
 4417POPC   GL157925  43.879  29.231   5.923
 4417POPC   GL257926  44.168  29.392   5.759
 4417POPC   C1A57927  43.703  29.125   6.332
 4417POPC   D2A57928  43.942  28.861   6.636
 4417POPC   C3A57929  43.996  28.955   7.097
 4417POPC   C4A57930  43.729  28.960   7.494
 4417POPC   C1B57931  44.180  29.519   6.211
 4417POPC   C2B57932  44.369  29.662   6.614
 4417POPC   C3B57933  44.421  29.589   7.047
 4417POPC   C4B57934  44.257  29.503   7.453
 4418POPC   NC357935  26.406  36.324   5.410
 4418POPC   PO457936  25.795  35.948   5.297
 4418POPC   GL157937  25.953  35.904   5.702
 4418POPC   GL257938  26.051  36.250   5.799
 4418POPC   C1A57939  26.020  35.868   6.151
 4418POPC   D2A57940  26.132  36.136   6.480
 4418POPC   C3A57941  26.048  35.992   6.904
 4418POPC   C4A57942  26.046  35.951   7.365
 4418POPC   C1B57943  26.297  36.502   6.090
 4418POPC   C2B57944  26.437  36.572   6.495
 4418POPC   C3B57945  26.345  36.414   6.866
 4418POPC   C4B57946  26.108  36.420   7.225
 4419POPC   NC357947  34.448  21.907   5.293
 4419POPC   PO457948  34.862  22.425   5.385
 4419POPC   GL157949  34.639  22.226   5.776
 4419POPC   GL257950  34.425  21.938   5.816
 4419POPC   C1A57951  34.558  22.210   6.267
 4419POPC   D2A57952  34.668  22.177   6.747
 4419POPC   C3A57953  34.439  22.402   7.125
 4419POPC   C4A57954  34.313  22.413   7.589
 4419POPC   C1B57955  34.479  21.713   6.207
 4419POPC   C2B57956  34.550  21.654   6.649
 4419POPC   C3B57957  34.463  21.839   7.070
 4419POPC   C4B57958  34.631  22.049   7.457
 4420POPC   NC357959  10.393   2.011   5.223
 4420POPC   PO457960  10.922   1.690   5.506
 4420POPC   GL157961  10.561   1.855   5.691
 4420POPC   GL257962  10.498   1.576   5.886
 4420POPC   C1A57963  10.463   2.130   6.053
 4420POPC   D2A57964  10.515   2.020   6.493
 4420POPC   C3A57965  10.328   2.246   6.825
 4420POPC   C4A57966  10.419   2.167   7.246
 4420POPC   C1B57967  10.810   1.745   6.170
 4420POPC   C2B57968  10.927   1.684   6.589
 4420POPC   C3B57969  10.690   1.810   6.936
 4420POPC   C4B57970  10.671   1.656   7.341
 4421POPC   NC357971  24.810  21.562   5.394
 4421POPC   PO457972  24.132  21.399   5.469
 4421POPC   GL157973  24.300  21.470   5.892
 4421POPC   GL257974  24.607  21.597   5.886
 4421POPC   C1A57975  24.465  21.366   6.324
 4421POPC   D2A57976  24.405  21.053   6.629
 4421POPC   C3A57977  24.137  21.298   6.843
 4421POPC   C4A57978  24.223  21.314   7.262
 4421POPC   C1B57979  24.405  21.867   6.220
 4421POPC   C2B57980  24.286  21.754   6.645
 4421POPC   C3B57981  24.590  21.524   6.922
 4421POPC   C4B57982  24.752  21.625   7.366
 4422POPC   NC357983  11.780  44.095   5.104
 4422POPC   PO457984  12.319  44.039   5.500
 4422POPC   GL157985  12.435  43.894   5.870
 4422POPC   GL257986  12.094  43.947   5.992
 4422POPC   C1A57987  12.483  43.831   6.304
 4422POPC   D2A57988  12.255  44.012   6.637
 4422POPC   C3A57989  12.294  43.698   6.923
 4422POPC   C4A57990  12.382  43.818   7.335
 4422POPC   C1B57991  11.972  43.684   6.336
 4422POPC   C2B57992  11.761  43.794   6.731
 4422POPC   C3B57993  11.929  43.998   7.103
 4422POPC   C4B57994  11.825  43.903   7.542
 4423POPC   NC357995   9.563  21.780   5.550
 4423POPC   PO457996   9.934  21.234   5.355
 4423POPC   GL157997   9.775  21.359   5.761
 4423POPC   GL257998   9.981  21.681   5.838
 4423POPC   C1A57999   9.645  21.137   6.147
 4423POPC   D2A58000   9.869  21.092   6.550
 4423POPC   C3A58001   9.670  21.137   6.912
 4423POPC   C4A58002   9.785  21.113   7.332
 4423POPC   C1B58003   9.675  21.653   6.195
 4423POPC   C2B58004   9.550  21.524   6.599
 4423POPC   C3B58005   9.728  21.625   7.003
 4423POPC   C4B58006   9.712  21.618   7.436
 4424POPC   NC358007  43.262  16.379   5.227
 4424POPC   PO458008  42.679  16.559   5.412
 4424POPC   GL158009  42.941  16.241   5.706
 4424POPC   GL258010  43.312  16.209   5.745
 4424POPC   C1A58011  43.048  16.083   6.171
 4424POPC   D2A58012  43.299  16.107   6.584
 4424POPC   C3A58013  43.177  15.997   7.020
 4424POPC   C4A58014  43.060  15.850   7.446
 4424POPC   C1B58015  43.511  16.346   6.168
 4424POPC   C2B58016  43.704  16.414   6.603
 4424POPC   C3B58017  43.665  16.158   6.985
 4424POPC   C4B58018  43.531  16.113   7.425
 4425POPC   NC358019  20.279  11.754   5.343
 4425POPC   PO458020  20.335  12.329   5.584
 4425POPC   GL158021  20.408  11.938   5.858
 4425POPC   GL258022  20.231  11.590   5.815
 4425POPC   C1A58023  20.624  11.885   6.284
 4425POPC   D2A58024  20.525  12.018   6.712
 4425POPC   C3A58025  20.829  11.817   6.997
 4425POPC   C4A58026  20.756  11.790   7.423
 4425POPC   C1B58027  20.177  11.681   6.245
 4425POPC   C2B58028  20.404  11.529   6.617
 4425POPC   C3B58029  20.368  11.640   7.060
 4425POPC   C4B58030  20.285  11.959   7.409
 4426POPC   NC358031  12.544  10.328   5.341
 4426POPC   PO458032  12.085  10.815   5.519
 4426POPC   GL158033  12.040  10.690   5.881
 4426POPC   GL258034  12.211  10.397   5.772
 4426POPC   C1A58035  11.836  10.700   6.248
 4426POPC   D2A58036  12.083  10.589   6.588
 4426POPC   C3A58037  11.979  10.720   6.993
 4426POPC   C4A58038  12.366  10.650   7.139
 4426POPC   C1B58039  11.992  10.204   6.083
 4426POPC   C2B58040  12.044  10.078   6.516
 4426POPC   C3B58041  11.965  10.216   6.937
 4426POPC   C4B58042  11.950  10.034   7.369
 4427POPC   NC358043  26.957  24.889   5.156
 4427POPC   PO458044  26.757  25.509   5.403
 4427POPC   GL158045  26.991  25.362   5.740
 4427POPC   GL258046  27.170  25.108   5.566
 4427POPC   C1A58047  27.073  25.353   6.177
 4427POPC   D2A58048  26.813  25.271   6.524
 4427POPC   C3A58049  26.977  25.436   6.887
 4427POPC   C4A58050  26.817  25.354   7.275
 4427POPC   C1B58051  27.207  24.900   5.971
 4427POPC   C2B58052  27.106  24.866   6.406
 4427POPC   C3B58053  27.064  24.858   6.840
 4427POPC   C4B58054  27.232  25.029   7.220
 4428POPC   NC358055  34.822  27.907   5.331
 4428POPC   PO458056  34.876  27.214   5.525
 4428POPC   GL158057  34.586  27.438   5.826
 4428POPC   GL258058  34.550  27.811   5.832
 4428POPC   C1A58059  34.480  27.546   6.263
 4428POPC   D2A58060  34.724  27.626   6.636
 4428POPC   C3A58061  34.560  27.450   7.000
 4428POPC   C4A58062  34.428  27.646   7.381
 4428POPC   C1B58063  34.836  27.918   6.222
 4428POPC   C2B58064  35.076  28.006   6.611
 4428POPC   C3B58065  34.924  27.940   7.046
 4428POPC   C4B58066  34.721  28.079   7.392
 4429POPC   NC358067   7.353   3.068   5.488
 4429POPC   PO458068   6.985   2.585   5.491
 4429POPC   GL158069   7.361   2.534   5.797
 4429POPC   GL258070   7.663   2.789   5.816
 4429POPC   C1A58071   7.519   2.587   6.255
 4429POPC   D2A58072   7.673   2.706   6.657
 4429POPC   C3A58073   7.375   2.839   6.981
 4429POPC   C4A58074   7.240   2.901   7.398
 4429POPC   C1B58075   7.680   3.078   6.230
 4429POPC   C2B58076   7.674   3.233   6.697
 4429POPC   C3B58077   7.492   3.358   7.143
 4429POPC   C4B58078   7.342   3.352   7.609
 4430POPC   NC358079  28.219  27.107   5.276
 4430POPC   PO458080  28.367  26.493   5.470
 4430POPC   GL158081  28.156  26.721   5.770
 4430POPC   GL258082  28.119  27.091   5.783
 4430POPC   C1A58083  28.231  26.549   6.172
 4430POPC   D2A58084  28.065  26.406   6.535
 4430POPC   C3A58085  28.218  26.551   6.910
 4430POPC   C4A58086  28.185  26.790   7.295
 4430POPC   C1B58087  28.363  27.054   6.158
 4430POPC   C2B58088  28.469  26.856   6.548
 4430POPC   C3B58089  28.500  27.011   6.941
 4430POPC   C4B58090  28.599  27.109   7.342
 4431POPC   NC358091   5.367  16.251   5.105
 4431POPC   PO458092   4.844  16.687   5.374
 4431POPC   GL158093   5.079  16.838   5.741
 4431POPC   GL258094   5.041  16.523   5.856
 4431POPC   C1A58095   5.310  16.892   6.133
 4431POPC   D2A58096   5.176  16.710   6.513
 4431POPC   C3A58097   5.294  16.727   6.946
 4431POPC   C4A58098   5.464  17.003   7.258
 4431POPC   C1B58099   4.839  16.401   6.232
 4431POPC   C2B58100   4.935  16.288   6.658
 4431POPC   C3B58101   4.755  16.508   7.012
 4431POPC   C4B58102   5.007  16.531   7.367
 4432POPC   NC358103   6.397   9.481   5.229
 4432POPC   PO458104   6.832   9.100   5.533
 4432POPC   GL158105   6.555   9.136   5.871
 4432POPC   GL258106   6.276   9.229   5.718
 4432POPC   C1A58107   6.551   8.972   6.303
 4432POPC   D2A58108   6.708   8.593   6.580
 4432POPC   C3A58109   6.656   8.682   7.012
 4432POPC   C4A58110   6.438   9.096   7.056
 4432POPC   C1B58111   6.174   9.402   6.122
 4432POPC   C2B58112   6.257   9.337   6.556
 4432POPC   C3B58113   6.180   9.552   6.945
 4432POPC   C4B58114   6.331   9.513   7.340
 4433POPC   NC358115  26.949   6.360   5.412
 4433POPC   PO458116  26.774   7.008   5.533
 4433POPC   GL158117  26.946   6.836   5.891
 4433POPC   GL258118  27.117   6.477   5.875
 4433POPC   C1A58119  26.715   6.961   6.289
 4433POPC   D2A58120  26.664   7.125   6.745
 4433POPC   C3A58121  26.705   6.826   7.118
 4433POPC   C4A58122  26.409   6.579   7.422
 4433POPC   C1B58123  26.920   6.492   6.286
 4433POPC   C2B58124  26.674   6.547   6.643
 4433POPC   C3B58125  26.691   6.330   7.026
 4433POPC   C4B58126  26.881   6.417   7.435
 4434POPC   NC358127  21.815  21.943   5.052
 4434POPC   PO458128  21.195  21.896   5.434
 4434POPC   GL158129  21.387  22.068   5.795
 4434POPC   GL258130  21.750  21.974   5.828
 4434POPC   C1A58131  21.198  22.325   6.125
 4434POPC   D2A58132  21.056  22.220   6.523
 4434POPC   C3A58133  21.345  22.033   6.830
 4434POPC   C4A58134  21.281  22.085   7.270
 4434POPC   C1B58135  21.653  22.126   6.274
 4434POPC   C2B58136  21.588  22.442   6.628
 4434POPC   C3B58137  21.705  22.543   7.082
 4434POPC   C4B58138  21.679  22.323   7.522
 4435POPC   NC358139  37.224  33.313   5.002
 4435POPC   PO458140  37.045  32.841   5.393
 4435POPC   GL158141  36.859  33.016   5.777
 4435POPC   GL258142  37.022  33.315   5.828
 4435POPC   C1A58143  36.773  33.139   6.230
 4435POPC   D2A58144  36.949  33.027   6.623
 4435POPC   C3A58145  36.730  33.175   6.994
 4435POPC   C4A58146  36.844  32.892   7.294
 4435POPC   C1B58147  37.277  33.230   6.214
 4435POPC   C2B58148  37.282  33.436   6.627
 4435POPC   C3B58149  37.244  33.254   7.050
 4435POPC   C4B58150  37.006  33.371   7.410
 4436POPC   NC358151  11.158  21.119   5.538
 4436POPC   PO458152  11.416  20.528   5.504
 4436POPC   GL158153  11.379  20.786   5.840
 4436POPC   GL258154  11.044  20.615   5.905
 4436POPC   C1A58155  11.219  20.965   6.213
 4436POPC   D2A58156  11.163  20.673   6.535
 4436POPC   C3A58157  11.113  20.839   6.923
 4436POPC   C4A58158  11.264  20.685   7.311
 4436POPC   C1B58159  11.356  20.374   6.138
 4436POPC   C2B58160  11.504  20.261   6.511
 4436POPC   C3B58161  11.446  20.399   6.916
 4436POPC   C4B58162  11.405  20.200   7.291
 4437POPC   NC358163   6.675  35.013   5.196
 4437POPC   PO458164   6.991  34.467   5.441
 4437POPC   GL158165   6.973  34.389   5.873
 4437POPC   GL258166   6.735  34.677   5.898
 4437POPC   C1A58167   6.853  34.406   6.327
 4437POPC   D2A58168   6.628  34.494   6.692
 4437POPC   C3A58169   6.931  34.434   7.026
 4437POPC   C4A58170   6.959  34.686   7.361
 4437POPC   C1B58171   6.379  34.732   6.239
 4437POPC   C2B58172   6.426  34.954   6.635
 4437POPC   C3B58173   6.517  34.891   7.068
 4437POPC   C4B58174   6.446  34.451   7.178
 4438POPC   NC358175  13.747  40.142   5.590
 4438POPC   PO458176  13.502  39.488   5.457
 4438POPC   GL158177  13.414  39.724   5.832
 4438POPC   GL258178  13.306  40.089   5.891
 4438POPC   C1A58179  13.602  39.712   6.235
 4438POPC   D2A58180  13.405  39.932   6.540
 4438POPC   C3A58181  13.504  40.029   6.930
 4438POPC   C4A58182  13.811  40.174   7.179
 4438POPC   C1B58183  13.463  40.368   6.239
 4438POPC   C2B58184  13.570  40.478   6.676
 4438POPC   C3B58185  13.401  40.508   7.098
 4438POPC   C4B58186  13.360  40.435   7.526
 4439POPC   NC358187  30.499  42.181   5.374
 4439POPC   PO458188  29.906  42.464   5.183
 4439POPC   GL158189  29.943  42.259   5.575
 4439POPC   GL258190  30.091  41.947   5.611
 4439POPC   C1A58191  29.692  42.160   5.952
 4439POPC   D2A58192  29.673  42.054   6.407
 4439POPC   C3A58193  29.876  42.260   6.753
 4439POPC   C4A58194  29.907  42.480   7.148
 4439POPC   C1B58195  30.150  41.958   6.093
 4439POPC   C2B58196  30.268  41.956   6.564
 4439POPC   C3B58197  30.059  41.815   6.966
 4439POPC   C4B58198  30.218  41.669   7.369
 4440POPC   NC358199  43.270  42.800   5.517
 4440POPC   PO458200  42.929  43.373   5.510
 4440POPC   GL158201  43.198  43.243   5.850
 4440POPC   GL258202  42.983  42.963   5.910
 4440POPC   C1A58203  43.280  43.283   6.298
 4440POPC   D2A58204  43.099  43.342   6.718
 4440POPC   C3A58205  43.306  43.100   7.034
 4440POPC   C4A58206  43.138  43.063   7.436
 4440POPC   C1B58207  43.276  42.778   6.212
 4440POPC   C2B58208  43.099  42.822   6.628
 4440POPC   C3B58209  42.914  42.758   7.050
 4440POPC   C4B58210  42.978  42.565   7.469
 4441POPC   NC358211  10.867  32.392   5.319
 4441POPC   PO458212  10.257  32.010   5.393
 4441POPC   GL158213  10.576  32.125   5.714
 4441POPC   GL258214  10.387  32.337   5.900
 4441POPC   C1A58215  10.795  32.124   6.164
 4441POPC   D2A58216  10.956  32.056   6.636
 4441POPC   C3A58217  10.650  32.258   6.979
 4441POPC   C4A58218  10.617  32.234   7.427
 4441POPC   C1B58219  10.419  32.431   6.330
 4441POPC   C2B58220  10.336  32.614   6.723
 4441POPC   C3B58221  10.256  32.615   7.162
 4441POPC   C4B58222  10.203  32.597   7.598
 4442POPC   NC358223  10.810  10.200   5.451
 4442POPC   PO458224  10.335   9.701   5.482
 4442POPC   GL158225  10.562   9.788   5.826
 4442POPC   GL258226  10.481  10.120   5.854
 4442POPC   C1A58227  10.689   9.627   6.236
 4442POPC   D2A58228  10.515   9.530   6.647
 4442POPC   C3A58229  10.657   9.499   7.069
 4442POPC   C4A58230  10.530   9.698   7.497
 4442POPC   C1B58231  10.300  10.006   6.235
 4442POPC   C2B58232  10.332  10.004   6.664
 4442POPC   C3B58233  10.516  10.001   7.066
 4442POPC   C4B58234  10.262  10.101   7.403
 4443POPC   NC358235  44.809   8.497   5.416
 4443POPC   PO458236   0.148   7.960   5.472
 4443POPC   GL158237  44.748   8.025   5.758
 4443POPC   GL258238  44.637   8.373   5.882
 4443POPC   C1A58239  44.569   7.970   6.205
 4443POPC   D2A58240  44.593   7.702   6.590
 4443POPC   C3A58241  44.709   7.891   6.985
 4443POPC   C4A58242  44.438   7.896   7.350
 4443POPC   C1B58243  44.750   8.497   6.306
 4443POPC   C2B58244  44.602   8.572   6.749
 4443POPC   C3B58245  44.418   8.345   7.108
 4443POPC   C4B58246  44.462   8.347   7.571
 4444POPC   NC358247  38.553  19.881   5.345
 4444POPC   PO458248  38.104  19.448   5.577
 4444POPC   GL158249  38.349  19.732   5.843
 4444POPC   GL258250  38.673  19.624   5.821
 4444POPC   C1A58251  38.313  19.931   6.262
 4444POPC   D2A58252  38.163  20.066   6.694
 4444POPC   C3A58253  38.411  20.210   7.068
 4444POPC   C4A58254  38.559  19.979   7.450
 4444POPC   C1B58255  38.612  19.519   6.261
 4444POPC   C2B58256  38.537  19.636   6.705
 4444POPC   C3B58257  38.698  19.487   7.106
 4444POPC   C4B58258  38.842  19.570   7.543
 4445POPC   NC358259  33.832  35.623   5.377
 4445POPC   PO458260  33.844  34.963   5.484
 4445POPC   GL158261  33.753  35.327   5.812
 4445POPC   GL258262  33.555  35.669   5.803
 4445POPC   C1A58263  33.674  35.367   6.268
 4445POPC   D2A58264  33.534  35.030   6.597
 4445POPC   C3A58265  33.640  35.116   7.059
 4445POPC   C4A58266  33.988  35.169   7.361
 4445POPC   C1B58267  33.939  35.790   6.016
 4445POPC   C2B58268  34.067  35.785   6.431
 4445POPC   C3B58269  34.116  35.860   6.866
 4445POPC   C4B58270  33.908  35.835   7.257
 4446POPC   NC358271  34.796  41.808   5.463
 4446POPC   PO458272  34.862  41.081   5.490
 4446POPC   GL158273  34.632  41.387   5.774
 4446POPC   GL258274  34.742  41.701   5.948
 4446POPC   C1A58275  34.477  41.364   6.200
 4446POPC   D2A58276  34.683  41.239   6.595
 4446POPC   C3A58277  34.582  41.437   6.995
 4446POPC   C4A58278  34.205  41.611   7.152
 4446POPC   C1B58279  34.987  41.830   6.294
 4446POPC   C2B58280  34.872  41.789   6.742
 4446POPC   C3B58281  34.583  41.946   7.095
 4446POPC   C4B58282  34.755  42.008   7.515
 4447POPC   NC358283   5.933  35.364   5.293
 4447POPC   PO458284   6.420  35.018   5.588
 4447POPC   GL158285   6.092  35.143   5.881
 4447POPC   GL258286   5.784  35.275   5.778
 4447POPC   C1A58287   6.135  35.238   6.328
 4447POPC   D2A58288   6.276  35.407   6.745
 4447POPC   C3A58289   6.061  35.224   7.094
 4447POPC   C4A58290   6.158  35.227   7.534
 4447POPC   C1B58291   5.640  35.319   6.217
 4447POPC   C2B58292   5.749  35.370   6.661
 4447POPC   C3B58293   5.619  35.514   7.067
 4447POPC   C4B58294   5.624  35.393   7.515
 4448POPC   NC358295  34.907  29.138   5.200
 4448POPC   PO458296  34.220  28.974   5.254
 4448POPC   GL158297  34.384  29.069   5.720
 4448POPC   GL258298  34.753  29.160   5.745
 4448POPC   C1A58299  34.440  28.922   6.191
 4448POPC   D2A58300  34.411  28.693   6.597
 4448POPC   C3A58301  34.737  28.882   6.854
 4448POPC   C4A58302  34.785  28.992   7.291
 4448POPC   C1B58303  34.639  29.371   6.169
 4448POPC   C2B58304  34.487  29.274   6.595
 4448POPC   C3B58305  34.444  29.287   7.045
 4448POPC   C4B58306  34.536  29.600   7.359
 4449POPC   NC358307  28.047  19.932   5.313
 4449POPC   PO458308  28.535  19.441   5.439
 4449POPC   GL158309  28.594  19.694   5.812
 4449POPC   GL258310  28.354  19.954   5.751
 4449POPC   C1A58311  28.590  19.929   6.218
 4449POPC   D2A58312  28.297  19.974   6.562
 4449POPC   C3A58313  28.450  19.910   6.972
 4449POPC   C4A58314  28.308  19.611   7.274
 4449POPC   C1B58315  28.055  19.919   6.105
 4449POPC   C2B58316  27.829  20.183   6.437
 4449POPC   C3B58317  27.755  20.191   6.888
 4449POPC   C4B58318  28.010  20.047   7.255
 4450POPC   NC358319   4.452  18.728   5.396
 4450POPC   PO458320   4.056  19.189   5.128
 4450POPC   GL158321   4.113  19.328   5.667
 4450POPC   GL258322   4.136  19.114   5.938
 4450POPC   C1A58323   4.473  19.414   6.101
 4450POPC   D2A58324   4.576  19.251   6.569
 4450POPC   C3A58325   4.372  19.193   7.005
 4450POPC   C4A58326   4.338  19.358   7.452
 4450POPC   C1B58327   3.936  19.019   6.298
 4450POPC   C2B58328   3.901  19.106   6.728
 4450POPC   C3B58329   3.955  18.782   7.012
 4450POPC   C4B58330   4.113  18.911   7.380
 4451POPC   NC358331  43.450   4.902   5.439
 4451POPC   PO458332  42.920   5.305   5.357
 4451POPC   GL158333  43.061   5.109   5.763
 4451POPC   GL258334  43.345   5.175   5.863
 4451POPC   C1A58335  42.930   5.020   6.216
 4451POPC   D2A58336  43.076   5.247   6.600
 4451POPC   C3A58337  42.963   5.107   6.997
 4451POPC   C4A58338  42.966   5.336   7.341
 4451POPC   C1B58339  43.417   5.061   6.274
 4451POPC   C2B58340  43.570   5.126   6.681
 4451POPC   C3B58341  43.465   5.038   7.076
 4451POPC   C4B58342  43.252   4.729   7.302
 4452POPC   NC358343  41.878  26.001   5.334
 4452POPC   PO458344  41.265  25.606   5.408
 4452POPC   GL158345  41.487  25.923   5.700
 4452POPC   GL258346  41.734  25.740   5.773
 4452POPC   C1A58347  41.562  26.143   6.122
 4452POPC   D2A58348  41.489  26.354   6.554
 4452POPC   C3A58349  41.521  26.169   6.993
 4452POPC   C4A58350  41.261  26.015   7.348
 4452POPC   C1B58351  41.926  25.787   6.166
 4452POPC   C2B58352  41.892  26.011   6.553
 4452POPC   C3B58353  41.974  25.884   6.972
 4452POPC   C4B58354  41.737  25.799   7.335
 4453POPC   NC358355  18.101   6.174   5.509
 4453POPC   PO458356  18.466   5.640   5.434
 4453POPC   GL158357  18.598   5.802   5.853
 4453POPC   GL258358  18.446   6.127   5.899
 4453POPC   C1A58359  18.525   5.815   6.316
 4453POPC   D2A58360  18.433   6.069   6.689
 4453POPC   C3A58361  18.615   5.817   7.034
 4453POPC   C4A58362  18.363   5.493   7.221
 4453POPC   C1B58363  18.081   6.067   6.203
 4453POPC   C2B58364  17.963   5.870   6.609
 4453POPC   C3B58365  18.079   5.902   7.051
 4453POPC   C4B58366  17.913   6.171   7.345
 4454POPC   NC358367  30.669  22.667   5.557
 4454POPC   PO458368  30.834  23.279   5.571
 4454POPC   GL158369  30.573  23.034   5.910
 4454POPC   GL258370  30.362  22.690   5.960
 4454POPC   C1A58371  30.575  22.946   6.373
 4454POPC   D2A58372  30.835  22.873   6.764
 4454POPC   C3A58373  30.893  23.216   7.101
 4454POPC   C4A58374  30.735  23.154   7.548
 4454POPC   C1B58375  30.555  22.437   6.318
 4454POPC   C2B58376  30.549  22.448   6.777
 4454POPC   C3B58377  30.621  22.697   7.196
 4454POPC   C4B58378  30.528  22.585   7.627
 4455POPC   NC358379  24.479   1.835   5.435
 4455POPC   PO458380  24.135   2.404   5.273
 4455POPC   GL158381  24.414   2.272   5.694
 4455POPC   GL258382  24.358   1.936   5.930
 4455POPC   C1A58383  24.700   2.288   6.062
 4455POPC   D2A58384  24.646   2.297   6.512
 4455POPC   C3A58385  24.279   2.106   6.756
 4455POPC   C4A58386  24.205   2.128   7.239
 4455POPC   C1B58387  24.711   1.815   6.281
 4455POPC   C2B58388  24.888   1.909   6.721
 4455POPC   C3B58389  24.628   1.904   7.088
 4455POPC   C4B58390  24.440   1.694   7.449
 4456POPC   NC358391   9.019   1.382   5.329
 4456POPC   PO458392   8.829   0.761   5.495
 4456POPC   GL158393   9.034   1.079   5.740
 4456POPC   GL258394   8.771   1.330   5.798
 4456POPC   C1A58395   9.219   1.194   6.112
 4456POPC   D2A58396   8.958   1.245   6.463
 4456POPC   C3A58397   8.913   0.979   6.788
 4456POPC   C4A58398   8.966   1.018   7.223
 4456POPC   C1B58399   8.669   1.564   6.183
 4456POPC   C2B58400   8.853   1.739   6.557
 4456POPC   C3B58401   8.948   1.515   6.934
 4456POPC   C4B58402   8.717   1.472   7.298
 4457POPC   NC358403  14.620   6.811   5.145
 4457POPC   PO458404  14.288   7.097   5.601
 4457POPC   GL158405  14.369   6.687   5.793
 4457POPC   GL258406  14.221   6.373   5.640
 4457POPC   C1A58407  14.499   6.678   6.214
 4457POPC   D2A58408  14.649   6.947   6.561
 4457POPC   C3A58409  14.491   6.712   6.922
 4457POPC   C4A58410  14.407   6.411   7.239
 4457POPC   C1B58411  14.109   6.326   6.082
 4457POPC   C2B58412  14.237   6.394   6.522
 4457POPC   C3B58413  14.025   6.436   6.886
 4457POPC   C4B58414  13.925   6.228   7.243
 4458POPC   NC358415  23.527  23.389   5.285
 4458POPC   PO458416  23.448  24.031   5.635
 4458POPC   GL158417  23.772  23.800   5.858
 4458POPC   GL258418  23.631  23.461   5.793
 4458POPC   C1A58419  23.901  23.942   6.294
 4458POPC   D2A58420  23.611  24.085   6.646
 4458POPC   C3A58421  23.566  23.894   7.080
 4458POPC   C4A58422  23.741  23.836   7.505
 4458POPC   C1B58423  23.506  23.589   6.230
 4458POPC   C2B58424  23.689  23.572   6.627
 4458POPC   C3B58425  23.704  23.354   7.000
 4458POPC   C4B58426  23.457  23.413   7.340
 4459POPC   NC358427  14.707   1.369   5.338
 4459POPC   PO458428  14.094   1.037   5.485
 4459POPC   GL158429  14.098   1.266   5.858
 4459POPC   GL258430  14.439   1.448   5.867
 4459POPC   C1A58431  14.214   1.208   6.282
 4459POPC   D2A58432  14.480   1.374   6.635
 4459POPC   C3A58433  14.292   1.296   7.062
 4459POPC   C4A58434  13.951   1.324   7.407
 4459POPC   C1B58435  14.683   1.113   6.109
 4459POPC   C2B58436  14.895   1.059   6.528
 4459POPC   C3B58437  14.734   1.042   6.957
 4459POPC   C4B58438  14.739   0.831   7.345
 4460POPC   NC358439  16.227   7.719   5.461
 4460POPC   PO458440  15.953   7.045   5.389
 4460POPC   GL158441  16.102   7.265   5.730
 4460POPC   GL258442  16.459   7.327   5.684
 4460POPC   C1A58443  15.855   7.501   6.058
 4460POPC   D2A58444  15.485   7.536   6.339
 4460POPC   C3A58445  15.517   7.452   6.780
 4460POPC   C4A58446  15.668   7.481   7.154
 4460POPC   C1B58447  16.376   7.532   6.086
 4460POPC   C2B58448  16.157   7.410   6.472
 4460POPC   C3B58449  16.155   7.448   6.918
 4460POPC   C4B58450  16.114   7.242   7.299
 4461POPC   NC358451   0.618  28.528   5.550
 4461POPC   PO458452   0.002  28.186   5.381
 4461POPC   GL158453   0.273  28.200   5.747
 4461POPC   GL258454   0.083  28.424   5.890
 4461POPC   C1A58455   0.495  28.352   6.178
 4461POPC   D2A58456   0.259  28.524   6.542
 4461POPC   C3A58457   0.394  28.589   7.020
 4461POPC   C4A58458   0.631  28.391   7.373
 4461POPC   C1B58459   0.148  27.994   6.171
 4461POPC   C2B58460   0.333  28.012   6.569
 4461POPC   C3B58461   0.174  28.129   6.962
 4461POPC   C4B58462   0.221  28.081   7.398
 4462POPC   NC358463   9.767  23.401   5.281
 4462POPC   PO458464  10.118  22.830   5.377
 4462POPC   GL158465   9.929  22.796   5.749
 4462POPC   GL258466   9.738  23.074   5.663
 4462POPC   C1A58467   9.601  22.920   6.109
 4462POPC   D2A58468   9.537  23.155   6.467
 4462POPC   C3A58469   9.630  22.954   6.869
 4462POPC   C4A58470   9.677  22.733   7.291
 4462POPC   C1B58471  10.038  23.192   6.015
 4462POPC   C2B58472  10.143  23.071   6.453
 4462POPC   C3B58473  10.258  23.188   6.885
 4462POPC   C4B58474   9.929  23.176   7.200
 4463POPC   NC358475   6.068  21.094   5.200
 4463POPC   PO458476   5.674  21.688   5.451
 4463POPC   GL158477   5.866  21.408   5.773
 4463POPC   GL258478   6.192  21.283   5.704
 4463POPC   C1A58479   5.651  21.223   6.123
 4463POPC   D2A58480   5.526  21.377   6.520
 4463POPC   C3A58481   5.798  21.372   6.862
 4463POPC   C4A58482   5.600  21.394   7.250
 4463POPC   C1B58483   6.177  21.242   6.154
 4463POPC   C2B58484   6.266  21.322   6.582
 4463POPC   C3B58485   6.303  21.073   6.945
 4463POPC   C4B58486   6.046  21.168   7.280
 4464POPC   NC358487  18.878  31.168   5.461
 4464POPC   PO458488  19.264  31.752   5.407
 4464POPC   GL158489  19.377  31.651   5.813
 4464POPC   GL258490  19.160  31.397   5.822
 4464POPC   C1A58491  19.217  31.714   6.238
 4464POPC   D2A58492  19.002  31.967   6.523
 4464POPC   C3A58493  19.090  31.867   6.960
 4464POPC   C4A58494  19.194  31.678   7.356
 4464POPC   C1B58495  19.001  31.259   6.238
 4464POPC   C2B58496  18.918  31.454   6.665
 4464POPC   C3B58497  18.853  31.414   7.103
 4464POPC   C4B58498  19.119  31.187   7.440
 4465POPC   NC358499  11.966   5.602   5.389
 4465POPC   PO458500  11.749   6.184   5.482
 4465POPC   GL158501  11.997   5.975   5.809
 4465POPC   GL258502  12.112   5.620   5.861
 4465POPC   C1A58503  11.957   5.898   6.242
 4465POPC   D2A58504  12.284   5.995   6.491
 4465POPC   C3A58505  12.284   5.857   6.898
 4465POPC   C4A58506  12.267   5.714   7.319
 4465POPC   C1B58507  11.614   5.643   5.959
 4465POPC   C2B58508  11.513   5.649   6.428
 4465POPC   C3B58509  11.756   5.695   6.815
 4465POPC   C4B58510  11.833   5.958   7.156
 4466POPC   NC358511  23.334  24.968   5.538
 4466POPC   PO458512  23.255  25.655   5.317
 4466POPC   GL158513  22.967  25.332   5.697
 4466POPC   GL258514  22.622  25.118   5.844
 4466POPC   C1A58515  23.070  25.312   6.190
 4466POPC   D2A58516  23.227  25.569   6.621
 4466POPC   C3A58517  22.996  25.585   7.040
 4466POPC   C4A58518  22.731  25.406   7.375
 4466POPC   C1B58519  22.537  25.278   6.249
 4466POPC   C2B58520  22.749  25.364   6.623
 4466POPC   C3B58521  22.810  25.091   6.967
 4466POPC   C4B58522  22.723  24.867   7.318
 4467POPC   NC358523  35.463  43.468   5.496
 4467POPC   PO458524  35.488  42.854   5.390
 4467POPC   GL158525  35.389  43.084   5.815
 4467POPC   GL258526  35.066  43.255   5.912
 4467POPC   C1A58527  35.423  43.185   6.266
 4467POPC   D2A58528  35.202  43.275   6.640
 4467POPC   C3A58529  35.488  43.107   6.920
 4467POPC   C4A58530  35.473  42.885   7.308
 4467POPC   C1B58531  34.953  42.910   6.202
 4467POPC   C2B58532  34.929  42.813   6.665
 4467POPC   C3B58533  35.009  43.006   7.083
 4467POPC   C4B58534  35.060  43.009   7.587
 4468POPC   NC358535   5.445   5.951   5.411
 4468POPC   PO458536   6.097   5.978   5.468
 4468POPC   GL158537   5.782   5.977   5.799
 4468POPC   GL258538   5.784   5.652   5.823
 4468POPC   C1A58539   5.766   6.104   6.241
 4468POPC   D2A58540   5.949   5.920   6.586
 4468POPC   C3A58541   5.689   5.763   6.842
 4468POPC   C4A58542   5.429   5.911   7.133
 4468POPC   C1B58543   5.764   5.584   6.254
 4468POPC   C2B58544   6.012   5.402   6.606
 4468POPC   C3B58545   5.972   5.359   7.051
 4468POPC   C4B58546   5.843   5.679   7.324
 4469POPC   NC358547  38.098  11.079   5.225
 4469POPC   PO458548  38.351  11.646   5.424
 4469POPC   GL158549  38.184  11.298   5.772
 4469POPC   GL258550  38.462  11.061   5.929
 4469POPC   C1A58551  38.137  11.233   6.271
 4469POPC   D2A58552  38.357  11.082   6.684
 4469POPC   C3A58553  38.235  11.234   7.086
 4469POPC   C4A58554  38.259  11.565   7.396
 4469POPC   C1B58555  38.724  10.918   6.321
 4469POPC   C2B58556  38.865  10.970   6.754
 4469POPC   C3B58557  38.755  11.212   7.117
 4469POPC   C4B58558  38.524  11.120   7.495
 4470POPC   NC358559  36.967   9.936   5.086
 4470POPC   PO458560  36.762  10.460   5.326
 4470POPC   GL158561  36.653  10.500   5.767
 4470POPC   GL258562  36.960  10.587   5.922
 4470POPC   C1A58563  36.632  10.261   6.171
 4470POPC   D2A58564  36.514  10.371   6.617
 4470POPC   C3A58565  36.691  10.264   7.035
 4470POPC   C4A58566  36.481  10.530   7.340
 4470POPC   C1B58567  36.972  10.571   6.404
 4470POPC   C2B58568  37.077  10.562   6.829
 4470POPC   C3B58569  36.911  10.784   7.155
 4470POPC   C4B58570  37.054  10.890   7.567
 4471POPC   NC358571  24.652  23.836   5.507
 4471POPC   PO458572  24.145  23.387   5.513
 4471POPC   GL158573  24.459  23.483   5.841
 4471POPC   GL258574  24.839  23.459   5.835
 4471POPC   C1A58575  24.536  23.771   6.170
 4471POPC   D2A58576  24.418  23.960   6.538
 4471POPC   C3A58577  24.559  23.834   6.919
 4471POPC   C4A58578  24.322  23.603   7.175
 4471POPC   C1B58579  24.740  23.278   6.226
 4471POPC   C2B58580  24.644  23.439   6.593
 4471POPC   C3B58581  24.693  23.266   6.984
 4471POPC   C4B58582  24.844  23.545   7.218
 4472POPC   NC358583  17.334  39.070   5.527
 4472POPC   PO458584  17.909  39.347   5.515
 4472POPC   GL158585  17.613  39.320   5.881
 4472POPC   GL258586  17.274  39.527   5.798
 4472POPC   C1A58587  17.716  39.227   6.348
 4472POPC   D2A58588  17.648  39.389   6.812
 4472POPC   C3A58589  17.846  39.158   7.145
 4472POPC   C4A58590  17.867  38.890   7.510
 4472POPC   C1B58591  17.356  39.571   6.243
 4472POPC   C2B58592  17.236  39.224   6.559
 4472POPC   C3B58593  17.250  39.120   6.996
 4472POPC   C4B58594  17.426  39.393   7.301
 4473POPC   NC358595  19.804  23.008   5.322
 4473POPC   PO458596  19.978  23.335   5.803
 4473POPC   GL158597  19.825  22.857   5.840
 4473POPC   GL258598  19.466  22.719   5.757
 4473POPC   C1A58599  19.900  22.764   6.267
 4473POPC   D2A58600  19.985  23.172   6.468
 4473POPC   C3A58601  19.983  23.147   6.915
 4473POPC   C4A58602  20.052  22.812   7.205
 4473POPC   C1B58603  19.404  22.871   6.208
 4473POPC   C2B58604  19.578  22.918   6.650
 4473POPC   C3B58605  19.548  22.883   7.076
 4473POPC   C4B58606  19.610  22.626   7.409
 4474POPC   NC358607  35.521  28.361   5.337
 4474POPC   PO458608  34.925  28.195   5.662
 4474POPC   GL158609  35.171  28.246   6.016
 4474POPC   GL258610  35.435  28.358   5.852
 4474POPC   C1A58611  35.509  28.219   6.337
 4474POPC   D2A58612  35.501  28.384   6.727
 4474POPC   C3A58613  35.441  28.090   7.023
 4474POPC   C4A58614  35.257  28.167   7.403
 4474POPC   C1B58615  35.431  28.682   6.190
 4474POPC   C2B58616  35.465  28.908   6.552
 4474POPC   C3B58617  35.645  28.824   6.931
 4474POPC   C4B58618  35.370  28.636   7.198
 4475POPC   NC358619  13.585  16.241   5.496
 4475POPC   PO458620  13.376  16.912   5.394
 4475POPC   GL158621  13.459  16.708   5.786
 4475POPC   GL258622  13.796  16.775   5.934
 4475POPC   C1A58623  13.431  16.558   6.227
 4475POPC   D2A58624  13.543  16.449   6.638
 4475POPC   C3A58625  13.318  16.600   6.989
 4475POPC   C4A58626  13.455  16.712   7.387
 4475POPC   C1B58627  13.955  16.502   6.290
 4475POPC   C2B58628  14.037  16.554   6.746
 4475POPC   C3B58629  13.797  16.437   7.131
 4475POPC   C4B58630  13.842  16.475   7.612
 4476POPC   NC358631  39.810  33.954   5.354
 4476POPC   PO458632  40.162  33.478   5.155
 4476POPC   GL158633  40.023  33.601   5.663
 4476POPC   GL258634  40.333  33.601   5.930
 4476POPC   C1A58635  39.888  33.817   6.075
 4476POPC   D2A58636  40.153  33.744   6.441
 4476POPC   C3A58637  40.104  33.751   6.883
 4476POPC   C4A58638  39.785  33.567   7.106
 4476POPC   C1B58639  40.379  34.042   6.089
 4476POPC   C2B58640  40.104  34.243   6.413
 4476POPC   C3B58641  40.164  34.275   6.837
 4476POPC   C4B58642  40.226  34.112   7.236
 4477POPC   NC358643  23.534  17.440   5.368
 4477POPC   PO458644  23.878  18.020   5.352
 4477POPC   GL158645  23.895  17.717   5.735
 4477POPC   GL258646  23.816  17.327   5.771
 4477POPC   C1A58647  23.747  17.686   6.183
 4477POPC   D2A58648  23.598  17.434   6.537
 4477POPC   C3A58649  23.575  17.628   6.934
 4477POPC   C4A58650  23.883  17.667   7.266
 4477POPC   C1B58651  24.076  17.073   6.033
 4477POPC   C2B58652  24.002  17.117   6.462
 4477POPC   C3B58653  24.016  17.364   6.832
 4477POPC   C4B58654  24.195  17.237   7.178
 4478POPC   NC358655  29.745  23.313   5.358
 4478POPC   PO458656  30.332  22.926   5.329
 4478POPC   GL158657  30.104  23.116   5.705
 4478POPC   GL258658  29.770  22.957   5.745
 4478POPC   C1A58659  30.066  23.041   6.183
 4478POPC   D2A58660  30.116  22.649   6.491
 4478POPC   C3A58661  30.187  22.801   6.931
 4478POPC   C4A58662  30.393  23.166   7.142
 4478POPC   C1B58663  29.737  22.657   6.099
 4478POPC   C2B58664  29.625  22.785   6.522
 4478POPC   C3B58665  29.689  22.650   6.935
 4478POPC   C4B58666  29.623  22.825   7.320
 4479POPC   NC358667  14.741  25.480   5.463
 4479POPC   PO458668  15.425  25.229   5.277
 4479POPC   GL158669  15.533  25.414   5.689
 4479POPC   GL258670  15.172  25.436   5.771
 4479POPC   C1A58671  15.514  25.255   6.134
 4479POPC   D2A58672  15.275  25.049   6.481
 4479POPC   C3A58673  15.349  25.211   6.897
 4479POPC   C4A58674  15.088  25.082   7.275
 4479POPC   C1B58675  14.987  25.353   6.189
 4479POPC   C2B58676  15.049  25.512   6.633
 4479POPC   C3B58677  14.994  25.545   7.095
 4479POPC   C4B58678  15.020  25.520   7.602
 4480POPC   NC358679  36.124  38.939   5.530
 4480POPC   PO458680  35.740  39.467   5.301
 4480POPC   GL158681  35.915  39.457   5.739
 4480POPC   GL258682  36.249  39.601   5.725
 4480POPC   C1A58683  35.949  39.292   6.174
 4480POPC   D2A58684  36.236  39.136   6.531
 4480POPC   C3A58685  36.232  39.313   6.959
 4480POPC   C4A58686  36.127  39.179   7.399
 4480POPC   C1B58687  36.431  39.461   6.122
 4480POPC   C2B58688  36.504  39.588   6.549
 4480POPC   C3B58689  36.688  39.574   6.975
 4480POPC   C4B58690  36.615  39.304   7.322
 4481POPC   NC358691  43.260  32.685   5.337
 4481POPC   PO458692  43.280  32.052   5.466
 4481POPC   GL158693  43.068  32.208   5.794
 4481POPC   GL258694  42.946  32.522   5.711
 4481POPC   C1A58695  42.946  32.323   6.211
 4481POPC   D2A58696  43.150  32.157   6.571
 4481POPC   C3A58697  43.039  32.289   6.946
 4481POPC   C4A58698  43.259  32.388   7.293
 4481POPC   C1B58699  43.255  32.699   6.031
 4481POPC   C2B58700  43.205  32.705   6.497
 4481POPC   C3B58701  43.419  32.684   6.919
 4481POPC   C4B58702  43.582  32.774   7.333
 4482POPC   NC358703   7.063  29.641   5.482
 4482POPC   PO458704   6.547  29.979   5.219
 4482POPC   GL158705   6.627  29.872   5.663
 4482POPC   GL258706   6.437  30.078   5.863
 4482POPC   C1A58707   6.769  29.678   6.061
 4482POPC   D2A58708   6.619  29.602   6.485
 4482POPC   C3A58709   6.850  29.732   6.844
 4482POPC   C4A58710   6.693  29.764   7.256
 4482POPC   C1B58711   6.713  30.137   6.248
 4482POPC   C2B58712   6.661  30.359   6.611
 4482POPC   C3B58713   6.533  30.194   7.011
 4482POPC   C4B58714   6.659  30.318   7.420
 4483POPC   NC358715  35.013  15.181   5.386
 4483POPC   PO458716  34.366  15.380   5.366
 4483POPC   GL158717  34.592  15.111   5.720
 4483POPC   GL258718  34.728  15.398   5.801
 4483POPC   C1A58719  34.789  14.949   6.158
 4483POPC   D2A58720  34.776  15.123   6.622
 4483POPC   C3A58721  34.532  15.082   7.032
 4483POPC   C4A58722  34.311  15.434   7.285
 4483POPC   C1B58723  34.926  15.439   6.197
 4483POPC   C2B58724  34.876  15.629   6.588
 4483POPC   C3B58725  34.737  15.531   6.973
 4483POPC   C4B58726  35.010  15.206   7.124
 4484POPC   NC358727  23.711  35.524   5.348
 4484POPC   PO458728  23.120  35.591   5.613
 4484POPC   GL158729  23.521  35.434   5.847
 4484POPC   GL258730  23.911  35.582   5.811
 4484POPC   C1A58731  23.524  35.240   6.272
 4484POPC   D2A58732  23.475  35.463   6.663
 4484POPC   C3A58733  23.492  35.202   7.024
 4484POPC   C4A58734  23.826  35.048   7.281
 4484POPC   C1B58735  23.903  35.572   6.240
 4484POPC   C2B58736  23.968  35.284   6.575
 4484POPC   C3B58737  23.914  35.483   6.942
 4484POPC   C4B58738  23.976  35.547   7.338
 4485POPC   NC358739  10.404  30.170   5.593
 4485POPC   PO458740   9.992  29.632   5.321
 4485POPC   GL158741  10.310  29.681   5.684
 4485POPC   GL258742  10.120  29.746   5.991
 4485POPC   C1A58743  10.625  29.698   6.083
 4485POPC   D2A58744  10.810  29.959   6.450
 4485POPC   C3A58745  10.474  30.073   6.781
 4485POPC   C4A58746  10.517  30.170   7.213
 4485POPC   C1B58747  10.278  30.108   6.272
 4485POPC   C2B58748  10.077  30.472   6.524
 4485POPC   C3B58749  10.072  30.363   6.931
 4485POPC   C4B58750  10.034  30.018   7.217
 4486POPC   NC358751  13.675  22.554   5.292
 4486POPC   PO458752  13.187  22.077   5.319
 4486POPC   GL158753  13.379  21.947   5.744
 4486POPC   GL258754  13.751  21.909   5.686
 4486POPC   C1A58755  13.349  22.135   6.189
 4486POPC   D2A58756  13.297  22.349   6.609
 4486POPC   C3A58757  13.311  22.153   7.035
 4486POPC   C4A58758  13.364  21.809   7.345
 4486POPC   C1B58759  13.819  21.919   6.145
 4486POPC   C2B58760  13.731  22.066   6.564
 4486POPC   C3B58761  13.725  21.861   6.958
 4486POPC   C4B58762  13.956  22.051   7.269
 4487POPC   NC358763  18.299  18.744   5.245
 4487POPC   PO458764  18.159  18.175   5.204
 4487POPC   GL158765  18.158  18.234   5.695
 4487POPC   GL258766  18.109  18.563   5.846
 4487POPC   C1A58767  18.228  18.180   6.185
 4487POPC   D2A58768  18.258  18.350   6.646
 4487POPC   C3A58769  18.380  18.189   7.082
 4487POPC   C4A58770  18.218  18.243   7.493
 4487POPC   C1B58771  17.865  18.609   6.267
 4487POPC   C2B58772  17.753  18.546   6.729
 4487POPC   C3B58773  18.043  18.579   7.069
 4487POPC   C4B58774  18.476  18.708   7.027
 4488POPC   NC358775  32.861   7.634   5.439
 4488POPC   PO458776  33.482   7.448   5.195
 4488POPC   GL158777  33.303   7.556   5.698
 4488POPC   GL258778  33.187   7.329   5.926
 4488POPC   C1A58779  32.997   7.756   6.091
 4488POPC   D2A58780  32.920   7.606   6.521
 4488POPC   C3A58781  32.980   7.786   6.941
 4488POPC   C4A58782  32.743   7.832   7.347
 4488POPC   C1B58783  32.939   7.136   6.252
 4488POPC   C2B58784  32.969   7.117   6.675
 4488POPC   C3B58785  32.963   7.265   7.054
 4488POPC   C4B58786  33.077   6.995   7.340
 4489POPC   NC358787   8.217  32.411   5.036
 4489POPC   PO458788   8.468  32.519   5.632
 4489POPC   GL158789   8.346  32.249   5.983
 4489POPC   GL258790   7.982  32.259   5.951
 4489POPC   C1A58791   8.264  32.215   6.444
 4489POPC   D2A58792   7.982  32.334   6.806
 4489POPC   C3A58793   8.142  32.277   7.223
 4489POPC   C4A58794   8.233  32.528   7.536
 4489POPC   C1B58795   7.764  32.172   6.358
 4489POPC   C2B58796   7.754  31.871   6.698
 4489POPC   C3B58797   7.754  31.944   7.157
 4489POPC   C4B58798   7.938  31.914   7.619
 4490POPC   NC358799  38.580   3.740   5.370
 4490POPC   PO458800  38.111   3.295   5.544
 4490POPC   GL158801  38.303   3.520   5.813
 4490POPC   GL258802  38.613   3.395   5.787
 4490POPC   C1A58803  38.271   3.427   6.241
 4490POPC   D2A58804  38.403   3.657   6.583
 4490POPC   C3A58805  38.224   3.716   6.985
 4490POPC   C4A58806  38.394   3.606   7.398
 4490POPC   C1B58807  38.773   3.552   6.168
 4490POPC   C2B58808  38.853   3.430   6.583
 4490POPC   C3B58809  38.726   3.621   6.972
 4490POPC   C4B58810  38.896   3.663   7.349
 4491POPC   NC358811   5.002  42.599   5.323
 4491POPC   PO458812   5.095  42.032   5.417
 4491POPC   GL158813   5.174  42.330   5.752
 4491POPC   GL258814   4.857  42.413   5.814
 4491POPC   C1A58815   5.410  42.364   6.127
 4491POPC   D2A58816   5.333  42.333   6.561
 4491POPC   C3A58817   5.643  42.230   6.854
 4491POPC   C4A58818   5.535  42.298   7.273
 4491POPC   C1B58819   4.973  42.583   6.248
 4491POPC   C2B58820   5.029  42.718   6.661
 4491POPC   C3B58821   5.044  42.617   7.080
 4491POPC   C4B58822   4.978  42.897   7.378
 4492POPC   NC358823  27.341   3.737   5.330
 4492POPC   PO458824  27.826   3.349   5.483
 4492POPC   GL158825  27.550   3.520   5.762
 4492POPC   GL258826  27.427   3.253   5.903
 4492POPC   C1A58827  27.505   3.652   6.204
 4492POPC   D2A58828  27.669   3.514   6.576
 4492POPC   C3A58829  27.443   3.588   6.956
 4492POPC   C4A58830  27.371   3.751   7.362
 4492POPC   C1B58831  27.778   3.207   6.176
 4492POPC   C2B58832  27.810   3.024   6.607
 4492POPC   C3B58833  27.767   3.160   7.046
 4492POPC   C4B58834  27.796   3.472   7.379
 4493POPC   NC358835  21.745  20.960   5.222
 4493POPC   PO458836  21.305  20.464   5.331
 4493POPC   GL158837  21.330  20.776   5.694
 4493POPC   GL258838  21.200  20.503   5.857
 4493POPC   C1A58839  21.192  20.937   6.113
 4493POPC   D2A58840  21.327  20.739   6.493
 4493POPC   C3A58841  21.089  20.662   6.862
 4493POPC   C4A58842  21.405  20.517   7.125
 4493POPC   C1B58843  20.964  20.507   6.256
 4493POPC   C2B58844  21.049  20.228   6.568
 4493POPC   C3B58845  21.118  20.142   6.981
 4493POPC   C4B58846  20.977  20.403   7.347
 4494POPC   NC358847   5.490  18.273   5.590
 4494POPC   PO458848   6.154  18.051   5.341
 4494POPC   GL158849   5.943  18.093   5.727
 4494POPC   GL258850   5.980  18.441   5.764
 4494POPC   C1A58851   5.694  18.051   6.147
 4494POPC   D2A58852   5.619  18.214   6.545
 4494POPC   C3A58853   5.946  18.239   6.817
 4494POPC   C4A58854   5.910  18.366   7.223
 4494POPC   C1B58855   6.166  18.278   6.157
 4494POPC   C2B58856   6.381  18.474   6.500
 4494POPC   C3B58857   6.299  18.592   6.886
 4494POPC   C4B58858   6.403  18.309   7.233
 4495POPC   NC358859   4.222   9.690   4.960
 4495POPC   PO458860   4.493   9.256   5.343
 4495POPC   GL158861   4.190   9.532   5.639
 4495POPC   GL258862   4.404   9.746   5.857
 4495POPC   C1A58863   4.006   9.505   6.095
 4495POPC   D2A58864   4.095   9.736   6.489
 4495POPC   C3A58865   3.764   9.779   6.805
 4495POPC   C4A58866   3.746   9.598   7.204
 4495POPC   C1B58867   4.511   9.532   6.256
 4495POPC   C2B58868   4.656   9.481   6.654
 4495POPC   C3B58869   4.340   9.598   6.924
 4495POPC   C4B58870   4.196   9.992   7.007
 4496POPC   NC358871   7.789  15.488   5.526
 4496POPC   PO458872   7.994  16.070   5.450
 4496POPC   GL158873   8.215  16.008   5.833
 4496POPC   GL258874   8.407  15.720   5.757
 4496POPC   C1A58875   8.164  16.159   6.295
 4496POPC   D2A58876   7.846  16.296   6.643
 4496POPC   C3A58877   7.804  16.034   7.043
 4496POPC   C4A58878   7.982  16.171   7.462
 4496POPC   C1B58879   8.154  15.644   6.178
 4496POPC   C2B58880   8.015  15.772   6.612
 4496POPC   C3B58881   8.212  15.719   7.025
 4496POPC   C4B58882   8.376  15.850   7.415
 4497POPC   NC358883  25.359  28.146   5.399
 4497POPC   PO458884  25.088  28.718   5.249
 4497POPC   GL158885  24.987  28.469   5.684
 4497POPC   GL258886  24.984  28.092   5.783
 4497POPC   C1A58887  25.045  28.490   6.170
 4497POPC   D2A58888  24.848  28.474   6.599
 4497POPC   C3A58889  25.152  28.622   6.912
 4497POPC   C4A58890  25.497  28.751   7.172
 4497POPC   C1B58891  25.272  28.039   6.199
 4497POPC   C2B58892  25.273  28.184   6.658
 4497POPC   C3B58893  25.275  28.197   7.142
 4497POPC   C4B58894  25.222  28.062   7.593
 4498POPC   NC358895  28.597  35.118   5.120
 4498POPC   PO458896  28.175  34.617   5.396
 4498POPC   GL158897  28.335  34.628   5.807
 4498POPC   GL258898  27.983  34.639   5.862
 4498POPC   C1A58899  28.395  34.483   6.241
 4498POPC   D2A58900  28.559  34.337   6.640
 4498POPC   C3A58901  28.412  34.544   7.036
 4498POPC   C4A58902  28.023  34.465   7.288
 4498POPC   C1B58903  28.004  34.801   6.241
 4498POPC   C2B58904  28.188  34.797   6.629
 4498POPC   C3B58905  28.095  34.984   6.992
 4498POPC   C4B58906  28.025  34.950   7.402
 4499POPC   NC358907  21.529  43.733   5.432
 4499POPC   PO458908  21.385  43.019   5.395
 4499POPC   GL158909  21.503  43.071   5.779
 4499POPC   GL258910  21.335  43.383   5.767
 4499POPC   C1A58911  21.309  42.928   6.156
 4499POPC   D2A58912  21.424  42.901   6.580
 4499POPC   C3A58913  21.115  42.848   6.918
 4499POPC   C4A58914  21.036  43.015   7.328
 4499POPC   C1B58915  21.451  43.426   6.184
 4499POPC   C2B58916  21.533  43.417   6.615
 4499POPC   C3B58917  21.490  43.216   6.998
 4499POPC   C4B58918  21.361  43.478   7.287
 4500POPC   NC358919   0.793  23.301   5.458
 4500POPC   PO458920   1.258  23.812   5.302
 4500POPC   GL158921   1.081  23.697   5.790
 4500POPC   GL258922   0.832  23.456   5.928
 4500POPC   C1A58923   1.038  23.686   6.314
 4500POPC   D2A58924   1.229  23.544   6.733
 4500POPC   C3A58925   1.245  23.856   7.080
 4500POPC   C4A58926   0.928  23.983   7.393
 4500POPC   C1B58927   0.666  23.306   6.327
 4500POPC   C2B58928   0.768  23.331   6.781
 4500POPC   C3B58929   0.879  23.525   7.168
 4500POPC   C4B58930   0.944  23.545   7.654
 4501POPC   NC358931  33.546  22.846   5.533
 4501POPC   PO458932  33.984  22.239   5.290
 4501POPC   GL158933  34.014  22.239   5.742
 4501POPC   GL258934  33.718  22.137   5.867
 4501POPC   C1A58935  34.024  22.269   6.228
 4501POPC   D2A58936  33.739  22.236   6.600
 4501POPC   C3A58937  33.985  22.271   6.938
 4501POPC   C4A58938  34.058  22.079   7.331
 4501POPC   C1B58939  33.524  21.985   6.214
 4501POPC   C2B58940  33.627  21.685   6.551
 4501POPC   C3B58941  33.475  21.665   6.957
 4501POPC   C4B58942  33.564  22.055   7.109
 4502POPC   NC358943  43.078  31.707   5.239
 4502POPC   PO458944  43.052  31.030   5.174
 4502POPC   GL158945  43.141  31.337   5.607
 4502POPC   GL258946  43.007  31.673   5.741
 4502POPC   C1A58947  43.292  31.310   6.052
 4502POPC   D2A58948  43.227  31.146   6.491
 4502POPC   C3A58949  42.917  31.283   6.808
 4502POPC   C4A58950  43.143  31.399   7.187
 4502POPC   C1B58951  43.186  31.811   6.129
 4502POPC   C2B58952  43.061  31.663   6.506
 4502POPC   C3B58953  42.959  31.783   6.900
 4502POPC   C4B58954  43.235  31.890   7.253
 4503POPC   NC358955   0.718  43.312   5.510
 4503POPC   PO458956   0.347  42.836   5.494
 4503POPC   GL158957   0.644  42.892   5.876
 4503POPC   GL258958   0.524  43.200   5.975
 4503POPC   C1A58959   0.612  42.924   6.373
 4503POPC   D2A58960   0.224  43.183   6.494
 4503POPC   C3A58961   0.170  43.158   6.947
 4503POPC   C4A58962   0.478  43.004   7.234
 4503POPC   C1B58963   0.624  43.466   6.353
 4503POPC   C2B58964   0.510  43.508   6.783
 4503POPC   C3B58965   0.471  43.513   7.220
 4503POPC   C4B58966   0.432  43.341   7.617
 4504POPC   NC358967  23.645  37.432   5.188
 4504POPC   PO458968  24.076  37.796   5.620
 4504POPC   GL158969  23.838  37.476   5.880
 4504POPC   GL258970  23.528  37.382   5.702
 4504POPC   C1A58971  23.967  37.399   6.284
 4504POPC   D2A58972  23.920  37.667   6.608
 4504POPC   C3A58973  23.868  37.496   6.997
 4504POPC   C4A58974  23.720  37.729   7.326
 4504POPC   C1B58975  23.353  37.681   6.012
 4504POPC   C2B58976  23.354  37.835   6.453
 4504POPC   C3B58977  23.432  37.855   6.919
 4504POPC   C4B58978  23.225  37.848   7.375
 4505POPC   NC358979   7.206  10.160   5.195
 4505POPC   PO458980   7.737   9.857   5.477
 4505POPC   GL158981   7.568   9.810   5.886
 4505POPC   GL258982   7.225   9.861   5.780
 4505POPC   C1A58983   7.629   9.571   6.273
 4505POPC   D2A58984   7.382   9.335   6.564
 4505POPC   C3A58985   7.603   9.411   6.948
 4505POPC   C4A58986   7.625   9.731   7.250
 4505POPC   C1B58987   7.150   9.694   6.194
 4505POPC   C2B58988   7.051   9.727   6.637
 4505POPC   C3B58989   7.158   9.770   7.066
 4505POPC   C4B58990   7.237   9.920   7.513
 4506POPC   NC358991  18.872  37.206   5.422
 4506POPC   PO458992  19.166  36.567   5.368
 4506POPC   GL158993  19.157  36.796   5.770
 4506POPC   GL258994  19.003  37.073   5.916
 4506POPC   C1A58995  19.190  36.652   6.199
 4506POPC   D2A58996  19.049  36.529   6.615
 4506POPC   C3A58997  19.216  36.831   6.938
 4506POPC   C4A58998  19.333  36.870   7.380
 4506POPC   C1B58999  18.687  36.738   6.112
 4506POPC   C2B59000  18.531  36.641   6.550
 4506POPC   C3B59001  18.610  36.854   6.961
 4506POPC   C4B59002  18.747  37.318   6.974
 4507POPC   NC359003  24.082  37.348   5.468
 4507POPC   PO459004  23.580  36.976   5.364
 4507POPC   GL159005  23.795  36.947   5.748
 4507POPC   GL259006  23.455  36.899   5.899
 4507POPC   C1A59007  23.942  36.885   6.180
 4507POPC   D2A59008  23.834  37.004   6.611
 4507POPC   C3A59009  23.682  36.699   6.914
 4507POPC   C4A59010  23.889  36.804   7.279
 4507POPC   C1B59011  23.504  37.213   6.213
 4507POPC   C2B59012  23.485  37.386   6.649
 4507POPC   C3B59013  23.507  37.146   7.035
 4507POPC   C4B59014  23.360  36.806   7.319
 4508POPC   NC359015  20.827  30.559   5.408
 4508POPC   PO459016  21.350  30.811   5.102
 4508POPC   GL159017  21.338  30.733   5.584
 4508POPC   GL259018  21.059  30.971   5.673
 4508POPC   C1A59019  21.563  30.641   6.029
 4508POPC   D2A59020  21.671  30.764   6.487
 4508POPC   C3A59021  21.656  30.543   6.907
 4508POPC   C4A59022  21.425  30.758   7.253
 4508POPC   C1B59023  21.067  30.756   6.099
 4508POPC   C2B59024  21.179  30.518   6.468
 4508POPC   C3B59025  21.135  30.515   6.922
 4508POPC   C4B59026  21.156  30.303   7.334
 4509POPC   NC359027  36.460   7.715   5.613
 4509POPC   PO459028  35.980   7.334   5.253
 4509POPC   GL159029  36.041   7.433   5.728
 4509POPC   GL259030  36.351   7.284   5.876
 4509POPC   C1A59031  36.079   7.569   6.190
 4509POPC   D2A59032  36.262   7.371   6.573
 4509POPC   C3A59033  36.269   7.531   7.022
 4509POPC   C4A59034  36.062   7.804   7.330
 4509POPC   C1B59035  36.557   7.092   6.219
 4509POPC   C2B59036  36.685   7.136   6.643
 4509POPC   C3B59037  36.433   7.034   6.971
 4509POPC   C4B59038  36.451   7.166   7.379
 4510POPC   NC359039  42.779  17.922   5.627
 4510POPC   PO459040  43.365  17.687   5.244
 4510POPC   GL159041  43.165  17.586   5.614
 4510POPC   GL259042  43.261  17.890   5.798
 4510POPC   C1A59043  42.994  17.405   6.005
 4510POPC   D2A59044  42.837  17.444   6.447
 4510POPC   C3A59045  43.097  17.539   6.796
 4510POPC   C4A59046  43.076  17.482   7.240
 4510POPC   C1B59047  43.157  17.829   6.247
 4510POPC   C2B59048  43.287  17.984   6.638
 4510POPC   C3B59049  43.527  17.826   7.017
 4510POPC   C4B59050  43.413  17.794   7.485
 4511POPC   NC359051  10.142  36.087   5.366
 4511POPC   PO459052   9.467  36.248   5.477
 4511POPC   GL159053   9.676  36.020   5.835
 4511POPC   GL259054  10.048  35.964   5.839
 4511POPC   C1A59055   9.773  35.995   6.300
 4511POPC   D2A59056   9.485  36.128   6.634
 4511POPC   C3A59057   9.651  36.331   7.012
 4511POPC   C4A59058   9.917  36.373   7.408
 4511POPC   C1B59059  10.346  35.719   6.074
 4511POPC   C2B59060  10.137  35.609   6.435
 4511POPC   C3B59061  10.087  35.869   6.778
 4511POPC   C4B59062   9.927  35.886   7.178
 4512POPC   NC359063  24.517  29.381   4.981
 4512POPC   PO459064  24.480  30.009   5.276
 4512POPC   GL159065  24.297  30.034   5.693
 4512POPC   GL259066  24.301  29.689   5.838
 4512POPC   C1A59067  24.392  30.044   6.177
 4512POPC   D2A59068  24.584  29.805   6.519
 4512POPC   C3A59069  24.481  29.943   6.953
 4512POPC   C4A59070  24.683  30.213   7.230
 4512POPC   C1B59071  24.146  29.599   6.271
 4512POPC   C2B59072  24.118  29.600   6.738
 4512POPC   C3B59073  24.219  29.546   7.178
 4512POPC   C4B59074  24.473  29.747   7.489
 4513POPC   NC359075  24.660  28.773   5.406
 4513POPC   PO459076  24.279  29.362   5.401
 4513POPC   GL159077  24.509  29.218   5.745
 4513POPC   GL259078  24.369  28.932   5.835
 4513POPC   C1A59079  24.635  29.388   6.143
 4513POPC   D2A59080  24.479  29.290   6.530
 4513POPC   C3A59081  24.615  29.456   6.897
 4513POPC   C4A59082  24.740  29.366   7.293
 4513POPC   C1B59083  24.408  28.729   6.273
 4513POPC   C2B59084  24.420  28.830   6.719
 4513POPC   C3B59085  24.382  29.001   7.126
 4513POPC   C4B59086  24.142  28.762   7.454
 4514POPC   NC359087   7.582  23.035   5.459
 4514POPC   PO459088   7.408  22.408   5.564
 4514POPC   GL159089   7.665  22.648   5.849
 4514POPC   GL259090   7.659  23.002   5.976
 4514POPC   C1A59091   7.831  22.543   6.234
 4514POPC   D2A59092   7.811  22.807   6.546
 4514POPC   C3A59093   7.713  22.686   6.921
 4514POPC   C4A59094   7.667  22.967   7.249
 4514POPC   C1B59095   7.540  23.206   6.367
 4514POPC   C2B59096   7.448  23.098   6.800
 4514POPC   C3B59097   7.199  23.191   7.158
 4514POPC   C4B59098   6.839  23.023   7.401
 4515POPC   NC359099  32.799  39.064   5.154
 4515POPC   PO459100  33.296  38.818   5.505
 4515POPC   GL159101  32.981  39.086   5.657
 4515POPC   GL259102  33.020  39.452   5.677
 4515POPC   C1A59103  32.942  39.155   6.091
 4515POPC   D2A59104  33.176  39.030   6.436
 4515POPC   C3A59105  32.984  39.157   6.793
 4515POPC   C4A59106  32.936  39.247   7.192
 4515POPC   C1B59107  33.295  39.513   6.048
 4515POPC   C2B59108  33.305  39.586   6.526
 4515POPC   C3B59109  33.319  39.510   6.990
 4515POPC   C4B59110  33.320  39.417   7.453
 4516POPC   NC359111   1.386  34.235   5.068
 4516POPC   PO459112   1.683  34.421   5.500
 4516POPC   GL159113   1.405  34.568   5.875
 4516POPC   GL259114   1.170  34.294   5.879
 4516POPC   C1A59115   1.214  34.758   6.308
 4516POPC   D2A59116   1.440  34.932   6.714
 4516POPC   C3A59117   1.304  34.794   7.140
 4516POPC   C4A59118   1.499  34.635   7.529
 4516POPC   C1B59119   1.370  34.270   6.295
 4516POPC   C2B59120   1.357  34.429   6.722
 4516POPC   C3B59121   1.604  34.374   7.085
 4516POPC   C4B59122   1.598  34.124   7.474
 4517POPC   NC359123  30.260  18.739   5.332
 4517POPC   PO459124  29.744  19.165   5.105
 4517POPC   GL159125  29.817  19.012   5.614
 4517POPC   GL259126  30.001  18.697   5.767
 4517POPC   C1A59127  29.729  18.972   6.100
 4517POPC   D2A59128  29.894  19.142   6.514
 4517POPC   C3A59129  29.763  18.948   6.919
 4517POPC   C4A59130  29.738  19.018   7.355
 4517POPC   C1B59131  30.192  18.740   6.189
 4517POPC   C2B59132  30.264  18.729   6.646
 4517POPC   C3B59133  30.263  19.017   6.997
 4517POPC   C4B59134  30.239  18.937   7.444
 4518POPC   NC359135  37.597  16.122   5.264
 4518POPC   PO459136  38.183  16.340   5.347
 4518POPC   GL159137  37.884  16.095   5.703
 4518POPC   GL259138  37.495  15.972   5.783
 4518POPC   C1A59139  37.769  16.095   6.181
 4518POPC   D2A59140  37.477  15.967   6.521
 4518POPC   C3A59141  37.633  15.856   6.927
 4518POPC   C4A59142  37.643  16.028   7.343
 4518POPC   C1B59143  37.267  15.688   6.157
 4518POPC   C2B59144  37.265  15.502   6.646
 4518POPC   C3B59145  37.293  15.522   7.123
 4518POPC   C4B59146  37.268  15.745   7.558
 4519POPC   NC359147  20.635  44.148   5.269
 4519POPC   PO459148  20.714  43.549   5.451
 4519POPC   GL159149  20.563  43.879   5.739
 4519POPC   GL259150  20.765  44.222   5.747
 4519POPC   C1A59151  20.487  43.865   6.211
 4519POPC   D2A59152  20.780  43.706   6.570
 4519POPC   C3A59153  20.734  43.866   6.974
 4519POPC   C4A59154  20.422  43.741   7.221
 4519POPC   C1B59155  20.333  44.292   5.937
 4519POPC   C2B59156  20.293  44.330   6.375
 4519POPC   C3B59157  20.344  44.144   6.758
 4519POPC   C4B59158  20.371  44.230   7.181
 4520POPC   NC359159  26.342  29.032   5.620
 4520POPC   PO459160  25.858  29.246   5.249
 4520POPC   GL159161  26.004  29.376   5.738
 4520POPC   GL259162  26.373  29.404   5.944
 4520POPC   C1A59163  25.995  29.169   6.185
 4520POPC   D2A59164  25.843  29.199   6.605
 4520POPC   C3A59165  25.930  28.972   6.981
 4520POPC   C4A59166  25.758  29.235   7.298
 4520POPC   C1B59167  26.496  29.096   6.257
 4520POPC   C2B59168  26.325  28.979   6.638
 4520POPC   C3B59169  26.471  28.952   7.041
 4520POPC   C4B59170  26.287  29.106   7.383
 4521POPC   NC359171  18.504   8.704   5.437
 4521POPC   PO459172  18.218   8.188   5.114
 4521POPC   GL159173  18.169   8.370   5.605
 4521POPC   GL259174  18.466   8.357   5.825
 4521POPC   C1A59175  18.039   8.407   6.051
 4521POPC   D2A59176  18.170   8.553   6.465
 4521POPC   C3A59177  17.989   8.344   6.825
 4521POPC   C4A59178  18.180   8.228   7.222
 4521POPC   C1B59179  18.604   8.157   6.208
 4521POPC   C2B59180  18.388   8.076   6.593
 4521POPC   C3B59181  18.595   8.147   6.971
 4521POPC   C4B59182  18.861   8.123   7.296
 4522POPC   NC359183  25.870  17.861   5.609
 4522POPC   PO459184  26.228  18.446   5.471
 4522POPC   GL159185  26.147  18.245   5.836
 4522POPC   GL259186  25.943  18.459   5.959
 4522POPC   C1A59187  26.247  18.218   6.282
 4522POPC   D2A59188  26.331  18.295   6.712
 4522POPC   C3A59189  26.155  18.099   7.086
 4522POPC   C4A59190  26.284  18.067   7.540
 4522POPC   C1B59191  25.686  18.607   6.279
 4522POPC   C2B59192  25.865  18.509   6.665
 4522POPC   C3B59193  25.799  18.503   7.080
 4522POPC   C4B59194  25.497  18.699   7.307
 4523POPC   NC359195   5.527  42.237   5.406
 4523POPC   PO459196   6.071  41.905   5.430
 4523POPC   GL159197   5.996  42.285   5.665
 4523POPC   GL259198   5.744  42.105   5.854
 4523POPC   C1A59199   5.860  42.584   5.985
 4523POPC   D2A59200   5.780  42.563   6.447
 4523POPC   C3A59201   6.005  42.617   6.839
 4523POPC   C4A59202   6.002  42.440   7.216
 4523POPC   C1B59203   6.028  42.162   6.219
 4523POPC   C2B59204   6.148  42.165   6.672
 4523POPC   C3B59205   6.033  41.960   7.088
 4523POPC   C4B59206   6.059  42.066   7.563
 4524POPC   NC359207  18.758  35.315   5.453
 4524POPC   PO459208  19.369  35.141   5.575
 4524POPC   GL159209  19.033  35.212   5.876
 4524POPC   GL259210  18.650  35.152   5.915
 4524POPC   C1A59211  19.032  35.378   6.261
 4524POPC   D2A59212  19.262  35.493   6.615
 4524POPC   C3A59213  19.152  35.352   7.039
 4524POPC   C4A59214  19.271  35.719   7.331
 4524POPC   C1B59215  18.549  35.549   6.169
 4524POPC   C2B59216  18.720  35.652   6.570
 4524POPC   C3B59217  18.851  35.741   6.958
 4524POPC   C4B59218  18.790  35.535   7.380
 4525POPC   NC359219  17.712  25.627   5.359
 4525POPC   PO459220  17.257  25.143   5.503
 4525POPC   GL159221  17.442  25.278   5.855
 4525POPC   GL259222  17.274  25.553   5.909
 4525POPC   C1A59223  17.470  25.174   6.282
 4525POPC   D2A59224  17.672  25.277   6.636
 4525POPC   C3A59225  17.568  24.995   6.961
 4525POPC   C4A59226  17.617  25.059   7.395
 4525POPC   C1B59227  17.322  25.667   6.313
 4525POPC   C2B59228  17.232  25.606   6.718
 4525POPC   C3B59229  17.496  25.506   7.058
 4525POPC   C4B59230  17.440  25.518   7.499
 4526POPC   NC359231   0.140  19.025   5.016
 4526POPC   PO459232  44.645  19.293   5.442
 4526POPC   GL159233  44.668  19.012   5.778
 4526POPC   GL259234  44.953  19.157   5.936
 4526POPC   C1A59235  44.662  18.852   6.214
 4526POPC   D2A59236  44.825  19.072   6.563
 4526POPC   C3A59237  44.853  18.848   6.951
 4526POPC   C4A59238  44.540  18.984   7.183
 4526POPC   C1B59239  44.558  19.347   6.161
 4526POPC   C2B59240  44.493  19.509   6.574
 4526POPC   C3B59241  44.717  19.418   6.962
 4526POPC   C4B59242   0.146  19.251   7.043
 4527POPC   NC359243   4.872  40.689   5.461
 4527POPC   PO459244   5.068  40.137   5.560
 4527POPC   GL159245   4.807  40.402   5.882
 4527POPC   GL259246   4.946  40.753   5.950
 4527POPC   C1A59247   4.888  40.458   6.352
 4527POPC   D2A59248   5.165  40.699   6.664
 4527POPC   C3A59249   5.010  40.718   7.092
 4527POPC   C4A59250   4.953  40.340   7.350
 4527POPC   C1B59251   5.019  41.035   6.293
 4527POPC   C2B59252   5.186  41.229   6.673
 4527POPC   C3B59253   5.290  41.161   7.125
 4527POPC   C4B59254   5.026  41.189   7.479
 4528POPC   NC359255  43.737  34.210   5.082
 4528POPC   PO459256  43.815  34.851   5.301
 4528POPC   GL159257  43.928  34.738   5.721
 4528POPC   GL259258  43.794  34.423   5.773
 4528POPC   C1A59259  44.085  34.759   6.145
 4528POPC   D2A59260  44.212  35.014   6.478
 4528POPC   C3A59261  44.081  35.020   6.884
 4528POPC   C4A59262  44.017  34.727   7.196
 4528POPC   C1B59263  43.594  34.669   6.094
 4528POPC   C2B59264  43.680  34.800   6.508
 4528POPC   C3B59265  43.662  34.522   6.866
 4528POPC   C4B59266  43.529  34.568   7.266
 4529POPC   NC359267  12.381  30.008   5.401
 4529POPC   PO459268  11.767  29.847   5.430
 4529POPC   GL159269  11.915  29.922   5.860
 4529POPC   GL259270  12.109  29.636   5.817
 4529POPC   C1A59271  11.782  29.884   6.331
 4529POPC   D2A59272  11.707  29.719   6.786
 4529POPC   C3A59273  11.886  29.962   7.148
 4529POPC   C4A59274  12.087  30.308   7.402
 4529POPC   C1B59275  12.189  29.575   6.269
 4529POPC   C2B59276  12.210  29.707   6.734
 4529POPC   C3B59277  12.356  29.751   7.180
 4529POPC   C4B59278  12.417  29.449   7.523
 4530POPC   NC359279   4.770  10.922   5.689
 4530POPC   PO459280   5.094  11.291   5.257
 4530POPC   GL159281   5.088  11.348   5.766
 4530POPC   GL259282   5.352  11.604   5.875
 4530POPC   C1A59283   4.889  11.201   6.217
 4530POPC   D2A59284   4.863  11.329   6.617
 4530POPC   C3A59285   4.931  11.162   6.997
 4530POPC   C4A59286   4.916  11.373   7.375
 4530POPC   C1B59287   5.325  11.417   6.294
 4530POPC   C2B59288   5.397  11.293   6.733
 4530POPC   C3B59289   5.392  11.301   7.192
 4530POPC   C4B59290   5.406  11.522   7.621
 4531POPC   NC359291  42.518   6.479   5.170
 4531POPC   PO459292  42.429   6.971   5.583
 4531POPC   GL159293  42.471   6.696   5.878
 4531POPC   GL259294  42.248   6.492   5.828
 4531POPC   C1A59295  42.670   6.495   6.204
 4531POPC   D2A59296  42.437   6.552   6.560
 4531POPC   C3A59297  42.601   6.651   6.952
 4531POPC   C4A59298  42.440   6.717   7.415
 4531POPC   C1B59299  42.064   6.720   6.185
 4531POPC   C2B59300  41.907   6.744   6.596
 4531POPC   C3B59301  42.096   6.679   6.998
 4531POPC   C4B59302  41.950   6.634   7.419
 4532POPC   NC359303  28.819  39.180   5.390
 4532POPC   PO459304  29.441  39.423   5.294
 4532POPC   GL159305  29.425  39.300   5.747
 4532POPC   GL259306  29.136  39.095   5.779
 4532POPC   C1A59307  29.375  39.151   6.231
 4532POPC   D2A59308  28.939  39.188   6.451
 4532POPC   C3A59309  28.927  39.267   6.914
 4532POPC   C4A59310  29.338  39.332   7.127
 4532POPC   C1B59311  28.976  38.805   6.098
 4532POPC   C2B59312  29.068  38.694   6.490
 4532POPC   C3B59313  29.229  38.878   6.855
 4532POPC   C4B59314  29.080  38.880   7.253
 4533POPC   NC359315  44.930  11.936   5.445
 4533POPC   PO459316  44.367  12.179   5.116
 4533POPC   GL159317  44.434  11.982   5.568
 4533POPC   GL259318  44.424  11.598   5.624
 4533POPC   C1A59319  44.471  12.014   6.058
 4533POPC   D2A59320  44.727  12.239   6.373
 4533POPC   C3A59321  44.693  12.133   6.808
 4533POPC   C4A59322  44.989  12.070   7.161
 4533POPC   C1B59323  44.302  11.536   6.042
 4533POPC   C2B59324  44.496  11.610   6.442
 4533POPC   C3B59325  44.346  11.659   6.861
 4533POPC   C4B59326  44.492  11.881   7.208
 4534POPC   NC359327  25.571  32.304   5.309
 4534POPC   PO459328  24.899  32.260   5.322
 4534POPC   GL159329  25.190  32.418   5.647
 4534POPC   GL259330  25.235  32.076   5.717
 4534POPC   C1A59331  25.140  32.511   6.107
 4534POPC   D2A59332  25.379  32.452   6.519
 4534POPC   C3A59333  25.145  32.495   6.899
 4534POPC   C4A59334  25.082  32.240   7.282
 4534POPC   C1B59335  25.220  32.001   6.165
 4534POPC   C2B59336  25.521  31.965   6.521
 4534POPC   C3B59337  25.487  32.067   6.964
 4534POPC   C4B59338  25.279  31.753   7.226
 4535POPC   NC359339  11.770  41.843   5.346
 4535POPC   PO459340  11.069  41.916   5.387
 4535POPC   GL159341  11.365  41.674   5.674
 4535POPC   GL259342  11.670  41.812   5.828
 4535POPC   C1A59343  11.385  41.468   6.092
 4535POPC   D2A59344  11.556  41.336   6.500
 4535POPC   C3A59345  11.333  41.376   6.875
 4535POPC   C4A59346  11.492  41.440   7.274
 4535POPC   C1B59347  11.527  41.957   6.185
 4535POPC   C2B59348  11.348  41.833   6.547
 4535POPC   C3B59349  11.535  41.846   6.918
 4535POPC   C4B59350  11.412  41.940   7.318
 4536POPC   NC359351  18.578  42.862   5.405
 4536POPC   PO459352  18.171  43.366   5.476
 4536POPC   GL159353  18.480  43.260   5.746
 4536POPC   GL259354  18.294  42.956   5.813
 4536POPC   C1A59355  18.605  43.167   6.166
 4536POPC   D2A59356  18.357  43.214   6.525
 4536POPC   C3A59357  18.559  43.203   6.918
 4536POPC   C4A59358  18.417  43.392   7.263
 4536POPC   C1B59359  18.025  43.079   6.149
 4536POPC   C2B59360  17.868  43.017   6.589
 4536POPC   C3B59361  18.065  43.130   6.944
 4536POPC   C4B59362  18.065  43.050   7.334
 4537POPC   NC359363  35.530  35.371   4.904
 4537POPC   PO459364  34.946  35.495   5.229
 4537POPC   GL159365  35.047  35.331   5.707
 4537POPC   GL259366  35.292  35.090   5.795
 4537POPC   C1A59367  35.289  35.487   6.130
 4537POPC   D2A59368  35.485  35.727   6.516
 4537POPC   C3A59369  35.275  35.753   6.938
 4537POPC   C4A59370  35.280  35.523   7.336
 4537POPC   C1B59371  35.493  34.977   6.180
 4537POPC   C2B59372  35.404  35.204   6.562
 4537POPC   C3B59373  35.582  35.351   6.933
 4537POPC   C4B59374  35.708  35.101   7.276
 4538POPC   NC359375  20.289  32.405   5.358
 4538POPC   PO459376  20.923  32.075   5.242
 4538POPC   GL159377  20.841  32.205   5.666
 4538POPC   GL259378  21.064  31.945   5.775
 4538POPC   C1A59379  20.732  32.182   6.137
 4538POPC   D2A59380  20.845  32.407   6.539
 4538POPC   C3A59381  20.596  32.405   6.936
 4538POPC   C4A59382  20.348  32.029   7.027
 4538POPC   C1B59383  21.021  31.742   6.186
 4538POPC   C2B59384  20.824  31.877   6.579
 4538POPC   C3B59385  20.963  32.035   6.967
 4538POPC   C4B59386  20.988  32.335   7.308
 4539POPC   NC359387  36.933  10.104   5.571
 4539POPC   PO459388  37.158   9.521   5.212
 4539POPC   GL159389  37.128   9.643   5.678
 4539POPC   GL259390  37.293   9.890   5.854
 4539POPC   C1A59391  36.934   9.657   6.140
 4539POPC   D2A59392  36.880   9.513   6.584
 4539POPC   C3A59393  36.816   9.748   6.968
 4539POPC   C4A59394  36.981   9.542   7.329
 4539POPC   C1B59395  37.139  10.123   6.197
 4539POPC   C2B59396  36.991  10.099   6.616
 4539POPC   C3B59397  37.238  10.077   6.991
 4539POPC   C4B59398  37.116  10.024   7.401
 4540POPC   NC359399  15.073  21.661   5.410
 4540POPC   PO459400  15.052  20.971   5.491
 4540POPC   GL159401  15.036  21.348   5.812
 4540POPC   GL259402  14.809  21.669   5.888
 4540POPC   C1A59403  15.204  21.579   6.207
 4540POPC   D2A59404  15.036  21.503   6.637
 4540POPC   C3A59405  15.363  21.375   6.947
 4540POPC   C4A59406  15.691  21.668   7.048
 4540POPC   C1B59407  14.734  21.328   6.217
 4540POPC   C2B59408  14.830  21.010   6.522
 4540POPC   C3B59409  14.845  21.002   6.955
 4540POPC   C4B59410  14.885  21.395   7.116
 4541POPC   NC359411  11.815  11.930   5.409
 4541POPC   PO459412  11.125  12.105   5.518
 4541POPC   GL159413  11.428  12.015   5.837
 4541POPC   GL259414  11.592  11.686   5.850
 4541POPC   C1A59415  11.428  12.107   6.279
 4541POPC   D2A59416  11.304  12.253   6.696
 4541POPC   C3A59417  11.606  12.113   6.983
 4541POPC   C4A59418  11.586  11.768   7.249
 4541POPC   C1B59419  11.210  11.649   6.158
 4541POPC   C2B59420  11.022  11.840   6.532
 4541POPC   C3B59421  11.155  11.735   6.947
 4541POPC   C4B59422  10.928  11.672   7.353
 4542POPC   NC359423  16.242  23.799   5.574
 4542POPC   PO459424  16.852  23.617   5.217
 4542POPC   GL159425  16.934  23.784   5.673
 4542POPC   GL259426  16.910  23.503   5.928
 4542POPC   C1A59427  17.132  23.907   6.108
 4542POPC   D2A59428  17.003  23.596   6.448
 4542POPC   C3A59429  16.911  23.562   6.908
 4542POPC   C4A59430  16.945  23.864   7.224
 4542POPC   C1B59431  16.633  23.866   6.143
 4542POPC   C2B59432  16.414  23.867   6.536
 4542POPC   C3B59433  16.470  23.810   6.985
 4542POPC   C4B59434  16.324  24.139   7.232
 4543POPC   NC359435  42.575  21.883   5.294
 4543POPC   PO459436  42.023  22.295   5.282
 4543POPC   GL159437  41.972  22.100   5.688
 4543POPC   GL259438  42.315  22.059   5.737
 4543POPC   C1A59439  41.961  22.070   6.167
 4543POPC   D2A59440  42.197  22.084   6.576
 4543POPC   C3A59441  42.074  22.028   7.017
 4543POPC   C4A59442  42.196  22.153   7.446
 4543POPC   C1B59443  42.453  22.258   6.158
 4543POPC   C2B59444  42.708  22.192   6.567
 4543POPC   C3B59445  42.668  22.221   7.015
 4543POPC   C4B59446  42.698  22.184   7.466
 4544POPC   NC359447  21.002  28.742   5.336
 4544POPC   PO459448  21.397  29.248   5.370
 4544POPC   GL159449  21.265  28.982   5.721
 4544POPC   GL259450  21.093  29.260   5.845
 4544POPC   C1A59451  21.375  28.869   6.177
 4544POPC   D2A59452  21.343  29.073   6.615
 4544POPC   C3A59453  21.499  28.966   7.062
 4544POPC   C4A59454  21.519  28.847   7.522
 4544POPC   C1B59455  20.948  29.412   6.218
 4544POPC   C2B59456  20.910  29.538   6.651
 4544POPC   C3B59457  21.129  29.376   6.997
 4544POPC   C4B59458  21.532  29.509   7.101
 4545POPC   NC359459  23.202  26.747   5.297
 4545POPC   PO459460  22.653  26.306   5.372
 4545POPC   GL159461  22.774  26.596   5.721
 4545POPC   GL259462  22.939  26.936   5.697
 4545POPC   C1A59463  22.939  26.647   6.139
 4545POPC   D2A59464  22.824  26.801   6.543
 4545POPC   C3A59465  22.761  26.503   6.879
 4545POPC   C4A59466  23.099  26.524   7.133
 4545POPC   C1B59467  23.258  27.049   6.037
 4545POPC   C2B59468  23.260  27.155   6.501
 4545POPC   C3B59469  23.132  27.019   6.919
 4545POPC   C4B59470  23.315  26.963   7.331
 4546POPC   NC359471  11.814   4.869   5.341
 4546POPC   PO459472  12.144   5.394   5.013
 4546POPC   GL159473  12.181   5.178   5.531
 4546POPC   GL259474  11.857   5.193   5.746
 4546POPC   C1A59475  12.254   4.996   6.029
 4546POPC   D2A59476  12.427   5.073   6.501
 4546POPC   C3A59477  12.368   4.856   6.922
 4546POPC   C4A59478  12.023   4.733   7.201
 4546POPC   C1B59479  11.880   5.301   6.193
 4546POPC   C2B59480  12.099   5.477   6.507
 4546POPC   C3B59481  12.005   5.244   6.850
 4546POPC   C4B59482  12.131   5.242   7.224
 4547POPC   NC359483  14.789   2.206   5.436
 4547POPC   PO459484  15.436   1.901   5.390
 4547POPC   GL159485  15.224   1.722   5.759
 4547POPC   GL259486  14.875   1.848   5.849
 4547POPC   C1A59487  15.388   1.849   6.147
 4547POPC   D2A59488  15.396   2.084   6.514
 4547POPC   C3A59489  15.173   1.962   6.865
 4547POPC   C4A59490  15.075   1.867   7.286
 4547POPC   C1B59491  14.978   2.168   6.186
 4547POPC   C2B59492  14.949   2.373   6.604
 4547POPC   C3B59493  14.889   2.332   7.071
 4547POPC   C4B59494  14.943   2.336   7.529
 4548POPC   NC359495  35.706  27.399   5.138
 4548POPC   PO459496  36.248  27.360   5.639
 4548POPC   GL159497  35.999  27.676   5.832
 4548POPC   GL259498  35.767  27.945   5.904
 4548POPC   C1A59499  35.822  27.538   6.223
 4548POPC   D2A59500  35.986  27.596   6.614
 4548POPC   C3A59501  36.120  27.317   6.904
 4548POPC   C4A59502  36.291  27.314   7.315
 4548POPC   C1B59503  36.001  28.022   6.299
 4548POPC   C2B59504  35.923  28.099   6.740
 4548POPC   C3B59505  35.948  27.895   7.120
 4548POPC   C4B59506  35.784  28.022   7.533
 4549POPC   NC359507  43.046  24.917   5.470
 4549POPC   PO459508  43.187  24.307   5.164
 4549POPC   GL159509  43.127  24.411   5.645
 4549POPC   GL259510  43.018  24.092   5.836
 4549POPC   C1A59511  43.176  24.578   6.127
 4549POPC   D2A59512  43.435  24.808   6.531
 4549POPC   C3A59513  43.372  24.740   7.041
 4549POPC   C4A59514  43.409  24.806   7.545
 4549POPC   C1B59515  43.276  24.068   6.246
 4549POPC   C2B59516  43.357  24.310   6.649
 4549POPC   C3B59517  43.076  24.311   7.040
 4549POPC   C4B59518  42.973  24.598   7.378
 4550POPC   NC359519   4.200  35.958   5.665
 4550POPC   PO459520   4.736  36.029   5.210
 4550POPC   GL159521   4.612  36.254   5.660
 4550POPC   GL259522   4.352  36.502   5.758
 4550POPC   C1A59523   4.515  36.196   6.160
 4550POPC   D2A59524   4.279  36.134   6.541
 4550POPC   C3A59525   4.556  36.217   6.888
 4550POPC   C4A59526   4.559  35.951   7.247
 4550POPC   C1B59527   4.068  36.442   6.163
 4550POPC   C2B59528   3.863  36.485   6.611
 4550POPC   C3B59529   4.067  36.331   7.014
 4550POPC   C4B59530   4.070  35.920   7.211
 4551POPC   NC359531  11.669  43.198   5.245
 4551POPC   PO459532  11.133  42.872   5.440
 4551POPC   GL159533  11.227  43.124   5.815
 4551POPC   GL259534  11.539  43.318   5.896
 4551POPC   C1A59535  11.279  42.998   6.244
 4551POPC   D2A59536  11.144  42.906   6.652
 4551POPC   C3A59537  11.417  42.855   6.995
 4551POPC   C4A59538  11.442  42.946   7.412
 4551POPC   C1B59539  11.533  43.428   6.370
 4551POPC   C2B59540  11.480  43.342   6.821
 4551POPC   C3B59541  11.476  43.418   7.287
 4551POPC   C4B59542  11.714  43.309   7.698
 4552POPC   NC359543  43.161  40.559   5.499
 4552POPC   PO459544  42.746  41.018   5.325
 4552POPC   GL159545  42.925  40.958   5.719
 4552POPC   GL259546  43.287  41.016   5.689
 4552POPC   C1A59547  42.849  40.775   6.139
 4552POPC   D2A59548  42.689  40.794   6.562
 4552POPC   C3A59549  42.872  40.543   6.893
 4552POPC   C4A59550  42.875  40.706   7.305
 4552POPC   C1B59551  43.359  40.761   6.091
 4552POPC   C2B59552  43.248  40.650   6.524
 4552POPC   C3B59553  43.481  40.772   6.909
 4552POPC   C4B59554  43.387  40.709   7.331
 4553POPC   NC359555  23.771  29.224   5.372
 4553POPC   PO459556  23.854  28.523   5.371
 4553POPC   GL159557  23.733  28.812   5.746
 4553POPC   GL259558  23.582  29.171   5.840
 4553POPC   C1A59559  23.940  28.935   6.135
 4553POPC   D2A59560  23.993  29.127   6.521
 4553POPC   C3A59561  23.937  28.937   6.898
 4553POPC   C4A59562  23.906  29.150   7.251
 4553POPC   C1B59563  23.404  28.899   6.141
 4553POPC   C2B59564  23.455  28.891   6.574
 4553POPC   C3B59565  23.482  29.170   6.932
 4553POPC   C4B59566  23.425  29.108   7.367
 4554POPC   NC359567  22.425  30.846   5.608
 4554POPC   PO459568  21.967  30.706   5.209
 4554POPC   GL159569  21.976  30.563   5.695
 4554POPC   GL259570  22.238  30.291   5.740
 4554POPC   C1A59571  22.068  30.779   6.169
 4554POPC   D2A59572  22.194  30.987   6.559
 4554POPC   C3A59573  21.895  31.003   6.911
 4554POPC   C4A59574  21.938  30.832   7.322
 4554POPC   C1B59575  22.012  30.293   6.134
 4554POPC   C2B59576  22.100  30.472   6.565
 4554POPC   C3B59577  22.253  30.599   6.965
 4554POPC   C4B59578  22.165  30.367   7.338
 4555POPC   NC359579  25.967  22.556   5.424
 4555POPC   PO459580  25.803  21.938   5.551
 4555POPC   GL159581  26.194  22.056   5.823
 4555POPC   GL259582  26.213  22.425   5.848
 4555POPC   C1A59583  26.386  22.187   6.238
 4555POPC   D2A59584  26.196  22.442   6.553
 4555POPC   C3A59585  26.181  22.204   6.928
 4555POPC   C4A59586  26.452  21.893   7.084
 4555POPC   C1B59587  25.859  22.271   6.158
 4555POPC   C2B59588  25.678  22.395   6.576
 4555POPC   C3B59589  25.685  22.288   7.017
 4555POPC   C4B59590  25.924  22.393   7.403
 4556POPC   NC359591  36.818  20.052   5.362
 4556POPC   PO459592  37.487  20.225   5.491
 4556POPC   GL159593  37.265  19.965   5.840
 4556POPC   GL259594  36.853  19.908   5.904
 4556POPC   C1A59595  37.148  20.054   6.280
 4556POPC   D2A59596  36.922  19.834   6.621
 4556POPC   C3A59597  37.194  19.764   6.964
 4556POPC   C4A59598  37.199  19.940   7.374
 4556POPC   C1B59599  37.046  19.558   6.163
 4556POPC   C2B59600  37.124  19.367   6.568
 4556POPC   C3B59601  36.886  19.354   6.951
 4556POPC   C4B59602  37.042  19.420   7.377
 4557POPC   NC359603  20.703  29.581   5.574
 4557POPC   PO459604  20.831  30.187   5.685
 4557POPC   GL159605  20.512  29.962   5.893
 4557POPC   GL259606  20.179  30.132   5.849
 4557POPC   C1A59607  20.526  29.691   6.249
 4557POPC   D2A59608  20.389  29.524   6.627
 4557POPC   C3A59609  20.551  29.793   6.941
 4557POPC   C4A59610  20.738  29.586   7.256
 4557POPC   C1B59611  20.231  30.103   6.316
 4557POPC   C2B59612  20.275  30.198   6.763
 4557POPC   C3B59613  20.185  30.155   7.225
 4557POPC   C4B59614  20.281  30.099   7.673
 4558POPC   NC359615   1.521  38.914   5.587
 4558POPC   PO459616   1.677  38.214   5.544
 4558POPC   GL159617   1.265  38.263   5.821
 4558POPC   GL259618   1.047  38.584   5.786
 4558POPC   C1A59619   1.046  38.327   6.234
 4558POPC   D2A59620   0.996  38.600   6.594
 4558POPC   C3A59621   1.138  38.372   6.978
 4558POPC   C4A59622   1.289  38.322   7.418
 4558POPC   C1B59623   1.218  38.847   6.166
 4558POPC   C2B59624   1.476  39.031   6.517
 4558POPC   C3B59625   1.346  38.875   6.889
 4558POPC   C4B59626   1.403  38.782   7.285
 4559POPC   NC359627  32.583  41.024   5.456
 4559POPC   PO459628  32.427  41.724   5.348
 4559POPC   GL159629  32.483  41.776   5.776
 4559POPC   GL259630  32.346  41.430   5.785
 4559POPC   C1A59631  32.338  41.701   6.226
 4559POPC   D2A59632  31.955  41.778   6.424
 4559POPC   C3A59633  31.961  41.885   6.853
 4559POPC   C4A59634  31.944  41.821   7.285
 4559POPC   C1B59635  32.001  41.325   6.088
 4559POPC   C2B59636  32.153  41.280   6.498
 4559POPC   C3B59637  32.387  41.547   6.768
 4559POPC   C4B59638  32.246  41.426   7.174
 4560POPC   NC359639  28.097  26.123   5.371
 4560POPC   PO459640  28.088  25.482   5.508
 4560POPC   GL159641  28.302  25.780   5.811
 4560POPC   GL259642  28.369  26.110   5.802
 4560POPC   C1A59643  28.094  26.004   6.208
 4560POPC   D2A59644  28.092  25.866   6.664
 4560POPC   C3A59645  28.292  26.036   7.044
 4560POPC   C4A59646  28.725  25.955   7.212
 4560POPC   C1B59647  28.596  26.044   6.191
 4560POPC   C2B59648  28.594  26.341   6.509
 4560POPC   C3B59649  28.710  26.374   6.903
 4560POPC   C4B59650  28.542  26.433   7.290
 4561POPC   NC359651  24.777  44.505   5.391
 4561POPC   PO459652  24.121  44.833   5.312
 4561POPC   GL159653  24.423  44.769   5.680
 4561POPC   GL259654  24.237   0.018   5.814
 4561POPC   C1A59655  24.566  44.552   6.092
 4561POPC   D2A59656  24.503  44.217   6.433
 4561POPC   C3A59657  24.484  44.345   6.888
 4561POPC   C4A59658  24.570  44.372   7.351
 4561POPC   C1B59659  24.251  44.953   6.242
 4561POPC   C2B59660  24.551  44.802   6.566
 4561POPC   C3B59661  24.476  44.848   7.004
 4561POPC   C4B59662  24.128   0.046   7.206
 4562POPC   NC359663  19.262   7.814   5.581
 4562POPC   PO459664  18.836   8.340   5.506
 4562POPC   GL159665  19.092   8.222   5.852
 4562POPC   GL259666  19.089   8.546   5.919
 4562POPC   C1A59667  19.125   7.980   6.257
 4562POPC   D2A59668  19.033   8.098   6.696
 4562POPC   C3A59669  19.310   7.981   7.065
 4562POPC   C4A59670  19.295   8.090   7.532
 4562POPC   C1B59671  19.068   8.473   6.327
 4562POPC   C2B59672  19.167   8.632   6.689
 4562POPC   C3B59673  19.108   8.463   7.046
 4562POPC   C4B59674  19.121   8.619   7.418
 4563POPC   NC359675  26.142  40.905   5.449
 4563POPC   PO459676  25.596  40.487   5.496
 4563POPC   GL159677  25.786  40.803   5.836
 4563POPC   GL259678  26.061  41.072   5.919
 4563POPC   C1A59679  25.818  40.863   6.298
 4563POPC   D2A59680  25.738  41.120   6.611
 4563POPC   C3A59681  25.885  40.870   6.922
 4563POPC   C4A59682  25.861  40.730   7.323
 4563POPC   C1B59683  26.151  41.272   6.330
 4563POPC   C2B59684  26.296  41.079   6.715
 4563POPC   C3B59685  26.291  41.010   7.200
 4563POPC   C4B59686  26.339  40.603   7.406
 4564POPC   NC359687  39.845  29.155   5.357
 4564POPC   PO459688  40.543  28.908   5.278
 4564POPC   GL159689  40.280  28.975   5.658
 4564POPC   GL259690  40.264  29.303   5.799
 4564POPC   C1A59691  40.213  28.931   6.135
 4564POPC   D2A59692  39.836  28.936   6.385
 4564POPC   C3A59693  39.797  28.899   6.847
 4564POPC   C4A59694  39.824  29.110   7.262
 4564POPC   C1B59695  40.108  29.476   6.156
 4564POPC   C2B59696  39.899  29.414   6.546
 4564POPC   C3B59697  40.154  29.267   6.888
 4564POPC   C4B59698  40.245  29.406   7.292
 4565POPC   NC359699  21.181  20.010   5.328
 4565POPC   PO459700  21.538  19.525   5.587
 4565POPC   GL159701  21.186  19.650   5.818
 4565POPC   GL259702  21.270  19.992   5.819
 4565POPC   C1A59703  21.243  19.708   6.256
 4565POPC   D2A59704  21.348  19.805   6.678
 4565POPC   C3A59705  21.337  19.656   7.118
 4565POPC   C4A59706  21.245  19.580   7.562
 4565POPC   C1B59707  21.426  20.203   6.202
 4565POPC   C2B59708  21.546  20.289   6.619
 4565POPC   C3B59709  21.636  20.090   7.000
 4565POPC   C4B59710  21.828  20.239   7.362
 4566POPC   NC359711  10.087  32.444   5.464
 4566POPC   PO459712   9.528  32.346   5.265
 4566POPC   GL159713   9.650  32.344   5.713
 4566POPC   GL259714   9.926  32.100   5.805
 4566POPC   C1A59715   9.668  32.357   6.176
 4566POPC   D2A59716   9.453  32.307   6.556
 4566POPC   C3A59717   9.606  32.085   6.919
 4566POPC   C4A59718   9.686  32.291   7.280
 4566POPC   C1B59719  10.067  32.040   6.205
 4566POPC   C2B59720   9.987  32.242   6.573
 4566POPC   C3B59721  10.120  32.174   6.949
 4566POPC   C4B59722  10.148  32.116   7.346
 4567POPC   NC359723  10.128   4.531   5.446
 4567POPC   PO459724   9.416   4.607   5.415
 4567POPC   GL159725   9.652   4.304   5.680
 4567POPC   GL259726   9.506   3.987   5.790
 4567POPC   C1A59727   9.776   4.294   6.124
 4567POPC   D2A59728   9.599   4.412   6.546
 4567POPC   C3A59729   9.861   4.428   6.905
 4567POPC   C4A59730   9.944   4.259   7.312
 4567POPC   C1B59731   9.607   3.827   6.211
 4567POPC   C2B59732   9.464   3.922   6.639
 4567POPC   C3B59733   9.533   4.072   7.064
 4567POPC   C4B59734   9.494   4.096   7.511
 4568POPC   NC359735  24.621  42.782   5.363
 4568POPC   PO459736  24.404  43.409   5.266
 4568POPC   GL159737  24.531  43.320   5.701
 4568POPC   GL259738  24.563  42.982   5.821
 4568POPC   C1A59739  24.410  43.327   6.147
 4568POPC   D2A59740  24.260  43.174   6.521
 4568POPC   C3A59741  24.567  43.273   6.822
 4568POPC   C4A59742  24.500  43.370   7.236
 4568POPC   C1B59743  24.491  42.766   6.230
 4568POPC   C2B59744  24.409  42.710   6.679
 4568POPC   C3B59745  24.351  42.884   7.080
 4568POPC   C4B59746  24.571  42.786   7.478
 4569POPC   NC359747  22.715  40.401   5.082
 4569POPC   PO459748  22.822  39.710   5.245
 4569POPC   GL159749  22.809  39.889   5.695
 4569POPC   GL259750  22.794  40.253   5.741
 4569POPC   C1A59751  22.857  39.919   6.175
 4569POPC   D2A59752  22.696  39.749   6.581
 4569POPC   C3A59753  22.933  39.925   6.903
 4569POPC   C4A59754  23.378  40.031   7.017
 4569POPC   C1B59755  22.637  40.393   6.142
 4569POPC   C2B59756  22.676  40.280   6.554
 4569POPC   C3B59757  22.578  40.382   6.939
 4569POPC   C4B59758  22.813  40.278   7.300
 4570POPC   NC359759   7.117  11.125   5.168
 4570POPC   PO459760   7.682  11.442   5.403
 4570POPC   GL159761   7.656  11.279   5.806
 4570POPC   GL259762   7.358  11.129   5.687
 4570POPC   C1A59763   7.633  11.411   6.253
 4570POPC   D2A59764   7.233  11.472   6.518
 4570POPC   C3A59765   7.235  11.719   6.910
 4570POPC   C4A59766   7.576  11.720   7.172
 4570POPC   C1B59767   7.247  11.106   6.122
 4570POPC   C2B59768   7.440  10.958   6.499
 4570POPC   C3B59769   7.447  11.030   6.937
 4570POPC   C4B59770   7.632  11.243   7.294
 4571POPC   NC359771  10.702  14.542   5.575
 4571POPC   PO459772  10.097  14.202   5.426
 4571POPC   GL159773  10.294  14.122   5.876
 4571POPC   GL259774  10.586  14.328   6.001
 4571POPC   C1A59775  10.191  14.302   6.282
 4571POPC   D2A59776  10.252  14.477   6.680
 4571POPC   C3A59777  10.125  14.256   7.044
 4571POPC   C4A59778  10.410  14.395   7.327
 4571POPC   C1B59779  10.898  14.350   6.284
 4571POPC   C2B59780  10.743  14.288   6.670
 4571POPC   C3B59781  10.799  14.466   7.032
 4571POPC   C4B59782  11.158  14.727   7.099
 4572POPC   NC359783   1.688   9.119   5.136
 4572POPC   PO459784   2.294   9.062   5.428
 4572POPC   GL159785   1.954   8.942   5.763
 4572POPC   GL259786   1.647   8.732   5.729
 4572POPC   C1A59787   1.963   8.954   6.218
 4572POPC   D2A59788   2.029   9.215   6.579
 4572POPC   C3A59789   1.910   9.045   6.952
 4572POPC   C4A59790   2.174   9.202   7.243
 4572POPC   C1B59791   1.639   8.577   6.176
 4572POPC   C2B59792   1.771   8.629   6.620
 4572POPC   C3B59793   1.545   8.679   7.020
 4572POPC   C4B59794   1.614   8.743   7.470
 4573POPC   NC359795  23.573  21.133   5.197
 4573POPC   PO459796  22.869  21.323   5.131
 4573POPC   GL159797  22.871  21.427   5.644
 4573POPC   GL259798  22.930  21.732   5.751
 4573POPC   C1A59799  23.030  21.383   6.125
 4573POPC   D2A59800  23.238  21.535   6.557
 4573POPC   C3A59801  23.262  21.289   6.966
 4573POPC   C4A59802  22.980  21.224   7.276
 4573POPC   C1B59803  22.744  21.825   6.136
 4573POPC   C2B59804  22.704  21.565   6.488
 4573POPC   C3B59805  22.843  21.571   6.913
 4573POPC   C4B59806  22.828  21.716   7.326
 4574POPC   NC359807  17.727   4.631   4.995
 4574POPC   PO459808  17.272   4.184   5.182
 4574POPC   GL159809  17.424   4.274   5.694
 4574POPC   GL259810  17.121   4.183   5.831
 4574POPC   C1A59811  17.757   4.439   6.098
 4574POPC   D2A59812  18.088   4.378   6.455
 4574POPC   C3A59813  17.907   4.209   6.822
 4574POPC   C4A59814  17.770   4.489   7.164
 4574POPC   C1B59815  17.262   4.464   6.169
 4574POPC   C2B59816  17.479   4.465   6.583
 4574POPC   C3B59817  17.296   4.420   6.997
 4574POPC   C4B59818  17.129   4.658   7.318
 4575POPC   NC359819  16.974  43.794   5.651
 4575POPC   PO459820  17.468  44.293   5.408
 4575POPC   GL159821  17.762  44.063   5.739
 4575POPC   GL259822  17.443  43.995   5.856
 4575POPC   C1A59823  17.783  43.802   6.173
 4575POPC   D2A59824  17.562  43.700   6.567
 4575POPC   C3A59825  17.640  44.011   6.857
 4575POPC   C4A59826  17.725  43.955   7.259
 4575POPC   C1B59827  17.266  43.995   6.259
 4575POPC   C2B59828  17.169  44.134   6.668
 4575POPC   C3B59829  17.208  43.984   7.112
 4575POPC   C4B59830  16.956  44.009   7.461
 4576POPC   NC359831   6.981   5.710   5.531
 4576POPC   PO459832   6.655   6.241   5.300
 4576POPC   GL159833   6.564   5.986   5.716
 4576POPC   GL259834   6.420   5.635   5.706
 4576POPC   C1A59835   6.721   5.963   6.159
 4576POPC   D2A59836   7.023   5.839   6.498
 4576POPC   C3A59837   6.836   5.798   6.920
 4576POPC   C4A59838   6.721   5.729   7.353
 4576POPC   C1B59839   6.266   5.696   6.144
 4576POPC   C2B59840   6.434   5.712   6.586
 4576POPC   C3B59841   6.302   5.751   7.032
 4576POPC   C4B59842   6.258   5.889   7.469
 4577POPC   NC359843   2.198  44.014   5.532
 4577POPC   PO459844   1.696  43.662   5.386
 4577POPC   GL159845   1.830  43.693   5.784
 4577POPC   GL259846   1.758  44.017   5.841
 4577POPC   C1A59847   1.834  43.733   6.234
 4577POPC   D2A59848   1.914  43.980   6.628
 4577POPC   C3A59849   1.870  43.818   7.027
 4577POPC   C4A59850   1.981  43.715   7.443
 4577POPC   C1B59851   1.989  44.214   6.184
 4577POPC   C2B59852   2.277  44.324   6.531
 4577POPC   C3B59853   2.272  44.205   6.967
 4577POPC   C4B59854   2.043  44.214   7.334
 4578POPC   NC359855  29.210   2.602   5.224
 4578POPC   PO459856  29.179   1.962   5.432
 4578POPC   GL159857  29.122   2.092   5.850
 4578POPC   GL259858  29.351   2.383   5.805
 4578POPC   C1A59859  29.026   2.111   6.309
 4578POPC   D2A59860  29.266   1.913   6.639
 4578POPC   C3A59861  29.158   2.040   7.063
 4578POPC   C4A59862  29.071   1.870   7.476
 4578POPC   C1B59863  29.334   2.525   6.249
 4578POPC   C2B59864  29.283   2.436   6.711
 4578POPC   C3B59865  29.444   2.469   7.141
 4578POPC   C4B59866  29.240   2.371   7.521
 4579POPC   NC359867  22.240  16.827   5.403
 4579POPC   PO459868  22.130  16.182   5.492
 4579POPC   GL159869  22.376  16.466   5.830
 4579POPC   GL259870  22.412  16.848   5.865
 4579POPC   C1A59871  22.497  16.611   6.293
 4579POPC   D2A59872  22.423  16.998   6.581
 4579POPC   C3A59873  22.469  16.885   7.011
 4579POPC   C4A59874  22.231  16.746   7.393
 4579POPC   C1B59875  22.116  17.058   6.159
 4579POPC   C2B59876  21.975  17.236   6.586
 4579POPC   C3B59877  21.976  17.091   7.047
 4579POPC   C4B59878  21.892  17.111   7.534
 4580POPC   NC359879   9.319  36.656   5.361
 4580POPC   PO459880   8.781  36.908   5.417
 4580POPC   GL159881   8.992  36.821   5.800
 4580POPC   GL259882   9.107  36.475   5.818
 4580POPC   C1A59883   8.875  37.010   6.199
 4580POPC   D2A59884   8.843  36.927   6.649
 4580POPC   C3A59885   9.115  37.138   6.950
 4580POPC   C4A59886   9.155  37.384   7.351
 4580POPC   C1B59887   9.010  36.528   6.266
 4580POPC   C2B59888   9.225  36.591   6.673
 4580POPC   C3B59889   9.056  36.642   7.101
 4580POPC   C4B59890   8.913  36.385   7.468
 4581POPC   NC359891  44.975  37.970   5.396
 4581POPC   PO459892  44.772  37.308   5.403
 4581POPC   GL159893  44.584  37.568   5.759
 4581POPC   GL259894  44.268  37.799   5.715
 4581POPC   C1A59895  44.594  37.739   6.219
 4581POPC   D2A59896  44.548  37.487   6.594
 4581POPC   C3A59897  44.784  37.509   6.978
 4581POPC   C4A59898  44.704  37.805   7.279
 4581POPC   C1B59899  44.142  37.928   6.157
 4581POPC   C2B59900  44.317  38.001   6.604
 4581POPC   C3B59901  44.237  37.983   7.075
 4581POPC   C4B59902  44.313  38.003   7.569
 4582POPC   NC359903   2.259   8.603   5.507
 4582POPC   PO459904   1.729   8.284   5.456
 4582POPC   GL159905   1.971   8.350   5.837
 4582POPC   GL259906   2.230   8.084   5.858
 4582POPC   C1A59907   2.105   8.394   6.261
 4582POPC   D2A59908   2.149   8.277   6.690
 4582POPC   C3A59909   2.083   8.542   7.048
 4582POPC   C4A59910   2.017   8.315   7.434
 4582POPC   C1B59911   1.855   7.958   6.127
 4582POPC   C2B59912   1.695   8.120   6.492
 4582POPC   C3B59913   1.718   8.187   6.954
 4582POPC   C4B59914   1.510   8.265   7.342
 4583POPC   NC359915  28.192  32.545   5.468
 4583POPC   PO459916  28.696  32.134   5.399
 4583POPC   GL159917  28.569  32.092   5.779
 4583POPC   GL259918  28.223  32.092   5.820
 4583POPC   C1A59919  28.642  32.064   6.195
 4583POPC   D2A59920  28.374  32.029   6.543
 4583POPC   C3A59921  28.551  32.076   6.953
 4583POPC   C4A59922  28.272  32.099   7.282
 4583POPC   C1B59923  28.369  32.477   6.085
 4583POPC   C2B59924  28.369  32.552   6.513
 4583POPC   C3B59925  28.132  32.410   6.869
 4583POPC   C4B59926  28.167  32.599   7.269
 4584POPC   NC359927  25.509  24.218   5.160
 4584POPC   PO459928  25.066  24.598   5.394
 4584POPC   GL159929  25.251  24.520   5.806
 4584POPC   GL259930  25.018  24.306   5.868
 4584POPC   C1A59931  25.254  24.611   6.271
 4584POPC   D2A59932  25.187  24.533   6.736
 4584POPC   C3A59933  25.396  24.376   7.145
 4584POPC   C4A59934  25.446  24.386   7.617
 4584POPC   C1B59935  24.828  24.201   6.241
 4584POPC   C2B59936  24.727  24.347   6.634
 4584POPC   C3B59937  24.854  24.316   7.060
 4584POPC   C4B59938  24.990  24.569   7.407
 4585POPC   NC359939  27.541   5.558   5.484
 4585POPC   PO459940  27.587   4.888   5.329
 4585POPC   GL159941  27.683   5.047   5.752
 4585POPC   GL259942  27.921   5.352   5.789
 4585POPC   C1A59943  27.634   4.893   6.187
 4585POPC   D2A59944  27.393   4.776   6.574
 4585POPC   C3A59945  27.577   4.919   6.943
 4585POPC   C4A59946  27.406   5.067   7.307
 4585POPC   C1B59947  27.630   5.412   6.149
 4585POPC   C2B59948  27.402   5.295   6.540
 4585POPC   C3B59949  27.510   5.426   6.956
 4585POPC   C4B59950  27.881   5.332   7.220
 4586POPC   NC359951   0.784  36.581   5.645
 4586POPC   PO459952   1.300  36.183   5.423
 4586POPC   GL159953   1.091  36.212   5.811
 4586POPC   GL259954   1.235  36.530   5.891
 4586POPC   C1A59955   0.895  36.308   6.236
 4586POPC   D2A59956   1.050  36.043   6.568
 4586POPC   C3A59957   0.976  36.042   7.016
 4586POPC   C4A59958   0.861  35.912   7.438
 4586POPC   C1B59959   1.381  36.466   6.315
 4586POPC   C2B59960   1.199  36.521   6.726
 4586POPC   C3B59961   1.336  36.390   7.110
 4586POPC   C4B59962   1.350  36.107   7.418
 4587POPC   NC359963  38.353  18.441   5.404
 4587POPC   PO459964  38.669  17.872   5.512
 4587POPC   GL159965  38.549  18.130   5.926
 4587POPC   GL259966  38.197  18.319   5.876
 4587POPC   C1A59967  38.596  18.416   6.339
 4587POPC   D2A59968  38.790  18.708   6.628
 4587POPC   C3A59969  38.726  18.585   7.035
 4587POPC   C4A59970  38.516  18.244   7.227
 4587POPC   C1B59971  38.082  18.430   6.317
 4587POPC   C2B59972  38.296  18.470   6.746
 4587POPC   C3B59973  38.213  18.644   7.146
 4587POPC   C4B59974  38.101  18.611   7.601
 4588POPC   NC359975  25.752  40.057   5.499
 4588POPC   PO459976  26.390  39.932   5.253
 4588POPC   GL159977  26.382  40.179   5.671
 4588POPC   GL259978  26.131  40.438   5.678
 4588POPC   C1A59979  26.361  40.097   6.137
 4588POPC   D2A59980  26.089  39.906   6.470
 4588POPC   C3A59981  26.210  39.877   6.908
 4588POPC   C4A59982  26.348  40.081   7.298
 4588POPC   C1B59983  25.975  40.417   6.124
 4588POPC   C2B59984  26.121  40.503   6.573
 4588POPC   C3B59985  26.037  40.366   7.004
 4588POPC   C4B59986  25.710  40.069   7.166
 4589POPC   NC359987  37.862   6.765   5.272
 4589POPC   PO459988  38.468   6.503   5.415
 4589POPC   GL159989  38.459   6.505   5.826
 4589POPC   GL259990  38.794   6.369   5.817
 4589POPC   C1A59991  38.354   6.818   6.162
 4589POPC   D2A59992  38.438   6.662   6.567
 4589POPC   C3A59993  38.296   6.895   6.924
 4589POPC   C4A59994  38.057   6.848   7.269
 4589POPC   C1B59995  38.822   6.642   6.180
 4589POPC   C2B59996  38.948   6.870   6.523
 4589POPC   C3B59997  38.797   6.800   6.892
 4589POPC   C4B59998  38.858   6.684   7.265
 4590POPC   NC359999  24.589  18.417   5.005
 4590POPC   PO460000  24.829  17.973   5.403
 4590POPC   GL160001  24.603  18.224   5.741
 4590POPC   GL260002  24.267  18.090   5.837
 4590POPC   C1A60003  24.607  18.255   6.194
 4590POPC   D2A60004  24.831  18.336   6.578
 4590POPC   C3A60005  24.565  18.404   6.926
 4590POPC   C4A60006  24.559  18.198   7.308
 4590POPC   C1B60007  24.086  18.237   6.220
 4590POPC   C2B60008  24.052  18.348   6.656
 4590POPC   C3B60009  24.104  18.104   7.037
 4590POPC   C4B60010  24.089  18.056   7.492
 4591POPC   NC360011   8.614  35.595   5.133
 4591POPC   PO460012   8.059  35.302   5.285
 4591POPC   GL160013   8.031  35.289   5.725
 4591POPC   GL260014   7.800  35.066   5.737
 4591POPC   C1A60015   8.089  35.363   6.187
 4591POPC   D2A60016   8.423  35.362   6.536
 4591POPC   C3A60017   8.340  35.500   6.968
 4591POPC   C4A60018   8.427  35.297   7.343
 4591POPC   C1B60019   7.935  34.876   6.132
 4591POPC   C2B60020   8.034  34.990   6.561
 4591POPC   C3B60021   7.959  35.118   6.982
 4591POPC   C4B60022   7.952  34.885   7.315
 4592POPC   NC360023  24.984  20.703   5.725
 4592POPC   PO460024  24.411  20.441   5.530
 4592POPC   GL160025  24.506  20.578   5.958
 4592POPC   GL260026  24.421  20.944   6.029
 4592POPC   C1A60027  24.734  20.494   6.352
 4592POPC   D2A60028  24.766  20.671   6.776
 4592POPC   C3A60029  24.489  20.566   7.093
 4592POPC   C4A60030  24.122  20.408   7.323
 4592POPC   C1B60031  24.828  21.003   6.301
 4592POPC   C2B60032  24.906  21.177   6.707
 4592POPC   C3B60033  24.690  21.063   7.127
 4592POPC   C4B60034  24.836  20.733   7.444
 4593POPC   NC360035  23.092  24.171   5.366
 4593POPC   PO460036  22.867  24.816   5.545
 4593POPC   GL160037  22.837  24.453   5.789
 4593POPC   GL260038  22.524  24.543   5.911
 4593POPC   C1A60039  23.056  24.237   6.151
 4593POPC   D2A60040  23.119  23.958   6.516
 4593POPC   C3A60041  23.078  24.195   6.915
 4593POPC   C4A60042  23.105  24.633   7.092
 4593POPC   C1B60043  22.602  24.468   6.316
 4593POPC   C2B60044  22.809  24.637   6.661
 4593POPC   C3B60045  22.620  24.470   7.002
 4593POPC   C4B60046  22.766  24.360   7.364
 4594POPC   NC360047  14.945  27.399   5.483
 4594POPC   PO460048  15.654  27.553   5.557
 4594POPC   GL160049  15.361  27.331   5.842
 4594POPC   GL260050  15.150  27.634   5.894
 4594POPC   C1A60051  15.100  27.279   6.231
 4594POPC   D2A60052  14.999  27.395   6.686
 4594POPC   C3A60053  15.074  27.705   7.033
 4594POPC   C4A60054  15.032  27.620   7.484
 4594POPC   C1B60055  15.455  27.646   6.265
 4594POPC   C2B60056  15.562  27.720   6.724
 4594POPC   C3B60057  15.485  28.049   7.044
 4594POPC   C4B60058  15.262  28.068   7.459
 4595POPC   NC360059  11.449  31.621   5.277
 4595POPC   PO460060  10.845  31.294   5.268
 4595POPC   GL160061  10.822  31.437   5.718
 4595POPC   GL260062  10.944  31.766   5.805
 4595POPC   C1A60063  10.850  31.410   6.173
 4595POPC   D2A60064  11.071  31.449   6.573
 4595POPC   C3A60065  10.905  31.538   7.000
 4595POPC   C4A60066  11.150  31.511   7.428
 4595POPC   C1B60067  11.294  31.667   6.120
 4595POPC   C2B60068  11.486  31.737   6.542
 4595POPC   C3B60069  11.416  31.528   6.970
 4595POPC   C4B60070  11.652  31.347   7.329
 4596POPC   NC360071  26.491  12.490   5.532
 4596POPC   PO460072  26.765  13.137   5.536
 4596POPC   GL160073  26.856  12.985   5.876
 4596POPC   GL260074  26.780  12.687   5.896
 4596POPC   C1A60075  26.799  12.958   6.317
 4596POPC   D2A60076  26.940  13.042   6.692
 4596POPC   C3A60077  26.751  12.854   6.984
 4596POPC   C4A60078  26.830  12.721   7.328
 4596POPC   C1B60079  26.544  12.504   6.247
 4596POPC   C2B60080  26.664  12.432   6.685
 4596POPC   C3B60081  26.532  12.370   7.111
 4596POPC   C4B60082  26.383  12.568   7.517
 4597POPC   NC360083  44.862  13.571   5.181
 4597POPC   PO460084  44.356  13.157   5.322
 4597POPC   GL160085  44.406  13.424   5.755
 4597POPC   GL260086  44.737  13.622   5.762
 4597POPC   C1A60087  44.555  13.511   6.230
 4597POPC   D2A60088  44.809  13.638   6.614
 4597POPC   C3A60089  44.627  13.667   7.039
 4597POPC   C4A60090  44.287  13.919   7.169
 4597POPC   C1B60091  44.992  13.774   6.130
 4597POPC   C2B60092   0.246  13.876   6.506
 4597POPC   C3B60093   0.143  13.875   6.954
 4597POPC   C4B60094   0.188  14.101   7.356
 4598POPC   NC360095  29.908  19.595   5.064
 4598POPC   PO460096  30.066  20.205   5.440
 4598POPC   GL160097  29.829  19.938   5.758
 4598POPC   GL260098  29.535  19.680   5.762
 4598POPC   C1A60099  29.910  19.778   6.180
 4598POPC   D2A60100  30.042  19.979   6.562
 4598POPC   C3A60101  30.071  19.668   6.882
 4598POPC   C4A60102  30.050  19.439   7.278
 4598POPC   C1B60103  29.523  19.439   6.180
 4598POPC   C2B60104  29.404  19.379   6.640
 4598POPC   C3B60105  29.588  19.574   7.041
 4598POPC   C4B60106  29.592  19.473   7.516
 4599POPC   NC360107  20.203  29.127   5.492
 4599POPC   PO460108  20.847  29.182   5.405
 4599POPC   GL160109  20.701  28.939   5.726
 4599POPC   GL260110  20.551  29.211   5.918
 4599POPC   C1A60111  20.867  28.858   6.127
 4599POPC   D2A60112  20.793  29.028   6.534
 4599POPC   C3A60113  20.971  28.895   6.913
 4599POPC   C4A60114  20.718  29.092   7.195
 4599POPC   C1B60115  20.339  28.851   6.104
 4599POPC   C2B60116  20.291  28.755   6.531
 4599POPC   C3B60117  20.272  29.027   6.858
 4599POPC   C4B60118  20.257  28.886   7.249
 4600POPC   NC360119  13.622  11.743   5.352
 4600POPC   PO460120  13.779  12.465   5.363
 4600POPC   GL160121  13.424  12.220   5.619
 4600POPC   GL260122  13.491  11.887   5.799
 4600POPC   C1A60123  13.320  12.244   6.088
 4600POPC   D2A60124  13.609  12.042   6.400
 4600POPC   C3A60125  13.543  12.129   6.857
 4600POPC   C4A60126  13.765  12.372   7.174
 4600POPC   C1B60127  13.343  11.621   6.120
 4600POPC   C2B60128  13.424  11.600   6.562
 4600POPC   C3B60129  13.158  11.767   6.879
 4600POPC   C4B60130  13.444  11.754   7.213
 4601POPC   NC360131  43.269   4.098   5.410
 4601POPC   PO460132  43.473   4.566   5.742
 4601POPC   GL160133  43.163   4.318   5.886
 4601POPC   GL260134  42.969   4.612   5.920
 4601POPC   C1A60135  43.237   4.086   6.277
 4601POPC   D2A60136  43.422   4.210   6.654
 4601POPC   C3A60137  43.198   4.173   7.045
 4601POPC   C4A60138  43.201   4.239   7.511
 4601POPC   C1B60139  43.193   4.594   6.330
 4601POPC   C2B60140  43.189   4.709   6.744
 4601POPC   C3B60141  42.877   4.581   7.027
 4601POPC   C4B60142  42.821   4.532   7.458
 4602POPC   NC360143  42.792  28.205   5.027
 4602POPC   PO460144  43.335  28.365   5.349
 4602POPC   GL160145  43.289  28.470   5.802
 4602POPC   GL260146  42.969  28.408   5.983
 4602POPC   C1A60147  43.409  28.513   6.232
 4602POPC   D2A60148  43.448  28.719   6.596
 4602POPC   C3A60149  43.321  28.408   6.866
 4602POPC   C4A60150  43.058  28.291   7.174
 4602POPC   C1B60151  42.976  28.048   6.291
 4602POPC   C2B60152  42.685  27.875   6.640
 4602POPC   C3B60153  42.667  27.967   7.119
 4602POPC   C4B60154  42.813  28.060   7.574
 4603POPC   NC360155  34.138  26.184   5.496
 4603POPC   PO460156  33.424  26.234   5.448
 4603POPC   GL160157  33.557  25.969   5.807
 4603POPC   GL260158  33.889  25.783   5.772
 4603POPC   C1A60159  33.598  26.118   6.230
 4603POPC   D2A60160  33.759  26.019   6.625
 4603POPC   C3A60161  33.657  26.299   6.932
 4603POPC   C4A60162  33.530  26.124   7.298
 4603POPC   C1B60163  34.095  25.966   6.151
 4603POPC   C2B60164  34.276  26.056   6.561
 4603POPC   C3B60165  34.163  26.245   6.974
 4603POPC   C4B60166  34.007  26.231   7.415
 4604POPC   NC360167  36.881  38.650   5.428
 4604POPC   PO460168  36.437  38.171   5.305
 4604POPC   GL160169  36.610  38.264   5.753
 4604POPC   GL260170  36.614  38.618   5.868
 4604POPC   C1A60171  36.576  38.248   6.257
 4604POPC   D2A60172  36.687  38.087   6.702
 4604POPC   C3A60173  36.655  38.358   7.081
 4604POPC   C4A60174  36.921  38.353   7.438
 4604POPC   C1B60175  37.031  38.438   6.055
 4604POPC   C2B60176  37.116  38.382   6.502
 4604POPC   C3B60177  37.157  38.370   6.934
 4604POPC   C4B60178  37.247  38.667   7.224
 4605POPC   NC360179   5.440  20.945   5.397
 4605POPC   PO460180   5.138  20.285   5.366
 4605POPC   GL160181   4.944  20.345   5.767
 4605POPC   GL260182   4.889  20.704   5.784
 4605POPC   C1A60183   5.046  20.463   6.199
 4605POPC   D2A60184   4.933  20.653   6.569
 4605POPC   C3A60185   4.881  20.453   6.924
 4605POPC   C4A60186   5.036  20.603   7.302
 4605POPC   C1B60187   5.274  20.868   6.016
 4605POPC   C2B60188   5.351  20.907   6.460
 4605POPC   C3B60189   5.361  20.685   6.867
 4605POPC   C4B60190   5.448  20.905   7.248
 4606POPC   NC360191   7.591  16.330   5.424
 4606POPC   PO460192   7.363  15.581   5.336
 4606POPC   GL160193   7.518  15.875   5.701
 4606POPC   GL260194   7.263  16.091   5.830
 4606POPC   C1A60195   7.683  15.948   6.149
 4606POPC   D2A60196   7.430  16.001   6.542
 4606POPC   C3A60197   7.335  15.801   6.936
 4606POPC   C4A60198   7.435  15.884   7.387
 4606POPC   C1B60199   7.195  16.330   6.216
 4606POPC   C2B60200   7.313  16.527   6.611
 4606POPC   C3B60201   7.345  16.298   7.001
 4606POPC   C4B60202   7.046  16.205   7.348
 4607POPC   NC360203  26.994  13.766   5.385
 4607POPC   PO460204  26.381  14.130   5.408
 4607POPC   GL160205  26.650  13.960   5.720
 4607POPC   GL260206  26.716  13.599   5.753
 4607POPC   C1A60207  26.830  13.953   6.133
 4607POPC   D2A60208  26.833  13.758   6.526
 4607POPC   C3A60209  27.027  13.755   6.913
 4607POPC   C4A60210  26.704  13.877   7.158
 4607POPC   C1B60211  26.792  13.426   6.142
 4607POPC   C2B60212  26.530  13.359   6.517
 4607POPC   C3B60213  26.651  13.373   6.961
 4607POPC   C4B60214  27.017  13.246   7.206
 4608POPC   NC360215  31.522  39.778   5.349
 4608POPC   PO460216  31.329  40.458   5.254
 4608POPC   GL160217  31.330  40.184   5.644
 4608POPC   GL260218  31.645  40.237   5.835
 4608POPC   C1A60219  31.193  40.198   6.097
 4608POPC   D2A60220  31.453  40.217   6.470
 4608POPC   C3A60221  31.321  40.176   6.889
 4608POPC   C4A60222  31.366  40.037   7.316
 4608POPC   C1B60223  31.594  39.853   6.128
 4608POPC   C2B60224  31.682  39.756   6.608
 4608POPC   C3B60225  31.735  39.811   7.065
 4608POPC   C4B60226  31.897  39.834   7.486
 4609POPC   NC360227   9.806   2.749   5.355
 4609POPC   PO460228  10.221   3.155   5.737
 4609POPC   GL160229   9.876   2.886   5.850
 4609POPC   GL260230  10.097   2.597   5.781
 4609POPC   C1A60231   9.560   2.734   6.158
 4609POPC   D2A60232   9.345   2.547   6.523
 4609POPC   C3A60233   9.509   2.661   6.944
 4609POPC   C4A60234   9.376   2.780   7.408
 4609POPC   C1B60235  10.126   2.708   6.242
 4609POPC   C2B60236   9.873   2.997   6.491
 4609POPC   C3B60237   9.812   3.080   6.922
 4609POPC   C4B60238   9.905   2.764   7.268
 4610POPC   NC360239  18.766   1.556   5.336
 4610POPC   PO460240  19.027   2.086   5.222
 4610POPC   GL160241  18.970   2.061   5.681
 4610POPC   GL260242  18.994   1.707   5.775
 4610POPC   C1A60243  18.988   2.040   6.143
 4610POPC   D2A60244  18.742   1.940   6.496
 4610POPC   C3A60245  18.998   2.086   6.831
 4610POPC   C4A60246  19.154   2.311   7.205
 4610POPC   C1B60247  18.802   1.527   6.179
 4610POPC   C2B60248  18.652   1.439   6.613
 4610POPC   C3B60249  18.736   1.559   7.027
 4610POPC   C4B60250  18.999   1.821   7.254
 4611POPC   NC360251  35.376  44.975   5.388
 4611POPC   PO460252  35.037  44.395   5.465
 4611POPC   GL160253  35.349  44.489   5.842
 4611POPC   GL260254  35.449  44.812   5.867
 4611POPC   C1A60255  35.566  44.449   6.258
 4611POPC   D2A60256  35.301  44.472   6.632
 4611POPC   C3A60257  35.377  44.593   7.072
 4611POPC   C4A60258  35.048  44.766   7.301
 4611POPC   C1B60259  35.253  44.848   6.269
 4611POPC   C2B60260  35.488  44.939   6.668
 4611POPC   C3B60261  35.510   0.074   7.115
 4611POPC   C4B60262  35.432   0.007   7.561
 4612POPC   NC360263   1.785  19.188   5.555
 4612POPC   PO460264   2.300  18.776   5.539
 4612POPC   GL160265   2.122  18.922   5.938
 4612POPC   GL260266   1.746  18.870   5.966
 4612POPC   C1A60267   2.093  19.211   6.302
 4612POPC   D2A60268   1.714  19.309   6.556
 4612POPC   C3A60269   1.763  19.184   6.969
 4612POPC   C4A60270   2.179  19.193   7.104
 4612POPC   C1B60271   1.779  18.816   6.372
 4612POPC   C2B60272   2.084  18.688   6.657
 4612POPC   C3B60273   1.989  18.727   7.073
 4612POPC   C4B60274   1.542  18.707   7.140
 4613POPC   NC360275  32.492  29.303   5.288
 4613POPC   PO460276  31.907  28.934   5.563
 4613POPC   GL160277  32.278  29.127   5.728
 4613POPC   GL260278  32.192  29.461   5.722
 4613POPC   C1A60279  32.525  29.281   6.113
 4613POPC   D2A60280  32.619  29.041   6.505
 4613POPC   C3A60281  32.297  28.968   6.845
 4613POPC   C4A60282  32.340  29.152   7.267
 4613POPC   C1B60283  31.997  29.338   6.124
 4613POPC   C2B60284  32.162  29.354   6.522
 4613POPC   C3B60285  32.029  29.411   6.933
 4613POPC   C4B60286  31.896  29.397   7.340
 4614POPC   NC360287  41.617  23.423   5.566
 4614POPC   PO460288  41.652  24.104   5.477
 4614POPC   GL160289  41.679  23.916   5.912
 4614POPC   GL260290  41.579  23.577   6.032
 4614POPC   C1A60291  41.716  23.934   6.376
 4614POPC   D2A60292  41.984  24.055   6.690
 4614POPC   C3A60293  41.873  23.823   7.010
 4614POPC   C4A60294  41.712  23.907   7.365
 4614POPC   C1B60295  41.291  23.289   6.213
 4614POPC   C2B60296  41.304  23.209   6.659
 4614POPC   C3B60297  41.493  23.400   7.006
 4614POPC   C4B60298  41.733  23.402   7.374
 4615POPC   NC360299  10.063  33.707   5.444
 4615POPC   PO460300   9.463  33.796   5.453
 4615POPC   GL160301   9.585  33.724   5.890
 4615POPC   GL260302   9.896  33.556   5.920
 4615POPC   C1A60303   9.570  33.714   6.347
 4615POPC   D2A60304   9.337  33.826   6.714
 4615POPC   C3A60305   9.447  33.671   7.101
 4615POPC   C4A60306   9.651  33.815   7.462
 4615POPC   C1B60307   9.910  33.323   6.346
 4615POPC   C2B60308   9.869  33.569   6.764
 4615POPC   C3B60309  10.067  33.716   7.169
 4615POPC   C4B60310  10.083  33.582   7.629
 4616POPC   NC360311  20.866  14.872   5.348
 4616POPC   PO460312  21.304  14.516   5.303
 4616POPC   GL160313  21.619  14.472   5.690
 4616POPC   GL260314  21.583  14.771   5.871
 4616POPC   C1A60315  21.776  14.286   6.132
 4616POPC   D2A60316  21.807  14.102   6.603
 4616POPC   C3A60317  21.659  14.291   7.021
 4616POPC   C4A60318  21.540  14.261   7.473
 4616POPC   C1B60319  21.469  14.646   6.322
 4616POPC   C2B60320  21.285  14.481   6.723
 4616POPC   C3B60321  21.183  14.479   7.178
 4616POPC   C4B60322  21.370  14.741   7.509
 4617POPC   NC360323  24.882  26.604   5.538
 4617POPC   PO460324  25.464  26.931   5.387
 4617POPC   GL160325  25.274  26.873   5.808
 4617POPC   GL260326  25.512  26.650   5.873
 4617POPC   C1A60327  25.294  26.902   6.314
 4617POPC   D2A60328  25.265  27.054   6.779
 4617POPC   C3A60329  25.096  26.860   7.210
 4617POPC   C4A60330  25.100  26.998   7.664
 4617POPC   C1B60331  25.717  26.626   6.246
 4617POPC   C2B60332  25.670  26.688   6.667
 4617POPC   C3B60333  25.612  26.787   7.059
 4617POPC   C4B60334  25.495  26.433   7.286
 4618POPC   NC360335  41.875   5.231   5.602
 4618POPC   PO460336  41.258   4.966   5.407
 4618POPC   GL160337  41.366   4.876   5.821
 4618POPC   GL260338  41.439   5.228   5.911
 4618POPC   C1A60339  41.497   4.778   6.255
 4618POPC   D2A60340  41.726   4.855   6.653
 4618POPC   C3A60341  41.559   4.976   7.055
 4618POPC   C4A60342  41.659   4.902   7.477
 4618POPC   C1B60343  41.215   5.204   6.303
 4618POPC   C2B60344  41.068   5.342   6.730
 4618POPC   C3B60345  41.276   5.590   7.030
 4618POPC   C4B60346  41.466   5.450   7.404
 4619POPC   NC360347  38.084  26.602   5.572
 4619POPC   PO460348  37.698  27.093   5.335
 4619POPC   GL160349  37.657  26.941   5.794
 4619POPC   GL260350  37.463  26.660   5.928
 4619POPC   C1A60351  37.688  27.034   6.250
 4619POPC   D2A60352  37.810  27.336   6.566
 4619POPC   C3A60353  37.814  27.116   6.941
 4619POPC   C4A60354  37.627  26.824   7.181
 4619POPC   C1B60355  37.765  26.524   6.236
 4619POPC   C2B60356  37.857  26.640   6.678
 4619POPC   C3B60357  37.775  26.371   7.040
 4619POPC   C4B60358  37.446  26.415   7.411
 4620POPC   NC360359  32.474  40.131   5.020
 4620POPC   PO460360  31.988  39.897   5.447
 4620POPC   GL160361  32.278  39.910   5.784
 4620POPC   GL260362  32.156  40.184   5.962
 4620POPC   C1A60363  32.349  39.722   6.194
 4620POPC   D2A60364  32.153  39.472   6.525
 4620POPC   C3A60365  32.194  39.738   6.861
 4620POPC   C4A60366  32.347  39.704   7.275
 4620POPC   C1B60367  31.962  40.126   6.371
 4620POPC   C2B60368  31.866  40.249   6.807
 4620POPC   C3B60369  32.125  40.151   7.164
 4620POPC   C4B60370  32.483  40.207   7.394
 4621POPC   NC360371   7.959  29.379   5.469
 4621POPC   PO460372   7.914  28.719   5.406
 4621POPC   GL160373   8.216  28.912   5.788
 4621POPC   GL260374   8.305  29.282   5.847
 4621POPC   C1A60375   8.246  28.958   6.238
 4621POPC   D2A60376   8.197  29.292   6.555
 4621POPC   C3A60377   8.197  29.075   6.913
 4621POPC   C4A60378   8.194  28.816   7.274
 4621POPC   C1B60379   8.604  29.316   6.228
 4621POPC   C2B60380   8.715  29.234   6.658
 4621POPC   C3B60381   8.512  29.475   6.969
 4621POPC   C4B60382   8.378  29.347   7.336
 4622POPC   NC360383   0.076  23.636   5.369
 4622POPC   PO460384   0.726  23.745   5.402
 4622POPC   GL160385   0.436  23.724   5.735
 4622POPC   GL260386   0.334  23.395   5.848
 4622POPC   C1A60387   0.504  23.808   6.162
 4622POPC   D2A60388   0.471  23.714   6.580
 4622POPC   C3A60389   0.697  23.926   6.908
 4622POPC   C4A60390   0.436  23.993   7.262
 4622POPC   C1B60391   0.164  23.392   6.270
 4622POPC   C2B60392   0.275  23.232   6.692
 4622POPC   C3B60393   0.366  23.534   7.040
 4622POPC   C4B60394   0.479  23.515   7.472
 4623POPC   NC360395  27.515  32.075   5.417
 4623POPC   PO460396  27.811  32.559   5.209
 4623POPC   GL160397  27.796  32.357   5.718
 4623POPC   GL260398  27.487  32.280   5.889
 4623POPC   C1A60399  27.866  32.422   6.207
 4623POPC   D2A60400  27.566  32.232   6.507
 4623POPC   C3A60401  27.540  32.312   6.931
 4623POPC   C4A60402  27.787  32.285   7.255
 4623POPC   C1B60403  27.289  31.972   6.160
 4623POPC   C2B60404  27.416  31.718   6.506
 4623POPC   C3B60405  27.365  31.824   6.913
 4623POPC   C4B60406  27.361  32.006   7.309
 4624POPC   NC360407   2.338  21.039   5.386
 4624POPC   PO460408   1.993  21.596   5.335
 4624POPC   GL160409   2.096  21.609   5.735
 4624POPC   GL260410   1.960  21.290   5.777
 4624POPC   C1A60411   1.947  21.626   6.145
 4624POPC   D2A60412   1.893  21.269   6.400
 4624POPC   C3A60413   1.876  21.415   6.815
 4624POPC   C4A60414   2.079  21.639   7.176
 4624POPC   C1B60415   2.067  20.909   6.001
 4624POPC   C2B60416   2.218  20.832   6.396
 4624POPC   C3B60417   2.109  20.957   6.803
 4624POPC   C4B60418   2.009  21.128   7.209
 4625POPC   NC360419   0.841  12.347   5.441
 4625POPC   PO460420   1.560  12.424   5.348
 4625POPC   GL160421   1.434  12.572   5.779
 4625POPC   GL260422   1.080  12.692   5.915
 4625POPC   C1A60423   1.501  12.578   6.207
 4625POPC   D2A60424   1.163  12.602   6.518
 4625POPC   C3A60425   1.183  12.525   6.989
 4625POPC   C4A60426   1.402  12.424   7.410
 4625POPC   C1B60427   0.939  13.020   6.258
 4625POPC   C2B60428   0.905  13.195   6.722
 4625POPC   C3B60429   0.929  13.077   7.183
 4625POPC   C4B60430   0.753  13.086   7.609
 4626POPC   NC360431  30.898  33.842   5.398
 4626POPC   PO460432  30.360  34.213   5.649
 4626POPC   GL160433  30.583  33.979   5.993
 4626POPC   GL260434  30.877  33.808   5.899
 4626POPC   C1A60435  30.688  33.859   6.420
 4626POPC   D2A60436  30.939  34.116   6.713
 4626POPC   C3A60437  30.852  34.048   7.139
 4626POPC   C4A60438  30.511  33.857   7.194
 4626POPC   C1B60439  31.064  33.523   6.164
 4626POPC   C2B60440  31.134  33.658   6.563
 4626POPC   C3B60441  30.843  33.604   6.868
 4626POPC   C4B60442  30.903  33.544   7.283
 4627POPC   NC360443  15.303  22.485   5.412
 4627POPC   PO460444  14.785  22.060   5.383
 4627POPC   GL160445  15.046  22.120   5.753
 4627POPC   GL260446  14.947  22.454   5.782
 4627POPC   C1A60447  14.961  22.051   6.223
 4627POPC   D2A60448  15.225  21.999   6.608
 4627POPC   C3A60449  15.187  21.854   7.034
 4627POPC   C4A60450  15.031  22.057   7.397
 4627POPC   C1B60451  15.228  22.494   6.133
 4627POPC   C2B60452  15.447  22.459   6.540
 4627POPC   C3B60453  15.316  22.381   6.997
 4627POPC   C4B60454  14.975  22.564   7.304
 4628POPC   NC360455  15.731   5.909   5.101
 4628POPC   PO460456  16.131   5.506   5.480
 4628POPC   GL160457  16.016   5.799   5.806
 4628POPC   GL260458  15.721   5.927   5.655
 4628POPC   C1A60459  16.040   5.867   6.265
 4628POPC   D2A60460  16.154   6.068   6.660
 4628POPC   C3A60461  16.087   5.754   6.991
 4628POPC   C4A60462  16.114   5.388   7.227
 4628POPC   C1B60463  15.600   6.045   6.079
 4628POPC   C2B60464  15.669   6.171   6.524
 4628POPC   C3B60465  15.639   5.992   6.939
 4628POPC   C4B60466  15.787   5.998   7.366
 4629POPC   NC360467   6.674  31.366   5.349
 4629POPC   PO460468   6.602  31.992   5.347
 4629POPC   GL160469   6.669  31.721   5.751
 4629POPC   GL260470   6.941  31.865   5.938
 4629POPC   C1A60471   6.731  31.400   6.148
 4629POPC   D2A60472   6.518  31.438   6.591
 4629POPC   C3A60473   6.526  31.348   7.059
 4629POPC   C4A60474   6.787  31.324   7.451
 4629POPC   C1B60475   6.642  31.865   6.311
 4629POPC   C2B60476   6.715  31.872   6.772
 4629POPC   C3B60477   6.721  31.789   7.224
 4629POPC   C4B60478   6.943  31.770   7.642
 4630POPC   NC360479  27.222  16.118   5.340
 4630POPC   PO460480  26.590  16.038   5.539
 4630POPC   GL160481  26.988  16.064   5.781
 4630POPC   GL260482  27.110  16.424   5.766
 4630POPC   C1A60483  27.048  15.835   6.145
 4630POPC   D2A60484  26.958  16.086   6.494
 4630POPC   C3A60485  26.994  15.896   6.861
 4630POPC   C4A60486  26.680  15.991   7.130
 4630POPC   C1B60487  26.955  16.534   6.195
 4630POPC   C2B60488  26.978  16.563   6.656
 4630POPC   C3B60489  27.093  16.365   7.039
 4630POPC   C4B60490  27.144  16.083   7.343
 4631POPC   NC360491   8.383  34.762   5.298
 4631POPC   PO460492   7.921  34.319   5.407
 4631POPC   GL160493   8.128  34.533   5.754
 4631POPC   GL260494   8.306  34.851   5.778
 4631POPC   C1A60495   8.304  34.486   6.158
 4631POPC   D2A60496   8.184  34.274   6.496
 4631POPC   C3A60497   8.263  34.501   6.891
 4631POPC   C4A60498   8.324  34.302   7.283
 4631POPC   C1B60499   8.443  34.975   6.166
 4631POPC   C2B60500   8.526  34.830   6.564
 4631POPC   C3B60501   8.442  34.985   6.934
 4631POPC   C4B60502   8.439  34.785   7.310
 4632POPC   NC360503  28.977   4.940   5.301
 4632POPC   PO460504  29.010   5.597   5.444
 4632POPC   GL160505  29.124   5.263   5.734
 4632POPC   GL260506  28.919   4.968   5.809
 4632POPC   C1A60507  29.199   5.240   6.193
 4632POPC   D2A60508  29.045   5.391   6.610
 4632POPC   C3A60509  29.307   5.243   6.992
 4632POPC   C4A60510  29.250   5.316   7.456
 4632POPC   C1B60511  29.088   4.735   6.175
 4632POPC   C2B60512  29.131   4.881   6.612
 4632POPC   C3B60513  29.017   4.816   7.061
 4632POPC   C4B60514  28.877   4.979   7.481
 4633POPC   NC360515  42.507  34.949   5.472
 4633POPC   PO460516  42.105  34.512   5.498
 4633POPC   GL160517  42.167  34.540   5.895
 4633POPC   GL260518  42.486  34.683   5.919
 4633POPC   C1A60519  41.997  34.523   6.301
 4633POPC   D2A60520  42.400  34.618   6.499
 4633POPC   C3A60521  42.350  34.642   6.926
 4633POPC   C4A60522  42.512  34.512   7.310
 4633POPC   C1B60523  42.670  34.974   6.244
 4633POPC   C2B60524  42.755  34.928   6.696
 4633POPC   C3B60525  42.677  34.970   7.155
 4633POPC   C4B60526  42.817  34.893   7.599
 4634POPC   NC360527  41.047   1.521   5.520
 4634POPC   PO460528  40.518   1.091   5.378
 4634POPC   GL160529  40.619   1.327   5.743
 4634POPC   GL260530  40.752   1.006   5.861
 4634POPC   C1A60531  40.789   1.411   6.166
 4634POPC   D2A60532  40.883   1.137   6.513
 4634POPC   C3A60533  40.692   1.236   6.896
 4634POPC   C4A60534  40.593   0.986   7.238
 4634POPC   C1B60535  41.051   0.818   6.138
 4634POPC   C2B60536  41.217   0.722   6.563
 4634POPC   C3B60537  41.009   0.834   6.952
 4634POPC   C4B60538  41.053   1.184   7.259
 4635POPC   NC360539  12.367  17.319   5.032
 4635POPC   PO460540  11.744  17.579   5.323
 4635POPC   GL160541  11.995  17.514   5.681
 4635POPC   GL260542  12.295  17.376   5.757
 4635POPC   C1A60543  11.936  17.478   6.133
 4635POPC   D2A60544  12.151  17.670   6.469
 4635POPC   C3A60545  12.089  17.596   6.881
 4635POPC   C4A60546  12.074  17.782   7.275
 4635POPC   C1B60547  12.170  17.033   6.101
 4635POPC   C2B60548  12.159  17.167   6.527
 4635POPC   C3B60549  11.989  17.086   6.953
 4635POPC   C4B60550  12.078  17.161   7.410
 4636POPC   NC360551   0.027  20.411   5.284
 4636POPC   PO460552  44.515  20.833   5.233
 4636POPC   GL160553  44.503  20.784   5.669
 4636POPC   GL260554  44.805  20.597   5.695
 4636POPC   C1A60555  44.618  20.863   6.104
 4636POPC   D2A60556  44.398  20.912   6.495
 4636POPC   C3A60557  44.588  20.791   6.875
 4636POPC   C4A60558  44.376  20.714   7.286
 4636POPC   C1B60559  44.826  20.375   6.074
 4636POPC   C2B60560  44.862  20.528   6.479
 4636POPC   C3B60561  44.856  20.340   6.872
 4636POPC   C4B60562  44.880  20.500   7.231
 4637POPC   NC360563  19.247  41.094   5.493
 4637POPC   PO460564  19.006  40.530   5.490
 4637POPC   GL160565  18.842  40.589   5.893
 4637POPC   GL260566  19.169  40.606   6.072
 4637POPC   C1A60567  18.753  40.800   6.299
 4637POPC   D2A60568  19.018  40.857   6.659
 4637POPC   C3A60569  18.801  40.812   7.060
 4637POPC   C4A60570  18.497  41.084   7.230
 4637POPC   C1B60571  19.178  40.386   6.508
 4637POPC   C2B60572  19.224  40.464   6.950
 4637POPC   C3B60573  19.312  40.889   7.073
 4637POPC   C4B60574  19.698  41.135   7.058
 4638POPC   NC360575  36.043   6.181   5.220
 4638POPC   PO460576  36.382   5.679   5.356
 4638POPC   GL160577  36.270   6.012   5.689
 4638POPC   GL260578  36.551   6.198   5.846
 4638POPC   C1A60579  36.027   6.172   6.084
 4638POPC   D2A60580  36.016   6.365   6.550
 4638POPC   C3A60581  35.913   6.191   7.030
 4638POPC   C4A60582  35.999   5.856   7.405
 4638POPC   C1B60583  36.488   6.176   6.303
 4638POPC   C2B60584  36.551   6.140   6.731
 4638POPC   C3B60585  36.376   5.913   7.066
 4638POPC   C4B60586  36.471   5.489   7.257
 4639POPC   NC360587   1.218  11.142   5.266
 4639POPC   PO460588   1.258  10.452   5.298
 4639POPC   GL160589   1.157  10.440   5.785
 4639POPC   GL260590   1.238  10.187   6.056
 4639POPC   C1A60591   1.079  10.636   6.227
 4639POPC   D2A60592   1.225  10.440   6.598
 4639POPC   C3A60593   1.101  10.543   6.990
 4639POPC   C4A60594   1.160  10.356   7.394
 4639POPC   C1B60595   1.563  10.562   6.214
 4639POPC   C2B60596   1.743  10.678   6.609
 4639POPC   C3B60597   1.618  10.558   7.031
 4639POPC   C4B60598   1.672  10.427   7.458
 4640POPC   NC360599  40.319  43.310   5.568
 4640POPC   PO460600  40.870  43.248   5.078
 4640POPC   GL160601  40.823  43.209   5.560
 4640POPC   GL260602  40.979  42.918   5.678
 4640POPC   C1A60603  40.755  43.232   6.072
 4640POPC   D2A60604  40.980  43.386   6.495
 4640POPC   C3A60605  40.808  43.446   6.954
 4640POPC   C4A60606  40.744  43.231   7.400
 4640POPC   C1B60607  40.912  42.752   6.105
 4640POPC   C2B60608  40.811  42.898   6.509
 4640POPC   C3B60609  41.032  42.989   6.866
 4640POPC   C4B60610  41.001  42.814   7.247
 4641POPC   NC360611  39.541   2.138   5.436
 4641POPC   PO460612  38.970   1.660   5.356
 4641POPC   GL160613  39.144   1.805   5.761
 4641POPC   GL260614  39.293   2.133   5.874
 4641POPC   C1A60615  39.101   1.734   6.219
 4641POPC   D2A60616  38.927   1.601   6.621
 4641POPC   C3A60617  39.055   1.905   6.924
 4641POPC   C4A60618  39.048   2.358   6.904
 4641POPC   C1B60619  39.504   2.069   6.264
 4641POPC   C2B60620  39.502   1.859   6.654
 4641POPC   C3B60621  39.519   2.126   7.010
 4641POPC   C4B60622  39.426   2.420   7.324
 4642POPC   NC360623   9.927   7.499   5.447
 4642POPC   PO460624   9.283   7.256   5.369
 4642POPC   GL160625   9.550   7.298   5.720
 4642POPC   GL260626   9.570   7.666   5.777
 4642POPC   C1A60627   9.688   7.182   6.123
 4642POPC   D2A60628   9.487   7.137   6.520
 4642POPC   C3A60629   9.775   7.128   6.863
 4642POPC   C4A60630   9.664   7.178   7.281
 4642POPC   C1B60631   9.869   7.669   6.118
 4642POPC   C2B60632   9.752   7.579   6.537
 4642POPC   C3B60633   9.893   7.683   6.948
 4642POPC   C4B60634   9.838   7.645   7.379
 4643POPC   NC360635  12.356  27.057   5.369
 4643POPC   PO460636  12.245  27.776   5.353
 4643POPC   GL160637  12.190  27.639   5.784
 4643POPC   GL260638  12.432  27.838   5.929
 4643POPC   C1A60639  12.098  27.424   6.195
 4643POPC   D2A60640  11.856  27.279   6.591
 4643POPC   C3A60641  12.034  27.396   7.010
 4643POPC   C4A60642  12.242  27.585   7.368
 4643POPC   C1B60643  12.097  27.921   6.216
 4643POPC   C2B60644  12.064  27.751   6.623
 4643POPC   C3B60645  12.032  27.940   7.021
 4643POPC   C4B60646  12.409  28.053   7.215
 4644POPC   NC360647  23.863  44.460   5.214
 4644POPC   PO460648  23.471  44.888   5.292
 4644POPC   GL160649  23.741  44.851   5.688
 4644POPC   GL260650  23.936  44.556   5.715
 4644POPC   C1A60651  23.658  44.771   6.136
 4644POPC   D2A60652  23.585  44.526   6.519
 4644POPC   C3A60653  23.523  44.757   6.904
 4644POPC   C4A60654  23.715  44.724   7.306
 4644POPC   C1B60655  24.069  44.445   6.104
 4644POPC   C2B60656  24.106  44.535   6.513
 4644POPC   C3B60657  24.021  44.592   6.915
 4644POPC   C4B60658  24.079  44.314   7.232
 4645POPC   NC360659   4.623  16.406   5.067
 4645POPC   PO460660   4.284  15.917   5.467
 4645POPC   GL160661   4.153  15.858   5.828
 4645POPC   GL260662   4.057  16.208   5.820
 4645POPC   C1A60663   4.287  15.626   6.189
 4645POPC   D2A60664   4.126  15.393   6.552
 4645POPC   C3A60665   4.244  15.587   6.931
 4645POPC   C4A60666   4.361  15.859   7.275
 4645POPC   C1B60667   4.285  16.189   6.191
 4645POPC   C2B60668   4.426  16.379   6.580
 4645POPC   C3B60669   4.261  16.258   6.980
 4645POPC   C4B60670   3.890  16.345   7.232
 4646POPC   NC360671  29.630   7.039   5.470
 4646POPC   PO460672  29.801   6.365   5.468
 4646POPC   GL160673  29.918   6.617   5.819
 4646POPC   GL260674  30.207   6.851   5.765
 4646POPC   C1A60675  29.878   6.385   6.224
 4646POPC   D2A60676  29.644   6.170   6.555
 4646POPC   C3A60677  29.736   6.403   6.926
 4646POPC   C4A60678  29.652   6.826   7.023
 4646POPC   C1B60679  30.233   6.744   6.211
 4646POPC   C2B60680  30.025   6.759   6.605
 4646POPC   C3B60681  30.166   6.863   6.991
 4646POPC   C4B60682  30.316   6.729   7.362
 4647POPC   NC360683  37.471  21.601   5.624
 4647POPC   PO460684  38.058  21.482   5.259
 4647POPC   GL160685  38.071  21.378   5.704
 4647POPC   GL260686  37.827  21.137   5.774
 4647POPC   C1A60687  37.953  21.491   6.148
 4647POPC   D2A60688  37.536  21.605   6.365
 4647POPC   C3A60689  37.562  21.593   6.814
 4647POPC   C4A60690  37.829  21.450   7.116
 4647POPC   C1B60691  37.614  21.111   6.201
 4647POPC   C2B60692  37.847  21.162   6.589
 4647POPC   C3B60693  37.757  20.970   6.968
 4647POPC   C4B60694  37.356  21.142   7.138
 4648POPC   NC360695   7.463  15.034   5.267
 4648POPC   PO460696   8.072  15.106   5.512
 4648POPC   GL160697   7.671  15.045   5.783
 4648POPC   GL260698   7.362  15.307   5.767
 4648POPC   C1A60699   7.523  15.179   6.220
 4648POPC   D2A60700   7.561  15.418   6.602
 4648POPC   C3A60701   7.639  15.065   6.864
 4648POPC   C4A60702   7.545  14.916   7.268
 4648POPC   C1B60703   7.273  15.626   6.134
 4648POPC   C2B60704   7.054  15.572   6.551
 4648POPC   C3B60705   7.144  15.328   6.953
 4648POPC   C4B60706   7.513  15.412   7.215
 4649POPC   NC360707  36.027   8.550   5.476
 4649POPC   PO460708  36.305   9.103   5.167
 4649POPC   GL160709  36.188   9.107   5.635
 4649POPC   GL260710  36.513   9.082   5.837
 4649POPC   C1A60711  36.060   9.026   6.089
 4649POPC   D2A60712  35.912   8.823   6.484
 4649POPC   C3A60713  36.155   8.944   6.867
 4649POPC   C4A60714  36.070   9.279   7.164
 4649POPC   C1B60715  36.530   9.275   6.270
 4649POPC   C2B60716  36.371   9.417   6.697
 4649POPC   C3B60717  36.586   9.285   7.077
 4649POPC   C4B60718  36.657   8.852   7.144
 4650POPC   NC360719   2.819   5.866   5.329
 4650POPC   PO460720   2.255   5.527   5.493
 4650POPC   GL160721   2.427   5.832   5.808
 4650POPC   GL260722   2.607   6.125   5.727
 4650POPC   C1A60723   2.732   5.859   6.171
 4650POPC   D2A60724   3.006   5.794   6.548
 4650POPC   C3A60725   2.775   5.879   6.922
 4650POPC   C4A60726   2.668   5.759   7.323
 4650POPC   C1B60727   3.057   6.183   5.974
 4650POPC   C2B60728   3.144   6.255   6.415
 4650POPC   C3B60729   3.165   6.203   6.869
 4650POPC   C4B60730   2.996   6.177   7.296
 4651POPC   NC360731  34.063  32.471   5.178
 4651POPC   PO460732  33.895  31.827   5.351
 4651POPC   GL160733  33.742  32.005   5.748
 4651POPC   GL260734  34.054  32.182   5.849
 4651POPC   C1A60735  33.735  32.046   6.223
 4651POPC   D2A60736  33.852  32.341   6.548
 4651POPC   C3A60737  33.726  32.395   7.000
 4651POPC   C4A60738  33.602  32.008   7.195
 4651POPC   C1B60739  34.174  32.614   5.984
 4651POPC   C2B60740  34.181  32.724   6.431
 4651POPC   C3B60741  34.247  32.476   6.831
 4651POPC   C4B60742  34.157  32.507   7.274
 4652POPC   NC360743  33.493  36.893   5.380
 4652POPC   PO460744  34.128  36.747   5.138
 4652POPC   GL160745  33.899  36.734   5.661
 4652POPC   GL260746  33.556  36.757   5.869
 4652POPC   C1A60747  33.931  36.656   6.171
 4652POPC   D2A60748  33.689  36.658   6.583
 4652POPC   C3A60749  33.723  36.954   6.925
 4652POPC   C4A60750  33.728  36.836   7.367
 4652POPC   C1B60751  33.626  37.053   6.266
 4652POPC   C2B60752  33.724  37.356   6.560
 4652POPC   C3B60753  33.443  37.381   6.853
 4652POPC   C4B60754  33.367  37.190   7.246
 4653POPC   NC360755  30.417  24.103   5.430
 4653POPC   PO460756  30.040  23.619   5.164
 4653POPC   GL160757  30.098  23.661   5.619
 4653POPC   GL260758  29.966  23.969   5.749
 4653POPC   C1A60759  30.086  23.578   6.075
 4653POPC   D2A60760  29.879  23.641   6.500
 4653POPC   C3A60761  30.040  23.587   6.938
 4653POPC   C4A60762  29.904  23.257   7.226
 4653POPC   C1B60763  29.660  23.942   6.111
 4653POPC   C2B60764  29.670  24.093   6.527
 4653POPC   C3B60765  29.666  23.950   6.954
 4653POPC   C4B60766  29.821  24.111   7.345
 4654POPC   NC360767  28.222   2.743   5.285
 4654POPC   PO460768  28.270   2.164   5.575
 4654POPC   GL160769  28.221   2.550   5.797
 4654POPC   GL260770  28.443   2.852   5.748
 4654POPC   C1A60771  28.288   2.676   6.231
 4654POPC   D2A60772  28.307   2.471   6.617
 4654POPC   C3A60773  28.161   2.748   6.913
 4654POPC   C4A60774  28.172   2.961   7.274
 4654POPC   C1B60775  28.559   3.112   6.113
 4654POPC   C2B60776  28.597   3.006   6.568
 4654POPC   C3B60777  28.649   2.956   7.034
 4654POPC   C4B60778  28.595   3.190   7.418
 4655POPC   NC360779  38.087  12.007   5.480
 4655POPC   PO460780  37.451  11.892   5.461
 4655POPC   GL160781  37.725  11.746   5.828
 4655POPC   GL260782  37.870  12.035   5.941
 4655POPC   C1A60783  37.779  11.657   6.319
 4655POPC   D2A60784  37.593  11.756   6.767
 4655POPC   C3A60785  37.858  11.950   7.107
 4655POPC   C4A60786  37.876  11.880   7.550
 4655POPC   C1B60787  37.664  12.142   6.300
 4655POPC   C2B60788  37.751  12.255   6.698
 4655POPC   C3B60789  37.742  12.503   7.072
 4655POPC   C4B60790  37.554  12.424   7.463
 4656POPC   NC360791  26.669  43.455   5.208
 4656POPC   PO460792  27.000  43.977   5.403
 4656POPC   GL160793  26.831  43.724   5.685
 4656POPC   GL260794  27.113  43.639   5.868
 4656POPC   C1A60795  26.654  43.700   6.111
 4656POPC   D2A60796  26.754  43.858   6.531
 4656POPC   C3A60797  26.941  43.619   6.862
 4656POPC   C4A60798  26.808  43.815   7.215
 4656POPC   C1B60799  27.139  43.942   6.174
 4656POPC   C2B60800  27.292  43.912   6.598
 4656POPC   C3B60801  27.135  44.098   6.957
 4656POPC   C4B60802  27.114  44.309   7.335
 4657POPC   NC360803  15.126  24.859   5.235
 4657POPC   PO460804  15.247  24.259   5.584
 4657POPC   GL160805  15.111  24.653   5.730
 4657POPC   GL260806  15.345  24.929   5.701
 4657POPC   C1A60807  14.960  24.759   6.158
 4657POPC   D2A60808  14.772  24.467   6.484
 4657POPC   C3A60809  14.988  24.367   6.876
 4657POPC   C4A60810  14.816  24.374   7.285
 4657POPC   C1B60811  15.487  24.745   6.091
 4657POPC   C2B60812  15.413  24.543   6.488
 4657POPC   C3B60813  15.348  24.716   6.893
 4657POPC   C4B60814  15.306  24.558   7.293
 4658POPC   NC360815  43.983  38.085   5.345
 4658POPC   PO460816  43.649  37.536   5.172
 4658POPC   GL160817  43.868  37.456   5.573
 4658POPC   GL260818  43.711  37.737   5.724
 4658POPC   C1A60819  43.985  37.452   6.030
 4658POPC   D2A60820  43.778  37.483   6.442
 4658POPC   C3A60821  44.032  37.580   6.777
 4658POPC   C4A60822  43.944  37.521   7.199
 4658POPC   C1B60823  43.632  37.886   6.179
 4658POPC   C2B60824  43.799  38.024   6.571
 4658POPC   C3B60825  43.660  37.884   6.986
 4658POPC   C4B60826  43.839  37.989   7.393
 4659POPC   NC360827  23.037  20.988   5.486
 4659POPC   PO460828  22.725  20.368   5.394
 4659POPC   GL160829  22.787  20.620   5.730
 4659POPC   GL260830  23.153  20.543   5.738
 4659POPC   C1A60831  22.864  20.701   6.160
 4659POPC   D2A60832  23.019  20.594   6.576
 4659POPC   C3A60833  22.851  20.875   6.902
 4659POPC   C4A60834  22.635  20.862   7.301
 4659POPC   C1B60835  23.283  20.334   6.144
 4659POPC   C2B60836  23.464  20.319   6.583
 4659POPC   C3B60837  23.234  20.353   7.001
 4659POPC   C4B60838  23.182  20.747   7.272
 4660POPC   NC360839  33.126  35.963   5.347
 4660POPC   PO460840  32.885  36.515   5.529
 4660POPC   GL160841  33.028  36.164   5.798
 4660POPC   GL260842  32.819  35.847   5.745
 4660POPC   C1A60843  33.215  36.087   6.198
 4660POPC   D2A60844  33.267  36.364   6.588
 4660POPC   C3A60845  33.171  36.167   6.987
 4660POPC   C4A60846  33.403  35.827   7.181
 4660POPC   C1B60847  32.714  35.994   6.160
 4660POPC   C2B60848  32.856  36.028   6.571
 4660POPC   C3B60849  32.670  36.261   6.891
 4660POPC   C4B60850  32.682  36.076   7.281
 4661POPC   NC360851  20.589  33.349   5.492
 4661POPC   PO460852  20.568  32.765   5.175
 4661POPC   GL160853  20.587  32.702   5.728
 4661POPC   GL260854  20.800  32.960   6.004
 4661POPC   C1A60855  20.451  32.699   6.234
 4661POPC   D2A60856  20.635  32.873   6.655
 4661POPC   C3A60857  20.353  32.887   7.054
 4661POPC   C4A60858  20.388  33.102   7.462
 4661POPC   C1B60859  20.555  33.260   6.271
 4661POPC   C2B60860  20.588  33.519   6.642
 4661POPC   C3B60861  20.627  33.325   7.057
 4661POPC   C4B60862  20.867  32.888   7.120
 4662POPC   NC360863  24.264  10.997   5.490
 4662POPC   PO460864  24.687  10.393   5.444
 4662POPC   GL160865  24.573  10.682   5.769
 4662POPC   GL260866  24.255  10.554   5.755
 4662POPC   C1A60867  24.389  10.884   6.136
 4662POPC   D2A60868  24.256  10.753   6.531
 4662POPC   C3A60869  24.576  10.764   6.824
 4662POPC   C4A60870  24.615  10.653   7.234
 4662POPC   C1B60871  24.426  10.319   6.092
 4662POPC   C2B60872  24.570  10.308   6.502
 4662POPC   C3B60873  24.477  10.262   6.914
 4662POPC   C4B60874  24.473  10.150   7.331
 4663POPC   NC360875   7.579  12.463   5.530
 4663POPC   PO460876   7.312  13.046   5.459
 4663POPC   GL160877   7.499  12.948   5.824
 4663POPC   GL260878   7.802  13.137   5.819
 4663POPC   C1A60879   7.356  12.799   6.228
 4663POPC   D2A60880   7.302  12.985   6.630
 4663POPC   C3A60881   7.407  12.697   6.965
 4663POPC   C4A60882   7.104  12.620   7.294
 4663POPC   C1B60883   7.662  13.223   6.234
 4663POPC   C2B60884   7.802  13.370   6.601
 4663POPC   C3B60885   7.647  13.190   6.981
 4663POPC   C4B60886   7.884  13.195   7.343
 4664POPC   NC360887  13.631   8.071   5.444
 4664POPC   PO460888  13.208   8.696   5.439
 4664POPC   GL160889  13.495   8.492   5.711
 4664POPC   GL260890  13.248   8.542   5.936
 4664POPC   C1A60891  13.603   8.218   6.106
 4664POPC   D2A60892  13.656   8.312   6.585
 4664POPC   C3A60893  13.715   8.103   7.041
 4664POPC   C4A60894  13.839   8.237   7.484
 4664POPC   C1B60895  13.177   8.377   6.337
 4664POPC   C2B60896  13.094   8.552   6.699
 4664POPC   C3B60897  13.406   8.499   6.991
 4664POPC   C4B60898  13.376   8.359   7.414
 4665POPC   NC360899  42.472  26.805   5.302
 4665POPC   PO460900  41.934  27.226   5.335
 4665POPC   GL160901  42.246  27.016   5.690
 4665POPC   GL260902  42.211  26.632   5.712
 4665POPC   C1A60903  42.446  27.036   6.153
 4665POPC   D2A60904  42.266  26.848   6.568
 4665POPC   C3A60905  42.403  26.918   7.019
 4665POPC   C4A60906  42.193  26.906   7.470
 4665POPC   C1B60907  42.537  26.502   6.023
 4665POPC   C2B60908  42.689  26.606   6.453
 4665POPC   C3B60909  42.628  26.475   6.883
 4665POPC   C4B60910  42.454  26.489   7.305
 4666POPC   NC360911  17.798   8.297   5.268
 4666POPC   PO460912  18.082   8.981   5.360
 4666POPC   GL160913  18.128   8.886   5.782
 4666POPC   GL260914  17.828   9.068   5.859
 4666POPC   C1A60915  18.262   9.001   6.204
 4666POPC   D2A60916  18.476   8.984   6.595
 4666POPC   C3A60917  18.289   8.735   6.958
 4666POPC   C4A60918  18.202   8.887   7.386
 4666POPC   C1B60919  17.784   8.822   6.197
 4666POPC   C2B60920  17.906   8.990   6.590
 4666POPC   C3B60921  17.811   8.883   6.975
 4666POPC   C4B60922  17.827   8.583   7.258
 4667POPC   NC360923  40.326  43.433   5.059
 4667POPC   PO460924  40.019  42.926   5.494
 4667POPC   GL160925  39.902  43.074   5.883
 4667POPC   GL260926  39.631  42.828   5.847
 4667POPC   C1A60927  40.077  43.176   6.301
 4667POPC   D2A60928  40.454  43.281   6.577
 4667POPC   C3A60929  40.455  43.051   6.978
 4667POPC   C4A60930  40.084  43.076   7.266
 4667POPC   C1B60931  39.422  42.872   6.238
 4667POPC   C2B60932  39.582  43.108   6.568
 4667POPC   C3B60933  39.671  43.203   6.969
 4667POPC   C4B60934  39.598  42.954   7.326
 4668POPC   NC360935  21.214  42.570   5.505
 4668POPC   PO460936  21.599  42.011   5.476
 4668POPC   GL160937  21.381  42.190   5.833
 4668POPC   GL260938  21.032  42.166   5.791
 4668POPC   C1A60939  21.474  42.417   6.247
 4668POPC   D2A60940  21.828  42.579   6.530
 4668POPC   C3A60941  21.653  42.685   6.979
 4668POPC   C4A60942  21.355  42.583   7.335
 4668POPC   C1B60943  21.045  42.089   6.228
 4668POPC   C2B60944  21.227  42.167   6.647
 4668POPC   C3B60945  21.248  42.157   7.088
 4668POPC   C4B60946  21.060  42.114   7.512
 4669POPC   NC360947  30.419  26.911   5.391
 4669POPC   PO460948  31.004  26.568   5.647
 4669POPC   GL160949  30.669  26.779   5.824
 4669POPC   GL260950  30.369  26.570   5.790
 4669POPC   C1A60951  30.563  26.742   6.252
 4669POPC   D2A60952  30.569  26.850   6.686
 4669POPC   C3A60953  30.931  26.754   6.874
 4669POPC   C4A60954  31.065  27.048   7.150
 4669POPC   C1B60955  30.158  26.463   6.203
 4669POPC   C2B60956  30.453  26.360   6.565
 4669POPC   C3B60957  30.542  26.438   7.011
 4669POPC   C4B60958  30.526  26.866   7.228
 4670POPC   NC360959  21.461  44.353   5.554
 4670POPC   PO460960  21.283   0.033   5.407
 4670POPC   GL160961  21.468  44.824   5.737
 4670POPC   GL260962  21.155  44.632   5.855
 4670POPC   C1A60963  21.551  44.656   6.157
 4670POPC   D2A60964  21.712  44.326   6.446
 4670POPC   C3A60965  21.788  44.525   6.856
 4670POPC   C4A60966  21.702  44.626   7.313
 4670POPC   C1B60967  21.214  44.283   6.190
 4670POPC   C2B60968  21.268  44.266   6.671
 4670POPC   C3B60969  21.298  44.462   7.055
 4670POPC   C4B60970  21.110  44.832   7.192
 4671POPC   NC360971  20.046  31.004   5.391
 4671POPC   PO460972  19.948  30.303   5.340
 4671POPC   GL160973  19.856  30.565   5.694
 4671POPC   GL260974  20.129  30.693   5.783
 4671POPC   C1A60975  19.684  30.724   6.078
 4671POPC   D2A60976  19.824  30.990   6.436
 4671POPC   C3A60977  19.617  30.907   6.819
 4671POPC   C4A60978  19.677  30.768   7.232
 4671POPC   C1B60979  20.154  30.606   6.244
 4671POPC   C2B60980  20.205  30.728   6.687
 4671POPC   C3B60981  20.225  30.670   7.139
 4671POPC   C4B60982  20.449  30.532   7.494
 4672POPC   NC360983   8.464  25.485   5.451
 4672POPC   PO460984   7.811  25.723   5.440
 4672POPC   GL160985   8.066  25.453   5.762
 4672POPC   GL260986   8.351  25.624   5.929
 4672POPC   C1A60987   8.207  25.150   6.100
 4672POPC   D2A60988   8.419  25.004   6.503
 4672POPC   C3A60989   8.231  25.068   6.949
 4672POPC   C4A60990   7.915  24.910   7.225
 4672POPC   C1B60991   8.533  25.484   6.317
 4672POPC   C2B60992   8.293  25.477   6.655
 4672POPC   C3B60993   8.216  25.655   7.040
 4672POPC   C4B60994   8.214  25.553   7.451
 4673POPC   NC360995  27.509   4.506   5.596
 4673POPC   PO460996  27.028   4.059   5.321
 4673POPC   GL160997  27.281   4.031   5.744
 4673POPC   GL260998  27.653   4.016   5.780
 4673POPC   C1A60999  27.384   4.156   6.194
 4673POPC   D2A61000  27.632   4.049   6.594
 4673POPC   C3A61001  27.402   4.126   6.981
 4673POPC   C4A61002  27.273   4.556   7.113
 4673POPC   C1B61003  27.880   4.239   6.142
 4673POPC   C2B61004  27.821   4.525   6.487
 4673POPC   C3B61005  27.803   4.447   6.922
 4673POPC   C4B61006  28.111   4.423   7.231
 4674POPC   NC361007  11.290   2.623   5.169
 4674POPC   PO461008  10.953   3.169   5.279
 4674POPC   GL161009  11.168   2.856   5.639
 4674POPC   GL261010  11.432   2.550   5.674
 4674POPC   C1A61011  11.296   2.775   6.104
 4674POPC   D2A61012  11.426   2.962   6.523
 4674POPC   C3A61013  11.260   2.839   6.922
 4674POPC   C4A61014  11.341   3.035   7.316
 4674POPC   C1B61015  11.612   2.383   6.126
 4674POPC   C2B61016  11.494   2.421   6.612
 4674POPC   C3B61017  11.505   2.400   7.103
 4674POPC   C4B61018  11.763   2.239   7.458
 4675POPC   NC361019  25.821   3.777   5.478
 4675POPC   PO461020  26.312   3.325   5.376
 4675POPC   GL161021  26.252   3.334   5.838
 4675POPC   GL261022  26.482   3.094   5.999
 4675POPC   C1A61023  26.093   3.527   6.242
 4675POPC   D2A61024  25.977   3.811   6.615
 4675POPC   C3A61025  25.798   3.576   6.971
 4675POPC   C4A61026  25.768   3.623   7.418
 4675POPC   C1B61027  26.392   3.068   6.435
 4675POPC   C2B61028  26.140   3.295   6.709
 4675POPC   C3B61029  26.314   3.638   6.946
 4675POPC   C4B61030  26.452   3.622   7.341
 4676POPC   NC361031  33.273  31.253   5.060
 4676POPC   PO461032  32.660  31.351   5.228
 4676POPC   GL161033  32.834  31.656   5.606
 4676POPC   GL261034  33.131  31.752   5.746
 4676POPC   C1A61035  32.738  31.674   6.066
 4676POPC   D2A61036  32.765  31.399   6.450
 4676POPC   C3A61037  32.789  31.604   6.851
 4676POPC   C4A61038  32.871  31.455   7.229
 4676POPC   C1B61039  33.298  31.791   6.137
 4676POPC   C2B61040  33.190  31.718   6.553
 4676POPC   C3B61041  33.319  31.605   6.974
 4676POPC   C4B61042  33.322  31.262   7.294
 4677POPC   NC361043  16.224   4.020   5.577
 4677POPC   PO461044  16.896   3.838   5.505
 4677POPC   GL161045  16.891   3.679   5.908
 4677POPC   GL261046  17.213   3.666   5.937
 4677POPC   C1A61047  16.618   3.592   6.270
 4677POPC   D2A61048  16.334   3.518   6.629
 4677POPC   C3A61049  16.479   3.696   7.025
 4677POPC   C4A61050  16.565   3.849   7.450
 4677POPC   C1B61051  17.095   3.308   6.214
 4677POPC   C2B61052  16.842   3.254   6.613
 4677POPC   C3B61053  16.717   3.245   7.049
 4677POPC   C4B61054  16.885   3.444   7.403
 4678POPC   NC361055   8.616  26.875   5.516
 4678POPC   PO461056   9.099  26.574   5.097
 4678POPC   GL161057   9.059  26.578   5.579
 4678POPC   GL261058   9.078  26.917   5.726
 4678POPC   C1A61059   8.974  26.526   6.048
 4678POPC   D2A61060   8.725  26.747   6.377
 4678POPC   C3A61061   8.823  26.691   6.843
 4678POPC   C4A61062   9.020  26.570   7.252
 4678POPC   C1B61063   9.072  27.071   6.156
 4678POPC   C2B61064   9.268  27.013   6.558
 4678POPC   C3B61065   9.257  26.940   6.998
 4678POPC   C4B61066   8.929  27.140   7.187
 4679POPC   NC361067  26.202  21.745   5.422
 4679POPC   PO461068  26.858  21.590   5.328
 4679POPC   GL161069  26.730  21.672   5.746
 4679POPC   GL261070  26.896  21.380   5.898
 4679POPC   C1A61071  26.506  21.692   6.150
 4679POPC   D2A61072  26.635  21.852   6.575
 4679POPC   C3A61073  26.830  21.587   6.913
 4679POPC   C4A61074  27.136  21.704   7.204
 4679POPC   C1B61075  26.706  21.259   6.315
 4679POPC   C2B61076  26.437  21.371   6.665
 4679POPC   C3B61077  26.603  21.122   7.021
 4679POPC   C4B61078  27.017  21.151   7.185
 4680POPC   NC361079  33.214  25.807   5.445
 4680POPC   PO461080  32.670  26.278   5.335
 4680POPC   GL161081  32.904  26.141   5.716
 4680POPC   GL261082  32.772  25.818   5.719
 4680POPC   C1A61083  33.104  25.934   6.127
 4680POPC   D2A61084  33.227  26.023   6.602
 4680POPC   C3A61085  33.129  25.895   7.055
 4680POPC   C4A61086  33.064  26.124   7.490
 4680POPC   C1B61087  32.677  25.609   6.101
 4680POPC   C2B61088  32.802  25.715   6.523
 4680POPC   C3B61089  32.658  25.678   6.951
 4680POPC   C4B61090  32.730  25.756   7.397
 4681POPC   NC361091  30.572   7.098   5.314
 4681POPC   PO461092  30.839   7.650   5.667
 4681POPC   GL161093  30.482   7.390   5.752
 4681POPC   GL261094  30.660   7.092   5.820
 4681POPC   C1A61095  30.299   7.245   6.148
 4681POPC   D2A61096  30.457   7.040   6.561
 4681POPC   C3A61097  30.471   7.277   6.929
 4681POPC   C4A61098  30.389   7.220   7.336
 4681POPC   C1B61099  31.067   7.127   6.047
 4681POPC   C2B61100  31.144   7.064   6.512
 4681POPC   C3B61101  30.984   7.191   6.926
 4681POPC   C4B61102  31.023   7.488   7.294
 4682POPC   NC361103  15.893  23.024   5.576
 4682POPC   PO461104  16.507  22.709   5.456
 4682POPC   GL161105  16.239  22.652   5.880
 4682POPC   GL261106  15.853  22.621   5.957
 4682POPC   C1A61107  16.109  22.904   6.279
 4682POPC   D2A61108  15.817  22.813   6.620
 4682POPC   C3A61109  15.917  22.853   7.039
 4682POPC   C4A61110  15.820  23.106   7.408
 4682POPC   C1B61111  15.999  22.406   6.349
 4682POPC   C2B61112  16.312  22.567   6.672
 4682POPC   C3B61113  16.393  22.663   7.116
 4682POPC   C4B61114  16.161  22.731   7.497
 4683POPC   NC361115   0.504  20.135   5.528
 4683POPC   PO461116   0.626  19.471   5.523
 4683POPC   GL161117   0.440  19.681   5.918
 4683POPC   GL261118   0.209  19.970   5.926
 4683POPC   C1A61119   0.460  19.831   6.375
 4683POPC   D2A61120   0.726  20.000   6.720
 4683POPC   C3A61121   0.619  19.825   7.125
 4683POPC   C4A61122   0.303  19.570   7.396
 4683POPC   C1B61123   0.320  20.311   6.193
 4683POPC   C2B61124   0.302  20.284   6.624
 4683POPC   C3B61125   0.341  20.281   7.050
 4683POPC   C4B61126   0.276  20.084   7.412
 4684POPC   NC361127  35.483  15.806   5.444
 4684POPC   PO461128  34.870  16.137   5.287
 4684POPC   GL161129  35.089  16.063   5.715
 4684POPC   GL261130  35.145  15.693   5.805
 4684POPC   C1A61131  35.227  16.292   6.127
 4684POPC   D2A61132  35.491  16.254   6.506
 4684POPC   C3A61133  35.293  16.261   6.932
 4684POPC   C4A61134  35.374  16.023   7.331
 4684POPC   C1B61135  35.294  15.800   6.239
 4684POPC   C2B61136  35.405  15.795   6.667
 4684POPC   C3B61137  35.223  15.658   7.010
 4684POPC   C4B61138  35.184  15.549   7.436
 4685POPC   NC361139  32.778   9.221   5.408
 4685POPC   PO461140  33.312   8.809   5.371
 4685POPC   GL161141  33.191   8.683   5.805
 4685POPC   GL261142  32.870   8.813   5.803
 4685POPC   C1A61143  33.243   8.758   6.257
 4685POPC   D2A61144  33.228   9.151   6.496
 4685POPC   C3A61145  33.444   9.249   6.872
 4685POPC   C4A61146  33.285   9.127   7.253
 4685POPC   C1B61147  32.869   9.113   6.121
 4685POPC   C2B61148  32.735   9.249   6.531
 4685POPC   C3B61149  32.894   9.219   6.926
 4685POPC   C4B61150  32.810   9.207   7.376
 4686POPC   NC361151  28.564  30.978   5.125
 4686POPC   PO461152  29.193  31.080   5.480
 4686POPC   GL161153  29.156  30.818   5.853
 4686POPC   GL261154  29.296  30.495   5.772
 4686POPC   C1A61155  29.131  30.653   6.285
 4686POPC   D2A61156  28.958  30.503   6.681
 4686POPC   C3A61157  28.995  30.751   7.054
 4686POPC   C4A61158  28.950  30.668   7.462
 4686POPC   C1B61159  29.511  30.341   6.134
 4686POPC   C2B61160  29.449  30.231   6.574
 4686POPC   C3B61161  29.379  30.418   6.996
 4686POPC   C4B61162  29.433  30.727   7.333
 4687POPC   NC361163  35.788  36.512   5.236
 4687POPC   PO461164  36.278  36.009   5.402
 4687POPC   GL161165  36.104  36.041   5.817
 4687POPC   GL261166  36.358  36.179   6.001
 4687POPC   C1A61167  35.939  35.869   6.225
 4687POPC   D2A61168  35.994  35.658   6.643
 4687POPC   C3A61169  35.793  35.869   6.995
 4687POPC   C4A61170  35.766  36.233   7.293
 4687POPC   C1B61171  36.113  36.331   6.351
 4687POPC   C2B61172  35.911  36.381   6.754
 4687POPC   C3B61173  36.184  36.421   7.115
 4687POPC   C4B61174  36.257  36.179   7.501
 4688POPC   NC361175   6.872   6.618   5.126
 4688POPC   PO461176   6.456   6.870   5.661
 4688POPC   GL161177   6.717   6.729   6.006
 4688POPC   GL261178   6.576   6.431   5.954
 4688POPC   C1A61179   6.732   6.432   6.428
 4688POPC   D2A61180   6.752   6.402   6.882
 4688POPC   C3A61181   6.720   6.799   7.142
 4688POPC   C4A61182   7.067   6.961   7.407
 4688POPC   C1B61183   6.305   6.689   6.275
 4688POPC   C2B61184   6.400   6.760   6.695
 4688POPC   C3B61185   6.267   6.591   7.078
 4688POPC   C4B61186   6.092   6.848   7.396
 4689POPC   NC361187   8.200  30.955   5.469
 4689POPC   PO461188   8.655  30.555   5.279
 4689POPC   GL161189   8.339  30.546   5.734
 4689POPC   GL261190   8.035  30.318   5.735
 4689POPC   C1A61191   8.138  30.739   6.159
 4689POPC   D2A61192   8.032  30.936   6.599
 4689POPC   C3A61193   8.097  30.746   6.998
 4689POPC   C4A61194   7.990  30.572   7.397
 4689POPC   C1B61195   8.168  30.229   6.167
 4689POPC   C2B61196   8.143  30.407   6.594
 4689POPC   C3B61197   8.082  30.227   7.012
 4689POPC   C4B61198   8.341  30.210   7.404
 4690POPC   NC361199  12.429  31.446   5.351
 4690POPC   PO461200  11.843  31.365   5.285
 4690POPC   GL161201  11.997  31.406   5.743
 4690POPC   GL261202  12.089  31.081   5.867
 4690POPC   C1A61203  11.876  31.458   6.227
 4690POPC   D2A61204  11.820  31.371   6.692
 4690POPC   C3A61205  11.886  31.700   7.034
 4690POPC   C4A61206  12.073  31.617   7.463
 4690POPC   C1B61207  12.312  31.162   6.274
 4690POPC   C2B61208  12.326  31.255   6.717
 4690POPC   C3B61209  12.109  31.234   7.100
 4690POPC   C4B61210  12.273  31.097   7.452
 4691POPC   NC361211  17.579   9.085   5.424
 4691POPC   PO461212  17.322   8.478   5.405
 4691POPC   GL161213  17.421   8.726   5.782
 4691POPC   GL261214  17.276   9.061   5.839
 4691POPC   C1A61215  17.256   8.747   6.217
 4691POPC   D2A61216  17.474   8.713   6.595
 4691POPC   C3A61217  17.272   8.809   6.951
 4691POPC   C4A61218  17.427   8.892   7.309
 4691POPC   C1B61219  17.461   9.208   6.245
 4691POPC   C2B61220  17.466   9.471   6.610
 4691POPC   C3B61221  17.538   9.308   6.995
 4691POPC   C4B61222  17.865   9.287   7.297
 4692POPC   NC361223   9.502  26.445   5.343
 4692POPC   PO461224  10.019  26.795   5.227
 4692POPC   GL161225   9.929  26.751   5.677
 4692POPC   GL261226   9.584  26.830   5.714
 4692POPC   C1A61227   9.925  26.944   6.111
 4692POPC   D2A61228  10.030  26.806   6.525
 4692POPC   C3A61229   9.691  26.779   6.789
 4692POPC   C4A61230   9.758  27.010   7.159
 4692POPC   C1B61231   9.468  26.700   6.143
 4692POPC   C2B61232   9.273  26.494   6.496
 4692POPC   C3B61233   9.316  26.336   6.897
 4692POPC   C4B61234   9.548  26.501   7.238
 4693POPC   NC361235   3.132  43.989   5.274
 4693POPC   PO461236   2.521  43.639   5.472
 4693POPC   GL161237   2.329  43.622   5.905
 4693POPC   GL261238   2.417  43.975   5.986
 4693POPC   C1A61239   2.322  43.723   6.392
 4693POPC   D2A61240   2.563  43.845   6.730
 4693POPC   C3A61241   2.399  43.737   7.126
 4693POPC   C4A61242   2.435  43.960   7.522
 4693POPC   C1B61243   2.787  43.737   6.168
 4693POPC   C2B61244   2.952  43.547   6.563
 4693POPC   C3B61245   3.006  43.725   6.986
 4693POPC   C4B61246   2.788  44.083   7.171
 4694POPC   NC361247  39.630  22.444   5.629
 4694POPC   PO461248  39.430  21.845   5.338
 4694POPC   GL161249  39.451  21.992   5.791
 4694POPC   GL261250  39.814  21.944   5.850
 4694POPC   C1A61251  39.293  22.290   6.162
 4694POPC   D2A61252  39.110  22.529   6.519
 4694POPC   C3A61253  39.210  22.512   6.964
 4694POPC   C4A61254  39.027  22.425   7.380
 4694POPC   C1B61255  39.640  21.916   6.281
 4694POPC   C2B61256  39.382  22.048   6.646
 4694POPC   C3B61257  39.410  22.063   7.104
 4694POPC   C4B61258  39.784  21.897   7.301
 4695POPC   NC361259  40.610  24.457   5.234
 4695POPC   PO461260  41.094  24.933   5.514
 4695POPC   GL161261  40.857  24.588   5.667
 4695POPC   GL261262  41.031  24.257   5.772
 4695POPC   C1A61263  40.514  24.552   5.967
 4695POPC   D2A61264  40.425  24.678   6.399
 4695POPC   C3A61265  40.548  24.470   6.776
 4695POPC   C4A61266  40.584  24.630   7.180
 4695POPC   C1B61267  41.049  24.523   6.146
 4695POPC   C2B61268  41.121  24.767   6.508
 4695POPC   C3B61269  41.027  24.657   6.901
 4695POPC   C4B61270  41.098  24.304   7.160
 4696POPC   NC361271  28.671  34.990   5.624
 4696POPC   PO461272  28.262  35.483   5.323
 4696POPC   GL161273  28.431  35.440   5.759
 4696POPC   GL261274  28.246  35.135   5.900
 4696POPC   C1A61275  28.417  35.507   6.215
 4696POPC   D2A61276  28.118  35.704   6.493
 4696POPC   C3A61277  28.009  35.497   6.860
 4696POPC   C4A61278  28.195  35.416   7.237
 4696POPC   C1B61279  28.524  34.979   6.256
 4696POPC   C2B61280  28.691  34.860   6.666
 4696POPC   C3B61281  28.580  35.143   6.994
 4696POPC   C4B61282  28.521  35.046   7.426
 4697POPC   NC361283   0.200  26.880   5.483
 4697POPC   PO461284   0.817  27.272   5.414
 4697POPC   GL161285   0.564  27.167   5.796
 4697POPC   GL261286   0.546  26.826   5.836
 4697POPC   C1A61287   0.406  27.109   6.246
 4697POPC   D2A61288   0.142  27.072   6.628
 4697POPC   C3A61289   0.391  27.144   6.963
 4697POPC   C4A61290   0.615  26.915   7.265
 4697POPC   C1B61291   0.680  26.670   6.186
 4697POPC   C2B61292   0.621  26.798   6.604
 4697POPC   C3B61293   0.386  26.606   6.903
 4697POPC   C4B61294   0.501  26.420   7.279
 4698POPC   NC361295  30.361   5.408   5.527
 4698POPC   PO461296  30.754   5.026   5.128
 4698POPC   GL161297  30.743   5.077   5.626
 4698POPC   GL261298  30.493   4.885   5.852
 4698POPC   C1A61299  30.738   5.262   6.098
 4698POPC   D2A61300  30.821   5.076   6.527
 4698POPC   C3A61301  30.800   5.201   6.976
 4698POPC   C4A61302  31.065   5.125   7.384
 4698POPC   C1B61303  30.315   5.015   6.275
 4698POPC   C2B61304  30.358   5.028   6.728
 4698POPC   C3B61305  30.311   5.003   7.131
 4698POPC   C4B61306  30.636   4.825   7.318
 4699POPC   NC361307  22.152  37.385   5.315
 4699POPC   PO461308  22.375  38.017   5.362
 4699POPC   GL161309  22.118  37.799   5.712
 4699POPC   GL261310  21.894  37.488   5.753
 4699POPC   C1A61311  22.222  37.630   6.132
 4699POPC   D2A61312  22.480  37.553   6.502
 4699POPC   C3A61313  22.232  37.659   6.841
 4699POPC   C4A61314  22.270  37.933   7.201
 4699POPC   C1B61315  21.705  37.394   6.190
 4699POPC   C2B61316  21.717  37.335   6.659
 4699POPC   C3B61317  21.820  37.375   7.109
 4699POPC   C4B61318  21.916  37.648   7.516
 4700POPC   NC361319  41.096  34.514   5.601
 4700POPC   PO461320  40.770  34.840   5.083
 4700POPC   GL161321  40.665  34.827   5.661
 4700POPC   GL261322  40.615  34.479   5.818
 4700POPC   C1A61323  40.862  34.786   6.153
 4700POPC   D2A61324  40.929  34.846   6.597
 4700POPC   C3A61325  40.997  34.490   6.844
 4700POPC   C4A61326  40.979  34.578   7.247
 4700POPC   C1B61327  40.407  34.562   6.164
 4700POPC   C2B61328  40.548  34.485   6.559
 4700POPC   C3B61329  40.523  34.669   6.949
 4700POPC   C4B61330  40.478  34.558   7.366
 4701POPC   NC361331  40.323   6.388   5.510
 4701POPC   PO461332  39.742   6.689   5.609
 4701POPC   GL161333  40.063   6.543   5.929
 4701POPC   GL261334  40.469   6.627   5.937
 4701POPC   C1A61335  40.033   6.550   6.388
 4701POPC   D2A61336  39.852   6.848   6.659
 4701POPC   C3A61337  39.787   6.809   7.076
 4701POPC   C4A61338  39.806   6.550   7.401
 4701POPC   C1B61339  40.393   6.250   6.182
 4701POPC   C2B61340  40.174   6.085   6.565
 4701POPC   C3B61341  40.116   6.389   6.904
 4701POPC   C4B61342  40.296   6.454   7.292
 4702POPC   NC361343  14.158  25.052   5.391
 4702POPC   PO461344  14.843  25.051   5.533
 4702POPC   GL161345  14.494  25.131   5.813
 4702POPC   GL261346  14.269  25.397   5.765
 4702POPC   C1A61347  14.499  25.196   6.255
 4702POPC   D2A61348  14.743  25.000   6.571
 4702POPC   C3A61349  14.664  25.172   6.966
 4702POPC   C4A61350  14.331  25.311   7.213
 4702POPC   C1B61351  14.094  25.520   6.144
 4702POPC   C2B61352  14.140  25.674   6.528
 4702POPC   C3B61353  14.020  25.577   6.916
 4702POPC   C4B61354  14.088  25.779   7.284
 4703POPC   NC361355  29.509  44.931   4.868
 4703POPC   PO461356  29.909  44.542   5.270
 4703POPC   GL161357  30.008  44.555   5.727
 4703POPC   GL261358  30.003  44.880   5.855
 4703POPC   C1A61359  29.847  44.538   6.176
 4703POPC   D2A61360  29.831  44.351   6.564
 4703POPC   C3A61361  29.989  44.567   6.891
 4703POPC   C4A61362  29.807  44.522   7.255
 4703POPC   C1B61363  29.706   0.031   6.153
 4703POPC   C2B61364  29.746  44.893   6.567
 4703POPC   C3B61365  29.663  44.958   6.984
 4703POPC   C4B61366  29.917   0.026   7.356
 4704POPC   NC361367   4.818  18.130   5.139
 4704POPC   PO461368   5.203  17.916   5.619
 4704POPC   GL161369   5.030  18.193   5.888
 4704POPC   GL261370   5.130  18.536   5.888
 4704POPC   C1A61371   5.181  18.134   6.298
 4704POPC   D2A61372   5.121  18.271   6.715
 4704POPC   C3A61373   5.430  18.223   7.027
 4704POPC   C4A61374   5.260  18.221   7.423
 4704POPC   C1B61375   4.908  18.564   6.297
 4704POPC   C2B61376   4.847  18.709   6.729
 4704POPC   C3B61377   4.969  18.553   7.141
 4704POPC   C4B61378   4.838  18.464   7.558
 4705POPC   NC361379   4.442  21.011   5.383
 4705POPC   PO461380   4.418  21.636   5.412
 4705POPC   GL161381   4.332  21.364   5.787
 4705POPC   GL261382   4.597  21.121   5.866
 4705POPC   C1A61383   4.375  21.362   6.272
 4705POPC   D2A61384   4.507  21.440   6.718
 4705POPC   C3A61385   4.222  21.406   7.086
 4705POPC   C4A61386   3.984  21.754   7.284
 4705POPC   C1B61387   4.635  20.929   6.279
 4705POPC   C2B61388   4.548  20.932   6.761
 4705POPC   C3B61389   4.706  21.212   7.147
 4705POPC   C4B61390   4.691  21.527   7.536
 4706POPC   NC361391  44.885  44.709   5.273
 4706POPC   PO461392   0.104  44.178   5.678
 4706POPC   GL161393  44.946  44.579   5.820
 4706POPC   GL261394  44.609  44.716   5.804
 4706POPC   C1A61395  44.866  44.644   6.254
 4706POPC   D2A61396  44.654  44.518   6.577
 4706POPC   C3A61397  44.794  44.693   6.937
 4706POPC   C4A61398  44.891  44.376   7.201
 4706POPC   C1B61399  44.438  44.906   6.226
 4706POPC   C2B61400  44.388  44.920   6.703
 4706POPC   C3B61401  44.352  44.827   7.160
 4706POPC   C4B61402  44.209  44.806   7.607
 4707POPC   NC361403   4.105   7.085   5.596
 4707POPC   PO461404   4.548   6.694   5.236
 4707POPC   GL161405   4.478   6.623   5.734
 4707POPC   GL261406   4.126   6.591   5.837
 4707POPC   C1A61407   4.385   6.811   6.210
 4707POPC   D2A61408   4.506   6.802   6.666
 4707POPC   C3A61409   4.295   6.923   7.044
 4707POPC   C4A61410   4.396   6.772   7.502
 4707POPC   C1B61411   4.023   6.439   6.292
 4707POPC   C2B61412   4.070   6.542   6.748
 4707POPC   C3B61413   4.093   6.483   7.208
 4707POPC   C4B61414   3.994   6.272   7.595
 4708POPC   NC361415  27.076  41.208   5.262
 4708POPC   PO461416  26.567  40.704   5.389
 4708POPC   GL161417  26.520  40.825   5.798
 4708POPC   GL261418  26.841  40.986   5.760
 4708POPC   C1A61419  26.369  40.809   6.229
 4708POPC   D2A61420  26.695  40.798   6.525
 4708POPC   C3A61421  26.616  40.726   6.943
 4708POPC   C4A61422  26.805  40.805   7.324
 4708POPC   C1B61423  27.038  40.944   6.147
 4708POPC   C2B61424  27.206  40.818   6.547
 4708POPC   C3B61425  27.196  40.841   6.976
 4708POPC   C4B61426  27.194  41.254   7.079
 4709POPC   NC361427  23.242  19.290   5.171
 4709POPC   PO461428  22.574  19.056   5.352
 4709POPC   GL161429  22.830  19.169   5.761
 4709POPC   GL261430  23.143  19.321   5.681
 4709POPC   C1A61431  22.868  19.061   6.230
 4709POPC   D2A61432  22.972  18.874   6.673
 4709POPC   C3A61433  22.793  19.060   7.070
 4709POPC   C4A61434  22.723  19.181   7.529
 4709POPC   C1B61435  23.260  19.382   6.125
 4709POPC   C2B61436  23.067  19.433   6.551
 4709POPC   C3B61437  23.155  19.421   6.979
 4709POPC   C4B61438  23.543  19.387   7.168
 4710POPC   NC361439  25.689  33.938   5.610
 4710POPC   PO461440  25.095  33.649   5.492
 4710POPC   GL161441  25.353  33.619   5.844
 4710POPC   GL261442  25.257  33.992   5.853
 4710POPC   C1A61443  25.296  33.648   6.292
 4710POPC   D2A61444  24.938  33.651   6.581
 4710POPC   C3A61445  25.056  33.513   6.987
 4710POPC   C4A61446  25.382  33.486   7.283
 4710POPC   C1B61447  25.466  34.122   6.198
 4710POPC   C2B61448  25.185  34.138   6.516
 4710POPC   C3B61449  25.057  34.040   6.905
 4710POPC   C4B61450  25.116  33.951   7.343
 4711POPC   NC361451  23.216  44.127   5.401
 4711POPC   PO461452  22.839  43.546   5.544
 4711POPC   GL161453  22.854  43.942   5.740
 4711POPC   GL261454  23.192  43.949   5.900
 4711POPC   C1A61455  22.773  44.191   6.105
 4711POPC   D2A61456  22.649  44.041   6.505
 4711POPC   C3A61457  22.903  43.975   6.876
 4711POPC   C4A61458  22.700  43.999   7.261
 4711POPC   C1B61459  22.914  43.696   6.202
 4711POPC   C2B61460  22.837  43.539   6.628
 4711POPC   C3B61461  22.932  43.502   7.090
 4711POPC   C4B61462  22.845  43.524   7.561
 4712POPC   NC361463  12.659  12.008   5.408
 4712POPC   PO461464  12.055  12.236   5.174
 4712POPC   GL161465  12.155  12.255   5.670
 4712POPC   GL261466  12.499  12.391   5.740
 4712POPC   C1A61467  11.966  12.074   6.076
 4712POPC   D2A61468  11.852  11.974   6.534
 4712POPC   C3A61469  12.123  11.970   6.895
 4712POPC   C4A61470  12.026  12.089   7.304
 4712POPC   C1B61471  12.331  12.434   6.150
 4712POPC   C2B61472  12.254  12.337   6.575
 4712POPC   C3B61473  12.442  12.346   6.996
 4712POPC   C4B61474  12.449  12.629   7.308
 4713POPC   NC361475  42.332  41.189   5.447
 4713POPC   PO461476  42.542  41.811   5.382
 4713POPC   GL161477  42.338  41.773   5.789
 4713POPC   GL261478  42.300  41.440   5.877
 4713POPC   C1A61479  42.215  41.863   6.228
 4713POPC   D2A61480  42.022  41.725   6.638
 4713POPC   C3A61481  42.283  41.531   6.959
 4713POPC   C4A61482  42.429  41.439   7.370
 4713POPC   C1B61483  42.607  41.514   6.192
 4713POPC   C2B61484  42.645  41.348   6.598
 4713POPC   C3B61485  42.810  41.469   6.973
 4713POPC   C4B61486  42.714  41.795   7.186
 4714POPC   NC361487   6.725  19.087   5.158
 4714POPC   PO461488   6.914  19.442   5.673
 4714POPC   GL161489   6.700  19.044   5.825
 4714POPC   GL261490   6.367  18.870   5.678
 4714POPC   C1A61491   6.737  18.932   6.265
 4714POPC   D2A61492   6.725  18.843   6.679
 4714POPC   C3A61493   6.911  19.115   6.940
 4714POPC   C4A61494   6.878  19.201   7.358
 4714POPC   C1B61495   6.230  18.800   6.126
 4714POPC   C2B61496   6.249  19.019   6.545
 4714POPC   C3B61497   6.384  19.171   6.943
 4714POPC   C4B61498   6.362  19.428   7.310
 4715POPC   NC361499  13.406   4.991   5.472
 4715POPC   PO461500  13.743   5.577   5.531
 4715POPC   GL161501  13.800   5.262   5.821
 4715POPC   GL261502  13.444   5.271   5.914
 4715POPC   C1A61503  13.791   5.127   6.254
 4715POPC   D2A61504  13.399   5.247   6.461
 4715POPC   C3A61505  13.405   5.372   6.879
 4715POPC   C4A61506  13.561   5.372   7.298
 4715POPC   C1B61507  13.324   4.874   6.125
 4715POPC   C2B61508  13.167   4.777   6.516
 4715POPC   C3B61509  13.371   4.853   6.869
 4715POPC   C4B61510  13.301   4.674   7.235
 4716POPC   NC361511  39.052  33.363   5.464
 4716POPC   PO461512  39.479  32.793   5.479
 4716POPC   GL161513  39.335  33.041   5.849
 4716POPC   GL261514  39.570  33.345   5.833
 4716POPC   C1A61515  39.044  33.168   6.227
 4716POPC   D2A61516  38.736  33.119   6.601
 4716POPC   C3A61517  38.956  32.802   6.842
 4716POPC   C4A61518  39.244  32.827   7.179
 4716POPC   C1B61519  39.485  33.506   6.268
 4716POPC   C2B61520  39.447  33.390   6.724
 4716POPC   C3B61521  39.294  33.327   7.152
 4716POPC   C4B61522  38.847  33.170   7.200
 4717POPC   NC361523  19.990   9.234   5.387
 4717POPC   PO461524  20.405   8.702   5.444
 4717POPC   GL161525  20.574   9.028   5.692
 4717POPC   GL261526  20.280   9.161   5.800
 4717POPC   C1A61527  20.660   8.980   6.144
 4717POPC   D2A61528  20.703   8.854   6.581
 4717POPC   C3A61529  20.915   9.087   6.913
 4717POPC   C4A61530  20.876   9.050   7.384
 4717POPC   C1B61531  20.104   8.952   6.152
 4717POPC   C2B61532  20.165   8.986   6.593
 4717POPC   C3B61533  20.387   9.013   6.976
 4717POPC   C4B61534  20.430   9.273   7.312
 4718POPC   NC361535  22.263  31.589   5.477
 4718POPC   PO461536  22.015  31.066   5.633
 4718POPC   GL161537  22.043  31.439   5.935
 4718POPC   GL261538  22.412  31.554   5.972
 4718POPC   C1A61539  22.022  31.453   6.399
 4718POPC   D2A61540  22.354  31.548   6.723
 4718POPC   C3A61541  22.354  31.209   6.994
 4718POPC   C4A61542  22.047  31.448   7.159
 4718POPC   C1B61543  22.315  31.845   6.315
 4718POPC   C2B61544  21.916  31.923   6.614
 4718POPC   C3B61545  21.968  31.944   7.057
 4718POPC   C4B61546  22.407  31.914   7.132
 4719POPC   NC361547  31.616  25.524   5.410
 4719POPC   PO461548  31.443  24.825   5.409
 4719POPC   GL161549  31.484  25.006   5.806
 4719POPC   GL261550  31.509  25.384   5.873
 4719POPC   C1A61551  31.312  25.073   6.196
 4719POPC   D2A61552  31.553  25.290   6.466
 4719POPC   C3A61553  31.375  25.174   6.845
 4719POPC   C4A61554  31.659  25.056   7.162
 4719POPC   C1B61555  31.242  25.601   6.185
 4719POPC   C2B61556  31.279  25.663   6.644
 4719POPC   C3B61557  31.513  25.599   7.056
 4719POPC   C4B61558  31.327  25.766   7.396
 4720POPC   NC361559  42.542  21.140   5.502
 4720POPC   PO461560  42.137  21.685   5.325
 4720POPC   GL161561  42.189  21.376   5.757
 4720POPC   GL261562  42.189  21.642   5.992
 4720POPC   C1A61563  42.379  21.232   6.194
 4720POPC   D2A61564  42.227  21.406   6.576
 4720POPC   C3A61565  42.393  21.280   6.971
 4720POPC   C4A61566  42.103  21.304   7.241
 4720POPC   C1B61567  42.527  21.744   6.321
 4720POPC   C2B61568  42.551  21.754   6.804
 4720POPC   C3B61569  42.464  21.728   7.266
 4720POPC   C4B61570  42.740  21.719   7.659
 4721POPC   NC361571  11.050   2.122   5.635
 4721POPC   PO461572  11.547   2.249   5.253
 4721POPC   GL161573  11.546   2.044   5.718
 4721POPC   GL261574  11.426   1.717   5.747
 4721POPC   C1A61575  11.307   1.966   6.174
 4721POPC   D2A61576  11.042   2.174   6.476
 4721POPC   C3A61577  11.166   2.062   6.890
 4721POPC   C4A61578  10.961   2.091   7.272
 4721POPC   C1B61579  11.664   1.608   6.119
 4721POPC   C2B61580  11.642   1.852   6.525
 4721POPC   C3B61581  11.502   1.673   6.916
 4721POPC   C4B61582  11.098   1.514   7.065
 4722POPC   NC361583  25.504  21.652   5.349
 4722POPC   PO461584  25.199  21.056   5.516
 4722POPC   GL161585  25.436  21.313   5.724
 4722POPC   GL261586  25.165  21.537   5.772
 4722POPC   C1A61587  25.565  21.415   6.125
 4722POPC   D2A61588  25.389  21.403   6.524
 4722POPC   C3A61589  25.550  21.140   6.799
 4722POPC   C4A61590  25.479  21.248   7.172
 4722POPC   C1B61591  24.996  21.501   6.202
 4722POPC   C2B61592  24.980  21.701   6.616
 4722POPC   C3B61593  25.099  21.535   7.021
 4722POPC   C4B61594  25.296  21.616   7.444
 4723POPC   NC361595  33.228  16.078   5.311
 4723POPC   PO461596  32.646  15.863   5.303
 4723POPC   GL161597  32.813  16.027   5.722
 4723POPC   GL261598  32.706  15.806   5.952
 4723POPC   C1A61599  33.121  16.146   6.088
 4723POPC   D2A61600  33.362  16.099   6.519
 4723POPC   C3A61601  33.178  16.094   6.954
 4723POPC   C4A61602  32.794  15.933   7.205
 4723POPC   C1B61603  32.939  15.743   6.319
 4723POPC   C2B61604  32.891  15.737   6.736
 4723POPC   C3B61605  33.110  15.557   7.108
 4723POPC   C4B61606  32.929  15.517   7.523
 4724POPC   NC361607  42.480   0.093   5.619
 4724POPC   PO461608  42.131   0.649   5.363
 4724POPC   GL161609  42.230   0.600   5.783
 4724POPC   GL261610  42.047   0.293   5.813
 4724POPC   C1A61611  42.326   0.718   6.220
 4724POPC   D2A61612  42.213   0.520   6.608
 4724POPC   C3A61613  42.418   0.699   6.988
 4724POPC   C4A61614  42.804   0.693   7.254
 4724POPC   C1B61615  41.973  44.997   6.176
 4724POPC   C2B61616  42.209  44.959   6.584
 4724POPC   C3B61617  42.344   0.174   6.967
 4724POPC   C4B61618  42.077   0.309   7.274
 4725POPC   NC361619  13.102  17.304   5.481
 4725POPC   PO461620  12.499  17.647   5.346
 4725POPC   GL161621  12.751  17.630   5.751
 4725POPC   GL261622  12.787  17.288   5.878
 4725POPC   C1A61623  12.943  17.693   6.196
 4725POPC   D2A61624  13.014  17.810   6.659
 4725POPC   C3A61625  12.944  17.493   7.004
 4725POPC   C4A61626  12.877  17.531   7.474
 4725POPC   C1B61627  12.526  17.387   6.199
 4725POPC   C2B61628  12.616  17.461   6.568
 4725POPC   C3B61629  12.499  17.270   6.879
 4725POPC   C4B61630  12.455  17.415   7.223
 4726POPC   NC361631  20.533  10.073   5.420
 4726POPC   PO461632  20.911  10.678   5.394
 4726POPC   GL161633  20.822  10.380   5.732
 4726POPC   GL261634  20.471  10.401   5.817
 4726POPC   C1A61635  20.853  10.346   6.199
 4726POPC   D2A61636  20.946  10.318   6.654
 4726POPC   C3A61637  20.968  10.719   6.915
 4726POPC   C4A61638  20.745  10.773   7.279
 4726POPC   C1B61639  20.455  10.689   6.204
 4726POPC   C2B61640  20.532  10.657   6.665
 4726POPC   C3B61641  20.309  10.681   7.056
 4726POPC   C4B61642  20.057  10.694   7.434
 4727POPC   NC361643  22.771  25.850   5.323
 4727POPC   PO461644  23.363  26.275   5.260
 4727POPC   GL161645  23.066  26.176   5.641
 4727POPC   GL261646  23.019  25.827   5.781
 4727POPC   C1A61647  23.155  26.185   6.100
 4727POPC   D2A61648  23.058  26.301   6.520
 4727POPC   C3A61649  23.210  26.079   6.910
 4727POPC   C4A61650  23.137  26.085   7.374
 4727POPC   C1B61651  22.882  25.777   6.244
 4727POPC   C2B61652  22.798  25.898   6.675
 4727POPC   C3B61653  22.713  26.031   7.104
 4727POPC   C4B61654  22.711  25.894   7.553
 4728POPC   NC361655  36.685  22.848   5.286
 4728POPC   PO461656  36.233  23.254   5.321
 4728POPC   GL161657  36.207  22.937   5.648
 4728POPC   GL261658  36.484  22.995   5.832
 4728POPC   C1A61659  36.063  22.817   6.095
 4728POPC   D2A61660  36.000  22.953   6.548
 4728POPC   C3A61661  36.069  22.691   6.943
 4728POPC   C4A61662  36.114  22.694   7.389
 4728POPC   C1B61663  36.359  23.201   6.231
 4728POPC   C2B61664  36.261  23.387   6.612
 4728POPC   C3B61665  36.271  23.160   6.975
 4728POPC   C4B61666  36.424  23.150   7.362
 4729POPC   NC361667  28.918  27.721   5.346
 4729POPC   PO461668  29.518  27.487   5.426
 4729POPC   GL161669  29.282  27.609   5.781
 4729POPC   GL261670  28.934  27.504   5.807
 4729POPC   C1A61671  29.311  27.502   6.217
 4729POPC   D2A61672  29.408  27.792   6.537
 4729POPC   C3A61673  29.141  27.784   6.871
 4729POPC   C4A61674  29.305  27.649   7.248
 4729POPC   C1B61675  28.846  27.262   6.175
 4729POPC   C2B61676  28.807  27.386   6.596
 4729POPC   C3B61677  28.914  27.350   7.017
 4729POPC   C4B61678  28.842  27.559   7.421
 4730POPC   NC361679  17.604   2.882   5.163
 4730POPC   PO461680  17.459   3.374   5.594
 4730POPC   GL161681  17.464   2.944   5.825
 4730POPC   GL261682  17.784   2.683   5.883
 4730POPC   C1A61683  17.567   3.006   6.239
 4730POPC   D2A61684  17.331   3.009   6.577
 4730POPC   C3A61685  17.540   3.023   6.939
 4730POPC   C4A61686  17.502   2.816   7.295
 4730POPC   C1B61687  17.668   2.517   6.278
 4730POPC   C2B61688  17.783   2.650   6.676
 4730POPC   C3B61689  17.706   2.416   7.047
 4730POPC   C4B61690  17.639   2.395   7.516
 4731POPC   NC361691  36.102  38.207   4.983
 4731POPC   PO461692  36.043  37.687   5.433
 4731POPC   GL161693  35.896  37.520   5.830
 4731POPC   GL261694  35.735  37.195   5.828
 4731POPC   C1A61695  36.106  37.639   6.220
 4731POPC   D2A61696  36.397  37.658   6.563
 4731POPC   C3A61697  36.269  37.705   6.997
 4731POPC   C4A61698  36.340  38.020   7.312
 4731POPC   C1B61699  35.848  37.189   6.231
 4731POPC   C2B61700  36.019  37.302   6.618
 4731POPC   C3B61701  35.816  37.394   6.984
 4731POPC   C4B61702  35.883  37.451   7.413
 4732POPC   NC361703   9.091   6.007   5.435
 4732POPC   PO461704   8.615   5.570   5.559
 4732POPC   GL161705   8.818   5.851   5.852
 4732POPC   GL261706   9.203   5.843   5.881
 4732POPC   C1A61707   8.890   6.081   6.220
 4732POPC   D2A61708   9.182   6.164   6.556
 4732POPC   C3A61709   8.964   6.122   6.923
 4732POPC   C4A61710   9.154   5.949   7.295
 4732POPC   C1B61711   9.159   5.642   6.258
 4732POPC   C2B61712   8.907   5.699   6.576
 4732POPC   C3B61713   8.868   5.637   6.972
 4732POPC   C4B61714   8.757   5.600   7.348
 4733POPC   NC361715  21.774   0.116   5.385
 4733POPC   PO461716  22.498   0.091   5.398
 4733POPC   GL161717  22.282   0.304   5.756
 4733POPC   GL261718  21.919   0.415   5.803
 4733POPC   C1A61719  22.128   0.164   6.195
 4733POPC   D2A61720  22.213   0.328   6.591
 4733POPC   C3A61721  22.074   0.179   6.996
 4733POPC   C4A61722  22.247   0.331   7.398
 4733POPC   C1B61723  22.206   0.672   6.109
 4733POPC   C2B61724  22.379   0.804   6.537
 4733POPC   C3B61725  22.294   0.665   6.980
 4733POPC   C4B61726  21.886   0.673   7.263
 4734POPC   NC361727  13.953  40.920   5.488
 4734POPC   PO461728  13.403  40.480   5.544
 4734POPC   GL161729  13.687  40.629   5.829
 4734POPC   GL261730  13.578  40.980   5.828
 4734POPC   C1A61731  13.831  40.758   6.235
 4734POPC   D2A61732  13.636  40.972   6.562
 4734POPC   C3A61733  13.824  40.890   6.903
 4734POPC   C4A61734  13.886  40.675   7.227
 4734POPC   C1B61735  13.349  40.866   6.166
 4734POPC   C2B61736  13.126  40.752   6.533
 4734POPC   C3B61737  13.250  40.949   6.914
 4734POPC   C4B61738  13.482  41.020   7.251
 4735POPC   NC361739  10.568  35.453   5.098
 4735POPC   PO461740  10.284  34.871   5.357
 4735POPC   GL161741  10.425  35.118   5.705
 4735POPC   GL261742  10.653  35.425   5.723
 4735POPC   C1A61743  10.584  35.072   6.118
 4735POPC   D2A61744  10.594  35.346   6.467
 4735POPC   C3A61745  10.448  35.434   6.859
 4735POPC   C4A61746  10.610  35.280   7.244
 4735POPC   C1B61747  10.863  35.591   6.122
 4735POPC   C2B61748  11.008  35.645   6.574
 4735POPC   C3B61749  10.883  35.678   7.026
 4735POPC   C4B61750  10.837  35.707   7.487
 4736POPC   NC361751   1.545  20.800   5.149
 4736POPC   PO461752   2.181  20.614   5.319
 4736POPC   GL161753   1.867  20.591   5.629
 4736POPC   GL261754   1.703  20.898   5.611
 4736POPC   C1A61755   1.835  20.457   6.074
 4736POPC   D2A61756   2.109  20.332   6.443
 4736POPC   C3A61757   1.921  20.502   6.812
 4736POPC   C4A61758   1.990  20.379   7.213
 4736POPC   C1B61759   1.563  20.932   6.034
 4736POPC   C2B61760   1.678  20.799   6.448
 4736POPC   C3B61761   1.596  20.946   6.861
 4736POPC   C4B61762   1.667  20.754   7.214
 4737POPC   NC361763  23.171  12.831   5.422
 4737POPC   PO461764  22.669  12.342   5.514
 4737POPC   GL161765  22.961  12.580   5.808
 4737POPC   GL261766  22.839  12.934   5.785
 4737POPC   C1A61767  23.122  12.812   6.185
 4737POPC   D2A61768  23.052  13.138   6.489
 4737POPC   C3A61769  23.074  13.021   6.900
 4737POPC   C4A61770  23.064  12.601   7.111
 4737POPC   C1B61771  22.642  13.012   6.179
 4737POPC   C2B61772  22.545  13.222   6.566
 4737POPC   C3B61773  22.470  13.160   6.987
 4737POPC   C4B61774  22.764  13.115   7.278
 4738POPC   NC361775   2.365  18.286   5.448
 4738POPC   PO461776   1.707  17.974   5.466
 4738POPC   GL161777   1.834  18.118   5.847
 4738POPC   GL261778   1.969  18.441   5.764
 4738POPC   C1A61779   1.787  18.334   6.232
 4738POPC   D2A61780   1.627  18.397   6.648
 4738POPC   C3A61781   1.948  18.245   6.918
 4738POPC   C4A61782   1.844  18.300   7.316
 4738POPC   C1B61783   2.282  18.371   6.099
 4738POPC   C2B61784   2.348  18.229   6.518
 4738POPC   C3B61785   2.524  18.478   6.850
 4738POPC   C4B61786   2.353  18.393   7.219
 4739POPC   NC361787  35.344  25.503   5.314
 4739POPC   PO461788  35.403  24.828   5.307
 4739POPC   GL161789  35.531  25.099   5.644
 4739POPC   GL261790  35.288  25.353   5.792
 4739POPC   C1A61791  35.524  25.022   6.088
 4739POPC   D2A61792  35.397  25.259   6.447
 4739POPC   C3A61793  35.601  25.110   6.811
 4739POPC   C4A61794  35.708  25.318   7.190
 4739POPC   C1B61795  35.468  25.642   6.099
 4739POPC   C2B61796  35.340  25.776   6.526
 4739POPC   C3B61797  35.324  25.525   6.888
 4739POPC   C4B61798  35.247  25.532   7.301
 4740POPC   NC361799  26.479   3.656   5.104
 4740POPC   PO461800  27.046   3.361   5.393
 4740POPC   GL161801  27.033   3.567   5.740
 4740POPC   GL261802  26.724   3.492   5.797
 4740POPC   C1A61803  27.035   3.777   6.124
 4740POPC   D2A61804  27.169   3.861   6.545
 4740POPC   C3A61805  26.973   3.827   6.901
 4740POPC   C4A61806  26.958   3.450   7.070
 4740POPC   C1B61807  26.583   3.587   6.220
 4740POPC   C2B61808  26.675   3.454   6.644
 4740POPC   C3B61809  26.533   3.177   7.027
 4740POPC   C4B61810  26.539   3.054   7.500
 4741POPC   NC361811  29.224  16.548   5.307
 4741POPC   PO461812  28.554  16.639   5.258
 4741POPC   GL161813  28.939  16.623   5.711
 4741POPC   GL261814  29.363  16.716   5.754
 4741POPC   C1A61815  29.135  16.663   6.186
 4741POPC   D2A61816  29.028  16.887   6.589
 4741POPC   C3A61817  29.071  16.724   7.028
 4741POPC   C4A61818  29.206  16.525   7.447
 4741POPC   C1B61819  29.382  17.089   6.048
 4741POPC   C2B61820  29.548  17.219   6.443
 4741POPC   C3B61821  29.371  17.191   6.844
 4741POPC   C4B61822  29.482  16.998   7.228
 4742POPC   NC361823  43.343  43.592   5.499
 4742POPC   PO461824  42.822  43.981   5.504
 4742POPC   GL161825  42.993  43.795   5.829
 4742POPC   GL261826  43.294  43.993   5.821
 4742POPC   C1A61827  42.959  43.719   6.248
 4742POPC   D2A61828  42.942  44.036   6.555
 4742POPC   C3A61829  42.761  43.950   6.951
 4742POPC   C4A61830  42.902  43.546   7.160
 4742POPC   C1B61831  43.458  43.844   6.159
 4742POPC   C2B61832  43.386  43.723   6.550
 4742POPC   C3B61833  43.251  43.837   6.926
 4742POPC   C4B61834  43.138  44.085   7.258
 4743POPC   NC361835  16.451  19.730   5.454
 4743POPC   PO461836  16.758  20.242   5.146
 4743POPC   GL161837  16.898  19.954   5.668
 4743POPC   GL261838  16.742  19.661   5.836
 4743POPC   C1A61839  16.754  20.037   6.151
 4743POPC   D2A61840  16.522  19.920   6.484
 4743POPC   C3A61841  16.704  19.984   6.900
 4743POPC   C4A61842  16.510  19.965   7.311
 4743POPC   C1B61843  16.844  19.464   6.204
 4743POPC   C2B61844  16.777  19.489   6.608
 4743POPC   C3B61845  16.911  19.442   6.968
 4743POPC   C4B61846  16.651  19.450   7.289
 4744POPC   NC361847  39.751   8.523   5.384
 4744POPC   PO461848  40.132   9.062   5.449
 4744POPC   GL161849  39.802   9.112   5.750
 4744POPC   GL261850  39.870   8.743   5.869
 4744POPC   C1A61851  39.805   9.221   6.207
 4744POPC   D2A61852  40.173   9.187   6.521
 4744POPC   C3A61853  40.149   9.098   6.969
 4744POPC   C4A61854  40.150   9.223   7.399
 4744POPC   C1B61855  40.198   8.504   6.147
 4744POPC   C2B61856  40.286   8.351   6.590
 4744POPC   C3B61857  40.273   8.511   7.034
 4744POPC   C4B61858  40.366   8.764   7.415
 4745POPC   NC361859  19.518  24.924   5.778
 4745POPC   PO461860  19.831  25.101   5.247
 4745POPC   GL161861  19.839  25.319   5.668
 4745POPC   GL261862  19.996  25.620   5.749
 4745POPC   C1A61863  19.769  25.406   6.141
 4745POPC   D2A61864  19.784  25.198   6.537
 4745POPC   C3A61865  19.688  25.462   6.879
 4745POPC   C4A61866  19.373  25.359   7.185
 4745POPC   C1B61867  20.154  25.779   6.118
 4745POPC   C2B61868  20.059  25.645   6.540
 4745POPC   C3B61869  20.131  25.735   6.977
 4745POPC   C4B61870  19.858  25.596   7.360
 4746POPC   NC361871  21.685  31.057   5.301
 4746POPC   PO461872  21.264  31.595   5.459
 4746POPC   GL161873  21.494  31.637   5.847
 4746POPC   GL261874  21.308  31.350   5.961
 4746POPC   C1A61875  21.536  31.657   6.311
 4746POPC   D2A61876  21.271  31.600   6.687
 4746POPC   C3A61877  21.545  31.541   7.053
 4746POPC   C4A61878  21.625  31.226   7.357
 4746POPC   C1B61879  21.302  31.141   6.365
 4746POPC   C2B61880  21.393  31.062   6.804
 4746POPC   C3B61881  21.159  31.206   7.119
 4746POPC   C4B61882  20.830  31.282   7.337
 4747POPC   NC361883  43.621  17.162   4.953
 4747POPC   PO461884  43.949  16.742   5.391
 4747POPC   GL161885  43.906  16.802   5.828
 4747POPC   GL261886  44.115  17.033   5.800
 4747POPC   C1A61887  43.849  17.066   6.222
 4747POPC   D2A61888  43.632  16.917   6.597
 4747POPC   C3A61889  43.788  16.913   7.024
 4747POPC   C4A61890  43.698  16.566   7.298
 4747POPC   C1B61891  44.288  16.785   6.154
 4747POPC   C2B61892  44.107  16.748   6.567
 4747POPC   C3B61893  44.210  16.628   6.966
 4747POPC   C4B61894  44.174  16.750   7.399
 4748POPC   NC361895  33.882  31.417   5.099
 4748POPC   PO461896  33.386  31.298   5.501
 4748POPC   GL161897  33.633  31.504   5.824
 4748POPC   GL261898  34.012  31.559   5.789
 4748POPC   C1A61899  33.723  31.522   6.281
 4748POPC   D2A61900  33.720  31.770   6.663
 4748POPC   C3A61901  33.850  31.576   7.030
 4748POPC   C4A61902  33.703  31.580   7.462
 4748POPC   C1B61903  34.178  31.320   6.149
 4748POPC   C2B61904  34.183  31.421   6.607
 4748POPC   C3B61905  34.233  31.202   7.016
 4748POPC   C4B61906  34.216  31.080   7.504
 4749POPC   NC361907  18.762   5.998   5.389
 4749POPC   PO461908  19.370   5.900   5.390
 4749POPC   GL161909  19.115   5.869   5.753
 4749POPC   GL261910  18.956   6.200   5.827
 4749POPC   C1A61911  19.053   5.818   6.206
 4749POPC   D2A61912  19.073   5.620   6.622
 4749POPC   C3A61913  19.171   5.790   7.037
 4749POPC   C4A61914  19.073   5.563   7.411
 4749POPC   C1B61915  18.793   6.249   6.268
 4749POPC   C2B61916  18.928   6.127   6.707
 4749POPC   C3B61917  18.738   6.322   7.105
 4749POPC   C4B61918  18.730   6.522   7.547
 4750POPC   NC361919  13.236  12.636   5.371
 4750POPC   PO461920  13.127  11.893   5.338
 4750POPC   GL161921  12.967  11.861   5.800
 4750POPC   GL261922  12.593  11.882   5.886
 4750POPC   C1A61923  12.948  11.937   6.266
 4750POPC   D2A61924  12.773  12.220   6.602
 4750POPC   C3A61925  13.001  12.255   7.004
 4750POPC   C4A61926  13.310  12.271   7.340
 4750POPC   C1B61927  12.413  11.905   6.279
 4750POPC   C2B61928  12.631  11.730   6.609
 4750POPC   C3B61929  12.643  11.868   7.011
 4750POPC   C4B61930  12.481  11.912   7.428
 4751POPC   NC361931  16.956  42.144   5.489
 4751POPC   PO461932  16.499  42.597   5.396
 4751POPC   GL161933  16.609  42.398   5.764
 4751POPC   GL261934  16.503  42.042   5.773
 4751POPC   C1A61935  16.961  42.443   6.087
 4751POPC   D2A61936  16.896  42.551   6.507
 4751POPC   C3A61937  17.035  42.359   6.861
 4751POPC   C4A61938  16.964  42.304   7.282
 4751POPC   C1B61939  16.548  42.174   6.215
 4751POPC   C2B61940  16.706  42.069   6.588
 4751POPC   C3B61941  16.547  42.198   6.956
 4751POPC   C4B61942  16.450  42.273   7.346
 4752POPC   NC361943   0.089  12.609   5.334
 4752POPC   PO461944   0.751  12.837   5.511
 4752POPC   GL161945   0.568  12.878   5.879
 4752POPC   GL261946   0.293  12.626   5.810
 4752POPC   C1A61947   0.572  12.660   6.273
 4752POPC   D2A61948   0.693  12.734   6.690
 4752POPC   C3A61949   0.448  12.876   7.032
 4752POPC   C4A61950   0.450  12.706   7.453
 4752POPC   C1B61951   0.130  12.899   6.142
 4752POPC   C2B61952   0.160  12.805   6.566
 4752POPC   C3B61953   0.072  12.498   6.849
 4752POPC   C4B61954   0.022  12.597   7.234
 4753POPC   NC361955  30.016  37.977   5.522
 4753POPC   PO461956  29.797  38.607   5.292
 4753POPC   GL161957  29.795  38.418   5.693
 4753POPC   GL261958  29.563  38.089   5.727
 4753POPC   C1A61959  29.998  38.632   6.052
 4753POPC   D2A61960  30.276  38.722   6.383
 4753POPC   C3A61961  30.051  38.767   6.779
 4753POPC   C4A61962  30.026  38.641   7.218
 4753POPC   C1B61963  29.755  38.191   6.138
 4753POPC   C2B61964  29.901  38.352   6.509
 4753POPC   C3B61965  29.971  38.201   6.890
 4753POPC   C4B61966  29.743  38.197   7.264
 4754POPC   NC361967  12.795  43.860   5.376
 4754POPC   PO461968  13.096  44.391   5.310
 4754POPC   GL161969  13.140  44.095   5.676
 4754POPC   GL261970  13.242  43.743   5.621
 4754POPC   C1A61971  12.875  44.091   6.071
 4754POPC   D2A61972  12.762  44.204   6.510
 4754POPC   C3A61973  12.752  43.916   6.838
 4754POPC   C4A61974  12.863  43.978   7.259
 4754POPC   C1B61975  13.235  43.703   6.069
 4754POPC   C2B61976  13.204  43.914   6.459
 4754POPC   C3B61977  13.267  43.842   6.882
 4754POPC   C4B61978  13.078  43.538   7.146
 4755POPC   NC361979   6.560   4.866   5.468
 4755POPC   PO461980   7.057   4.517   5.346
 4755POPC   GL161981   6.914   4.617   5.778
 4755POPC   GL261982   7.046   4.895   5.879
 4755POPC   C1A61983   6.768   4.452   6.204
 4755POPC   D2A61984   6.784   4.154   6.593
 4755POPC   C3A61985   6.700   4.337   7.021
 4755POPC   C4A61986   6.419   4.352   7.414
 4755POPC   C1B61987   7.228   4.691   6.207
 4755POPC   C2B61988   7.085   4.551   6.609
 4755POPC   C3B61989   7.138   4.626   7.053
 4755POPC   C4B61990   6.840   4.630   7.418
 4756POPC   NC361991  25.433  24.883   5.491
 4756POPC   PO461992  24.954  25.442   5.417
 4756POPC   GL161993  25.137  25.387   5.820
 4756POPC   GL261994  25.169  25.024   5.917
 4756POPC   C1A61995  25.042  25.363   6.275
 4756POPC   D2A61996  25.061  25.026   6.560
 4756POPC   C3A61997  25.277  25.298   6.832
 4756POPC   C4A61998  25.153  25.457   7.204
 4756POPC   C1B61999  25.481  25.089   6.263
 4756POPC   C2B62000  25.561  24.897   6.692
 4756POPC   C3B62001  25.298  24.875   7.098
 4756POPC   C4B62002  25.290  25.010   7.531
 4757POPC   NC362003  12.145   1.270   5.422
 4757POPC   PO462004  11.898   0.678   5.687
 4757POPC   GL162005  12.010   1.025   5.928
 4757POPC   GL262006  12.054   1.374   5.903
 4757POPC   C1A62007  11.910   1.081   6.357
 4757POPC   D2A62008  11.865   1.415   6.646
 4757POPC   C3A62009  11.822   1.301   7.082
 4757POPC   C4A62010  11.673   1.404   7.511
 4757POPC   C1B62011  12.279   1.436   6.283
 4757POPC   C2B62012  12.336   1.215   6.690
 4757POPC   C3B62013  12.263   1.574   6.953
 4757POPC   C4B62014  12.444   1.782   7.283
 4758POPC   NC362015  10.963  10.888   5.341
 4758POPC   PO462016  10.439  10.496   5.478
 4758POPC   GL162017  10.471  10.624   5.845
 4758POPC   GL262018  10.866  10.624   5.777
 4758POPC   C1A62019  10.248  10.549   6.220
 4758POPC   D2A62020  10.059  10.484   6.634
 4758POPC   C3A62021  10.434  10.474   6.858
 4758POPC   C4A62022  10.596  10.489   7.244
 4758POPC   C1B62023  10.826  10.666   6.216
 4758POPC   C2B62024  10.819  10.824   6.660
 4758POPC   C3B62025  11.034  10.599   6.948
 4758POPC   C4B62026  11.005  10.185   7.098
 4759POPC   NC362027  34.652   7.896   5.402
 4759POPC   PO462028  34.740   8.444   5.733
 4759POPC   GL162029  34.381   8.183   5.850
 4759POPC   GL262030  34.242   7.852   5.777
 4759POPC   C1A62031  34.333   8.281   6.271
 4759POPC   D2A62032  34.664   8.486   6.529
 4759POPC   C3A62033  34.658   8.351   6.936
 4759POPC   C4A62034  34.240   8.169   7.136
 4759POPC   C1B62035  34.492   7.792   6.197
 4759POPC   C2B62036  34.528   7.935   6.666
 4759POPC   C3B62037  34.676   7.890   7.133
 4759POPC   C4B62038  34.455   7.932   7.555
 4760POPC   NC362039  22.599   0.534   5.235
 4760POPC   PO462040  23.253   0.425   5.515
 4760POPC   GL162041  23.127   0.304   5.898
 4760POPC   GL262042  22.806   0.244   5.777
 4760POPC   C1A62043  23.097   0.357   6.372
 4760POPC   D2A62044  22.818   0.582   6.640
 4760POPC   C3A62045  22.964   0.590   7.010
 4760POPC   C4A62046  22.989   0.263   7.267
 4760POPC   C1B62047  22.619   0.315   6.179
 4760POPC   C2B62048  22.677   0.095   6.562
 4760POPC   C3B62049  22.577   0.197   6.983
 4760POPC   C4B62050  22.603  44.971   7.384
 4761POPC   NC362051  32.403  17.249   5.173
 4761POPC   PO462052  31.918  17.710   5.308
 4761POPC   GL162053  32.047  17.578   5.757
 4761POPC   GL262054  32.403  17.510   5.775
 4761POPC   C1A62055  32.076  17.766   6.194
 4761POPC   D2A62056  32.332  17.672   6.599
 4761POPC   C3A62057  32.066  17.849   6.907
 4761POPC   C4A62058  31.974  17.699   7.292
 4761POPC   C1B62059  32.330  17.343   6.197
 4761POPC   C2B62060  32.300  17.137   6.590
 4761POPC   C3B62061  32.186  17.300   6.982
 4761POPC   C4B62062  32.366  17.225   7.356
 4762POPC   NC362063  40.467   8.700   5.498
 4762POPC   PO462064  41.094   9.028   5.298
 4762POPC   GL162065  41.094   8.981   5.744
 4762POPC   GL262066  41.130   9.336   5.775
 4762POPC   C1A62067  40.917   8.781   6.151
 4762POPC   D2A62068  40.551   8.796   6.455
 4762POPC   C3A62069  40.643   8.857   6.893
 4762POPC   C4A62070  40.615   9.163   7.187
 4762POPC   C1B62071  41.065   9.283   6.195
 4762POPC   C2B62072  41.010   9.051   6.584
 4762POPC   C3B62073  41.088   9.193   7.004
 4762POPC   C4B62074  41.022   9.396   7.404
 4763POPC   NC362075  44.181   2.579   5.470
 4763POPC   PO462076  44.755   2.924   5.427
 4763POPC   GL162077  44.623   2.918   5.849
 4763POPC   GL262078  44.412   2.631   5.922
 4763POPC   C1A62079  44.775   2.853   6.268
 4763POPC   D2A62080  44.615   2.761   6.691
 4763POPC   C3A62081  44.786   2.901   7.085
 4763POPC   C4A62082   0.010   2.664   7.385
 4763POPC   C1B62083  44.252   2.865   6.301
 4763POPC   C2B62084  44.118   2.819   6.764
 4763POPC   C3B62085  44.340   2.606   7.145
 4763POPC   C4B62086  44.198   2.400   7.565
 4764POPC   NC362087  34.660  35.150   5.344
 4764POPC   PO462088  34.343  35.782   5.291
 4764POPC   GL162089  34.250  35.534   5.690
 4764POPC   GL262090  34.541  35.345   5.794
 4764POPC   C1A62091  34.181  35.344   6.134
 4764POPC   D2A62092  34.403  35.112   6.465
 4764POPC   C3A62093  34.535  35.363   6.817
 4764POPC   C4A62094  34.348  35.523   7.214
 4764POPC   C1B62095  34.781  35.362   6.174
 4764POPC   C2B62096  34.975  35.517   6.549
 4764POPC   C3B62097  35.042  35.317   6.925
 4764POPC   C4B62098  34.801  35.293   7.267
 4765POPC   NC362099  17.907   3.827   5.270
 4765POPC   PO462100  18.598   3.893   5.464
 4765POPC   GL162101  18.409   3.625   5.844
 4765POPC   GL262102  18.438   3.249   5.845
 4765POPC   C1A62103  18.130   3.496   6.202
 4765POPC   D2A62104  17.897   3.681   6.582
 4765POPC   C3A62105  17.938   3.479   6.985
 4765POPC   C4A62106  18.094   3.812   7.181
 4765POPC   C1B62107  18.600   3.350   6.275
 4765POPC   C2B62108  18.367   3.441   6.692
 4765POPC   C3B62109  18.528   3.530   7.124
 4765POPC   C4B62110  18.814   3.229   7.344
 4766POPC   NC362111  12.495  18.111   5.387
 4766POPC   PO462112  13.102  18.438   5.456
 4766POPC   GL162113  12.775  18.477   5.795
 4766POPC   GL262114  12.649  18.146   5.857
 4766POPC   C1A62115  12.745  18.434   6.272
 4766POPC   D2A62116  12.576  18.430   6.693
 4766POPC   C3A62117  12.839  18.268   7.056
 4766POPC   C4A62118  13.109  17.931   7.194
 4766POPC   C1B62119  12.405  17.873   6.063
 4766POPC   C2B62120  12.564  17.961   6.457
 4766POPC   C3B62121  12.541  17.843   6.881
 4766POPC   C4B62122  12.570  17.893   7.293
 4767POPC   NC362123  34.054  29.511   5.263
 4767POPC   PO462124  34.667  29.857   5.115
 4767POPC   GL162125  34.654  29.683   5.581
 4767POPC   GL262126  34.288  29.753   5.651
 4767POPC   C1A62127  34.799  29.824   6.047
 4767POPC   D2A62128  34.909  29.706   6.523
 4767POPC   C3A62129  34.786  29.880   6.966
 4767POPC   C4A62130  34.679  30.123   7.379
 4767POPC   C1B62131  34.284  29.779   6.097
 4767POPC   C2B62132  34.420  29.782   6.511
 4767POPC   C3B62133  34.300  29.761   6.927
 4767POPC   C4B62134  34.180  30.020   7.286
 4768POPC   NC362135  25.039  23.178   5.437
 4768POPC   PO462136  25.639  22.902   5.509
 4768POPC   GL162137  25.409  22.823   5.862
 4768POPC   GL262138  25.337  23.138   5.906
 4768POPC   C1A62139  25.514  22.803   6.301
 4768POPC   D2A62140  25.439  22.945   6.708
 4768POPC   C3A62141  25.515  22.779   7.092
 4768POPC   C4A62142  25.094  22.783   7.321
 4768POPC   C1B62143  25.246  23.243   6.315
 4768POPC   C2B62144  25.154  23.405   6.714
 4768POPC   C3B62145  25.215  23.207   7.100
 4768POPC   C4B62146  25.474  23.084   7.487
 4769POPC   NC362147  10.138  15.364   5.545
 4769POPC   PO462148   9.453  14.958   5.549
 4769POPC   GL162149   9.645  14.894   5.927
 4769POPC   GL262150   9.948  15.078   5.909
 4769POPC   C1A62151   9.549  15.036   6.339
 4769POPC   D2A62152   9.405  15.035   6.756
 4769POPC   C3A62153   9.560  15.248   7.108
 4769POPC   C4A62154   9.535  15.034   7.537
 4769POPC   C1B62155   9.980  15.310   6.281
 4769POPC   C2B62156   9.911  15.180   6.697
 4769POPC   C3B62157  10.127  14.911   6.973
 4769POPC   C4B62158   9.997  15.152   7.336
 4770POPC   NC362159  23.939   2.502   4.875
 4770POPC   PO462160  23.660   2.813   5.343
 4770POPC   GL162161  23.747   2.652   5.747
 4770POPC   GL262162  23.929   2.364   5.773
 4770POPC   C1A62163  23.793   2.703   6.187
 4770POPC   D2A62164  23.794   2.888   6.615
 4770POPC   C3A62165  23.566   2.675   6.961
 4770POPC   C4A62166  23.441   2.744   7.394
 4770POPC   C1B62167  24.190   2.361   6.182
 4770POPC   C2B62168  24.226   2.591   6.568
 4770POPC   C3B62169  24.091   2.668   6.970
 4770POPC   C4B62170  23.930   2.563   7.331
 4771POPC   NC362171  15.344   2.904   4.984
 4771POPC   PO462172  14.858   2.675   5.443
 4771POPC   GL162173  15.045   2.515   5.801
 4771POPC   GL262174  15.234   2.232   5.725
 4771POPC   C1A62175  15.088   2.688   6.220
 4771POPC   D2A62176  15.184   2.908   6.614
 4771POPC   C3A62177  14.899   2.812   6.908
 4771POPC   C4A62178  15.031   2.778   7.323
 4771POPC   C1B62179  15.465   2.366   6.071
 4771POPC   C2B62180  15.546   2.574   6.454
 4771POPC   C3B62181  15.375   2.465   6.858
 4771POPC   C4B62182  15.391   2.431   7.282
 4772POPC   NC362183  22.497  27.321   5.383
 4772POPC   PO462184  21.906  27.596   5.313
 4772POPC   GL162185  22.051  27.851   5.700
 4772POPC   GL262186  22.297  27.606   5.802
 4772POPC   C1A62187  21.975  27.776   6.177
 4772POPC   D2A62188  22.091  27.501   6.531
 4772POPC   C3A62189  21.983  27.720   6.910
 4772POPC   C4A62190  22.131  27.649   7.312
 4772POPC   C1B62191  22.432  27.350   6.152
 4772POPC   C2B62192  22.619  27.306   6.552
 4772POPC   C3B62193  22.475  27.450   6.941
 4772POPC   C4B62194  22.454  27.263   7.348
 4773POPC   NC362195  33.139  24.828   5.603
 4773POPC   PO462196  33.256  24.201   5.654
 4773POPC   GL162197  32.978  24.463   5.922
 4773POPC   GL262198  33.210  24.680   6.095
 4773POPC   C1A62199  32.727  24.661   6.259
 4773POPC   D2A62200  32.900  24.719   6.675
 4773POPC   C3A62201  32.773  24.347   6.841
 4773POPC   C4A62202  32.819  24.123   7.206
 4773POPC   C1B62203  33.151  24.334   6.418
 4773POPC   C2B62204  33.276  24.332   6.864
 4773POPC   C3B62205  33.118  24.567   7.207
 4773POPC   C4B62206  33.257  24.692   7.595
 4774POPC   NC362207  26.301  30.577   5.456
 4774POPC   PO462208  25.744  31.071   5.484
 4774POPC   GL162209  25.969  30.906   5.842
 4774POPC   GL262210  25.965  30.544   5.867
 4774POPC   C1A62211  25.855  30.844   6.288
 4774POPC   D2A62212  25.879  30.627   6.697
 4774POPC   C3A62213  25.825  30.885   7.082
 4774POPC   C4A62214  25.956  31.021   7.509
 4774POPC   C1B62215  26.185  30.449   6.281
 4774POPC   C2B62216  26.351  30.410   6.686
 4774POPC   C3B62217  26.149  30.397   7.098
 4774POPC   C4B62218  26.174  30.561   7.532
 4775POPC   NC362219  34.075  34.548   5.523
 4775POPC   PO462220  34.761  34.717   5.459
 4775POPC   GL162221  34.533  34.509   5.768
 4775POPC   GL262222  34.775  34.373   5.942
 4775POPC   C1A62223  34.340  34.475   6.197
 4775POPC   D2A62224  34.512  34.618   6.600
 4775POPC   C3A62225  34.303  34.509   7.005
 4775POPC   C4A62226  34.348  34.518   7.467
 4775POPC   C1B62227  34.713  34.833   6.130
 4775POPC   C2B62228  34.911  34.989   6.524
 4775POPC   C3B62229  34.794  34.874   6.944
 4775POPC   C4B62230  34.403  34.977   7.158
 4776POPC   NC362231  20.953  20.772   5.381
 4776POPC   PO462232  20.371  20.518   5.449
 4776POPC   GL162233  20.455  20.834   5.780
 4776POPC   GL262234  20.759  20.747   5.858
 4776POPC   C1A62235  20.452  20.983   6.204
 4776POPC   D2A62236  20.786  20.949   6.519
 4776POPC   C3A62237  20.573  20.814   6.912
 4776POPC   C4A62238  20.655  20.849   7.362
 4776POPC   C1B62239  20.499  20.414   6.080
 4776POPC   C2B62240  20.498  20.208   6.458
 4776POPC   C3B62241  20.642  20.279   6.868
 4776POPC   C4B62242  20.476  20.382   7.240
 4777POPC   NC362243  31.679  19.639   5.391
 4777POPC   PO462244  31.013  19.885   5.428
 4777POPC   GL162245  31.316  19.715   5.757
 4777POPC   GL262246  31.655  19.907   5.816
 4777POPC   C1A62247  31.298  19.707   6.222
 4777POPC   D2A62248  31.298  19.932   6.624
 4777POPC   C3A62249  31.400  19.776   7.027
 4777POPC   C4A62250  31.683  20.092   7.216
 4777POPC   C1B62251  31.793  19.572   6.098
 4777POPC   C2B62252  31.652  19.469   6.526
 4777POPC   C3B62253  31.872  19.481   6.918
 4777POPC   C4B62254  31.778  19.597   7.334
 4778POPC   NC362255  24.721  38.876   5.447
 4778POPC   PO462256  24.249  38.445   5.343
 4778POPC   GL162257  24.426  38.539   5.750
 4778POPC   GL262258  24.243  38.257   5.843
 4778POPC   C1A62259  24.354  38.639   6.215
 4778POPC   D2A62260  24.557  38.695   6.628
 4778POPC   C3A62261  24.544  38.620   7.063
 4778POPC   C4A62262  24.779  38.884   7.317
 4778POPC   C1B62263  24.532  38.136   6.139
 4778POPC   C2B62264  24.464  38.194   6.572
 4778POPC   C3B62265  24.701  38.136   6.930
 4778POPC   C4B62266  24.514  38.156   7.307
 4779POPC   NC362267   5.404  17.739   5.043
 4779POPC   PO462268   5.690  17.207   5.255
 4779POPC   GL162269   5.801  17.533   5.587
 4779POPC   GL262270   5.961  17.261   5.736
 4779POPC   C1A62271   6.014  17.675   6.019
 4779POPC   D2A62272   5.854  17.664   6.462
 4779POPC   C3A62273   5.870  17.748   6.911
 4779POPC   C4A62274   5.525  17.703   7.159
 4779POPC   C1B62275   6.128  17.176   6.145
 4779POPC   C2B62276   5.989  17.182   6.572
 4779POPC   C3B62277   5.766  17.253   6.948
 4779POPC   C4B62278   5.886  17.388   7.363
 4780POPC   NC362279  13.209  19.758   5.390
 4780POPC   PO462280  12.644  19.979   5.486
 4780POPC   GL162281  12.724  19.789   5.810
 4780POPC   GL262282  13.039  19.928   5.858
 4780POPC   C1A62283  12.601  19.709   6.185
 4780POPC   D2A62284  12.812  19.813   6.579
 4780POPC   C3A62285  12.531  19.947   6.910
 4780POPC   C4A62286  12.532  20.067   7.328
 4780POPC   C1B62287  13.232  19.911   6.254
 4780POPC   C2B62288  13.205  20.123   6.655
 4780POPC   C3B62289  13.041  20.015   7.043
 4780POPC   C4B62290  13.178  19.932   7.442
 4781POPC   NC362291  37.656   3.390   5.522
 4781POPC   PO462292  37.642   2.723   5.279
 4781POPC   GL162293  37.896   2.787   5.669
 4781POPC   GL262294  37.607   2.794   5.870
 4781POPC   C1A62295  38.007   2.784   6.180
 4781POPC   D2A62296  37.948   3.031   6.614
 4781POPC   C3A62297  37.924   2.932   7.095
 4781POPC   C4A62298  37.613   3.066   7.429
 4781POPC   C1B62299  37.518   2.845   6.338
 4781POPC   C2B62300  37.491   2.828   6.809
 4781POPC   C3B62301  37.457   2.638   7.226
 4781POPC   C4B62302  37.381   2.692   7.689
 4782POPC   NC362303   7.689   0.605   4.977
 4782POPC   PO462304   7.318   0.428   5.495
 4782POPC   GL162305   7.496   0.217   5.830
 4782POPC   GL262306   7.847   0.136   5.905
 4782POPC   C1A62307   7.564   0.393   6.231
 4782POPC   D2A62308   7.463   0.205   6.581
 4782POPC   C3A62309   7.405   0.388   6.990
 4782POPC   C4A62310   7.344   0.164   7.371
 4782POPC   C1B62311   7.966   0.085   6.340
 4782POPC   C2B62312   7.898   0.055   6.784
 4782POPC   C3B62313   7.820   0.166   7.208
 4782POPC   C4B62314   7.702  44.973   7.661
 4783POPC   NC362315  15.462   7.284   5.403
 4783POPC   PO462316  15.042   7.824   5.291
 4783POPC   GL162317  14.959   7.495   5.622
 4783POPC   GL262318  14.802   7.719   5.878
 4783POPC   C1A62319  15.097   7.337   6.056
 4783POPC   D2A62320  15.184   7.117   6.471
 4783POPC   C3A62321  15.027   7.312   6.850
 4783POPC   C4A62322  15.233   7.182   7.236
 4783POPC   C1B62323  15.069   7.879   6.240
 4783POPC   C2B62324  15.182   7.809   6.664
 4783POPC   C3B62325  15.111   7.882   7.096
 4783POPC   C4B62326  14.930   7.568   7.343
 4784POPC   NC362327  12.013  42.617   5.502
 4784POPC   PO462328  12.662  42.589   5.477
 4784POPC   GL162329  12.394  42.321   5.763
 4784POPC   GL262330  12.033  42.172   5.748
 4784POPC   C1A62331  12.212  42.420   6.176
 4784POPC   D2A62332  12.325  42.496   6.601
 4784POPC   C3A62333  12.050  42.354   6.935
 4784POPC   C4A62334  11.842  42.635   7.214
 4784POPC   C1B62335  12.093  41.929   6.105
 4784POPC   C2B62336  12.311  41.994   6.509
 4784POPC   C3B62337  12.297  41.878   6.945
 4784POPC   C4B62338  12.257  42.096   7.357
 4785POPC   NC362339  32.507  33.455   5.539
 4785POPC   PO462340  32.167  34.099   5.598
 4785POPC   GL162341  32.359  33.916   5.943
 4785POPC   GL262342  32.214  33.601   5.945
 4785POPC   C1A62343  32.625  33.736   6.259
 4785POPC   D2A62344  32.566  33.693   6.703
 4785POPC   C3A62345  32.246  33.970   6.873
 4785POPC   C4A62346  32.203  34.226   7.234
 4785POPC   C1B62347  32.119  33.670   6.404
 4785POPC   C2B62348  32.069  33.487   6.836
 4785POPC   C3B62349  32.048  33.667   7.260
 4785POPC   C4B62350  32.061  33.447   7.720
 4786POPC   NC362351  39.966  18.791   5.373
 4786POPC   PO462352  39.706  19.417   5.384
 4786POPC   GL162353  39.810  19.164   5.713
 4786POPC   GL262354  40.154  19.043   5.769
 4786POPC   C1A62355  39.849  19.084   6.150
 4786POPC   D2A62356  39.714  19.195   6.499
 4786POPC   C3A62357  39.984  19.101   6.826
 4786POPC   C4A62358  39.827  19.191   7.259
 4786POPC   C1B62359  40.405  19.166   6.103
 4786POPC   C2B62360  40.494  19.013   6.498
 4786POPC   C3B62361  40.496  19.158   6.876
 4786POPC   C4B62362  40.303  18.986   7.228
 4787POPC   NC362363  43.600  42.043   4.953
 4787POPC   PO462364  44.010  42.281   5.442
 4787POPC   GL162365  43.844  42.234   5.824
 4787POPC   GL262366  44.045  41.938   5.849
 4787POPC   C1A62367  43.692  42.430   6.218
 4787POPC   D2A62368  43.768  42.307   6.645
 4787POPC   C3A62369  43.834  42.493   7.043
 4787POPC   C4A62370  44.063  42.745   7.324
 4787POPC   C1B62371  44.095  42.087   6.243
 4787POPC   C2B62372  44.264  42.285   6.555
 4787POPC   C3B62373  44.163  42.058   6.893
 4787POPC   C4B62374  44.092  42.104   7.275
 4788POPC   NC362375  33.307  37.569   5.522
 4788POPC   PO462376  32.618  37.479   5.551
 4788POPC   GL162377  32.925  37.608   5.857
 4788POPC   GL262378  33.207  37.384   5.995
 4788POPC   C1A62379  32.963  37.847   6.233
 4788POPC   D2A62380  32.881  38.041   6.648
 4788POPC   C3A62381  32.770  37.747   7.007
 4788POPC   C4A62382  32.951  37.573   7.389
 4788POPC   C1B62383  33.462  37.654   6.218
 4788POPC   C2B62384  33.360  37.886   6.557
 4788POPC   C3B62385  33.260  37.840   6.943
 4788POPC   C4B62386  33.494  37.700   7.233
 4789POPC   NC362387  41.823   2.955   5.402
 4789POPC   PO462388  41.265   2.673   5.421
 4789POPC   GL162389  41.392   2.961   5.742
 4789POPC   GL262390  41.737   2.986   5.898
 4789POPC   C1A62391  41.256   3.023   6.137
 4789POPC   D2A62392  41.296   2.788   6.506
 4789POPC   C3A62393  41.442   2.977   6.889
 4789POPC   C4A62394  41.432   2.799   7.293
 4789POPC   C1B62395  41.769   2.699   6.235
 4789POPC   C2B62396  41.788   2.668   6.673
 4789POPC   C3B62397  41.882   2.691   7.130
 4789POPC   C4B62398  41.837   2.877   7.594
 4790POPC   NC362399   3.517  28.489   5.467
 4790POPC   PO462400   3.552  27.912   5.438
 4790POPC   GL162401   3.447  28.160   5.858
 4790POPC   GL262402   3.631  28.503   5.949
 4790POPC   C1A62403   3.287  28.301   6.273
 4790POPC   D2A62404   3.073  28.173   6.664
 4790POPC   C3A62405   3.278  28.237   7.086
 4790POPC   C4A62406   3.480  28.230   7.511
 4790POPC   C1B62407   3.792  28.328   6.316
 4790POPC   C2B62408   3.594  28.330   6.706
 4790POPC   C3B62409   3.770  28.422   7.103
 4790POPC   C4B62410   4.221  28.556   7.138
 4791POPC   NC362411  23.498  11.142   5.444
 4791POPC   PO462412  23.944  11.564   5.537
 4791POPC   GL162413  23.873  11.163   5.808
 4791POPC   GL262414  23.527  11.081   5.945
 4791POPC   C1A62415  23.922  11.112   6.262
 4791POPC   D2A62416  23.589  11.186   6.566
 4791POPC   C3A62417  23.590  11.031   7.001
 4791POPC   C4A62418  23.735  11.156   7.435
 4791POPC   C1B62419  23.591  11.507   6.107
 4791POPC   C2B62420  23.558  11.684   6.505
 4791POPC   C3B62421  23.476  11.537   6.918
 4791POPC   C4B62422  23.411  11.547   7.362
 4792POPC   NC362423  10.937   4.992   5.334
 4792POPC   PO462424  11.575   5.313   5.341
 4792POPC   GL162425  11.305   5.235   5.700
 4792POPC   GL262426  11.166   4.890   5.776
 4792POPC   C1A62427  11.284   5.218   6.165
 4792POPC   D2A62428  11.121   5.329   6.581
 4792POPC   C3A62429  11.435   5.277   6.865
 4792POPC   C4A62430  11.608   5.115   7.246
 4792POPC   C1B62431  10.964   4.786   6.170
 4792POPC   C2B62432  11.194   4.810   6.572
 4792POPC   C3B62433  11.172   4.834   7.021
 4792POPC   C4B62434  10.799   4.689   7.225
 4793POPC   NC362435  19.894  12.389   5.611
 4793POPC   PO462436  19.830  11.827   5.388
 4793POPC   GL162437  19.827  11.931   5.863
 4793POPC   GL262438  19.546  12.178   5.950
 4793POPC   C1A62439  19.697  11.813   6.318
 4793POPC   D2A62440  19.938  11.715   6.721
 4793POPC   C3A62441  19.993  12.048   7.008
 4793POPC   C4A62442  19.819  12.165   7.427
 4793POPC   C1B62443  19.339  12.167   6.382
 4793POPC   C2B62444  19.517  12.047   6.792
 4793POPC   C3B62445  19.459  11.848   7.204
 4793POPC   C4B62446  19.420  11.950   7.676
 4794POPC   NC362447  19.295  37.759   5.528
 4794POPC   PO462448  18.642  37.551   5.625
 4794POPC   GL162449  18.735  37.770   5.961
 4794POPC   GL262450  19.076  37.591   5.984
 4794POPC   C1A62451  18.932  37.964   6.328
 4794POPC   D2A62452  19.134  37.679   6.653
 4794POPC   C3A62453  19.197  37.869   7.058
 4794POPC   C4A62454  18.958  38.159   7.298
 4794POPC   C1B62455  19.386  37.313   6.241
 4794POPC   C2B62456  19.695  37.244   6.608
 4794POPC   C3B62457  19.580  37.208   7.049
 4794POPC   C4B62458  19.180  37.326   7.224
 4795POPC   NC362459  25.112  11.525   5.519
 4795POPC   PO462460  25.457  10.861   5.480
 4795POPC   GL162461  25.366  11.142   5.800
 4795POPC   GL262462  25.039  11.162   5.936
 4795POPC   C1A62463  25.479  11.323   6.203
 4795POPC   D2A62464  25.528  11.269   6.648
 4795POPC   C3A62465  25.261  11.377   6.993
 4795POPC   C4A62466  24.915  11.123   7.199
 4795POPC   C1B62467  25.041  11.595   6.164
 4795POPC   C2B62468  24.980  11.609   6.613
 4795POPC   C3B62469  24.824  11.656   7.055
 4795POPC   C4B62470  24.616  11.468   7.425
 4796POPC   NC362471  40.587  21.113   5.419
 4796POPC   PO462472  41.200  21.343   5.392
 4796POPC   GL162473  40.896  21.346   5.773
 4796POPC   GL262474  40.660  21.605   5.835
 4796POPC   C1A62475  40.994  21.451   6.205
 4796POPC   D2A62476  40.799  21.407   6.600
 4796POPC   C3A62477  41.031  21.520   6.923
 4796POPC   C4A62478  40.913  21.525   7.327
 4796POPC   C1B62479  40.471  21.401   6.208
 4796POPC   C2B62480  40.276  21.388   6.626
 4796POPC   C3B62481  40.486  21.462   7.030
 4796POPC   C4B62482  40.467  21.304   7.468
 4797POPC   NC362483  19.308  42.188   5.101
 4797POPC   PO462484  18.887  42.508   5.474
 4797POPC   GL162485  18.995  42.335   5.855
 4797POPC   GL262486  19.157  42.017   5.855
 4797POPC   C1A62487  18.763  42.228   6.213
 4797POPC   D2A62488  18.688  42.429   6.584
 4797POPC   C3A62489  18.638  42.249   6.936
 4797POPC   C4A62490  18.944  42.348   7.202
 4797POPC   C1B62491  19.266  42.161   6.302
 4797POPC   C2B62492  19.112  42.138   6.748
 4797POPC   C3B62493  19.139  41.873   7.165
 4797POPC   C4B62494  19.424  41.914   7.539
 4798POPC   NC362495  11.817  10.531   5.288
 4798POPC   PO462496  11.170  10.459   5.326
 4798POPC   GL162497  11.416  10.689   5.603
 4798POPC   GL262498  11.632  10.425   5.747
 4798POPC   C1A62499  11.379  10.790   6.020
 4798POPC   D2A62500  11.282  10.754   6.448
 4798POPC   C3A62501  11.520  10.842   6.798
 4798POPC   C4A62502  11.375  10.872   7.221
 4798POPC   C1B62503  11.491  10.308   6.157
 4798POPC   C2B62504  11.616  10.378   6.564
 4798POPC   C3B62505  11.471  10.337   6.937
 4798POPC   C4B62506  11.656  10.455   7.270
 4799POPC   NC362507  28.880  36.593   5.439
 4799POPC   PO462508  29.461  36.981   5.507
 4799POPC   GL162509  29.224  37.066   5.861
 4799POPC   GL262510  28.955  36.862   5.870
 4799POPC   C1A62511  29.269  36.894   6.280
 4799POPC   D2A62512  29.180  36.685   6.668
 4799POPC   C3A62513  29.195  36.983   7.007
 4799POPC   C4A62514  29.028  36.950   7.431
 4799POPC   C1B62515  28.737  36.779   6.248
 4799POPC   C2B62516  28.606  36.721   6.665
 4799POPC   C3B62517  28.806  36.659   7.051
 4799POPC   C4B62518  28.865  36.457   7.428
 4800POPC   NC362519   8.983  23.681   5.450
 4800POPC   PO462520   8.661  24.260   5.598
 4800POPC   GL162521   8.847  23.952   5.863
 4800POPC   GL262522   9.222  23.876   5.847
 4800POPC   C1A62523   8.893  23.712   6.229
 4800POPC   D2A62524   8.961  23.846   6.642
 4800POPC   C3A62525   8.883  23.602   6.989
 4800POPC   C4A62526   8.939  23.268   7.215
 4800POPC   C1B62527   9.371  23.591   6.147
 4800POPC   C2B62528   9.432  23.669   6.559
 4800POPC   C3B62529   9.366  23.454   6.918
 4800POPC   C4B62530   9.310  23.725   7.262
 4801POPC   NC362531  23.875  25.075   5.101
 4801POPC   PO462532  23.769  24.975   5.716
 4801POPC   GL162533  23.662  25.288   5.984
 4801POPC   GL262534  23.442  25.489   5.780
 4801POPC   C1A62535  23.533  25.203   6.396
 4801POPC   D2A62536  23.213  25.041   6.653
 4801POPC   C3A62537  23.465  24.961   6.984
 4801POPC   C4A62538  23.848  25.086   7.101
 4801POPC   C1B62539  23.417  25.715   6.166
 4801POPC   C2B62540  23.729  25.665   6.477
 4801POPC   C3B62541  23.752  25.503   6.847
 4801POPC   C4B62542  23.483  25.464   7.157
 4802POPC   NC362543  28.511  40.871   5.442
 4802POPC   PO462544  27.859  40.655   5.606
 4802POPC   GL162545  28.114  41.022   5.821
 4802POPC   GL262546  28.469  41.033   5.937
 4802POPC   C1A62547  28.054  41.155   6.229
 4802POPC   D2A62548  28.268  40.881   6.520
 4802POPC   C3A62549  28.134  40.815   6.927
 4802POPC   C4A62550  28.100  40.492   7.206
 4802POPC   C1B62551  28.536  41.275   6.331
 4802POPC   C2B62552  28.508  41.224   6.822
 4802POPC   C3B62553  28.586  41.030   7.215
 4802POPC   C4B62554  28.569  40.609   7.300
 4803POPC   NC362555   6.870  42.903   5.214
 4803POPC   PO462556   6.398  43.421   5.447
 4803POPC   GL162557   6.592  43.316   5.814
 4803POPC   GL262558   6.811  43.032   5.747
 4803POPC   C1A62559   6.470  43.088   6.178
 4803POPC   D2A62560   6.623  43.091   6.584
 4803POPC   C3A62561   6.372  43.005   6.947
 4803POPC   C4A62562   6.532  42.968   7.374
 4803POPC   C1B62563   6.936  42.815   6.150
 4803POPC   C2B62564   6.957  42.666   6.587
 4803POPC   C3B62565   6.884  42.842   6.991
 4803POPC   C4B62566   7.130  42.958   7.350
 4804POPC   NC362567   1.583  10.112   5.185
 4804POPC   PO462568   1.066   9.963   5.587
 4804POPC   GL162569   1.178   9.633   5.885
 4804POPC   GL262570   0.979   9.330   5.821
 4804POPC   C1A62571   1.274   9.733   6.319
 4804POPC   D2A62572   1.005   9.965   6.560
 4804POPC   C3A62573   1.124  10.035   6.963
 4804POPC   C4A62574   1.499  10.001   7.205
 4804POPC   C1B62575   1.032   9.295   6.282
 4804POPC   C2B62576   1.060   9.443   6.692
 4804POPC   C3B62577   1.044   9.431   7.119
 4804POPC   C4B62578   0.928   9.325   7.518
 4805POPC   NC362579  10.757  25.720   5.479
 4805POPC   PO462580  10.291  26.209   5.406
 4805POPC   GL162581  10.504  26.073   5.783
 4805POPC   GL262582  10.355  25.737   5.806
 4805POPC   C1A62583  10.667  25.936   6.200
 4805POPC   D2A62584  10.749  26.127   6.622
 4805POPC   C3A62585  10.797  25.992   7.050
 4805POPC   C4A62586  10.538  26.050   7.405
 4805POPC   C1B62587  10.165  25.811   6.159
 4805POPC   C2B62588  10.248  26.000   6.528
 4805POPC   C3B62589  10.292  26.079   6.950
 4805POPC   C4B62590  10.023  26.074   7.281
 4806POPC   NC362591  42.220   9.065   5.178
 4806POPC   PO462592  42.440   8.610   5.562
 4806POPC   GL162593  42.389   8.844   5.849
 4806POPC   GL262594  42.129   9.037   5.697
 4806POPC   C1A62595  42.418   8.794   6.265
 4806POPC   D2A62596  42.678   9.004   6.505
 4806POPC   C3A62597  42.489   9.038   6.888
 4806POPC   C4A62598  42.647   9.289   7.234
 4806POPC   C1B62599  41.935   8.822   6.071
 4806POPC   C2B62600  41.855   8.838   6.512
 4806POPC   C3B62601  41.945   9.114   6.852
 4806POPC   C4B62602  42.131   9.151   7.243
 4807POPC   NC362603  34.301  16.813   5.141
 4807POPC   PO462604  33.706  16.927   5.409
 4807POPC   GL162605  33.757  16.905   5.834
 4807POPC   GL262606  34.005  17.153   5.906
 4807POPC   C1A62607  33.578  16.714   6.198
 4807POPC   D2A62608  33.708  16.518   6.562
 4807POPC   C3A62609  33.562  16.636   6.956
 4807POPC   C4A62610  33.498  16.566   7.372
 4807POPC   C1B62611  34.133  16.732   6.113
 4807POPC   C2B62612  34.197  16.615   6.525
 4807POPC   C3B62613  34.061  16.535   6.939
 4807POPC   C4B62614  33.980  16.773   7.306
 4808POPC   NC362615  29.376  29.496   5.400
 4808POPC   PO462616  28.972  28.962   5.477
 4808POPC   GL162617  29.016  29.205   5.861
 4808POPC   GL262618  28.879  28.911   5.985
 4808POPC   C1A62619  29.051  29.225   6.329
 4808POPC   D2A62620  29.193  29.139   6.734
 4808POPC   C3A62621  29.024  29.284   7.104
 4808POPC   C4A62622  28.913  29.680   7.184
 4808POPC   C1B62623  29.317  28.827   6.072
 4808POPC   C2B62624  29.562  28.966   6.404
 4808POPC   C3B62625  29.718  29.115   6.777
 4808POPC   C4B62626  29.517  29.159   7.134
 4809POPC   NC362627  36.312  10.383   5.407
 4809POPC   PO462628  35.647  10.403   5.301
 4809POPC   GL162629  35.907  10.282   5.729
 4809POPC   GL262630  36.097  10.560   5.861
 4809POPC   C1A62631  36.119  10.171   6.174
 4809POPC   D2A62632  35.981  10.253   6.611
 4809POPC   C3A62633  36.145  10.345   7.015
 4809POPC   C4A62634  36.112  10.145   7.434
 4809POPC   C1B62635  35.865  10.648   6.269
 4809POPC   C2B62636  35.990  10.760   6.716
 4809POPC   C3B62637  36.054  10.827   7.172
 4809POPC   C4B62638  36.154  10.810   7.611
 4810POPC   NC362639  39.245  22.260   5.154
 4810POPC   PO462640  38.513  22.238   5.274
 4810POPC   GL162641  38.652  22.298   5.685
 4810POPC   GL262642  39.036  22.371   5.666
 4810POPC   C1A62643  38.499  22.088   6.086
 4810POPC   D2A62644  38.414  21.921   6.520
 4810POPC   C3A62645  38.292  22.207   6.876
 4810POPC   C4A62646  38.036  22.472   7.184
 4810POPC   C1B62647  38.965  21.967   5.926
 4810POPC   C2B62648  38.930  21.997   6.379
 4810POPC   C3B62649  38.900  22.065   6.823
 4810POPC   C4B62650  38.674  22.110   7.194
 4811POPC   NC362651  20.412  24.658   5.417
 4811POPC   PO462652  21.038  24.385   5.329
 4811POPC   GL162653  21.065  24.455   5.782
 4811POPC   GL262654  20.807  24.725   5.790
 4811POPC   C1A62655  21.126  24.376   6.263
 4811POPC   D2A62656  20.779  24.322   6.582
 4811POPC   C3A62657  20.757  24.180   7.033
 4811POPC   C4A62658  20.671  24.231   7.527
 4811POPC   C1B62659  20.461  24.713   6.112
 4811POPC   C2B62660  20.346  24.615   6.557
 4811POPC   C3B62661  20.501  24.628   6.999
 4811POPC   C4B62662  20.252  24.878   7.263
 4812POPC   NC362663   1.612  12.020   5.145
 4812POPC   PO462664   1.015  11.883   5.372
 4812POPC   GL162665   1.187  12.099   5.723
 4812POPC   GL262666   1.506  12.062   5.700
 4812POPC   C1A62667   1.187  12.183   6.158
 4812POPC   D2A62668   1.167  11.879   6.473
 4812POPC   C3A62669   1.302  11.929   6.875
 4812POPC   C4A62670   1.092  12.051   7.242
 4812POPC   C1B62671   1.673  12.046   6.112
 4812POPC   C2B62672   1.629  12.223   6.534
 4812POPC   C3B62673   1.642  12.290   6.958
 4812POPC   C4B62674   1.654  11.999   7.255
 4813POPC   NC362675   8.409  16.309   5.376
 4813POPC   PO462676   8.043  16.882   5.561
 4813POPC   GL162677   8.388  16.806   5.823
 4813POPC   GL262678   8.391  16.478   5.880
 4813POPC   C1A62679   8.405  16.894   6.251
 4813POPC   D2A62680   8.472  16.704   6.646
 4813POPC   C3A62681   8.360  16.977   6.996
 4813POPC   C4A62682   7.977  16.996   7.204
 4813POPC   C1B62683   8.625  16.391   6.248
 4813POPC   C2B62684   8.594  16.178   6.653
 4813POPC   C3B62685   8.283  16.246   6.979
 4813POPC   C4B62686   8.304  16.558   7.298
 4814POPC   NC362687  29.694  25.073   5.397
 4814POPC   PO462688  29.985  25.635   5.170
 4814POPC   GL162689  30.047  25.298   5.658
 4814POPC   GL262690  30.161  24.942   5.688
 4814POPC   C1A62691  29.932  25.293   6.143
 4814POPC   D2A62692  29.963  25.508   6.565
 4814POPC   C3A62693  29.839  25.339   6.967
 4814POPC   C4A62694  30.124  25.363   7.324
 4814POPC   C1B62695  30.089  24.802   6.143
 4814POPC   C2B62696  30.058  24.998   6.583
 4814POPC   C3B62697  29.975  24.856   7.030
 4814POPC   C4B62698  29.539  24.949   7.166
 4815POPC   NC362699   6.549  10.131   5.587
 4815POPC   PO462700   7.037   9.744   5.300
 4815POPC   GL162701   6.795   9.586   5.717
 4815POPC   GL262702   6.469   9.682   5.784
 4815POPC   C1A62703   6.682   9.501   6.210
 4815POPC   D2A62704   6.760   9.307   6.629
 4815POPC   C3A62705   6.703   9.549   6.995
 4815POPC   C4A62706   6.774   9.754   7.397
 4815POPC   C1B62707   6.327   9.889   6.179
 4815POPC   C2B62708   6.473   9.861   6.626
 4815POPC   C3B62709   6.450  10.001   7.088
 4815POPC   C4B62710   6.328   9.967   7.540
 4816POPC   NC362711  14.506   2.967   5.467
 4816POPC   PO462712  14.337   2.348   5.347
 4816POPC   GL162713  14.484   2.478   5.777
 4816POPC   GL262714  14.653   2.805   5.933
 4816POPC   C1A62715  14.303   2.527   6.197
 4816POPC   D2A62716  14.519   2.714   6.542
 4816POPC   C3A62717  14.342   2.648   6.936
 4816POPC   C4A62718  14.479   2.515   7.335
 4816POPC   C1B62719  14.357   3.068   6.174
 4816POPC   C2B62720  14.147   3.104   6.579
 4816POPC   C3B62721  14.256   3.160   7.013
 4816POPC   C4B62722  14.584   3.023   7.265
 4817POPC   NC362723   3.752  17.712   5.393
 4817POPC   PO462724   3.833  17.115   5.546
 4817POPC   GL162725   3.599  17.397   5.826
 4817POPC   GL262726   3.444  17.735   5.825
 4817POPC   C1A62727   3.565  17.419   6.279
 4817POPC   D2A62728   3.828  17.230   6.625
 4817POPC   C3A62729   3.626  17.211   7.023
 4817POPC   C4A62730   3.194  17.229   7.134
 4817POPC   C1B62731   3.271  17.894   6.254
 4817POPC   C2B62732   3.276  17.895   6.748
 4817POPC   C3B62733   3.458  17.701   7.143
 4817POPC   C4B62734   3.784  17.527   7.419
 4818POPC   NC362735  34.383  25.280   5.146
 4818POPC   PO462736  34.899  25.463   5.420
 4818POPC   GL162737  34.788  25.203   5.792
 4818POPC   GL262738  34.480  25.347   5.802
 4818POPC   C1A62739  34.624  25.098   6.230
 4818POPC   D2A62740  34.351  25.070   6.608
 4818POPC   C3A62741  34.601  25.108   6.979
 4818POPC   C4A62742  34.850  25.214   7.334
 4818POPC   C1B62743  34.451  25.580   6.216
 4818POPC   C2B62744  34.433  25.570   6.681
 4818POPC   C3B62745  34.321  25.727   7.079
 4818POPC   C4B62746  34.351  25.407   7.388
 4819POPC   NC362747  41.190   3.744   5.392
 4819POPC   PO462748  40.563   3.382   5.489
 4819POPC   GL162749  40.756   3.555   5.823
 4819POPC   GL262750  41.099   3.431   5.794
 4819POPC   C1A62751  40.546   3.591   6.234
 4819POPC   D2A62752  40.611   3.390   6.629
 4819POPC   C3A62753  40.625   3.560   7.034
 4819POPC   C4A62754  40.829   3.735   7.394
 4819POPC   C1B62755  41.076   3.512   6.227
 4819POPC   C2B62756  41.126   3.284   6.580
 4819POPC   C3B62757  40.952   3.156   6.953
 4819POPC   C4B62758  41.202   3.244   7.304
 4820POPC   NC362759  31.106  27.002   5.506
 4820POPC   PO462760  31.557  26.579   5.230
 4820POPC   GL162761  31.636  26.778   5.655
 4820POPC   GL262762  31.743  27.140   5.721
 4820POPC   C1A62763  31.776  26.686   6.091
 4820POPC   D2A62764  31.831  26.818   6.538
 4820POPC   C3A62765  31.755  26.536   6.878
 4820POPC   C4A62766  31.406  26.679   7.108
 4820POPC   C1B62767  31.766  27.306   6.170
 4820POPC   C2B62768  31.664  27.303   6.639
 4820POPC   C3B62769  31.746  27.116   7.043
 4820POPC   C4B62770  31.485  27.124   7.414
 4821POPC   NC362771  41.498  25.151   5.394
 4821POPC   PO462772  42.130  25.562   5.503
 4821POPC   GL162773  41.829  25.248   5.802
 4821POPC   GL262774  41.429  25.321   5.860
 4821POPC   C1A62775  41.756  25.313   6.268
 4821POPC   D2A62776  41.994  25.485   6.626
 4821POPC   C3A62777  41.783  25.391   7.014
 4821POPC   C4A62778  41.467  25.209   7.286
 4821POPC   C1B62779  41.398  25.663   6.162
 4821POPC   C2B62780  41.519  25.672   6.596
 4821POPC   C3B62781  41.343  25.655   6.994
 4821POPC   C4B62782  41.012  25.543   7.262
 4822POPC   NC362783  38.781  43.273   5.589
 4822POPC   PO462784  38.482  43.755   5.089
 4822POPC   GL162785  38.481  43.814   5.582
 4822POPC   GL262786  38.842  43.819   5.731
 4822POPC   C1A62787  38.383  43.965   6.046
 4822POPC   D2A62788  38.489  44.024   6.518
 4822POPC   C3A62789  38.287  43.961   6.938
 4822POPC   C4A62790  38.445  43.834   7.384
 4822POPC   C1B62791  38.769  43.635   6.145
 4822POPC   C2B62792  38.658  43.489   6.541
 4822POPC   C3B62793  38.709  43.676   6.909
 4822POPC   C4B62794  38.782  43.405   7.205
 4823POPC   NC362795  30.096   6.239   5.129
 4823POPC   PO462796  29.673   5.815   5.273
 4823POPC   GL162797  29.874   5.902   5.695
 4823POPC   GL262798  29.939   5.576   5.770
 4823POPC   C1A62799  29.806   5.864   6.171
 4823POPC   D2A62800  30.018   5.767   6.581
 4823POPC   C3A62801  29.759   5.865   6.943
 4823POPC   C4A62802  29.629   5.648   7.305
 4823POPC   C1B62803  30.258   5.638   6.116
 4823POPC   C2B62804  30.448   5.461   6.490
 4823POPC   C3B62805  30.348   5.491   6.931
 4823POPC   C4B62806  30.207   5.836   7.142
 4824POPC   NC362807  35.621  29.218   5.475
 4824POPC   PO462808  35.170  28.759   5.340
 4824POPC   GL162809  35.271  28.886   5.752
 4824POPC   GL262810  35.647  28.813   5.766
 4824POPC   C1A62811  35.010  28.960   6.155
 4824POPC   D2A62812  35.016  29.206   6.531
 4824POPC   C3A62813  34.945  29.375   6.945
 4824POPC   C4A62814  35.217  29.297   7.284
 4824POPC   C1B62815  35.639  29.159   6.122
 4824POPC   C2B62816  35.796  29.301   6.549
 4824POPC   C3B62817  35.642  29.317   6.999
 4824POPC   C4B62818  35.653  29.051   7.384
 4825POPC   NC362819  14.788  17.394   5.519
 4825POPC   PO462820  15.470  17.695   5.434
 4825POPC   GL162821  15.369  17.525   5.800
 4825POPC   GL262822  15.060  17.661   5.874
 4825POPC   C1A62823  15.346  17.400   6.218
 4825POPC   D2A62824  15.298  17.275   6.622
 4825POPC   C3A62825  15.223  17.593   6.889
 4825POPC   C4A62826  15.265  17.489   7.313
 4825POPC   C1B62827  14.861  17.557   6.256
 4825POPC   C2B62828  14.738  17.308   6.607
 4825POPC   C3B62829  14.810  17.329   7.042
 4825POPC   C4B62830  14.803  17.745   7.167
 4826POPC   NC362831  16.941  25.517   5.537
 4826POPC   PO462832  16.421  25.147   5.244
 4826POPC   GL162833  16.535  25.190   5.697
 4826POPC   GL262834  16.868  25.098   5.812
 4826POPC   C1A62835  16.470  25.351   6.147
 4826POPC   D2A62836  16.643  25.528   6.550
 4826POPC   C3A62837  16.595  25.323   6.960
 4826POPC   C4A62838  16.300  25.037   7.141
 4826POPC   C1B62839  16.966  25.287   6.202
 4826POPC   C2B62840  16.976  25.140   6.605
 4826POPC   C3B62841  17.096  25.192   7.019
 4826POPC   C4B62842  17.027  25.597   7.211
 4827POPC   NC362843  25.292   8.697   5.277
 4827POPC   PO462844  25.425   8.130   5.328
 4827POPC   GL162845  25.355   8.398   5.694
 4827POPC   GL262846  25.546   8.204   5.937
 4827POPC   C1A62847  25.239   8.565   6.110
 4827POPC   D2A62848  25.521   8.426   6.441
 4827POPC   C3A62849  25.398   8.441   6.875
 4827POPC   C4A62850  25.637   8.319   7.233
 4827POPC   C1B62851  25.272   8.022   6.287
 4827POPC   C2B62852  25.332   7.944   6.747
 4827POPC   C3B62853  25.265   7.983   7.200
 4827POPC   C4B62854  25.094   8.083   7.613
 4828POPC   NC362855  11.585  28.758   5.301
 4828POPC   PO462856  11.307  29.336   5.301
 4828POPC   GL162857  11.405  29.275   5.750
 4828POPC   GL262858  11.598  29.535   5.827
 4828POPC   C1A62859  11.276  29.116   6.196
 4828POPC   D2A62860  11.193  28.832   6.578
 4828POPC   C3A62861  11.152  29.041   6.986
 4828POPC   C4A62862  11.245  29.002   7.436
 4828POPC   C1B62863  11.695  29.386   6.240
 4828POPC   C2B62864  11.486  29.266   6.658
 4828POPC   C3B62865  11.477  29.406   7.128
 4828POPC   C4B62866  11.539  29.375   7.598
 4829POPC   NC362867  40.263  35.898   5.310
 4829POPC   PO462868  39.640  36.236   5.475
 4829POPC   GL162869  40.108  36.223   5.690
 4829POPC   GL262870  40.264  35.880   5.806
 4829POPC   C1A62871  40.269  36.375   6.107
 4829POPC   D2A62872  40.023  36.443   6.505
 4829POPC   C3A62873  40.176  36.428   6.946
 4829POPC   C4A62874  40.034  36.259   7.355
 4829POPC   C1B62875  40.037  35.913   6.178
 4829POPC   C2B62876  40.184  35.932   6.577
 4829POPC   C3B62877  40.080  35.923   6.983
 4829POPC   C4B62878  40.338  35.823   7.311
 4830POPC   NC362879  20.862   9.463   5.527
 4830POPC   PO462880  20.220   9.680   5.354
 4830POPC   GL162881  20.440   9.658   5.753
 4830POPC   GL262882  20.711   9.876   5.878
 4830POPC   C1A62883  20.503   9.456   6.147
 4830POPC   D2A62884  20.422   9.484   6.591
 4830POPC   C3A62885  20.758   9.719   6.819
 4830POPC   C4A62886  20.941   9.528   7.162
 4830POPC   C1B62887  20.714   9.877   6.332
 4830POPC   C2B62888  20.481  10.135   6.605
 4830POPC   C3B62889  20.600  10.258   7.020
 4830POPC   C4B62890  20.679   9.946   7.324
 4831POPC   NC362891  43.598  18.820   5.318
 4831POPC   PO462892  42.986  19.126   5.267
 4831POPC   GL162893  43.216  18.948   5.626
 4831POPC   GL262894  43.394  19.243   5.782
 4831POPC   C1A62895  43.353  18.817   6.046
 4831POPC   D2A62896  43.100  18.773   6.409
 4831POPC   C3A62897  43.224  18.764   6.825
 4831POPC   C4A62898  43.090  18.937   7.165
 4831POPC   C1B62899  43.196  19.267   6.246
 4831POPC   C2B62900  43.142  19.287   6.749
 4831POPC   C3B62901  43.212  19.426   7.235
 4831POPC   C4B62902  43.248  19.477   7.737
 4832POPC   NC362903  12.526  15.793   5.471
 4832POPC   PO462904  13.074  16.153   5.320
 4832POPC   GL162905  13.009  15.965   5.751
 4832POPC   GL262906  12.774  15.716   5.895
 4832POPC   C1A62907  13.149  15.864   6.192
 4832POPC   D2A62908  12.900  15.850   6.553
 4832POPC   C3A62909  13.051  16.030   6.923
 4832POPC   C4A62910  12.929  15.852   7.313
 4832POPC   C1B62911  12.510  15.667   6.264
 4832POPC   C2B62912  12.292  15.617   6.660
 4832POPC   C3B62913  12.466  15.483   7.072
 4832POPC   C4B62914  12.692  15.424   7.499
 4833POPC   NC362915   8.917  31.392   5.338
 4833POPC   PO462916   9.288  31.947   5.632
 4833POPC   GL162917   9.120  31.497   5.804
 4833POPC   GL262918   8.735  31.386   5.800
 4833POPC   C1A62919   9.030  31.275   6.194
 4833POPC   D2A62920   8.880  31.498   6.547
 4833POPC   C3A62921   9.073  31.503   6.940
 4833POPC   C4A62922   9.267  31.786   7.224
 4833POPC   C1B62923   8.523  31.407   6.191
 4833POPC   C2B62924   8.426  31.260   6.606
 4833POPC   C3B62925   8.554  31.503   6.947
 4833POPC   C4B62926   8.683  31.529   7.370
 4834POPC   NC362927  37.351  24.846   5.623
 4834POPC   PO462928  37.864  24.544   5.453
 4834POPC   GL162929  37.866  24.572   5.868
 4834POPC   GL262930  37.672  24.283   5.884
 4834POPC   C1A62931  37.715  24.675   6.301
 4834POPC   D2A62932  37.814  24.543   6.750
 4834POPC   C3A62933  37.763  24.739   7.162
 4834POPC   C4A62934  37.441  24.764   7.473
 4834POPC   C1B62935  37.974  24.223   6.253
 4834POPC   C2B62936  38.141  24.165   6.685
 4834POPC   C3B62937  37.920  24.095   7.087
 4834POPC   C4B62938  37.638  24.304   7.391
 4835POPC   NC362939  18.063  35.039   5.475
 4835POPC   PO462940  18.372  35.570   5.517
 4835POPC   GL162941  18.152  35.372   5.841
 4835POPC   GL262942  17.848  35.495   5.639
 4835POPC   C1A62943  18.260  35.140   6.231
 4835POPC   D2A62944  18.318  35.310   6.643
 4835POPC   C3A62945  18.662  35.246   6.929
 4835POPC   C4A62946  18.516  35.107   7.328
 4835POPC   C1B62947  17.720  35.514   6.069
 4835POPC   C2B62948  17.827  35.454   6.500
 4835POPC   C3B62949  17.934  35.546   6.919
 4835POPC   C4B62950  18.276  35.496   7.154
 4836POPC   NC362951  30.356  44.758   5.370
 4836POPC   PO462952  30.759  44.218   5.376
 4836POPC   GL162953  30.724  44.536   5.703
 4836POPC   GL262954  31.033  44.705   5.780
 4836POPC   C1A62955  30.444  44.688   6.042
 4836POPC   D2A62956  30.303  44.535   6.462
 4836POPC   C3A62957  30.446  44.775   6.821
 4836POPC   C4A62958  30.414  44.907   7.247
 4836POPC   C1B62959  31.085  44.625   6.220
 4836POPC   C2B62960  30.902  44.701   6.623
 4836POPC   C3B62961  30.903  44.682   7.075
 4836POPC   C4B62962  31.212  44.360   7.129
 4837POPC   NC362963   2.104  38.308   5.386
 4837POPC   PO462964   1.954  38.943   5.452
 4837POPC   GL162965   2.237  38.741   5.822
 4837POPC   GL262966   2.219  38.367   5.863
 4837POPC   C1A62967   2.166  38.606   6.309
 4837POPC   D2A62968   1.724  38.589   6.573
 4837POPC   C3A62969   1.678  38.438   7.018
 4837POPC   C4A62970   2.070  38.477   7.256
 4837POPC   C1B62971   2.192  38.087   6.204
 4837POPC   C2B62972   2.052  38.198   6.617
 4837POPC   C3B62973   1.978  38.037   6.989
 4837POPC   C4B62974   2.223  37.934   7.315
 4838POPC   NC362975  11.398  40.959   5.334
 4838POPC   PO462976  10.874  40.857   5.340
 4838POPC   GL162977  11.127  40.993   5.763
 4838POPC   GL262978  11.167  40.659   5.871
 4838POPC   C1A62979  11.418  40.967   6.180
 4838POPC   D2A62980  11.342  40.896   6.662
 4838POPC   C3A62981  11.508  40.950   7.117
 4838POPC   C4A62982  11.423  40.669   7.482
 4838POPC   C1B62983  10.929  40.852   6.239
 4838POPC   C2B62984  10.827  40.833   6.688
 4838POPC   C3B62985  11.017  40.794   7.103
 4838POPC   C4B62986  11.096  41.093   7.419
 4839POPC   NC362987  37.530   9.148   5.335
 4839POPC   PO462988  37.779   8.439   5.353
 4839POPC   GL162989  37.535   8.654   5.762
 4839POPC   GL262990  37.525   9.006   5.821
 4839POPC   C1A62991  37.332   8.723   6.194
 4839POPC   D2A62992  37.454   8.785   6.642
 4839POPC   C3A62993  37.654   8.724   7.076
 4839POPC   C4A62994  37.675   8.840   7.517
 4839POPC   C1B62995  37.716   9.066   6.227
 4839POPC   C2B62996  37.813   9.379   6.523
 4839POPC   C3B62997  37.771   9.195   6.899
 4839POPC   C4B62998  37.780   9.274   7.317
 4840POPC   NC362999  28.615  33.285   5.396
 4840POPC   PO463000  29.283  33.222   5.311
 4840POPC   GL163001  29.061  33.080   5.660
 4840POPC   GL263002  29.002  33.406   5.719
 4840POPC   C1A63003  28.973  32.934   6.089
 4840POPC   D2A63004  28.820  32.822   6.498
 4840POPC   C3A63005  29.039  32.999   6.819
 4840POPC   C4A63006  29.119  32.921   7.226
 4840POPC   C1B63007  29.236  33.373   6.069
 4840POPC   C2B63008  29.125  33.361   6.463
 4840POPC   C3B63009  29.355  33.405   6.827
 4840POPC   C4B63010  29.091  33.507   7.150
 4841POPC   NC363011  10.042  30.078   5.168
 4841POPC   PO463012  10.415  30.586   5.376
 4841POPC   GL163013  10.373  30.839   5.723
 4841POPC   GL263014  10.659  30.967   5.830
 4841POPC   C1A63015  10.397  30.622   6.131
 4841POPC   D2A63016  10.583  30.495   6.520
 4841POPC   C3A63017  10.474  30.683   6.920
 4841POPC   C4A63018  10.712  30.642   7.303
 4841POPC   C1B63019  10.808  30.904   6.267
 4841POPC   C2B63020  10.893  30.978   6.701
 4841POPC   C3B63021  11.148  31.091   7.075
 4841POPC   C4B63022  10.984  31.033   7.481
 4842POPC   NC363023   0.058  29.343   5.402
 4842POPC   PO463024   0.544  28.988   5.560
 4842POPC   GL163025   0.294  29.156   5.914
 4842POPC   GL263026   0.334  28.832   6.057
 4842POPC   C1A63027   0.127  29.246   6.365
 4842POPC   D2A63028   0.169  28.974   6.750
 4842POPC   C3A63029   0.136  29.001   7.219
 4842POPC   C4A63030   0.261  29.318   7.507
 4842POPC   C1B63031   0.604  29.054   6.325
 4842POPC   C2B63032   0.552  29.312   6.678
 4842POPC   C3B63033   0.618  29.139   7.058
 4842POPC   C4B63034   1.001  28.950   7.234
 4843POPC   NC363035  21.056  26.207   5.377
 4843POPC   PO463036  20.515  25.828   5.310
 4843POPC   GL163037  20.771  25.931   5.697
 4843POPC   GL263038  20.957  25.666   5.842
 4843POPC   C1A63039  20.733  26.085   6.144
 4843POPC   D2A63040  20.436  25.995   6.499
 4843POPC   C3A63041  20.535  26.111   6.938
 4843POPC   C4A63042  20.500  26.350   7.339
 4843POPC   C1B63043  20.645  25.587   6.202
 4843POPC   C2B63044  20.545  25.533   6.660
 4843POPC   C3B63045  20.717  25.575   7.054
 4843POPC   C4B63046  20.701  25.876   7.368
 4844POPC   NC363047  41.501   7.621   5.450
 4844POPC   PO463048  41.439   6.863   5.485
 4844POPC   GL163049  41.472   7.224   5.798
 4844POPC   GL263050  41.728   7.496   5.976
 4844POPC   C1A63051  41.311   7.357   6.175
 4844POPC   D2A63052  41.548   7.567   6.515
 4844POPC   C3A63053  41.437   7.468   6.939
 4844POPC   C4A63054  41.392   7.289   7.369
 4844POPC   C1B63055  41.869   7.207   6.324
 4844POPC   C2B63056  41.937   7.320   6.786
 4844POPC   C3B63057  41.850   7.523   7.227
 4844POPC   C4B63058  41.904   7.877   7.532
 4845POPC   NC363059  12.099  37.926   5.108
 4845POPC   PO463060  11.874  37.324   5.475
 4845POPC   GL163061  12.093  37.401   5.862
 4845POPC   GL263062  11.928  37.257   6.059
 4845POPC   C1A63063  12.133  37.722   6.213
 4845POPC   D2A63064  12.141  37.578   6.618
 4845POPC   C3A63065  12.186  37.835   6.963
 4845POPC   C4A63066  12.167  38.036   7.357
 4845POPC   C1B63067  11.837  37.206   6.475
 4845POPC   C2B63068  11.732  37.428   6.857
 4845POPC   C3B63069  12.068  37.349   7.099
 4845POPC   C4B63070  12.262  37.126   7.363
 4846POPC   NC363071  43.303  26.401   5.357
 4846POPC   PO463072  43.111  25.742   5.418
 4846POPC   GL163073  42.883  25.970   5.775
 4846POPC   GL263074  43.089  26.233   5.802
 4846POPC   C1A63075  42.851  26.109   6.249
 4846POPC   D2A63076  43.128  26.055   6.598
 4846POPC   C3A63077  43.038  26.207   6.977
 4846POPC   C4A63078  43.052  26.185   7.404
 4846POPC   C1B63079  43.370  26.187   6.181
 4846POPC   C2B63080  43.590  26.284   6.624
 4846POPC   C3B63081  43.539  26.250   7.116
 4846POPC   C4B63082  43.498  26.252   7.627
 4847POPC   NC363083   6.095  18.550   5.272
 4847POPC   PO463084   5.813  19.176   5.445
 4847POPC   GL163085   5.844  18.959   5.806
 4847POPC   GL263086   5.571  18.763   5.771
 4847POPC   C1A63087   5.829  19.112   6.232
 4847POPC   D2A63088   5.621  19.145   6.615
 4847POPC   C3A63089   5.862  19.288   6.976
 4847POPC   C4A63090   5.639  19.179   7.366
 4847POPC   C1B63091   5.702  18.579   6.161
 4847POPC   C2B63092   5.888  18.664   6.531
 4847POPC   C3B63093   5.837  18.787   6.945
 4847POPC   C4B63094   6.090  18.917   7.307
 4848POPC   NC363095  32.615  40.289   5.674
 4848POPC   PO463096  32.188  40.767   5.454
 4848POPC   GL163097  32.203  40.929   5.838
 4848POPC   GL263098  32.381  40.656   5.927
 4848POPC   C1A63099  32.503  41.085   6.159
 4848POPC   D2A63100  32.618  40.872   6.532
 4848POPC   C3A63101  32.453  41.046   6.866
 4848POPC   C4A63102  32.517  40.964   7.261
 4848POPC   C1B63103  32.239  40.581   6.316
 4848POPC   C2B63104  32.056  40.764   6.665
 4848POPC   C3B63105  32.197  40.632   7.049
 4848POPC   C4B63106  32.192  40.653   7.483
 4849POPC   NC363107  19.037   2.518   5.384
 4849POPC   PO463108  19.151   3.187   5.510
 4849POPC   GL163109  19.248   2.822   5.828
 4849POPC   GL263110  19.037   2.520   5.882
 4849POPC   C1A63111  19.257   2.676   6.295
 4849POPC   D2A63112  19.225   2.603   6.742
 4849POPC   C3A63113  19.054   2.900   7.019
 4849POPC   C4A63114  18.928   2.726   7.367
 4849POPC   C1B63115  18.653   2.419   6.085
 4849POPC   C2B63116  18.822   2.441   6.482
 4849POPC   C3B63117  18.724   2.521   6.910
 4849POPC   C4B63118  18.550   2.385   7.276
 4850POPC   NC363119  11.694  35.850   5.214
 4850POPC   PO463120  11.168  35.325   5.249
 4850POPC   GL163121  11.287  35.304   5.705
 4850POPC   GL263122  11.507  35.633   5.723
 4850POPC   C1A63123  11.099  35.133   6.122
 4850POPC   D2A63124  11.299  35.216   6.539
 4850POPC   C3A63125  11.021  35.201   6.904
 4850POPC   C4A63126  11.145  35.361   7.325
 4850POPC   C1B63127  11.413  35.528   6.149
 4850POPC   C2B63128  11.505  35.726   6.544
 4850POPC   C3B63129  11.392  35.595   6.946
 4850POPC   C4B63130  11.306  35.828   7.317
 4851POPC   NC363131   8.531  33.142   5.641
 4851POPC   PO463132   8.129  32.883   5.122
 4851POPC   GL163133   8.089  32.873   5.638
 4851POPC   GL263134   8.037  33.172   5.894
 4851POPC   C1A63135   8.086  32.731   6.138
 4851POPC   D2A63136   8.333  32.708   6.557
 4851POPC   C3A63137   8.215  32.837   6.986
 4851POPC   C4A63138   7.949  33.147   7.174
 4851POPC   C1B63139   8.246  33.196   6.329
 4851POPC   C2B63140   8.493  33.318   6.718
 4851POPC   C3B63141   8.588  33.323   7.181
 4851POPC   C4B63142   8.589  33.475   7.640
 4852POPC   NC363143   8.823  11.551   5.445
 4852POPC   PO463144   9.045  10.898   5.562
 4852POPC   GL163145   8.821  11.202   5.805
 4852POPC   GL263146   9.061  11.476   5.894
 4852POPC   C1A63147   8.650  11.379   6.172
 4852POPC   D2A63148   8.715  11.156   6.568
 4852POPC   C3A63149   8.810  11.278   6.990
 4852POPC   C4A63150   8.873  11.013   7.362
 4852POPC   C1B63151   9.132  11.241   6.248
 4852POPC   C2B63152   9.242  11.299   6.671
 4852POPC   C3B63153   9.284  11.093   7.054
 4852POPC   C4B63154   9.223  11.367   7.406
 4853POPC   NC363155  28.691  41.853   5.483
 4853POPC   PO463156  28.228  41.316   5.384
 4853POPC   GL163157  28.304  41.527   5.765
 4853POPC   GL263158  28.668  41.498   5.846
 4853POPC   C1A63159  28.196  41.647   6.189
 4853POPC   D2A63160  28.372  41.678   6.630
 4853POPC   C3A63161  28.064  41.480   6.908
 4853POPC   C4A63162  28.105  41.206   7.247
 4853POPC   C1B63163  28.722  41.744   6.207
 4853POPC   C2B63164  28.865  41.869   6.595
 4853POPC   C3B63165  28.774  41.655   6.987
 4853POPC   C4B63166  28.422  41.661   7.203
 4854POPC   NC363167  11.493   9.149   5.487
 4854POPC   PO463168  11.389   8.557   5.177
 4854POPC   GL163169  11.266   8.777   5.731
 4854POPC   GL263170  10.991   8.989   5.688
 4854POPC   C1A63171  11.455   8.827   6.207
 4854POPC   D2A63172  11.399   9.027   6.654
 4854POPC   C3A63173  11.567   8.963   7.128
 4854POPC   C4A63174  11.680   9.143   7.585
 4854POPC   C1B63175  10.957   8.906   6.141
 4854POPC   C2B63176  11.015   8.642   6.530
 4854POPC   C3B63177  11.102   8.769   6.963
 4854POPC   C4B63178  11.086   9.206   7.049
 4855POPC   NC363179   0.834  37.555   5.427
 4855POPC   PO463180   0.397  38.069   5.224
 4855POPC   GL163181   0.391  37.875   5.674
 4855POPC   GL263182   0.130  37.598   5.700
 4855POPC   C1A63183   0.472  37.650   6.090
 4855POPC   D2A63184   0.740  37.636   6.462
 4855POPC   C3A63185   0.672  37.408   6.835
 4855POPC   C4A63186   0.637  37.651   7.175
 4855POPC   C1B63187  44.988  37.464   6.109
 4855POPC   C2B63188   0.018  37.673   6.525
 4855POPC   C3B63189   0.226  37.765   6.920
 4855POPC   C4B63190   0.190  37.737   7.411
 4856POPC   NC363191  36.522  36.368   5.502
 4856POPC   PO463192  37.112  36.661   5.392
 4856POPC   GL163193  37.006  36.336   5.715
 4856POPC   GL263194  37.021  35.949   5.779
 4856POPC   C1A63195  36.827  36.312   6.113
 4856POPC   D2A63196  36.866  36.140   6.507
 4856POPC   C3A63197  36.949  36.362   6.839
 4856POPC   C4A63198  37.118  36.234   7.201
 4856POPC   C1B63199  36.711  35.813   6.113
 4856POPC   C2B63200  36.436  35.880   6.484
 4856POPC   C3B63201  36.508  36.079   6.909
 4856POPC   C4B63202  36.687  35.974   7.337
 4857POPC   NC363203  11.390  30.036   5.266
 4857POPC   PO463204  10.768  29.900   5.452
 4857POPC   GL163205  11.155  29.753   5.653
 4857POPC   GL263206  11.392  30.007   5.777
 4857POPC   C1A63207  11.157  29.614   6.078
 4857POPC   D2A63208  11.311  29.687   6.464
 4857POPC   C3A63209  11.101  29.606   6.829
 4857POPC   C4A63210  10.911  29.920   7.014
 4857POPC   C1B63211  11.319  30.123   6.205
 4857POPC   C2B63212  11.458  30.166   6.640
 4857POPC   C3B63213  11.403  30.087   7.060
 4857POPC   C4B63214  11.565  30.254   7.477
 4858POPC   NC363215  41.942   3.630   5.304
 4858POPC   PO463216  41.387   3.305   5.360
 4858POPC   GL163217  41.607   3.447   5.691
 4858POPC   GL263218  41.546   3.784   5.765
 4858POPC   C1A63219  41.600   3.436   6.148
 4858POPC   D2A63220  41.815   3.648   6.504
 4858POPC   C3A63221  41.637   3.497   6.894
 4858POPC   C4A63222  41.704   3.233   7.247
 4858POPC   C1B63223  41.409   3.922   6.179
 4858POPC   C2B63224  41.319   3.815   6.597
 4858POPC   C3B63225  41.141   3.647   6.962
 4858POPC   C4B63226  41.393   3.695   7.320
 4859POPC   NC363227  38.273  36.554   5.584
 4859POPC   PO463228  38.730  37.082   5.331
 4859POPC   GL163229  38.506  37.166   5.768
 4859POPC   GL263230  38.154  37.034   5.806
 4859POPC   C1A63231  38.358  37.159   6.235
 4859POPC   D2A63232  38.353  36.919   6.638
 4859POPC   C3A63233  38.541  37.026   7.037
 4859POPC   C4A63234  38.877  36.727   7.181
 4859POPC   C1B63235  38.086  36.725   6.206
 4859POPC   C2B63236  37.906  36.670   6.663
 4859POPC   C3B63237  38.086  36.786   7.083
 4859POPC   C4B63238  37.868  36.844   7.481
 4860POPC   NC363239  18.613  40.791   5.460
 4860POPC   PO463240  17.994  41.121   5.400
 4860POPC   GL163241  18.178  40.894   5.723
 4860POPC   GL263242  17.981  41.005   5.982
 4860POPC   C1A63243  18.334  40.620   6.059
 4860POPC   D2A63244  18.354  40.498   6.482
 4860POPC   C3A63245  18.334  40.764   6.852
 4860POPC   C4A63246  18.313  40.588   7.292
 4860POPC   C1B63247  18.181  41.021   6.395
 4860POPC   C2B63248  17.968  41.153   6.797
 4860POPC   C3B63249  18.007  41.157   7.249
 4860POPC   C4B63250  18.212  41.064   7.667
 4861POPC   NC363251  32.512  16.312   5.394
 4861POPC   PO463252  31.965  15.868   5.387
 4861POPC   GL163253  32.261  15.896   5.718
 4861POPC   GL263254  32.328  16.192   5.845
 4861POPC   C1A63255  32.245  15.855   6.203
 4861POPC   D2A63256  32.420  16.019   6.591
 4861POPC   C3A63257  32.260  15.984   7.001
 4861POPC   C4A63258  32.307  15.835   7.409
 4861POPC   C1B63259  32.617  16.251   6.182
 4861POPC   C2B63260  32.839  16.266   6.600
 4861POPC   C3B63261  32.626  16.354   7.002
 4861POPC   C4B63262  32.505  16.290   7.443
 4862POPC   NC363263   3.359  22.231   5.276
 4862POPC   PO463264   2.720  21.997   5.418
 4862POPC   GL163265   2.817  21.893   5.856
 4862POPC   GL263266   2.610  21.617   5.819
 4862POPC   C1A63267   2.871  22.003   6.313
 4862POPC   D2A63268   2.601  22.111   6.679
 4862POPC   C3A63269   2.715  22.273   7.105
 4862POPC   C4A63270   2.754  22.403   7.538
 4862POPC   C1B63271   2.822  21.493   6.218
 4862POPC   C2B63272   2.790  21.598   6.671
 4862POPC   C3B63273   2.628  21.772   7.070
 4862POPC   C4B63274   2.946  21.920   7.409
 4863POPC   NC363275  13.976  36.530   5.444
 4863POPC   PO463276  13.443  36.928   5.319
 4863POPC   GL163277  13.550  37.047   5.734
 4863POPC   GL263278  13.372  37.362   5.679
 4863POPC   C1A63279  13.758  36.942   6.138
 4863POPC   D2A63280  13.630  36.836   6.591
 4863POPC   C3A63281  13.843  36.981   6.923
 4863POPC   C4A63282  13.902  36.769   7.287
 4863POPC   C1B63283  13.432  37.340   6.134
 4863POPC   C2B63284  13.573  37.350   6.555
 4863POPC   C3B63285  13.377  37.184   6.922
 4863POPC   C4B63286  13.416  36.980   7.311
 4864POPC   NC363287  43.697  35.510   5.261
 4864POPC   PO463288  44.219  35.794   5.341
 4864POPC   GL163289  44.005  35.519   5.700
 4864POPC   GL263290  43.734  35.225   5.689
 4864POPC   C1A63291  44.046  35.401   6.167
 4864POPC   D2A63292  44.199  35.505   6.615
 4864POPC   C3A63293  43.925  35.517   6.988
 4864POPC   C4A63294  43.852  35.857   7.255
 4864POPC   C1B63295  43.550  35.231   6.119
 4864POPC   C2B63296  43.681  35.333   6.557
 4864POPC   C3B63297  43.589  35.104   6.944
 4864POPC   C4B63298  43.680  35.044   7.370
 4865POPC   NC363299  28.920   8.990   4.955
 4865POPC   PO463300  29.183   8.708   5.510
 4865POPC   GL163301  29.316   8.803   5.900
 4865POPC   GL263302  29.286   9.177   5.903
 4865POPC   C1A63303  29.190   8.916   6.312
 4865POPC   D2A63304  29.193   9.254   6.566
 4865POPC   C3A63305  29.276   8.997   6.886
 4865POPC   C4A63306  29.165   8.821   7.246
 4865POPC   C1B63307  29.621   9.134   6.188
 4865POPC   C2B63308  29.727   9.331   6.559
 4865POPC   C3B63309  29.529   9.425   6.963
 4865POPC   C4B63310  29.237   9.330   7.262
 4866POPC   NC363311   4.465  35.347   5.451
 4866POPC   PO463312   3.882  35.659   5.519
 4866POPC   GL163313   4.146  35.504   5.884
 4866POPC   GL263314   4.477  35.338   5.963
 4866POPC   C1A63315   4.251  35.602   6.333
 4866POPC   D2A63316   4.223  35.679   6.788
 4866POPC   C3A63317   4.280  35.401   7.140
 4866POPC   C4A63318   4.621  35.379   7.408
 4866POPC   C1B63319   4.465  34.981   6.258
 4866POPC   C2B63320   4.554  34.797   6.659
 4866POPC   C3B63321   4.348  34.856   7.049
 4866POPC   C4B63322   4.388  34.904   7.472
 4867POPC   NC363323  29.143   3.958   5.394
 4867POPC   PO463324  29.452   3.407   5.423
 4867POPC   GL163325  29.422   3.399   5.870
 4867POPC   GL263326  29.218   3.669   5.851
 4867POPC   C1A63327  29.368   3.457   6.321
 4867POPC   D2A63328  29.584   3.298   6.696
 4867POPC   C3A63329  29.383   3.341   7.088
 4867POPC   C4A63330  29.597   3.324   7.465
 4867POPC   C1B63331  28.930   3.688   6.188
 4867POPC   C2B63332  28.757   3.599   6.593
 4867POPC   C3B63333  28.740   3.804   6.945
 4867POPC   C4B63334  28.894   3.494   7.161
 4868POPC   NC363335  31.478  22.170   5.242
 4868POPC   PO463336  30.860  22.152   5.395
 4868POPC   GL163337  31.232  22.229   5.690
 4868POPC   GL263338  31.414  21.928   5.720
 4868POPC   C1A63339  31.445  22.442   6.048
 4868POPC   D2A63340  31.590  22.301   6.463
 4868POPC   C3A63341  31.541  22.507   6.838
 4868POPC   C4A63342  31.463  22.433   7.261
 4868POPC   C1B63343  31.470  21.899   6.158
 4868POPC   C2B63344  31.323  21.858   6.579
 4868POPC   C3B63345  31.398  22.019   6.958
 4868POPC   C4B63346  31.279  21.977   7.387
 4869POPC   NC363347  36.550  24.548   5.409
 4869POPC   PO463348  37.207  24.395   5.591
 4869POPC   GL163349  36.857  24.425   5.848
 4869POPC   GL263350  36.638  24.168   5.766
 4869POPC   C1A63351  36.964  24.481   6.282
 4869POPC   D2A63352  37.328  24.459   6.567
 4869POPC   C3A63353  37.278  24.567   6.998
 4869POPC   C4A63354  36.854  24.551   7.125
 4869POPC   C1B63355  36.491  24.250   6.197
 4869POPC   C2B63356  36.618  24.359   6.640
 4869POPC   C3B63357  36.519  24.144   7.016
 4869POPC   C4B63358  36.655  24.164   7.414
 4870POPC   NC363359  10.020  25.758   5.377
 4870POPC   PO463360   9.443  26.048   5.561
 4870POPC   GL163361   9.690  26.316   5.837
 4870POPC   GL263362   9.970  26.114   5.813
 4870POPC   C1A63363   9.966  26.399   6.239
 4870POPC   D2A63364   9.879  26.306   6.715
 4870POPC   C3A63365  10.058  26.554   7.091
 4870POPC   C4A63366   9.951  26.509   7.552
 4870POPC   C1B63367   9.699  25.973   6.224
 4870POPC   C2B63368   9.529  25.904   6.657
 4870POPC   C3B63369   9.541  25.922   7.137
 4870POPC   C4B63370   9.436  25.662   7.529
 4871POPC   NC363371   3.361  16.973   5.502
 4871POPC   PO463372   3.358  16.293   5.426
 4871POPC   GL163373   3.686  16.557   5.713
 4871POPC   GL263374   3.586  16.867   5.934
 4871POPC   C1A63375   3.877  16.545   6.161
 4871POPC   D2A63376   3.620  16.777   6.472
 4871POPC   C3A63377   3.779  16.735   6.890
 4871POPC   C4A63378   3.570  16.749   7.272
 4871POPC   C1B63379   3.232  16.993   6.177
 4871POPC   C2B63380   3.230  17.136   6.597
 4871POPC   C3B63381   3.264  16.804   6.881
 4871POPC   C4B63382   3.064  16.703   7.292
 4872POPC   NC363383  38.470  10.251   5.588
 4872POPC   PO463384  38.091  10.681   5.455
 4872POPC   GL163385  38.209  10.615   5.904
 4872POPC   GL263386  38.265  10.270   6.039
 4872POPC   C1A63387  38.257  10.722   6.340
 4872POPC   D2A63388  38.491  10.578   6.706
 4872POPC   C3A63389  38.518  10.757   7.111
 4872POPC   C4A63390  38.653  10.468   7.433
 4872POPC   C1B63391  38.662  10.406   6.236
 4872POPC   C2B63392  38.972  10.483   6.580
 4872POPC   C3B63393  39.005  10.567   7.041
 4872POPC   C4B63394  38.994  10.862   7.406
 4873POPC   NC363395  12.001   2.258   5.357
 4873POPC   PO463396  11.769   1.579   5.383
 4873POPC   GL163397  12.009   1.834   5.694
 4873POPC   GL263398  12.346   2.016   5.713
 4873POPC   C1A63399  11.990   2.001   6.131
 4873POPC   D2A63400  12.154   1.911   6.557
 4873POPC   C3A63401  11.889   2.039   6.929
 4873POPC   C4A63402  11.909   1.787   7.275
 4873POPC   C1B63403  12.509   2.057   6.159
 4873POPC   C2B63404  12.534   2.287   6.541
 4873POPC   C3B63405  12.371   2.197   6.950
 4873POPC   C4B63406  12.270   2.220   7.413
 4874POPC   NC363407   9.255  13.068   5.451
 4874POPC   PO463408   8.869  12.573   5.323
 4874POPC   GL163409   8.787  12.846   5.685
 4874POPC   GL263410   8.665  13.214   5.651
 4874POPC   C1A63411   8.957  12.934   6.102
 4874POPC   D2A63412   9.192  12.758   6.452
 4874POPC   C3A63413   8.968  12.726   6.841
 4874POPC   C4A63414   9.158  13.014   7.119
 4874POPC   C1B63415   8.590  13.286   6.113
 4874POPC   C2B63416   8.670  13.086   6.549
 4874POPC   C3B63417   8.643  13.171   7.014
 4874POPC   C4B63418   8.755  13.098   7.453
 4875POPC   NC363419  36.053   9.510   5.196
 4875POPC   PO463420  36.548   9.967   5.340
 4875POPC   GL163421  36.301   9.933   5.714
 4875POPC   GL263422  36.047   9.656   5.683
 4875POPC   C1A63423  36.418   9.761   6.114
 4875POPC   D2A63424  36.545   9.877   6.504
 4875POPC   C3A63425  36.316   9.905   6.859
 4875POPC   C4A63426  36.323   9.711   7.226
 4875POPC   C1B63427  35.961   9.550   6.091
 4875POPC   C2B63428  35.996   9.756   6.483
 4875POPC   C3B63429  35.842   9.657   6.900
 4875POPC   C4B63430  35.798   9.742   7.322
 4876POPC   NC363431  28.116  41.761   5.280
 4876POPC   PO463432  27.468  41.511   5.391
 4876POPC   GL163433  27.765  41.557   5.735
 4876POPC   GL263434  27.890  41.892   5.770
 4876POPC   C1A63435  27.662  41.615   6.165
 4876POPC   D2A63436  27.724  41.419   6.534
 4876POPC   C3A63437  27.540  41.582   6.900
 4876POPC   C4A63438  27.304  41.731   7.242
 4876POPC   C1B63439  27.892  42.084   6.187
 4876POPC   C2B63440  27.920  41.899   6.611
 4876POPC   C3B63441  27.852  41.928   7.072
 4876POPC   C4B63442  27.990  41.654   7.466
 4877POPC   NC363443   0.645  44.200   5.144
 4877POPC   PO463444   0.324  43.643   5.517
 4877POPC   GL163445   0.393  43.683   5.926
 4877POPC   GL263446   0.762  43.656   5.893
 4877POPC   C1A63447   0.166  43.694   6.298
 4877POPC   D2A63448   0.289  43.947   6.622
 4877POPC   C3A63449   0.151  43.871   7.026
 4877POPC   C4A63450   0.308  44.151   7.326
 4877POPC   C1B63451   0.841  43.933   6.230
 4877POPC   C2B63452   0.902  43.804   6.638
 4877POPC   C3B63453   0.664  43.953   7.003
 4877POPC   C4B63454   0.723  43.897   7.432
 4878POPC   NC363455  14.046   9.506   5.064
 4878POPC   PO463456  13.718  10.001   5.327
 4878POPC   GL163457  13.759   9.868   5.775
 4878POPC   GL263458  13.550   9.562   5.809
 4878POPC   C1A63459  13.508   9.931   6.200
 4878POPC   D2A63460  13.406  10.049   6.623
 4878POPC   C3A63461  13.560   9.803   6.960
 4878POPC   C4A63462  13.912   9.960   7.179
 4878POPC   C1B63463  13.682   9.454   6.260
 4878POPC   C2B63464  13.526   9.344   6.694
 4878POPC   C3B63465  13.611   9.348   7.163
 4878POPC   C4B63466  13.723   9.642   7.528
 4879POPC   NC363467  38.900  18.295   5.535
 4879POPC   PO463468  39.512  18.674   5.425
 4879POPC   GL163469  39.306  18.474   5.807
 4879POPC   GL263470  39.206  18.126   5.910
 4879POPC   C1A63471  39.089  18.557   6.198
 4879POPC   D2A63472  39.186  18.381   6.590
 4879POPC   C3A63473  39.246  18.609   6.953
 4879POPC   C4A63474  39.507  18.424   7.270
 4879POPC   C1B63475  38.911  18.049   6.283
 4879POPC   C2B63476  38.759  18.137   6.749
 4879POPC   C3B63477  39.026  18.163   7.127
 4879POPC   C4B63478  39.200  18.059   7.548
 4880POPC   NC363479  20.083  44.465   5.335
 4880POPC   PO463480  19.482  44.690   5.404
 4880POPC   GL163481  19.764  44.570   5.735
 4880POPC   GL263482  19.895  44.889   5.825
 4880POPC   C1A63483  19.845  44.484   6.162
 4880POPC   D2A63484  19.949  44.676   6.558
 4880POPC   C3A63485  19.907  44.450   6.957
 4880POPC   C4A63486  20.043  44.528   7.392
 4880POPC   C1B63487  19.555  44.922   6.150
 4880POPC   C2B63488  19.441  44.777   6.571
 4880POPC   C3B63489  19.541  44.852   7.020
 4880POPC   C4B63490  19.538  44.497   7.307
 4881POPC   NC363491  24.631  35.776   5.440
 4881POPC   PO463492  24.390  36.377   5.576
 4881POPC   GL163493  24.619  36.145   5.829
 4881POPC   GL263494  24.362  35.902   5.847
 4881POPC   C1A63495  24.749  36.266   6.211
 4881POPC   D2A63496  24.519  36.332   6.596
 4881POPC   C3A63497  24.614  36.286   7.043
 4881POPC   C4A63498  24.731  36.008   7.412
 4881POPC   C1B63499  24.308  35.916   6.248
 4881POPC   C2B63500  24.257  35.711   6.610
 4881POPC   C3B63501  24.227  35.908   6.954
 4881POPC   C4B63502  24.231  35.983   7.354
 4882POPC   NC363503  34.012  22.688   5.342
 4882POPC   PO463504  33.564  23.278   5.423
 4882POPC   GL163505  33.847  23.123   5.830
 4882POPC   GL263506  33.893  22.721   5.874
 4882POPC   C1A63507  33.829  22.992   6.292
 4882POPC   D2A63508  33.828  22.758   6.688
 4882POPC   C3A63509  33.695  23.050   7.018
 4882POPC   C4A63510  33.484  23.220   7.374
 4882POPC   C1B63511  33.581  22.539   6.199
 4882POPC   C2B63512  33.355  22.576   6.608
 4882POPC   C3B63513  33.514  22.559   7.050
 4882POPC   C4B63514  33.436  22.726   7.472
 4883POPC   NC363515  11.076  42.405   5.385
 4883POPC   PO463516  11.711  42.299   5.375
 4883POPC   GL163517  11.487  42.463   5.721
 4883POPC   GL263518  11.279  42.179   5.795
 4883POPC   C1A63519  11.453  42.486   6.197
 4883POPC   D2A63520  11.677  42.266   6.562
 4883POPC   C3A63521  11.503  42.348   6.966
 4883POPC   C4A63522  11.385  42.449   7.374
 4883POPC   C1B63523  11.034  42.183   6.180
 4883POPC   C2B63524  11.127  42.317   6.608
 4883POPC   C3B63525  11.055  42.098   7.002
 4883POPC   C4B63526  10.884  41.933   7.395
 4884POPC   NC363527   8.070   3.654   5.110
 4884POPC   PO463528   8.477   3.307   5.421
 4884POPC   GL163529   8.352   3.367   5.830
 4884POPC   GL263530   8.217   3.683   5.729
 4884POPC   C1A63531   8.186   3.239   6.248
 4884POPC   D2A63532   8.162   3.486   6.630
 4884POPC   C3A63533   8.014   3.431   7.055
 4884POPC   C4A63534   8.281   3.570   7.390
 4884POPC   C1B63535   8.100   3.764   6.165
 4884POPC   C2B63536   8.147   4.023   6.547
 4884POPC   C3B63537   8.208   3.910   6.967
 4884POPC   C4B63538   7.857   3.895   7.240
 4885POPC   NC363539  29.015   7.533   5.547
 4885POPC   PO463540  28.464   7.703   5.222
 4885POPC   GL163541  28.429   7.542   5.689
 4885POPC   GL263542  28.163   7.267   5.778
 4885POPC   C1A63543  28.509   7.424   6.155
 4885POPC   D2A63544  28.578   7.253   6.590
 4885POPC   C3A63545  28.537   7.603   6.927
 4885POPC   C4A63546  28.799   7.845   7.242
 4885POPC   C1B63547  28.259   6.974   6.165
 4885POPC   C2B63548  28.132   6.977   6.628
 4885POPC   C3B63549  28.272   7.150   7.025
 4885POPC   C4B63550  28.189   7.304   7.432
 4886POPC   NC363551  22.591  32.175   5.357
 4886POPC   PO463552  23.254  32.304   5.203
 4886POPC   GL163553  23.053  32.165   5.604
 4886POPC   GL263554  22.833  32.434   5.718
 4886POPC   C1A63555  23.033  32.091   6.063
 4886POPC   D2A63556  22.767  32.088   6.435
 4886POPC   C3A63557  22.982  32.238   6.804
 4886POPC   C4A63558  22.954  32.298   7.234
 4886POPC   C1B63559  22.788  32.536   6.146
 4886POPC   C2B63560  22.720  32.620   6.584
 4886POPC   C3B63561  22.898  32.773   6.974
 4886POPC   C4B63562  22.728  32.743   7.382
 4887POPC   NC363563  20.618  18.571   5.496
 4887POPC   PO463564  20.341  17.916   5.442
 4887POPC   GL163565  20.434  18.177   5.764
 4887POPC   GL263566  20.783  18.199   5.806
 4887POPC   C1A63567  20.377  18.461   6.118
 4887POPC   D2A63568  20.597  18.497   6.500
 4887POPC   C3A63569  20.548  18.441   6.949
 4887POPC   C4A63570  20.916  18.350   7.182
 4887POPC   C1B63571  20.628  18.016   6.207
 4887POPC   C2B63572  20.764  17.929   6.593
 4887POPC   C3B63573  20.674  17.932   7.010
 4887POPC   C4B63574  20.915  17.847   7.377
 4888POPC   NC363575  44.428  28.058   5.494
 4888POPC   PO463576  44.906  27.645   5.239
 4888POPC   GL163577  44.892  27.772   5.729
 4888POPC   GL263578  44.747  28.050   5.868
 4888POPC   C1A63579  44.746  27.662   6.217
 4888POPC   D2A63580  44.681  27.319   6.606
 4888POPC   C3A63581  44.813  27.299   7.090
 4888POPC   C4A63582  44.763  27.367   7.580
 4888POPC   C1B63583  44.364  28.091   6.157
 4888POPC   C2B63584  44.292  28.032   6.590
 4888POPC   C3B63585  44.496  27.732   6.855
 4888POPC   C4B63586  44.470  27.648   7.266
 4889POPC   NC363587   4.796   7.762   5.657
 4889POPC   PO463588   4.480   8.342   5.402
 4889POPC   GL163589   4.392   8.158   5.744
 4889POPC   GL263590   4.262   7.837   5.649
 4889POPC   C1A63591   4.387   8.365   6.149
 4889POPC   D2A63592   4.197   8.256   6.531
 4889POPC   C3A63593   4.318   8.456   6.889
 4889POPC   C4A63594   4.413   8.149   7.183
 4889POPC   C1B63595   4.159   7.911   6.104
 4889POPC   C2B63596   4.010   7.772   6.493
 4889POPC   C3B63597   4.020   7.903   6.918
 4889POPC   C4B63598   4.119   7.749   7.334
 4890POPC   NC363599  29.897  37.162   5.448
 4890POPC   PO463600  30.038  36.520   5.445
 4890POPC   GL163601  30.041  36.689   5.826
 4890POPC   GL263602  29.732  36.847   5.928
 4890POPC   C1A63603  30.048  36.530   6.234
 4890POPC   D2A63604  29.774  36.574   6.603
 4890POPC   C3A63605  29.942  36.654   7.038
 4890POPC   C4A63606  29.656  36.790   7.379
 4890POPC   C1B63607  30.009  37.143   6.144
 4890POPC   C2B63608  30.025  37.396   6.528
 4890POPC   C3B63609  30.069  37.235   6.951
 4890POPC   C4B63610  29.905  37.219   7.366
 4891POPC   NC363611   4.431  12.567   5.065
 4891POPC   PO463612   4.290  13.195   5.360
 4891POPC   GL163613   4.251  13.087   5.784
 4891POPC   GL263614   4.417  12.779   5.809
 4891POPC   C1A63615   4.109  12.972   6.215
 4891POPC   D2A63616   4.404  13.022   6.551
 4891POPC   C3A63617   4.382  12.871   6.944
 4891POPC   C4A63618   4.305  13.093   7.314
 4891POPC   C1B63619   4.372  12.535   6.179
 4891POPC   C2B63620   4.204  12.531   6.570
 4891POPC   C3B63621   3.981  12.462   6.949
 4891POPC   C4B63622   4.130  12.617   7.328
 4892POPC   NC363623  42.648  39.134   5.010
 4892POPC   PO463624  42.168  39.458   5.333
 4892POPC   GL163625  42.296  39.478   5.746
 4892POPC   GL263626  42.580  39.336   5.794
 4892POPC   C1A63627  42.235  39.361   6.193
 4892POPC   D2A63628  42.419  39.275   6.601
 4892POPC   C3A63629  42.168  39.174   6.960
 4892POPC   C4A63630  42.076  39.304   7.346
 4892POPC   C1B63631  42.690  39.079   6.134
 4892POPC   C2B63632  42.597  38.822   6.448
 4892POPC   C3B63633  42.651  38.859   6.878
 4892POPC   C4B63634  42.544  38.997   7.276
 4893POPC   NC363635  22.572  17.768   5.471
 4893POPC   PO463636  23.097  17.441   5.250
 4893POPC   GL163637  22.995  17.421   5.686
 4893POPC   GL263638  23.287  17.276   5.881
 4893POPC   C1A63639  22.907  17.579   6.117
 4893POPC   D2A63640  23.182  17.760   6.502
 4893POPC   C3A63641  23.068  17.721   6.957
 4893POPC   C4A63642  23.255  17.639   7.370
 4893POPC   C1B63643  23.169  17.248   6.369
 4893POPC   C2B63644  22.815  17.389   6.636
 4893POPC   C3B63645  22.827  17.250   7.065
 4893POPC   C4B63646  23.142  17.148   7.395
 4894POPC   NC363647  42.842   6.717   5.559
 4894POPC   PO463648  43.231   6.212   5.279
 4894POPC   GL163649  43.258   6.419   5.704
 4894POPC   GL263650  43.332   6.794   5.750
 4894POPC   C1A63651  43.232   6.486   6.165
 4894POPC   D2A63652  43.432   6.281   6.539
 4894POPC   C3A63653  43.241   6.221   6.962
 4894POPC   C4A63654  43.236   6.471   7.371
 4894POPC   C1B63655  43.067   6.992   6.116
 4894POPC   C2B63656  42.923   6.847   6.530
 4894POPC   C3B63657  43.125   6.736   6.920
 4894POPC   C4B63658  42.906   6.861   7.284
 4895POPC   NC363659  34.961  26.752   5.448
 4895POPC   PO463660  35.480  27.016   5.284
 4895POPC   GL163661  35.426  26.842   5.714
 4895POPC   GL263662  35.148  26.968   5.904
 4895POPC   C1A63663  35.495  26.664   6.126
 4895POPC   D2A63664  35.288  26.810   6.512
 4895POPC   C3A63665  35.230  26.619   6.910
 4895POPC   C4A63666  34.994  26.437   7.206
 4895POPC   C1B63667  35.466  27.173   6.184
 4895POPC   C2B63668  35.660  27.164   6.612
 4895POPC   C3B63669  35.398  27.085   6.965
 4895POPC   C4B63670  35.361  27.218   7.383
 4896POPC   NC363671  44.097  28.907   5.609
 4896POPC   PO463672  44.637  29.265   5.244
 4896POPC   GL163673  44.612  29.147   5.674
 4896POPC   GL263674  44.867  28.911   5.785
 4896POPC   C1A63675  44.656  29.286   6.117
 4896POPC   D2A63676  44.630  29.147   6.571
 4896POPC   C3A63677  44.850  29.338   6.930
 4896POPC   C4A63678  44.717  29.292   7.371
 4896POPC   C1B63679  44.873  28.821   6.253
 4896POPC   C2B63680  44.781  28.648   6.687
 4896POPC   C3B63681  44.675  28.859   7.066
 4896POPC   C4B63682  44.717  28.809   7.537
 4897POPC   NC363683  42.257  19.611   5.390
 4897POPC   PO463684  42.677  20.069   5.387
 4897POPC   GL163685  42.367  20.070   5.738
 4897POPC   GL263686  42.331  19.718   5.904
 4897POPC   C1A63687  42.324  20.149   6.196
 4897POPC   D2A63688  42.270  19.854   6.556
 4897POPC   C3A63689  42.021  19.929   6.929
 4897POPC   C4A63690  42.031  19.794   7.371
 4897POPC   C1B63691  42.588  19.505   6.259
 4897POPC   C2B63692  42.667  19.552   6.704
 4897POPC   C3B63693  42.370  19.556   7.053
 4897POPC   C4B63694  42.391  19.402   7.482
 4898POPC   NC363695  10.461  31.545   5.362
 4898POPC   PO463696  10.005  31.209   5.603
 4898POPC   GL163697  10.312  31.355   5.840
 4898POPC   GL263698  10.263  31.704   5.813
 4898POPC   C1A63699  10.389  31.219   6.251
 4898POPC   D2A63700  10.547  31.438   6.607
 4898POPC   C3A63701  10.346  31.326   6.955
 4898POPC   C4A63702  10.642  31.120   7.131
 4898POPC   C1B63703  10.464  31.740   6.198
 4898POPC   C2B63704  10.458  31.958   6.611
 4898POPC   C3B63705  10.468  31.804   7.080
 4898POPC   C4B63706  10.228  31.619   7.444
 4899POPC   NC363707  41.515  34.906   5.353
 4899POPC   PO463708  41.463  34.252   5.500
 4899POPC   GL163709  41.658  34.429   5.842
 4899POPC   GL263710  41.718  34.770   5.814
 4899POPC   C1A63711  41.508  34.350   6.254
 4899POPC   D2A63712  41.451  34.599   6.621
 4899POPC   C3A63713  41.624  34.509   7.036
 4899POPC   C4A63714  41.988  34.543   7.325
 4899POPC   C1B63715  41.410  34.862   6.151
 4899POPC   C2B63716  41.375  35.102   6.542
 4899POPC   C3B63717  41.299  34.935   6.978
 4899POPC   C4B63718  41.572  34.909   7.348
 4900POPC   NC363719  19.666  27.288   5.475
 4900POPC   PO463720  20.264  27.752   5.425
 4900POPC   GL163721  20.015  27.701   5.827
 4900POPC   GL263722  19.638  27.591   5.909
 4900POPC   C1A63723  20.033  27.504   6.244
 4900POPC   D2A63724  19.849  27.398   6.635
 4900POPC   C3A63725  20.008  27.508   7.034
 4900POPC   C4A63726  19.899  27.233   7.341
 4900POPC   C1B63727  19.352  27.884   6.153
 4900POPC   C2B63728  19.436  27.992   6.586
 4900POPC   C3B63729  19.556  27.773   6.970
 4900POPC   C4B63730  19.362  27.711   7.375
 4901POPC   NC363731  18.521  25.842   5.471
 4901POPC   PO463732  17.867  26.178   5.361
 4901POPC   GL163733  18.135  26.075   5.747
 4901POPC   GL263734  18.458  26.231   5.795
 4901POPC   C1A63735  18.132  26.021   6.191
 4901POPC   D2A63736  18.273  25.865   6.588
 4901POPC   C3A63737  18.282  26.180   6.912
 4901POPC   C4A63738  18.075  26.239   7.314
 4901POPC   C1B63739  18.656  26.053   6.173
 4901POPC   C2B63740  18.751  26.128   6.601
 4901POPC   C3B63741  18.690  25.815   6.886
 4901POPC   C4B63742  18.345  25.677   7.123
 4902POPC   NC363743  31.500  44.032   4.988
 4902POPC   PO463744  31.084  43.679   5.413
 4902POPC   GL163745  31.058  43.771   5.846
 4902POPC   GL263746  31.368  43.902   5.944
 4902POPC   C1A63747  31.007  43.901   6.291
 4902POPC   D2A63748  31.163  44.202   6.581
 4902POPC   C3A63749  31.336  43.928   6.850
 4902POPC   C4A63750  31.149  43.734   7.208
 4902POPC   C1B63751  31.544  43.894   6.369
 4902POPC   C2B63752  31.915  43.922   6.628
 4902POPC   C3B63753  31.972  44.048   7.050
 4902POPC   C4B63754  31.591  44.027   7.267
 4903POPC   NC363755  39.859   9.478   5.344
 4903POPC   PO463756  40.458   9.791   5.179
 4903POPC   GL163757  40.268   9.652   5.629
 4903POPC   GL263758  39.919   9.700   5.789
 4903POPC   C1A63759  40.231   9.522   6.117
 4903POPC   D2A63760  40.245   9.688   6.568
 4903POPC   C3A63761  39.929   9.618   6.923
 4903POPC   C4A63762  39.709   9.975   7.130
 4903POPC   C1B63763  39.918   9.918   6.208
 4903POPC   C2B63764  39.944  10.092   6.641
 4903POPC   C3B63765  40.208  10.044   7.017
 4903POPC   C4B63766  40.128  10.197   7.416
 4904POPC   NC363767   9.252  15.581   5.136
 4904POPC   PO463768   8.814  16.096   5.187
 4904POPC   GL163769   9.029  16.001   5.604
 4904POPC   GL263770   8.775  16.097   5.846
 4904POPC   C1A63771   9.229  15.902   6.054
 4904POPC   D2A63772   9.038  15.863   6.498
 4904POPC   C3A63773   9.263  15.758   6.889
 4904POPC   C4A63774   9.163  15.918   7.283
 4904POPC   C1B63775   8.616  15.861   6.209
 4904POPC   C2B63776   8.556  15.652   6.617
 4904POPC   C3B63777   8.735  15.805   7.008
 4904POPC   C4B63778   8.704  16.199   7.266
 4905POPC   NC363779  43.010  11.901   5.365
 4905POPC   PO463780  43.641  11.740   5.549
 4905POPC   GL163781  43.408  11.630   5.899
 4905POPC   GL263782  43.118  11.837   5.886
 4905POPC   C1A63783  43.332  11.644   6.348
 4905POPC   D2A63784  43.243  11.902   6.694
 4905POPC   C3A63785  43.290  11.864   7.118
 4905POPC   C4A63786  42.948  11.954   7.397
 4905POPC   C1B63787  42.938  12.026   6.292
 4905POPC   C2B63788  42.925  12.316   6.696
 4905POPC   C3B63789  43.099  12.377   7.134
 4905POPC   C4B63790  43.266  12.659   7.471
 4906POPC   NC363791  17.986  29.415   5.279
 4906POPC   PO463792  18.147  28.719   5.170
 4906POPC   GL163793  18.172  29.015   5.631
 4906POPC   GL263794  18.461  29.212   5.727
 4906POPC   C1A63795  18.222  29.037   6.159
 4906POPC   D2A63796  18.319  28.950   6.637
 4906POPC   C3A63797  18.039  29.007   7.021
 4906POPC   C4A63798  18.047  28.937   7.477
 4906POPC   C1B63799  18.571  29.435   6.136
 4906POPC   C2B63800  18.625  29.370   6.576
 4906POPC   C3B63801  18.597  29.207   6.990
 4906POPC   C4B63802  18.331  29.358   7.311
 4907POPC   NC363803  24.566  33.428   5.395
 4907POPC   PO463804  24.530  34.021   5.151
 4907POPC   GL163805  24.498  33.984   5.652
 4907POPC   GL263806  24.186  34.107   5.813
 4907POPC   C1A63807  24.421  33.729   6.081
 4907POPC   D2A63808  24.284  33.421   6.448
 4907POPC   C3A63809  24.509  33.496   6.852
 4907POPC   C4A63810  24.651  33.826   7.085
 4907POPC   C1B63811  24.309  34.248   6.209
 4907POPC   C2B63812  24.572  34.062   6.514
 4907POPC   C3B63813  24.251  33.933   6.768
 4907POPC   C4B63814  24.148  33.886   7.183
 4908POPC   NC363815  34.963  33.502   5.556
 4908POPC   PO463816  34.504  34.040   5.566
 4908POPC   GL163817  34.653  33.775   5.862
 4908POPC   GL263818  34.972  33.889   5.921
 4908POPC   C1A63819  34.734  33.566   6.258
 4908POPC   D2A63820  34.563  33.565   6.690
 4908POPC   C3A63821  34.725  33.750   7.099
 4908POPC   C4A63822  34.454  34.034   7.342
 4908POPC   C1B63823  34.686  34.062   6.313
 4908POPC   C2B63824  34.594  34.136   6.781
 4908POPC   C3B63825  34.790  34.347   7.161
 4908POPC   C4B63826  34.800  34.307   7.653
 4909POPC   NC363827   6.302  32.345   5.408
 4909POPC   PO463828   6.941  32.583   5.402
 4909POPC   GL163829   6.806  32.341   5.773
 4909POPC   GL263830   6.480  32.198   5.854
 4909POPC   C1A63831   6.822  32.313   6.214
 4909POPC   D2A63832   6.660  32.375   6.632
 4909POPC   C3A63833   6.944  32.292   6.952
 4909POPC   C4A63834   6.946  32.206   7.381
 4909POPC   C1B63835   6.298  32.267   6.270
 4909POPC   C2B63836   6.209  31.926   6.587
 4909POPC   C3B63837   6.265  31.956   7.019
 4909POPC   C4B63838   6.478  32.257   7.233
 4910POPC   NC363839   8.638   0.415   5.228
 4910POPC   PO463840   9.253   0.367   5.192
 4910POPC   GL163841   9.036   0.292   5.605
 4910POPC   GL263842   9.321   0.347   5.807
 4910POPC   C1A63843   8.930   0.289   6.091
 4910POPC   D2A63844   8.750   0.545   6.430
 4910POPC   C3A63845   8.799   0.491   6.881
 4910POPC   C4A63846   8.942   0.173   7.136
 4910POPC   C1B63847   9.278   0.670   6.148
 4910POPC   C2B63848   9.246   0.604   6.567
 4910POPC   C3B63849   9.326   0.409   6.930
 4910POPC   C4B63850   9.217   0.561   7.298
 4911POPC   NC363851  13.455   4.082   5.259
 4911POPC   PO463852  13.857   4.588   5.441
 4911POPC   GL163853  13.522   4.332   5.705
 4911POPC   GL263854  13.409   3.956   5.751
 4911POPC   C1A63855  13.362   4.343   6.138
 4911POPC   D2A63856  13.568   4.478   6.498
 4911POPC   C3A63857  13.502   4.335   6.913
 4911POPC   C4A63858  13.799   4.535   7.213
 4911POPC   C1B63859  13.654   3.917   6.137
 4911POPC   C2B63860  13.549   3.944   6.560
 4911POPC   C3B63861  13.814   3.932   6.916
 4911POPC   C4B63862  13.684   4.060   7.330
 4912POPC   NC363863  24.778  20.047   5.467
 4912POPC   PO463864  24.504  19.447   5.587
 4912POPC   GL163865  24.696  19.669   5.830
 4912POPC   GL263866  24.455  19.942   5.826
 4912POPC   C1A63867  24.605  19.681   6.248
 4912POPC   D2A63868  24.382  19.795   6.596
 4912POPC   C3A63869  24.670  19.849   6.918
 4912POPC   C4A63870  24.803  20.179   7.141
 4912POPC   C1B63871  24.320  20.138   6.195
 4912POPC   C2B63872  24.289  20.364   6.578
 4912POPC   C3B63873  24.250  20.145   6.928
 4912POPC   C4B63874  24.281  19.882   7.248
 4913POPC   NC363875  11.973  24.743   5.239
 4913POPC   PO463876  11.999  25.413   5.385
 4913POPC   GL163877  11.969  25.385   5.911
 4913POPC   GL263878  12.173  25.069   6.087
 4913POPC   C1A63879  11.977  25.403   6.387
 4913POPC   D2A63880  12.159  25.127   6.690
 4913POPC   C3A63881  12.138  25.348   7.072
 4913POPC   C4A63882  12.243  25.170   7.471
 4913POPC   C1B63883  11.817  24.915   6.345
 4913POPC   C2B63884  11.639  25.020   6.733
 4913POPC   C3B63885  11.850  24.915   7.153
 4913POPC   C4B63886  11.818  24.907   7.633
 4914POPC   NC363887   5.008  31.360   5.374
 4914POPC   PO463888   5.371  30.864   5.542
 4914POPC   GL163889   5.203  31.211   5.843
 4914POPC   GL263890   5.235  31.574   5.801
 4914POPC   C1A63891   5.203  31.344   6.290
 4914POPC   D2A63892   5.180  31.554   6.698
 4914POPC   C3A63893   5.050  31.423   7.122
 4914POPC   C4A63894   5.046  31.168   7.512
 4914POPC   C1B63895   5.358  31.844   6.179
 4914POPC   C2B63896   5.417  31.982   6.641
 4914POPC   C3B63897   5.247  31.897   7.091
 4914POPC   C4B63898   5.059  32.067   7.487
 4915POPC   NC363899   5.730  32.739   5.453
 4915POPC   PO463900   5.549  33.351   5.384
 4915POPC   GL163901   5.745  33.199   5.758
 4915POPC   GL263902   6.083  33.238   5.676
 4915POPC   C1A63903   5.701  33.132   6.234
 4915POPC   D2A63904   5.776  32.892   6.661
 4915POPC   C3A63905   5.590  33.021   7.083
 4915POPC   C4A63906   5.588  32.970   7.558
 4915POPC   C1B63907   6.141  33.388   6.124
 4915POPC   C2B63908   6.038  33.327   6.571
 4915POPC   C3B63909   5.974  33.395   7.004
 4915POPC   C4B63910   6.042  33.053   7.319
 4916POPC   NC363911  34.574   7.075   5.478
 4916POPC   PO463912  34.302   7.610   5.322
 4916POPC   GL163913  34.600   7.502   5.733
 4916POPC   GL263914  34.376   7.296   5.903
 4916POPC   C1A63915  34.778   7.368   6.173
 4916POPC   D2A63916  34.886   7.570   6.583
 4916POPC   C3A63917  34.793   7.393   7.017
 4916POPC   C4A63918  34.726   7.103   7.348
 4916POPC   C1B63919  34.259   7.200   6.312
 4916POPC   C2B63920  34.233   6.966   6.680
 4916POPC   C3B63921  34.313   7.176   7.045
 4916POPC   C4B63922  34.313   7.552   7.267
 4917POPC   NC363923  44.057  42.754   5.487
 4917POPC   PO463924  43.593  43.189   5.481
 4917POPC   GL163925  43.707  43.048   5.834
 4917POPC   GL263926  44.044  43.146   5.829
 4917POPC   C1A63927  43.773  42.946   6.248
 4917POPC   D2A63928  43.622  42.803   6.629
 4917POPC   C3A63929  43.829  43.011   6.943
 4917POPC   C4A63930  43.723  43.185   7.335
 4917POPC   C1B63931  44.258  43.364   6.147
 4917POPC   C2B63932  44.375  43.331   6.574
 4917POPC   C3B63933  44.285  43.642   6.863
 4917POPC   C4B63934  44.047  43.627   7.240
 4918POPC   NC363935  12.102  17.774   5.149
 4918POPC   PO463936  12.124  18.417   5.341
 4918POPC   GL163937  12.135  18.256   5.751
 4918POPC   GL263938  11.870  18.018   5.671
 4918POPC   C1A63939  12.240  18.360   6.195
 4918POPC   D2A63940  12.124  18.167   6.595
 4918POPC   C3A63941  12.269  18.243   7.037
 4918POPC   C4A63942  12.483  18.614   7.180
 4918POPC   C1B63943  11.897  17.981   6.133
 4918POPC   C2B63944  11.686  17.897   6.539
 4918POPC   C3B63945  11.795  18.063   6.950
 4918POPC   C4B63946  11.848  18.279   7.323
 4919POPC   NC363947  36.985  16.910   5.326
 4919POPC   PO463948  36.479  16.466   5.331
 4919POPC   GL163949  36.589  16.665   5.778
 4919POPC   GL263950  36.709  16.995   5.790
 4919POPC   C1A63951  36.919  16.716   6.187
 4919POPC   D2A63952  37.189  16.886   6.593
 4919POPC   C3A63953  37.103  16.696   7.024
 4919POPC   C4A63954  36.743  16.469   7.194
 4919POPC   C1B63955  36.477  17.102   6.185
 4919POPC   C2B63956  36.396  17.148   6.617
 4919POPC   C3B63957  36.625  16.911   6.942
 4919POPC   C4B63958  36.801  16.970   7.361
 4920POPC   NC363959   6.307   6.449   5.509
 4920POPC   PO463960   5.814   7.038   5.460
 4920POPC   GL163961   5.961   6.740   5.834
 4920POPC   GL263962   6.066   6.377   5.933
 4920POPC   C1A63963   5.786   6.639   6.254
 4920POPC   D2A63964   5.929   6.481   6.631
 4920POPC   C3A63965   5.908   6.871   6.840
 4920POPC   C4A63966   5.746   7.139   7.135
 4920POPC   C1B63967   6.279   6.187   6.301
 4920POPC   C2B63968   6.331   6.185   6.753
 4920POPC   C3B63969   5.985   6.144   7.059
 4920POPC   C4B63970   5.744   6.491   7.136
 4921POPC   NC363971  42.164  42.150   5.474
 4921POPC   PO463972  42.746  42.659   5.535
 4921POPC   GL163973  42.562  42.312   5.796
 4921POPC   GL263974  42.789  42.025   5.781
 4921POPC   C1A63975  42.332  42.390   6.196
 4921POPC   D2A63976  42.436  42.679   6.555
 4921POPC   C3A63977  42.448  42.545   6.976
 4921POPC   C4A63978  42.119  42.452   7.252
 4921POPC   C1B63979  42.717  42.039   6.229
 4921POPC   C2B63980  42.574  41.897   6.647
 4921POPC   C3B63981  42.304  42.047   6.967
 4921POPC   C4B63982  42.126  41.942   7.358
 4922POPC   NC363983  18.876  10.883   5.624
 4922POPC   PO463984  19.200  10.470   5.112
 4922POPC   GL163985  19.074  10.322   5.605
 4922POPC   GL263986  18.744  10.266   5.643
 4922POPC   C1A63987  19.224  10.232   6.123
 4922POPC   D2A63988  19.175  10.232   6.603
 4922POPC   C3A63989  19.117  10.578   6.915
 4922POPC   C4A63990  19.382  10.878   7.132
 4922POPC   C1B63991  18.739  10.383   6.133
 4922POPC   C2B63992  18.570  10.365   6.566
 4922POPC   C3B63993  18.750  10.201   6.947
 4922POPC   C4B63994  18.826  10.242   7.403
 4923POPC   NC363995   7.694  25.268   5.431
 4923POPC   PO463996   7.140  24.993   5.571
 4923POPC   GL163997   7.490  25.165   5.889
 4923POPC   GL263998   7.583  25.533   5.890
 4923POPC   C1A63999   7.733  25.093   6.301
 4923POPC   D2A64000   7.742  25.053   6.767
 4923POPC   C3A64001   7.356  25.172   7.029
 4923POPC   C4A64002   7.015  25.163   7.374
 4923POPC   C1B64003   7.911  25.575   6.263
 4923POPC   C2B64004   7.801  25.562   6.726
 4923POPC   C3B64005   7.779  25.420   7.164
 4923POPC   C4B64006   7.436  25.456   7.459
 4924POPC   NC364007   3.009  29.247   5.473
 4924POPC   PO464008   2.469  28.952   5.307
 4924POPC   GL164009   2.736  28.930   5.802
 4924POPC   GL264010   3.082  29.076   5.943
 4924POPC   C1A64011   2.742  29.051   6.315
 4924POPC   D2A64012   2.890  29.059   6.787
 4924POPC   C3A64013   2.636  28.866   7.134
 4924POPC   C4A64014   2.419  29.049   7.522
 4924POPC   C1B64015   3.318  28.829   6.259
 4924POPC   C2B64016   3.214  28.660   6.678
 4924POPC   C3B64017   3.163  28.746   7.123
 4924POPC   C4B64018   3.315  29.135   7.340
 4925POPC   NC364019  32.469  37.865   5.356
 4925POPC   PO464020  31.797  37.545   5.296
 4925POPC   GL164021  31.941  37.794   5.624
 4925POPC   GL264022  32.200  37.620   5.796
 4925POPC   C1A64023  31.889  37.871   6.089
 4925POPC   D2A64024  32.028  37.611   6.445
 4925POPC   C3A64025  32.003  37.758   6.890
 4925POPC   C4A64026  32.262  37.820   7.233
 4925POPC   C1B64027  32.440  37.761   6.178
 4925POPC   C2B64028  32.409  37.892   6.634
 4925POPC   C3B64029  32.519  38.178   6.996
 4925POPC   C4B64030  32.663  38.059   7.424
 4926POPC   NC364031  10.760  34.107   5.059
 4926POPC   PO464032  10.521  33.618   5.451
 4926POPC   GL164033  10.388  33.734   5.838
 4926POPC   GL264034  10.193  33.993   5.860
 4926POPC   C1A64035  10.245  33.691   6.286
 4926POPC   D2A64036  10.307  33.874   6.683
 4926POPC   C3A64037  10.591  33.845   7.031
 4926POPC   C4A64038  10.549  33.556   7.394
 4926POPC   C1B64039  10.589  34.041   6.183
 4926POPC   C2B64040  10.771  34.131   6.585
 4926POPC   C3B64041  10.707  34.381   6.954
 4926POPC   C4B64042  10.518  34.235   7.353
 4927POPC   NC364043  44.074  26.556   5.530
 4927POPC   PO464044  43.535  26.918   5.425
 4927POPC   GL164045  43.726  26.830   5.796
 4927POPC   GL264046  43.509  26.543   5.820
 4927POPC   C1A64047  44.028  26.787   6.169
 4927POPC   D2A64048  44.042  26.523   6.540
 4927POPC   C3A64049  43.975  26.640   6.978
 4927POPC   C4A64050  44.083  26.827   7.376
 4927POPC   C1B64051  43.546  26.673   6.239
 4927POPC   C2B64052  43.633  26.806   6.629
 4927POPC   C3B64053  43.476  26.853   7.029
 4927POPC   C4B64054  43.588  26.669   7.367
 4928POPC   NC364055  16.222  10.718   5.425
 4928POPC   PO464056  15.760  10.323   5.220
 4928POPC   GL164057  15.676  10.523   5.671
 4928POPC   GL264058  15.978  10.567   5.849
 4928POPC   C1A64059  15.627  10.414   6.164
 4928POPC   D2A64060  15.555  10.585   6.625
 4928POPC   C3A64061  15.860  10.503   6.978
 4928POPC   C4A64062  16.183  10.157   7.114
 4928POPC   C1B64063  16.233  10.449   6.229
 4928POPC   C2B64064  16.262  10.406   6.661
 4928POPC   C3B64065  16.360  10.661   7.015
 4928POPC   C4B64066  16.296  10.888   7.412
 4929POPC   NC364067  36.584  14.498   5.405
 4929POPC   PO464068  37.160  14.754   5.409
 4929POPC   GL164069  36.925  14.546   5.796
 4929POPC   GL264070  36.563  14.662   5.904
 4929POPC   C1A64071  36.868  14.389   6.251
 4929POPC   D2A64072  36.618  14.409   6.650
 4929POPC   C3A64073  36.690  14.280   7.106
 4929POPC   C4A64074  36.949  14.072   7.453
 4929POPC   C1B64075  36.623  14.843   6.347
 4929POPC   C2B64076  36.546  14.903   6.810
 4929POPC   C3B64077  36.653  14.794   7.235
 4929POPC   C4B64078  36.719  14.961   7.651
 4930POPC   NC364079  41.534   2.389   5.181
 4930POPC   PO464080  41.479   1.746   5.419
 4930POPC   GL164081  41.662   2.108   5.620
 4930POPC   GL264082  41.602   2.472   5.760
 4930POPC   C1A64083  41.738   2.052   6.025
 4930POPC   D2A64084  41.763   2.179   6.422
 4930POPC   C3A64085  41.607   1.890   6.753
 4930POPC   C4A64086  41.734   1.925   7.178
 4930POPC   C1B64087  41.366   2.396   6.164
 4930POPC   C2B64088  41.308   2.280   6.603
 4930POPC   C3B64089  41.481   2.359   6.992
 4930POPC   C4B64090  41.186   2.358   7.331
 4931POPC   NC364091  29.286  22.032   5.212
 4931POPC   PO464092  28.719  22.085   5.215
 4931POPC   GL164093  28.971  22.053   5.621
 4931POPC   GL264094  29.138  22.387   5.709
 4931POPC   C1A64095  28.996  22.064   6.078
 4931POPC   D2A64096  29.231  22.001   6.498
 4931POPC   C3A64097  29.028  22.082   6.901
 4931POPC   C4A64098  29.216  21.998   7.298
 4931POPC   C1B64099  29.273  22.465   6.206
 4931POPC   C2B64100  29.253  22.486   6.686
 4931POPC   C3B64101  29.224  22.500   7.147
 4931POPC   C4B64102  29.147  22.481   7.591
 4932POPC   NC364103  42.428  44.905   5.136
 4932POPC   PO464104  42.207  44.310   5.329
 4932POPC   GL164105  42.243  44.601   5.680
 4932POPC   GL264106  42.159  44.315   5.877
 4932POPC   C1A64107  42.432  44.671   6.126
 4932POPC   D2A64108  42.686  44.941   6.397
 4932POPC   C3A64109  42.659  44.791   6.829
 4932POPC   C4A64110  42.486  44.789   7.268
 4932POPC   C1B64111  42.004  44.397   6.290
 4932POPC   C2B64112  41.830  44.626   6.640
 4932POPC   C3B64113  42.011  44.723   7.043
 4932POPC   C4B64114  42.106  44.470   7.415
 4933POPC   NC364115  18.610  35.968   5.514
 4933POPC   PO464116  18.050  36.284   5.326
 4933POPC   GL164117  18.196  36.237   5.753
 4933POPC   GL264118  18.028  35.932   5.833
 4933POPC   C1A64119  18.286  36.316   6.219
 4933POPC   D2A64120  18.098  36.291   6.653
 4933POPC   C3A64121  18.253  36.425   7.053
 4933POPC   C4A64122  18.522  36.505   7.415
 4933POPC   C1B64123  17.953  35.926   6.275
 4933POPC   C2B64124  18.226  35.810   6.602
 4933POPC   C3B64125  18.391  35.948   6.996
 4933POPC   C4B64126  18.305  35.957   7.442
 4934POPC   NC364127  36.658  23.346   5.504
 4934POPC   PO464128  37.128  22.806   5.340
 4934POPC   GL164129  36.971  22.870   5.766
 4934POPC   GL264130  36.908  22.554   5.794
 4934POPC   C1A64131  36.836  22.985   6.225
 4934POPC   D2A64132  36.999  23.239   6.610
 4934POPC   C3A64133  36.819  23.178   7.019
 4934POPC   C4A64134  36.890  22.856   7.325
 4934POPC   C1B64135  36.549  22.554   6.056
 4934POPC   C2B64136  36.440  22.694   6.468
 4934POPC   C3B64137  36.580  22.722   6.899
 4934POPC   C4B64138  36.551  22.467   7.262
 4935POPC   NC364139  24.150  43.635   5.586
 4935POPC   PO464140  23.672  44.023   5.265
 4935POPC   GL164141  23.780  44.046   5.706
 4935POPC   GL264142  23.682  43.731   5.845
 4935POPC   C1A64143  23.623  44.170   6.127
 4935POPC   D2A64144  23.570  43.988   6.547
 4935POPC   C3A64145  23.645  44.211   6.943
 4935POPC   C4A64146  23.683  43.966   7.305
 4935POPC   C1B64147  23.433  43.601   6.215
 4935POPC   C2B64148  23.382  43.452   6.646
 4935POPC   C3B64149  23.478  43.521   7.098
 4935POPC   C4B64150  23.368  43.462   7.554
 4936POPC   NC364151  24.828  41.229   5.413
 4936POPC   PO464152  24.237  41.562   5.301
 4936POPC   GL164153  24.491  41.513   5.704
 4936POPC   GL264154  24.714  41.815   5.765
 4936POPC   C1A64155  24.326  41.343   6.117
 4936POPC   D2A64156  24.260  41.143   6.530
 4936POPC   C3A64157  24.408  41.317   6.925
 4936POPC   C4A64158  24.203  41.615   7.185
 4936POPC   C1B64159  24.485  41.831   6.148
 4936POPC   C2B64160  24.375  41.688   6.549
 4936POPC   C3B64161  24.595  41.810   6.907
 4936POPC   C4B64162  24.560  41.951   7.316
 4937POPC   NC364163  35.182  23.798   5.426
 4937POPC   PO464164  35.792  23.513   5.502
 4937POPC   GL164165  35.476  23.624   5.828
 4937POPC   GL264166  35.296  23.955   5.905
 4937POPC   C1A64167  35.209  23.532   6.186
 4937POPC   D2A64168  35.113  23.719   6.582
 4937POPC   C3A64169  35.330  23.558   6.952
 4937POPC   C4A64170  35.618  23.780   7.244
 4937POPC   C1B64171  35.497  24.005   6.322
 4937POPC   C2B64172  35.524  24.026   6.789
 4937POPC   C3B64173  35.170  24.018   7.101
 4937POPC   C4B64174  35.262  23.988   7.569
 4938POPC   NC364175  24.915  34.157   5.374
 4938POPC   PO464176  25.662  34.369   5.458
 4938POPC   GL164177  25.345  34.541   5.777
 4938POPC   GL264178  25.147  34.882   5.718
 4938POPC   C1A64179  25.282  34.602   6.237
 4938POPC   D2A64180  25.576  34.483   6.560
 4938POPC   C3A64181  25.431  34.376   6.955
 4938POPC   C4A64182  25.046  34.455   7.203
 4938POPC   C1B64183  25.502  35.010   6.014
 4938POPC   C2B64184  25.556  35.054   6.486
 4938POPC   C3B64185  25.370  34.889   6.867
 4938POPC   C4B64186  25.420  34.769   7.290
 4939POPC   NC364187  41.030  44.121   5.237
 4939POPC   PO464188  40.545  43.701   5.388
 4939POPC   GL164189  40.767  43.805   5.736
 4939POPC   GL264190  41.085  43.977   5.730
 4939POPC   C1A64191  40.723  43.734   6.165
 4939POPC   D2A64192  40.726  43.842   6.584
 4939POPC   C3A64193  40.426  43.841   6.865
 4939POPC   C4A64194  40.663  43.873   7.233
 4939POPC   C1B64195  41.045  44.130   6.151
 4939POPC   C2B64196  41.016  44.298   6.553
 4939POPC   C3B64197  40.993  44.142   6.954
 4939POPC   C4B64198  41.081  44.406   7.307
 4940POPC   NC364199  38.887  42.514   5.502
 4940POPC   PO464200  39.372  42.015   5.393
 4940POPC   GL164201  39.155  42.178   5.763
 4940POPC   GL264202  39.201  42.529   5.902
 4940POPC   C1A64203  39.162  42.125   6.206
 4940POPC   D2A64204  39.105  42.366   6.579
 4940POPC   C3A64205  38.966  42.087   6.881
 4940POPC   C4A64206  39.060  42.100   7.316
 4940POPC   C1B64207  38.873  42.663   6.205
 4940POPC   C2B64208  38.629  42.598   6.624
 4940POPC   C3B64209  38.833  42.564   7.050
 4940POPC   C4B64210  38.897  42.539   7.513
 4941POPC   NC364211   0.098  10.991   5.371
 4941POPC   PO464212   0.759  11.216   5.230
 4941POPC   GL164213   0.483  11.304   5.581
 4941POPC   GL264214   0.645  11.086   5.806
 4941POPC   C1A64215   0.429  11.535   5.983
 4941POPC   D2A64216   0.482  11.762   6.391
 4941POPC   C3A64217   0.374  11.526   6.773
 4941POPC   C4A64218   0.517  11.333   7.168
 4941POPC   C1B64219   0.853  11.094   6.225
 4941POPC   C2B64220   0.818  10.846   6.639
 4941POPC   C3B64221   0.750  10.887   7.096
 4941POPC   C4B64222   0.397  10.860   7.392
 4942POPC   NC364223  19.333   9.406   5.495
 4942POPC   PO464224  19.699   8.836   5.414
 4942POPC   GL164225  19.718   9.172   5.799
 4942POPC   GL264226  19.928   9.527   5.781
 4942POPC   C1A64227  19.597   9.099   6.229
 4942POPC   D2A64228  19.642   8.820   6.580
 4942POPC   C3A64229  19.796   8.945   6.971
 4942POPC   C4A64230  20.044   8.755   7.281
 4942POPC   C1B64231  19.986   9.452   6.202
 4942POPC   C2B64232  19.836   9.381   6.597
 4942POPC   C3B64233  20.030   9.400   6.966
 4942POPC   C4B64234  19.786   9.370   7.292
 4943POPC   NC364235  23.111  28.064   5.168
 4943POPC   PO464236  22.955  27.437   5.410
 4943POPC   GL164237  22.815  27.783   5.722
 4943POPC   GL264238  22.527  28.052   5.694
 4943POPC   C1A64239  22.818  27.711   6.147
 4943POPC   D2A64240  23.027  27.832   6.503
 4943POPC   C3A64241  22.998  27.541   6.851
 4943POPC   C4A64242  22.970  27.350   7.274
 4943POPC   C1B64243  22.409  28.022   6.122
 4943POPC   C2B64244  22.478  27.824   6.514
 4943POPC   C3B64245  22.469  27.960   6.915
 4943POPC   C4B64246  22.722  27.792   7.227
 4944POPC   NC364247  22.709  19.907   5.457
 4944POPC   PO464248  23.316  19.725   5.375
 4944POPC   GL164249  23.147  19.871   5.782
 4944POPC   GL264250  22.883  20.135   5.860
 4944POPC   C1A64251  23.032  19.842   6.234
 4944POPC   D2A64252  23.030  20.079   6.599
 4944POPC   C3A64253  22.915  19.908   6.993
 4944POPC   C4A64254  22.686  19.553   7.171
 4944POPC   C1B64255  22.636  20.238   6.216
 4944POPC   C2B64256  22.536  20.147   6.628
 4944POPC   C3B64257  22.691  20.386   6.942
 4944POPC   C4B64258  22.780  20.394   7.338
 4945POPC   NC364259  34.257  37.043   5.493
 4945POPC   PO464260  34.922  37.260   5.462
 4945POPC   GL164261  34.699  36.910   5.764
 4945POPC   GL264262  34.389  36.663   5.835
 4945POPC   C1A64263  34.847  36.732   6.158
 4945POPC   D2A64264  35.042  36.800   6.568
 4945POPC   C3A64265  34.746  36.848   6.901
 4945POPC   C4A64266  34.813  37.162   7.203
 4945POPC   C1B64267  34.369  36.888   6.220
 4945POPC   C2B64268  34.166  36.953   6.624
 4945POPC   C3B64269  34.284  37.049   7.063
 4945POPC   C4B64270  34.193  37.010   7.500
 4946POPC   NC364271  30.818  28.672   5.686
 4946POPC   PO464272  30.443  28.070   5.527
 4946POPC   GL164273  30.510  28.290   5.891
 4946POPC   GL264274  30.299  28.569   5.831
 4946POPC   C1A64275  30.749  28.370   6.293
 4946POPC   D2A64276  30.934  28.264   6.711
 4946POPC   C3A64277  30.884  28.493   7.106
 4946POPC   C4A64278  30.689  28.276   7.490
 4946POPC   C1B64279  30.318  28.621   6.269
 4946POPC   C2B64280  30.314  28.317   6.626
 4946POPC   C3B64281  30.412  28.330   7.040
 4946POPC   C4B64282  30.357  28.630   7.363
 4947POPC   NC364283  42.742  30.433   5.550
 4947POPC   PO464284  43.364  30.590   5.394
 4947POPC   GL164285  43.124  30.780   5.694
 4947POPC   GL264286  43.144  30.435   5.856
 4947POPC   C1A64287  43.010  30.833   6.140
 4947POPC   D2A64288  43.147  30.594   6.533
 4947POPC   C3A64289  43.139  30.846   6.914
 4947POPC   C4A64290  42.889  30.969   7.244
 4947POPC   C1B64291  42.899  30.289   6.183
 4947POPC   C2B64292  42.810  30.152   6.593
 4947POPC   C3B64293  42.914  30.390   6.970
 4947POPC   C4B64294  42.617  30.539   7.257
 4948POPC   NC364295  34.890  22.883   5.422
 4948POPC   PO464296  34.209  23.087   5.441
 4948POPC   GL164297  34.539  23.267   5.701
 4948POPC   GL264298  34.355  23.515   5.893
 4948POPC   C1A64299  34.801  23.195   6.062
 4948POPC   D2A64300  34.720  23.203   6.501
 4948POPC   C3A64301  34.611  22.855   6.797
 4948POPC   C4A64302  34.689  22.841   7.234
 4948POPC   C1B64303  34.276  23.251   6.236
 4948POPC   C2B64304  34.169  23.146   6.687
 4948POPC   C3B64305  34.205  23.042   7.135
 4948POPC   C4B64306  33.961  23.111   7.509
 4949POPC   NC364307  39.681   7.153   5.554
 4949POPC   PO464308  40.276   7.514   5.425
 4949POPC   GL164309  40.148   7.327   5.772
 4949POPC   GL264310  40.195   6.986   5.675
 4949POPC   C1A64311  40.126   7.469   6.202
 4949POPC   D2A64312  40.029   7.323   6.607
 4949POPC   C3A64313  39.938   7.591   6.947
 4949POPC   C4A64314  39.910   7.370   7.342
 4949POPC   C1B64315  40.181   6.981   6.152
 4949POPC   C2B64316  40.370   6.906   6.552
 4949POPC   C3B64317  40.247   6.994   6.969
 4949POPC   C4B64318  40.172   6.934   7.412
 4950POPC   NC364319  38.702   2.065   5.322
 4950POPC   PO464320  38.216   1.533   5.298
 4950POPC   GL164321  38.511   1.688   5.658
 4950POPC   GL264322  38.466   2.060   5.766
 4950POPC   C1A64323  38.577   1.702   6.145
 4950POPC   D2A64324  38.388   1.635   6.578
 4950POPC   C3A64325  38.555   1.824   6.959
 4950POPC   C4A64326  38.716   2.161   7.238
 4950POPC   C1B64327  38.813   2.152   6.060
 4950POPC   C2B64328  38.773   2.110   6.518
 4950POPC   C3B64329  38.471   2.308   6.807
 4950POPC   C4B64330  38.229   2.442   7.181
 4951POPC   NC364331   7.671  33.489   5.506
 4951POPC   PO464332   7.317  33.981   5.302
 4951POPC   GL164333   7.190  33.921   5.730
 4951POPC   GL264334   7.446  34.133   5.845
 4951POPC   C1A64335   7.278  33.626   6.124
 4951POPC   D2A64336   7.384  33.524   6.579
 4951POPC   C3A64337   7.077  33.580   6.965
 4951POPC   C4A64338   7.086  33.526   7.439
 4951POPC   C1B64339   7.289  34.133   6.260
 4951POPC   C2B64340   7.239  34.003   6.690
 4951POPC   C3B64341   7.505  34.012   7.060
 4951POPC   C4B64342   7.492  34.226   7.485
 4952POPC   NC364343  26.725  40.274   5.307
 4952POPC   PO464344  27.174  39.926   5.611
 4952POPC   GL164345  26.908  40.132   5.809
 4952POPC   GL264346  26.982  40.486   5.721
 4952POPC   C1A64347  26.837  39.972   6.219
 4952POPC   D2A64348  26.614  39.806   6.566
 4952POPC   C3A64349  26.747  39.956   6.981
 4952POPC   C4A64350  26.833  39.839   7.427
 4952POPC   C1B64351  26.735  40.478   6.119
 4952POPC   C2B64352  26.638  40.311   6.545
 4952POPC   C3B64353  26.974  40.387   6.834
 4952POPC   C4B64354  26.987  40.324   7.291
 4953POPC   NC364355   0.864  16.101   5.381
 4953POPC   PO464356   0.251  16.188   5.179
 4953POPC   GL164357   0.464  16.048   5.678
 4953POPC   GL264358   0.667  15.729   5.762
 4953POPC   C1A64359   0.432  16.192   6.136
 4953POPC   D2A64360   0.583  16.078   6.585
 4953POPC   C3A64361   0.305  16.074   6.956
 4953POPC   C4A64362   0.260  15.939   7.379
 4953POPC   C1B64363   0.471  15.626   6.216
 4953POPC   C2B64364   0.243  15.660   6.634
 4953POPC   C3B64365   0.230  15.504   7.071
 4953POPC   C4B64366   0.531  15.491   7.438
 4954POPC   NC364367  29.481  40.626   5.448
 4954POPC   PO464368  28.966  41.057   5.473
 4954POPC   GL164369  29.283  40.982   5.788
 4954POPC   GL264370  29.581  41.136   5.830
 4954POPC   C1A64371  29.241  40.817   6.196
 4954POPC   D2A64372  28.869  40.893   6.495
 4954POPC   C3A64373  28.862  40.705   6.903
 4954POPC   C4A64374  29.091  40.695   7.308
 4954POPC   C1B64375  29.581  41.228   6.267
 4954POPC   C2B64376  29.343  41.101   6.590
 4954POPC   C3B64377  29.353  40.812   6.863
 4954POPC   C4B64378  29.469  41.065   7.191
 4955POPC   NC364379  43.136  10.104   5.533
 4955POPC   PO464380  43.378  10.777   5.489
 4955POPC   GL164381  43.284  10.517   5.823
 4955POPC   GL264382  43.561  10.309   5.718
 4955POPC   C1A64383  43.072  10.497   6.227
 4955POPC   D2A64384  43.157  10.733   6.635
 4955POPC   C3A64385  42.960  10.563   7.002
 4955POPC   C4A64386  42.892  10.604   7.466
 4955POPC   C1B64387  43.648  10.270   6.143
 4955POPC   C2B64388  43.431  10.296   6.515
 4955POPC   C3B64389  43.429  10.366   6.924
 4955POPC   C4B64390  43.359  10.526   7.309
 4956POPC   NC364391   0.889   7.066   5.329
 4956POPC   PO464392   1.046   7.727   5.402
 4956POPC   GL164393   1.195   7.455   5.788
 4956POPC   GL264394   1.382   7.190   5.618
 4956POPC   C1A64395   1.160   7.385   6.278
 4956POPC   D2A64396   1.059   7.149   6.703
 4956POPC   C3A64397   1.084   7.419   7.087
 4956POPC   C4A64398   0.784   7.718   7.296
 4956POPC   C1B64399   1.470   7.034   6.031
 4956POPC   C2B64400   1.511   7.028   6.470
 4956POPC   C3B64401   1.533   7.121   6.915
 4956POPC   C4B64402   1.316   7.012   7.295
 4957POPC   NC364403  40.816  22.686   5.231
 4957POPC   PO464404  41.211  23.207   5.486
 4957POPC   GL164405  40.886  22.931   5.714
 4957POPC   GL264406  40.600  22.636   5.682
 4957POPC   C1A64407  40.670  22.939   6.088
 4957POPC   D2A64408  40.950  22.938   6.402
 4957POPC   C3A64409  40.800  22.760   6.736
 4957POPC   C4A64410  40.679  23.038   7.002
 4957POPC   C1B64411  40.507  22.442   6.070
 4957POPC   C2B64412  40.457  22.380   6.500
 4957POPC   C3B64413  40.442  22.403   6.941
 4957POPC   C4B64414  40.495  22.656   7.306
 4958POPC   NC364415  21.469  36.510   5.467
 4958POPC   PO464416  21.408  35.817   5.429
 4958POPC   GL164417  21.394  36.107   5.765
 4958POPC   GL264418  21.625  35.977   5.946
 4958POPC   C1A64419  21.354  36.413   6.131
 4958POPC   D2A64420  21.094  36.469   6.504
 4958POPC   C3A64421  21.287  36.548   6.913
 4958POPC   C4A64422  21.286  36.365   7.308
 4958POPC   C1B64423  21.690  36.082   6.321
 4958POPC   C2B64424  21.446  36.122   6.653
 4958POPC   C3B64425  21.404  35.938   7.028
 4958POPC   C4B64426  21.742  35.844   7.256
 4959POPC   NC364427  18.044  31.490   5.115
 4959POPC   PO464428  18.598  31.565   5.433
 4959POPC   GL164429  18.682  31.592   5.878
 4959POPC   GL264430  18.426  31.837   5.960
 4959POPC   C1A64431  18.542  31.488   6.325
 4959POPC   D2A64432  18.240  31.519   6.694
 4959POPC   C3A64433  18.331  31.340   7.121
 4959POPC   C4A64434  18.158  31.052   7.481
 4959POPC   C1B64435  18.501  31.989   6.405
 4959POPC   C2B64436  18.605  31.838   6.828
 4959POPC   C3B64437  18.665  31.871   7.265
 4959POPC   C4B64438  18.454  32.135   7.556
 4960POPC   NC364439   3.879  39.579   5.614
 4960POPC   PO464440   3.558  39.002   5.365
 4960POPC   GL164441   3.583  39.141   5.794
 4960POPC   GL264442   3.253  39.179   5.831
 4960POPC   C1A64443   3.514  39.406   6.196
 4960POPC   D2A64444   3.681  39.620   6.572
 4960POPC   C3A64445   3.697  39.388   6.935
 4960POPC   C4A64446   3.641  39.135   7.283
 4960POPC   C1B64447   3.166  38.995   6.224
 4960POPC   C2B64448   3.207  39.256   6.577
 4960POPC   C3B64449   3.238  39.170   6.976
 4960POPC   C4B64450   3.053  38.982   7.273
 4961POPC   NC364451  35.999  22.125   5.206
 4961POPC   PO464452  36.634  22.411   5.374
 4961POPC   GL164453  36.290  22.233   5.700
 4961POPC   GL264454  35.959  22.001   5.700
 4961POPC   C1A64455  36.091  22.306   6.111
 4961POPC   D2A64456  36.014  22.384   6.533
 4961POPC   C3A64457  36.277  22.222   6.879
 4961POPC   C4A64458  36.089  22.169   7.268
 4961POPC   C1B64459  36.042  21.805   6.100
 4961POPC   C2B64460  36.204  21.851   6.513
 4961POPC   C3B64461  35.989  21.774   6.915
 4961POPC   C4B64462  35.845  21.725   7.339
 4962POPC   NC364463  13.055  14.822   5.465
 4962POPC   PO464464  12.833  15.457   5.438
 4962POPC   GL164465  12.921  15.205   5.809
 4962POPC   GL264466  12.694  14.933   5.837
 4962POPC   C1A64467  12.912  15.356   6.227
 4962POPC   D2A64468  12.733  15.368   6.628
 4962POPC   C3A64469  12.980  15.494   6.957
 4962POPC   C4A64470  13.148  15.270   7.321
 4962POPC   C1B64471  12.890  14.837   6.228
 4962POPC   C2B64472  13.096  14.998   6.601
 4962POPC   C3B64473  12.883  14.986   6.978
 4962POPC   C4B64474  12.745  14.909   7.363
 4963POPC   NC364475  16.856  38.768   5.357
 4963POPC   PO464476  16.958  38.178   5.647
 4963POPC   GL164477  16.766  38.538   5.867
 4963POPC   GL264478  17.027  38.823   5.858
 4963POPC   C1A64479  16.610  38.371   6.283
 4963POPC   D2A64480  16.602  38.062   6.630
 4963POPC   C3A64481  16.549  38.282   7.007
 4963POPC   C4A64482  16.587  38.525   7.370
 4963POPC   C1B64483  17.056  38.633   6.283
 4963POPC   C2B64484  16.864  38.578   6.716
 4963POPC   C3B64485  17.025  38.669   7.138
 4963POPC   C4B64486  16.844  38.950   7.495
 4964POPC   NC364487  14.010   3.722   5.622
 4964POPC   PO464488  13.424   3.619   5.338
 4964POPC   GL164489  13.386   3.431   5.734
 4964POPC   GL264490  13.122   3.217   5.651
 4964POPC   C1A64491  13.651   3.365   6.126
 4964POPC   D2A64492  13.878   3.555   6.490
 4964POPC   C3A64493  13.805   3.396   6.902
 4964POPC   C4A64494  13.733   3.561   7.313
 4964POPC   C1B64495  13.183   3.147   6.120
 4964POPC   C2B64496  13.362   3.191   6.570
 4964POPC   C3B64497  13.342   3.237   7.057
 4964POPC   C4B64498  13.375   3.234   7.520
 4965POPC   NC364499  29.442  34.392   5.402
 4965POPC   PO464500  28.812  34.705   5.294
 4965POPC   GL164501  29.027  34.649   5.714
 4965POPC   GL264502  29.356  34.819   5.706
 4965POPC   C1A64503  28.891  34.599   6.149
 4965POPC   D2A64504  29.131  34.587   6.529
 4965POPC   C3A64505  28.980  34.434   6.902
 4965POPC   C4A64506  28.866  34.766   7.169
 4965POPC   C1B64507  29.411  34.549   6.081
 4965POPC   C2B64508  29.601  34.401   6.487
 4965POPC   C3B64509  29.492  34.356   6.925
 4965POPC   C4B64510  29.305  34.547   7.296
 4966POPC   NC364511  24.173  26.599   5.452
 4966POPC   PO464512  23.663  27.057   5.383
 4966POPC   GL164513  23.673  26.814   5.764
 4966POPC   GL264514  23.373  26.579   5.764
 4966POPC   C1A64515  23.769  26.987   6.185
 4966POPC   D2A64516  23.856  26.798   6.577
 4966POPC   C3A64517  23.779  26.974   6.986
 4966POPC   C4A64518  24.133  26.825   7.167
 4966POPC   C1B64519  23.450  26.590   6.220
 4966POPC   C2B64520  23.384  26.649   6.667
 4966POPC   C3B64521  23.586  26.515   7.050
 4966POPC   C4B64522  23.454  26.487   7.508
 4967POPC   NC364523  17.221  23.923   5.267
 4967POPC   PO464524  17.817  23.535   5.416
 4967POPC   GL164525  17.418  23.534   5.636
 4967POPC   GL264526  17.465  23.855   5.721
 4967POPC   C1A64527  17.388  23.443   6.094
 4967POPC   D2A64528  17.664  23.479   6.459
 4967POPC   C3A64529  17.405  23.594   6.791
 4967POPC   C4A64530  17.344  23.547   7.231
 4967POPC   C1B64531  17.644  23.890   6.134
 4967POPC   C2B64532  17.657  24.027   6.586
 4967POPC   C3B64533  17.677  23.931   7.047
 4967POPC   C4B64534  17.779  24.166   7.398
 4968POPC   NC364535   2.870  43.286   5.396
 4968POPC   PO464536   2.382  42.976   5.237
 4968POPC   GL164537   2.535  43.112   5.738
 4968POPC   GL264538   2.911  43.060   5.843
 4968POPC   C1A64539   2.590  43.272   6.207
 4968POPC   D2A64540   2.474  43.299   6.659
 4968POPC   C3A64541   2.701  43.320   7.069
 4968POPC   C4A64542   2.842  43.136   7.488
 4968POPC   C1B64543   3.123  43.088   6.236
 4968POPC   C2B64544   2.982  43.057   6.665
 4968POPC   C3B64545   2.930  42.871   7.038
 4968POPC   C4B64546   3.134  42.674   7.372
 4969POPC   NC364547   7.451  34.410   5.380
 4969POPC   PO464548   7.222  35.078   5.329
 4969POPC   GL164549   7.296  34.797   5.726
 4969POPC   GL264550   7.613  34.611   5.817
 4969POPC   C1A64551   7.265  34.662   6.186
 4969POPC   D2A64552   7.261  34.513   6.621
 4969POPC   C3A64553   7.393  34.756   6.987
 4969POPC   C4A64554   7.474  34.705   7.415
 4969POPC   C1B64555   7.726  34.428   6.242
 4969POPC   C2B64556   7.776  34.524   6.697
 4969POPC   C3B64557   7.807  34.441   7.146
 4969POPC   C4B64558   7.939  34.455   7.605
 4970POPC   NC364559  10.775  27.538   5.389
 4970POPC   PO464560  10.298  27.112   5.585
 4970POPC   GL164561  10.532  27.418   5.843
 4970POPC   GL264562  10.890  27.432   5.871
 4970POPC   C1A64563  10.591  27.687   6.199
 4970POPC   D2A64564  10.378  27.661   6.564
 4970POPC   C3A64565  10.587  27.875   6.869
 4970POPC   C4A64566  10.647  28.181   7.198
 4970POPC   C1B64567  10.860  27.243   6.278
 4970POPC   C2B64568  10.827  27.425   6.698
 4970POPC   C3B64569  10.677  27.415   7.125
 4970POPC   C4B64570  10.875  27.423   7.573
 4971POPC   NC364571  31.250  44.924   5.364
 4971POPC   PO464572  31.791   0.139   5.580
 4971POPC   GL164573  31.368   0.178   5.792
 4971POPC   GL264574  31.391   0.522   5.907
 4971POPC   C1A64575  31.144   0.175   6.197
 4971POPC   D2A64576  31.337   0.222   6.603
 4971POPC   C3A64577  31.255   0.343   7.040
 4971POPC   C4A64578  31.632   0.375   7.320
 4971POPC   C1B64579  31.348   0.675   6.337
 4971POPC   C2B64580  31.517   0.704   6.751
 4971POPC   C3B64581  31.461   0.850   7.176
 4971POPC   C4B64582  31.566   0.908   7.629
 4972POPC   NC364583   8.799  21.135   5.574
 4972POPC   PO464584   9.102  21.720   5.578
 4972POPC   GL164585   9.064  21.459   5.882
 4972POPC   GL264586   8.711  21.496   5.944
 4972POPC   C1A64587   9.164  21.347   6.276
 4972POPC   D2A64588   9.021  21.500   6.653
 4972POPC   C3A64589   9.151  21.190   6.910
 4972POPC   C4A64590   9.334  21.303   7.269
 4972POPC   C1B64591   8.645  21.879   6.182
 4972POPC   C2B64592   8.783  22.035   6.595
 4972POPC   C3B64593   8.711  21.847   6.987
 4972POPC   C4B64594   8.791  21.460   7.163
 4973POPC   NC364595  25.027  27.091   5.282
 4973POPC   PO464596  25.363  27.707   5.275
 4973POPC   GL164597  25.138  27.595   5.639
 4973POPC   GL264598  25.421  27.361   5.712
 4973POPC   C1A64599  25.151  27.548   6.113
 4973POPC   D2A64600  25.453  27.535   6.456
 4973POPC   C3A64601  25.326  27.717   6.839
 4973POPC   C4A64602  25.227  27.714   7.248
 4973POPC   C1B64603  25.680  27.150   6.038
 4973POPC   C2B64604  25.789  27.143   6.484
 4973POPC   C3B64605  25.684  27.350   6.894
 4973POPC   C4B64606  25.416  27.249   7.247
 4974POPC   NC364607  20.886  22.336   5.469
 4974POPC   PO464608  20.374  21.869   5.339
 4974POPC   GL164609  20.611  21.969   5.725
 4974POPC   GL264610  20.541  22.321   5.859
 4974POPC   C1A64611  20.819  21.914   6.133
 4974POPC   D2A64612  20.660  21.858   6.565
 4974POPC   C3A64613  20.842  22.014   6.939
 4974POPC   C4A64614  20.710  22.021   7.326
 4974POPC   C1B64615  20.580  22.351   6.316
 4974POPC   C2B64616  20.478  22.315   6.759
 4974POPC   C3B64617  20.386  22.390   7.174
 4974POPC   C4B64618  20.802  22.504   7.282
 4975POPC   NC364619  38.503  17.452   5.481
 4975POPC   PO464620  37.932  17.206   5.626
 4975POPC   GL164621  38.227  17.471   5.889
 4975POPC   GL264622  38.212  17.800   5.733
 4975POPC   C1A64623  38.565  17.622   6.187
 4975POPC   D2A64624  38.472  17.535   6.625
 4975POPC   C3A64625  38.650  17.645   6.995
 4975POPC   C4A64626  38.611  17.375   7.351
 4975POPC   C1B64627  38.127  17.918   6.147
 4975POPC   C2B64628  38.332  18.005   6.492
 4975POPC   C3B64629  38.244  17.967   6.900
 4975POPC   C4B64630  38.259  17.775   7.282
 4976POPC   NC364631  33.652  26.991   5.298
 4976POPC   PO464632  34.148  26.649   5.503
 4976POPC   GL164633  33.835  26.894   5.779
 4976POPC   GL264634  33.459  27.028   5.784
 4976POPC   C1A64635  33.690  26.660   6.142
 4976POPC   D2A64636  33.933  26.478   6.496
 4976POPC   C3A64637  33.975  26.727   6.871
 4976POPC   C4A64638  33.799  26.678   7.258
 4976POPC   C1B64639  33.608  27.197   6.166
 4976POPC   C2B64640  33.602  26.955   6.551
 4976POPC   C3B64641  33.462  26.918   6.950
 4976POPC   C4B64642  33.754  27.179   7.113
 4977POPC   NC364643  26.735  10.574   5.405
 4977POPC   PO464644  26.283  10.125   5.594
 4977POPC   GL164645  26.684  10.261   5.802
 4977POPC   GL264646  26.764  10.661   5.896
 4977POPC   C1A64647  26.856  10.253   6.195
 4977POPC   D2A64648  26.996  10.344   6.589
 4977POPC   C3A64649  26.666  10.519   6.848
 4977POPC   C4A64650  26.797  10.497   7.273
 4977POPC   C1B64651  26.849  10.751   6.331
 4977POPC   C2B64652  27.025  10.839   6.715
 4977POPC   C3B64653  26.790  10.969   7.071
 4977POPC   C4B64654  26.595  10.936   7.454
 4978POPC   NC364655  43.774  33.938   5.606
 4978POPC   PO464656  44.206  33.400   5.608
 4978POPC   GL164657  44.027  33.559   6.004
 4978POPC   GL264658  43.749  33.814   6.105
 4978POPC   C1A64659  44.018  33.558   6.476
 4978POPC   D2A64660  43.905  33.954   6.643
 4978POPC   C3A64661  43.699  33.941   6.954
 4978POPC   C4A64662  43.817  33.736   7.286
 4978POPC   C1B64663  43.868  34.257   6.241
 4978POPC   C2B64664  44.091  34.465   6.589
 4978POPC   C3B64665  44.205  34.305   6.980
 4978POPC   C4B64666  43.922  34.234   7.289
 4979POPC   NC364667  15.446  20.734   5.460
 4979POPC   PO464668  16.039  20.908   5.345
 4979POPC   GL164669  15.904  20.676   5.711
 4979POPC   GL264670  16.201  20.523   5.863
 4979POPC   C1A64671  15.855  20.784   6.152
 4979POPC   D2A64672  15.995  20.621   6.549
 4979POPC   C3A64673  15.776  20.703   6.928
 4979POPC   C4A64674  15.928  20.818   7.336
 4979POPC   C1B64675  16.393  20.406   6.265
 4979POPC   C2B64676  16.395  20.359   6.707
 4979POPC   C3B64677  16.274  20.535   7.071
 4979POPC   C4B64678  16.442  20.459   7.467
 4980POPC   NC364679  34.321  18.230   5.227
 4980POPC   PO464680  34.916  18.531   5.366
 4980POPC   GL164681  34.847  18.301   5.800
 4980POPC   GL264682  35.055  18.004   5.841
 4980POPC   C1A64683  34.543  18.136   6.180
 4980POPC   D2A64684  34.390  17.938   6.624
 4980POPC   C3A64685  34.400  18.232   7.010
 4980POPC   C4A64686  34.601  18.602   7.216
 4980POPC   C1B64687  34.919  17.799   6.185
 4980POPC   C2B64688  34.893  18.000   6.561
 4980POPC   C3B64689  34.954  18.282   6.897
 4980POPC   C4B64690  34.857  18.159   7.280
 4981POPC   NC364691  17.768  20.857   5.508
 4981POPC   PO464692  17.449  20.270   5.399
 4981POPC   GL164693  17.574  20.488   5.793
 4981POPC   GL264694  17.375  20.828   5.813
 4981POPC   C1A64695  17.587  20.604   6.227
 4981POPC   D2A64696  17.469  20.411   6.598
 4981POPC   C3A64697  17.589  20.608   6.976
 4981POPC   C4A64698  17.627  20.391   7.354
 4981POPC   C1B64699  17.237  20.987   6.204
 4981POPC   C2B64700  17.134  20.813   6.586
 4981POPC   C3B64701  17.196  20.965   6.984
 4981POPC   C4B64702  17.282  20.740   7.377
 4982POPC   NC364703  41.629  22.111   5.143
 4982POPC   PO464704  41.441  21.906   5.730
 4982POPC   GL164705  41.551  22.311   5.959
 4982POPC   GL264706  41.854  22.549   5.924
 4982POPC   C1A64707  41.425  22.245   6.395
 4982POPC   D2A64708  41.251  21.873   6.604
 4982POPC   C3A64709  41.269  21.989   7.025
 4982POPC   C4A64710  41.586  22.068   7.339
 4982POPC   C1B64711  41.846  22.539   6.375
 4982POPC   C2B64712  41.752  22.420   6.814
 4982POPC   C3B64713  41.877  22.475   7.244
 4982POPC   C4B64714  41.842  22.408   7.728
 4983POPC   NC364715  44.894  21.120   5.200
 4983POPC   PO464716  44.576  21.721   5.427
 4983POPC   GL164717  44.552  21.343   5.716
 4983POPC   GL264718  44.872  21.131   5.707
 4983POPC   C1A64719  44.451  21.348   6.180
 4983POPC   D2A64720  44.625  21.499   6.589
 4983POPC   C3A64721  44.445  21.368   7.002
 4983POPC   C4A64722  44.363  21.620   7.372
 4983POPC   C1B64723  44.962  21.264   6.124
 4983POPC   C2B64724  44.898  21.066   6.510
 4983POPC   C3B64725  44.942  21.217   6.914
 4983POPC   C4B64726  44.829  21.006   7.258
 4984POPC   NC364727  29.553  30.184   5.434
 4984POPC   PO464728  28.973  29.787   5.338
 4984POPC   GL164729  29.022  29.723   5.757
 4984POPC   GL264730  29.326  29.906   5.814
 4984POPC   C1A64731  28.928  29.701   6.196
 4984POPC   D2A64732  28.995  29.626   6.654
 4984POPC   C3A64733  29.081  30.018   6.843
 4984POPC   C4A64734  28.906  30.225   7.206
 4984POPC   C1B64735  29.397  29.530   6.068
 4984POPC   C2B64736  29.474  29.490   6.507
 4984POPC   C3B64737  29.413  29.626   6.951
 4984POPC   C4B64738  29.346  29.955   7.266
 4985POPC   NC364739  40.194  39.509   5.592
 4985POPC   PO464740  39.884  39.001   5.233
 4985POPC   GL164741  39.853  38.971   5.730
 4985POPC   GL264742  40.187  38.899   5.882
 4985POPC   C1A64743  39.895  39.201   6.182
 4985POPC   D2A64744  39.734  39.475   6.565
 4985POPC   C3A64745  39.894  39.425   7.012
 4985POPC   C4A64746  39.760  39.170   7.383
 4985POPC   C1B64747  40.343  38.952   6.318
 4985POPC   C2B64748  40.368  39.116   6.744
 4985POPC   C3B64749  40.189  39.027   7.138
 4985POPC   C4B64750  40.365  39.095   7.530
 4986POPC   NC364751  16.993   3.383   5.521
 4986POPC   PO464752  16.684   2.836   5.333
 4986POPC   GL164753  16.706   2.673   5.770
 4986POPC   GL264754  16.944   2.955   5.813
 4986POPC   C1A64755  16.735   2.407   6.177
 4986POPC   D2A64756  16.871   2.221   6.596
 4986POPC   C3A64757  16.711   2.427   6.958
 4986POPC   C4A64758  16.538   2.775   7.179
 4986POPC   C1B64759  17.102   2.770   6.174
 4986POPC   C2B64760  16.884   2.743   6.557
 4986POPC   C3B64761  17.028   2.852   6.953
 4986POPC   C4B64762  17.006   2.921   7.366
 4987POPC   NC364763  33.490   8.408   5.503
 4987POPC   PO464764  34.106   8.202   5.401
 4987POPC   GL164765  33.841   8.179   5.810
 4987POPC   GL264766  33.710   7.874   5.837
 4987POPC   C1A64767  33.832   8.104   6.294
 4987POPC   D2A64768  34.029   8.295   6.674
 4987POPC   C3A64769  33.796   8.439   7.014
 4987POPC   C4A64770  33.644   8.250   7.339
 4987POPC   C1B64771  33.483   7.751   6.163
 4987POPC   C2B64772  33.372   7.905   6.575
 4987POPC   C3B64773  33.610   7.915   6.951
 4987POPC   C4B64774  33.849   7.791   7.328
 4988POPC   NC364775  21.316  29.691   5.318
 4988POPC   PO464776  20.872  30.152   5.165
 4988POPC   GL164777  21.288  30.135   5.549
 4988POPC   GL264778  21.159  29.815   5.799
 4988POPC   C1A64779  21.514  30.126   5.999
 4988POPC   D2A64780  21.621  30.249   6.454
 4988POPC   C3A64781  21.555  29.993   6.826
 4988POPC   C4A64782  21.550  29.996   7.274
 4988POPC   C1B64783  21.035  29.939   6.257
 4988POPC   C2B64784  20.974  30.067   6.697
 4988POPC   C3B64785  21.096  29.880   7.073
 4988POPC   C4B64786  21.130  29.734   7.527
 4989POPC   NC364787  27.203   9.497   5.458
 4989POPC   PO464788  27.758   9.894   5.237
 4989POPC   GL164789  27.551   9.884   5.687
 4989POPC   GL264790  27.429   9.580   5.891
 4989POPC   C1A64791  27.705   9.913   6.137
 4989POPC   D2A64792  27.534   9.951   6.542
 4989POPC   C3A64793  27.618   9.641   6.823
 4989POPC   C4A64794  27.750   9.693   7.232
 4989POPC   C1B64795  27.188   9.823   6.202
 4989POPC   C2B64796  27.037   9.856   6.631
 4989POPC   C3B64797  27.249   9.953   7.032
 4989POPC   C4B64798  27.260   9.660   7.360
 4990POPC   NC364799  28.472  18.187   5.521
 4990POPC   PO464800  29.003  18.559   5.395
 4990POPC   GL164801  29.016  18.263   5.730
 4990POPC   GL264802  28.745  18.398   5.897
 4990POPC   C1A64803  29.160  18.137   6.160
 4990POPC   D2A64804  29.400  18.274   6.528
 4990POPC   C3A64805  29.268  18.140   6.954
 4990POPC   C4A64806  29.556  18.147   7.302
 4990POPC   C1B64807  28.808  18.544   6.303
 4990POPC   C2B64808  28.964  18.515   6.705
 4990POPC   C3B64809  28.807  18.529   7.116
 4990POPC   C4B64810  28.879  18.770   7.511
 4991POPC   NC364811   7.822  20.392   5.497
 4991POPC   PO464812   7.347  20.001   5.241
 4991POPC   GL164813   7.430  20.008   5.678
 4991POPC   GL264814   7.402  20.325   5.812
 4991POPC   C1A64815   7.379  19.776   6.060
 4991POPC   D2A64816   7.049  19.752   6.370
 4991POPC   C3A64817   7.251  19.674   6.740
 4991POPC   C4A64818   7.181  19.541   7.109
 4991POPC   C1B64819   7.712  20.178   6.128
 4991POPC   C2B64820   7.700  19.946   6.519
 4991POPC   C3B64821   7.592  19.976   6.980
 4991POPC   C4B64822   7.613  20.291   7.301
 4992POPC   NC364823  13.025  37.644   5.360
 4992POPC   PO464824  12.349  37.673   5.401
 4992POPC   GL164825  12.579  37.541   5.775
 4992POPC   GL264826  12.905  37.499   5.824
 4992POPC   C1A64827  12.519  37.405   6.182
 4992POPC   D2A64828  12.615  37.674   6.522
 4992POPC   C3A64829  12.564  37.508   6.916
 4992POPC   C4A64830  12.643  37.873   7.213
 4992POPC   C1B64831  13.007  37.583   6.214
 4992POPC   C2B64832  13.046  37.406   6.601
 4992POPC   C3B64833  13.056  37.622   6.976
 4992POPC   C4B64834  13.287  37.542   7.291
 4993POPC   NC364835  25.633  20.925   5.356
 4993POPC   PO464836  25.212  20.322   5.595
 4993POPC   GL164837  25.464  20.513   5.900
 4993POPC   GL264838  25.622  20.847   5.863
 4993POPC   C1A64839  25.509  20.409   6.348
 4993POPC   D2A64840  25.596  20.255   6.778
 4993POPC   C3A64841  25.289  20.394   7.121
 4993POPC   C4A64842  25.100  20.300   7.527
 4993POPC   C1B64843  25.414  20.939   6.248
 4993POPC   C2B64844  25.240  20.776   6.621
 4993POPC   C3B64845  25.161  20.878   7.054
 4993POPC   C4B64846  25.403  20.808   7.434
 4994POPC   NC364847  21.458  26.510   5.571
 4994POPC   PO464848  21.309  25.819   5.431
 4994POPC   GL164849  21.318  26.032   5.807
 4994POPC   GL264850  21.673  25.923   5.889
 4994POPC   C1A64851  21.202  25.878   6.224
 4994POPC   D2A64852  21.397  25.673   6.561
 4994POPC   C3A64853  21.186  25.793   6.933
 4994POPC   C4A64854  21.421  25.837   7.283
 4994POPC   C1B64855  21.573  26.214   6.228
 4994POPC   C2B64856  21.218  26.367   6.488
 4994POPC   C3B64857  21.004  26.437   6.887
 4994POPC   C4B64858  21.069  26.208   7.258
 4995POPC   NC364859  21.194  23.957   5.422
 4995POPC   PO464860  21.530  23.351   5.481
 4995POPC   GL164861  21.317  23.577   5.815
 4995POPC   GL264862  21.346  23.952   5.889
 4995POPC   C1A64863  21.427  23.589   6.262
 4995POPC   D2A64864  21.468  23.340   6.610
 4995POPC   C3A64865  21.629  23.477   6.991
 4995POPC   C4A64866  21.238  23.449   7.212
 4995POPC   C1B64867  21.565  24.075   6.232
 4995POPC   C2B64868  21.326  23.998   6.607
 4995POPC   C3B64869  21.367  23.960   7.046
 4995POPC   C4B64870  21.466  24.067   7.480
 4996POPC   NC364871  39.887  21.004   5.563
 4996POPC   PO464872  40.372  21.531   5.422
 4996POPC   GL164873  40.202  21.354   5.778
 4996POPC   GL264874  40.292  21.015   5.911
 4996POPC   C1A64875  39.972  21.509   6.131
 4996POPC   D2A64876  39.717  21.428   6.467
 4996POPC   C3A64877  39.823  21.581   6.855
 4996POPC   C4A64878  40.011  21.387   7.188
 4996POPC   C1B64879  40.027  21.004   6.307
 4996POPC   C2B64880  39.905  21.025   6.767
 4996POPC   C3B64881  39.588  21.129   7.083
 4996POPC   C4B64882  39.530  21.172   7.553
 4997POPC   NC364883  15.946   0.725   5.355
 4997POPC   PO464884  16.045   1.398   5.413
 4997POPC   GL164885  16.053   1.386   5.837
 4997POPC   GL264886  15.858   1.136   5.861
 4997POPC   C1A64887  16.068   1.254   6.293
 4997POPC   D2A64888  15.833   1.295   6.645
 4997POPC   C3A64889  15.988   1.235   7.018
 4997POPC   C4A64890  16.331   1.060   7.193
 4997POPC   C1B64891  15.588   1.375   6.177
 4997POPC   C2B64892  15.401   1.558   6.588
 4997POPC   C3B64893  15.450   1.519   7.047
 4997POPC   C4B64894  15.663   1.295   7.391
 4998POPC   NC364895  23.466  10.428   5.325
 4998POPC   PO464896  22.843  10.602   5.404
 4998POPC   GL164897  22.877  10.602   5.851
 4998POPC   GL264898  23.244  10.659   5.808
 4998POPC   C1A64899  22.609  10.501   6.250
 4998POPC   D2A64900  22.708  10.352   6.673
 4998POPC   C3A64901  22.754  10.584   7.064
 4998POPC   C4A64902  22.830  10.462   7.491
 4998POPC   C1B64903  23.298  10.747   6.257
 4998POPC   C2B64904  23.163  10.620   6.674
 4998POPC   C3B64905  23.253  10.625   7.128
 4998POPC   C4B64906  23.290  10.597   7.582
 4999POPC   NC364907  21.973  32.613   5.192
 4999POPC   PO464908  22.162  31.999   5.305
 4999POPC   GL164909  22.199  31.995   5.776
 4999POPC   GL264910  22.536  32.064   5.901
 4999POPC   C1A64911  21.891  32.033   6.115
 4999POPC   D2A64912  21.790  32.407   6.367
 4999POPC   C3A64913  21.809  32.427   6.813
 4999POPC   C4A64914  22.029  32.423   7.221
 4999POPC   C1B64915  22.322  32.335   6.226
 4999POPC   C2B64916  22.310  32.256   6.677
 4999POPC   C3B64917  22.502  32.420   7.043
 4999POPC   C4B64918  22.484  32.338   7.515
 5000POPC   NC364919  21.166  19.314   5.425
 5000POPC   PO464920  21.719  19.019   5.167
 5000POPC   GL164921  21.468  19.001   5.667
 5000POPC   GL264922  21.167  19.077   5.851
 5000POPC   C1A64923  21.533  19.090   6.178
 5000POPC   D2A64924  21.248  19.274   6.518
 5000POPC   C3A64925  21.141  19.212   6.938
 5000POPC   C4A64926  21.294  19.120   7.345
 5000POPC   C1B64927  21.076  18.860   6.202
 5000POPC   C2B64928  21.331  18.759   6.582
 5000POPC   C3B64929  21.268  18.697   7.021
 5000POPC   C4B64930  21.203  18.647   7.458
 5001POPC   NC364931  14.821  26.452   5.606
 5001POPC   PO464932  15.187  26.992   5.492
 5001POPC   GL164933  15.136  26.783   5.837
 5001POPC   GL264934  15.293  26.443   5.849
 5001POPC   C1A64935  14.891  26.826   6.184
 5001POPC   D2A64936  15.091  26.897   6.553
 5001POPC   C3A64937  14.978  26.944   6.918
 5001POPC   C4A64938  15.179  27.227   7.187
 5001POPC   C1B64939  15.075  26.371   6.255
 5001POPC   C2B64940  14.914  26.458   6.699
 5001POPC   C3B64941  15.099  26.483   7.157
 5001POPC   C4B64942  15.420  26.352   7.497
 5002POPC   NC364943  34.724  12.277   5.195
 5002POPC   PO464944  34.617  11.650   5.446
 5002POPC   GL164945  34.558  12.104   5.659
 5002POPC   GL264946  34.819  12.370   5.675
 5002POPC   C1A64947  34.516  12.268   6.105
 5002POPC   D2A64948  34.594  11.980   6.464
 5002POPC   C3A64949  34.594  12.154   6.868
 5002POPC   C4A64950  34.477  12.043   7.255
 5002POPC   C1B64951  35.014  12.249   6.039
 5002POPC   C2B64952  34.991  12.304   6.474
 5002POPC   C3B64953  35.060  12.350   6.911
 5002POPC   C4B64954  34.895  12.294   7.363
 5003POPC   NC364955  41.876  35.707   5.074
 5003POPC   PO464956  41.444  36.129   5.435
 5003POPC   GL164957  41.420  36.045   5.864
 5003POPC   GL264958  41.620  35.758   5.854
 5003POPC   C1A64959  41.574  36.215   6.256
 5003POPC   D2A64960  41.527  36.497   6.580
 5003POPC   C3A64961  41.638  36.326   6.970
 5003POPC   C4A64962  41.417  36.250   7.340
 5003POPC   C1B64963  41.593  35.711   6.304
 5003POPC   C2B64964  41.744  35.900   6.699
 5003POPC   C3B64965  41.642  35.830   7.154
 5003POPC   C4B64966  41.790  35.754   7.605
 5004POPC   NC364967  20.422  35.128   5.143
 5004POPC   PO464968  20.709  35.771   5.247
 5004POPC   GL164969  20.611  35.466   5.653
 5004POPC   GL264970  20.889  35.305   5.826
 5004POPC   C1A64971  20.486  35.260   6.107
 5004POPC   D2A64972  20.446  35.525   6.514
 5004POPC   C3A64973  20.565  35.363   6.940
 5004POPC   C4A64974  20.365  35.072   7.241
 5004POPC   C1B64975  20.882  35.556   6.175
 5004POPC   C2B64976  20.980  35.398   6.571
 5004POPC   C3B64977  21.041  35.563   6.972
 5004POPC   C4B64978  20.875  35.389   7.360
 5005POPC   NC364979   1.631  16.043   5.415
 5005POPC   PO464980   1.099  15.679   5.329
 5005POPC   GL164981   1.201  15.934   5.749
 5005POPC   GL264982   0.981  16.245   5.853
 5005POPC   C1A64983   1.339  15.867   6.225
 5005POPC   D2A64984   1.118  16.127   6.587
 5005POPC   C3A64985   1.190  15.910   6.982
 5005POPC   C4A64986   1.522  15.588   7.095
 5005POPC   C1B64987   0.863  15.948   6.169
 5005POPC   C2B64988   0.900  15.680   6.553
 5005POPC   C3B64989   0.705  15.693   6.949
 5005POPC   C4B64990   0.742  15.970   7.269
 5006POPC   NC364991  12.609   5.526   5.152
 5006POPC   PO464992  12.946   4.983   5.432
 5006POPC   GL164993  12.956   5.120   5.815
 5006POPC   GL264994  12.623   5.204   5.785
 5006POPC   C1A64995  12.855   5.079   6.231
 5006POPC   D2A64996  12.920   5.221   6.615
 5006POPC   C3A64997  12.866   5.006   6.947
 5006POPC   C4A64998  13.117   5.152   7.220
 5006POPC   C1B64999  12.509   5.467   6.146
 5006POPC   C2B65000  12.595   5.591   6.550
 5006POPC   C3B65001  12.505   5.388   6.917
 5006POPC   C4B65002  12.661   5.380   7.320
 5007POPC   NC365003  17.352   3.812   5.429
 5007POPC   PO465004  17.805   3.339   5.211
 5007POPC   GL165005  17.895   3.564   5.724
 5007POPC   GL265006  17.685   3.836   5.796
 5007POPC   C1A65007  17.631   3.514   6.188
 5007POPC   D2A65008  17.365   3.523   6.600
 5007POPC   C3A65009  17.433   3.499   7.067
 5007POPC   C4A65010  17.364   3.283   7.437
 5007POPC   C1B65011  17.483   4.007   6.191
 5007POPC   C2B65012  17.254   4.018   6.585
 5007POPC   C3B65013  17.179   3.929   7.012
 5007POPC   C4B65014  17.597   3.977   7.185
 5008POPC   NC365015  10.484   2.994   5.385
 5008POPC   PO465016  10.891   2.440   5.353
 5008POPC   GL165017  10.684   2.693   5.738
 5008POPC   GL265018  10.722   3.097   5.827
 5008POPC   C1A65019  10.666   2.731   6.192
 5008POPC   D2A65020  10.971   2.695   6.523
 5008POPC   C3A65021  10.841   2.479   6.907
 5008POPC   C4A65022  10.602   2.642   7.253
 5008POPC   C1B65023  10.532   3.232   6.276
 5008POPC   C2B65024  10.391   2.978   6.604
 5008POPC   C3B65025  10.312   2.988   7.030
 5008POPC   C4B65026  10.440   3.083   7.460
 5009POPC   NC365027  24.086  40.757   4.936
 5009POPC   PO465028  23.827  40.961   5.619
 5009POPC   GL165029  24.268  40.896   5.847
 5009POPC   GL265030  24.634  41.002   5.852
 5009POPC   C1A65031  24.451  40.732   6.268
 5009POPC   D2A65032  24.238  40.637   6.647
 5009POPC   C3A65033  24.255  40.792   7.055
 5009POPC   C4A65034  24.218  41.117   7.372
 5009POPC   C1B65035  24.765  41.130   6.295
 5009POPC   C2B65036  24.696  40.933   6.713
 5009POPC   C3B65037  24.706  40.952   7.163
 5009POPC   C4B65038  24.690  41.113   7.563
 5010POPC   NC365039   0.677  10.210   5.597
 5010POPC   PO465040   0.069   9.934   5.518
 5010POPC   GL165041   0.434   9.786   5.773
 5010POPC   GL265042   0.369  10.078   5.988
 5010POPC   C1A65043   0.740   9.780   6.151
 5010POPC   D2A65044   0.495   9.917   6.526
 5010POPC   C3A65045   0.690   9.755   6.917
 5010POPC   C4A65046   0.511   9.541   7.266
 5010POPC   C1B65047   0.213  10.357   6.310
 5010POPC   C2B65048   0.128  10.231   6.717
 5010POPC   C3B65049   0.279  10.002   7.041
 5010POPC   C4B65050   0.379  10.003   7.472
 5011POPC   NC365051  24.030  43.643   5.082
 5011POPC   PO465052  24.548  44.037   5.367
 5011POPC   GL165053  24.615  43.880   5.755
 5011POPC   GL265054  24.304  44.034   5.892
 5011POPC   C1A65055  24.643  43.771   6.182
 5011POPC   D2A65056  24.407  43.695   6.563
 5011POPC   C3A65057  24.627  43.843   6.920
 5011POPC   C4A65058  24.980  43.620   7.050
 5011POPC   C1B65059  24.065  43.955   6.280
 5011POPC   C2B65060  24.080  44.053   6.728
 5011POPC   C3B65061  24.155  43.818   7.113
 5011POPC   C4B65062  24.132  43.921   7.565
 5012POPC   NC365063  31.622   5.895   5.269
 5012POPC   PO465064  31.140   5.483   5.256
 5012POPC   GL165065  31.244   5.805   5.630
 5012POPC   GL265066  31.598   5.894   5.762
 5012POPC   C1A65067  31.239   5.895   6.110
 5012POPC   D2A65068  31.473   5.912   6.518
 5012POPC   C3A65069  31.277   5.830   6.916
 5012POPC   C4A65070  31.233   6.061   7.281
 5012POPC   C1B65071  31.764   5.744   6.133
 5012POPC   C2B65072  31.973   5.808   6.541
 5012POPC   C3B65073  31.793   5.710   6.944
 5012POPC   C4B65074  31.709   5.937   7.314
 5013POPC   NC365075   1.609  44.831   5.455
 5013POPC   PO465076   1.880  44.335   5.464
 5013POPC   GL165077   1.820  44.542   5.839
 5013POPC   GL265078   1.477  44.463   5.837
 5013POPC   C1A65079   2.038  44.722   6.238
 5013POPC   D2A65080   2.140  44.915   6.666
 5013POPC   C3A65081   2.197  44.700   7.081
 5013POPC   C4A65082   2.154  44.818   7.545
 5013POPC   C1B65083   1.562  44.536   6.284
 5013POPC   C2B65084   1.809  44.521   6.664
 5013POPC   C3B65085   1.714  44.770   7.031
 5013POPC   C4B65086   1.728  44.577   7.437
 5014POPC   NC365087   4.932   6.861   5.452
 5014POPC   PO465088   5.148   6.293   5.467
 5014POPC   GL165089   5.035   6.512   5.870
 5014POPC   GL265090   5.061   6.881   5.937
 5014POPC   C1A65091   5.278   6.551   6.285
 5014POPC   D2A65092   5.429   6.655   6.714
 5014POPC   C3A65093   5.034   6.698   6.969
 5014POPC   C4A65094   4.621   6.527   7.099
 5014POPC   C1B65095   4.894   6.920   6.344
 5014POPC   C2B65096   4.753   7.240   6.641
 5014POPC   C3B65097   4.767   7.119   7.091
 5014POPC   C4B65098   4.813   7.065   7.566
 5015POPC   NC365099  36.203  18.648   5.585
 5015POPC   PO465100  36.333  18.013   5.451
 5015POPC   GL165101  36.130  18.207   5.807
 5015POPC   GL265102  36.335  18.457   6.036
 5015POPC   C1A65103  35.915  18.235   6.198
 5015POPC   D2A65104  35.816  17.978   6.495
 5015POPC   C3A65105  35.829  18.235   6.827
 5015POPC   C4A65106  35.853  18.256   7.258
 5015POPC   C1B65107  36.026  18.787   6.227
 5015POPC   C2B65108  35.796  18.790   6.638
 5015POPC   C3B65109  36.043  18.689   7.023
 5015POPC   C4B65110  36.353  18.383   7.217
 5016POPC   NC365111  17.181   1.335   5.233
 5016POPC   PO465112  17.728   1.096   5.489
 5016POPC   GL165113  17.353   1.104   5.746
 5016POPC   GL265114  17.299   1.491   5.773
 5016POPC   C1A65115  17.291   0.875   6.175
 5016POPC   D2A65116  17.342   1.085   6.590
 5016POPC   C3A65117  17.681   1.040   6.898
 5016POPC   C4A65118  17.631   1.050   7.346
 5016POPC   C1B65119  17.384   1.579   6.253
 5016POPC   C2B65120  17.578   1.535   6.709
 5016POPC   C3B65121  17.344   1.414   7.092
 5016POPC   C4B65122  17.355   1.446   7.543
 5017POPC   NC365123  31.221  40.890   5.098
 5017POPC   PO465124  30.508  40.997   5.168
 5017POPC   GL165125  30.513  40.854   5.654
 5017POPC   GL265126  30.771  40.659   5.902
 5017POPC   C1A65127  30.429  40.958   6.106
 5017POPC   D2A65128  30.622  40.890   6.501
 5017POPC   C3A65129  30.411  40.836   6.854
 5017POPC   C4A65130  30.659  40.694   7.189
 5017POPC   C1B65131  30.936  41.050   6.140
 5017POPC   C2B65132  31.071  41.182   6.577
 5017POPC   C3B65133  30.854  41.152   6.991
 5017POPC   C4B65134  30.856  41.104   7.476
 5018POPC   NC365135  17.938  37.352   5.330
 5018POPC   PO465136  17.925  38.049   5.431
 5018POPC   GL165137  18.108  37.819   5.824
 5018POPC   GL265138  18.171  37.481   5.767
 5018POPC   C1A65139  18.273  37.687   6.242
 5018POPC   D2A65140  18.615  37.627   6.537
 5018POPC   C3A65141  18.682  37.860   6.916
 5018POPC   C4A65142  18.519  37.678   7.288
 5018POPC   C1B65143  18.071  37.212   6.115
 5018POPC   C2B65144  17.912  37.226   6.538
 5018POPC   C3B65145  17.963  37.631   6.791
 5018POPC   C4B65146  18.005  37.594   7.248
 5019POPC   NC365147  37.237   7.538   5.386
 5019POPC   PO465148  36.607   7.276   5.449
 5019POPC   GL165149  36.853   7.400   5.810
 5019POPC   GL265150  37.045   7.080   5.827
 5019POPC   C1A65151  36.712   7.585   6.238
 5019POPC   D2A65152  36.623   7.715   6.672
 5019POPC   C3A65153  36.799   7.574   7.075
 5019POPC   C4A65154  36.972   7.835   7.421
 5019POPC   C1B65155  37.078   7.233   6.259
 5019POPC   C2B65156  37.096   7.444   6.638
 5019POPC   C3B65157  37.203   7.272   6.996
 5019POPC   C4B65158  36.923   7.029   7.186
 5020POPC   NC365159  28.040  33.261   5.605
 5020POPC   PO465160  28.604  32.829   5.516
 5020POPC   GL165161  28.423  33.007   5.877
 5020POPC   GL265162  28.505  33.352   5.886
 5020POPC   C1A65163  28.170  33.007   6.264
 5020POPC   D2A65164  27.956  32.836   6.602
 5020POPC   C3A65165  28.263  32.927   6.895
 5020POPC   C4A65166  28.183  33.115   7.271
 5020POPC   C1B65167  28.627  33.261   6.318
 5020POPC   C2B65168  28.683  33.380   6.751
 5020POPC   C3B65169  28.683  33.190   7.135
 5020POPC   C4B65170  28.632  32.764   7.231
 5021POPC   NC365171  16.616   9.369   5.458
 5021POPC   PO465172  16.985  10.007   5.495
 5021POPC   GL165173  16.735   9.762   5.794
 5021POPC   GL265174  16.937   9.476   5.846
 5021POPC   C1A65175  16.466   9.740   6.206
 5021POPC   D2A65176  16.332   9.867   6.657
 5021POPC   C3A65177  16.590   9.691   7.021
 5021POPC   C4A65178  16.641   9.415   7.386
 5021POPC   C1B65179  16.961   9.692   6.250
 5021POPC   C2B65180  16.970   9.685   6.677
 5021POPC   C3B65181  17.117   9.747   7.068
 5021POPC   C4B65182  17.041   9.709   7.524
 5022POPC   NC365183  44.433  42.002   5.506
 5022POPC   PO465184   0.005  42.335   5.359
 5022POPC   GL165185  44.796  42.434   5.754
 5022POPC   GL265186  44.438  42.316   5.893
 5022POPC   C1A65187  44.859  42.365   6.185
 5022POPC   D2A65188  44.738  42.464   6.593
 5022POPC   C3A65189   0.010  42.256   6.842
 5022POPC   C4A65190   0.037  42.155   7.262
 5022POPC   C1B65191  44.168  42.600   6.144
 5022POPC   C2B65192  44.175  42.820   6.546
 5022POPC   C3B65193  44.350  42.667   6.915
 5022POPC   C4B65194  44.559  42.309   7.123
 5023POPC   NC365195   3.252  12.375   5.383
 5023POPC   PO465196   2.763  11.868   5.491
 5023POPC   GL165197   2.774  11.985   5.859
 5023POPC   GL265198   3.055  12.186   5.818
 5023POPC   C1A65199   2.684  11.834   6.249
 5023POPC   D2A65200   2.756  11.980   6.659
 5023POPC   C3A65201   2.521  12.105   6.983
 5023POPC   C4A65202   2.750  12.040   7.365
 5023POPC   C1B65203   3.272  12.358   6.172
 5023POPC   C2B65204   3.204  12.202   6.595
 5023POPC   C3B65205   3.023  12.315   7.019
 5023POPC   C4B65206   3.061  12.515   7.442
 5024POPC   NC365207  25.745   3.047   5.403
 5024POPC   PO465208  25.928   2.434   5.617
 5024POPC   GL165209  26.271   2.670   5.748
 5024POPC   GL265210  26.011   2.895   5.872
 5024POPC   C1A65211  26.370   2.613   6.167
 5024POPC   D2A65212  26.093   2.630   6.514
 5024POPC   C3A65213  26.166   2.801   6.918
 5024POPC   C4A65214  25.970   2.528   7.205
 5024POPC   C1B65215  25.903   3.053   6.288
 5024POPC   C2B65216  25.713   2.936   6.694
 5024POPC   C3B65217  25.749   3.031   7.115
 5024POPC   C4B65218  26.091   3.249   7.248
 5025POPC   NC365219  10.441  26.628   5.632
 5025POPC   PO465220  10.916  26.855   5.180
 5025POPC   GL165221  10.787  26.968   5.702
 5025POPC   GL265222  10.820  26.732   5.988
 5025POPC   C1A65223  10.447  26.988   6.166
 5025POPC   D2A65224  10.434  27.138   6.558
 5025POPC   C3A65225  10.672  26.938   6.844
 5025POPC   C4A65226  10.427  26.954   7.208
 5025POPC   C1B65227  10.527  26.458   6.256
 5025POPC   C2B65228  10.404  26.501   6.678
 5025POPC   C3B65229  10.581  26.476   7.084
 5025POPC   C4B65230  10.452  26.535   7.517
 5026POPC   NC365231  39.707  34.956   5.151
 5026POPC   PO465232  40.186  35.478   5.146
 5026POPC   GL165233  40.092  35.417   5.596
 5026POPC   GL265234  39.734  35.282   5.694
 5026POPC   C1A65235  40.072  35.414   6.053
 5026POPC   D2A65236  39.880  35.477   6.458
 5026POPC   C3A65237  40.121  35.428   6.794
 5026POPC   C4A65238  40.010  35.457   7.192
 5026POPC   C1B65239  39.599  35.184   6.139
 5026POPC   C2B65240  39.674  34.976   6.508
 5026POPC   C3B65241  39.667  35.165   6.885
 5026POPC   C4B65242  39.768  35.014   7.268
 5027POPC   NC365243  19.365   0.911   5.522
 5027POPC   PO465244  18.718   1.097   5.346
 5027POPC   GL165245  18.922   0.937   5.762
 5027POPC   GL265246  19.069   1.211   5.837
 5027POPC   C1A65247  19.104   0.892   6.238
 5027POPC   D2A65248  19.072   1.175   6.575
 5027POPC   C3A65249  19.090   1.195   7.012
 5027POPC   C4A65250  18.911   1.194   7.398
 5027POPC   C1B65251  19.298   1.401   6.178
 5027POPC   C2B65252  19.189   1.679   6.528
 5027POPC   C3B65253  19.349   1.634   6.941
 5027POPC   C4B65254  19.346   1.476   7.393
 5028POPC   NC365255  14.593   7.778   5.399
 5028POPC   PO465256  14.129   7.416   5.135
 5028POPC   GL165257  14.149   7.586   5.645
 5028POPC   GL265258  14.299   7.920   5.805
 5028POPC   C1A65259  14.306   7.488   6.123
 5028POPC   D2A65260  14.217   7.472   6.609
 5028POPC   C3A65261  14.407   7.228   6.933
 5028POPC   C4A65262  14.721   7.077   7.198
 5028POPC   C1B65263  14.510   7.939   6.225
 5028POPC   C2B65264  14.697   7.632   6.503
 5028POPC   C3B65265  14.667   7.672   6.929
 5028POPC   C4B65266  14.418   7.612   7.295
 5029POPC   NC365267  13.071  34.870   5.331
 5029POPC   PO465268  12.451  34.675   5.453
 5029POPC   GL165269  12.832  34.658   5.754
 5029POPC   GL265270  12.958  34.990   5.817
 5029POPC   C1A65271  12.951  34.544   6.212
 5029POPC   D2A65272  13.043  34.531   6.682
 5029POPC   C3A65273  12.717  34.622   7.037
 5029POPC   C4A65274  12.752  34.534   7.494
 5029POPC   C1B65275  12.646  34.939   6.144
 5029POPC   C2B65276  12.899  35.009   6.521
 5029POPC   C3B65277  13.084  34.967   6.935
 5029POPC   C4B65278  12.950  35.003   7.329
 5030POPC   NC365279  30.874  27.826   5.464
 5030POPC   PO465280  30.771  27.196   5.251
 5030POPC   GL165281  30.707  27.373   5.692
 5030POPC   GL265282  30.409  27.236   5.830
 5030POPC   C1A65283  30.738  27.702   6.075
 5030POPC   D2A65284  30.580  27.920   6.450
 5030POPC   C3A65285  30.672  27.846   6.901
 5030POPC   C4A65286  30.944  27.911   7.255
 5030POPC   C1B65287  30.660  27.219   6.190
 5030POPC   C2B65288  30.647  27.411   6.590
 5030POPC   C3B65289  30.499  27.355   7.002
 5030POPC   C4B65290  30.779  27.411   7.334
 5031POPC   NC365291  18.731  40.144   5.475
 5031POPC   PO465292  19.435  39.784   5.503
 5031POPC   GL165293  19.190  40.047   5.724
 5031POPC   GL265294  18.930  39.775   5.732
 5031POPC   C1A65295  19.034  40.115   6.114
 5031POPC   D2A65296  19.064  39.806   6.464
 5031POPC   C3A65297  19.184  39.959   6.867
 5031POPC   C4A65298  19.353  39.747   7.220
 5031POPC   C1B65299  18.665  39.792   6.112
 5031POPC   C2B65300  18.619  40.055   6.512
 5031POPC   C3B65301  18.665  40.035   6.982
 5031POPC   C4B65302  18.961  40.043   7.346
 5032POPC   NC365303  28.843  24.653   5.367
 5032POPC   PO465304  29.166  24.103   5.113
 5032POPC   GL165305  29.261  24.228   5.607
 5032POPC   GL265306  29.205  24.582   5.718
 5032POPC   C1A65307  29.218  24.254   6.123
 5032POPC   D2A65308  29.219  24.288   6.623
 5032POPC   C3A65309  28.920  24.292   6.962
 5032POPC   C4A65310  28.817  24.188   7.396
 5032POPC   C1B65311  28.914  24.685   6.073
 5032POPC   C2B65312  29.111  24.769   6.477
 5032POPC   C3B65313  29.122  24.765   6.922
 5032POPC   C4B65314  28.865  25.010   7.200
 5033POPC   NC365315  39.851  27.067   5.408
 5033POPC   PO465316  40.288  26.597   5.416
 5033POPC   GL165317  40.034  26.697   5.743
 5033POPC   GL265318  40.192  27.018   5.812
 5033POPC   C1A65319  40.107  26.597   6.163
 5033POPC   D2A65320  39.999  26.519   6.579
 5033POPC   C3A65321  40.107  26.798   6.913
 5033POPC   C4A65322  40.043  26.626   7.336
 5033POPC   C1B65323  39.857  27.055   6.109
 5033POPC   C2B65324  39.764  27.251   6.500
 5033POPC   C3B65325  39.640  27.217   6.938
 5033POPC   C4B65326  39.918  27.136   7.283
 5034POPC   NC365327  13.728  35.056   5.310
 5034POPC   PO465328  13.416  34.611   5.200
 5034POPC   GL165329  13.423  34.753   5.671
 5034POPC   GL265330  13.750  34.860   5.787
 5034POPC   C1A65331  13.370  34.826   6.140
 5034POPC   D2A65332  13.530  34.917   6.568
 5034POPC   C3A65333  13.504  34.636   6.932
 5034POPC   C4A65334  13.199  34.548   7.254
 5034POPC   C1B65335  13.881  35.042   6.191
 5034POPC   C2B65336  14.055  34.957   6.629
 5034POPC   C3B65337  14.017  34.790   7.082
 5034POPC   C4B65338  14.156  34.642   7.543
 5035POPC   NC365339  35.036  24.552   5.354
 5035POPC   PO465340  35.572  24.178   5.534
 5035POPC   GL165341  35.336  24.486   5.795
 5035POPC   GL265342  35.130  24.811   5.767
 5035POPC   C1A65343  35.472  24.522   6.211
 5035POPC   D2A65344  35.696  24.471   6.573
 5035POPC   C3A65345  35.530  24.594   6.931
 5035POPC   C4A65346  35.488  24.357   7.270
 5035POPC   C1B65347  35.048  24.813   6.183
 5035POPC   C2B65348  35.225  24.812   6.575
 5035POPC   C3B65349  35.125  25.016   6.947
 5035POPC   C4B65350  35.376  24.942   7.295
 5036POPC   NC365351  12.364  37.197   5.484
 5036POPC   PO465352  12.530  36.570   5.509
 5036POPC   GL165353  12.315  36.707   5.876
 5036POPC   GL265354  12.045  36.865   5.725
 5036POPC   C1A65355  12.285  36.948   6.268
 5036POPC   D2A65356  12.248  37.063   6.709
 5036POPC   C3A65357  12.224  36.732   7.003
 5036POPC   C4A65358  12.544  36.730   7.284
 5036POPC   C1B65359  11.838  36.750   6.115
 5036POPC   C2B65360  11.882  36.717   6.549
 5036POPC   C3B65361  11.754  36.922   6.928
 5036POPC   C4B65362  11.857  36.804   7.352
 5037POPC   NC365363   9.330  35.824   5.335
 5037POPC   PO465364   8.944  35.269   5.140
 5037POPC   GL165365   8.967  35.471   5.579
 5037POPC   GL265366   8.736  35.287   5.855
 5037POPC   C1A65367   9.134  35.548   6.031
 5037POPC   D2A65368   8.843  35.683   6.395
 5037POPC   C3A65369   8.974  35.704   6.823
 5037POPC   C4A65370   9.068  35.531   7.198
 5037POPC   C1B65371   8.885  35.170   6.318
 5037POPC   C2B65372   8.881  35.207   6.786
 5037POPC   C3B65373   8.865  35.073   7.225
 5037POPC   C4B65374   8.736  35.019   7.653
 5038POPC   NC365375   0.463   5.466   5.353
 5038POPC   PO465376   0.177   4.778   5.379
 5038POPC   GL165377   0.375   4.982   5.747
 5038POPC   GL265378   0.510   5.319   5.836
 5038POPC   C1A65379   0.321   5.052   6.209
 5038POPC   D2A65380   0.331   5.358   6.580
 5038POPC   C3A65381   0.353   5.139   6.992
 5038POPC   C4A65382   0.233   4.748   7.226
 5038POPC   C1B65383   0.753   5.289   6.263
 5038POPC   C2B65384   0.799   5.306   6.717
 5038POPC   C3B65385   0.780   5.375   7.126
 5038POPC   C4B65386   1.005   5.242   7.456
 5039POPC   NC365387  19.197  25.765   5.342
 5039POPC   PO465388  18.854  26.328   5.431
 5039POPC   GL165389  18.998  26.222   5.829
 5039POPC   GL265390  19.275  26.022   5.771
 5039POPC   C1A65391  19.124  26.295   6.279
 5039POPC   D2A65392  19.281  26.221   6.718
 5039POPC   C3A65393  19.034  26.156   7.098
 5039POPC   C4A65394  18.613  26.098   7.296
 5039POPC   C1B65395  19.130  25.799   6.097
 5039POPC   C2B65396  19.012  25.699   6.496
 5039POPC   C3B65397  19.260  25.744   6.848
 5039POPC   C4B65398  19.472  25.866   7.181
 5040POPC   NC365399  16.761  18.073   5.373
 5040POPC   PO465400  16.379  18.705   5.368
 5040POPC   GL165401  16.492  18.383   5.703
 5040POPC   GL265402  16.839  18.332   5.783
 5040POPC   C1A65403  16.367  18.291   6.135
 5040POPC   D2A65404  16.435  18.148   6.543
 5040POPC   C3A65405  16.383  18.092   6.990
 5040POPC   C4A65406  16.756  18.112   7.285
 5040POPC   C1B65407  16.845  18.469   6.161
 5040POPC   C2B65408  16.887  18.406   6.581
 5040POPC   C3B65409  16.968  18.621   6.934
 5040POPC   C4B65410  17.056  18.526   7.332
 5041POPC   NC365411  23.397  28.583   5.429
 5041POPC   PO465412  22.764  28.391   5.179
 5041POPC   GL165413  22.940  28.324   5.583
 5041POPC   GL265414  22.940  28.668   5.625
 5041POPC   C1A65415  22.864  28.225   6.046
 5041POPC   D2A65416  22.724  28.286   6.512
 5041POPC   C3A65417  22.959  28.125   6.897
 5041POPC   C4A65418  23.246  28.259   7.226
 5041POPC   C1B65419  22.908  28.749   6.067
 5041POPC   C2B65420  22.930  28.806   6.513
 5041POPC   C3B65421  22.932  28.630   6.909
 5041POPC   C4B65422  23.086  28.725   7.303
 5042POPC   NC365423  35.269  18.246   5.461
 5042POPC   PO465424  35.822  18.513   5.371
 5042POPC   GL165425  35.647  18.377   5.786
 5042POPC   GL265426  35.604  18.007   5.870
 5042POPC   C1A65427  35.543  18.591   6.194
 5042POPC   D2A65428  35.337  18.536   6.595
 5042POPC   C3A65429  35.478  18.542   7.016
 5042POPC   C4A65430  35.360  18.179   7.222
 5042POPC   C1B65431  35.374  18.108   6.259
 5042POPC   C2B65432  35.369  18.021   6.721
 5042POPC   C3B65433  35.123  17.772   6.995
 5042POPC   C4B65434  35.167  17.770   7.446
 5043POPC   NC365435  29.282  33.679   5.326
 5043POPC   PO465436  29.032  34.191   5.525
 5043POPC   GL165437  28.834  34.137   5.879
 5043POPC   GL265438  28.704  33.818   5.729
 5043POPC   C1A65439  29.096  34.129   6.246
 5043POPC   D2A65440  29.352  33.820   6.463
 5043POPC   C3A65441  29.235  33.909   6.853
 5043POPC   C4A65442  29.196  34.046   7.235
 5043POPC   C1B65443  28.846  33.685   6.134
 5043POPC   C2B65444  28.837  33.820   6.561
 5043POPC   C3B65445  28.735  33.897   7.010
 5043POPC   C4B65446  28.786  33.777   7.451
 5044POPC   NC365447  15.776   2.206   5.276
 5044POPC   PO465448  16.421   2.071   5.379
 5044POPC   GL165449  16.081   1.888   5.671
 5044POPC   GL265450  15.769   2.079   5.765
 5044POPC   C1A65451  15.942   1.766   6.128
 5044POPC   D2A65452  16.143   1.717   6.519
 5044POPC   C3A65453  15.889   1.754   6.863
 5044POPC   C4A65454  16.040   1.840   7.248
 5044POPC   C1B65455  15.956   2.271   6.143
 5044POPC   C2B65456  15.892   2.215   6.585
 5044POPC   C3B65457  15.831   2.263   7.010
 5044POPC   C4B65458  15.558   1.976   7.208
 5045POPC   NC365459  15.852   9.115   5.400
 5045POPC   PO465460  15.732   8.482   5.503
 5045POPC   GL165461  15.998   8.725   5.810
 5045POPC   GL265462  16.149   9.061   5.827
 5045POPC   C1A65463  15.980   8.888   6.267
 5045POPC   D2A65464  16.124   8.911   6.707
 5045POPC   C3A65465  15.805   8.840   7.017
 5045POPC   C4A65466  15.517   8.748   7.339
 5045POPC   C1B65467  16.417   9.225   6.152
 5045POPC   C2B65468  16.582   9.370   6.560
 5045POPC   C3B65469  16.565   9.148   6.944
 5045POPC   C4B65470  16.227   9.114   7.224
 5046POPC   NC365471   8.827   7.446   5.434
 5046POPC   PO465472   8.726   7.941   5.838
 5046POPC   GL165473   8.800   7.497   5.955
 5046POPC   GL265474   9.066   7.250   5.880
 5046POPC   C1A65475   8.825   7.345   6.365
 5046POPC   D2A65476   8.640   7.558   6.702
 5046POPC   C3A65477   8.875   7.492   7.048
 5046POPC   C4A65478   8.872   7.084   7.210
 5046POPC   C1B65479   9.294   7.525   6.213
 5046POPC   C2B65480   9.247   7.596   6.688
 5046POPC   C3B65481   9.370   7.643   7.152
 5046POPC   C4B65482   9.391   7.811   7.601
 5047POPC   NC365483  27.173  27.219   5.640
 5047POPC   PO465484  27.743  26.940   5.270
 5047POPC   GL165485  27.633  26.968   5.692
 5047POPC   GL265486  27.658  27.350   5.746
 5047POPC   C1A65487  27.739  26.729   6.081
 5047POPC   D2A65488  27.581  26.588   6.517
 5047POPC   C3A65489  27.506  26.669   6.970
 5047POPC   C4A65490  27.404  26.708   7.429
 5047POPC   C1B65491  27.737  27.225   6.181
 5047POPC   C2B65492  27.959  26.954   6.480
 5047POPC   C3B65493  27.963  27.001   6.897
 5047POPC   C4B65494  28.032  27.291   7.229
 5048POPC   NC365495  15.161  35.524   5.501
 5048POPC   PO465496  14.680  35.090   5.448
 5048POPC   GL165497  14.922  35.240   5.874
 5048POPC   GL265498  15.201  35.487   5.988
 5048POPC   C1A65499  14.769  35.537   6.244
 5048POPC   D2A65500  14.965  35.764   6.583
 5048POPC   C3A65501  15.093  35.568   6.988
 5048POPC   C4A65502  14.907  35.153   7.085
 5048POPC   C1B65503  15.382  35.556   6.371
 5048POPC   C2B65504  15.532  35.364   6.736
 5048POPC   C3B65505  15.433  35.193   7.114
 5048POPC   C4B65506  15.442  35.430   7.450
 5049POPC   NC365507  14.728   3.863   5.081
 5049POPC   PO465508  15.164   3.480   5.412
 5049POPC   GL165509  15.231   3.466   5.834
 5049POPC   GL265510  15.176   3.077   5.816
 5049POPC   C1A65511  15.294   3.664   6.256
 5049POPC   D2A65512  15.279   3.441   6.674
 5049POPC   C3A65513  15.210   3.709   7.051
 5049POPC   C4A65514  15.200   3.581   7.480
 5049POPC   C1B65515  15.056   3.197   6.223
 5049POPC   C2B65516  14.730   3.186   6.503
 5049POPC   C3B65517  14.778   3.316   6.865
 5049POPC   C4B65518  15.073   3.237   7.147
 5050POPC   NC365519  12.574  42.891   5.141
 5050POPC   PO465520  12.936  43.405   5.351
 5050POPC   GL165521  12.882  43.394   5.787
 5050POPC   GL265522  13.189  43.233   5.848
 5050POPC   C1A65523  12.862  43.351   6.252
 5050POPC   D2A65524  13.009  43.252   6.679
 5050POPC   C3A65525  12.701  43.156   6.965
 5050POPC   C4A65526  12.446  43.317   7.258
 5050POPC   C1B65527  13.377  43.204   6.238
 5050POPC   C2B65528  13.465  43.443   6.590
 5050POPC   C3B65529  13.481  43.230   6.960
 5050POPC   C4B65530  13.166  43.057   7.178
 5051POPC   NC365531   7.400  27.177   5.574
 5051POPC   PO465532   7.456  26.525   5.566
 5051POPC   GL165533   7.419  26.805   5.935
 5051POPC   GL265534   7.726  26.952   5.915
 5051POPC   C1A65535   7.405  27.075   6.328
 5051POPC   D2A65536   7.638  27.048   6.734
 5051POPC   C3A65537   7.470  26.884   7.112
 5051POPC   C4A65538   7.348  26.501   7.335
 5051POPC   C1B65539   7.811  26.775   6.329
 5051POPC   C2B65540   7.875  26.559   6.715
 5051POPC   C3B65541   7.846  26.448   7.137
 5051POPC   C4B65542   7.755  26.290   7.555
 5052POPC   NC365543  20.821   0.119   5.480
 5052POPC   PO465544  20.386   0.607   5.585
 5052POPC   GL165545  20.562   0.390   5.897
 5052POPC   GL265546  20.829   0.596   5.880
 5052POPC   C1A65547  20.481   0.297   6.344
 5052POPC   D2A65548  20.419   0.562   6.740
 5052POPC   C3A65549  20.421   0.324   7.122
 5052POPC   C4A65550  20.791   0.209   7.320
 5052POPC   C1B65551  20.635   0.771   6.252
 5052POPC   C2B65552  20.850   0.862   6.626
 5052POPC   C3B65553  20.841   0.726   7.051
 5052POPC   C4B65554  20.489   0.788   7.324
 5053POPC   NC365555  13.749  23.084   5.575
 5053POPC   PO465556  13.807  23.736   5.372
 5053POPC   GL165557  13.755  23.575   5.765
 5053POPC   GL265558  13.473  23.426   5.834
 5053POPC   C1A65559  13.725  23.617   6.230
 5053POPC   D2A65560  13.712  23.914   6.543
 5053POPC   C3A65561  13.590  23.788   6.915
 5053POPC   C4A65562  13.852  23.875   7.272
 5053POPC   C1B65563  13.374  23.234   6.233
 5053POPC   C2B65564  13.495  23.306   6.658
 5053POPC   C3B65565  13.551  23.319   7.103
 5053POPC   C4B65566  13.396  23.662   7.366
 5054POPC   NC365567  30.898  40.391   5.470
 5054POPC   PO465568  31.012  39.679   5.450
 5054POPC   GL165569  30.868  39.901   5.828
 5054POPC   GL265570  30.526  40.041   5.832
 5054POPC   C1A65571  30.699  39.740   6.243
 5054POPC   D2A65572  30.560  39.825   6.677
 5054POPC   C3A65573  30.754  39.651   7.049
 5054POPC   C4A65574  31.016  39.654   7.421
 5054POPC   C1B65575  30.642  40.264   6.238
 5054POPC   C2B65576  30.551  40.356   6.680
 5054POPC   C3B65577  30.517  40.193   7.074
 5054POPC   C4B65578  30.890  40.219   7.288
 5055POPC   NC365579  20.282  23.884   5.263
 5055POPC   PO465580  20.826  23.557   5.483
 5055POPC   GL165581  20.829  23.729   5.853
 5055POPC   GL265582  20.486  23.717   5.952
 5055POPC   C1A65583  20.961  23.848   6.249
 5055POPC   D2A65584  20.660  23.814   6.563
 5055POPC   C3A65585  20.783  23.675   6.948
 5055POPC   C4A65586  20.473  23.807   7.253
 5055POPC   C1B65587  20.500  23.397   6.262
 5055POPC   C2B65588  20.478  23.215   6.651
 5055POPC   C3B65589  20.432  23.325   7.074
 5055POPC   C4B65590  20.753  23.386   7.372
 5056POPC   NC365591  37.485  30.489   5.278
 5056POPC   PO465592  37.852  31.020   5.525
 5056POPC   GL165593  37.606  30.734   5.793
 5056POPC   GL265594  37.753  30.414   5.775
 5056POPC   C1A65595  37.540  30.550   6.230
 5056POPC   D2A65596  37.451  30.507   6.685
 5056POPC   C3A65597  37.486  30.877   6.995
 5056POPC   C4A65598  37.466  30.865   7.510
 5056POPC   C1B65599  38.000  30.295   6.159
 5056POPC   C2B65600  37.985  30.244   6.618
 5056POPC   C3B65601  37.799  30.378   7.026
 5056POPC   C4B65602  37.377  30.450   7.213
 5057POPC   NC365603  25.111   1.487   5.326
 5057POPC   PO465604  25.336   0.849   5.367
 5057POPC   GL165605  25.371   1.185   5.694
 5057POPC   GL265606  25.078   1.399   5.823
 5057POPC   C1A65607  25.412   1.142   6.140
 5057POPC   D2A65608  25.269   0.991   6.540
 5057POPC   C3A65609  25.455   1.131   6.912
 5057POPC   C4A65610  25.654   1.244   7.289
 5057POPC   C1B65611  24.850   1.297   6.202
 5057POPC   C2B65612  24.619   1.131   6.548
 5057POPC   C3B65613  24.691   0.937   6.929
 5057POPC   C4B65614  25.052   1.028   7.194
 5058POPC   NC365615  11.603  36.548   5.488
 5058POPC   PO465616  11.071  36.948   5.378
 5058POPC   GL165617  11.243  36.870   5.789
 5058POPC   GL265618  11.559  37.011   5.778
 5058POPC   C1A65619  11.190  36.733   6.252
 5058POPC   D2A65620  11.377  36.680   6.646
 5058POPC   C3A65621  11.139  36.648   7.031
 5058POPC   C4A65622  11.357  36.761   7.417
 5058POPC   C1B65623  11.446  37.151   6.176
 5058POPC   C2B65624  11.350  37.211   6.586
 5058POPC   C3B65625  11.285  37.148   7.009
 5058POPC   C4B65626  11.560  37.218   7.321
 5059POPC   NC365627  31.738  30.178   5.479
 5059POPC   PO465628  31.276  30.802   5.534
 5059POPC   GL165629  31.480  30.802   5.902
 5059POPC   GL265630  31.507  30.449   5.933
 5059POPC   C1A65631  31.488  31.050   6.276
 5059POPC   D2A65632  31.320  31.048   6.700
 5059POPC   C3A65633  31.545  30.859   7.069
 5059POPC   C4A65634  31.552  31.000   7.502
 5059POPC   C1B65635  31.294  30.589   6.341
 5059POPC   C2B65636  31.348  30.504   6.759
 5059POPC   C3B65637  31.124  30.535   7.150
 5059POPC   C4B65638  31.063  30.240   7.507
 5060POPC   NC365639  39.250  29.295   5.306
 5060POPC   PO465640  39.598  28.770   5.378
 5060POPC   GL165641  39.476  29.114   5.722
 5060POPC   GL265642  39.120  29.248   5.819
 5060POPC   C1A65643  39.559  29.305   6.118
 5060POPC   D2A65644  39.389  29.144   6.496
 5060POPC   C3A65645  39.489  29.314   6.866
 5060POPC   C4A65646  39.317  29.248   7.244
 5060POPC   C1B65647  38.946  29.298   6.276
 5060POPC   C2B65648  38.979  29.409   6.755
 5060POPC   C3B65649  39.057  29.664   7.171
 5060POPC   C4B65650  39.069  29.456   7.635
 5061POPC   NC365651  39.475   3.800   5.285
 5061POPC   PO465652  38.870   3.296   5.357
 5061POPC   GL165653  39.131   3.253   5.767
 5061POPC   GL265654  39.481   3.439   5.779
 5061POPC   C1A65655  39.227   3.281   6.218
 5061POPC   D2A65656  39.358   3.446   6.630
 5061POPC   C3A65657  39.112   3.295   7.016
 5061POPC   C4A65658  39.163   3.127   7.461
 5061POPC   C1B65659  39.575   3.682   6.193
 5061POPC   C2B65660  39.477   3.929   6.603
 5061POPC   C3B65661  39.214   3.832   6.952
 5061POPC   C4B65662  39.392   3.591   7.297
 5062POPC   NC365663  44.468  26.238   5.257
 5062POPC   PO465664  44.959  25.807   5.239
 5062POPC   GL165665  44.775  25.892   5.691
 5062POPC   GL265666  44.726  26.267   5.760
 5062POPC   C1A65667  44.760  25.900   6.179
 5062POPC   D2A65668  44.959  26.078   6.585
 5062POPC   C3A65669  44.701  25.943   6.949
 5062POPC   C4A65670  44.909  25.635   7.204
 5062POPC   C1B65671  44.700  26.415   6.212
 5062POPC   C2B65672  44.494  26.303   6.617
 5062POPC   C3B65673  44.476  26.472   7.039
 5062POPC   C4B65674  44.507  26.396   7.482
 5063POPC   NC365675  34.501  15.840   5.259
 5063POPC   PO465676  34.304  16.484   5.469
 5063POPC   GL165677  34.315  16.163   5.766
 5063POPC   GL265678  34.586  15.907   5.760
 5063POPC   C1A65679  34.373  16.217   6.199
 5063POPC   D2A65680  34.478  15.947   6.542
 5063POPC   C3A65681  34.349  16.127   6.912
 5063POPC   C4A65682  34.314  15.951   7.266
 5063POPC   C1B65683  34.819  15.960   6.144
 5063POPC   C2B65684  35.000  16.099   6.537
 5063POPC   C3B65685  34.845  16.038   6.946
 5063POPC   C4B65686  34.913  16.271   7.313
 5064POPC   NC365687  27.712  34.805   5.412
 5064POPC   PO465688  27.268  34.196   5.373
 5064POPC   GL165689  27.549  34.367   5.699
 5064POPC   GL265690  27.823  34.149   5.734
 5064POPC   C1A65691  27.546  34.579   6.132
 5064POPC   D2A65692  27.467  34.731   6.566
 5064POPC   C3A65693  27.683  34.694   6.955
 5064POPC   C4A65694  27.538  34.814   7.375
 5064POPC   C1B65695  27.938  34.246   6.171
 5064POPC   C2B65696  28.012  34.323   6.626
 5064POPC   C3B65697  27.749  34.201   6.976
 5064POPC   C4B65698  27.516  34.315   7.386
 5065POPC   NC365699  37.839  38.924   5.510
 5065POPC   PO465700  37.516  39.495   5.740
 5065POPC   GL165701  37.378  39.274   6.049
 5065POPC   GL265702  37.532  38.981   5.918
 5065POPC   C1A65703  37.474  39.360   6.477
 5065POPC   D2A65704  37.884  39.591   6.528
 5065POPC   C3A65705  38.045  39.540   6.925
 5065POPC   C4A65706  37.771  39.415   7.254
 5065POPC   C1B65707  37.833  39.036   6.270
 5065POPC   C2B65708  37.870  39.093   6.728
 5065POPC   C3B65709  37.602  38.980   7.071
 5065POPC   C4B65710  37.545  38.957   7.540
 5066POPC   NC365711   8.973  18.516   5.355
 5066POPC   PO465712   9.315  18.007   5.052
 5066POPC   GL165713   9.233  18.085   5.519
 5066POPC   GL265714   8.876  18.048   5.591
 5066POPC   C1A65715   9.205  18.153   5.984
 5066POPC   D2A65716   8.978  18.329   6.363
 5066POPC   C3A65717   9.169  18.265   6.784
 5066POPC   C4A65718   9.050  18.326   7.202
 5066POPC   C1B65719   8.679  18.034   6.026
 5066POPC   C2B65720   8.571  18.025   6.476
 5066POPC   C3B65721   8.638  18.344   6.791
 5066POPC   C4B65722   8.557  18.325   7.207
 5067POPC   NC365723  40.331  30.100   5.458
 5067POPC   PO465724  40.078  29.536   5.400
 5067POPC   GL165725  39.801  29.649   5.742
 5067POPC   GL265726  39.841  30.015   5.684
 5067POPC   C1A65727  39.741  29.829   6.190
 5067POPC   D2A65728  40.107  29.898   6.497
 5067POPC   C3A65729  40.036  29.767   6.899
 5067POPC   C4A65730  39.776  29.611   7.162
 5067POPC   C1B65731  40.089  30.175   6.060
 5067POPC   C2B65732  39.976  30.393   6.443
 5067POPC   C3B65733  40.083  30.305   6.864
 5067POPC   C4B65734  39.920  30.129   7.240
 5068POPC   NC365735   4.437  19.352   5.297
 5068POPC   PO465736   4.444  20.099   5.316
 5068POPC   GL165737   4.462  20.115   5.735
 5068POPC   GL265738   4.385  19.770   5.751
 5068POPC   C1A65739   4.677  19.973   6.122
 5068POPC   D2A65740   4.616  19.761   6.510
 5068POPC   C3A65741   4.595  19.972   6.899
 5068POPC   C4A65742   4.303  19.947   7.229
 5068POPC   C1B65743   4.025  19.643   6.047
 5068POPC   C2B65744   4.109  19.496   6.460
 5068POPC   C3B65745   4.089  19.610   6.889
 5068POPC   C4B65746   3.907  19.591   7.301
 5069POPC   NC365747  19.398   1.909   5.469
 5069POPC   PO465748  20.020   2.058   5.341
 5069POPC   GL165749  19.866   2.036   5.768
 5069POPC   GL265750  19.846   1.672   5.863
 5069POPC   C1A65751  19.969   2.061   6.233
 5069POPC   D2A65752  20.252   2.038   6.618
 5069POPC   C3A65753  20.020   2.066   6.998
 5069POPC   C4A65754  19.830   2.359   7.294
 5069POPC   C1B65755  19.490   1.883   6.117
 5069POPC   C2B65756  19.382   2.181   6.458
 5069POPC   C3B65757  19.521   2.172   6.889
 5069POPC   C4B65758  19.574   1.933   7.281
 5070POPC   NC365759  27.309  23.543   5.465
 5070POPC   PO465760  27.877  23.963   5.324
 5070POPC   GL165761  27.801  23.813   5.804
 5070POPC   GL265762  27.936  23.507   5.965
 5070POPC   C1A65763  27.691  23.811   6.259
 5070POPC   D2A65764  27.509  23.922   6.611
 5070POPC   C3A65765  27.651  23.691   6.929
 5070POPC   C4A65766  27.554  23.869   7.305
 5070POPC   C1B65767  27.515  23.337   6.171
 5070POPC   C2B65768  27.311  23.349   6.629
 5070POPC   C3B65769  27.433  23.259   7.092
 5070POPC   C4B65770  27.768  23.404   7.379
 5071POPC   NC365771  30.916  29.374   5.406
 5071POPC   PO465772  30.460  28.954   5.523
 5071POPC   GL165773  30.547  29.030   5.949
 5071POPC   GL265774  30.862  29.154   5.864
 5071POPC   C1A65775  30.765  28.881   6.339
 5071POPC   D2A65776  30.631  28.718   6.731
 5071POPC   C3A65777  30.540  29.011   7.088
 5071POPC   C4A65778  30.467  29.100   7.543
 5071POPC   C1B65779  30.982  29.317   6.229
 5071POPC   C2B65780  31.153  29.260   6.626
 5071POPC   C3B65781  31.031  29.075   6.994
 5071POPC   C4B65782  30.933  29.254   7.389
 5072POPC   NC365783  22.729  42.790   5.427
 5072POPC   PO465784  23.137  42.290   5.203
 5072POPC   GL165785  22.878  42.317   5.639
 5072POPC   GL265786  22.537  42.164   5.653
 5072POPC   C1A65787  22.827  42.486   6.117
 5072POPC   D2A65788  22.760  42.528   6.612
 5072POPC   C3A65789  23.110  42.400   6.918
 5072POPC   C4A65790  23.319  42.632   7.270
 5072POPC   C1B65791  22.653  41.997   6.069
 5072POPC   C2B65792  22.832  42.056   6.476
 5072POPC   C3B65793  22.659  42.099   6.892
 5072POPC   C4B65794  22.662  42.476   7.156
 5073POPC   NC365795   1.959  41.708   5.249
 5073POPC   PO465796   2.470  41.116   5.358
 5073POPC   GL165797   2.155  41.315   5.657
 5073POPC   GL265798   1.815  41.144   5.616
 5073POPC   C1A65799   2.064  41.588   6.052
 5073POPC   D2A65800   1.860  41.785   6.439
 5073POPC   C3A65801   1.938  41.608   6.853
 5073POPC   C4A65802   2.030  41.745   7.276
 5073POPC   C1B65803   1.875  41.121   6.064
 5073POPC   C2B65804   1.850  41.256   6.477
 5073POPC   C3B65805   1.612  41.161   6.844
 5073POPC   C4B65806   1.645  41.371   7.218
 5074POPC   NC365807  17.151  19.016   5.462
 5074POPC   PO465808  17.860  18.806   5.437
 5074POPC   GL165809  17.874  19.022   5.875
 5074POPC   GL265810  17.617  19.248   5.855
 5074POPC   C1A65811  17.836  19.124   6.326
 5074POPC   D2A65812  17.486  18.955   6.553
 5074POPC   C3A65813  17.370  18.981   6.975
 5074POPC   C4A65814  17.538  18.670   7.201
 5074POPC   C1B65815  17.351  19.335   6.243
 5074POPC   C2B65816  17.363  19.446   6.708
 5074POPC   C3B65817  17.347  19.444   7.202
 5074POPC   C4B65818  17.090  19.359   7.576
 5075POPC   NC365819  39.703  41.690   5.473
 5075POPC   PO465820  40.307  41.635   5.159
 5075POPC   GL165821  40.073  41.400   5.678
 5075POPC   GL265822  39.784  41.179   5.782
 5075POPC   C1A65823  40.017  41.512   6.139
 5075POPC   D2A65824  40.076  41.743   6.537
 5075POPC   C3A65825  39.905  41.659   6.923
 5075POPC   C4A65826  39.988  41.402   7.274
 5075POPC   C1B65827  39.521  41.377   6.117
 5075POPC   C2B65828  39.630  41.499   6.528
 5075POPC   C3B65829  39.691  41.203   6.876
 5075POPC   C4B65830  39.560  41.080   7.280
 5076POPC   NC365831  43.598  37.208   4.861
 5076POPC   PO465832  43.822  36.709   5.275
 5076POPC   GL165833  43.854  36.935   5.698
 5076POPC   GL265834  44.165  36.915   5.862
 5076POPC   C1A65835  43.802  37.005   6.185
 5076POPC   D2A65836  43.615  37.029   6.601
 5076POPC   C3A65837  43.899  36.963   6.947
 5076POPC   C4A65838  43.856  36.595   7.225
 5076POPC   C1B65839  44.387  36.739   6.227
 5076POPC   C2B65840  44.255  36.585   6.639
 5076POPC   C3B65841  44.343  36.709   7.061
 5076POPC   C4B65842  44.291  36.649   7.511
 5077POPC   NC365843  33.366   6.140   5.322
 5077POPC   PO465844  32.676   6.180   5.443
 5077POPC   GL165845  32.914   6.251   5.841
 5077POPC   GL265846  33.239   6.397   5.810
 5077POPC   C1A65847  32.925   5.919   6.159
 5077POPC   D2A65848  32.876   5.651   6.538
 5077POPC   C3A65849  32.977   5.851   6.925
 5077POPC   C4A65850  32.741   6.156   7.131
 5077POPC   C1B65851  33.315   6.228   6.262
 5077POPC   C2B65852  33.357   5.826   6.519
 5077POPC   C3B65853  33.472   5.714   6.956
 5077POPC   C4B65854  33.691   5.951   7.287
 5078POPC   NC365855  17.085  40.482   5.399
 5078POPC   PO465856  16.429  40.733   5.321
 5078POPC   GL165857  16.664  40.666   5.719
 5078POPC   GL265858  16.390  40.627   5.955
 5078POPC   C1A65859  16.900  40.765   6.128
 5078POPC   D2A65860  17.060  40.939   6.545
 5078POPC   C3A65861  17.030  40.681   6.952
 5078POPC   C4A65862  16.931  40.551   7.407
 5078POPC   C1B65863  16.335  40.713   6.400
 5078POPC   C2B65864  16.573  40.799   6.736
 5078POPC   C3B65865  16.542  40.758   7.161
 5078POPC   C4B65866  16.285  40.932   7.462
 5079POPC   NC365867  43.661  41.116   5.214
 5079POPC   PO465868  43.618  40.491   5.418
 5079POPC   GL165869  43.873  40.636   5.731
 5079POPC   GL265870  43.799  40.966   5.687
 5079POPC   C1A65871  43.987  40.784   6.161
 5079POPC   D2A65872  43.912  41.045   6.539
 5079POPC   C3A65873  44.069  40.897   6.957
 5079POPC   C4A65874  44.122  40.621   7.347
 5079POPC   C1B65875  43.656  41.169   6.058
 5079POPC   C2B65876  43.531  41.403   6.410
 5079POPC   C3B65877  43.584  41.277   6.861
 5079POPC   C4B65878  43.657  41.454   7.256
 5080POPC   NC365879  26.856  11.868   5.365
 5080POPC   PO465880  26.951  12.492   5.442
 5080POPC   GL165881  26.837  12.198   5.817
 5080POPC   GL265882  26.817  11.849   5.879
 5080POPC   C1A65883  26.909  12.137   6.291
 5080POPC   D2A65884  26.845  11.815   6.610
 5080POPC   C3A65885  26.854  11.975   7.022
 5080POPC   C4A65886  26.994  12.244   7.374
 5080POPC   C1B65887  26.443  11.995   6.129
 5080POPC   C2B65888  26.385  12.035   6.546
 5080POPC   C3B65889  26.330  11.880   6.944
 5080POPC   C4B65890  26.430  11.934   7.367
 5081POPC   NC365891  43.673   6.321   5.170
 5081POPC   PO465892  44.004   6.846   5.302
 5081POPC   GL165893  43.899   6.785   5.735
 5081POPC   GL265894  43.780   6.451   5.689
 5081POPC   C1A65895  43.646   6.964   6.121
 5081POPC   D2A65896  43.435   6.831   6.498
 5081POPC   C3A65897  43.641   6.945   6.882
 5081POPC   C4A65898  43.890   6.868   7.247
 5081POPC   C1B65899  43.763   6.478   6.144
 5081POPC   C2B65900  43.874   6.575   6.560
 5081POPC   C3B65901  43.765   6.437   6.986
 5081POPC   C4B65902  43.840   6.402   7.442
 5082POPC   NC365903  42.868   3.469   5.644
 5082POPC   PO465904  42.282   3.201   5.310
 5082POPC   GL165905  42.105   3.321   5.689
 5082POPC   GL265906  42.361   3.570   5.734
 5082POPC   C1A65907  42.121   3.359   6.137
 5082POPC   D2A65908  42.366   3.502   6.473
 5082POPC   C3A65909  42.171   3.414   6.848
 5082POPC   C4A65910  42.046   3.598   7.218
 5082POPC   C1B65911  42.365   3.876   6.097
 5082POPC   C2B65912  42.230   3.985   6.542
 5082POPC   C3B65913  42.409   3.848   6.965
 5082POPC   C4B65914  42.728   4.047   7.254
 5083POPC   NC365915  29.654  44.051   5.283
 5083POPC   PO465916  29.763  43.428   5.405
 5083POPC   GL165917  29.841  43.692   5.754
 5083POPC   GL265918  29.987  44.027   5.725
 5083POPC   C1A65919  29.994  43.692   6.175
 5083POPC   D2A65920  29.788  43.731   6.559
 5083POPC   C3A65921  29.874  43.588   6.987
 5083POPC   C4A65922  29.504  43.628   7.254
 5083POPC   C1B65923  30.187  44.158   6.126
 5083POPC   C2B65924  30.210  44.009   6.576
 5083POPC   C3B65925  30.069  44.078   7.013
 5083POPC   C4B65926  30.209  44.233   7.416
 5084POPC   NC365927  13.312  23.744   5.437
 5084POPC   PO465928  12.640  23.638   5.366
 5084POPC   GL165929  12.785  23.811   5.763
 5084POPC   GL265930  12.437  24.001   5.798
 5084POPC   C1A65931  13.051  23.623   6.114
 5084POPC   D2A65932  12.961  23.425   6.541
 5084POPC   C3A65933  13.083  23.634   6.946
 5084POPC   C4A65934  12.896  23.666   7.380
 5084POPC   C1B65935  12.437  24.143   6.189
 5084POPC   C2B65936  12.614  23.977   6.543
 5084POPC   C3B65937  12.717  24.042   6.927
 5084POPC   C4B65938  12.523  23.958   7.262
 5085POPC   NC365939  22.122   2.248   5.325
 5085POPC   PO465940  22.404   1.677   5.354
 5085POPC   GL165941  22.185   1.696   5.741
 5085POPC   GL265942  21.895   1.878   5.634
 5085POPC   C1A65943  22.318   1.684   6.202
 5085POPC   D2A65944  22.527   1.746   6.607
 5085POPC   C3A65945  22.402   1.632   7.017
 5085POPC   C4A65946  22.270   1.926   7.344
 5085POPC   C1B65947  22.070   2.125   5.993
 5085POPC   C2B65948  22.009   2.132   6.423
 5085POPC   C3B65949  22.076   2.128   6.881
 5085POPC   C4B65950  22.178   2.413   7.234
 5086POPC   NC365951  16.041  27.829   5.499
 5086POPC   PO465952  16.147  27.172   5.340
 5086POPC   GL165953  16.023  27.292   5.798
 5086POPC   GL265954  16.199  27.584   5.928
 5086POPC   C1A65955  15.738  27.208   6.175
 5086POPC   D2A65956  15.482  27.216   6.567
 5086POPC   C3A65957  15.637  27.269   6.987
 5086POPC   C4A65958  15.537  27.606   7.289
 5086POPC   C1B65959  15.967  27.631   6.313
 5086POPC   C2B65960  16.016  27.456   6.703
 5086POPC   C3B65961  16.036  27.567   7.137
 5086POPC   C4B65962  16.334  27.442   7.430
 5087POPC   NC365963  30.311  25.682   5.500
 5087POPC   PO465964  30.625  26.217   5.198
 5087POPC   GL165965  30.604  26.122   5.646
 5087POPC   GL265966  30.747  25.794   5.765
 5087POPC   C1A65967  30.638  26.171   6.107
 5087POPC   D2A65968  30.869  25.896   6.417
 5087POPC   C3A65969  30.774  25.990   6.830
 5087POPC   C4A65970  30.839  26.047   7.262
 5087POPC   C1B65971  30.498  25.670   6.150
 5087POPC   C2B65972  30.465  25.588   6.607
 5087POPC   C3B65973  30.488  25.643   7.065
 5087POPC   C4B65974  30.359  25.896   7.394
 5088POPC   NC365975   4.872  28.875   5.405
 5088POPC   PO465976   5.482  28.933   5.365
 5088POPC   GL165977   5.228  29.057   5.742
 5088POPC   GL265978   5.147  28.726   5.818
 5088POPC   C1A65979   5.108  29.102   6.204
 5088POPC   D2A65980   5.333  29.232   6.596
 5088POPC   C3A65981   5.128  29.157   7.000
 5088POPC   C4A65982   4.721  29.301   7.149
 5088POPC   C1B65983   5.224  28.605   6.246
 5088POPC   C2B65984   5.063  28.780   6.639
 5088POPC   C3B65985   5.225  28.656   7.037
 5088POPC   C4B65986   5.312  28.889   7.418
 5089POPC   NC365987  17.571  28.715   5.506
 5089POPC   PO465988  17.538  29.356   5.353
 5089POPC   GL165989  17.564  29.146   5.797
 5089POPC   GL265990  17.780  28.873   5.955
 5089POPC   C1A65991  17.487  29.190   6.254
 5089POPC   D2A65992  17.733  29.131   6.632
 5089POPC   C3A65993  17.643  29.324   7.044
 5089POPC   C4A65994  17.328  29.278   7.369
 5089POPC   C1B65995  17.501  28.682   6.243
 5089POPC   C2B65996  17.346  28.769   6.594
 5089POPC   C3B65997  17.342  28.866   6.992
 5089POPC   C4B65998  17.594  28.853   7.295
 5090POPC   NC365999  42.920  10.832   5.488
 5090POPC   PO466000  43.016  11.414   5.316
 5090POPC   GL166001  42.999  11.337   5.760
 5090POPC   GL266002  43.270  11.100   5.874
 5090POPC   C1A66003  42.862  11.505   6.188
 5090POPC   D2A66004  42.962  11.360   6.620
 5090POPC   C3A66005  42.904  11.525   7.053
 5090POPC   C4A66006  42.868  11.462   7.502
 5090POPC   C1B66007  42.975  10.999   6.204
 5090POPC   C2B66008  42.684  10.917   6.561
 5090POPC   C3B66009  42.745  11.020   7.001
 5090POPC   C4B66010  43.102  11.044   7.289
 5091POPC   NC366011  25.863  23.334   5.466
 5091POPC   PO466012  26.237  22.898   5.276
 5091POPC   GL166013  26.111  22.926   5.736
 5091POPC   GL266014  26.169  23.216   5.867
 5091POPC   C1A66015  26.013  22.763   6.162
 5091POPC   D2A66016  25.938  22.895   6.586
 5091POPC   C3A66017  26.019  22.718   6.990
 5091POPC   C4A66018  25.995  22.915   7.427
 5091POPC   C1B66019  25.795  23.224   6.152
 5091POPC   C2B66020  25.708  23.353   6.591
 5091POPC   C3B66021  25.806  23.198   7.026
 5091POPC   C4B66022  25.798  23.445   7.413
 5092POPC   NC366023  13.758  37.285   5.341
 5092POPC   PO466024  13.421  37.844   5.213
 5092POPC   GL166025  13.548  37.855   5.689
 5092POPC   GL266026  13.784  37.619   5.885
 5092POPC   C1A66027  13.425  37.894   6.145
 5092POPC   D2A66028  13.355  37.856   6.611
 5092POPC   C3A66029  13.643  37.684   6.944
 5092POPC   C4A66030  13.761  37.363   7.250
 5092POPC   C1B66031  13.930  37.931   6.225
 5092POPC   C2B66032  14.007  37.983   6.693
 5092POPC   C3B66033  13.880  38.115   7.137
 5092POPC   C4B66034  14.106  38.061   7.546
 5093POPC   NC366035  44.853   3.363   5.467
 5093POPC   PO466036  44.465   3.895   5.374
 5093POPC   GL166037  44.668   3.725   5.765
 5093POPC   GL266038   0.032   3.642   5.861
 5093POPC   C1A66039  44.670   3.380   6.098
 5093POPC   D2A66040  44.545   3.242   6.497
 5093POPC   C3A66041  44.608   3.489   6.827
 5093POPC   C4A66042  44.740   3.415   7.220
 5093POPC   C1B66043  44.818   3.875   6.211
 5093POPC   C2B66044  44.697   3.967   6.617
 5093POPC   C3B66045  44.868   3.886   7.042
 5093POPC   C4B66046   0.091   3.706   7.431
 5094POPC   NC366047  20.362   1.778   5.235
 5094POPC   PO466048  20.994   1.909   5.480
 5094POPC   GL166049  20.712   1.927   5.838
 5094POPC   GL266050  20.358   1.827   5.763
 5094POPC   C1A66051  20.701   2.156   6.235
 5094POPC   D2A66052  20.673   2.329   6.638
 5094POPC   C3A66053  20.709   2.126   7.034
 5094POPC   C4A66054  20.636   2.061   7.507
 5094POPC   C1B66055  20.413   1.744   6.222
 5094POPC   C2B66056  20.540   1.610   6.679
 5094POPC   C3B66057  20.405   1.725   7.138
 5094POPC   C4B66058  20.151   1.955   7.477
 5095POPC   NC366059  36.944  25.449   5.234
 5095POPC   PO466060  36.434  25.012   5.443
 5095POPC   GL166061  36.696  25.203   5.801
 5095POPC   GL266062  36.745  25.599   5.782
 5095POPC   C1A66063  36.843  25.027   6.243
 5095POPC   D2A66064  36.919  24.827   6.674
 5095POPC   C3A66065  37.079  25.042   7.060
 5095POPC   C4A66066  37.060  25.063   7.549
 5095POPC   C1B66067  36.706  25.521   6.250
 5095POPC   C2B66068  36.848  25.371   6.676
 5095POPC   C3B66069  36.642  25.438   7.074
 5095POPC   C4B66070  36.688  25.418   7.530
 5096POPC   NC366071  44.432  11.069   5.422
 5096POPC   PO466072   0.001  11.462   5.407
 5096POPC   GL166073  44.807  11.217   5.728
 5096POPC   GL266074   0.105  11.142   5.905
 5096POPC   C1A66075  44.622  11.160   6.130
 5096POPC   D2A66076  44.836  11.208   6.503
 5096POPC   C3A66077  44.535  11.188   6.819
 5096POPC   C4A66078  44.609  11.350   7.222
 5096POPC   C1B66079  44.927  11.567   6.094
 5096POPC   C2B66080  44.973  11.793   6.489
 5096POPC   C3B66081  44.871  11.645   6.886
 5096POPC   C4B66082   0.076  11.556   7.277
 5097POPC   NC366083  26.027  39.621   5.313
 5097POPC   PO466084  26.491  39.176   5.489
 5097POPC   GL166085  26.322  38.990   5.930
 5097POPC   GL266086  26.022  39.215   5.971
 5097POPC   C1A66087  26.170  39.000   6.405
 5097POPC   D2A66088  25.908  39.392   6.552
 5097POPC   C3A66089  25.922  39.441   6.996
 5097POPC   C4A66090  26.205  39.154   7.137
 5097POPC   C1B66091  26.335  39.459   6.258
 5097POPC   C2B66092  26.416  39.374   6.716
 5097POPC   C3B66093  26.509  39.540   7.155
 5097POPC   C4B66094  26.409  39.357   7.571
 5098POPC   NC366095  39.024  26.514   5.460
 5098POPC   PO466096  39.393  27.090   5.457
 5098POPC   GL166097  39.329  26.803   5.796
 5098POPC   GL266098  39.502  26.493   5.762
 5098POPC   C1A66099  39.124  26.830   6.222
 5098POPC   D2A66100  38.904  26.954   6.619
 5098POPC   C3A66101  39.161  26.900   6.960
 5098POPC   C4A66102  39.058  26.732   7.395
 5098POPC   C1B66103  39.596  26.624   6.203
 5098POPC   C2B66104  39.541  26.789   6.616
 5098POPC   C3B66105  39.632  26.690   7.039
 5098POPC   C4B66106  39.630  26.314   7.315
 5099POPC   NC366107  43.489  28.789   5.444
 5099POPC   PO466108  42.970  29.315   5.432
 5099POPC   GL166109  43.205  29.108   5.747
 5099POPC   GL266110  43.389  29.349   5.888
 5099POPC   C1A66111  43.176  28.964   6.186
 5099POPC   D2A66112  42.991  29.101   6.593
 5099POPC   C3A66113  43.056  28.845   6.956
 5099POPC   C4A66114  43.470  28.881   7.083
 5099POPC   C1B66115  43.207  29.469   6.242
 5099POPC   C2B66116  43.394  29.471   6.660
 5099POPC   C3B66117  43.208  29.334   7.046
 5099POPC   C4B66118  42.978  29.537   7.382
 5100POPC   NC366119  14.798   3.744   5.599
 5100POPC   PO466120  14.222   3.319   5.559
 5100POPC   GL166121  14.412   3.538   5.886
 5100POPC   GL266122  14.706   3.327   5.881
 5100POPC   C1A66123  14.293   3.783   6.278
 5100POPC   D2A66124  14.375   3.574   6.691
 5100POPC   C3A66125  14.204   3.676   7.110
 5100POPC   C4A66126  14.087   3.826   7.558
 5100POPC   C1B66127  14.775   3.625   6.239
 5100POPC   C2B66128  14.884   3.783   6.629
 5100POPC   C3B66129  14.704   3.872   6.987
 5100POPC   C4B66130  14.671   3.559   7.280
 5101POPC   NC366131  39.883  44.716   5.222
 5101POPC   PO466132  40.508  44.533   5.389
 5101POPC   GL166133  40.151  44.558   5.669
 5101POPC   GL266134  40.138  44.280   5.939
 5101POPC   C1A66135  39.853  44.712   5.964
 5101POPC   D2A66136  39.844  44.480   6.334
 5101POPC   C3A66137  39.735  44.539   6.735
 5101POPC   C4A66138  39.673  44.534   7.148
 5101POPC   C1B66139  40.320  44.647   6.171
 5101POPC   C2B66140  40.210  44.757   6.604
 5101POPC   C3B66141  40.171  44.635   7.041
 5101POPC   C4B66142  40.352  44.687   7.454
 5102POPC   NC366143   2.389  39.084   5.367
 5102POPC   PO466144   1.775  39.456   5.452
 5102POPC   GL166145   1.896  39.302   5.843
 5102POPC   GL266146   2.251  39.268   5.841
 5102POPC   C1A66147   1.886  39.018   6.196
 5102POPC   D2A66148   2.070  38.990   6.628
 5102POPC   C3A66149   1.846  38.914   7.007
 5102POPC   C4A66150   1.841  39.021   7.438
 5102POPC   C1B66151   2.308  39.318   6.292
 5102POPC   C2B66152   2.374  39.372   6.759
 5102POPC   C3B66153   2.231  39.233   7.106
 5102POPC   C4B66154   1.974  39.493   7.287
 5103POPC   NC366155   2.397  12.188   5.520
 5103POPC   PO466156   1.891  11.705   5.347
 5103POPC   GL166157   1.998  11.922   5.720
 5103POPC   GL266158   1.943  12.324   5.746
 5103POPC   C1A66159   2.191  11.901   6.107
 5103POPC   D2A66160   2.290  12.053   6.490
 5103POPC   C3A66161   2.021  11.961   6.817
 5103POPC   C4A66162   2.127  11.853   7.223
 5103POPC   C1B66163   2.021  12.403   6.208
 5103POPC   C2B66164   2.094  12.472   6.675
 5103POPC   C3B66165   2.097  12.368   7.142
 5103POPC   C4B66166   1.881  12.364   7.558
 5104POPC   NC366167  38.717   6.891   5.538
 5104POPC   PO466168  38.434   7.436   5.294
 5104POPC   GL166169  38.534   7.397   5.723
 5104POPC   GL266170  38.893   7.429   5.804
 5104POPC   C1A66171  38.295   7.408   6.124
 5104POPC   D2A66172  38.257   7.705   6.474
 5104POPC   C3A66173  38.201   7.596   6.926
 5104POPC   C4A66174  38.313   7.522   7.369
 5104POPC   C1B66175  38.757   7.170   6.151
 5104POPC   C2B66176  38.505   7.181   6.544
 5104POPC   C3B66177  38.617   7.287   6.976
 5104POPC   C4B66178  38.548   7.070   7.368
 5105POPC   NC366179  26.859  28.128   5.380
 5105POPC   PO466180  26.616  28.701   5.466
 5105POPC   GL166181  26.811  28.417   5.808
 5105POPC   GL266182  27.092  28.588   5.970
 5105POPC   C1A66183  26.716  28.215   6.224
 5105POPC   D2A66184  26.579  28.448   6.593
 5105POPC   C3A66185  26.775  28.530   6.977
 5105POPC   C4A66186  26.851  28.314   7.343
 5105POPC   C1B66187  27.079  28.506   6.432
 5105POPC   C2B66188  27.015  28.134   6.684
 5105POPC   C3B66189  27.109  27.966   7.087
 5105POPC   C4B66190  27.321  28.123   7.455
 5106POPC   NC366191  15.983  25.368   5.308
 5106POPC   PO466192  16.516  25.754   5.496
 5106POPC   GL166193  16.155  25.553   5.799
 5106POPC   GL266194  16.018  25.199   5.787
 5106POPC   C1A66195  15.984  25.447   6.264
 5106POPC   D2A66196  16.109  25.322   6.728
 5106POPC   C3A66197  15.909  25.408   7.170
 5106POPC   C4A66198  15.820  25.488   7.659
 5106POPC   C1B66199  16.010  24.917   6.145
 5106POPC   C2B66200  15.779  24.954   6.517
 5106POPC   C3B66201  15.835  24.915   6.944
 5106POPC   C4B66202  15.590  24.993   7.286
 5107POPC   NC366203   3.736  14.198   5.379
 5107POPC   PO466204   3.268  14.657   5.424
 5107POPC   GL166205   3.463  14.477   5.801
 5107POPC   GL266206   3.677  14.755   5.838
 5107POPC   C1A66207   3.495  14.314   6.254
 5107POPC   D2A66208   3.318  14.158   6.663
 5107POPC   C3A66209   3.464  14.379   7.037
 5107POPC   C4A66210   3.849  14.541   7.228
 5107POPC   C1B66211   3.466  14.820   6.229
 5107POPC   C2B66212   3.594  14.684   6.627
 5107POPC   C3B66213   3.566  14.905   6.989
 5107POPC   C4B66214   3.567  15.152   7.380
 5108POPC   NC366215  13.855  15.280   5.439
 5108POPC   PO466216  13.442  14.849   5.208
 5108POPC   GL166217  13.443  15.073   5.681
 5108POPC   GL266218  13.772  15.058   5.881
 5108POPC   C1A66219  13.348  15.118   6.157
 5108POPC   D2A66220  13.312  15.460   6.516
 5108POPC   C3A66221  13.460  15.342   6.918
 5108POPC   C4A66222  13.736  15.138   7.242
 5108POPC   C1B66223  13.769  14.837   6.263
 5108POPC   C2B66224  13.672  14.966   6.668
 5108POPC   C3B66225  13.382  14.848   7.024
 5108POPC   C4B66226  13.322  14.821   7.508
 5109POPC   NC366227  27.631  38.765   5.372
 5109POPC   PO466228  28.047  39.303   5.578
 5109POPC   GL166229  27.685  39.094   5.772
 5109POPC   GL266230  27.333  39.253   5.813
 5109POPC   C1A66231  27.722  39.034   6.202
 5109POPC   D2A66232  27.971  39.054   6.561
 5109POPC   C3A66233  27.718  39.224   6.903
 5109POPC   C4A66234  27.777  38.975   7.248
 5109POPC   C1B66235  27.208  39.001   6.184
 5109POPC   C2B66236  27.297  39.022   6.599
 5109POPC   C3B66237  27.236  38.998   7.038
 5109POPC   C4B66238  27.389  39.297   7.343
 5110POPC   NC366239  26.603   4.623   5.326
 5110POPC   PO466240  26.254   3.972   5.387
 5110POPC   GL166241  26.232   3.852   5.821
 5110POPC   GL266242  25.982   4.106   5.862
 5110POPC   C1A66243  26.276   4.003   6.249
 5110POPC   D2A66244  26.178   4.353   6.493
 5110POPC   C3A66245  26.153   4.292   6.924
 5110POPC   C4A66246  26.051   3.981   7.204
 5110POPC   C1B66247  25.763   4.137   6.273
 5110POPC   C2B66248  25.695   4.302   6.704
 5110POPC   C3B66249  25.646   4.297   7.150
 5110POPC   C4B66250  25.558   4.603   7.496
 5111POPC   NC366251   7.427   4.247   5.270
 5111POPC   PO466252   7.686   4.802   5.444
 5111POPC   GL166253   7.476   4.583   5.776
 5111POPC   GL266254   7.315   4.284   5.787
 5111POPC   C1A66255   7.657   4.416   6.190
 5111POPC   D2A66256   7.584   4.555   6.640
 5111POPC   C3A66257   7.612   4.328   7.055
 5111POPC   C4A66258   7.826   4.414   7.440
 5111POPC   C1B66259   7.206   4.178   6.244
 5111POPC   C2B66260   7.307   4.109   6.693
 5111POPC   C3B66261   7.155   4.106   7.121
 5111POPC   C4B66262   7.236   3.795   7.422
 5112POPC   NC366263  17.143  34.573   5.560
 5112POPC   PO466264  17.752  34.715   5.332
 5112POPC   GL166265  17.623  34.568   5.772
 5112POPC   GL266266  17.413  34.266   5.867
 5112POPC   C1A66267  17.433  34.670   6.191
 5112POPC   D2A66268  17.591  34.530   6.587
 5112POPC   C3A66269  17.595  34.750   6.961
 5112POPC   C4A66270  17.466  34.809   7.409
 5112POPC   C1B66271  17.227  34.217   6.292
 5112POPC   C2B66272  17.156  34.286   6.725
 5112POPC   C3B66273  17.154  34.536   7.095
 5112POPC   C4B66274  17.183  34.408   7.499
 5113POPC   NC366275  28.574  34.298   5.432
 5113POPC   PO466276  28.289  33.624   5.420
 5113POPC   GL166277  28.192  33.766   5.831
 5113POPC   GL266278  28.311  34.118   5.847
 5113POPC   C1A66279  28.206  33.542   6.247
 5113POPC   D2A66280  28.168  33.367   6.660
 5113POPC   C3A66281  28.314  33.558   7.077
 5113POPC   C4A66282  28.132  33.637   7.496
 5113POPC   C1B66283  28.452  33.985   6.245
 5113POPC   C2B66284  28.345  33.863   6.662
 5113POPC   C3B66285  28.236  34.058   7.041
 5113POPC   C4B66286  28.356  34.088   7.464
 5114POPC   NC366287  13.325  35.821   5.153
 5114POPC   PO466288  13.830  36.073   5.563
 5114POPC   GL166289  13.465  36.204   5.858
 5114POPC   GL266290  13.397  36.563   5.839
 5114POPC   C1A66291  13.463  35.965   6.283
 5114POPC   D2A66292  13.884  35.908   6.518
 5114POPC   C3A66293  13.873  36.122   6.922
 5114POPC   C4A66294  13.543  36.026   7.240
 5114POPC   C1B66295  13.622  36.458   6.249
 5114POPC   C2B66296  13.476  36.327   6.654
 5114POPC   C3B66297  13.508  36.515   7.056
 5114POPC   C4B66298  13.484  36.495   7.509
 5115POPC   NC366299   2.151  13.815   5.422
 5115POPC   PO466300   1.617  13.337   5.503
 5115POPC   GL166301   1.878  13.485   5.824
 5115POPC   GL266302   2.175  13.286   5.874
 5115POPC   C1A66303   1.799  13.370   6.250
 5115POPC   D2A66304   1.830  13.275   6.679
 5115POPC   C3A66305   1.972  13.621   6.841
 5115POPC   C4A66306   1.931  13.786   7.213
 5115POPC   C1B66307   2.305  13.481   6.280
 5115POPC   C2B66308   2.478  13.749   6.621
 5115POPC   C3B66309   2.442  13.698   7.039
 5115POPC   C4B66310   2.283  13.335   7.168
 5116POPC   NC366311  26.572  44.227   5.405
 5116POPC   PO466312  27.116  44.718   5.375
 5116POPC   GL166313  26.971  44.682   5.767
 5116POPC   GL266314  27.081  44.330   5.823
 5116POPC   C1A66315  26.886  44.969   6.141
 5116POPC   D2A66316  27.104  44.882   6.540
 5116POPC   C3A66317  26.900  44.868   6.965
 5116POPC   C4A66318  26.893  44.757   7.441
 5116POPC   C1B66319  26.861  44.445   6.220
 5116POPC   C2B66320  26.848  44.430   6.685
 5116POPC   C3B66321  26.652  44.423   7.113
 5116POPC   C4B66322  26.631  44.186   7.516
 5117POPC   NC366323   7.654  28.397   5.198
 5117POPC   PO466324   7.244  28.223   5.702
 5117POPC   GL166325   7.387  28.500   5.959
 5117POPC   GL266326   7.714  28.510   5.833
 5117POPC   C1A66327   7.498  28.349   6.357
 5117POPC   D2A66328   7.657  28.451   6.745
 5117POPC   C3A66329   7.395  28.487   7.109
 5117POPC   C4A66330   7.252  28.281   7.498
 5117POPC   C1B66331   7.760  28.772   6.212
 5117POPC   C2B66332   7.752  28.980   6.589
 5117POPC   C3B66333   7.749  28.855   7.020
 5117POPC   C4B66334   7.684  28.816   7.445
 5118POPC   NC366335  30.953  38.524   5.139
 5118POPC   PO466336  31.554  38.386   5.345
 5118POPC   GL166337  31.410  38.532   5.754
 5118POPC   GL266338  31.663  38.752   5.806
 5118POPC   C1A66339  31.280  38.531   6.215
 5118POPC   D2A66340  31.249  38.293   6.621
 5118POPC   C3A66341  31.424  38.393   7.049
 5118POPC   C4A66342  31.270  38.186   7.415
 5118POPC   C1B66343  31.668  38.852   6.257
 5118POPC   C2B66344  31.492  38.751   6.671
 5118POPC   C3B66345  31.581  38.874   7.108
 5118POPC   C4B66346  31.652  38.905   7.555
 5119POPC   NC366347  15.788  12.609   5.199
 5119POPC   PO466348  16.308  12.376   5.499
 5119POPC   GL166349  15.978  12.664   5.752
 5119POPC   GL266350  16.187  12.824   5.993
 5119POPC   C1A66351  15.739  12.599   6.181
 5119POPC   D2A66352  15.907  12.624   6.637
 5119POPC   C3A66353  15.673  12.635   7.015
 5119POPC   C4A66354  15.676  12.703   7.456
 5119POPC   C1B66355  16.276  12.504   6.315
 5119POPC   C2B66356  16.382  12.529   6.789
 5119POPC   C3B66357  16.165  12.626   7.187
 5119POPC   C4B66358  16.145  12.745   7.641
 5120POPC   NC366359   1.679  12.878   5.436
 5120POPC   PO466360   2.376  12.686   5.475
 5120POPC   GL166361   2.217  12.755   5.882
 5120POPC   GL266362   1.872  12.851   5.911
 5120POPC   C1A66363   2.397  12.761   6.293
 5120POPC   D2A66364   2.305  13.067   6.596
 5120POPC   C3A66365   2.088  12.916   6.909
 5120POPC   C4A66366   2.171  12.842   7.297
 5120POPC   C1B66367   1.883  12.874   6.360
 5120POPC   C2B66368   1.645  12.719   6.700
 5120POPC   C3B66369   1.642  12.794   7.126
 5120POPC   C4B66370   1.802  13.200   7.225
 5121POPC   NC366371  12.647   4.606   5.528
 5121POPC   PO466372  13.007   4.107   5.382
 5121POPC   GL166373  13.002   4.266   5.778
 5121POPC   GL266374  13.094   4.611   5.772
 5121POPC   C1A66375  12.920   4.094   6.202
 5121POPC   D2A66376  13.096   4.214   6.584
 5121POPC   C3A66377  12.938   4.052   6.965
 5121POPC   C4A66378  13.180   4.190   7.315
 5121POPC   C1B66379  12.838   4.583   6.171
 5121POPC   C2B66380  12.715   4.583   6.631
 5121POPC   C3B66381  12.795   4.525   7.088
 5121POPC   C4B66382  12.744   4.357   7.518
 5122POPC   NC366383  39.107  44.892   5.340
 5122POPC   PO466384  39.568  44.373   5.239
 5122POPC   GL166385  39.452  44.645   5.629
 5122POPC   GL266386  39.102  44.578   5.771
 5122POPC   C1A66387  39.389  44.882   6.062
 5122POPC   D2A66388  39.304  44.687   6.474
 5122POPC   C3A66389  39.321  44.868   6.904
 5122POPC   C4A66390  39.262  44.759   7.352
 5122POPC   C1B66391  38.975  44.372   6.202
 5122POPC   C2B66392  38.805  44.431   6.636
 5122POPC   C3B66393  38.847  44.664   7.055
 5122POPC   C4B66394  38.883  44.447   7.486
 5123POPC   NC366395  19.944  33.259   5.246
 5123POPC   PO466396  20.019  32.691   5.615
 5123POPC   GL166397  19.814  33.006   5.828
 5123POPC   GL266398  19.751  33.359   5.739
 5123POPC   C1A66399  20.047  33.145   6.196
 5123POPC   D2A66400  20.168  33.059   6.608
 5123POPC   C3A66401  19.969  32.666   6.775
 5123POPC   C4A66402  19.661  32.628   7.108
 5123POPC   C1B66403  19.548  33.246   6.190
 5123POPC   C2B66404  19.647  33.071   6.629
 5123POPC   C3B66405  19.858  33.122   7.044
 5123POPC   C4B66406  19.700  33.241   7.470
 5124POPC   NC366407  36.462  44.739   5.483
 5124POPC   PO466408  35.801  44.806   5.469
 5124POPC   GL166409  35.891  44.482   5.808
 5124POPC   GL266410  36.192  44.255   5.714
 5124POPC   C1A66411  36.068  44.439   6.240
 5124POPC   D2A66412  35.916  44.341   6.686
 5124POPC   C3A66413  35.883  44.700   6.998
 5124POPC   C4A66414  35.975   0.038   7.345
 5124POPC   C1B66415  36.424  44.104   6.086
 5124POPC   C2B66416  36.433  44.207   6.532
 5124POPC   C3B66417  36.354  44.263   6.973
 5124POPC   C4B66418  36.671  44.297   7.302
 5125POPC   NC366419   4.733  13.226   5.524
 5125POPC   PO466420   4.704  12.577   5.438
 5125POPC   GL166421   4.943  12.825   5.786
 5125POPC   GL266422   5.306  13.003   5.785
 5125POPC   C1A66423   4.767  12.876   6.185
 5125POPC   D2A66424   4.734  12.610   6.551
 5125POPC   C3A66425   4.927  12.700   6.932
 5125POPC   C4A66426   4.814  12.913   7.315
 5125POPC   C1B66427   5.209  13.171   6.211
 5125POPC   C2B66428   4.931  13.134   6.593
 5125POPC   C3B66429   5.088  13.183   6.992
 5125POPC   C4B66430   5.291  13.210   7.379
 5126POPC   NC366431  22.809  38.647   5.382
 5126POPC   PO466432  23.290  38.239   5.414
 5126POPC   GL166433  23.043  38.428   5.811
 5126POPC   GL266434  22.714  38.648   5.873
 5126POPC   C1A66435  23.120  38.418   6.280
 5126POPC   D2A66436  23.264  38.289   6.695
 5126POPC   C3A66437  23.062  38.246   7.107
 5126POPC   C4A66438  23.170  38.314   7.583
 5126POPC   C1B66439  22.621  38.415   6.235
 5126POPC   C2B66440  22.760  38.459   6.661
 5126POPC   C3B66441  23.042  38.738   6.894
 5126POPC   C4B66442  22.962  38.691   7.335
 5127POPC   NC366443   1.565  37.728   5.519
 5127POPC   PO466444   0.906  37.935   5.662
 5127POPC   GL166445   0.982  37.832   6.045
 5127POPC   GL266446   1.272  37.639   5.940
 5127POPC   C1A66447   1.233  37.849   6.418
 5127POPC   D2A66448   1.534  38.073   6.668
 5127POPC   C3A66449   1.438  37.949   7.069
 5127POPC   C4A66450   1.049  37.887   7.329
 5127POPC   C1B66451   1.480  37.403   6.266
 5127POPC   C2B66452   1.457  37.460   6.698
 5127POPC   C3B66453   1.154  37.515   6.977
 5127POPC   C4B66454   0.958  37.285   7.288
 5128POPC   NC366455  13.001   7.688   5.397
 5128POPC   PO466456  13.346   7.083   5.267
 5128POPC   GL166457  13.182   7.267   5.761
 5128POPC   GL266458  12.999   7.587   5.891
 5128POPC   C1A66459  12.891   7.149   6.124
 5128POPC   D2A66460  12.806   7.316   6.543
 5128POPC   C3A66461  13.030   7.317   6.939
 5128POPC   C4A66462  12.777   7.031   7.121
 5128POPC   C1B66463  12.730   7.734   6.264
 5128POPC   C2B66464  12.481   7.693   6.688
 5128POPC   C3B66465  12.631   7.710   7.140
 5128POPC   C4B66466  12.712   7.870   7.566
 5129POPC   NC366467  38.336   9.336   5.371
 5129POPC   PO466468  38.734   9.908   5.450
 5129POPC   GL166469  38.364   9.748   5.714
 5129POPC   GL266470  38.562   9.485   5.835
 5129POPC   C1A66471  38.173   9.779   6.151
 5129POPC   D2A66472  38.374  10.059   6.498
 5129POPC   C3A66473  38.308   9.976   6.946
 5129POPC   C4A66474  38.062   9.600   7.061
 5129POPC   C1B66475  38.614   9.569   6.280
 5129POPC   C2B66476  38.400   9.553   6.666
 5129POPC   C3B66477  38.511   9.343   7.075
 5129POPC   C4B66478  38.704   9.193   7.462
 5130POPC   NC366479   0.912  35.904   5.386
 5130POPC   PO466480   0.415  36.413   5.436
 5130POPC   GL166481   0.278  36.283   5.802
 5130POPC   GL266482   0.581  36.099   5.845
 5130POPC   C1A66483   0.184  36.170   6.204
 5130POPC   D2A66484   0.440  36.246   6.537
 5130POPC   C3A66485   0.259  36.350   6.885
 5130POPC   C4A66486   0.551  36.266   7.153
 5130POPC   C1B66487   0.628  35.876   6.239
 5130POPC   C2B66488   0.610  35.781   6.705
 5130POPC   C3B66489   0.460  35.770   7.141
 5130POPC   C4B66490   0.370  35.915   7.570
 5131POPC   NC366491  12.227   6.270   5.450
 5131POPC   PO466492  11.833   6.834   5.530
 5131POPC   GL166493  12.029   6.574   5.839
 5131POPC   GL266494  12.404   6.632   5.770
 5131POPC   C1A66495  11.951   6.417   6.272
 5131POPC   D2A66496  11.814   6.180   6.639
 5131POPC   C3A66497  11.677   6.423   6.971
 5131POPC   C4A66498  11.832   6.402   7.394
 5131POPC   C1B66499  12.439   6.330   6.103
 5131POPC   C2B66500  12.466   6.469   6.536
 5131POPC   C3B66501  12.207   6.407   6.901
 5131POPC   C4B66502  12.289   6.214   7.281
 5132POPC   NC366503  31.674  16.858   5.410
 5132POPC   PO466504  32.311  16.805   5.335
 5132POPC   GL166505  32.364  16.695   5.760
 5132POPC   GL266506  32.224  16.990   5.873
 5132POPC   C1A66507  32.182  16.544   6.181
 5132POPC   D2A66508  32.378  16.537   6.592
 5132POPC   C3A66509  32.148  16.515   6.997
 5132POPC   C4A66510  32.091  16.789   7.356
 5132POPC   C1B66511  32.557  16.882   6.210
 5132POPC   C2B66512  32.758  16.865   6.629
 5132POPC   C3B66513  32.536  16.872   7.010
 5132POPC   C4B66514  32.596  16.771   7.444
 5133POPC   NC366515   9.110  34.079   5.374
 5133POPC   PO466516   8.891  33.414   5.494
 5133POPC   GL166517   9.036  33.742   5.787
 5133POPC   GL266518   8.811  34.038   5.794
 5133POPC   C1A66519   9.057  33.772   6.243
 5133POPC   D2A66520   8.791  33.796   6.623
 5133POPC   C3A66521   8.949  33.603   6.980
 5133POPC   C4A66522   8.984  33.706   7.402
 5133POPC   C1B66523   8.689  34.141   6.221
 5133POPC   C2B66524   8.674  34.297   6.644
 5133POPC   C3B66525   8.789  34.116   7.060
 5133POPC   C4B66526   8.742  34.132   7.515
 5134POPC   NC366527  13.058  24.708   5.525
 5134POPC   PO466528  12.379  24.489   5.356
 5134POPC   GL166529  12.486  24.532   5.819
 5134POPC   GL266530  12.802  24.376   5.823
 5134POPC   C1A66531  12.690  24.578   6.271
 5134POPC   D2A66532  12.925  24.400   6.613
 5134POPC   C3A66533  13.013  24.600   7.015
 5134POPC   C4A66534  13.094  25.005   7.171
 5134POPC   C1B66535  12.944  24.119   6.161
 5134POPC   C2B66536  13.156  23.939   6.535
 5134POPC   C3B66537  13.222  24.129   6.944
 5134POPC   C4B66538  13.016  24.172   7.331
 5135POPC   NC366539  40.466  28.505   5.489
 5135POPC   PO466540  39.944  28.117   5.520
 5135POPC   GL166541  40.044  28.210   5.885
 5135POPC   GL266542  40.316  27.999   6.045
 5135POPC   C1A66543  39.780  28.492   6.129
 5135POPC   D2A66544  39.484  28.568   6.470
 5135POPC   C3A66545  39.657  28.407   6.847
 5135POPC   C4A66546  39.874  28.521   7.233
 5135POPC   C1B66547  40.301  28.429   6.233
 5135POPC   C2B66548  40.140  28.581   6.600
 5135POPC   C3B66549  40.308  28.510   6.991
 5135POPC   C4B66550  40.345  28.634   7.413
 5136POPC   NC366551   7.630  27.988   5.614
 5136POPC   PO466552   7.098  27.548   5.590
 5136POPC   GL166553   7.461  27.585   5.880
 5136POPC   GL266554   7.387  27.887   6.059
 5136POPC   C1A66555   7.765  27.389   6.151
 5136POPC   D2A66556   7.905  27.422   6.511
 5136POPC   C3A66557   7.613  27.566   6.783
 5136POPC   C4A66558   7.627  27.518   7.209
 5136POPC   C1B66559   7.734  27.879   6.319
 5136POPC   C2B66560   7.888  27.995   6.723
 5136POPC   C3B66561   7.589  28.014   7.089
 5136POPC   C4B66562   7.640  27.939   7.554
 5137POPC   NC366563   0.746  21.105   5.529
 5137POPC   PO466564   0.466  20.524   5.234
 5137POPC   GL166565   0.330  20.739   5.623
 5137POPC   GL266566   0.619  20.741   5.864
 5137POPC   C1A66567   0.143  20.790   6.052
 5137POPC   D2A66568   0.318  20.781   6.469
 5137POPC   C3A66569   0.173  20.755   6.879
 5137POPC   C4A66570   0.491  20.750   7.194
 5137POPC   C1B66571   0.756  20.591   6.282
 5137POPC   C2B66572   0.715  20.580   6.737
 5137POPC   C3B66573   0.838  20.373   7.098
 5137POPC   C4B66574   0.695  20.349   7.521
 5138POPC   NC366575  18.521  25.041   5.398
 5138POPC   PO466576  18.146  25.598   5.566
 5138POPC   GL166577  18.460  25.400   5.802
 5138POPC   GL266578  18.298  25.079   5.883
 5138POPC   C1A66579  18.418  25.424   6.258
 5138POPC   D2A66580  18.208  25.358   6.657
 5138POPC   C3A66581  18.499  25.143   6.916
 5138POPC   C4A66582  18.641  25.303   7.298
 5138POPC   C1B66583  17.992  25.070   6.259
 5138POPC   C2B66584  18.006  24.891   6.697
 5138POPC   C3B66585  18.058  25.082   7.135
 5138POPC   C4B66586  18.070  24.955   7.603
 5139POPC   NC366587   1.477  40.246   5.419
 5139POPC   PO466588   1.061  39.658   5.283
 5139POPC   GL166589   1.175  39.884   5.678
 5139POPC   GL266590   1.077  40.208   5.780
 5139POPC   C1A66591   1.418  39.864   6.083
 5139POPC   D2A66592   1.290  39.692   6.500
 5139POPC   C3A66593   1.456  39.850   6.898
 5139POPC   C4A66594   1.592  39.799   7.312
 5139POPC   C1B66595   0.931  40.008   6.165
 5139POPC   C2B66596   0.828  40.024   6.605
 5139POPC   C3B66597   0.934  39.880   7.017
 5139POPC   C4B66598   1.155  40.020   7.399
 5140POPC   NC366599   5.158  34.733   5.293
 5140POPC   PO466600   5.100  34.208   5.637
 5140POPC   GL166601   5.205  34.617   5.831
 5140POPC   GL266602   5.127  34.434   6.111
 5140POPC   C1A66603   5.335  34.877   6.227
 5140POPC   D2A66604   5.058  34.928   6.620
 5140POPC   C3A66605   5.213  34.685   6.981
 5140POPC   C4A66606   5.612  34.777   7.160
 5140POPC   C1B66607   4.882  34.283   6.433
 5140POPC   C2B66608   4.847  34.339   6.847
 5140POPC   C3B66609   4.663  34.471   7.208
 5140POPC   C4B66610   4.799  34.568   7.633
 5141POPC   NC366611  26.001  34.727   5.412
 5141POPC   PO466612  26.539  34.139   5.464
 5141POPC   GL166613  26.124  34.223   5.772
 5141POPC   GL266614  25.912  34.540   5.869
 5141POPC   C1A66615  25.970  34.207   6.241
 5141POPC   D2A66616  26.218  34.234   6.638
 5141POPC   C3A66617  26.060  34.254   7.078
 5141POPC   C4A66618  25.738  34.350   7.373
 5141POPC   C1B66619  25.904  34.747   6.261
 5141POPC   C2B66620  26.010  34.694   6.705
 5141POPC   C3B66621  25.887  34.761   7.105
 5141POPC   C4B66622  25.780  35.107   7.364
 5142POPC   NC366623  29.900  32.095   5.251
 5142POPC   PO466624  30.053  32.760   5.260
 5142POPC   GL166625  29.973  32.594   5.701
 5142POPC   GL266626  29.947  32.216   5.758
 5142POPC   C1A66627  29.918  32.603   6.161
 5142POPC   D2A66628  29.631  32.512   6.508
 5142POPC   C3A66629  29.842  32.449   6.901
 5142POPC   C4A66630  29.956  32.333   7.324
 5142POPC   C1B66631  29.790  32.101   6.184
 5142POPC   C2B66632  29.761  31.876   6.584
 5142POPC   C3B66633  29.842  31.932   7.032
 5142POPC   C4B66634  29.481  32.024   7.335
 5143POPC   NC366635  34.371  13.884   5.197
 5143POPC   PO466636  34.348  13.327   5.489
 5143POPC   GL166637  34.599  13.647   5.746
 5143POPC   GL266638  34.862  13.917   5.840
 5143POPC   C1A66639  34.624  13.651   6.194
 5143POPC   D2A66640  34.948  13.630   6.502
 5143POPC   C3A66641  34.869  13.382   6.859
 5143POPC   C4A66642  34.506  13.478   7.109
 5143POPC   C1B66643  34.780  14.133   6.252
 5143POPC   C2B66644  34.804  14.136   6.699
 5143POPC   C3B66645  34.902  13.863   7.017
 5143POPC   C4B66646  34.720  13.873   7.422
 5144POPC   NC366647  34.363  21.215   5.287
 5144POPC   PO466648  34.832  21.763   5.526
 5144POPC   GL166649  34.644  21.456   5.776
 5144POPC   GL266650  34.282  21.448   5.742
 5144POPC   C1A66651  34.723  21.277   6.210
 5144POPC   D2A66652  34.614  21.126   6.638
 5144POPC   C3A66653  34.784  21.390   7.011
 5144POPC   C4A66654  34.661  21.544   7.431
 5144POPC   C1B66655  34.215  21.254   6.135
 5144POPC   C2B66656  34.113  21.357   6.577
 5144POPC   C3B66657  34.281  21.305   7.006
 5144POPC   C4B66658  34.120  21.096   7.361
 5145POPC   NC366659  17.142  24.693   5.465
 5145POPC   PO466660  17.627  24.248   5.253
 5145POPC   GL166661  17.451  24.364   5.705
 5145POPC   GL266662  17.467  24.743   5.849
 5145POPC   C1A66663  17.414  24.351   6.172
 5145POPC   D2A66664  17.626  24.645   6.437
 5145POPC   C3A66665  17.643  24.490   6.863
 5145POPC   C4A66666  17.851  24.635   7.233
 5145POPC   C1B66667  17.137  24.797   6.172
 5145POPC   C2B66668  17.141  24.667   6.617
 5145POPC   C3B66669  17.184  24.630   7.061
 5145POPC   C4B66670  17.296  24.231   7.224
 5146POPC   NC366671  19.333  41.660   5.529
 5146POPC   PO466672  18.799  41.228   5.469
 5146POPC   GL166673  18.811  41.150   5.896
 5146POPC   GL266674  19.080  41.394   5.912
 5146POPC   C1A66675  18.652  41.317   6.331
 5146POPC   D2A66676  18.742  41.274   6.804
 5146POPC   C3A66677  18.772  41.499   7.228
 5146POPC   C4A66678  18.650  41.316   7.695
 5146POPC   C1B66679  19.323  41.650   6.202
 5146POPC   C2B66680  19.283  41.673   6.642
 5146POPC   C3B66681  19.226  41.391   6.992
 5146POPC   C4B66682  19.438  41.426   7.374
 5147POPC   NC366683  23.026   0.060   5.316
 5147POPC   PO466684  22.764  44.361   5.437
 5147POPC   GL166685  22.862  44.727   5.725
 5147POPC   GL266686  23.225  44.807   5.747
 5147POPC   C1A66687  22.946  44.908   6.155
 5147POPC   D2A66688  23.155  44.830   6.528
 5147POPC   C3A66689  22.966  44.854   6.928
 5147POPC   C4A66690  23.194  44.814   7.309
 5147POPC   C1B66691  23.207  44.476   6.099
 5147POPC   C2B66692  23.115  44.305   6.532
 5147POPC   C3B66693  23.172  44.385   7.000
 5147POPC   C4B66694  23.327  44.350   7.446
 5148POPC   NC366695  44.272  41.128   5.590
 5148POPC   PO466696  44.806  40.835   5.183
 5148POPC   GL166697  44.918  40.856   5.640
 5148POPC   GL266698  44.924  41.209   5.661
 5148POPC   C1A66699  44.740  40.770   6.093
 5148POPC   D2A66700  44.441  40.812   6.483
 5148POPC   C3A66701  44.651  40.774   6.902
 5148POPC   C4A66702  44.627  40.565   7.284
 5148POPC   C1B66703   0.025  41.201   6.111
 5148POPC   C2B66704  44.909  41.025   6.525
 5148POPC   C3B66705  44.953  41.215   6.961
 5148POPC   C4B66706  44.899  41.017   7.354
 5149POPC   NC366707  26.904  42.517   5.462
 5149POPC   PO466708  27.067  43.180   5.305
 5149POPC   GL166709  26.845  43.217   5.681
 5149POPC   GL266710  26.875  42.892   5.801
 5149POPC   C1A66711  26.928  43.268   6.134
 5149POPC   D2A66712  26.729  43.323   6.502
 5149POPC   C3A66713  26.768  43.128   6.905
 5149POPC   C4A66714  26.670  43.325   7.281
 5149POPC   C1B66715  26.636  42.851   6.193
 5149POPC   C2B66716  26.722  42.699   6.593
 5149POPC   C3B66717  26.519  42.686   6.992
 5149POPC   C4B66718  26.653  42.819   7.381
 5150POPC   NC366719  21.748  40.998   5.310
 5150POPC   PO466720  21.306  40.506   5.440
 5150POPC   GL166721  21.233  40.822   5.804
 5150POPC   GL266722  21.556  40.794   5.955
 5150POPC   C1A66723  21.219  40.975   6.292
 5150POPC   D2A66724  21.455  41.212   6.656
 5150POPC   C3A66725  21.212  41.294   7.042
 5150POPC   C4A66726  21.304  40.932   7.297
 5150POPC   C1B66727  21.313  40.461   6.201
 5150POPC   C2B66728  21.091  40.469   6.622
 5150POPC   C3B66729  21.305  40.506   7.037
 5150POPC   C4B66730  21.513  40.495   7.480
 5151POPC   NC366731  17.059  42.984   5.362
 5151POPC   PO466732  17.331  43.515   5.703
 5151POPC   GL166733  17.531  43.199   5.884
 5151POPC   GL266734  17.295  42.954   5.819
 5151POPC   C1A66735  17.536  43.254   6.302
 5151POPC   D2A66736  17.316  43.210   6.688
 5151POPC   C3A66737  17.583  43.201   7.059
 5151POPC   C4A66738  17.797  43.474   7.388
 5151POPC   C1B66739  17.176  42.896   6.239
 5151POPC   C2B66740  17.361  42.711   6.639
 5151POPC   C3B66741  17.189  42.842   7.042
 5151POPC   C4B66742  17.181  42.728   7.479
 5152POPC   NC366743  15.213  18.847   5.460
 5152POPC   PO466744  15.105  19.456   5.432
 5152POPC   GL166745  15.132  19.173   5.844
 5152POPC   GL266746  14.803  18.989   5.819
 5152POPC   C1A66747  15.356  19.039   6.282
 5152POPC   D2A66748  15.130  19.024   6.695
 5152POPC   C3A66749  15.302  18.731   7.009
 5152POPC   C4A66750  15.647  18.877   7.286
 5152POPC   C1B66751  14.881  18.911   6.235
 5152POPC   C2B66752  14.708  18.744   6.619
 5152POPC   C3B66753  14.734  18.856   7.022
 5152POPC   C4B66754  15.045  19.114   7.228
 5153POPC   NC366755  40.530  18.245   5.213
 5153POPC   PO466756  41.051  18.318   5.588
 5153POPC   GL166757  40.825  18.571   5.899
 5153POPC   GL266758  40.508  18.659   5.769
 5153POPC   C1A66759  40.745  18.550   6.358
 5153POPC   D2A66760  40.692  18.381   6.756
 5153POPC   C3A66761  40.909  18.229   7.116
 5153POPC   C4A66762  40.934  18.428   7.488
 5153POPC   C1B66763  40.418  18.283   6.068
 5153POPC   C2B66764  40.298  18.152   6.530
 5153POPC   C3B66765  40.364  18.102   7.027
 5153POPC   C4B66766  40.528  18.029   7.461
 5154POPC   NC366767  42.426  37.961   5.618
 5154POPC   PO466768  42.127  37.363   5.401
 5154POPC   GL166769  42.308  37.339   5.749
 5154POPC   GL266770  42.614  37.438   5.640
 5154POPC   C1A66771  42.279  37.579   6.144
 5154POPC   D2A66772  42.273  37.820   6.518
 5154POPC   C3A66773  42.328  37.561   6.902
 5154POPC   C4A66774  42.219  37.737   7.300
 5154POPC   C1B66775  42.702  37.312   6.072
 5154POPC   C2B66776  42.703  37.442   6.530
 5154POPC   C3B66777  42.789  37.357   6.995
 5154POPC   C4B66778  42.589  37.345   7.440
 5155POPC   NC366779   6.129  43.778   5.337
 5155POPC   PO466780   5.505  43.635   5.395
 5155POPC   GL166781   5.784  43.843   5.756
 5155POPC   GL266782   5.958  44.154   5.712
 5155POPC   C1A66783   5.736  43.853   6.230
 5155POPC   D2A66784   6.006  43.861   6.615
 5155POPC   C3A66785   5.933  43.931   7.093
 5155POPC   C4A66786   5.858  44.041   7.582
 5155POPC   C1B66787   6.109  44.466   6.002
 5155POPC   C2B66788   6.218  44.446   6.424
 5155POPC   C3B66789   6.180  44.326   6.834
 5155POPC   C4B66790   5.961  44.423   7.203
 5156POPC   NC366791  30.904  18.216   5.300
 5156POPC   PO466792  30.334  18.309   5.529
 5156POPC   GL166793  30.497  18.444   5.903
 5156POPC   GL266794  30.829  18.322   5.921
 5156POPC   C1A66795  30.454  18.301   6.339
 5156POPC   D2A66796  30.612  18.338   6.748
 5156POPC   C3A66797  30.394  18.500   7.123
 5156POPC   C4A66798  30.564  18.144   7.395
 5156POPC   C1B66799  30.947  18.532   6.326
 5156POPC   C2B66800  31.040  18.593   6.781
 5156POPC   C3B66801  30.881  18.479   7.196
 5156POPC   C4B66802  31.030  18.468   7.642
 5157POPC   NC366803  12.305  18.868   5.315
 5157POPC   PO466804  11.925  19.338   5.579
 5157POPC   GL166805  12.184  19.081   5.795
 5157POPC   GL266806  11.983  18.762   5.737
 5157POPC   C1A66807  12.318  19.239   6.205
 5157POPC   D2A66808  12.041  19.315   6.535
 5157POPC   C3A66809  12.136  19.134   6.915
 5157POPC   C4A66810  12.489  19.119   7.150
 5157POPC   C1B66811  11.954  18.823   6.193
 5157POPC   C2B66812  12.104  18.686   6.592
 5157POPC   C3B66813  11.960  18.655   7.001
 5157POPC   C4B66814  12.093  18.873   7.369
 5158POPC   NC366815  29.604  20.432   5.454
 5158POPC   PO466816  29.095  20.691   5.066
 5158POPC   GL166817  29.220  20.794   5.591
 5158POPC   GL266818  28.909  20.732   5.852
 5158POPC   C1A66819  29.342  20.638   6.075
 5158POPC   D2A66820  29.099  20.432   6.433
 5158POPC   C3A66821  29.231  20.582   6.837
 5158POPC   C4A66822  29.467  20.476   7.206
 5158POPC   C1B66823  28.711  20.989   6.155
 5158POPC   C2B66824  28.634  20.906   6.580
 5158POPC   C3B66825  28.689  20.670   6.927
 5158POPC   C4B66826  28.944  20.629   7.252
 5159POPC   NC366827   0.947  16.906   5.547
 5159POPC   PO466828   1.308  16.384   5.412
 5159POPC   GL166829   1.439  16.511   5.827
 5159POPC   GL266830   1.408  16.879   5.855
 5159POPC   C1A66831   1.250  16.512   6.237
 5159POPC   D2A66832   1.072  16.631   6.631
 5159POPC   C3A66833   1.270  16.473   6.996
 5159POPC   C4A66834   1.087  16.311   7.361
 5159POPC   C1B66835   1.160  17.029   6.201
 5159POPC   C2B66836   1.289  17.092   6.610
 5159POPC   C3B66837   1.129  16.999   7.001
 5159POPC   C4B66838   0.892  17.270   7.245
 5160POPC   NC366839  17.757  43.557   5.551
 5160POPC   PO466840  18.132  43.987   5.333
 5160POPC   GL166841  18.242  43.792   5.740
 5160POPC   GL266842  18.593  43.900   5.779
 5160POPC   C1A66843  18.265  43.566   6.135
 5160POPC   D2A66844  18.219  43.725   6.553
 5160POPC   C3A66845  18.064  43.659   6.973
 5160POPC   C4A66846  18.198  43.827   7.393
 5160POPC   C1B66847  18.795  43.618   6.042
 5160POPC   C2B66848  18.708  43.574   6.491
 5160POPC   C3B66849  18.593  43.715   6.909
 5160POPC   C4B66850  18.664  43.962   7.269
 5161POPC   NC366851  23.183  31.374   5.458
 5161POPC   PO466852  22.687  31.743   5.528
 5161POPC   GL166853  22.945  31.628   5.867
 5161POPC   GL266854  23.305  31.726   5.823
 5161POPC   C1A66855  22.816  31.554   6.300
 5161POPC   D2A66856  22.702  31.212   6.586
 5161POPC   C3A66857  22.830  31.389   6.962
 5161POPC   C4A66858  22.896  31.805   7.101
 5161POPC   C1B66859  23.332  31.559   6.256
 5161POPC   C2B66860  23.267  31.683   6.701
 5161POPC   C3B66861  23.315  31.514   7.124
 5161POPC   C4B66862  23.098  31.212   7.361
 5162POPC   NC366863  14.071  38.222   5.487
 5162POPC   PO466864  14.754  38.476   5.404
 5162POPC   GL166865  14.505  38.418   5.781
 5162POPC   GL266866  14.451  38.757   5.913
 5162POPC   C1A66867  14.392  38.233   6.201
 5162POPC   D2A66868  14.430  38.334   6.651
 5162POPC   C3A66869  14.414  38.122   7.046
 5162POPC   C4A66870  14.569  38.293   7.434
 5162POPC   C1B66871  14.220  38.746   6.309
 5162POPC   C2B66872  14.327  38.858   6.715
 5162POPC   C3B66873  14.620  38.701   7.003
 5162POPC   C4B66874  14.716  38.846   7.409
 5163POPC   NC366875   7.841  21.058   5.416
 5163POPC   PO466876   8.438  21.430   5.497
 5163POPC   GL166877   8.195  21.404   5.854
 5163POPC   GL266878   8.161  21.048   5.838
 5163POPC   C1A66879   8.321  21.410   6.276
 5163POPC   D2A66880   8.519  21.549   6.612
 5163POPC   C3A66881   8.255  21.630   6.933
 5163POPC   C4A66882   8.289  21.561   7.355
 5163POPC   C1B66883   7.960  21.062   6.261
 5163POPC   C2B66884   8.002  21.235   6.684
 5163POPC   C3B66885   7.975  21.213   7.142
 5163POPC   C4B66886   8.011  21.195   7.607
 5164POPC   NC366887  39.441  25.724   5.671
 5164POPC   PO466888  39.472  25.189   5.304
 5164POPC   GL166889  39.304  25.066   5.776
 5164POPC   GL266890  38.926  24.873   5.865
 5164POPC   C1A66891  39.172  25.151   6.230
 5164POPC   D2A66892  39.019  25.435   6.561
 5164POPC   C3A66893  39.337  25.434   6.856
 5164POPC   C4A66894  39.431  25.177   7.191
 5164POPC   C1B66895  38.754  24.801   6.314
 5164POPC   C2B66896  38.976  24.900   6.709
 5164POPC   C3B66897  38.936  24.955   7.173
 5164POPC   C4B66898  38.691  24.934   7.592
 5165POPC   NC366899  18.901  23.398   5.505
 5165POPC   PO466900  18.987  22.702   5.488
 5165POPC   GL166901  18.787  22.753   5.865
 5165POPC   GL266902  18.683  23.104   5.898
 5165POPC   C1A66903  18.960  22.598   6.239
 5165POPC   D2A66904  19.112  22.698   6.633
 5165POPC   C3A66905  18.889  22.578   7.002
 5165POPC   C4A66906  19.109  22.552   7.389
 5165POPC   C1B66907  18.931  23.122   6.271
 5165POPC   C2B66908  18.967  23.201   6.706
 5165POPC   C3B66909  19.069  23.064   7.129
 5165POPC   C4B66910  19.294  23.038   7.525
 5166POPC   NC366911  15.535  43.012   5.474
 5166POPC   PO466912  14.858  42.734   5.304
 5166POPC   GL166913  15.068  42.884   5.711
 5166POPC   GL266914  15.389  42.826   5.931
 5166POPC   C1A66915  15.020  43.150   6.085
 5166POPC   D2A66916  15.043  42.908   6.454
 5166POPC   C3A66917  15.216  42.923   6.887
 5166POPC   C4A66918  15.148  43.232   7.204
 5166POPC   C1B66919  15.545  43.171   6.156
 5166POPC   C2B66920  15.408  43.263   6.549
 5166POPC   C3B66921  15.588  43.299   6.959
 5166POPC   C4B66922  15.816  43.571   7.236
 5167POPC   NC366923  20.266  20.081   5.546
 5167POPC   PO466924  20.849  19.659   5.329
 5167POPC   GL166925  20.712  19.864   5.681
 5167POPC   GL266926  20.793  20.228   5.667
 5167POPC   C1A66927  20.507  19.724   6.094
 5167POPC   D2A66928  20.241  19.770   6.496
 5167POPC   C3A66929  20.393  19.825   6.917
 5167POPC   C4A66930  20.363  19.638   7.348
 5167POPC   C1B66931  20.880  20.046   6.114
 5167POPC   C2B66932  20.804  19.794   6.501
 5167POPC   C3B66933  20.879  19.683   6.903
 5167POPC   C4B66934  20.779  19.928   7.281
 5168POPC   NC366935  42.060  35.620   5.608
 5168POPC   PO466936  42.709  35.362   5.549
 5168POPC   GL166937  42.426  35.287   5.864
 5168POPC   GL266938  42.104  35.110   5.758
 5168POPC   C1A66939  42.442  35.454   6.277
 5168POPC   D2A66940  42.730  35.445   6.626
 5168POPC   C3A66941  42.659  35.470   7.070
 5168POPC   C4A66942  42.921  35.389   7.369
 5168POPC   C1B66943  42.170  34.983   6.188
 5168POPC   C2B66944  42.285  35.098   6.599
 5168POPC   C3B66945  42.213  35.307   6.939
 5168POPC   C4B66946  42.167  35.015   7.249
 5169POPC   NC366947   8.766   9.789   5.250
 5169POPC   PO466948   9.313   9.467   5.217
 5169POPC   GL166949   9.073   9.627   5.639
 5169POPC   GL266950   8.727   9.859   5.742
 5169POPC   C1A66951   8.996   9.659   6.109
 5169POPC   D2A66952   8.759   9.652   6.519
 5169POPC   C3A66953   8.953   9.830   6.858
 5169POPC   C4A66954   9.135   9.646   7.238
 5169POPC   C1B66955   8.772  10.102   6.156
 5169POPC   C2B66956   8.889  10.266   6.551
 5169POPC   C3B66957   8.649  10.270   6.924
 5169POPC   C4B66958   8.750  10.014   7.269
 5170POPC   NC366959  19.605  24.726   5.081
 5170POPC   PO466960  20.046  24.272   5.377
 5170POPC   GL166961  19.971  24.483   5.787
 5170POPC   GL266962  20.058  24.852   5.766
 5170POPC   C1A66963  19.858  24.310   6.222
 5170POPC   D2A66964  19.976  24.124   6.642
 5170POPC   C3A66965  20.030  24.447   6.930
 5170POPC   C4A66966  19.761  24.569   7.214
 5170POPC   C1B66967  19.973  24.817   6.234
 5170POPC   C2B66968  19.690  24.673   6.588
 5170POPC   C3B66969  19.524  24.927   6.929
 5170POPC   C4B66970  19.812  25.101   7.213
 5171POPC   NC366971  27.354   0.151   5.476
 5171POPC   PO466972  27.760   0.775   5.472
 5171POPC   GL166973  27.578   0.475   5.819
 5171POPC   GL266974  27.724   0.121   5.880
 5171POPC   C1A66975  27.329   0.267   6.173
 5171POPC   D2A66976  27.418   0.372   6.575
 5171POPC   C3A66977  27.412   0.112   6.888
 5171POPC   C4A66978  27.574   0.271   7.275
 5171POPC   C1B66979  27.863   0.277   6.316
 5171POPC   C2B66980  27.889   0.277   6.791
 5171POPC   C3B66981  28.052   0.111   7.170
 5171POPC   C4B66982  27.803  44.862   7.508
 5172POPC   NC366983  37.543  36.474   5.394
 5172POPC   PO466984  38.051  36.058   5.519
 5172POPC   GL166985  37.839  36.323   5.816
 5172POPC   GL266986  37.517  36.143   5.836
 5172POPC   C1A66987  37.714  36.346   6.268
 5172POPC   D2A66988  37.851  36.018   6.580
 5172POPC   C3A66989  38.018  36.164   6.960
 5172POPC   C4A66990  37.761  36.425   7.205
 5172POPC   C1B66991  37.287  36.049   6.235
 5172POPC   C2B66992  37.344  36.040   6.694
 5172POPC   C3B66993  37.548  35.983   7.100
 5172POPC   C4B66994  37.425  36.092   7.564
 5173POPC   NC366995  14.925   9.478   5.540
 5173POPC   PO466996  15.391   9.235   5.057
 5173POPC   GL166997  15.300   9.110   5.534
 5173POPC   GL266998  14.985   8.916   5.634
 5173POPC   C1A66999  15.327   8.973   6.025
 5173POPC   D2A67000  15.507   8.946   6.477
 5173POPC   C3A67001  15.301   8.963   6.898
 5173POPC   C4A67002  15.299   9.201   7.320
 5173POPC   C1B67003  14.827   8.822   6.045
 5173POPC   C2B67004  15.020   8.785   6.448
 5173POPC   C3B67005  14.895   8.619   6.841
 5173POPC   C4B67006  14.933   8.842   7.221
 5174POPC   NC367007  17.737  12.123   4.841
 5174POPC   PO467008  17.194  11.968   5.279
 5174POPC   GL167009  17.431  11.835   5.702
 5174POPC   GL267010  17.373  12.155   5.861
 5174POPC   C1A67011  17.704  11.867   6.143
 5174POPC   D2A67012  17.535  11.775   6.606
 5174POPC   C3A67013  17.718  11.925   7.050
 5174POPC   C4A67014  17.818  11.871   7.533
 5174POPC   C1B67015  17.210  11.880   6.194
 5174POPC   C2B67016  17.067  11.968   6.607
 5174POPC   C3B67017  17.179  11.894   7.022
 5174POPC   C4B67018  17.329  11.906   7.412
 5175POPC   NC367019  26.575  18.752   5.484
 5175POPC   PO467020  26.886  19.373   5.383
 5175POPC   GL167021  26.749  19.200   5.802
 5175POPC   GL267022  26.562  18.906   5.969
 5175POPC   C1A67023  26.946  19.187   6.219
 5175POPC   D2A67024  27.216  19.261   6.576
 5175POPC   C3A67025  27.175  19.081   7.006
 5175POPC   C4A67026  27.027  18.731   7.253
 5175POPC   C1B67027  26.449  19.200   6.279
 5175POPC   C2B67028  26.687  19.238   6.682
 5175POPC   C3B67029  26.663  19.053   7.097
 5175POPC   C4B67030  26.426  18.985   7.482
 5176POPC   NC367031  41.239  33.838   5.464
 5176POPC   PO467032  41.862  33.547   5.591
 5176POPC   GL167033  41.492  33.590   5.845
 5176POPC   GL267034  41.564  33.931   5.897
 5176POPC   C1A67035  41.346  33.677   6.282
 5176POPC   D2A67036  41.433  33.421   6.666
 5176POPC   C3A67037  41.587  33.644   7.005
 5176POPC   C4A67038  41.811  33.567   7.339
 5176POPC   C1B67039  41.858  33.975   6.282
 5176POPC   C2B67040  41.726  34.079   6.733
 5176POPC   C3B67041  41.839  34.064   7.205
 5176POPC   C4B67042  41.779  34.202   7.670
 5177POPC   NC367043  10.741  16.992   5.601
 5177POPC   PO467044  10.175  16.666   5.427
 5177POPC   GL167045  10.322  16.806   5.820
 5177POPC   GL267046  10.418  16.463   5.882
 5177POPC   C1A67047  10.528  16.793   6.245
 5177POPC   D2A67048  10.705  17.002   6.594
 5177POPC   C3A67049  10.707  16.785   6.954
 5177POPC   C4A67050  10.624  16.975   7.340
 5177POPC   C1B67051  10.159  16.243   6.214
 5177POPC   C2B67052  10.182  16.177   6.685
 5177POPC   C3B67053  10.388  16.384   7.083
 5177POPC   C4B67054  10.460  16.534   7.523
 5178POPC   NC367055  34.668  20.507   5.568
 5178POPC   PO467056  34.099  20.731   5.338
 5178POPC   GL167057  34.200  20.802   5.772
 5178POPC   GL267058  34.535  20.956   5.813
 5178POPC   C1A67059  34.369  20.572   6.147
 5178POPC   D2A67060  34.271  20.368   6.528
 5178POPC   C3A67061  34.407  20.643   6.890
 5178POPC   C4A67062  34.593  20.535   7.303
 5178POPC   C1B67063  34.857  20.787   6.130
 5178POPC   C2B67064  34.975  20.697   6.542
 5178POPC   C3B67065  34.888  20.822   6.963
 5178POPC   C4B67066  35.098  20.764   7.375
 5179POPC   NC367067  16.458  34.845   5.290
 5179POPC   PO467068  17.024  35.033   5.552
 5179POPC   GL167069  16.711  34.714   5.780
 5179POPC   GL267070  16.900  34.440   5.976
 5179POPC   C1A67071  16.473  34.592   6.171
 5179POPC   D2A67072  16.732  34.405   6.474
 5179POPC   C3A67073  16.693  34.432   6.902
 5179POPC   C4A67074  16.690  34.508   7.338
 5179POPC   C1B67075  16.944  34.812   6.239
 5179POPC   C2B67076  17.057  34.809   6.669
 5179POPC   C3B67077  17.142  35.044   7.048
 5179POPC   C4B67078  16.961  34.911   7.464
 5180POPC   NC367079  19.991  37.448   5.348
 5180POPC   PO467080  19.347  37.292   5.556
 5180POPC   GL167081  19.655  37.529   5.835
 5180POPC   GL267082  20.017  37.653   5.812
 5180POPC   C1A67083  19.795  37.643   6.266
 5180POPC   D2A67084  19.868  37.916   6.639
 5180POPC   C3A67085  19.891  37.632   6.984
 5180POPC   C4A67086  20.098  37.233   7.069
 5180POPC   C1B67087  20.164  37.977   6.133
 5180POPC   C2B67088  20.376  37.954   6.517
 5180POPC   C3B67089  20.350  38.146   6.914
 5180POPC   C4B67090  20.191  37.958   7.263
 5181POPC   NC367091  12.712  27.860   5.372
 5181POPC   PO467092  12.822  27.184   5.356
 5181POPC   GL167093  12.671  27.418   5.684
 5181POPC   GL267094  12.939  27.639   5.801
 5181POPC   C1A67095  12.616  27.396   6.130
 5181POPC   D2A67096  12.558  27.690   6.458
 5181POPC   C3A67097  12.496  27.602   6.895
 5181POPC   C4A67098  12.711  27.449   7.273
 5181POPC   C1B67099  13.061  27.645   6.282
 5181POPC   C2B67100  13.037  27.540   6.769
 5181POPC   C3B67101  13.212  27.545   7.220
 5181POPC   C4B67102  13.181  27.797   7.618
 5182POPC   NC367103  32.803  22.263   5.380
 5182POPC   PO467104  33.487  22.401   5.525
 5182POPC   GL167105  33.238  22.344   5.863
 5182POPC   GL267106  33.164  22.025   5.817
 5182POPC   C1A67107  33.097  22.265   6.285
 5182POPC   D2A67108  33.245  22.069   6.665
 5182POPC   C3A67109  33.094  22.285   7.000
 5182POPC   C4A67110  33.228  22.260   7.424
 5182POPC   C1B67111  32.872  21.821   6.124
 5182POPC   C2B67112  32.748  21.941   6.540
 5182POPC   C3B67113  32.762  21.817   6.923
 5182POPC   C4B67114  33.058  21.827   7.196
 5183POPC   NC367115  11.914   0.263   5.499
 5183POPC   PO467116  12.110   0.829   5.222
 5183POPC   GL167117  12.385   0.749   5.695
 5183POPC   GL267118  12.284   0.382   5.832
 5183POPC   C1A67119  12.322   0.752   6.200
 5183POPC   D2A67120  12.166   0.523   6.583
 5183POPC   C3A67121  12.111   0.718   7.004
 5183POPC   C4A67122  12.005   0.483   7.413
 5183POPC   C1B67123  12.486   0.264   6.230
 5183POPC   C2B67124  12.474   0.102   6.654
 5183POPC   C3B67125  12.226   0.173   7.018
 5183POPC   C4B67126  12.431   0.204   7.414
 5184POPC   NC367127   8.885   3.184   5.592
 5184POPC   PO467128   9.330   2.732   5.349
 5184POPC   GL167129   9.139   2.768   5.759
 5184POPC   GL267130   9.337   3.048   5.789
 5184POPC   C1A67131   8.983   2.573   6.155
 5184POPC   D2A67132   8.888   2.792   6.552
 5184POPC   C3A67133   9.004   2.675   6.936
 5184POPC   C4A67134   8.879   2.955   7.237
 5184POPC   C1B67135   9.155   3.061   6.205
 5184POPC   C2B67136   9.340   3.042   6.614
 5184POPC   C3B67137   9.303   3.133   7.046
 5184POPC   C4B67138   9.193   3.286   7.472
 5185POPC   NC367139  35.944  26.068   5.680
 5185POPC   PO467140  35.327  26.006   5.257
 5185POPC   GL167141  35.321  26.066   5.709
 5185POPC   GL267142  35.132  26.394   5.780
 5185POPC   C1A67143  35.396  26.150   6.166
 5185POPC   D2A67144  35.582  26.372   6.534
 5185POPC   C3A67145  35.556  26.214   6.930
 5185POPC   C4A67146  35.698  25.838   7.129
 5185POPC   C1B67147  34.989  26.467   6.210
 5185POPC   C2B67148  35.104  26.245   6.602
 5185POPC   C3B67149  35.130  25.981   6.981
 5185POPC   C4B67150  35.152  26.007   7.416
 5186POPC   NC367151  17.667  22.464   5.392
 5186POPC   PO467152  17.151  22.026   5.456
 5186POPC   GL167153  17.349  22.239   5.794
 5186POPC   GL267154  17.683  22.155   5.824
 5186POPC   C1A67155  17.313  22.028   6.218
 5186POPC   D2A67156  17.154  21.884   6.641
 5186POPC   C3A67157  17.380  22.074   7.005
 5186POPC   C4A67158  17.386  22.439   7.269
 5186POPC   C1B67159  17.861  22.070   6.193
 5186POPC   C2B67160  17.702  22.125   6.602
 5186POPC   C3B67161  17.940  22.211   6.974
 5186POPC   C4B67162  17.780  22.102   7.352
 5187POPC   NC367163  24.799  36.579   5.497
 5187POPC   PO467164  24.229  36.913   5.430
 5187POPC   GL167165  24.303  37.055   5.833
 5187POPC   GL267166  24.420  36.726   5.943
 5187POPC   C1A67167  24.404  37.136   6.256
 5187POPC   D2A67168  24.398  36.856   6.564
 5187POPC   C3A67169  24.255  36.956   6.962
 5187POPC   C4A67170  24.395  36.697   7.314
 5187POPC   C1B67171  24.789  36.782   6.182
 5187POPC   C2B67172  24.893  36.728   6.593
 5187POPC   C3B67173  24.765  36.884   6.999
 5187POPC   C4B67174  24.829  36.931   7.443
 5188POPC   NC367175  19.222   8.594   5.417
 5188POPC   PO467176  18.779   9.075   5.366
 5188POPC   GL167177  18.973   9.001   5.736
 5188POPC   GL267178  18.648   8.977   5.871
 5188POPC   C1A67179  19.071   8.978   6.199
 5188POPC   D2A67180  18.997   9.096   6.635
 5188POPC   C3A67181  19.264   9.013   7.020
 5188POPC   C4A67182  19.282   9.324   7.336
 5188POPC   C1B67183  18.629   8.665   6.200
 5188POPC   C2B67184  18.673   8.529   6.649
 5188POPC   C3B67185  18.772   8.819   7.015
 5188POPC   C4B67186  18.710   8.962   7.441
 5189POPC   NC367187  29.323  31.572   5.390
 5189POPC   PO467188  28.679  31.393   5.296
 5189POPC   GL167189  28.908  31.521   5.712
 5189POPC   GL267190  29.243  31.409   5.865
 5189POPC   C1A67191  28.895  31.635   6.171
 5189POPC   D2A67192  28.897  31.806   6.594
 5189POPC   C3A67193  28.856  31.458   6.876
 5189POPC   C4A67194  28.820  31.199   7.253
 5189POPC   C1B67195  29.086  31.166   6.224
 5189POPC   C2B67196  29.133  31.031   6.653
 5189POPC   C3B67197  29.316  31.168   7.053
 5189POPC   C4B67198  29.314  31.187   7.519
 5190POPC   NC367199  18.851  26.758   5.243
 5190POPC   PO467200  19.487  26.857   5.305
 5190POPC   GL167201  19.108  27.019   5.617
 5190POPC   GL267202  19.065  26.727   5.796
 5190POPC   C1A67203  18.806  27.082   6.033
 5190POPC   D2A67204  18.935  27.152   6.521
 5190POPC   C3A67205  18.782  27.002   6.925
 5190POPC   C4A67206  18.762  26.953   7.378
 5190POPC   C1B67207  19.191  26.801   6.240
 5190POPC   C2B67208  19.162  26.716   6.710
 5190POPC   C3B67209  19.134  26.666   7.148
 5190POPC   C4B67210  18.872  26.475   7.490
 5191POPC   NC367211  44.504  33.729   5.509
 5191POPC   PO467212  44.079  34.243   5.397
 5191POPC   GL167213  44.215  34.071   5.834
 5191POPC   GL267214  44.592  34.049   5.896
 5191POPC   C1A67215  44.268  33.927   6.265
 5191POPC   D2A67216  44.409  33.937   6.699
 5191POPC   C3A67217  44.257  33.630   7.017
 5191POPC   C4A67218  44.602  33.473   7.315
 5191POPC   C1B67219  44.781  34.025   6.335
 5191POPC   C2B67220  44.908  34.049   6.787
 5191POPC   C3B67221  44.685  34.182   7.168
 5191POPC   C4B67222  44.734  34.173   7.648
 5192POPC   NC367223  24.235  10.155   5.332
 5192POPC   PO467224  23.824  10.764   5.381
 5192POPC   GL167225  23.756  10.649   5.747
 5192POPC   GL267226  23.827  10.299   5.668
 5192POPC   C1A67227  23.910  10.604   6.163
 5192POPC   D2A67228  23.747  10.716   6.573
 5192POPC   C3A67229  23.956  10.629   6.955
 5192POPC   C4A67230  23.729  10.661   7.337
 5192POPC   C1B67231  23.532  10.286   5.999
 5192POPC   C2B67232  23.536  10.293   6.411
 5192POPC   C3B67233  23.557  10.319   6.840
 5192POPC   C4B67234  23.531  10.184   7.233
 5193POPC   NC367235  24.619  32.620   5.218
 5193POPC   PO467236  24.251  33.112   5.502
 5193POPC   GL167237  24.339  33.271   5.861
 5193POPC   GL267238  24.014  33.348   5.995
 5193POPC   C1A67239  24.599  33.045   6.156
 5193POPC   D2A67240  24.751  33.144   6.550
 5193POPC   C3A67241  24.781  32.889   6.877
 5193POPC   C4A67242  24.729  33.158   7.182
 5193POPC   C1B67243  24.090  32.922   6.145
 5193POPC   C2B67244  24.289  32.839   6.525
 5193POPC   C3B67245  24.288  33.044   6.905
 5193POPC   C4B67246  24.363  32.772   7.216
 5194POPC   NC367247  15.999  22.040   5.433
 5194POPC   PO467248  15.740  22.597   5.468
 5194POPC   GL167249  15.617  22.217   5.750
 5194POPC   GL267250  15.951  22.109   5.932
 5194POPC   C1A67251  15.508  22.068   6.178
 5194POPC   D2A67252  15.752  21.985   6.574
 5194POPC   C3A67253  15.852  22.340   6.847
 5194POPC   C4A67254  15.769  22.420   7.266
 5194POPC   C1B67255  16.203  21.915   6.275
 5194POPC   C2B67256  16.261  22.048   6.684
 5194POPC   C3B67257  16.122  21.972   7.086
 5194POPC   C4B67258  16.235  22.234   7.385
 5195POPC   NC367259  22.129  34.896   5.355
 5195POPC   PO467260  21.661  34.316   5.281
 5195POPC   GL167261  21.846  34.368   5.734
 5195POPC   GL267262  22.073  34.668   5.805
 5195POPC   C1A67263  22.053  34.319   6.174
 5195POPC   D2A67264  22.142  34.618   6.519
 5195POPC   C3A67265  22.298  34.585   6.940
 5195POPC   C4A67266  22.059  34.549   7.322
 5195POPC   C1B67267  22.292  34.922   6.145
 5195POPC   C2B67268  22.137  35.132   6.561
 5195POPC   C3B67269  22.020  35.015   7.004
 5195POPC   C4B67270  22.311  34.978   7.382
 5196POPC   NC367271  25.767  18.730   5.588
 5196POPC   PO467272  26.266  19.098   5.601
 5196POPC   GL167273  26.029  18.995   5.960
 5196POPC   GL267274  25.663  19.121   5.962
 5196POPC   C1A67275  26.180  18.749   6.300
 5196POPC   D2A67276  26.393  18.820   6.653
 5196POPC   C3A67277  26.187  18.822   7.013
 5196POPC   C4A67278  26.246  18.529   7.314
 5196POPC   C1B67279  25.798  19.110   6.412
 5196POPC   C2B67280  26.140  19.290   6.669
 5196POPC   C3B67281  26.233  19.323   7.074
 5196POPC   C4B67282  25.839  19.188   7.230
 5197POPC   NC367283  38.615  41.016   5.518
 5197POPC   PO467284  38.144  40.671   5.072
 5197POPC   GL167285  38.165  40.778   5.576
 5197POPC   GL267286  38.416  40.574   5.731
 5197POPC   C1A67287  38.230  40.830   6.098
 5197POPC   D2A67288  38.358  41.078   6.457
 5197POPC   C3A67289  38.328  40.909   6.888
 5197POPC   C4A67290  38.506  41.117   7.250
 5197POPC   C1B67291  38.750  40.667   6.077
 5197POPC   C2B67292  38.989  40.651   6.478
 5197POPC   C3B67293  38.807  40.725   6.889
 5197POPC   C4B67294  38.674  40.622   7.293
 5198POPC   NC367295   6.415   8.779   5.472
 5198POPC   PO467296   6.850   8.236   5.388
 5198POPC   GL167297   6.586   8.338   5.759
 5198POPC   GL267298   6.701   8.647   5.898
 5198POPC   C1A67299   6.581   8.046   6.125
 5198POPC   D2A67300   6.646   7.991   6.559
 5198POPC   C3A67301   6.881   8.185   6.875
 5198POPC   C4A67302   6.751   8.025   7.250
 5198POPC   C1B67303   6.377   8.509   6.199
 5198POPC   C2B67304   6.225   8.294   6.553
 5198POPC   C3B67305   6.364   8.220   6.958
 5198POPC   C4B67306   6.376   8.383   7.361
 5199POPC   NC367307  12.663  24.102   5.367
 5199POPC   PO467308  11.966  23.830   5.412
 5199POPC   GL167309  12.089  23.639   5.801
 5199POPC   GL267310  12.401  23.450   5.796
 5199POPC   C1A67311  12.066  23.753   6.234
 5199POPC   D2A67312  12.054  24.081   6.522
 5199POPC   C3A67313  12.155  23.971   6.923
 5199POPC   C4A67314  12.153  23.605   7.209
 5199POPC   C1B67315  12.539  23.632   6.175
 5199POPC   C2B67316  12.405  23.501   6.583
 5199POPC   C3B67317  12.590  23.493   6.992
 5199POPC   C4B67318  12.506  23.278   7.405
 5200POPC   NC367319  27.450  16.805   5.309
 5200POPC   PO467320  26.849  16.831   5.502
 5200POPC   GL167321  26.798  16.964   5.901
 5200POPC   GL267322  27.159  16.936   5.892
 5200POPC   C1A67323  26.591  16.877   6.330
 5200POPC   D2A67324  26.480  16.481   6.582
 5200POPC   C3A67325  26.597  16.503   7.029
 5200POPC   C4A67326  26.652  16.362   7.462
 5200POPC   C1B67327  27.054  17.096   6.312
 5200POPC   C2B67328  26.908  17.056   6.737
 5200POPC   C3B67329  26.956  16.842   7.141
 5200POPC   C4B67330  26.948  16.746   7.596
 5201POPC   NC367331  39.977   5.428   5.347
 5201POPC   PO467332  40.249   5.969   5.328
 5201POPC   GL167333  40.094   5.763   5.709
 5201POPC   GL267334  39.744   5.835   5.688
 5201POPC   C1A67335  39.932   5.540   6.097
 5201POPC   D2A67336  39.780   5.698   6.489
 5201POPC   C3A67337  39.982   5.659   6.914
 5201POPC   C4A67338  40.317   5.918   7.131
 5201POPC   C1B67339  39.913   6.067   6.091
 5201POPC   C2B67340  39.658   6.216   6.462
 5201POPC   C3B67341  39.610   6.325   6.899
 5201POPC   C4B67342  39.799   6.048   7.203
 5202POPC   NC367343  35.057  40.654   5.498
 5202POPC   PO467344  35.702  40.972   5.430
 5202POPC   GL167345  35.514  40.721   5.744
 5202POPC   GL267346  35.303  41.009   5.783
 5202POPC   C1A67347  35.262  40.672   6.153
 5202POPC   D2A67348  34.959  40.818   6.476
 5202POPC   C3A67349  35.222  40.813   6.823
 5202POPC   C4A67350  35.442  40.553   7.148
 5202POPC   C1B67351  35.567  41.130   6.131
 5202POPC   C2B67352  35.734  41.082   6.560
 5202POPC   C3B67353  35.640  41.063   6.984
 5202POPC   C4B67354  35.305  41.020   7.277
 5203POPC   NC367355  30.488   4.658   5.301
 5203POPC   PO467356  30.838   4.054   5.325
 5203POPC   GL167357  30.583   4.135   5.678
 5203POPC   GL267358  30.553   3.822   5.851
 5203POPC   C1A67359  30.649   4.423   6.052
 5203POPC   D2A67360  30.590   4.612   6.473
 5203POPC   C3A67361  30.765   4.539   6.881
 5203POPC   C4A67362  30.694   4.324   7.263
 5203POPC   C1B67363  30.312   4.049   6.182
 5203POPC   C2B67364  30.333   4.167   6.634
 5203POPC   C3B67365  30.317   4.020   7.087
 5203POPC   C4B67366  30.460   3.985   7.559
 5204POPC   NC367367   4.179  41.021   5.452
 5204POPC   PO467368   4.466  40.419   5.403
 5204POPC   GL167369   4.246  40.584   5.758
 5204POPC   GL267370   4.456  40.853   5.843
 5204POPC   C1A67371   4.058  40.800   6.142
 5204POPC   D2A67372   4.157  40.721   6.586
 5204POPC   C3A67373   4.301  41.027   6.930
 5204POPC   C4A67374   4.203  40.876   7.374
 5204POPC   C1B67375   4.551  40.847   6.276
 5204POPC   C2B67376   4.667  40.766   6.702
 5204POPC   C3B67377   4.514  40.565   7.083
 5204POPC   C4B67378   4.468  40.372   7.505
 5205POPC   NC367379  40.841  32.896   5.222
 5205POPC   PO467380  40.363  33.233   5.588
 5205POPC   GL167381  40.678  32.928   5.744
 5205POPC   GL267382  40.484  32.687   5.950
 5205POPC   C1A67383  40.931  32.881   6.142
 5205POPC   D2A67384  40.898  33.047   6.557
 5205POPC   C3A67385  40.692  33.001   6.949
 5205POPC   C4A67386  40.924  33.188   7.264
 5205POPC   C1B67387  40.463  33.096   6.231
 5205POPC   C2B67388  40.473  33.382   6.605
 5205POPC   C3B67389  40.548  33.497   7.046
 5205POPC   C4B67390  40.480  33.243   7.474
 5206POPC   NC367391  41.799  40.734   5.009
 5206POPC   PO467392  41.216  40.630   5.365
 5206POPC   GL167393  41.263  40.534   5.810
 5206POPC   GL267394  41.510  40.807   5.848
 5206POPC   C1A67395  41.407  40.541   6.276
 5206POPC   D2A67396  41.418  40.786   6.690
 5206POPC   C3A67397  41.332  40.617   7.129
 5206POPC   C4A67398  41.378  40.460   7.635
 5206POPC   C1B67399  41.796  40.900   6.182
 5206POPC   C2B67400  41.930  40.705   6.563
 5206POPC   C3B67401  41.842  40.575   6.974
 5206POPC   C4B67402  41.753  40.741   7.388
 5207POPC   NC367403   9.705  13.932   5.413
 5207POPC   PO467404  10.035  13.390   5.400
 5207POPC   GL167405   9.986  13.540   5.805
 5207POPC   GL267406   9.664  13.668   5.858
 5207POPC   C1A67407   9.936  13.351   6.218
 5207POPC   D2A67408  10.102  13.485   6.600
 5207POPC   C3A67409   9.856  13.374   6.953
 5207POPC   C4A67410   9.475  13.439   7.189
 5207POPC   C1B67411   9.917  13.873   6.192
 5207POPC   C2B67412   9.917  14.028   6.604
 5207POPC   C3B67413   9.743  13.906   6.962
 5207POPC   C4B67414   9.896  13.741   7.312
 5208POPC   NC367415  37.229  41.289   5.248
 5208POPC   PO467416  36.782  41.748   5.478
 5208POPC   GL167417  37.016  41.685   5.862
 5208POPC   GL267418  37.018  41.381   5.763
 5208POPC   C1A67419  37.119  41.597   6.321
 5208POPC   D2A67420  36.808  41.508   6.666
 5208POPC   C3A67421  36.949  41.616   7.049
 5208POPC   C4A67422  37.245  41.912   7.104
 5208POPC   C1B67423  36.747  41.322   6.153
 5208POPC   C2B67424  36.870  41.046   6.496
 5208POPC   C3B67425  36.637  41.017   6.851
 5208POPC   C4B67426  36.510  41.365   7.090
 5209POPC   NC367427   6.870  35.120   5.655
 5209POPC   PO467428   6.398  35.407   5.209
 5209POPC   GL167429   6.475  35.472   5.770
 5209POPC   GL267430   6.574  35.161   6.046
 5209POPC   C1A67431   6.512  35.578   6.263
 5209POPC   D2A67432   6.782  35.375   6.590
 5209POPC   C3A67433   6.719  35.488   7.012
 5209POPC   C4A67434   6.406  35.583   7.244
 5209POPC   C1B67435   6.845  34.926   6.333
 5209POPC   C2B67436   6.939  34.891   6.768
 5209POPC   C3B67437   7.035  35.119   7.123
 5209POPC   C4B67438   6.719  35.201   7.451
 5210POPC   NC367439  38.568  34.232   5.564
 5210POPC   PO467440  37.910  34.382   5.424
 5210POPC   GL167441  38.186  34.519   5.791
 5210POPC   GL267442  38.511  34.740   5.752
 5210POPC   C1A67443  38.414  34.406   6.188
 5210POPC   D2A67444  38.362  34.216   6.587
 5210POPC   C3A67445  38.582  34.459   6.874
 5210POPC   C4A67446  38.726  34.537   7.259
 5210POPC   C1B67447  38.295  34.898   6.132
 5210POPC   C2B67448  38.231  34.728   6.558
 5210POPC   C3B67449  38.132  34.686   6.988
 5210POPC   C4B67450  38.386  34.938   7.282
 5211POPC   NC367451  17.171   8.041   5.501
 5211POPC   PO467452  17.922   7.934   5.537
 5211POPC   GL167453  17.638   8.201   5.758
 5211POPC   GL267454  17.471   7.913   5.899
 5211POPC   C1A67455  17.543   8.341   6.182
 5211POPC   D2A67456  17.375   8.208   6.577
 5211POPC   C3A67457  17.477   8.334   6.977
 5211POPC   C4A67458  17.708   8.066   7.217
 5211POPC   C1B67459  17.119   8.012   6.160
 5211POPC   C2B67460  16.906   8.040   6.562
 5211POPC   C3B67461  17.073   7.895   6.946
 5211POPC   C4B67462  17.225   8.019   7.325
 5212POPC   NC367463  41.697  38.351   5.438
 5212POPC   PO467464  41.389  38.964   5.368
 5212POPC   GL167465  41.404  38.704   5.742
 5212POPC   GL267466  41.762  38.740   5.788
 5212POPC   C1A67467  41.291  38.594   6.180
 5212POPC   D2A67468  41.585  38.636   6.551
 5212POPC   C3A67469  41.394  38.579   6.947
 5212POPC   C4A67470  41.474  38.237   7.193
 5212POPC   C1B67471  41.799  38.457   6.117
 5212POPC   C2B67472  42.050  38.334   6.447
 5212POPC   C3B67473  41.885  38.356   6.872
 5212POPC   C4B67474  41.987  38.204   7.270
 5213POPC   NC367475   0.358   8.754   5.686
 5213POPC   PO467476   0.580   8.338   5.225
 5213POPC   GL167477   0.492   8.269   5.700
 5213POPC   GL267478   0.155   8.323   5.833
 5213POPC   C1A67479   0.609   8.187   6.133
 5213POPC   D2A67480   0.771   8.317   6.558
 5213POPC   C3A67481   0.805   8.022   6.879
 5213POPC   C4A67482   0.529   8.185   7.201
 5213POPC   C1B67483   0.089   8.019   6.159
 5213POPC   C2B67484  44.964   8.079   6.570
 5213POPC   C3B67485   0.046   8.318   6.942
 5213POPC   C4B67486  44.897   8.227   7.322
 5214POPC   NC367487   7.752  17.260   5.562
 5214POPC   PO467488   7.342  16.755   5.386
 5214POPC   GL167489   7.339  16.615   5.782
 5214POPC   GL267490   7.006  16.549   5.803
 5214POPC   C1A67491   7.594  16.644   6.155
 5214POPC   D2A67492   7.810  16.893   6.463
 5214POPC   C3A67493   7.631  16.860   6.860
 5214POPC   C4A67494   7.789  16.532   7.133
 5214POPC   C1B67495   7.077  16.835   6.153
 5214POPC   C2B67496   7.044  17.093   6.517
 5214POPC   C3B67497   7.126  16.974   6.919
 5214POPC   C4B67498   7.303  16.733   7.246
 5215POPC   NC367499  35.931  40.567   5.374
 5215POPC   PO467500  36.592  40.791   5.376
 5215POPC   GL167501  36.314  40.639   5.759
 5215POPC   GL267502  36.029  40.839   5.828
 5215POPC   C1A67503  36.225  40.445   6.196
 5215POPC   D2A67504  36.121  40.754   6.540
 5215POPC   C3A67505  36.141  40.943   6.939
 5215POPC   C4A67506  36.373  40.936   7.293
 5215POPC   C1B67507  35.775  40.682   6.178
 5215POPC   C2B67508  35.636  40.560   6.599
 5215POPC   C3B67509  35.902  40.504   6.965
 5215POPC   C4B67510  35.845  40.789   7.341
 5216POPC   NC367511  16.114  11.339   5.616
 5216POPC   PO467512  15.668  10.918   5.303
 5216POPC   GL167513  15.740  11.043   5.767
 5216POPC   GL267514  15.535  10.905   6.010
 5216POPC   C1A67515  15.825  11.294   6.176
 5216POPC   D2A67516  15.755  11.204   6.597
 5216POPC   C3A67517  15.680  11.399   6.973
 5216POPC   C4A67518  15.624  11.027   7.183
 5216POPC   C1B67519  15.896  10.813   6.302
 5216POPC   C2B67520  16.208  10.954   6.597
 5216POPC   C3B67521  16.135  11.170   6.997
 5216POPC   C4B67522  16.413  11.378   7.281
 5217POPC   NC367523  41.409  18.040   5.643
 5217POPC   PO467524  41.697  18.699   5.551
 5217POPC   GL167525  41.540  18.469   5.895
 5217POPC   GL267526  41.251  18.318   6.055
 5217POPC   C1A67527  41.739  18.250   6.210
 5217POPC   D2A67528  41.605  18.276   6.594
 5217POPC   C3A67529  41.811  18.317   6.941
 5217POPC   C4A67530  41.876  18.228   7.336
 5217POPC   C1B67531  41.274  18.602   6.386
 5217POPC   C2B67532  41.237  18.522   6.853
 5217POPC   C3B67533  41.398  18.469   7.274
 5217POPC   C4B67534  41.424  18.233   7.649
 5218POPC   NC367535  24.541  15.925   5.371
 5218POPC   PO467536  24.047  16.117   5.793
 5218POPC   GL167537  24.309  15.853   6.058
 5218POPC   GL267538  24.628  15.807   5.908
 5218POPC   C1A67539  24.309  15.802   6.483
 5218POPC   D2A67540  24.511  16.140   6.702
 5218POPC   C3A67541  24.348  16.144   7.078
 5218POPC   C4A67542  24.277  15.708   7.070
 5218POPC   C1B67543  24.790  15.802   6.309
 5218POPC   C2B67544  24.734  15.682   6.754
 5218POPC   C3B67545  24.819  15.917   7.113
 5218POPC   C4B67546  24.613  16.048   7.513
 5219POPC   NC367547  19.326  28.877   5.437
 5219POPC   PO467548  19.868  29.311   5.246
 5219POPC   GL167549  19.727  29.115   5.678
 5219POPC   GL267550  19.961  29.237   5.941
 5219POPC   C1A67551  19.658  28.868   6.104
 5219POPC   D2A67552  19.778  28.851   6.575
 5219POPC   C3A67553  19.601  28.924   7.044
 5219POPC   C4A67554  19.708  28.983   7.535
 5219POPC   C1B67555  19.524  29.372   6.060
 5219POPC   C2B67556  19.521  29.266   6.478
 5219POPC   C3B67557  19.626  29.421   6.888
 5219POPC   C4B67558  19.953  29.290   7.187
 5220POPC   NC367559  10.218  13.038   5.179
 5220POPC   PO467560  10.619  12.588   5.522
 5220POPC   GL167561  10.615  12.854   5.849
 5220POPC   GL267562  10.511  12.607   6.058
 5220POPC   C1A67563  10.379  13.080   6.191
 5220POPC   D2A67564  10.229  12.971   6.587
 5220POPC   C3A67565  10.350  13.173   6.972
 5220POPC   C4A67566  10.539  12.952   7.356
 5220POPC   C1B67567  10.809  12.821   6.334
 5220POPC   C2B67568  10.724  12.900   6.761
 5220POPC   C3B67569  10.415  12.656   6.970
 5220POPC   C4B67570  10.536  12.441   7.311
 5221POPC   NC367571  14.315  18.515   5.352
 5221POPC   PO467572  14.652  17.866   5.587
 5221POPC   GL167573  14.370  18.131   5.900
 5221POPC   GL267574  14.489  18.508   5.828
 5221POPC   C1A67575  14.079  18.034   6.321
 5221POPC   D2A67576  14.036  18.070   6.827
 5221POPC   C3A67577  14.424  18.084   7.094
 5221POPC   C4A67578  14.660  18.096   7.513
 5221POPC   C1B67579  14.628  18.447   6.217
 5221POPC   C2B67580  14.404  18.332   6.573
 5221POPC   C3B67581  14.309  18.546   6.925
 5221POPC   C4B67582  14.469  18.534   7.345
 5222POPC   NC367583  35.372  29.953   5.264
 5222POPC   PO467584  35.177  29.357   5.490
 5222POPC   GL167585  35.445  29.682   5.708
 5222POPC   GL267586  35.237  29.999   5.802
 5222POPC   C1A67587  35.631  29.729   6.136
 5222POPC   D2A67588  35.414  29.632   6.538
 5222POPC   C3A67589  35.556  29.801   6.921
 5222POPC   C4A67590  35.478  29.741   7.362
 5222POPC   C1B67591  35.213  30.046   6.273
 5222POPC   C2B67592  35.193  30.102   6.728
 5222POPC   C3B67593  35.185  30.122   7.188
 5222POPC   C4B67594  35.112  30.149   7.686
 5223POPC   NC367595  42.022  30.685   5.367
 5223POPC   PO467596  41.496  30.433   5.458
 5223POPC   GL167597  41.684  30.732   5.761
 5223POPC   GL267598  41.580  30.511   5.983
 5223POPC   C1A67599  41.603  30.993   6.143
 5223POPC   D2A67600  41.462  30.779   6.523
 5223POPC   C3A67601  41.649  30.863   6.930
 5223POPC   C4A67602  41.409  30.807   7.311
 5223POPC   C1B67603  41.845  30.440   6.330
 5223POPC   C2B67604  41.707  30.371   6.733
 5223POPC   C3B67605  41.319  30.455   6.964
 5223POPC   C4B67606  41.298  30.307   7.429
 5224POPC   NC367607  37.475  25.821   5.437
 5224POPC   PO467608  37.647  26.497   5.502
 5224POPC   GL167609  37.577  26.168   5.809
 5224POPC   GL267610  37.763  25.825   5.843
 5224POPC   C1A67611  37.345  26.208   6.181
 5224POPC   D2A67612  37.553  26.209   6.605
 5224POPC   C3A67613  37.343  26.119   6.981
 5224POPC   C4A67614  37.333  25.930   7.358
 5224POPC   C1B67615  37.743  25.880   6.266
 5224POPC   C2B67616  37.817  25.697   6.661
 5224POPC   C3B67617  37.758  25.797   7.099
 5224POPC   C4B67618  37.845  26.093   7.445
 5225POPC   NC367619  34.235  23.557   5.393
 5225POPC   PO467620  34.753  24.121   5.279
 5225POPC   GL167621  34.594  23.908   5.651
 5225POPC   GL267622  34.848  23.682   5.818
 5225POPC   C1A67623  34.504  24.084   6.076
 5225POPC   D2A67624  34.635  24.186   6.535
 5225POPC   C3A67625  34.717  23.872   6.868
 5225POPC   C4A67626  34.361  23.760   7.123
 5225POPC   C1B67627  34.688  23.661   6.261
 5225POPC   C2B67628  34.390  23.600   6.602
 5225POPC   C3B67629  34.576  23.346   6.961
 5225POPC   C4B67630  34.946  23.299   7.210
 5226POPC   NC367631  20.343  36.110   5.313
 5226POPC   PO467632  19.701  36.075   5.442
 5226POPC   GL167633  20.032  36.188   5.750
 5226POPC   GL267634  20.189  36.525   5.696
 5226POPC   C1A67635  19.977  36.035   6.186
 5226POPC   D2A67636  19.681  36.000   6.529
 5226POPC   C3A67637  19.909  35.922   6.899
 5226POPC   C4A67638  19.756  35.992   7.325
 5226POPC   C1B67639  20.123  36.544   6.167
 5226POPC   C2B67640  20.073  36.389   6.615
 5226POPC   C3B67641  20.036  36.377   7.083
 5226POPC   C4B67642  20.088  36.372   7.539
 5227POPC   NC367643  37.420  33.180   5.518
 5227POPC   PO467644  37.948  32.758   5.681
 5227POPC   GL167645  37.685  32.992   5.905
 5227POPC   GL267646  37.344  32.823   5.908
 5227POPC   C1A67647  37.788  33.247   6.229
 5227POPC   D2A67648  37.664  33.113   6.604
 5227POPC   C3A67649  37.726  33.375   6.934
 5227POPC   C4A67650  37.652  33.305   7.398
 5227POPC   C1B67651  37.599  32.681   6.309
 5227POPC   C2B67652  37.552  32.638   6.762
 5227POPC   C3B67653  37.643  32.893   7.091
 5227POPC   C4B67654  37.833  32.833   7.489
 5228POPC   NC367655   0.367   1.378   5.586
 5228POPC   PO467656   0.078   1.102   5.045
 5228POPC   GL167657   0.020   0.976   5.630
 5228POPC   GL267658   0.094   1.204   5.962
 5228POPC   C1A67659   0.048   0.735   6.089
 5228POPC   D2A67660  44.993   0.966   6.521
 5228POPC   C3A67661   0.108   0.937   6.983
 5228POPC   C4A67662   0.281   1.265   7.237
 5228POPC   C1B67663   0.437   1.027   6.297
 5228POPC   C2B67664   0.591   1.050   6.775
 5228POPC   C3B67665   0.766   1.342   7.109
 5228POPC   C4B67666   0.634   1.514   7.519
 5229POPC   NC367667  19.745  31.651   5.347
 5229POPC   PO467668  19.568  30.950   5.441
 5229POPC   GL167669  19.735  31.288   5.688
 5229POPC   GL267670  19.883  31.119   5.896
 5229POPC   C1A67671  19.916  31.589   6.019
 5229POPC   D2A67672  19.824  31.589   6.470
 5229POPC   C3A67673  19.910  31.353   6.840
 5229POPC   C4A67674  20.058  31.605   7.181
 5229POPC   C1B67675  19.523  31.273   6.150
 5229POPC   C2B67676  19.399  31.332   6.573
 5229POPC   C3B67677  19.349  31.315   6.999
 5229POPC   C4B67678  19.638  31.311   7.326
 5230POPC   NC367679  37.156  34.845   5.504
 5230POPC   PO467680  36.638  34.535   5.230
 5230POPC   GL167681  36.741  34.610   5.693
 5230POPC   GL267682  36.745  34.965   5.789
 5230POPC   C1A67683  36.829  34.667   6.177
 5230POPC   D2A67684  36.971  34.512   6.594
 5230POPC   C3A67685  36.836  34.575   6.998
 5230POPC   C4A67686  37.171  34.553   7.283
 5230POPC   C1B67687  37.143  35.044   6.083
 5230POPC   C2B67688  37.312  34.830   6.409
 5230POPC   C3B67689  37.265  34.866   6.871
 5230POPC   C4B67690  37.608  34.782   7.162
 5231POPC   NC367691  16.009  43.574   5.513
 5231POPC   PO467692  15.670  44.139   5.387
 5231POPC   GL167693  15.686  43.938   5.774
 5231POPC   GL267694  16.037  43.984   5.842
 5231POPC   C1A67695  15.711  43.682   6.173
 5231POPC   D2A67696  15.667  43.696   6.632
 5231POPC   C3A67697  15.700  44.087   6.843
 5231POPC   C4A67698  15.981  44.054   7.167
 5231POPC   C1B67699  16.246  44.191   6.233
 5231POPC   C2B67700  16.215  44.079   6.689
 5231POPC   C3B67701  16.210  43.660   6.910
 5231POPC   C4B67702  16.340  43.388   7.269
 5232POPC   NC367703  20.571  17.768   5.072
 5232POPC   PO467704  20.858  17.247   5.323
 5232POPC   GL167705  20.669  17.446   5.754
 5232POPC   GL267706  20.889  17.688   5.918
 5232POPC   C1A67707  20.428  17.507   6.184
 5232POPC   D2A67708  20.466  17.318   6.627
 5232POPC   C3A67709  20.445  17.473   7.031
 5232POPC   C4A67710  20.229  17.808   7.252
 5232POPC   C1B67711  20.900  17.491   6.356
 5232POPC   C2B67712  20.926  17.501   6.822
 5232POPC   C3B67713  20.904  17.357   7.248
 5232POPC   C4B67714  20.915  17.427   7.708
 5233POPC   NC367715  36.743  36.758   5.097
 5233POPC   PO467716  36.982  37.342   5.427
 5233POPC   GL167717  36.764  37.141   5.802
 5233POPC   GL267718  36.717  36.798   5.713
 5233POPC   C1A67719  36.873  36.976   6.238
 5233POPC   D2A67720  36.985  36.844   6.662
 5233POPC   C3A67721  36.987  37.086   7.063
 5233POPC   C4A67722  37.054  36.990   7.550
 5233POPC   C1B67723  36.472  36.685   6.082
 5233POPC   C2B67724  36.575  36.566   6.502
 5233POPC   C3B67725  36.566  36.712   6.916
 5233POPC   C4B67726  36.666  36.480   7.261
 5234POPC   NC367727  23.600  33.951   5.206
 5234POPC   PO467728  24.098  33.726   5.458
 5234POPC   GL167729  23.808  33.763   5.770
 5234POPC   GL267730  23.650  34.078   5.701
 5234POPC   C1A67731  23.928  33.829   6.221
 5234POPC   D2A67732  23.756  33.773   6.635
 5234POPC   C3A67733  23.977  33.494   6.917
 5234POPC   C4A67734  23.816  33.493   7.326
 5234POPC   C1B67735  23.447  33.944   6.105
 5234POPC   C2B67736  23.333  34.091   6.511
 5234POPC   C3B67737  23.396  34.226   6.915
 5234POPC   C4B67738  23.624  33.973   7.204
 5235POPC   NC367739  23.751   1.224   5.120
 5235POPC   PO467740  24.054   1.613   5.573
 5235POPC   GL167741  23.941   1.323   5.890
 5235POPC   GL267742  23.969   1.002   5.941
 5235POPC   C1A67743  23.795   1.407   6.297
 5235POPC   D2A67744  23.956   1.423   6.705
 5235POPC   C3A67745  23.688   1.137   6.861
 5235POPC   C4A67746  23.396   1.276   7.149
 5235POPC   C1B67747  23.604   0.912   6.252
 5235POPC   C2B67748  23.352   0.749   6.653
 5235POPC   C3B67749  23.458   0.742   7.128
 5235POPC   C4B67750  23.793   0.993   7.352
 5236POPC   NC367751   6.030  14.345   5.351
 5236POPC   PO467752   5.438  14.310   5.636
 5236POPC   GL167753   5.821  14.426   5.834
 5236POPC   GL267754   6.076  14.144   5.811
 5236POPC   C1A67755   5.793  14.322   6.273
 5236POPC   D2A67756   5.630  14.048   6.604
 5236POPC   C3A67757   5.782  14.158   7.007
 5236POPC   C4A67758   5.921  14.535   7.223
 5236POPC   C1B67759   6.286  14.278   6.183
 5236POPC   C2B67760   6.161  14.186   6.615
 5236POPC   C3B67761   6.316  14.044   7.005
 5236POPC   C4B67762   6.225  14.103   7.424
 5237POPC   NC367763  23.087  34.653   5.507
 5237POPC   PO467764  23.725  34.396   5.159
 5237POPC   GL167765  23.602  34.580   5.554
 5237POPC   GL267766  23.932  34.534   5.707
 5237POPC   C1A67767  23.583  34.801   5.988
 5237POPC   D2A67768  23.883  34.812   6.360
 5237POPC   C3A67769  23.795  34.786   6.826
 5237POPC   C4A67770  23.623  34.580   7.224
 5237POPC   C1B67771  23.794  34.341   6.118
 5237POPC   C2B67772  23.847  34.286   6.568
 5237POPC   C3B67773  23.994  34.331   6.997
 5237POPC   C4B67774  23.934  34.262   7.476
 5238POPC   NC367775  41.289  24.443   5.368
 5238POPC   PO467776  41.875  24.814   5.429
 5238POPC   GL167777  41.712  24.547   5.758
 5238POPC   GL267778  41.398  24.671   5.806
 5238POPC   C1A67779  41.562  24.368   6.169
 5238POPC   D2A67780  41.343  24.309   6.566
 5238POPC   C3A67781  41.555  24.222   6.949
 5238POPC   C4A67782  41.600  24.395   7.365
 5238POPC   C1B67783  41.480  24.899   6.175
 5238POPC   C2B67784  41.591  24.986   6.626
 5238POPC   C3B67785  41.517  24.764   7.017
 5238POPC   C4B67786  41.206  24.753   7.375
 5239POPC   NC367787  12.723  29.077   5.496
 5239POPC   PO467788  12.694  28.320   5.360
 5239POPC   GL167789  12.785  28.168   5.790
 5239POPC   GL267790  13.104  28.112   5.898
 5239POPC   C1A67791  12.772  28.116   6.255
 5239POPC   D2A67792  12.791  28.460   6.579
 5239POPC   C3A67793  12.794  28.288   6.964
 5239POPC   C4A67794  12.868  27.889   7.097
 5239POPC   C1B67795  13.148  28.459   6.222
 5239POPC   C2B67796  13.314  28.511   6.665
 5239POPC   C3B67797  13.224  28.532   7.107
 5239POPC   C4B67798  12.825  28.686   7.322
 5240POPC   NC367799  35.610  41.425   5.464
 5240POPC   PO467800  35.229  41.958   5.378
 5240POPC   GL167801  35.229  41.798   5.779
 5240POPC   GL267802  35.137  41.479   5.717
 5240POPC   C1A67803  35.428  41.608   6.129
 5240POPC   D2A67804  35.756  41.577   6.433
 5240POPC   C3A67805  35.557  41.536   6.832
 5240POPC   C4A67806  35.504  41.484   7.274
 5240POPC   C1B67807  35.021  41.290   6.127
 5240POPC   C2B67808  35.231  41.265   6.519
 5240POPC   C3B67809  35.095  41.330   6.931
 5240POPC   C4B67810  35.001  41.659   7.229
 5241POPC   NC367811  19.543  10.149   5.543
 5241POPC   PO467812  20.163  10.376   5.363
 5241POPC   GL167813  20.032  10.661   5.717
 5241POPC   GL267814  19.764  10.482   5.834
 5241POPC   C1A67815  19.881  10.824   6.165
 5241POPC   D2A67816  19.610  10.674   6.511
 5241POPC   C3A67817  19.805  10.691   6.926
 5241POPC   C4A67818  19.685  10.390   7.242
 5241POPC   C1B67819  20.073  10.367   6.134
 5241POPC   C2B67820  20.084  10.461   6.547
 5241POPC   C3B67821  20.074  10.254   6.927
 5241POPC   C4B67822  20.219  10.209   7.353
 5242POPC   NC367823  15.194  42.307   5.229
 5242POPC   PO467824  15.679  42.583   5.577
 5242POPC   GL167825  15.259  42.369   5.773
 5242POPC   GL267826  14.877  42.290   5.738
 5242POPC   C1A67827  15.123  42.453   6.225
 5242POPC   D2A67828  15.030  42.469   6.705
 5242POPC   C3A67829  15.403  42.365   6.890
 5242POPC   C4A67830  15.538  42.205   7.292
 5242POPC   C1B67831  14.708  42.154   6.174
 5242POPC   C2B67832  14.652  42.059   6.634
 5242POPC   C3B67833  14.858  42.096   7.043
 5242POPC   C4B67834  15.065  42.429   7.273
 5243POPC   NC367835   3.587  37.868   5.487
 5243POPC   PO467836   3.780  37.278   5.446
 5243POPC   GL167837   3.654  37.481   5.850
 5243POPC   GL267838   3.317  37.513   5.856
 5243POPC   C1A67839   3.639  37.572   6.324
 5243POPC   D2A67840   3.428  37.840   6.648
 5243POPC   C3A67841   3.501  37.824   7.107
 5243POPC   C4A67842   3.687  37.482   7.388
 5243POPC   C1B67843   3.172  37.755   6.197
 5243POPC   C2B67844   2.929  37.702   6.578
 5243POPC   C3B67845   3.086  37.576   6.975
 5243POPC   C4B67846   3.183  37.594   7.423
 5244POPC   NC367847  20.712  16.936   5.608
 5244POPC   PO467848  20.297  16.499   5.678
 5244POPC   GL167849  20.376  16.801   5.967
 5244POPC   GL267850  20.269  17.117   5.864
 5244POPC   C1A67851  20.638  17.032   6.257
 5244POPC   D2A67852  20.860  17.003   6.665
 5244POPC   C3A67853  20.621  16.964   7.075
 5244POPC   C4A67854  20.484  16.618   7.403
 5244POPC   C1B67855  20.132  17.051   6.324
 5244POPC   C2B67856  20.290  16.830   6.705
 5244POPC   C3B67857  20.126  16.880   7.165
 5244POPC   C4B67858  20.116  16.904   7.650
 5245POPC   NC367859  31.230   5.040   5.195
 5245POPC   PO467860  31.503   4.542   5.452
 5245POPC   GL167861  31.352   4.936   5.750
 5245POPC   GL267862  31.463   5.296   5.614
 5245POPC   C1A67863  31.247   4.966   6.253
 5245POPC   D2A67864  31.199   4.780   6.722
 5245POPC   C3A67865  31.443   4.896   7.122
 5245POPC   C4A67866  31.819   5.080   7.352
 5245POPC   C1B67867  31.209   5.412   5.979
 5245POPC   C2B67868  31.108   5.505   6.441
 5245POPC   C3B67869  31.273   5.324   6.846
 5245POPC   C4B67870  31.474   5.441   7.246
 5246POPC   NC367871   9.736   1.608   5.312
 5246POPC   PO467872  10.039   2.293   5.289
 5246POPC   GL167873  10.078   2.084   5.706
 5246POPC   GL267874  10.029   1.722   5.717
 5246POPC   C1A67875   9.913   2.247   6.138
 5246POPC   D2A67876   9.844   2.408   6.578
 5246POPC   C3A67877   9.807   2.136   6.959
 5246POPC   C4A67878   9.594   2.309   7.298
 5246POPC   C1B67879  10.097   1.779   6.141
 5246POPC   C2B67880  10.015   1.912   6.537
 5246POPC   C3B67881  10.185   1.749   6.901
 5246POPC   C4B67882  10.138   1.730   7.328
 5247POPC   NC367883  44.252  34.682   5.340
 5247POPC   PO467884  44.766  35.053   5.455
 5247POPC   GL167885  44.472  34.928   5.786
 5247POPC   GL267886  44.416  34.552   5.807
 5247POPC   C1A67887  44.616  34.852   6.215
 5247POPC   D2A67888  44.680  34.934   6.671
 5247POPC   C3A67889  44.493  34.753   7.029
 5247POPC   C4A67890  44.513  34.917   7.420
 5247POPC   C1B67891  44.429  34.392   6.227
 5247POPC   C2B67892  44.609  34.429   6.639
 5247POPC   C3B67893  44.949  34.569   6.950
 5247POPC   C4B67894  44.905  34.590   7.418
 5248POPC   NC367895   3.692   9.286   5.422
 5248POPC   PO467896   3.776   9.988   5.439
 5248POPC   GL167897   3.740   9.883   5.861
 5248POPC   GL267898   3.425   9.706   5.834
 5248POPC   C1A67899   3.623   9.812   6.300
 5248POPC   D2A67900   3.268   9.683   6.551
 5248POPC   C3A67901   3.220   9.795   6.958
 5248POPC   C4A67902   3.389   9.967   7.297
 5248POPC   C1B67903   3.474   9.354   6.119
 5248POPC   C2B67904   3.640   9.346   6.541
 5248POPC   C3B67905   3.367   9.308   6.909
 5248POPC   C4B67906   3.277   9.415   7.344
 5249POPC   NC367907  27.253  36.656   4.996
 5249POPC   PO467908  27.510  36.138   5.393
 5249POPC   GL167909  27.806  36.174   5.745
 5249POPC   GL267910  27.534  36.292   5.914
 5249POPC   C1A67911  27.802  35.966   6.184
 5249POPC   D2A67912  27.834  36.133   6.629
 5249POPC   C3A67913  27.601  36.117   7.018
 5249POPC   C4A67914  27.835  35.814   7.226
 5249POPC   C1B67915  27.356  36.523   6.245
 5249POPC   C2B67916  27.442  36.485   6.686
 5249POPC   C3B67917  27.327  36.558   7.115
 5249POPC   C4B67918  27.472  36.390   7.522
 5250POPC   NC367919  40.967  40.240   5.259
 5250POPC   PO467920  40.371  39.937   5.399
 5250POPC   GL167921  40.623  39.963   5.765
 5250POPC   GL267922  40.972  40.074   5.742
 5250POPC   C1A67923  40.792  39.797   6.156
 5250POPC   D2A67924  40.864  40.022   6.534
 5250POPC   C3A67925  40.987  39.850   6.914
 5250POPC   C4A67926  40.807  39.771   7.296
 5250POPC   C1B67927  40.945  40.300   6.115
 5250POPC   C2B67928  40.959  40.527   6.515
 5250POPC   C3B67929  40.901  40.372   6.925
 5250POPC   C4B67930  41.086  40.215   7.301
 5251POPC   NC367931   0.673  39.291   5.320
 5251POPC   PO467932  44.992  39.136   5.302
 5251POPC   GL167933   0.236  39.053   5.686
 5251POPC   GL267934   0.495  39.262   5.796
 5251POPC   C1A67935   0.245  38.945   6.138
 5251POPC   D2A67936   0.511  39.062   6.497
 5251POPC   C3A67937   0.307  39.015   6.915
 5251POPC   C4A67938   0.550  39.064   7.309
 5251POPC   C1B67939   0.180  39.453   6.068
 5251POPC   C2B67940   0.213  39.463   6.504
 5251POPC   C3B67941   0.484  39.489   6.864
 5251POPC   C4B67942   0.235  39.448   7.237
 5252POPC   NC367943  21.088  35.474   5.394
 5252POPC   PO467944  21.729  35.200   5.431
 5252POPC   GL167945  21.420  35.297   5.777
 5252POPC   GL267946  21.306  35.590   5.869
 5252POPC   C1A67947  21.263  35.152   6.174
 5252POPC   D2A67948  21.350  34.882   6.537
 5252POPC   C3A67949  21.180  35.054   6.935
 5252POPC   C4A67950  21.298  35.093   7.378
 5252POPC   C1B67951  21.361  35.689   6.283
 5252POPC   C2B67952  21.474  35.558   6.668
 5252POPC   C3B67953  21.567  35.403   7.060
 5252POPC   C4B67954  21.337  35.586   7.397
 5253POPC   NC367955  40.628   7.179   5.426
 5253POPC   PO467956  40.952   7.692   5.238
 5253POPC   GL167957  40.848   7.633   5.722
 5253POPC   GL267958  40.513   7.686   5.861
 5253POPC   C1A67959  40.922   7.690   6.202
 5253POPC   D2A67960  41.041   7.425   6.587
 5253POPC   C3A67961  40.938   7.528   6.988
 5253POPC   C4A67962  40.898   7.272   7.352
 5253POPC   C1B67963  40.596   7.306   6.082
 5253POPC   C2B67964  40.546   7.379   6.504
 5253POPC   C3B67965  40.440   7.497   6.894
 5253POPC   C4B67966  40.417   7.362   7.277
 5254POPC   NC367967  14.955   0.689   5.227
 5254POPC   PO467968  15.600   0.399   5.248
 5254POPC   GL167969  15.392   0.417   5.680
 5254POPC   GL267970  15.054   0.567   5.707
 5254POPC   C1A67971  15.366   0.276   6.130
 5254POPC   D2A67972  15.197  44.995   6.501
 5254POPC   C3A67973  15.191   0.185   6.938
 5254POPC   C4A67974  14.854   0.366   7.211
 5254POPC   C1B67975  15.071   0.746   6.114
 5254POPC   C2B67976  15.192   0.570   6.517
 5254POPC   C3B67977  15.109   0.704   6.910
 5254POPC   C4B67978  15.290   0.646   7.286
 5255POPC   NC367979   2.415   5.104   5.472
 5255POPC   PO467980   2.818   5.446   5.171
 5255POPC   GL167981   2.745   5.452   5.669
 5255POPC   GL267982   2.799   5.127   5.836
 5255POPC   C1A67983   2.491   5.416   6.113
 5255POPC   D2A67984   2.557   5.553   6.575
 5255POPC   C3A67985   2.562   5.356   7.018
 5255POPC   C4A67986   2.381   5.344   7.468
 5255POPC   C1B67987   2.981   5.364   6.216
 5255POPC   C2B67988   3.010   5.302   6.675
 5255POPC   C3B67989   3.062   5.473   7.090
 5255POPC   C4B67990   2.886   5.334   7.498
 5256POPC   NC367991  12.073  11.208   5.277
 5256POPC   PO467992  12.262  11.799   5.507
 5256POPC   GL167993  12.135  11.580   5.832
 5256POPC   GL267994  12.010  11.250   5.789
 5256POPC   C1A67995  11.964  11.588   6.216
 5256POPC   D2A67996  12.167  11.543   6.579
 5256POPC   C3A67997  11.900  11.525   6.904
 5256POPC   C4A67998  12.077  11.587   7.262
 5256POPC   C1B67999  12.120  11.116   6.204
 5256POPC   C2B68000  11.960  11.088   6.625
 5256POPC   C3B68001  12.233  11.151   7.001
 5256POPC   C4B68002  12.298  11.033   7.451
 5257POPC   NC368003  38.465  25.685   5.457
 5257POPC   PO468004  38.341  25.093   5.183
 5257POPC   GL168005  38.348  25.212   5.628
 5257POPC   GL268006  38.136  25.475   5.766
 5257POPC   C1A68007  38.501  25.187   6.061
 5257POPC   D2A68008  38.388  25.126   6.492
 5257POPC   C3A68009  38.612  25.263   6.843
 5257POPC   C4A68010  38.477  25.228   7.248
 5257POPC   C1B68011  38.116  25.514   6.214
 5257POPC   C2B68012  38.336  25.650   6.570
 5257POPC   C3B68013  38.210  25.572   6.989
 5257POPC   C4B68014  38.285  25.818   7.345
 5258POPC   NC368015  25.507  35.573   5.382
 5258POPC   PO468016  24.915  35.415   5.472
 5258POPC   GL168017  25.237  35.403   5.810
 5258POPC   GL268018  25.593  35.535   5.865
 5258POPC   C1A68019  25.165  35.378   6.251
 5258POPC   D2A68020  25.176  35.613   6.641
 5258POPC   C3A68021  24.995  35.318   6.920
 5258POPC   C4A68022  25.091  35.162   7.309
 5258POPC   C1B68023  25.583  35.649   6.269
 5258POPC   C2B68024  25.753  35.521   6.624
 5258POPC   C3B68025  25.511  35.375   6.991
 5258POPC   C4B68026  25.543  35.534   7.417
 5259POPC   NC368027  32.752  18.793   5.037
 5259POPC   PO468028  33.211  18.478   5.420
 5259POPC   GL168029  33.250  18.300   5.804
 5259POPC   GL268030  32.891  18.333   5.851
 5259POPC   C1A68031  33.202  18.389   6.245
 5259POPC   D2A68032  32.879  18.327   6.526
 5259POPC   C3A68033  33.072  18.382   6.918
 5259POPC   C4A68034  32.787  18.431   7.242
 5259POPC   C1B68035  32.931  17.967   6.136
 5259POPC   C2B68036  32.817  17.815   6.560
 5259POPC   C3B68037  32.913  17.910   6.986
 5259POPC   C4B68038  33.171  18.036   7.331
 5260POPC   NC368039  25.643  37.111   5.561
 5260POPC   PO468040  26.220  36.758   5.460
 5260POPC   GL168041  25.925  36.775   5.834
 5260POPC   GL268042  25.629  36.578   5.827
 5260POPC   C1A68043  25.808  37.009   6.233
 5260POPC   D2A68044  26.087  36.948   6.594
 5260POPC   C3A68045  26.030  36.899   7.031
 5260POPC   C4A68046  26.257  37.138   7.345
 5260POPC   C1B68047  25.814  36.507   6.273
 5260POPC   C2B68048  25.861  36.488   6.743
 5260POPC   C3B68049  25.639  36.548   7.137
 5260POPC   C4B68050  25.489  36.437   7.555
 5261POPC   NC368051  13.294  25.485   5.587
 5261POPC   PO468052  13.710  24.904   5.461
 5261POPC   GL168053  13.470  25.019   5.789
 5261POPC   GL268054  13.789  25.177   5.884
 5261POPC   C1A68055  13.454  25.059   6.247
 5261POPC   D2A68056  13.270  25.045   6.660
 5261POPC   C3A68057  13.596  25.254   6.907
 5261POPC   C4A68058  13.813  25.274   7.300
 5261POPC   C1B68059  14.023  25.019   6.214
 5261POPC   C2B68060  14.159  25.146   6.650
 5261POPC   C3B68061  14.075  24.916   7.035
 5261POPC   C4B68062  14.147  24.952   7.523
 5262POPC   NC368063  18.354  33.430   5.285
 5262POPC   PO468064  18.461  34.082   5.172
 5262POPC   GL168065  18.364  33.951   5.601
 5262POPC   GL268066  18.162  34.271   5.697
 5262POPC   C1A68067  18.512  33.654   5.944
 5262POPC   D2A68068  18.600  33.526   6.401
 5262POPC   C3A68069  18.345  33.660   6.754
 5262POPC   C4A68070  18.337  33.738   7.198
 5262POPC   C1B68071  18.404  34.179   6.094
 5262POPC   C2B68072  18.555  34.111   6.523
 5262POPC   C3B68073  18.464  34.203   6.964
 5262POPC   C4B68074  18.344  34.241   7.429
 5263POPC   NC368075  14.446  42.221   5.404
 5263POPC   PO468076  14.136  42.640   5.705
 5263POPC   GL168077  14.287  42.340   5.961
 5263POPC   GL268078  14.265  42.018   5.860
 5263POPC   C1A68079  14.221  42.265   6.403
 5263POPC   D2A68080  14.159  42.579   6.724
 5263POPC   C3A68081  14.481  42.496   7.008
 5263POPC   C4A68082  14.489  42.420   7.428
 5263POPC   C1B68083  14.084  41.787   6.237
 5263POPC   C2B68084  14.159  41.825   6.708
 5263POPC   C3B68085  14.335  42.027   7.126
 5263POPC   C4B68086  14.358  41.877   7.612
 5264POPC   NC368087  17.287   5.612   5.361
 5264POPC   PO468088  17.633   6.193   5.457
 5264POPC   GL168089  17.438   5.997   5.815
 5264POPC   GL268090  17.502   5.627   5.841
 5264POPC   C1A68091  17.564   5.968   6.258
 5264POPC   D2A68092  17.553   6.191   6.653
 5264POPC   C3A68093  17.566   5.946   7.007
 5264POPC   C4A68094  17.562   5.809   7.418
 5264POPC   C1B68095  17.252   5.403   6.163
 5264POPC   C2B68096  17.277   5.371   6.620
 5264POPC   C3B68097  17.413   5.436   7.054
 5264POPC   C4B68098  17.833   5.416   7.241
 5265POPC   NC368099   7.629   5.913   5.329
 5265POPC   PO468100   7.071   6.155   5.615
 5265POPC   GL168101   7.374   5.912   5.850
 5265POPC   GL268102   7.707   6.077   5.927
 5265POPC   C1A68103   7.482   5.717   6.257
 5265POPC   D2A68104   7.455   5.489   6.644
 5265POPC   C3A68105   7.371   5.744   7.006
 5265POPC   C4A68106   7.229   5.670   7.418
 5265POPC   C1B68107   7.466   6.251   6.299
 5265POPC   C2B68108   7.280   6.216   6.736
 5265POPC   C3B68109   7.557   6.252   7.114
 5265POPC   C4B68110   7.495   6.086   7.528
 5266POPC   NC368111  21.812  44.147   5.140
 5266POPC   PO468112  21.184  44.040   5.339
 5266POPC   GL168113  21.111  43.843   5.711
 5266POPC   GL268114  21.442  43.895   5.910
 5266POPC   C1A68115  20.987  43.820   6.118
 5266POPC   D2A68116  21.280  43.825   6.442
 5266POPC   C3A68117  21.246  43.783   6.878
 5266POPC   C4A68118  21.144  44.009   7.238
 5266POPC   C1B68119  21.758  43.850   6.257
 5266POPC   C2B68120  21.742  43.890   6.740
 5266POPC   C3B68121  21.763  43.765   7.192
 5266POPC   C4B68122  21.671  43.560   7.670
 5267POPC   NC368123  24.198  40.453   5.475
 5267POPC   PO468124  24.663  40.021   5.622
 5267POPC   GL168125  24.347  40.165   5.886
 5267POPC   GL268126  24.561  40.475   5.858
 5267POPC   C1A68127  24.305  39.898   6.281
 5267POPC   D2A68128  24.543  39.672   6.636
 5267POPC   C3A68129  24.333  39.711   7.038
 5267POPC   C4A68130  24.160  39.885   7.419
 5267POPC   C1B68131  24.692  40.246   6.247
 5267POPC   C2B68132  24.510  40.204   6.664
 5267POPC   C3B68133  24.553  40.357   7.083
 5267POPC   C4B68134  24.642  40.089   7.441
 5268POPC   NC368135   2.878  14.558   5.218
 5268POPC   PO468136   2.390  14.197   5.290
 5268POPC   GL168137   2.462  14.573   5.576
 5268POPC   GL268138   2.808  14.590   5.722
 5268POPC   C1A68139   2.406  14.676   6.029
 5268POPC   D2A68140   2.599  14.602   6.441
 5268POPC   C3A68141   2.466  14.582   6.866
 5268POPC   C4A68142   2.614  14.579   7.290
 5268POPC   C1B68143   3.035  14.563   6.108
 5268POPC   C2B68144   3.095  14.612   6.541
 5268POPC   C3B68145   3.022  14.618   6.970
 5268POPC   C4B68146   3.255  14.744   7.347
 5269POPC   NC368147  28.763  15.625   5.570
 5269POPC   PO468148  29.218  16.065   5.355
 5269POPC   GL168149  28.976  16.090   5.747
 5269POPC   GL268150  29.150  15.807   5.879
 5269POPC   C1A68151  29.022  16.171   6.226
 5269POPC   D2A68152  29.220  16.352   6.614
 5269POPC   C3A68153  29.150  16.187   7.059
 5269POPC   C4A68154  28.936  16.060   7.461
 5269POPC   C1B68155  29.316  15.779   6.322
 5269POPC   C2B68156  29.007  15.873   6.671
 5269POPC   C3B68157  28.927  15.706   7.091
 5269POPC   C4B68158  29.191  15.601   7.466
 5270POPC   NC368159   1.555  10.689   5.578
 5270POPC   PO468160   2.016  10.230   5.352
 5270POPC   GL168161   1.980  10.443   5.743
 5270POPC   GL268162   1.672  10.267   5.806
 5270POPC   C1A68163   2.110  10.630   6.140
 5270POPC   D2A68164   2.177  10.944   6.468
 5270POPC   C3A68165   2.230  10.718   6.835
 5270POPC   C4A68166   2.094  10.637   7.229
 5270POPC   C1B68167   1.865  10.173   6.213
 5270POPC   C2B68168   2.081  10.279   6.547
 5270POPC   C3B68169   2.272  10.179   6.889
 5270POPC   C4B68170   1.984  10.150   7.158
 5271POPC   NC368171  44.569   5.887   5.200
 5271POPC   PO468172  44.161   6.070   5.686
 5271POPC   GL168173  44.572   5.908   5.841
 5271POPC   GL268174  44.583   5.584   5.642
 5271POPC   C1A68175  44.700   5.881   6.325
 5271POPC   D2A68176  44.691   6.164   6.714
 5271POPC   C3A68177  44.715   6.054   7.184
 5271POPC   C4A68178  44.949   5.787   7.526
 5271POPC   C1B68179  44.527   5.458   6.080
 5271POPC   C2B68180  44.356   5.489   6.515
 5271POPC   C3B68181  44.368   5.761   6.898
 5271POPC   C4B68182  44.188   6.114   7.154
 5272POPC   NC368183  36.013  30.473   5.248
 5272POPC   PO468184  36.595  30.323   5.516
 5272POPC   GL168185  36.287  30.558   5.812
 5272POPC   GL268186  35.903  30.531   5.761
 5272POPC   C1A68187  36.409  30.851   6.184
 5272POPC   D2A68188  36.493  31.098   6.591
 5272POPC   C3A68189  36.483  30.841   6.983
 5272POPC   C4A68190  36.258  30.829   7.392
 5272POPC   C1B68191  35.923  30.639   6.206
 5272POPC   C2B68192  36.118  30.715   6.621
 5272POPC   C3B68193  35.921  30.633   7.017
 5272POPC   C4B68194  35.628  30.297   6.965
 5273POPC   NC368195  36.706  34.090   5.360
 5273POPC   PO468196  37.167  33.562   5.385
 5273POPC   GL168197  37.060  33.823   5.796
 5273POPC   GL268198  36.786  34.087   5.853
 5273POPC   C1A68199  37.013  33.665   6.243
 5273POPC   D2A68200  36.769  33.508   6.607
 5273POPC   C3A68201  36.946  33.675   6.991
 5273POPC   C4A68202  37.055  34.098   7.102
 5273POPC   C1B68203  37.011  34.172   6.213
 5273POPC   C2B68204  36.890  34.016   6.614
 5273POPC   C3B68205  36.549  34.104   6.912
 5273POPC   C4B68206  36.452  34.142   7.360
 5274POPC   NC368207  15.408   6.287   5.470
 5274POPC   PO468208  15.226   6.886   5.324
 5274POPC   GL168209  15.010   6.735   5.649
 5274POPC   GL268210  15.314   6.649   5.795
 5274POPC   C1A68211  14.969   6.812   6.112
 5274POPC   D2A68212  14.975   6.554   6.484
 5274POPC   C3A68213  15.028   6.791   6.869
 5274POPC   C4A68214  14.982   6.625   7.257
 5274POPC   C1B68215  15.420   6.524   6.197
 5274POPC   C2B68216  15.466   6.651   6.614
 5274POPC   C3B68217  15.307   6.367   6.912
 5274POPC   C4B68218  15.412   6.332   7.328
 5275POPC   NC368219  34.390  41.021   5.508
 5275POPC   PO468220  34.613  40.363   5.507
 5275POPC   GL168221  34.526  40.672   5.834
 5275POPC   GL268222  34.832  40.844   5.936
 5275POPC   C1A68223  34.462  40.860   6.263
 5275POPC   D2A68224  34.368  40.755   6.676
 5275POPC   C3A68225  34.606  40.925   7.003
 5275POPC   C4A68226  34.364  41.085   7.375
 5275POPC   C1B68227  34.776  40.437   6.186
 5275POPC   C2B68228  34.658  40.340   6.602
 5275POPC   C3B68229  34.866  40.482   6.960
 5275POPC   C4B68230  35.044  40.303   7.312
 5276POPC   NC368231  44.763  30.550   5.432
 5276POPC   PO468232  44.701  31.101   5.498
 5276POPC   GL168233  44.516  30.831   5.836
 5276POPC   GL268234  44.813  30.908   5.999
 5276POPC   C1A68235  44.510  30.663   6.328
 5276POPC   D2A68236  44.797  30.628   6.716
 5276POPC   C3A68237  44.885  30.350   7.085
 5276POPC   C4A68238  44.835  30.359   7.536
 5276POPC   C1B68239  44.481  31.187   6.212
 5276POPC   C2B68240  44.448  31.342   6.653
 5276POPC   C3B68241  44.601  31.051   6.947
 5276POPC   C4B68242  44.482  30.665   7.121
 5277POPC   NC368243  42.516  36.413   5.203
 5277POPC   PO468244  42.330  35.709   5.238
 5277POPC   GL168245  42.535  35.835   5.668
 5277POPC   GL268246  42.555  36.205   5.709
 5277POPC   C1A68247  42.356  35.939   6.117
 5277POPC   D2A68248  42.119  36.244   6.392
 5277POPC   C3A68249  42.155  36.240   6.825
 5277POPC   C4A68250  42.059  36.121   7.235
 5277POPC   C1B68251  42.561  36.412   6.150
 5277POPC   C2B68252  42.677  36.500   6.613
 5277POPC   C3B68253  42.541  36.473   7.068
 5277POPC   C4B68254  42.702  36.288   7.460
 5278POPC   NC368255  33.656  43.327   5.547
 5278POPC   PO468256  33.742  42.674   5.511
 5278POPC   GL168257  33.901  42.963   5.833
 5278POPC   GL268258  34.083  43.306   5.854
 5278POPC   C1A68259  33.658  42.982   6.213
 5278POPC   D2A68260  33.642  42.737   6.568
 5278POPC   C3A68261  33.665  42.907   6.965
 5278POPC   C4A68262  33.986  42.884   7.250
 5278POPC   C1B68263  34.075  43.235   6.314
 5278POPC   C2B68264  33.761  43.297   6.648
 5278POPC   C3B68265  33.823  43.375   7.093
 5278POPC   C4B68266  34.268  43.377   7.226
 5279POPC   NC368267  39.753  30.130   5.084
 5279POPC   PO468268  39.178  29.743   5.260
 5279POPC   GL168269  39.318  29.843   5.675
 5279POPC   GL268270  39.152  30.160   5.655
 5279POPC   C1A68271  39.233  29.718   6.119
 5279POPC   D2A68272  38.946  29.850   6.461
 5279POPC   C3A68273  39.055  30.087   6.838
 5279POPC   C4A68274  38.830  30.133   7.228
 5279POPC   C1B68275  39.096  30.206   6.102
 5279POPC   C2B68276  39.400  30.190   6.449
 5279POPC   C3B68277  39.612  30.075   6.819
 5279POPC   C4B68278  39.433  29.998   7.225
 5280POPC   NC368279   9.406  11.212   5.584
 5280POPC   PO468280  10.027  11.410   5.663
 5280POPC   GL168281   9.823  11.126   5.916
 5280POPC   GL268282  10.123  11.026   6.048
 5280POPC   C1A68283   9.634  11.253   6.311
 5280POPC   D2A68284   9.688  11.587   6.628
 5280POPC   C3A68285   9.606  11.488   7.089
 5280POPC   C4A68286   9.693  11.439   7.572
 5280POPC   C1B68287  10.126  11.358   6.378
 5280POPC   C2B68288  10.005  11.236   6.815
 5280POPC   C3B68289  10.018  11.213   7.261
 5280POPC   C4B68290  10.202  11.350   7.652
 5281POPC   NC368291  17.789  42.247   5.422
 5281POPC   PO468292  17.182  42.554   5.469
 5281POPC   GL168293  17.505  42.487   5.772
 5281POPC   GL268294  17.776  42.750   5.738
 5281POPC   C1A68295  17.561  42.217   6.127
 5281POPC   D2A68296  17.348  42.139   6.511
 5281POPC   C3A68297  17.615  42.142   6.863
 5281POPC   C4A68298  17.445  42.417   7.150
 5281POPC   C1B68299  17.657  42.730   6.191
 5281POPC   C2B68300  17.827  42.508   6.550
 5281POPC   C3B68301  17.886  42.634   7.009
 5281POPC   C4B68302  17.666  42.778   7.414
 5282POPC   NC368303  42.729  42.247   5.307
 5282POPC   PO468304  43.423  42.279   5.326
 5282POPC   GL168305  43.319  42.181   5.781
 5282POPC   GL268306  43.080  42.446   5.838
 5282POPC   C1A68307  43.221  42.239   6.257
 5282POPC   D2A68308  43.296  42.124   6.644
 5282POPC   C3A68309  43.335  42.454   6.917
 5282POPC   C4A68310  43.339  42.237   7.277
 5282POPC   C1B68311  42.821  42.553   6.208
 5282POPC   C2B68312  42.842  42.371   6.623
 5282POPC   C3B68313  42.880  42.239   7.033
 5282POPC   C4B68314  42.587  42.237   7.364
 5283POPC   NC368315  16.522  17.102   5.402
 5283POPC   PO468316  16.747  17.660   5.173
 5283POPC   GL168317  16.645  17.589   5.640
 5283POPC   GL268318  16.592  17.892   5.850
 5283POPC   C1A68319  16.709  17.475   6.109
 5283POPC   D2A68320  17.008  17.355   6.455
 5283POPC   C3A68321  16.905  17.281   6.921
 5283POPC   C4A68322  16.996  17.419   7.375
 5283POPC   C1B68323  16.791  17.959   6.243
 5283POPC   C2B68324  16.701  17.724   6.635
 5283POPC   C3B68325  16.627  17.668   7.071
 5283POPC   C4B68326  16.505  17.346   7.294
 5284POPC   NC368327  29.142   9.920   5.246
 5284POPC   PO468328  29.169   9.217   5.277
 5284POPC   GL168329  29.024   9.545   5.627
 5284POPC   GL268330  29.311   9.673   5.782
 5284POPC   C1A68331  28.911   9.554   6.100
 5284POPC   D2A68332  28.981   9.830   6.469
 5284POPC   C3A68333  29.068   9.641   6.873
 5284POPC   C4A68334  29.052   9.779   7.307
 5284POPC   C1B68335  29.398   9.593   6.228
 5284POPC   C2B68336  29.491   9.797   6.612
 5284POPC   C3B68337  29.469   9.933   7.042
 5284POPC   C4B68338  29.685   9.717   7.369
 5285POPC   NC368339  27.972  39.710   5.344
 5285POPC   PO468340  28.431  40.242   5.250
 5285POPC   GL168341  28.307  39.987   5.618
 5285POPC   GL268342  28.050  40.195   5.822
 5285POPC   C1A68343  28.362  39.872   6.060
 5285POPC   D2A68344  28.443  39.912   6.501
 5285POPC   C3A68345  28.268  39.634   6.809
 5285POPC   C4A68346  28.538  39.526   7.141
 5285POPC   C1B68347  28.019  40.254   6.317
 5285POPC   C2B68348  28.109  40.172   6.791
 5285POPC   C3B68349  28.313  40.028   7.186
 5285POPC   C4B68350  28.351  40.264   7.610
 5286POPC   NC368351  25.538  38.026   5.633
 5286POPC   PO468352  25.010  37.797   5.354
 5286POPC   GL168353  25.200  37.608   5.721
 5286POPC   GL268354  24.946  37.735   5.900
 5286POPC   C1A68355  25.360  37.534   6.153
 5286POPC   D2A68356  25.182  37.635   6.558
 5286POPC   C3A68357  25.365  37.552   6.961
 5286POPC   C4A68358  25.112  37.310   7.231
 5286POPC   C1B68359  25.098  38.024   6.181
 5286POPC   C2B68360  25.356  38.101   6.543
 5286POPC   C3B68361  25.215  38.052   6.947
 5286POPC   C4B68362  25.397  38.094   7.332
 5287POPC   NC368363  41.871  30.110   5.507
 5287POPC   PO468364  41.594  29.585   5.282
 5287POPC   GL168365  41.521  29.705   5.714
 5287POPC   GL268366  41.376  30.029   5.754
 5287POPC   C1A68367  41.805  29.634   6.055
 5287POPC   D2A68368  41.919  29.825   6.441
 5287POPC   C3A68369  41.809  29.694   6.836
 5287POPC   C4A68370  41.982  29.971   7.117
 5287POPC   C1B68371  41.533  30.050   6.185
 5287POPC   C2B68372  41.431  29.957   6.614
 5287POPC   C3B68373  41.465  29.973   7.075
 5287POPC   C4B68374  41.186  29.739   7.322
 5288POPC   NC368375  26.290  33.035   5.589
 5288POPC   PO468376  25.713  32.729   5.445
 5288POPC   GL168377  25.917  32.819   5.864
 5288POPC   GL268378  25.880  33.181   5.919
 5288POPC   C1A68379  26.150  32.954   6.275
 5288POPC   D2A68380  26.128  33.287   6.625
 5288POPC   C3A68381  26.300  33.140   7.027
 5288POPC   C4A68382  26.118  32.770   7.153
 5288POPC   C1B68383  25.675  33.290   6.307
 5288POPC   C2B68384  25.606  33.303   6.755
 5288POPC   C3B68385  25.798  33.209   7.142
 5288POPC   C4B68386  25.604  32.981   7.481
 5289POPC   NC368387  14.789  14.940   5.328
 5289POPC   PO468388  14.287  15.386   5.345
 5289POPC   GL168389  14.252  15.295   5.764
 5289POPC   GL268390  14.570  15.157   5.747
 5289POPC   C1A68391  14.122  15.281   6.181
 5289POPC   D2A68392  14.325  15.132   6.530
 5289POPC   C3A68393  14.127  15.161   6.898
 5289POPC   C4A68394  14.290  15.306   7.253
 5289POPC   C1B68395  14.686  15.081   6.153
 5289POPC   C2B68396  14.662  14.743   6.464
 5289POPC   C3B68397  14.545  14.776   6.906
 5289POPC   C4B68398  14.655  14.912   7.320
 5290POPC   NC368399   2.838  42.166   5.113
 5290POPC   PO468400   2.968  42.746   5.429
 5290POPC   GL168401   2.677  42.602   5.763
 5290POPC   GL268402   2.410  42.553   5.819
 5290POPC   C1A68403   2.696  42.288   6.187
 5290POPC   D2A68404   2.909  42.169   6.600
 5290POPC   C3A68405   2.760  42.027   6.987
 5290POPC   C4A68406   2.351  41.939   6.945
 5290POPC   C1B68407   2.676  42.784   6.206
 5290POPC   C2B68408   2.579  42.747   6.614
 5290POPC   C3B68409   2.578  42.501   6.985
 5290POPC   C4B68410   2.614  42.684   7.397
 5291POPC   NC368411   7.595  29.983   5.591
 5291POPC   PO468412   7.000  30.193   5.512
 5291POPC   GL168413   7.112  30.015   5.909
 5291POPC   GL268414   7.342  29.727   5.950
 5291POPC   C1A68415   7.186  29.966   6.373
 5291POPC   D2A68416   7.240  30.204   6.752
 5291POPC   C3A68417   7.132  30.029   7.166
 5291POPC   C4A68418   7.365  30.088   7.562
 5291POPC   C1B68419   7.732  29.905   6.203
 5291POPC   C2B68420   7.742  30.065   6.620
 5291POPC   C3B68421   7.582  29.864   6.970
 5291POPC   C4B68422   7.639  29.692   7.353
 5292POPC   NC368423  15.931  38.264   5.346
 5292POPC   PO468424  16.353  38.825   5.167
 5292POPC   GL168425  16.156  38.681   5.567
 5292POPC   GL268426  15.777  38.665   5.667
 5292POPC   C1A68427  16.147  38.439   5.973
 5292POPC   D2A68428  16.138  38.149   6.347
 5292POPC   C3A68429  15.907  38.272   6.716
 5292POPC   C4A68430  16.067  38.415   7.117
 5292POPC   C1B68431  15.695  38.706   6.132
 5292POPC   C2B68432  15.485  38.509   6.488
 5292POPC   C3B68433  15.409  38.265   6.854
 5292POPC   C4B68434  15.556  38.488   7.180
 5293POPC   NC368435  13.857  19.359   5.630
 5293POPC   PO468436  13.629  19.890   5.246
 5293POPC   GL168437  13.579  19.999   5.715
 5293POPC   GL268438  13.484  19.677   5.850
 5293POPC   C1A68439  13.761  19.945   6.180
 5293POPC   D2A68440  13.590  19.800   6.598
 5293POPC   C3A68441  13.616  19.969   6.986
 5293POPC   C4A68442  13.940  19.913   7.215
 5293POPC   C1B68443  13.527  19.464   6.235
 5293POPC   C2B68444  13.273  19.408   6.618
 5293POPC   C3B68445  13.309  19.568   7.031
 5293POPC   C4B68446  13.585  19.587   7.384
 5294POPC   NC368447   0.552  44.053   5.626
 5294POPC   PO468448   0.385  44.586   5.189
 5294POPC   GL168449   0.439  44.582   5.673
 5294POPC   GL268450   0.561  44.871   5.823
 5294POPC   C1A68451   0.358  44.523   6.183
 5294POPC   D2A68452   0.177  44.456   6.651
 5294POPC   C3A68453   0.289  44.680   7.063
 5294POPC   C4A68454   0.275  44.619   7.529
 5294POPC   C1B68455   0.718  44.867   6.247
 5294POPC   C2B68456   0.695  44.676   6.681
 5294POPC   C3B68457   0.769  44.556   7.128
 5294POPC   C4B68458   0.774  44.849   7.464
 5295POPC   NC368459  11.936  38.848   5.458
 5295POPC   PO468460  11.824  39.553   5.427
 5295POPC   GL168461  12.067  39.408   5.860
 5295POPC   GL268462  12.134  39.031   5.906
 5295POPC   C1A68463  12.163  39.335   6.329
 5295POPC   D2A68464  12.388  39.164   6.700
 5295POPC   C3A68465  12.275  39.425   7.038
 5295POPC   C4A68466  11.835  39.490   7.117
 5295POPC   C1B68467  11.865  38.916   6.282
 5295POPC   C2B68468  11.851  39.109   6.714
 5295POPC   C3B68469  12.000  38.997   7.110
 5295POPC   C4B68470  12.321  38.751   7.241
 5296POPC   NC368471  33.894  41.855   5.434
 5296POPC   PO468472  33.929  41.093   5.508
 5296POPC   GL168473  33.831  41.466   5.761
 5296POPC   GL268474  33.503  41.448   5.930
 5296POPC   C1A68475  33.841  41.801   6.110
 5296POPC   D2A68476  33.592  41.727   6.491
 5296POPC   C3A68477  33.703  41.611   6.940
 5296POPC   C4A68478  33.803  41.858   7.327
 5296POPC   C1B68479  33.854  41.320   6.250
 5296POPC   C2B68480  34.130  41.386   6.580
 5296POPC   C3B68481  34.160  41.166   6.908
 5296POPC   C4B68482  33.882  41.199   7.220
 5297POPC   NC368483  33.451  23.913   5.347
 5297POPC   PO468484  34.115  24.011   5.288
 5297POPC   GL168485  34.074  23.946   5.750
 5297POPC   GL268486  33.854  23.646   5.777
 5297POPC   C1A68487  34.082  23.815   6.208
 5297POPC   D2A68488  33.850  23.499   6.423
 5297POPC   C3A68489  33.907  23.597   6.826
 5297POPC   C4A68490  33.918  23.501   7.217
 5297POPC   C1B68491  33.567  23.818   6.132
 5297POPC   C2B68492  33.535  23.964   6.560
 5297POPC   C3B68493  33.679  24.040   6.968
 5297POPC   C4B68494  33.682  23.912   7.406
 5298POPC   NC368495  13.487  42.518   5.422
 5298POPC   PO468496  13.988  42.080   5.274
 5298POPC   GL168497  13.819  42.234   5.677
 5298POPC   GL268498  13.481  42.111   5.746
 5298POPC   C1A68499  13.781  42.258   6.135
 5298POPC   D2A68500  13.717  42.050   6.535
 5298POPC   C3A68501  13.875  42.205   6.915
 5298POPC   C4A68502  13.995  42.503   7.251
 5298POPC   C1B68503  13.261  42.181   6.146
 5298POPC   C2B68504  13.268  42.320   6.551
 5298POPC   C3B68505  13.178  42.281   6.968
 5298POPC   C4B68506  13.493  42.306   7.233
 5299POPC   NC368507  36.620  15.979   5.315
 5299POPC   PO468508  37.253  15.833   5.333
 5299POPC   GL168509  36.975  15.941   5.718
 5299POPC   GL268510  36.615  15.847   5.816
 5299POPC   C1A68511  36.944  16.088   6.159
 5299POPC   D2A68512  36.924  15.863   6.546
 5299POPC   C3A68513  37.129  15.966   6.915
 5299POPC   C4A68514  37.138  16.167   7.307
 5299POPC   C1B68515  36.714  15.552   6.158
 5299POPC   C2B68516  36.775  15.333   6.571
 5299POPC   C3B68517  36.766  15.555   6.969
 5299POPC   C4B68518  36.655  15.964   7.112
 5300POPC   NC368519   8.977  29.489   5.469
 5300POPC   PO468520   8.601  29.027   5.448
 5300POPC   GL168521   8.807  29.164   5.816
 5300POPC   GL268522   8.745  28.859   5.943
 5300POPC   C1A68523   9.103  29.186   6.179
 5300POPC   D2A68524   9.296  29.281   6.588
 5300POPC   C3A68525   9.127  29.178   6.995
 5300POPC   C4A68526   8.894  29.388   7.323
 5300POPC   C1B68527   8.772  28.799   6.368
 5300POPC   C2B68528   8.576  28.744   6.765
 5300POPC   C3B68529   8.669  28.979   7.137
 5300POPC   C4B68530   9.016  28.913   7.453
 5301POPC   NC368531   4.635  20.523   5.335
 5301POPC   PO468532   3.962  21.007   5.453
 5301POPC   GL168533   4.157  20.887   5.806
 5301POPC   GL268534   4.368  20.635   5.743
 5301POPC   C1A68535   4.049  20.621   6.137
 5301POPC   D2A68536   4.159  20.615   6.540
 5301POPC   C3A68537   3.870  20.564   6.883
 5301POPC   C4A68538   3.799  20.538   7.318
 5301POPC   C1B68539   4.542  20.465   6.106
 5301POPC   C2B68540   4.558  20.308   6.522
 5301POPC   C3B68541   4.373  20.426   6.961
 5301POPC   C4B68542   4.554  20.729   7.231
 5302POPC   NC368543   9.360  24.404   5.205
 5302POPC   PO468544  10.058  24.440   5.193
 5302POPC   GL168545   9.944  24.488   5.727
 5302POPC   GL268546   9.622  24.257   5.766
 5302POPC   C1A68547   9.717  24.569   6.156
 5302POPC   D2A68548   9.868  24.465   6.557
 5302POPC   C3A68549   9.751  24.626   6.944
 5302POPC   C4A68550  10.011  24.574   7.275
 5302POPC   C1B68551   9.454  24.120   6.218
 5302POPC   C2B68552   9.401  24.208   6.661
 5302POPC   C3B68553   9.475  24.196   7.105
 5302POPC   C4B68554   9.573  24.430   7.475
 5303POPC   NC368555  11.309  26.266   5.440
 5303POPC   PO468556  11.140  25.636   5.210
 5303POPC   GL168557  11.368  25.827   5.667
 5303POPC   GL268558  11.055  25.996   5.827
 5303POPC   C1A68559  11.479  26.056   6.121
 5303POPC   D2A68560  11.265  26.096   6.571
 5303POPC   C3A68561  11.317  25.903   6.996
 5303POPC   C4A68562  11.314  25.668   7.392
 5303POPC   C1B68563  11.030  26.315   6.179
 5303POPC   C2B68564  10.973  26.580   6.549
 5303POPC   C3B68565  11.092  26.432   6.970
 5303POPC   C4B68566  10.982  26.495   7.402
 5304POPC   NC368567  41.693  44.379   5.389
 5304POPC   PO468568  42.043  44.996   5.388
 5304POPC   GL168569  41.697  44.931   5.703
 5304POPC   GL268570  41.744  44.614   5.848
 5304POPC   C1A68571  41.416  44.911   6.103
 5304POPC   D2A68572  41.317  44.725   6.523
 5304POPC   C3A68573  41.479  44.897   6.924
 5304POPC   C4A68574  41.242  44.904   7.283
 5304POPC   C1B68575  41.495  44.389   6.145
 5304POPC   C2B68576  41.555  44.210   6.542
 5304POPC   C3B68577  41.430  44.393   6.913
 5304POPC   C4B68578  41.608  44.471   7.290
 5305POPC   NC368579  18.099  26.531   5.540
 5305POPC   PO468580  18.524  27.129   5.303
 5305POPC   GL168581  18.327  26.973   5.645
 5305POPC   GL268582  18.565  26.721   5.680
 5305POPC   C1A68583  18.308  26.938   6.101
 5305POPC   D2A68584  18.221  26.610   6.415
 5305POPC   C3A68585  18.280  26.824   6.814
 5305POPC   C4A68586  18.310  27.098   7.174
 5305POPC   C1B68587  18.690  26.571   6.096
 5305POPC   C2B68588  18.715  26.659   6.513
 5305POPC   C3B68589  18.695  26.504   6.936
 5305POPC   C4B68590  18.430  26.591   7.250
 5306POPC   NC368591   8.195   9.092   5.417
 5306POPC   PO468592   8.161   8.470   5.458
 5306POPC   GL168593   7.964   8.665   5.828
 5306POPC   GL268594   8.214   8.904   5.911
 5306POPC   C1A68595   7.977   8.706   6.320
 5306POPC   D2A68596   8.278   8.869   6.647
 5306POPC   C3A68597   8.046   9.057   7.009
 5306POPC   C4A68598   7.944   8.854   7.378
 5306POPC   C1B68599   8.312   9.209   6.247
 5306POPC   C2B68600   8.317   9.379   6.686
 5306POPC   C3B68601   8.519   9.258   7.113
 5306POPC   C4B68602   8.656   9.012   7.510
 5307POPC   NC368603  18.388  28.318   5.088
 5307POPC   PO468604  18.005  28.544   5.643
 5307POPC   GL168605  18.297  28.578   5.949
 5307POPC   GL268606  18.529  28.303   5.881
 5307POPC   C1A68607  18.429  28.546   6.346
 5307POPC   D2A68608  18.294  28.369   6.729
 5307POPC   C3A68609  18.330  28.618   7.096
 5307POPC   C4A68610  18.357  28.548   7.578
 5307POPC   C1B68611  18.264  28.043   6.119
 5307POPC   C2B68612  18.184  27.810   6.473
 5307POPC   C3B68613  18.389  27.881   6.843
 5307POPC   C4B68614  18.260  28.109   7.202
 5308POPC   NC368615  41.995  34.069   5.549
 5308POPC   PO468616  42.617  33.669   5.331
 5308POPC   GL168617  42.382  33.759   5.681
 5308POPC   GL268618  42.457  34.112   5.798
 5308POPC   C1A68619  42.320  33.697   6.109
 5308POPC   D2A68620  42.445  33.764   6.526
 5308POPC   C3A68621  42.097  33.703   6.813
 5308POPC   C4A68622  42.259  33.520   7.154
 5308POPC   C1B68623  42.367  34.193   6.230
 5308POPC   C2B68624  42.217  34.190   6.671
 5308POPC   C3B68625  42.338  34.085   7.087
 5308POPC   C4B68626  42.258  34.135   7.551
 5309POPC   NC368627  28.206  23.262   5.624
 5309POPC   PO468628  28.337  22.732   5.362
 5309POPC   GL168629  28.404  22.834   5.829
 5309POPC   GL268630  28.447  23.157   6.045
 5309POPC   C1A68631  28.386  22.715   6.270
 5309POPC   D2A68632  28.521  22.910   6.627
 5309POPC   C3A68633  28.290  22.796   7.020
 5309POPC   C4A68634  28.192  22.850   7.477
 5309POPC   C1B68635  28.010  23.084   6.221
 5309POPC   C2B68636  27.851  23.380   6.542
 5309POPC   C3B68637  27.906  23.189   6.926
 5309POPC   C4B68638  28.241  23.282   7.196
 5310POPC   NC368639  18.130  27.391   5.362
 5310POPC   PO468640  18.434  27.969   5.397
 5310POPC   GL168641  18.275  27.718   5.735
 5310POPC   GL268642  18.491  27.435   5.787
 5310POPC   C1A68643  18.042  27.473   6.075
 5310POPC   D2A68644  17.997  27.259   6.501
 5310POPC   C3A68645  18.028  27.498   6.873
 5310POPC   C4A68646  18.193  27.605   7.244
 5310POPC   C1B68647  18.540  27.541   6.207
 5310POPC   C2B68648  18.485  27.384   6.622
 5310POPC   C3B68649  18.625  27.468   7.014
 5310POPC   C4B68650  18.711  27.810   7.243
 5311POPC   NC368651  11.490  23.423   5.400
 5311POPC   PO468652  10.959  23.914   5.489
 5311POPC   GL168653  11.264  23.787   5.815
 5311POPC   GL268654  11.621  23.854   5.811
 5311POPC   C1A68655  11.311  23.493   6.155
 5311POPC   D2A68656  11.146  23.395   6.551
 5311POPC   C3A68657  11.194  23.661   6.876
 5311POPC   C4A68658  10.984  23.767   7.243
 5311POPC   C1B68659  11.591  23.905   6.275
 5311POPC   C2B68660  11.642  23.873   6.744
 5311POPC   C3B68661  11.656  23.611   7.135
 5311POPC   C4B68662  11.527  23.556   7.590
 5312POPC   NC368663  41.784   1.377   5.420
 5312POPC   PO468664  41.240   1.072   5.524
 5312POPC   GL168665  41.511   1.205   5.875
 5312POPC   GL268666  41.766   1.508   5.913
 5312POPC   C1A68667  41.402   1.169   6.322
 5312POPC   D2A68668  41.604   1.165   6.720
 5312POPC   C3A68669  41.476   0.940   7.100
 5312POPC   C4A68670  41.512   1.113   7.524
 5312POPC   C1B68671  41.379   1.679   6.092
 5312POPC   C2B68672  41.159   1.622   6.459
 5312POPC   C3B68673  41.179   1.434   6.832
 5312POPC   C4B68674  41.483   1.474   7.140
 5313POPC   NC368675  14.484  11.774   5.425
 5313POPC   PO468676  14.614  12.399   5.352
 5313POPC   GL168677  14.362  12.189   5.716
 5313POPC   GL268678  14.569  11.939   5.879
 5313POPC   C1A68679  14.139  12.076   6.135
 5313POPC   D2A68680  14.053  12.285   6.549
 5313POPC   C3A68681  14.032  11.962   6.841
 5313POPC   C4A68682  13.937  11.891   7.234
 5313POPC   C1B68683  14.680  12.123   6.222
 5313POPC   C2B68684  14.502  11.964   6.575
 5313POPC   C3B68685  14.494  12.141   6.964
 5313POPC   C4B68686  14.249  12.438   7.141
 5314POPC   NC368687  36.542  41.242   5.448
 5314POPC   PO468688  36.014  41.672   5.468
 5314POPC   GL168689  36.143  41.380   5.767
 5314POPC   GL268690  36.449  41.581   5.830
 5314POPC   C1A68691  36.099  41.207   6.182
 5314POPC   D2A68692  36.327  41.268   6.545
 5314POPC   C3A68693  36.055  41.420   6.860
 5314POPC   C4A68694  36.002  41.316   7.325
 5314POPC   C1B68695  36.346  41.702   6.243
 5314POPC   C2B68696  36.485  41.893   6.638
 5314POPC   C3B68697  36.338  41.829   7.044
 5314POPC   C4B68698  35.897  41.795   7.147
 5315POPC   NC368699  10.190  15.520   5.056
 5315POPC   PO468700  10.649  15.025   5.287
 5315POPC   GL168701  10.617  15.099   5.731
 5315POPC   GL268702  10.457  14.849   5.906
 5315POPC   C1A68703  10.468  15.291   6.144
 5315POPC   D2A68704  10.401  15.129   6.574
 5315POPC   C3A68705  10.377  15.345   6.972
 5315POPC   C4A68706  10.603  15.490   7.321
 5315POPC   C1B68707  10.554  14.724   6.317
 5315POPC   C2B68708  10.827  14.823   6.672
 5315POPC   C3B68709  10.725  14.994   7.085
 5315POPC   C4B68710  10.433  14.935   7.408
 5316POPC   NC368711   8.223   4.607   5.369
 5316POPC   PO468712   7.857   4.056   5.186
 5316POPC   GL168713   7.910   4.277   5.665
 5316POPC   GL268714   7.979   4.657   5.823
 5316POPC   C1A68715   8.159   4.295   6.106
 5316POPC   D2A68716   8.070   4.593   6.476
 5316POPC   C3A68717   8.094   4.439   6.906
 5316POPC   C4A68718   8.276   4.292   7.288
 5316POPC   C1B68719   8.341   4.783   6.081
 5316POPC   C2B68720   8.507   4.887   6.497
 5316POPC   C3B68721   8.241   4.938   6.871
 5316POPC   C4B68722   8.080   4.836   7.270
 5317POPC   NC368723   9.185   9.026   5.299
 5317POPC   PO468724   8.591   8.888   5.545
 5317POPC   GL168725   8.939   9.085   5.767
 5317POPC   GL268726   9.211   8.856   5.828
 5317POPC   C1A68727   8.999   9.168   6.207
 5317POPC   D2A68728   8.746   9.120   6.557
 5317POPC   C3A68729   8.958   9.308   6.854
 5317POPC   C4A68730   9.031   9.154   7.205
 5317POPC   C1B68731   9.135   8.691   6.264
 5317POPC   C2B68732   9.177   8.851   6.688
 5317POPC   C3B68733   8.969   8.686   7.048
 5317POPC   C4B68734   8.961   8.384   7.352
 5318POPC   NC368735  31.015  34.634   5.296
 5318POPC   PO468736  31.589  34.233   5.434
 5318POPC   GL168737  31.543  34.509   5.796
 5318POPC   GL268738  31.423  34.831   5.680
 5318POPC   C1A68739  31.613  34.632   6.231
 5318POPC   D2A68740  31.712  34.700   6.669
 5318POPC   C3A68741  31.700  34.401   7.000
 5318POPC   C4A68742  31.580  34.723   7.268
 5318POPC   C1B68743  31.124  34.724   6.023
 5318POPC   C2B68744  31.168  34.637   6.479
 5318POPC   C3B68745  31.226  34.739   6.905
 5318POPC   C4B68746  31.216  34.394   7.188
 5319POPC   NC368747   6.258  11.542   5.466
 5319POPC   PO468748   6.916  11.297   5.545
 5319POPC   GL168749   6.615  11.393   5.913
 5319POPC   GL268750   6.283  11.596   5.970
 5319POPC   C1A68751   6.710  11.325   6.365
 5319POPC   D2A68752   6.956  11.066   6.672
 5319POPC   C3A68753   7.007  11.271   7.076
 5319POPC   C4A68754   6.798  11.131   7.428
 5319POPC   C1B68755   6.200  11.221   6.207
 5319POPC   C2B68756   6.309  11.102   6.641
 5319POPC   C3B68757   6.431  11.388   6.980
 5319POPC   C4B68758   6.347  11.356   7.425
 5320POPC   NC368759  37.336  26.810   5.397
 5320POPC   PO468760  36.710  26.837   5.375
 5320POPC   GL168761  36.689  26.899   5.785
 5320POPC   GL268762  37.049  26.984   5.804
 5320POPC   C1A68763  36.703  27.087   6.203
 5320POPC   D2A68764  36.903  27.019   6.623
 5320POPC   C3A68765  36.749  26.815   6.965
 5320POPC   C4A68766  36.624  26.938   7.366
 5320POPC   C1B68767  37.181  26.922   6.217
 5320POPC   C2B68768  37.244  26.609   6.505
 5320POPC   C3B68769  37.233  26.611   6.933
 5320POPC   C4B68770  37.122  26.832   7.311
 5321POPC   NC368771  39.342  35.865   5.354
 5321POPC   PO468772  39.322  35.142   5.397
 5321POPC   GL168773  39.199  35.197   5.822
 5321POPC   GL268774  39.277  35.539   5.776
 5321POPC   C1A68775  39.123  35.416   6.264
 5321POPC   D2A68776  38.891  35.622   6.645
 5321POPC   C3A68777  38.953  35.389   7.047
 5321POPC   C4A68778  39.248  35.067   7.165
 5321POPC   C1B68779  39.549  35.680   6.106
 5321POPC   C2B68780  39.437  35.743   6.543
 5321POPC   C3B68781  39.632  35.680   6.928
 5321POPC   C4B68782  39.520  35.467   7.312
 5322POPC   NC368783  34.060   6.594   5.551
 5322POPC   PO468784  34.662   6.620   5.474
 5322POPC   GL168785  34.506   6.786   5.882
 5322POPC   GL268786  34.173   6.803   6.010
 5322POPC   C1A68787  34.670   6.875   6.278
 5322POPC   D2A68788  34.750   6.596   6.611
 5322POPC   C3A68789  34.632   6.781   6.956
 5322POPC   C4A68790  34.367   6.748   7.286
 5322POPC   C1B68791  34.267   6.559   6.372
 5322POPC   C2B68792  34.255   6.458   6.809
 5322POPC   C3B68793  34.492   6.268   7.142
 5322POPC   C4B68794  34.314   5.949   7.442
 5323POPC   NC368795  26.682  27.682   5.081
 5323POPC   PO468796  27.277  27.642   5.496
 5323POPC   GL168797  26.909  27.740   5.744
 5323POPC   GL268798  26.564  27.930   5.782
 5323POPC   C1A68799  26.857  27.710   6.178
 5323POPC   D2A68800  26.654  27.769   6.559
 5323POPC   C3A68801  26.834  27.540   6.916
 5323POPC   C4A68802  27.099  27.489   7.278
 5323POPC   C1B68803  26.283  27.930   6.191
 5323POPC   C2B68804  26.249  28.063   6.653
 5323POPC   C3B68805  26.586  28.026   6.997
 5323POPC   C4B68806  26.551  27.682   7.334
 5324POPC   NC368807  42.572   0.848   5.468
 5324POPC   PO468808  42.230   1.522   5.466
 5324POPC   GL168809  42.107   1.140   5.763
 5324POPC   GL268810  42.438   1.091   5.899
 5324POPC   C1A68811  41.916   1.062   6.211
 5324POPC   D2A68812  42.118   1.047   6.667
 5324POPC   C3A68813  41.930   1.188   7.116
 5324POPC   C4A68814  42.092   1.203   7.555
 5324POPC   C1B68815  42.285   1.401   6.219
 5324POPC   C2B68816  42.433   1.458   6.655
 5324POPC   C3B68817  42.391   1.377   7.112
 5324POPC   C4B68818  42.172   1.680   7.351
 5325POPC   NC368819  34.757  10.722   5.380
 5325POPC   PO468820  34.711  10.062   5.213
 5325POPC   GL168821  34.895  10.260   5.675
 5325POPC   GL268822  34.710  10.570   5.843
 5325POPC   C1A68823  34.726  10.218   6.176
 5325POPC   D2A68824  34.488  10.260   6.566
 5325POPC   C3A68825  34.638  10.168   6.957
 5325POPC   C4A68826  34.808  10.455   7.233
 5325POPC   C1B68827  34.860  10.726   6.250
 5325POPC   C2B68828  35.005  10.695   6.694
 5325POPC   C3B68829  34.947  10.916   7.057
 5325POPC   C4B68830  34.782  10.915   7.463
 5326POPC   NC368831  22.361  39.699   5.347
 5326POPC   PO468832  22.280  40.400   5.237
 5326POPC   GL168833  22.285  40.135   5.629
 5326POPC   GL268834  21.983  39.887   5.689
 5326POPC   C1A68835  22.384  39.901   6.008
 5326POPC   D2A68836  22.270  39.991   6.417
 5326POPC   C3A68837  22.315  39.949   6.875
 5326POPC   C4A68838  22.258  40.201   7.277
 5326POPC   C1B68839  21.940  39.643   6.092
 5326POPC   C2B68840  21.848  39.730   6.532
 5326POPC   C3B68841  21.826  39.820   6.960
 5326POPC   C4B68842  22.070  39.733   7.324
 5327POPC   NC368843  42.028  20.460   5.515
 5327POPC   PO468844  42.670  20.703   5.605
 5327POPC   GL168845  42.380  20.592   5.891
 5327POPC   GL268846  42.198  20.873   5.899
 5327POPC   C1A68847  42.405  20.671   6.324
 5327POPC   D2A68848  42.384  20.413   6.656
 5327POPC   C3A68849  42.572  20.555   7.014
 5327POPC   C4A68850  42.236  20.317   7.169
 5327POPC   C1B68851  41.961  20.941   6.281
 5327POPC   C2B68852  42.118  20.915   6.702
 5327POPC   C3B68853  42.157  20.814   7.126
 5327POPC   C4B68854  41.992  20.823   7.550
 5328POPC   NC368855  24.128  21.871   5.583
 5328POPC   PO468856  24.805  21.968   5.624
 5328POPC   GL168857  24.479  22.189   5.824
 5328POPC   GL268858  24.639  22.502   5.854
 5328POPC   C1A68859  24.284  22.379   6.219
 5328POPC   D2A68860  24.183  22.521   6.658
 5328POPC   C3A68861  24.363  22.290   7.004
 5328POPC   C4A68862  24.319  21.859   7.158
 5328POPC   C1B68863  24.801  22.291   6.222
 5328POPC   C2B68864  24.658  22.114   6.606
 5328POPC   C3B68865  24.791  22.014   7.013
 5328POPC   C4B68866  24.835  22.348   7.313
 5329POPC   NC368867   1.528  21.726   5.475
 5329POPC   PO468868   1.162  21.089   5.271
 5329POPC   GL168869   1.363  21.282   5.660
 5329POPC   GL268870   1.071  21.364   5.819
 5329POPC   C1A68871   1.468  21.444   6.114
 5329POPC   D2A68872   1.408  21.304   6.549
 5329POPC   C3A68873   1.413  21.420   7.033
 5329POPC   C4A68874   1.344  21.110   7.389
 5329POPC   C1B68875   0.935  21.458   6.256
 5329POPC   C2B68876   0.994  21.514   6.734
 5329POPC   C3B68877   0.907  21.344   7.170
 5329POPC   C4B68878   0.741  21.604   7.486
 5330POPC   NC368879  10.716   1.269   5.450
 5330POPC   PO468880  10.208   1.581   5.250
 5330POPC   GL168881  10.187   1.238   5.635
 5330POPC   GL268882  10.490   1.053   5.855
 5330POPC   C1A68883  10.128   1.276   6.108
 5330POPC   D2A68884  10.402   1.501   6.438
 5330POPC   C3A68885  10.452   1.313   6.831
 5330POPC   C4A68886  10.242   1.248   7.201
 5330POPC   C1B68887  10.647   1.037   6.343
 5330POPC   C2B68888  10.835   0.973   6.813
 5330POPC   C3B68889  10.721   1.146   7.260
 5330POPC   C4B68890  10.837   1.035   7.702
 5331POPC   NC368891  42.711  22.855   5.347
 5331POPC   PO468892  42.083  22.986   5.228
 5331POPC   GL168893  42.273  22.790   5.673
 5331POPC   GL268894  42.491  23.070   5.786
 5331POPC   C1A68895  42.282  22.783   6.203
 5331POPC   D2A68896  42.253  22.594   6.689
 5331POPC   C3A68897  42.199  22.853   7.125
 5331POPC   C4A68898  42.222  22.703   7.590
 5331POPC   C1B68899  42.465  23.306   6.168
 5331POPC   C2B68900  42.345  23.169   6.589
 5331POPC   C3B68901  42.547  23.257   6.994
 5331POPC   C4B68902  42.655  23.281   7.448
 5332POPC   NC368903   9.597   8.436   5.563
 5332POPC   PO468904   9.578   9.049   5.539
 5332POPC   GL168905   9.719   8.903   5.853
 5332POPC   GL268906   9.869   9.221   5.966
 5332POPC   C1A68907   9.525   9.012   6.264
 5332POPC   D2A68908   9.678   9.273   6.579
 5332POPC   C3A68909   9.474   9.219   6.950
 5332POPC   C4A68910   9.451   8.826   7.173
 5332POPC   C1B68911  10.012   8.825   6.230
 5332POPC   C2B68912  10.091   8.669   6.658
 5332POPC   C3B68913   9.955   8.786   7.070
 5332POPC   C4B68914   9.877   9.168   7.296
 5333POPC   NC368915  16.104  39.133   4.916
 5333POPC   PO468916  15.792  39.142   5.491
 5333POPC   GL168917  15.923  39.264   5.902
 5333POPC   GL268918  16.080  38.994   5.947
 5333POPC   C1A68919  15.894  39.132   6.378
 5333POPC   D2A68920  15.815  39.296   6.788
 5333POPC   C3A68921  16.085  39.363   7.122
 5333POPC   C4A68922  15.761  39.362   7.407
 5333POPC   C1B68923  16.351  38.806   6.255
 5333POPC   C2B68924  16.283  38.618   6.635
 5333POPC   C3B68925  15.897  38.787   6.813
 5333POPC   C4B68926  15.887  38.889   7.241
 5334POPC   NC368927  26.371  13.217   5.330
 5334POPC   PO468928  26.007  12.681   5.481
 5334POPC   GL168929  25.934  12.864   5.890
 5334POPC   GL268930  25.656  12.635   5.929
 5334POPC   C1A68931  26.122  13.072   6.287
 5334POPC   D2A68932  26.397  12.876   6.619
 5334POPC   C3A68933  26.245  12.790   7.037
 5334POPC   C4A68934  26.035  13.166   7.147
 5334POPC   C1B68935  25.740  12.723   6.369
 5334POPC   C2B68936  25.804  12.805   6.804
 5334POPC   C3B68937  25.749  12.715   7.248
 5334POPC   C4B68938  25.805  12.478   7.633
 5335POPC   NC368939  30.845  31.771   5.197
 5335POPC   PO468940  30.408  31.297   5.505
 5335POPC   GL168941  30.675  31.479   5.846
 5335POPC   GL268942  30.857  31.763   5.716
 5335POPC   C1A68943  30.546  31.718   6.233
 5335POPC   D2A68944  30.243  31.692   6.559
 5335POPC   C3A68945  30.444  31.701   6.947
 5335POPC   C4A68946  30.751  31.474   7.186
 5335POPC   C1B68947  31.020  31.870   6.130
 5335POPC   C2B68948  30.929  31.740   6.601
 5335POPC   C3B68949  30.926  31.918   7.044
 5335POPC   C4B68950  30.985  31.808   7.507
 5336POPC   NC368951  30.010  43.013   5.394
 5336POPC   PO468952  29.361  42.870   5.529
 5336POPC   GL168953  29.666  43.114   5.798
 5336POPC   GL268954  29.495  43.368   5.954
 5336POPC   C1A68955  29.928  43.192   6.218
 5336POPC   D2A68956  30.169  43.295   6.657
 5336POPC   C3A68957  30.119  42.971   7.057
 5336POPC   C4A68958  30.181  42.727   7.519
 5336POPC   C1B68959  29.393  42.962   6.208
 5336POPC   C2B68960  29.413  42.709   6.613
 5336POPC   C3B68961  29.495  42.806   7.066
 5336POPC   C4B68962  29.680  43.150   7.272
 5337POPC   NC368963  25.493  15.618   5.367
 5337POPC   PO468964  24.831  15.592   5.504
 5337POPC   GL168965  25.133  15.870   5.716
 5337POPC   GL268966  25.034  16.225   5.733
 5337POPC   C1A68967  25.358  15.745   6.097
 5337POPC   D2A68968  25.541  15.911   6.480
 5337POPC   C3A68969  25.413  15.718   6.886
 5337POPC   C4A68970  25.416  15.855   7.328
 5337POPC   C1B68971  25.205  16.219   6.161
 5337POPC   C2B68972  25.068  16.112   6.600
 5337POPC   C3B68973  25.231  16.193   6.995
 5337POPC   C4B68974  25.083  16.204   7.435
 5338POPC   NC368975  25.558  20.004   5.458
 5338POPC   PO468976  25.020  19.673   5.330
 5338POPC   GL168977  25.179  19.796   5.713
 5338POPC   GL268978  25.491  19.630   5.808
 5338POPC   C1A68979  25.100  19.851   6.135
 5338POPC   D2A68980  25.013  19.729   6.550
 5338POPC   C3A68981  25.179  19.946   6.886
 5338POPC   C4A68982  25.179  19.848   7.321
 5338POPC   C1B68983  25.619  19.860   6.177
 5338POPC   C2B68984  25.563  19.723   6.598
 5338POPC   C3B68985  25.531  19.618   7.023
 5338POPC   C4B68986  25.625  20.036   7.243
 5339POPC   NC368987  10.651  19.452   5.397
 5339POPC   PO468988  10.407  18.784   5.435
 5339POPC   GL168989  10.399  18.959   5.860
 5339POPC   GL268990  10.649  19.242   5.858
 5339POPC   C1A68991  10.533  18.979   6.308
 5339POPC   D2A68992  10.500  19.236   6.679
 5339POPC   C3A68993  10.208  19.006   6.987
 5339POPC   C4A68994  10.179  18.856   7.439
 5339POPC   C1B68995  10.830  19.403   6.232
 5339POPC   C2B68996  11.007  19.120   6.552
 5339POPC   C3B68997  10.781  18.852   6.840
 5339POPC   C4B68998  10.632  19.007   7.237
 5340POPC   NC368999  33.041  20.425   5.358
 5340POPC   PO469000  33.222  21.031   5.509
 5340POPC   GL169001  33.061  20.694   5.801
 5340POPC   GL269002  32.737  20.472   5.770
 5340POPC   C1A69003  33.219  20.401   6.131
 5340POPC   D2A69004  33.113  20.244   6.575
 5340POPC   C3A69005  33.292  20.508   6.914
 5340POPC   C4A69006  33.366  20.518   7.392
 5340POPC   C1B69007  32.727  20.620   6.193
 5340POPC   C2B69008  32.526  20.874   6.489
 5340POPC   C3B69009  32.790  20.863   6.849
 5340POPC   C4B69010  32.862  20.592   7.190
 5341POPC   NC369011  10.350  13.774   5.506
 5341POPC   PO469012  10.632  13.130   5.375
 5341POPC   GL169013  10.454  13.329   5.746
 5341POPC   GL269014  10.717  13.536   5.772
 5341POPC   C1A69015  10.381  13.613   6.154
 5341POPC   D2A69016  10.415  13.900   6.515
 5341POPC   C3A69017  10.359  13.745   6.956
 5341POPC   C4A69018  10.390  13.870   7.391
 5341POPC   C1B69019  10.817  13.336   6.165
 5341POPC   C2B69020  10.631  13.376   6.584
 5341POPC   C3B69021  10.790  13.419   7.041
 5341POPC   C4B69022  10.635  13.430   7.490
 5342POPC   NC369023   9.247  19.431   5.396
 5342POPC   PO469024   8.815  18.942   5.214
 5342POPC   GL169025   8.872  18.914   5.706
 5342POPC   GL269026   9.049  19.194   5.824
 5342POPC   C1A69027   8.952  18.865   6.206
 5342POPC   D2A69028   9.147  18.752   6.626
 5342POPC   C3A69029   8.888  18.801   6.981
 5342POPC   C4A69030   8.834  19.191   7.222
 5342POPC   C1B69031   9.229  19.390   6.171
 5342POPC   C2B69032   9.094  19.270   6.577
 5342POPC   C3B69033   9.318  19.203   6.957
 5342POPC   C4B69034   9.325  19.248   7.410
 5343POPC   NC369035  36.636  27.340   5.377
 5343POPC   PO469036  37.174  27.722   5.397
 5343POPC   GL169037  36.836  27.724   5.699
 5343POPC   GL269038  36.497  27.806   5.577
 5343POPC   C1A69039  36.886  27.583   6.128
 5343POPC   D2A69040  37.034  27.776   6.498
 5343POPC   C3A69041  36.924  27.510   6.829
 5343POPC   C4A69042  36.924  27.315   7.238
 5343POPC   C1B69043  36.448  27.840   6.028
 5343POPC   C2B69044  36.530  27.853   6.441
 5343POPC   C3B69045  36.388  27.784   6.829
 5343POPC   C4B69046  36.578  27.681   7.161
 5344POPC   NC369047  10.381  24.146   5.021
 5344POPC   PO469048  10.603  24.606   5.441
 5344POPC   GL169049  10.673  24.501   5.865
 5344POPC   GL269050  10.946  24.734   5.874
 5344POPC   C1A69051  10.654  24.168   6.215
 5344POPC   D2A69052  10.344  24.123   6.564
 5344POPC   C3A69053  10.413  24.365   6.956
 5344POPC   C4A69054  10.477  24.722   7.197
 5344POPC   C1B69055  10.891  24.612   6.309
 5344POPC   C2B69056  10.827  24.391   6.668
 5344POPC   C3B69057  10.925  24.601   7.024
 5344POPC   C4B69058  10.952  24.812   7.415
 5345POPC   NC369059   4.293  37.420   5.438
 5345POPC   PO469060   4.000  38.119   5.523
 5345POPC   GL169061   4.286  37.814   5.778
 5345POPC   GL269062   4.154  37.487   5.931
 5345POPC   C1A69063   4.481  37.745   6.212
 5345POPC   D2A69064   4.259  37.592   6.585
 5345POPC   C3A69065   4.457  37.634   7.028
 5345POPC   C4A69066   4.583  37.462   7.414
 5345POPC   C1B69067   3.985  37.884   6.173
 5345POPC   C2B69068   3.933  37.991   6.630
 5345POPC   C3B69069   3.966  37.707   7.003
 5345POPC   C4B69070   4.121  37.759   7.448
 5346POPC   NC369071  33.989  33.391   5.565
 5346POPC   PO469072  33.731  32.804   5.213
 5346POPC   GL169073  33.743  32.935   5.673
 5346POPC   GL269074  33.524  33.217   5.807
 5346POPC   C1A69075  33.754  32.863   6.132
 5346POPC   D2A69076  33.632  32.794   6.545
 5346POPC   C3A69077  33.914  32.869   6.889
 5346POPC   C4A69078  34.225  33.018   7.183
 5346POPC   C1B69079  33.446  33.266   6.279
 5346POPC   C2B69080  33.452  33.213   6.756
 5346POPC   C3B69081  33.651  33.258   7.147
 5346POPC   C4B69082  33.507  33.260   7.572
 5347POPC   NC369083  15.332  10.264   5.377
 5347POPC   PO469084  14.870  10.696   5.512
 5347POPC   GL169085  15.171  10.584   5.835
 5347POPC   GL269086  15.242  10.273   5.867
 5347POPC   C1A69087  15.186  10.643   6.273
 5347POPC   D2A69088  15.049  10.832   6.651
 5347POPC   C3A69089  15.241  10.711   7.027
 5347POPC   C4A69090  15.146  10.912   7.399
 5347POPC   C1B69091  15.051  10.147   6.227
 5347POPC   C2B69092  14.828  10.355   6.545
 5347POPC   C3B69093  14.871  10.370   6.978
 5347POPC   C4B69094  15.151  10.280   7.338
 5348POPC   NC369095  35.510   7.573   5.378
 5348POPC   PO469096  35.031   7.106   5.473
 5348POPC   GL169097  35.240   7.341   5.773
 5348POPC   GL269098  35.582   7.190   5.732
 5348POPC   C1A69099  35.197   7.641   6.106
 5348POPC   D2A69100  35.375   7.697   6.504
 5348POPC   C3A69101  35.298   7.443   6.889
 5348POPC   C4A69102  35.163   7.722   7.229
 5348POPC   C1B69103  35.609   7.343   6.159
 5348POPC   C2B69104  35.770   7.407   6.572
 5348POPC   C3B69105  35.754   7.655   6.950
 5348POPC   C4B69106  35.616   7.546   7.384
 5349POPC   NC369107  25.241  37.434   5.226
 5349POPC   PO469108  25.285  36.799   5.430
 5349POPC   GL169109  25.153  36.770   5.828
 5349POPC   GL269110  25.125  36.394   5.837
 5349POPC   C1A69111  25.287  36.979   6.218
 5349POPC   D2A69112  25.212  37.136   6.635
 5349POPC   C3A69113  25.458  37.010   6.973
 5349POPC   C4A69114  25.349  36.895   7.418
 5349POPC   C1B69115  25.284  36.470   6.227
 5349POPC   C2B69116  25.396  36.634   6.619
 5349POPC   C3B69117  25.164  36.591   7.010
 5349POPC   C4B69118  24.987  36.450   7.391
 5350POPC   NC369119  26.362  41.791   5.040
 5350POPC   PO469120  26.040  41.382   5.518
 5350POPC   GL169121  25.926  41.580   5.914
 5350POPC   GL269122  26.209  41.733   6.107
 5350POPC   C1A69123  25.707  41.547   6.303
 5350POPC   D2A69124  25.970  41.709   6.612
 5350POPC   C3A69125  25.813  41.833   7.004
 5350POPC   C4A69126  25.789  41.708   7.421
 5350POPC   C1B69127  26.493  41.694   6.496
 5350POPC   C2B69128  26.383  41.548   6.899
 5350POPC   C3B69129  25.984  41.369   7.006
 5350POPC   C4B69130  25.790  41.214   7.341
 5351POPC   NC369131   9.875  35.073   5.486
 5351POPC   PO469132   9.824  35.719   5.288
 5351POPC   GL169133   9.721  35.540   5.666
 5351POPC   GL269134  10.052  35.465   5.755
 5351POPC   C1A69135   9.665  35.529   6.123
 5351POPC   D2A69136   9.376  35.648   6.482
 5351POPC   C3A69137   9.416  35.400   6.859
 5351POPC   C4A69138   9.585  35.452   7.288
 5351POPC   C1B69139  10.091  35.189   6.118
 5351POPC   C2B69140  10.108  35.114   6.564
 5351POPC   C3B69141   9.934  35.394   6.875
 5351POPC   C4B69142  10.104  35.381   7.260
 5352POPC   NC369143  34.970  18.983   5.332
 5352POPC   PO469144  34.523  19.445   5.463
 5352POPC   GL169145  34.704  19.178   5.795
 5352POPC   GL269146  35.069  19.247   5.754
 5352POPC   C1A69147  34.543  19.067   6.235
 5352POPC   D2A69148  34.362  19.258   6.644
 5352POPC   C3A69149  34.514  19.065   7.016
 5352POPC   C4A69150  34.406  19.132   7.480
 5352POPC   C1B69151  35.019  19.298   6.194
 5352POPC   C2B69152  34.866  19.302   6.603
 5352POPC   C3B69153  35.015  19.289   7.001
 5352POPC   C4B69154  34.901  19.092   7.343
 5353POPC   NC369155   0.918  24.175   5.363
 5353POPC   PO469156   0.283  24.448   5.260
 5353POPC   GL169157   0.166  24.464   5.735
 5353POPC   GL269158   0.185  24.801   5.867
 5353POPC   C1A69159   0.238  24.376   6.243
 5353POPC   D2A69160   0.283  24.213   6.724
 5353POPC   C3A69161   0.580  24.430   7.045
 5353POPC   C4A69162   0.643  24.400   7.505
 5353POPC   C1B69163   0.447  24.838   6.228
 5353POPC   C2B69164   0.334  24.730   6.664
 5353POPC   C3B69165   0.211  24.772   7.122
 5353POPC   C4B69166   0.464  24.866   7.498
 5354POPC   NC369167  17.740  18.271   5.402
 5354POPC   PO469168  17.100  18.566   5.331
 5354POPC   GL169169  17.255  18.635   5.785
 5354POPC   GL269170  17.598  18.540   5.812
 5354POPC   C1A69171  17.336  18.580   6.246
 5354POPC   D2A69172  17.373  18.239   6.532
 5354POPC   C3A69173  17.342  18.248   6.993
 5354POPC   C4A69174  17.251  18.053   7.431
 5354POPC   C1B69175  17.702  18.174   6.088
 5354POPC   C2B69176  17.849  18.074   6.510
 5354POPC   C3B69177  17.896  18.085   6.953
 5354POPC   C4B69178  17.742  18.221   7.330
 5355POPC   NC369179  44.266   1.650   5.645
 5355POPC   PO469180  44.931   1.438   5.441
 5355POPC   GL169181  44.648   1.334   5.730
 5355POPC   GL269182  44.723   1.645   5.888
 5355POPC   C1A69183  44.413   1.036   5.982
 5355POPC   D2A69184  44.570   0.776   6.319
 5355POPC   C3A69185  44.551   0.920   6.753
 5355POPC   C4A69186  44.565   1.011   7.173
 5355POPC   C1B69187  44.699   1.361   6.245
 5355POPC   C2B69188  44.726   1.386   6.655
 5355POPC   C3B69189  44.819   1.426   7.063
 5355POPC   C4B69190  44.490   1.488   7.381
 5356POPC   NC369191   2.362  16.665   5.428
 5356POPC   PO469192   2.887  16.914   5.587
 5356POPC   GL169193   2.706  17.092   5.960
 5356POPC   GL269194   2.421  16.968   5.861
 5356POPC   C1A69195   2.645  17.158   6.398
 5356POPC   D2A69196   2.784  16.908   6.737
 5356POPC   C3A69197   2.697  17.035   7.146
 5356POPC   C4A69198   2.332  16.926   7.380
 5356POPC   C1B69199   2.347  16.751   6.236
 5356POPC   C2B69200   2.536  16.475   6.542
 5356POPC   C3B69201   2.454  16.570   6.973
 5356POPC   C4B69202   2.603  16.477   7.355
 5357POPC   NC369203  14.006  14.321   5.682
 5357POPC   PO469204  14.544  14.520   5.196
 5357POPC   GL169205  14.494  14.612   5.638
 5357POPC   GL269206  14.184  14.810   5.615
 5357POPC   C1A69207  14.566  14.417   6.065
 5357POPC   D2A69208  14.499  14.212   6.468
 5357POPC   C3A69209  14.390  14.287   6.902
 5357POPC   C4A69210  14.488  14.408   7.317
 5357POPC   C1B69211  14.251  14.810   6.075
 5357POPC   C2B69212  14.166  14.617   6.498
 5357POPC   C3B69213  14.031  14.669   6.910
 5357POPC   C4B69214  14.155  14.814   7.322
 5358POPC   NC369215  17.414  38.083   5.512
 5358POPC   PO469216  17.483  37.340   5.497
 5358POPC   GL169217  17.671  37.523   5.852
 5358POPC   GL269218  17.606  37.868   5.901
 5358POPC   C1A69219  17.763  37.636   6.292
 5358POPC   D2A69220  17.493  37.513   6.604
 5358POPC   C3A69221  17.487  37.755   6.966
 5358POPC   C4A69222  17.485  37.518   7.317
 5358POPC   C1B69223  17.417  38.186   6.204
 5358POPC   C2B69224  17.231  38.243   6.618
 5358POPC   C3B69225  17.069  38.103   7.047
 5358POPC   C4B69226  17.282  38.009   7.454
 5359POPC   NC369227  28.787  22.886   5.362
 5359POPC   PO469228  29.450  22.749   5.372
 5359POPC   GL169229  29.239  22.885   5.755
 5359POPC   GL269230  28.901  23.036   5.837
 5359POPC   C1A69231  29.308  22.971   6.170
 5359POPC   D2A69232  29.050  22.912   6.539
 5359POPC   C3A69233  29.230  22.981   6.954
 5359POPC   C4A69234  29.067  22.935   7.379
 5359POPC   C1B69235  28.930  23.297   6.226
 5359POPC   C2B69236  28.915  23.377   6.710
 5359POPC   C3B69237  28.714  23.095   7.058
 5359POPC   C4B69238  28.617  23.128   7.527
 5360POPC   NC369239  13.094   9.158   5.521
 5360POPC   PO469240  12.523   8.941   5.415
 5360POPC   GL169241  12.814   8.798   5.759
 5360POPC   GL269242  12.750   9.118   5.897
 5360POPC   C1A69243  12.945   8.820   6.245
 5360POPC   D2A69244  13.026   9.129   6.574
 5360POPC   C3A69245  13.219   8.981   6.941
 5360POPC   C4A69246  13.042   8.728   7.250
 5360POPC   C1B69247  12.457   8.780   6.096
 5360POPC   C2B69248  12.497   8.610   6.495
 5360POPC   C3B69249  12.674   8.788   6.874
 5360POPC   C4B69250  12.507   8.779   7.283
 5361POPC   NC369251   1.453  13.755   5.601
 5361POPC   PO469252   0.807  13.800   5.566
 5361POPC   GL169253   1.031  13.560   5.893
 5361POPC   GL269254   1.185  13.229   5.785
 5361POPC   C1A69255   1.131  13.512   6.337
 5361POPC   D2A69256   1.501  13.655   6.577
 5361POPC   C3A69257   1.442  13.746   6.999
 5361POPC   C4A69258   1.006  13.604   7.092
 5361POPC   C1B69259   1.425  13.065   6.096
 5361POPC   C2B69260   1.380  13.100   6.524
 5361POPC   C3B69261   1.373  13.232   6.953
 5361POPC   C4B69262   1.380  13.415   7.384
 5362POPC   NC369263  37.169  42.019   5.512
 5362POPC   PO469264  37.143  42.653   5.258
 5362POPC   GL169265  36.795  42.486   5.609
 5362POPC   GL269266  36.713  42.161   5.786
 5362POPC   C1A69267  36.784  42.590   6.089
 5362POPC   D2A69268  37.118  42.500   6.424
 5362POPC   C3A69269  37.076  42.549   6.879
 5362POPC   C4A69270  36.725  42.622   7.160
 5362POPC   C1B69271  36.947  42.077   6.181
 5362POPC   C2B69272  37.004  42.018   6.627
 5362POPC   C3B69273  36.805  42.113   7.000
 5362POPC   C4B69274  36.976  42.244   7.402
 5363POPC   NC369275  44.457  19.733   5.419
 5363POPC   PO469276   0.073  19.967   5.439
 5363POPC   GL169277  44.737  20.008   5.725
 5363POPC   GL269278  44.779  19.648   5.805
 5363POPC   C1A69279  44.587  19.917   6.164
 5363POPC   D2A69280  44.848  19.972   6.515
 5363POPC   C3A69281  44.584  19.912   6.882
 5363POPC   C4A69282  44.494  20.171   7.238
 5363POPC   C1B69283   0.010  19.588   6.192
 5363POPC   C2B69284   0.074  19.522   6.599
 5363POPC   C3B69285   0.130  19.799   6.938
 5363POPC   C4B69286  44.868  19.826   7.292
 5364POPC   NC369287  34.767  16.463   5.599
 5364POPC   PO469288  35.053  17.039   5.342
 5364POPC   GL169289  34.812  16.934   5.778
 5364POPC   GL269290  34.449  16.947   5.718
 5364POPC   C1A69291  34.664  16.656   6.193
 5364POPC   D2A69292  34.643  16.431   6.600
 5364POPC   C3A69293  34.663  16.589   7.006
 5364POPC   C4A69294  34.383  16.453   7.350
 5364POPC   C1B69295  34.461  17.115   6.150
 5364POPC   C2B69296  34.579  16.989   6.565
 5364POPC   C3B69297  34.332  16.956   6.913
 5364POPC   C4B69298  34.464  16.985   7.322
 5365POPC   NC369299   6.253   7.223   5.468
 5365POPC   PO469300   5.975   7.768   5.515
 5365POPC   GL169301   5.900   7.523   5.874
 5365POPC   GL269302   6.086   7.224   5.938
 5365POPC   C1A69303   5.706   7.499   6.265
 5365POPC   D2A69304   5.707   7.364   6.682
 5365POPC   C3A69305   5.923   7.603   7.021
 5365POPC   C4A69306   5.814   7.583   7.428
 5365POPC   C1B69307   6.038   7.113   6.364
 5365POPC   C2B69308   6.212   7.263   6.739
 5365POPC   C3B69309   6.284   7.242   7.159
 5365POPC   C4B69310   6.176   7.299   7.614
 5366POPC   NC369311  40.531  29.388   5.372
 5366POPC   PO469312  41.074  28.890   5.459
 5366POPC   GL169313  41.069  29.031   5.852
 5366POPC   GL269314  40.751  29.132   5.788
 5366POPC   C1A69315  41.105  28.979   6.287
 5366POPC   D2A69316  41.191  28.812   6.667
 5366POPC   C3A69317  41.033  29.074   6.964
 5366POPC   C4A69318  40.589  29.064   7.140
 5366POPC   C1B69319  40.666  29.268   6.212
 5366POPC   C2B69320  40.677  29.317   6.679
 5366POPC   C3B69321  40.761  29.550   7.084
 5366POPC   C4B69322  40.667  29.549   7.526
 5367POPC   NC369323  35.440  38.991   5.337
 5367POPC   PO469324  35.031  39.564   5.279
 5367POPC   GL169325  35.127  39.271   5.651
 5367POPC   GL269326  35.462  39.222   5.790
 5367POPC   C1A69327  35.031  39.169   6.097
 5367POPC   D2A69328  35.248  39.282   6.517
 5367POPC   C3A69329  35.074  39.080   6.862
 5367POPC   C4A69330  34.986  39.300   7.212
 5367POPC   C1B69331  35.515  39.016   6.184
 5367POPC   C2B69332  35.748  38.961   6.541
 5367POPC   C3B69333  35.821  39.014   6.957
 5367POPC   C4B69334  35.484  39.155   7.182
 5368POPC   NC369335  41.099  30.281   5.258
 5368POPC   PO469336  40.706  29.820   5.441
 5368POPC   GL169337  40.662  29.646   5.817
 5368POPC   GL269338  41.009  29.573   5.888
 5368POPC   C1A69339  40.546  29.778   6.208
 5368POPC   D2A69340  40.764  29.808   6.585
 5368POPC   C3A69341  40.498  29.940   6.873
 5368POPC   C4A69342  40.382  29.892   7.270
 5368POPC   C1B69343  41.037  29.954   6.155
 5368POPC   C2B69344  41.020  30.238   6.532
 5368POPC   C3B69345  40.972  30.089   6.977
 5368POPC   C4B69346  40.827  30.084   7.400
 5369POPC   NC369347   2.132  43.339   5.380
 5369POPC   PO469348   1.829  42.765   5.345
 5369POPC   GL169349   2.081  42.906   5.690
 5369POPC   GL269350   1.959  43.183   5.851
 5369POPC   C1A69351   2.174  42.827   6.172
 5369POPC   D2A69352   2.059  42.933   6.628
 5369POPC   C3A69353   2.317  42.953   7.010
 5369POPC   C4A69354   2.188  42.950   7.421
 5369POPC   C1B69355   2.074  43.302   6.265
 5369POPC   C2B69356   1.982  43.456   6.681
 5369POPC   C3B69357   1.931  43.304   7.111
 5369POPC   C4B69358   1.809  43.233   7.555
 5370POPC   NC369359  19.561  32.610   5.542
 5370POPC   PO469360  19.939  32.072   5.417
 5370POPC   GL169361  19.846  32.255   5.812
 5370POPC   GL269362  19.523  32.137   5.775
 5370POPC   C1A69363  19.908  32.399   6.268
 5370POPC   D2A69364  19.985  32.082   6.609
 5370POPC   C3A69365  19.858  32.176   7.019
 5370POPC   C4A69366  20.137  32.442   7.220
 5370POPC   C1B69367  19.643  31.974   6.191
 5370POPC   C2B69368  19.496  31.953   6.633
 5370POPC   C3B69369  19.595  31.749   7.031
 5370POPC   C4B69370  19.648  31.806   7.516
 5371POPC   NC369371  40.617  32.354   5.484
 5371POPC   PO469372  41.192  32.691   5.461
 5371POPC   GL169373  40.967  32.468   5.841
 5371POPC   GL269374  40.791  32.105   5.890
 5371POPC   C1A69375  40.891  32.395   6.306
 5371POPC   D2A69376  40.909  32.558   6.735
 5371POPC   C3A69377  40.550  32.495   6.972
 5371POPC   C4A69378  40.590  32.262   7.300
 5371POPC   C1B69379  40.605  31.955   6.262
 5371POPC   C2B69380  40.726  31.868   6.669
 5371POPC   C3B69381  40.943  32.064   6.977
 5371POPC   C4B69382  40.963  31.930   7.421
 5372POPC   NC369383  21.944  33.920   5.241
 5372POPC   PO469384  22.457  33.638   5.366
 5372POPC   GL169385  22.124  33.701   5.684
 5372POPC   GL269386  22.242  34.036   5.780
 5372POPC   C1A69387  21.899  33.813   6.086
 5372POPC   D2A69388  22.009  33.751   6.513
 5372POPC   C3A69389  21.838  33.896   6.880
 5372POPC   C4A69390  21.996  33.646   7.202
 5372POPC   C1B69391  22.398  33.942   6.225
 5372POPC   C2B69392  22.325  34.137   6.668
 5372POPC   C3B69393  22.244  34.104   7.130
 5372POPC   C4B69394  22.154  34.117   7.587
 5373POPC   NC369395  16.172  40.116   5.089
 5373POPC   PO469396  16.776  40.118   5.405
 5373POPC   GL169397  16.802  39.889   5.790
 5373POPC   GL269398  16.595  40.139   5.886
 5373POPC   C1A69399  16.643  39.730   6.185
 5373POPC   D2A69400  16.553  39.923   6.563
 5373POPC   C3A69401  16.678  39.749   6.965
 5373POPC   C4A69402  16.781  39.881   7.416
 5373POPC   C1B69403  16.639  40.329   6.262
 5373POPC   C2B69404  16.850  40.347   6.625
 5373POPC   C3B69405  16.805  40.234   7.052
 5373POPC   C4B69406  16.479  40.307   7.408
 5374POPC   NC369407  41.430  17.196   5.117
 5374POPC   PO469408  41.687  17.704   5.454
 5374POPC   GL169409  41.736  17.719   5.887
 5374POPC   GL269410  41.443  17.546   5.995
 5374POPC   C1A69411  41.869  17.632   6.292
 5374POPC   D2A69412  41.769  17.805   6.699
 5374POPC   C3A69413  41.509  17.563   6.933
 5374POPC   C4A69414  41.696  17.444   7.295
 5374POPC   C1B69415  41.397  17.868   6.312
 5374POPC   C2B69416  41.212  17.992   6.710
 5374POPC   C3B69417  41.410  18.014   7.104
 5374POPC   C4B69418  41.313  17.752   7.452
 5375POPC   NC369419  28.782  39.941   5.241
 5375POPC   PO469420  29.424  40.177   5.343
 5375POPC   GL169421  29.231  39.954   5.738
 5375POPC   GL269422  29.014  39.623   5.649
 5375POPC   C1A69423  29.382  40.037   6.220
 5375POPC   D2A69424  29.564  40.284   6.636
 5375POPC   C3A69425  29.264  40.292   7.010
 5375POPC   C4A69426  28.799  40.205   7.089
 5375POPC   C1B69427  29.147  39.582   6.104
 5375POPC   C2B69428  29.237  39.590   6.579
 5375POPC   C3B69429  29.063  39.758   6.988
 5375POPC   C4B69430  29.137  39.951   7.376
 5376POPC   NC369431  31.416  23.223   5.193
 5376POPC   PO469432  31.227  22.543   5.101
 5376POPC   GL169433  31.180  22.742   5.591
 5376POPC   GL269434  31.313  23.104   5.679
 5376POPC   C1A69435  31.043  22.772   6.082
 5376POPC   D2A69436  31.177  23.075   6.428
 5376POPC   C3A69437  31.329  22.969   6.867
 5376POPC   C4A69438  31.135  22.801   7.240
 5376POPC   C1B69439  31.526  22.959   6.043
 5376POPC   C2B69440  31.810  22.825   6.353
 5376POPC   C3B69441  31.870  22.922   6.766
 5376POPC   C4B69442  31.761  22.845   7.171
 5377POPC   NC369443  26.542  16.516   5.640
 5377POPC   PO469444  25.968  16.729   5.387
 5377POPC   GL169445  25.864  16.789   5.811
 5377POPC   GL269446  25.530  16.994   5.790
 5377POPC   C1A69447  26.076  16.853   6.243
 5377POPC   D2A69448  26.209  16.886   6.711
 5377POPC   C3A69449  26.102  16.568   7.039
 5377POPC   C4A69450  26.083  16.488   7.499
 5377POPC   C1B69451  25.570  16.837   6.207
 5377POPC   C2B69452  25.723  16.948   6.620
 5377POPC   C3B69453  25.654  16.798   7.005
 5377POPC   C4B69454  25.643  16.384   7.218
 5378POPC   NC369455  21.621   2.824   5.284
 5378POPC   PO469456  21.195   2.868   5.675
 5378POPC   GL169457  21.370   2.521   5.902
 5378POPC   GL269458  21.725   2.481   5.781
 5378POPC   C1A69459  21.196   2.347   6.302
 5378POPC   D2A69460  21.078   2.630   6.630
 5378POPC   C3A69461  21.256   2.648   7.038
 5378POPC   C4A69462  21.497   2.979   7.263
 5378POPC   C1B69463  21.758   2.539   6.239
 5378POPC   C2B69464  21.613   2.392   6.652
 5378POPC   C3B69465  21.758   2.602   7.016
 5378POPC   C4B69466  22.027   2.918   7.211
 5379POPC   NC369467  16.506  44.915   5.534
 5379POPC   PO469468  16.601  44.208   5.331
 5379POPC   GL169469  16.744  44.462   5.714
 5379POPC   GL269470  17.070  44.337   5.756
 5379POPC   C1A69471  16.623  44.640   6.167
 5379POPC   D2A69472  16.560  44.461   6.572
 5379POPC   C3A69473  16.549  44.684   6.954
 5379POPC   C4A69474  16.552  44.437   7.323
 5379POPC   C1B69475  17.169  44.496   6.177
 5379POPC   C2B69476  17.066  44.653   6.587
 5379POPC   C3B69477  17.051  44.906   6.956
 5379POPC   C4B69478  16.824  44.884   7.364
 5380POPC   NC369479  14.799  36.860   5.293
 5380POPC   PO469480  14.139  37.016   5.434
 5380POPC   GL169481  14.313  36.770   5.734
 5380POPC   GL269482  14.586  36.873   5.814
 5380POPC   C1A69483  14.224  36.648   6.133
 5380POPC   D2A69484  14.142  36.928   6.494
 5380POPC   C3A69485  14.348  36.941   6.891
 5380POPC   C4A69486  14.232  37.177   7.261
 5380POPC   C1B69487  14.781  36.899   6.208
 5380POPC   C2B69488  14.968  36.805   6.609
 5380POPC   C3B69489  14.847  36.999   6.982
 5380POPC   C4B69490  14.594  36.827   7.337
 5381POPC   NC369491   6.704  12.433   5.551
 5381POPC   PO469492   6.214  11.990   5.381
 5381POPC   GL169493   6.401  12.076   5.767
 5381POPC   GL269494   6.256  12.393   5.840
 5381POPC   C1A69495   6.619  11.936   6.143
 5381POPC   D2A69496   6.462  11.773   6.532
 5381POPC   C3A69497   6.662  11.905   6.913
 5381POPC   C4A69498   6.540  11.802   7.303
 5381POPC   C1B69499   6.443  12.416   6.237
 5381POPC   C2B69500   6.397  12.287   6.650
 5381POPC   C3B69501   6.510  12.453   7.028
 5381POPC   C4B69502   6.741  12.275   7.337
 5382POPC   NC369503  43.157   2.403   5.379
 5382POPC   PO469504  42.929   3.103   5.316
 5382POPC   GL169505  43.013   2.813   5.668
 5382POPC   GL269506  43.356   2.823   5.821
 5382POPC   C1A69507  42.888   2.676   6.089
 5382POPC   D2A69508  42.642   2.711   6.476
 5382POPC   C3A69509  42.808   2.648   6.907
 5382POPC   C4A69510  42.996   2.558   7.302
 5382POPC   C1B69511  43.217   3.064   6.183
 5382POPC   C2B69512  43.127   2.904   6.594
 5382POPC   C3B69513  43.096   3.054   7.026
 5382POPC   C4B69514  43.339   2.966   7.387
 5383POPC   NC369515  13.242   2.407   5.305
 5383POPC   PO469516  13.685   1.907   5.211
 5383POPC   GL169517  13.529   2.016   5.715
 5383POPC   GL269518  13.483   2.360   5.758
 5383POPC   C1A69519  13.607   1.836   6.148
 5383POPC   D2A69520  13.534   2.028   6.529
 5383POPC   C3A69521  13.581   1.862   6.917
 5383POPC   C4A69522  13.252   2.013   7.173
 5383POPC   C1B69523  13.771   2.331   6.121
 5383POPC   C2B69524  14.012   2.186   6.473
 5383POPC   C3B69525  13.993   2.226   6.946
 5383POPC   C4B69526  14.134   2.142   7.404
 5384POPC   NC369527  32.163  44.114   5.479
 5384POPC   PO469528  31.937  43.570   5.281
 5384POPC   GL169529  32.076  43.728   5.756
 5384POPC   GL269530  31.876  43.908   5.959
 5384POPC   C1A69531  32.455  43.785   6.115
 5384POPC   D2A69532  32.396  44.002   6.478
 5384POPC   C3A69533  32.468  43.908   6.909
 5384POPC   C4A69534  32.351  43.749   7.309
 5384POPC   C1B69535  32.027  43.559   6.221
 5384POPC   C2B69536  32.268  43.492   6.598
 5384POPC   C3B69537  32.059  43.538   6.975
 5384POPC   C4B69538  31.870  43.619   7.396
 5385POPC   NC369539  10.222  21.647   5.383
 5385POPC   PO469540  10.770  21.243   5.340
 5385POPC   GL169541  10.526  21.387   5.718
 5385POPC   GL269542  10.242  21.168   5.795
 5385POPC   C1A69543  10.614  21.448   6.174
 5385POPC   D2A69544  10.870  21.232   6.510
 5385POPC   C3A69545  10.703  21.348   6.908
 5385POPC   C4A69546  10.871  21.500   7.279
 5385POPC   C1B69547  10.117  21.343   6.181
 5385POPC   C2B69548  10.093  21.534   6.592
 5385POPC   C3B69549  10.162  21.291   6.969
 5385POPC   C4B69550  10.393  21.349   7.337
 5386POPC   NC369551  37.413  37.461   5.300
 5386POPC   PO469552  37.998  37.762   5.288
 5386POPC   GL169553  37.777  37.692   5.685
 5386POPC   GL269554  37.682  37.329   5.715
 5386POPC   C1A69555  37.701  37.786   6.148
 5386POPC   D2A69556  37.556  37.541   6.514
 5386POPC   C3A69557  37.470  37.527   6.968
 5386POPC   C4A69558  37.622  37.748   7.320
 5386POPC   C1B69559  37.831  37.287   6.122
 5386POPC   C2B69560  37.935  37.175   6.524
 5386POPC   C3B69561  38.096  37.283   6.910
 5386POPC   C4B69562  37.923  37.329   7.330
 5387POPC   NC369563  20.938  25.488   5.362
 5387POPC   PO469564  21.569  25.165   5.219
 5387POPC   GL169565  21.362  25.303   5.649
 5387POPC   GL269566  21.650  25.400   5.826
 5387POPC   C1A69567  21.246  25.363   6.136
 5387POPC   D2A69568  21.001  25.348   6.538
 5387POPC   C3A69569  21.152  25.282   6.966
 5387POPC   C4A69570  21.082  25.447   7.399
 5387POPC   C1B69571  21.688  25.072   6.154
 5387POPC   C2B69572  21.815  24.968   6.561
 5387POPC   C3B69573  21.689  25.309   6.830
 5387POPC   C4B69574  21.577  25.329   7.271
 5388POPC   NC369575  44.910  39.568   5.445
 5388POPC   PO469576  44.491  39.069   5.583
 5388POPC   GL169577  44.777  39.039   5.915
 5388POPC   GL269578  44.821  38.678   5.999
 5388POPC   C1A69579  44.806  39.164   6.344
 5388POPC   D2A69580  44.738  39.466   6.689
 5388POPC   C3A69581  44.809  39.230   7.054
 5388POPC   C4A69582  44.524  39.288   7.380
 5388POPC   C1B69583  44.408  38.815   6.196
 5388POPC   C2B69584  44.186  39.055   6.518
 5388POPC   C3B69585  44.365  39.002   6.927
 5388POPC   C4B69586  44.578  38.811   7.286
 5389POPC   NC369587  41.284   8.594   5.373
 5389POPC   PO469588  41.708   8.045   5.412
 5389POPC   GL169589  41.687   8.333   5.748
 5389POPC   GL269590  41.808   8.038   5.968
 5389POPC   C1A69591  41.555   8.448   6.152
 5389POPC   D2A69592  41.631   8.212   6.516
 5389POPC   C3A69593  41.749   8.435   6.856
 5389POPC   C4A69594  41.748   8.272   7.254
 5389POPC   C1B69595  41.398   7.913   6.164
 5389POPC   C2B69596  41.211   7.941   6.621
 5389POPC   C3B69597  41.331   7.963   7.079
 5389POPC   C4B69598  41.138   7.724   7.419
 5390POPC   NC369599  29.939  31.098   5.309
 5390POPC   PO469600  29.917  30.443   5.331
 5390POPC   GL169601  29.810  30.573   5.747
 5390POPC   GL269602  29.649  30.912   5.710
 5390POPC   C1A69603  29.951  30.582   6.186
 5390POPC   D2A69604  29.962  30.274   6.538
 5390POPC   C3A69605  30.150  30.423   6.930
 5390POPC   C4A69606  30.189  30.771   7.244
 5390POPC   C1B69607  29.560  30.951   6.150
 5390POPC   C2B69608  29.570  30.728   6.548
 5390POPC   C3B69609  29.761  30.788   6.943
 5390POPC   C4B69610  29.799  31.097   7.273
 5391POPC   NC369611  30.162  34.128   5.220
 5391POPC   PO469612  29.812  34.724   5.330
 5391POPC   GL169613  29.845  34.624   5.751
 5391POPC   GL269614  29.849  34.262   5.706
 5391POPC   C1A69615  29.844  34.795   6.195
 5391POPC   D2A69616  30.056  34.646   6.594
 5391POPC   C3A69617  29.879  34.659   7.042
 5391POPC   C4A69618  29.782  34.932   7.406
 5391POPC   C1B69619  30.005  34.338   6.146
 5391POPC   C2B69620  30.328  34.219   6.385
 5391POPC   C3B69621  30.409  34.186   6.811
 5391POPC   C4B69622  30.088  34.179   7.117
 5392POPC   NC369623  11.248  22.632   5.391
 5392POPC   PO469624  11.061  23.233   5.465
 5392POPC   GL169625  11.402  23.020   5.730
 5392POPC   GL269626  11.639  22.697   5.712
 5392POPC   C1A69627  11.587  23.060   6.124
 5392POPC   D2A69628  11.417  22.957   6.515
 5392POPC   C3A69629  11.491  23.198   6.867
 5392POPC   C4A69630  11.252  23.301   7.212
 5392POPC   C1B69631  11.438  22.577   6.076
 5392POPC   C2B69632  11.522  22.458   6.484
 5392POPC   C3B69633  11.259  22.567   6.822
 5392POPC   C4B69634  11.343  22.788   7.155
 5393POPC   NC369635  19.984  22.039   5.154
 5393POPC   PO469636  19.669  22.571   5.237
 5393POPC   GL169637  19.778  22.318   5.640
 5393POPC   GL269638  20.082  22.091   5.692
 5393POPC   C1A69639  19.868  22.287   6.090
 5393POPC   D2A69640  20.067  22.289   6.478
 5393POPC   C3A69641  19.928  22.402   6.896
 5393POPC   C4A69642  19.798  22.156   7.235
 5393POPC   C1B69643  20.270  21.947   6.120
 5393POPC   C2B69644  20.146  21.785   6.547
 5393POPC   C3B69645  20.197  21.937   6.988
 5393POPC   C4B69646  20.219  21.984   7.466
 5394POPC   NC369647  21.898  23.275   5.221
 5394POPC   PO469648  22.417  22.894   5.437
 5394POPC   GL169649  22.368  22.765   5.851
 5394POPC   GL269650  22.006  22.786   5.880
 5394POPC   C1A69651  22.351  22.838   6.308
 5394POPC   D2A69652  22.302  23.120   6.680
 5394POPC   C3A69653  22.453  23.003   7.098
 5394POPC   C4A69654  22.346  23.145   7.515
 5394POPC   C1B69655  21.820  22.822   6.298
 5394POPC   C2B69656  21.819  22.975   6.704
 5394POPC   C3B69657  21.934  23.024   7.139
 5394POPC   C4B69658  21.948  22.788   7.537
 5395POPC   NC369659  33.143  17.086   5.410
 5395POPC   PO469660  32.982  16.434   5.456
 5395POPC   GL169661  32.894  16.691   5.805
 5395POPC   GL269662  33.212  16.881   5.881
 5395POPC   C1A69663  32.968  16.601   6.231
 5395POPC   D2A69664  33.219  16.586   6.571
 5395POPC   C3A69665  33.059  16.593   6.990
 5395POPC   C4A69666  33.006  16.355   7.370
 5395POPC   C1B69667  33.173  17.039   6.320
 5395POPC   C2B69668  33.216  17.040   6.776
 5395POPC   C3B69669  32.986  17.040   7.200
 5395POPC   C4B69670  33.103  16.788   7.582
 5396POPC   NC369671  23.879  24.168   5.522
 5396POPC   PO469672  23.563  24.719   5.190
 5396POPC   GL169673  23.578  24.524   5.705
 5396POPC   GL269674  23.965  24.526   5.873
 5396POPC   C1A69675  23.588  24.440   6.209
 5396POPC   D2A69676  23.358  24.534   6.622
 5396POPC   C3A69677  23.555  24.425   7.030
 5396POPC   C4A69678  23.585  24.681   7.412
 5396POPC   C1B69679  24.038  24.783   6.268
 5396POPC   C2B69680  23.851  24.810   6.668
 5396POPC   C3B69681  24.009  24.631   7.050
 5396POPC   C4B69682  24.006  24.289   7.362
 5397POPC   NC369683  43.419   9.160   5.366
 5397POPC   PO469684  42.685   9.189   5.289
 5397POPC   GL169685  42.899   8.907   5.615
 5397POPC   GL269686  43.102   9.187   5.780
 5397POPC   C1A69687  42.942   8.808   6.086
 5397POPC   D2A69688  43.249   8.926   6.425
 5397POPC   C3A69689  43.077   9.088   6.797
 5397POPC   C4A69690  42.901   8.864   7.114
 5397POPC   C1B69691  43.410   9.304   6.110
 5397POPC   C2B69692  43.463   9.408   6.557
 5397POPC   C3B69693  43.546   9.210   6.957
 5397POPC   C4B69694  43.402   8.808   7.122
 5398POPC   NC369695   2.058   2.863   5.478
 5398POPC   PO469696   1.503   2.914   5.480
 5398POPC   GL169697   1.744   2.917   5.908
 5398POPC   GL269698   2.067   3.105   5.927
 5398POPC   C1A69699   1.902   2.883   6.369
 5398POPC   D2A69700   1.905   2.603   6.732
 5398POPC   C3A69701   1.723   2.733   7.118
 5398POPC   C4A69702   1.578   3.150   7.278
 5398POPC   C1B69703   2.352   2.785   6.125
 5398POPC   C2B69704   2.407   2.558   6.521
 5398POPC   C3B69705   2.324   2.385   6.947
 5398POPC   C4B69706   2.155   2.558   7.334
 5399POPC   NC369707  41.001  36.359   5.393
 5399POPC   PO469708  40.690  35.725   5.431
 5399POPC   GL169709  40.911  35.988   5.751
 5399POPC   GL269710  40.659  36.215   5.784
 5399POPC   C1A69711  41.043  36.300   6.133
 5399POPC   D2A69712  41.022  36.508   6.571
 5399POPC   C3A69713  41.089  36.319   6.948
 5399POPC   C4A69714  41.106  35.900   7.084
 5399POPC   C1B69715  40.604  35.990   6.178
 5399POPC   C2B69716  40.685  36.131   6.569
 5399POPC   C3B69717  40.620  36.085   6.986
 5399POPC   C4B69718  40.514  36.330   7.329
 5400POPC   NC369719  10.355  43.947   5.424
 5400POPC   PO469720  10.866  43.521   5.567
 5400POPC   GL169721  10.729  43.850   5.835
 5400POPC   GL269722  10.575  44.174   5.847
 5400POPC   C1A69723  10.756  43.884   6.255
 5400POPC   D2A69724  10.562  44.143   6.528
 5400POPC   C3A69725  10.756  44.027   6.924
 5400POPC   C4A69726  10.626  43.640   7.120
 5400POPC   C1B69727  10.272  43.944   6.113
 5400POPC   C2B69728  10.225  43.759   6.486
 5400POPC   C3B69729  10.262  43.873   6.868
 5400POPC   C4B69730  10.138  43.743   7.227
 5401POPC   NC369731  12.168  28.264   5.320
 5401POPC   PO469732  12.002  28.934   5.344
 5401POPC   GL169733  12.050  28.587   5.734
 5401POPC   GL269734  11.983  28.182   5.778
 5401POPC   C1A69735  12.341  28.365   6.098
 5401POPC   D2A69736  12.379  28.163   6.560
 5401POPC   C3A69737  12.289  28.434   6.885
 5401POPC   C4A69738  12.133  28.486   7.288
 5401POPC   C1B69739  11.833  28.367   6.167
 5401POPC   C2B69740  11.880  28.256   6.583
 5401POPC   C3B69741  11.762  28.428   6.950
 5401POPC   C4B69742  11.463  28.603   7.214
 5402POPC   NC369743  11.276  17.591   5.353
 5402POPC   PO469744  11.695  17.086   5.540
 5402POPC   GL169745  11.498  17.483   5.804
 5402POPC   GL269746  11.104  17.554   5.831
 5402POPC   C1A69747  11.424  17.446   6.257
 5402POPC   D2A69748  11.698  17.372   6.596
 5402POPC   C3A69749  11.583  17.583   6.951
 5402POPC   C4A69750  11.560  17.806   7.318
 5402POPC   C1B69751  10.963  17.687   6.247
 5402POPC   C2B69752  11.088  17.623   6.675
 5402POPC   C3B69753  11.100  17.584   7.127
 5402POPC   C4B69754  11.018  17.898   7.403
 5403POPC   NC369755  12.737  21.954   5.317
 5403POPC   PO469756  12.467  22.653   5.360
 5403POPC   GL169757  12.735  22.366   5.642
 5403POPC   GL269758  12.607  22.040   5.821
 5403POPC   C1A69759  12.957  22.433   6.035
 5403POPC   D2A69760  12.809  22.560   6.491
 5403POPC   C3A69761  12.921  22.482   6.953
 5403POPC   C4A69762  12.732  22.374   7.394
 5403POPC   C1B69763  12.718  22.075   6.280
 5403POPC   C2B69764  12.854  22.027   6.691
 5403POPC   C3B69765  12.562  22.118   7.007
 5403POPC   C4B69766  12.300  21.975   7.307
 5404POPC   NC369767   6.842  43.728   5.448
 5404POPC   PO469768   6.348  44.173   5.375
 5404POPC   GL169769   6.382  43.863   5.760
 5404POPC   GL269770   6.700  43.830   5.926
 5404POPC   C1A69771   6.254  43.986   6.171
 5404POPC   D2A69772   6.495  44.026   6.557
 5404POPC   C3A69773   6.418  43.862   6.929
 5404POPC   C4A69774   6.738  43.834   7.163
 5404POPC   C1B69775   6.594  43.607   6.291
 5404POPC   C2B69776   6.802  43.571   6.688
 5404POPC   C3B69777   6.719  43.343   7.064
 5404POPC   C4B69778   6.595  43.470   7.485
 5405POPC   NC369779  33.982   4.392   5.471
 5405POPC   PO469780  34.316   4.000   5.688
 5405POPC   GL169781  34.118   4.326   5.960
 5405POPC   GL269782  33.769   4.273   5.931
 5405POPC   C1A69783  33.938   4.592   6.294
 5405POPC   D2A69784  33.690   4.617   6.680
 5405POPC   C3A69785  33.866   4.704   7.075
 5405POPC   C4A69786  34.047   4.414   7.373
 5405POPC   C1B69787  33.513   4.308   6.304
 5405POPC   C2B69788  33.430   4.177   6.738
 5405POPC   C3B69789  33.632   4.203   7.141
 5405POPC   C4B69790  33.515   4.127   7.589
 5406POPC   NC369791  31.787  32.058   5.369
 5406POPC   PO469792  31.368  32.551   5.223
 5406POPC   GL169793  31.444  32.504   5.747
 5406POPC   GL269794  31.491  32.127   5.806
 5406POPC   C1A69795  31.428  32.456   6.204
 5406POPC   D2A69796  31.225  32.169   6.500
 5406POPC   C3A69797  31.345  32.186   6.921
 5406POPC   C4A69798  31.260  32.452   7.264
 5406POPC   C1B69799  31.629  31.945   6.217
 5406POPC   C2B69800  31.914  31.817   6.564
 5406POPC   C3B69801  31.792  31.842   7.033
 5406POPC   C4B69802  31.476  31.943   7.358
 5407POPC   NC369803   6.430  14.851   5.255
 5407POPC   PO469804   6.402  15.563   5.317
 5407POPC   GL169805   6.641  15.466   5.682
 5407POPC   GL269806   6.691  15.070   5.758
 5407POPC   C1A69807   6.798  15.444   6.094
 5407POPC   D2A69808   6.651  15.217   6.437
 5407POPC   C3A69809   6.634  15.443   6.834
 5407POPC   C4A69810   6.605  15.281   7.244
 5407POPC   C1B69811   7.026  14.969   6.091
 5407POPC   C2B69812   7.121  15.012   6.534
 5407POPC   C3B69813   6.802  14.947   6.859
 5407POPC   C4B69814   6.863  14.861   7.276
 5408POPC   NC369815  35.252  38.451   5.578
 5408POPC   PO469816  35.827  38.473   5.226
 5408POPC   GL169817  35.662  38.299   5.806
 5408POPC   GL269818  35.587  37.946   5.797
 5408POPC   C1A69819  35.597  38.508   6.253
 5408POPC   D2A69820  35.297  38.703   6.571
 5408POPC   C3A69821  35.405  38.659   7.024
 5408POPC   C4A69822  35.576  38.362   7.330
 5408POPC   C1B69823  35.378  38.056   6.204
 5408POPC   C2B69824  35.503  38.179   6.658
 5408POPC   C3B69825  35.252  38.120   7.052
 5408POPC   C4B69826  35.221  37.988   7.519
 5409POPC   NC369827  26.539  32.265   5.522
 5409POPC   PO469828  25.933  31.988   5.300
 5409POPC   GL169829  25.756  32.069   5.704
 5409POPC   GL269830  26.024  32.310   5.748
 5409POPC   C1A69831  25.628  32.309   6.071
 5409POPC   D2A69832  25.905  32.293   6.419
 5409POPC   C3A69833  26.009  32.407   6.801
 5409POPC   C4A69834  25.915  32.298   7.188
 5409POPC   C1B69835  26.273  32.139   6.105
 5409POPC   C2B69836  26.409  32.144   6.546
 5409POPC   C3B69837  26.497  32.197   6.975
 5409POPC   C4B69838  26.414  31.909   7.328
 5410POPC   NC369839  23.295  43.421   5.579
 5410POPC   PO469840  23.242  42.728   5.555
 5410POPC   GL169841  23.193  43.017   5.874
 5410POPC   GL269842  22.843  43.114   5.831
 5410POPC   C1A69843  23.073  43.202   6.282
 5410POPC   D2A69844  22.790  43.034   6.586
 5410POPC   C3A69845  22.932  42.902   6.986
 5410POPC   C4A69846  23.078  43.089   7.358
 5410POPC   C1B69847  22.520  43.223   6.153
 5410POPC   C2B69848  22.376  43.316   6.576
 5410POPC   C3B69849  22.469  43.282   7.037
 5410POPC   C4B69850  22.569  42.982   7.355
 5411POPC   NC369851   2.222  39.610   5.433
 5411POPC   PO469852   1.935  40.274   5.251
 5411POPC   GL169853   1.930  40.195   5.675
 5411POPC   GL269854   2.216  40.040   5.744
 5411POPC   C1A69855   1.815  40.201   6.105
 5411POPC   D2A69856   1.742  39.993   6.485
 5411POPC   C3A69857   1.725  40.293   6.836
 5411POPC   C4A69858   1.578  40.303   7.266
 5411POPC   C1B69859   2.091  39.764   6.085
 5411POPC   C2B69860   2.202  39.774   6.502
 5411POPC   C3B69861   2.011  39.841   6.897
 5411POPC   C4B69862   2.044  40.055   7.250
 5412POPC   NC369863  16.131  44.231   5.338
 5412POPC   PO469864  15.983  44.888   5.377
 5412POPC   GL169865  15.876  44.542   5.674
 5412POPC   GL269866  16.229  44.463   5.788
 5412POPC   C1A69867  15.777  44.346   6.082
 5412POPC   D2A69868  15.826  44.492   6.519
 5412POPC   C3A69869  16.014  44.505   6.930
 5412POPC   C4A69870  15.727  44.461   7.320
 5412POPC   C1B69871  16.115  44.726   6.141
 5412POPC   C2B69872  16.204  44.856   6.563
 5412POPC   C3B69873  16.123   0.033   6.970
 5412POPC   C4B69874  16.139  44.774   7.345
 5413POPC   NC369875  35.860  17.954   5.430
 5413POPC   PO469876  36.243  17.391   5.280
 5413POPC   GL169877  35.878  17.482   5.651
 5413POPC   GL269878  36.127  17.677   5.789
 5413POPC   C1A69879  35.797  17.593   6.149
 5413POPC   D2A69880  36.124  17.573   6.514
 5413POPC   C3A69881  36.083  17.423   6.958
 5413POPC   C4A69882  36.102  17.580   7.386
 5413POPC   C1B69883  36.287  17.888   6.152
 5413POPC   C2B69884  36.311  18.064   6.574
 5413POPC   C3B69885  36.201  17.936   7.004
 5413POPC   C4B69886  36.517  17.859   7.311
 5414POPC   NC369887  43.601   3.248   5.001
 5414POPC   PO469888  43.762   2.811   5.467
 5414POPC   GL169889  43.889   2.719   5.887
 5414POPC   GL269890  44.086   3.023   5.838
 5414POPC   C1A69891  43.793   2.649   6.364
 5414POPC   D2A69892  43.576   2.667   6.780
 5414POPC   C3A69893  43.835   2.686   7.184
 5414POPC   C4A69894  43.700   2.549   7.601
 5414POPC   C1B69895  43.752   3.123   6.162
 5414POPC   C2B69896  43.580   3.136   6.557
 5414POPC   C3B69897  43.627   3.146   6.987
 5414POPC   C4B69898  43.842   3.159   7.363
 5415POPC   NC369899  40.573  34.486   5.322
 5415POPC   PO469900  39.853  34.562   5.370
 5415POPC   GL169901  40.085  34.665   5.731
 5415POPC   GL269902  39.987  34.373   5.916
 5415POPC   C1A69903  40.029  34.897   6.115
 5415POPC   D2A69904  40.220  34.925   6.516
 5415POPC   C3A69905  40.008  34.779   6.864
 5415POPC   C4A69906  39.998  34.558   7.225
 5415POPC   C1B69907  39.700  34.520   6.250
 5415POPC   C2B69908  39.670  34.387   6.688
 5415POPC   C3B69909  39.728  34.135   7.101
 5415POPC   C4B69910  39.818  34.042   7.552
 5416POPC   NC369911  26.802  15.616   5.581
 5416POPC   PO469912  26.775  15.000   5.310
 5416POPC   GL169913  26.779  14.994   5.764
 5416POPC   GL269914  26.516  15.236   5.756
 5416POPC   C1A69915  26.818  15.149   6.237
 5416POPC   D2A69916  26.890  14.958   6.678
 5416POPC   C3A69917  26.884  15.077   7.134
 5416POPC   C4A69918  26.721  14.826   7.472
 5416POPC   C1B69919  26.365  15.397   6.144
 5416POPC   C2B69920  26.568  15.522   6.547
 5416POPC   C3B69921  26.672  15.499   6.981
 5416POPC   C4B69922  27.020  15.596   7.269
 5417POPC   NC369923  38.111   6.100   5.614
 5417POPC   PO469924  38.567   5.608   5.409
 5417POPC   GL169925  38.368   5.681   5.810
 5417POPC   GL269926  38.497   5.973   5.910
 5417POPC   C1A69927  38.233   5.754   6.267
 5417POPC   D2A69928  38.482   5.684   6.652
 5417POPC   C3A69929  38.399   5.871   7.083
 5417POPC   C4A69930  38.246   6.126   7.447
 5417POPC   C1B69931  38.695   6.126   6.278
 5417POPC   C2B69932  38.573   6.188   6.697
 5417POPC   C3B69933  38.482   6.396   7.059
 5417POPC   C4B69934  38.741   6.205   7.378
 5418POPC   NC369935   0.428  42.042   5.415
 5418POPC   PO469936   0.649  41.362   5.286
 5418POPC   GL169937   0.574  41.480   5.735
 5418POPC   GL269938   0.239  41.595   5.847
 5418POPC   C1A69939   0.530  41.289   6.170
 5418POPC   D2A69940   0.301  41.334   6.550
 5418POPC   C3A69941   0.503  41.361   6.934
 5418POPC   C4A69942   0.380  41.110   7.240
 5418POPC   C1B69943   0.066  41.716   6.286
 5418POPC   C2B69944   0.111  41.752   6.780
 5418POPC   C3B69945   0.113  41.657   7.230
 5418POPC   C4B69946   0.046  41.855   7.687
 5419POPC   NC369947  35.477  34.845   5.393
 5419POPC   PO469948  35.368  34.133   5.338
 5419POPC   GL169949  35.328  34.280   5.819
 5419POPC   GL269950  35.188  34.591   5.732
 5419POPC   C1A69951  35.610  34.397   6.256
 5419POPC   D2A69952  35.548  34.228   6.697
 5419POPC   C3A69953  35.276  34.390   7.009
 5419POPC   C4A69954  35.207  34.491   7.440
 5419POPC   C1B69955  35.152  34.602   6.186
 5419POPC   C2B69956  35.322  34.682   6.585
 5419POPC   C3B69957  35.324  34.894   6.964
 5419POPC   C4B69958  35.215  34.994   7.340
 5420POPC   NC369959   5.489  13.862   5.683
 5420POPC   PO469960   6.170  13.825   5.389
 5420POPC   GL169961   5.931  13.646   5.755
 5420POPC   GL269962   5.648  13.463   5.973
 5420POPC   C1A69963   5.918  13.834   6.194
 5420POPC   D2A69964   5.760  13.559   6.525
 5420POPC   C3A69965   5.970  13.672   6.884
 5420POPC   C4A69966   5.913  13.713   7.317
 5420POPC   C1B69967   6.062  13.361   6.169
 5420POPC   C2B69968   6.191  13.277   6.572
 5420POPC   C3B69969   5.947  13.146   6.936
 5420POPC   C4B69970   6.159  13.256   7.317
 5421POPC   NC369971  15.123  18.029   5.518
 5421POPC   PO469972  14.791  18.667   5.421
 5421POPC   GL169973  14.999  18.475   5.815
 5421POPC   GL269974  15.278  18.668   5.942
 5421POPC   C1A69975  14.991  18.106   6.139
 5421POPC   D2A69976  15.225  17.876   6.439
 5421POPC   C3A69977  15.351  18.099   6.827
 5421POPC   C4A69978  15.226  18.005   7.233
 5421POPC   C1B69979  15.180  18.524   6.375
 5421POPC   C2B69980  14.907  18.264   6.640
 5421POPC   C3B69981  14.868  18.340   7.074
 5421POPC   C4B69982  14.976  18.617   7.415
 5422POPC   NC369983   5.779  29.170   5.103
 5422POPC   PO469984   6.241  28.813   5.243
 5422POPC   GL169985   6.069  29.180   5.591
 5422POPC   GL269986   5.733  29.168   5.737
 5422POPC   C1A69987   6.050  29.290   6.106
 5422POPC   D2A69988   5.837  29.179   6.541
 5422POPC   C3A69989   6.044  29.291   6.930
 5422POPC   C4A69990   6.192  29.172   7.328
 5422POPC   C1B69991   5.593  28.968   6.146
 5422POPC   C2B69992   5.557  28.776   6.606
 5422POPC   C3B69993   5.650  28.956   7.020
 5422POPC   C4B69994   5.574  29.340   7.252
 5423POPC   NC369995  19.753  19.311   5.447
 5423POPC   PO469996  20.239  18.909   5.481
 5423POPC   GL169997  20.137  19.037   5.855
 5423POPC   GL269998  20.240  19.378   5.790
 5423POPC   C1A69999  19.988  18.901   6.297
 5423POPC   D2A70000  20.073  18.810   6.758
 5423POPC   C3A70001  19.695  18.803   7.052
 5423POPC   C4A70002  19.378  18.816   7.415
 5423POPC   C1B70003  20.199  19.351   6.230
 5423POPC   C2B70004  20.030  19.323   6.644
 5423POPC   C3B70005  20.008  19.212   7.087
 5423POPC   C4B70006  20.093  19.233   7.525
 5424POPC   NC370007  32.534  25.148   5.539
 5424POPC   PO470008  31.906  25.180   5.536
 5424POPC   GL170009  32.102  25.170   5.892
 5424POPC   GL270010  32.274  24.857   5.892
 5424POPC   C1A70011  32.049  25.342   6.291
 5424POPC   D2A70012  32.335  25.507   6.564
 5424POPC   C3A70013  32.190  25.468   6.969
 5424POPC   C4A70014  32.113  25.455   7.388
 5424POPC   C1B70015  32.045  24.824   6.304
 5424POPC   C2B70016  31.972  25.052   6.734
 5424POPC   C3B70017  32.175  24.981   7.150
 5424POPC   C4B70018  32.253  25.012   7.587
 5425POPC   NC370019  18.866  19.153   5.014
 5425POPC   PO470020  19.305  19.438   5.478
 5425POPC   GL170021  19.122  19.412   5.882
 5425POPC   GL270022  18.880  19.132   5.849
 5425POPC   C1A70023  19.316  19.205   6.243
 5425POPC   D2A70024  19.560  19.099   6.625
 5425POPC   C3A70025  19.265  19.090   6.976
 5425POPC   C4A70026  19.105  19.387   7.231
 5425POPC   C1B70027  18.778  19.292   6.260
 5425POPC   C2B70028  18.901  19.382   6.688
 5425POPC   C3B70029  18.702  19.180   7.026
 5425POPC   C4B70030  18.514  19.192   7.429
 5426POPC   NC370031   7.212   7.429   5.329
 5426POPC   PO470032   7.682   7.698   5.718
 5426POPC   GL170033   7.249   7.618   5.812
 5426POPC   GL270034   7.258   7.269   5.927
 5426POPC   C1A70035   6.918   7.591   6.129
 5426POPC   D2A70036   7.046   7.261   6.423
 5426POPC   C3A70037   7.257   7.419   6.784
 5426POPC   C4A70038   7.391   7.237   7.144
 5426POPC   C1B70039   7.597   7.339   6.262
 5426POPC   C2B70040   7.731   7.636   6.580
 5426POPC   C3B70041   7.721   7.594   7.010
 5426POPC   C4B70042   7.691   7.543   7.439
 5427POPC   NC370043  44.031   4.044   5.426
 5427POPC   PO470044  43.641   4.500   5.240
 5427POPC   GL170045  43.932   4.411   5.741
 5427POPC   GL270046  44.142   4.118   5.898
 5427POPC   C1A70047  43.861   4.390   6.237
 5427POPC   D2A70048  43.865   4.603   6.663
 5427POPC   C3A70049  43.603   4.532   6.994
 5427POPC   C4A70050  43.649   4.230   7.310
 5427POPC   C1B70051  44.306   3.887   6.243
 5427POPC   C2B70052  44.211   3.778   6.682
 5427POPC   C3B70053  43.962   4.064   6.946
 5427POPC   C4B70054  44.073   4.472   7.166
 5428POPC   NC370055  25.550  12.735   5.392
 5428POPC   PO470056  24.918  12.797   5.474
 5428POPC   GL170057  25.180  12.939   5.806
 5428POPC   GL270058  25.490  13.098   5.777
 5428POPC   C1A70059  25.252  12.790   6.205
 5428POPC   D2A70060  25.078  12.793   6.603
 5428POPC   C3A70061  25.320  12.771   6.962
 5428POPC   C4A70062  25.289  12.919   7.379
 5428POPC   C1B70063  25.601  13.182   6.197
 5428POPC   C2B70064  25.743  13.276   6.623
 5428POPC   C3B70065  25.552  13.222   7.041
 5428POPC   C4B70066  25.660  13.238   7.484
 5429POPC   NC370067  24.793   3.597   5.204
 5429POPC   PO470068  25.421   3.425   5.465
 5429POPC   GL170069  25.411   3.341   5.906
 5429POPC   GL270070  25.740   3.349   5.910
 5429POPC   C1A70071  25.401   3.185   6.367
 5429POPC   D2A70072  25.368   3.288   6.853
 5429POPC   C3A70073  24.951   3.221   7.065
 5429POPC   C4A70074  24.647   3.456   7.340
 5429POPC   C1B70075  25.605   3.648   6.270
 5429POPC   C2B70076  25.465   3.842   6.675
 5429POPC   C3B70077  25.382   3.823   7.135
 5429POPC   C4B70078  25.282   3.444   7.406
 5430POPC   NC370079   4.717  41.744   5.435
 5430POPC   PO470080   4.762  41.117   5.544
 5430POPC   GL170081   5.023  41.496   5.814
 5430POPC   GL270082   4.920  41.873   5.878
 5430POPC   C1A70083   4.927  41.544   6.294
 5430POPC   D2A70084   4.657  41.276   6.587
 5430POPC   C3A70085   4.795  41.193   6.999
 5430POPC   C4A70086   4.960  41.594   7.182
 5430POPC   C1B70087   4.967  42.071   6.280
 5430POPC   C2B70088   4.999  41.973   6.735
 5430POPC   C3B70089   5.076  42.108   7.151
 5430POPC   C4B70090   5.185  41.911   7.546
 5431POPC   NC370091  19.584  36.574   5.573
 5431POPC   PO470092  20.097  36.938   5.338
 5431POPC   GL170093  19.945  37.102   5.745
 5431POPC   GL270094  19.620  36.987   5.912
 5431POPC   C1A70095  20.020  37.147   6.189
 5431POPC   D2A70096  20.190  36.932   6.550
 5431POPC   C3A70097  19.896  36.821   6.855
 5431POPC   C4A70098  19.879  36.830   7.292
 5431POPC   C1B70099  19.679  36.775   6.358
 5431POPC   C2B70100  19.555  36.470   6.720
 5431POPC   C3B70101  19.548  36.460   7.188
 5431POPC   C4B70102  19.643  36.596   7.671
 5432POPC   NC370103   8.859  22.996   5.172
 5432POPC   PO470104   9.484  23.050   5.175
 5432POPC   GL170105   9.239  22.953   5.617
 5432POPC   GL270106   8.867  22.915   5.695
 5432POPC   C1A70107   9.115  23.137   6.071
 5432POPC   D2A70108   9.063  23.309   6.495
 5432POPC   C3A70109   9.131  23.014   6.812
 5432POPC   C4A70110   9.204  22.832   7.199
 5432POPC   C1B70111   8.682  22.804   6.128
 5432POPC   C2B70112   8.694  22.935   6.587
 5432POPC   C3B70113   8.702  22.822   7.048
 5432POPC   C4B70114   8.416  22.851   7.400
 5433POPC   NC370115  38.566   6.057   5.318
 5433POPC   PO470116  39.253   5.901   5.266
 5433POPC   GL170117  39.228   6.021   5.698
 5433POPC   GL270118  38.928   5.875   5.686
 5433POPC   C1A70119  39.445   5.888   6.096
 5433POPC   D2A70120  39.262   5.895   6.501
 5433POPC   C3A70121  39.462   5.828   6.866
 5433POPC   C4A70122  39.274   5.835   7.239
 5433POPC   C1B70123  38.970   5.712   6.120
 5433POPC   C2B70124  38.960   5.489   6.535
 5433POPC   C3B70125  38.911   5.780   6.902
 5433POPC   C4B70126  38.809   5.704   7.354
 5434POPC   NC370127  11.075  12.568   5.620
 5434POPC   PO470128  11.501  13.061   5.509
 5434POPC   GL170129  11.433  12.825   5.884
 5434POPC   GL270130  11.102  12.973   5.921
 5434POPC   C1A70131  11.292  12.608   6.278
 5434POPC   D2A70132  11.212  12.805   6.671
 5434POPC   C3A70133  11.087  12.609   7.025
 5434POPC   C4A70134  11.439  12.546   7.254
 5434POPC   C1B70135  11.267  13.129   6.276
 5434POPC   C2B70136  11.161  13.361   6.634
 5434POPC   C3B70137  11.276  13.214   7.038
 5434POPC   C4B70138  11.032  13.028   7.317
 5435POPC   NC370139   9.670  20.816   5.308
 5435POPC   PO470140   9.553  20.101   5.204
 5435POPC   GL170141   9.560  20.455   5.636
 5435POPC   GL270142   9.818  20.778   5.777
 5435POPC   C1A70143   9.593  20.496   6.124
 5435POPC   D2A70144   9.507  20.763   6.476
 5435POPC   C3A70145   9.521  20.671   6.930
 5435POPC   C4A70146   9.652  20.581   7.346
 5435POPC   C1B70147  10.069  20.795   6.160
 5435POPC   C2B70148  10.051  20.622   6.590
 5435POPC   C3B70149  10.032  20.776   7.019
 5435POPC   C4B70150  10.227  20.882   7.411
 5436POPC   NC370151   9.460  42.709   5.304
 5436POPC   PO470152   9.072  43.296   5.267
 5436POPC   GL170153   8.986  43.361   5.722
 5436POPC   GL270154   8.787  43.051   5.809
 5436POPC   C1A70155   9.079  43.239   6.173
 5436POPC   D2A70156   8.991  43.054   6.571
 5436POPC   C3A70157   8.847  43.295   6.920
 5436POPC   C4A70158   9.036  43.193   7.290
 5436POPC   C1B70159   8.574  43.054   6.255
 5436POPC   C2B70160   8.498  42.963   6.728
 5436POPC   C3B70161   8.796  42.803   7.067
 5436POPC   C4B70162   8.984  42.717   7.505
 5437POPC   NC370163  39.935  33.153   5.422
 5437POPC   PO470164  40.201  32.557   5.543
 5437POPC   GL170165  39.885  32.797   5.777
 5437POPC   GL270166  40.051  33.035   5.913
 5437POPC   C1A70167  39.701  32.815   6.201
 5437POPC   D2A70168  39.858  32.645   6.605
 5437POPC   C3A70169  39.784  32.826   7.048
 5437POPC   C4A70170  40.183  32.745   7.284
 5437POPC   C1B70171  39.966  33.320   6.205
 5437POPC   C2B70172  39.947  33.315   6.643
 5437POPC   C3B70173  40.147  33.202   7.017
 5437POPC   C4B70174  39.989  33.196   7.421
 5438POPC   NC370175   4.789  10.655   5.161
 5438POPC   PO470176   5.343  10.358   5.514
 5438POPC   GL170177   5.132  10.549   5.786
 5438POPC   GL270178   5.278  10.864   5.724
 5438POPC   C1A70179   5.070  10.377   6.174
 5438POPC   D2A70180   4.894  10.358   6.577
 5438POPC   C3A70181   5.106  10.296   6.940
 5438POPC   C4A70182   4.960  10.421   7.328
 5438POPC   C1B70183   5.280  10.870   6.180
 5438POPC   C2B70184   5.124  10.838   6.602
 5438POPC   C3B70185   5.246  10.772   7.039
 5438POPC   C4B70186   5.135  10.908   7.428
 5439POPC   NC370187  36.460  33.352   5.646
 5439POPC   PO470188  36.048  32.894   5.334
 5439POPC   GL170189  35.840  32.945   5.799
 5439POPC   GL270190  35.969  33.304   5.849
 5439POPC   C1A70191  35.961  32.946   6.298
 5439POPC   D2A70192  36.367  33.067   6.561
 5439POPC   C3A70193  36.397  32.777   6.904
 5439POPC   C4A70194  35.976  32.776   7.008
 5439POPC   C1B70195  36.066  33.482   6.231
 5439POPC   C2B70196  35.838  33.369   6.579
 5439POPC   C3B70197  35.836  33.446   6.993
 5439POPC   C4B70198  36.217  33.222   7.093
 5440POPC   NC370199   7.153  30.582   5.302
 5440POPC   PO470200   7.754  30.840   5.514
 5440POPC   GL170201   7.642  30.653   5.901
 5440POPC   GL270202   7.367  30.448   5.783
 5440POPC   C1A70203   7.619  30.780   6.340
 5440POPC   D2A70204   7.483  31.032   6.703
 5440POPC   C3A70205   7.398  30.719   6.998
 5440POPC   C4A70206   7.587  30.335   7.157
 5440POPC   C1B70207   7.189  30.479   6.203
 5440POPC   C2B70208   7.066  30.673   6.592
 5440POPC   C3B70209   6.934  30.520   7.001
 5440POPC   C4B70210   7.120  30.485   7.360
 5441POPC   NC370211  33.900  15.490   5.416
 5441POPC   PO470212  33.831  14.893   5.416
 5441POPC   GL170213  34.022  15.120   5.784
 5441POPC   GL270214  34.207  15.448   5.856
 5441POPC   C1A70215  33.846  15.315   6.199
 5441POPC   D2A70216  33.845  15.147   6.645
 5441POPC   C3A70217  33.703  15.318   7.054
 5441POPC   C4A70218  33.873  15.213   7.453
 5441POPC   C1B70219  34.315  15.104   6.203
 5441POPC   C2B70220  34.282  14.878   6.630
 5441POPC   C3B70221  34.074  14.899   7.081
 5441POPC   C4B70222  33.942  14.698   7.508
 5442POPC   NC370223  14.328   4.607   5.416
 5442POPC   PO470224  14.386   3.887   5.397
 5442POPC   GL170225  14.384   4.050   5.796
 5442POPC   GL270226  14.571   4.332   5.825
 5442POPC   C1A70227  14.067   4.244   6.047
 5442POPC   D2A70228  13.990   4.183   6.473
 5442POPC   C3A70229  14.296   4.087   6.764
 5442POPC   C4A70230  14.206   4.178   7.196
 5442POPC   C1B70231  14.521   4.264   6.277
 5442POPC   C2B70232  14.564   4.516   6.635
 5442POPC   C3B70233  14.654   4.415   7.064
 5442POPC   C4B70234  14.788   4.533   7.474
 5443POPC   NC370235  28.921  23.875   5.430
 5443POPC   PO470236  29.601  23.729   5.498
 5443POPC   GL170237  29.283  23.739   5.790
 5443POPC   GL270238  29.260  23.401   5.796
 5443POPC   C1A70239  29.150  23.757   6.218
 5443POPC   D2A70240  29.305  23.768   6.622
 5443POPC   C3A70241  29.105  23.808   7.010
 5443POPC   C4A70242  28.972  23.467   7.264
 5443POPC   C1B70243  29.561  23.417   6.138
 5443POPC   C2B70244  29.470  23.287   6.569
 5443POPC   C3B70245  29.471  23.444   6.997
 5443POPC   C4B70246  29.418  23.284   7.408
 5444POPC   NC370247  18.907  38.673   5.409
 5444POPC   PO470248  18.924  38.041   5.420
 5444POPC   GL170249  18.883  38.248   5.820
 5444POPC   GL270250  18.674  38.566   5.875
 5444POPC   C1A70251  19.273  38.306   6.071
 5444POPC   D2A70252  19.387  38.561   6.444
 5444POPC   C3A70253  19.340  38.358   6.848
 5444POPC   C4A70254  19.323  38.521   7.249
 5444POPC   C1B70255  18.860  38.491   6.299
 5444POPC   C2B70256  18.831  38.358   6.753
 5444POPC   C3B70257  18.812  38.634   7.147
 5444POPC   C4B70258  18.845  38.647   7.613
 5445POPC   NC370259  38.567  27.969   5.507
 5445POPC   PO470260  38.141  27.478   5.325
 5445POPC   GL170261  38.222  27.599   5.758
 5445POPC   GL270262  38.531  27.615   5.864
 5445POPC   C1A70263  38.169  27.545   6.239
 5445POPC   D2A70264  38.180  27.696   6.692
 5445POPC   C3A70265  38.518  27.586   6.991
 5445POPC   C4A70266  38.670  27.588   7.430
 5445POPC   C1B70267  38.536  27.916   6.211
 5445POPC   C2B70268  38.664  27.964   6.629
 5445POPC   C3B70269  38.877  27.940   7.030
 5445POPC   C4B70270  38.923  28.074   7.463
 5446POPC   NC370271  25.891  43.495   5.419
 5446POPC   PO470272  25.844  42.875   5.630
 5446POPC   GL170273  25.783  43.065   6.015
 5446POPC   GL270274  25.872  43.387   5.921
 5446POPC   C1A70275  25.992  43.037   6.409
 5446POPC   D2A70276  26.337  43.035   6.647
 5446POPC   C3A70277  26.244  43.130   7.058
 5446POPC   C4A70278  25.833  43.077   7.171
 5446POPC   C1B70279  25.788  43.497   6.346
 5446POPC   C2B70280  25.845  43.410   6.786
 5446POPC   C3B70281  25.977  43.580   7.185
 5446POPC   C4B70282  26.068  43.392   7.570
 5447POPC   NC370283  44.858  38.743   5.501
 5447POPC   PO470284  44.419  38.242   5.344
 5447POPC   GL170285  44.474  38.292   5.798
 5447POPC   GL270286  44.727  38.050   5.842
 5447POPC   C1A70287  44.594  38.311   6.271
 5447POPC   D2A70288  44.830  38.655   6.514
 5447POPC   C3A70289  44.872  38.576   6.955
 5447POPC   C4A70290  44.597  38.310   7.247
 5447POPC   C1B70291   0.073  37.985   6.128
 5447POPC   C2B70292   0.067  38.182   6.511
 5447POPC   C3B70293  44.810  38.070   6.842
 5447POPC   C4B70294   0.071  38.169   7.200
 5448POPC   NC370295  17.996  32.816   5.440
 5448POPC   PO470296  18.530  33.034   5.156
 5448POPC   GL170297  18.467  33.044   5.623
 5448POPC   GL270298  18.783  33.152   5.781
 5448POPC   C1A70299  18.312  33.191   6.070
 5448POPC   D2A70300  18.198  33.196   6.546
 5448POPC   C3A70301  18.251  32.810   6.844
 5448POPC   C4A70302  18.485  32.702   7.228
 5448POPC   C1B70303  18.737  32.968   6.222
 5448POPC   C2B70304  18.670  33.069   6.680
 5448POPC   C3B70305  18.452  33.206   7.101
 5448POPC   C4B70306  18.470  33.109   7.600
 5449POPC   NC370307  37.080  22.284   5.347
 5449POPC   PO470308  37.077  21.579   5.372
 5449POPC   GL170309  37.113  21.950   5.712
 5449POPC   GL270310  36.778  22.054   5.756
 5449POPC   C1A70311  37.209  22.261   6.069
 5449POPC   D2A70312  36.943  22.495   6.394
 5449POPC   C3A70313  37.049  22.496   6.847
 5449POPC   C4A70314  37.081  22.382   7.287
 5449POPC   C1B70315  36.550  22.047   6.151
 5449POPC   C2B70316  36.675  22.099   6.580
 5449POPC   C3B70317  36.795  22.067   7.008
 5449POPC   C4B70318  36.550  21.961   7.357
 5450POPC   NC370319  29.662   5.339   5.075
 5450POPC   PO470320  30.172   4.970   5.465
 5450POPC   GL170321  29.993   5.078   5.873
 5450POPC   GL270322  29.623   5.149   5.846
 5450POPC   C1A70323  29.884   5.321   6.263
 5450POPC   D2A70324  29.848   5.105   6.651
 5450POPC   C3A70325  29.865   5.288   7.034
 5450POPC   C4A70326  30.101   5.378   7.394
 5450POPC   C1B70327  29.598   4.878   6.242
 5450POPC   C2B70328  29.587   4.663   6.659
 5450POPC   C3B70329  29.761   4.659   7.082
 5450POPC   C4B70330  29.882   4.913   7.417
 5451POPC   NC370331  34.800  14.247   5.449
 5451POPC   PO470332  35.453  14.341   5.366
 5451POPC   GL170333  35.193  14.325   5.758
 5451POPC   GL270334  35.525  14.329   5.880
 5451POPC   C1A70335  35.135  14.474   6.185
 5451POPC   D2A70336  35.474  14.442   6.503
 5451POPC   C3A70337  35.351  14.381   6.916
 5451POPC   C4A70338  35.493  14.351   7.316
 5451POPC   C1B70339  35.767  14.188   6.200
 5451POPC   C2B70340  35.768  14.019   6.587
 5451POPC   C3B70341  35.844  14.186   6.987
 5451POPC   C4B70342  35.872  14.068   7.429
 5452POPC   NC370343  38.848  35.019   5.441
 5452POPC   PO470344  38.366  35.434   5.434
 5452POPC   GL170345  38.497  35.291   5.801
 5452POPC   GL270346  38.777  35.485   5.896
 5452POPC   C1A70347  38.426  35.384   6.247
 5452POPC   D2A70348  38.457  35.193   6.641
 5452POPC   C3A70349  38.437  35.418   7.027
 5452POPC   C4A70350  38.376  35.602   7.430
 5452POPC   C1B70351  38.793  35.040   6.118
 5452POPC   C2B70352  38.747  34.778   6.499
 5452POPC   C3B70353  38.757  34.940   6.956
 5452POPC   C4B70354  38.843  34.993   7.449
 5453POPC   NC370355  28.295  37.264   5.423
 5453POPC   PO470356  28.331  37.911   5.284
 5453POPC   GL170357  28.320  37.836   5.751
 5453POPC   GL270358  28.000  38.000   5.836
 5453POPC   C1A70359  28.318  37.676   6.219
 5453POPC   D2A70360  28.594  37.572   6.598
 5453POPC   C3A70361  28.437  37.717   6.986
 5453POPC   C4A70362  28.523  37.927   7.362
 5453POPC   C1B70363  27.869  37.976   6.272
 5453POPC   C2B70364  28.051  37.944   6.690
 5453POPC   C3B70365  28.051  38.075   7.135
 5453POPC   C4B70366  28.129  38.122   7.599
 5454POPC   NC370367  25.046  18.441   5.527
 5454POPC   PO470368  25.694  18.281   5.528
 5454POPC   GL170369  25.453  18.341   5.862
 5454POPC   GL270370  25.405  18.015   5.897
 5454POPC   C1A70371  25.241  18.348   6.255
 5454POPC   D2A70372  25.313  18.057   6.584
 5454POPC   C3A70373  25.044  18.077   6.955
 5454POPC   C4A70374  25.017  18.466   7.190
 5454POPC   C1B70375  25.725  18.077   6.224
 5454POPC   C2B70376  25.917  17.974   6.601
 5454POPC   C3B70377  25.692  17.997   6.946
 5454POPC   C4B70378  25.458  18.171   7.230
 5455POPC   NC370379  15.433  23.911   5.326
 5455POPC   PO470380  15.545  23.310   5.683
 5455POPC   GL170381  15.373  23.556   6.026
 5455POPC   GL270382  15.177  23.849   5.887
 5455POPC   C1A70383  15.431  23.812   6.407
 5455POPC   D2A70384  15.463  23.936   6.857
 5455POPC   C3A70385  15.383  23.609   7.184
 5455POPC   C4A70386  15.031  23.603   7.517
 5455POPC   C1B70387  14.984  24.044   6.250
 5455POPC   C2B70388  14.960  23.892   6.674
 5455POPC   C3B70389  14.924  23.895   7.111
 5455POPC   C4B70390  15.244  24.062   7.329
 5456POPC   NC370391   0.226  17.584   5.343
 5456POPC   PO470392   0.781  17.319   5.656
 5456POPC   GL170393   0.617  17.608   5.895
 5456POPC   GL270394   0.294  17.542   5.841
 5456POPC   C1A70395   0.592  17.806   6.281
 5456POPC   D2A70396   0.759  17.996   6.650
 5456POPC   C3A70397   0.653  17.698   6.956
 5456POPC   C4A70398   0.637  17.690   7.364
 5456POPC   C1B70399   0.185  17.411   6.216
 5456POPC   C2B70400   0.369  17.407   6.623
 5456POPC   C3B70401   0.102  17.639   6.878
 5456POPC   C4B70402  44.929  17.567   7.275
 5457POPC   NC370403  16.475  24.698   5.203
 5457POPC   PO470404  16.885  24.264   5.324
 5457POPC   GL170405  16.927  24.306   5.763
 5457POPC   GL270406  16.743  24.605   5.781
 5457POPC   C1A70407  16.884  24.349   6.215
 5457POPC   D2A70408  17.077  24.149   6.577
 5457POPC   C3A70409  16.792  24.245   6.907
 5457POPC   C4A70410  16.778  24.357   7.319
 5457POPC   C1B70411  16.566  24.849   6.133
 5457POPC   C2B70412  16.443  24.950   6.550
 5457POPC   C3B70413  16.697  24.782   6.869
 5457POPC   C4B70414  16.783  24.879   7.255
 5458POPC   NC370415   6.700  28.690   5.264
 5458POPC   PO470416   7.054  29.197   5.583
 5458POPC   GL170417   6.639  29.234   5.718
 5458POPC   GL270418   6.484  28.903   5.707
 5458POPC   C1A70419   6.592  29.217   6.147
 5458POPC   D2A70420   6.820  29.111   6.539
 5458POPC   C3A70421   6.605  29.271   6.913
 5458POPC   C4A70422   6.849  29.256   7.245
 5458POPC   C1B70423   6.280  28.831   6.109
 5458POPC   C2B70424   6.315  29.069   6.537
 5458POPC   C3B70425   6.324  28.845   6.946
 5458POPC   C4B70426   6.569  28.822   7.365
 5459POPC   NC370427  28.532  12.068   4.769
 5459POPC   PO470428  28.416  12.027   5.323
 5459POPC   GL170429  28.494  11.870   5.766
 5459POPC   GL270430  28.831  11.933   5.882
 5459POPC   C1A70431  28.427  11.807   6.226
 5459POPC   D2A70432  28.514  11.916   6.675
 5459POPC   C3A70433  28.147  12.076   6.955
 5459POPC   C4A70434  27.841  11.949   7.310
 5459POPC   C1B70435  28.712  12.237   6.226
 5459POPC   C2B70436  28.639  12.410   6.649
 5459POPC   C3B70437  28.627  12.252   7.074
 5459POPC   C4B70438  28.381  12.053   7.412
 5460POPC   NC370439  34.973  43.026   5.465
 5460POPC   PO470440  34.342  43.192   5.176
 5460POPC   GL170441  34.385  42.999   5.576
 5460POPC   GL270442  34.581  43.251   5.701
 5460POPC   C1A70443  34.372  42.891   6.050
 5460POPC   D2A70444  34.158  42.738   6.450
 5460POPC   C3A70445  34.298  42.975   6.840
 5460POPC   C4A70446  34.522  42.911   7.258
 5460POPC   C1B70447  34.538  43.374   6.118
 5460POPC   C2B70448  34.667  43.259   6.513
 5460POPC   C3B70449  34.679  43.409   6.915
 5460POPC   C4B70450  34.767  43.360   7.358
 5461POPC   NC370451  44.893  10.325   5.344
 5461POPC   PO470452  44.493   9.762   5.518
 5461POPC   GL170453  44.645   9.869   5.936
 5461POPC   GL270454  44.950   9.743   5.954
 5461POPC   C1A70455  44.497   9.713   6.358
 5461POPC   D2A70456  44.532   9.505   6.787
 5461POPC   C3A70457  44.471   9.702   7.219
 5461POPC   C4A70458  44.448  10.025   7.590
 5461POPC   C1B70459  44.991   9.901   6.329
 5461POPC   C2B70460   0.050   9.699   6.677
 5461POPC   C3B70461  44.967   9.592   7.065
 5461POPC   C4B70462  44.895   9.920   7.384
 5462POPC   NC370463  38.954  41.779   5.423
 5462POPC   PO470464  39.416  41.295   5.460
 5462POPC   GL170465  39.126  41.416   5.755
 5462POPC   GL270466  39.316  41.709   5.811
 5462POPC   C1A70467  39.002  41.577   6.174
 5462POPC   D2A70468  39.172  41.737   6.564
 5462POPC   C3A70469  39.038  41.562   6.970
 5462POPC   C4A70470  39.027  41.615   7.427
 5462POPC   C1B70471  39.615  41.878   6.138
 5462POPC   C2B70472  39.605  42.027   6.572
 5462POPC   C3B70473  39.465  41.939   6.998
 5462POPC   C4B70474  39.494  41.565   7.229
 5463POPC   NC370475   0.234   6.186   5.372
 5463POPC   PO470476  44.946   5.597   5.285
 5463POPC   GL170477   0.199   5.737   5.728
 5463POPC   GL270478   0.317   6.081   5.863
 5463POPC   C1A70479   0.471   5.708   6.164
 5463POPC   D2A70480   0.791   5.774   6.513
 5463POPC   C3A70481   0.660   5.860   6.957
 5463POPC   C4A70482   0.379   5.688   7.243
 5463POPC   C1B70483   0.159   6.104   6.297
 5463POPC   C2B70484   0.157   5.902   6.731
 5463POPC   C3B70485   0.202   6.146   7.142
 5463POPC   C4B70486   0.184   6.230   7.638
 5464POPC   NC370487  36.495  13.648   4.988
 5464POPC   PO470488  35.852  13.555   5.281
 5464POPC   GL170489  35.786  13.566   5.733
 5464POPC   GL270490  35.892  13.903   5.817
 5464POPC   C1A70491  35.872  13.388   6.143
 5464POPC   D2A70492  36.019  13.444   6.589
 5464POPC   C3A70493  35.890  13.672   6.943
 5464POPC   C4A70494  36.000  13.591   7.372
 5464POPC   C1B70495  36.125  13.839   6.245
 5464POPC   C2B70496  36.262  14.022   6.672
 5464POPC   C3B70497  36.293  13.948   7.119
 5464POPC   C4B70498  36.437  13.944   7.539
 5465POPC   NC370499   9.098  32.342   5.445
 5465POPC   PO470500   8.548  32.074   5.139
 5465POPC   GL170501   8.716  32.084   5.635
 5465POPC   GL270502   8.817  31.888   5.857
 5465POPC   C1A70503   8.891  32.328   6.087
 5465POPC   D2A70504   8.852  32.437   6.555
 5465POPC   C3A70505   9.087  32.212   6.910
 5465POPC   C4A70506   9.171  32.333   7.332
 5465POPC   C1B70507   8.628  31.903   6.259
 5465POPC   C2B70508   8.688  31.953   6.706
 5465POPC   C3B70509   8.686  32.009   7.173
 5465POPC   C4B70510   8.925  31.926   7.574
 5466POPC   NC370511  40.892   5.341   5.459
 5466POPC   PO470512  40.518   4.902   5.640
 5466POPC   GL170513  40.876   5.040   5.911
 5466POPC   GL270514  40.957   5.437   5.940
 5466POPC   C1A70515  40.948   4.779   6.295
 5466POPC   D2A70516  41.206   4.847   6.672
 5466POPC   C3A70517  41.052   4.943   7.073
 5466POPC   C4A70518  40.895   5.298   7.235
 5466POPC   C1B70519  40.750   5.418   6.326
 5466POPC   C2B70520  40.659   5.073   6.617
 5466POPC   C3B70521  40.546   4.903   6.991
 5466POPC   C4B70522  40.494   4.984   7.380
 5467POPC   NC370523  42.575   2.755   5.328
 5467POPC   PO470524  41.947   2.477   5.376
 5467POPC   GL170525  42.199   2.810   5.696
 5467POPC   GL270526  42.537   3.041   5.750
 5467POPC   C1A70527  42.259   2.864   6.140
 5467POPC   D2A70528  42.209   2.994   6.559
 5467POPC   C3A70529  42.302   2.685   6.869
 5467POPC   C4A70530  42.452   2.633   7.279
 5467POPC   C1B70531  42.675   3.165   6.201
 5467POPC   C2B70532  42.712   3.190   6.663
 5467POPC   C3B70533  42.564   3.084   7.036
 5467POPC   C4B70534  42.178   3.073   7.225
 5468POPC   NC370535  30.312  24.876   5.109
 5468POPC   PO470536  30.735  24.338   5.180
 5468POPC   GL170537  30.761  24.430   5.649
 5468POPC   GL270538  31.020  24.695   5.747
 5468POPC   C1A70539  30.617  24.402   6.089
 5468POPC   D2A70540  30.388  24.522   6.455
 5468POPC   C3A70541  30.600  24.524   6.834
 5468POPC   C4A70542  30.499  24.710   7.194
 5468POPC   C1B70543  30.857  24.846   6.163
 5468POPC   C2B70544  31.046  24.851   6.590
 5468POPC   C3B70545  30.961  24.888   7.035
 5468POPC   C4B70546  30.902  24.848   7.492
 5469POPC   NC370547  17.463  11.578   5.234
 5469POPC   PO470548  17.206  10.970   5.343
 5469POPC   GL170549  17.333  11.290   5.691
 5469POPC   GL270550  17.063  11.423   5.823
 5469POPC   C1A70551  17.465  11.423   6.164
 5469POPC   D2A70552  17.497  11.252   6.620
 5469POPC   C3A70553  17.527  11.456   7.024
 5469POPC   C4A70554  17.951  11.485   7.240
 5469POPC   C1B70555  17.104  11.085   6.156
 5469POPC   C2B70556  17.079  10.975   6.614
 5469POPC   C3B70557  17.263  10.997   7.056
 5469POPC   C4B70558  17.227  11.017   7.535
 5470POPC   NC370559   0.613   7.902   5.383
 5470POPC   PO470560   0.445   7.244   5.307
 5470POPC   GL170561   0.275   7.286   5.733
 5470POPC   GL270562   0.107   7.600   5.829
 5470POPC   C1A70563   0.259   7.189   6.182
 5470POPC   D2A70564   0.641   7.294   6.427
 5470POPC   C3A70565   0.623   7.450   6.856
 5470POPC   C4A70566   0.385   7.385   7.228
 5470POPC   C1B70567   0.463   7.667   6.085
 5470POPC   C2B70568   0.516   7.831   6.502
 5470POPC   C3B70569   0.291   7.846   6.899
 5470POPC   C4B70570   0.177   7.822   7.327
 5471POPC   NC370571  44.118   7.287   5.333
 5471POPC   PO470572  43.706   7.784   5.306
 5471POPC   GL170573  43.939   7.637   5.692
 5471POPC   GL270574  43.840   7.306   5.780
 5471POPC   C1A70575  44.175   7.627   6.106
 5471POPC   D2A70576  44.077   7.643   6.564
 5471POPC   C3A70577  43.731   7.453   6.794
 5471POPC   C4A70578  43.736   7.356   7.236
 5471POPC   C1B70579  44.137   7.113   6.089
 5471POPC   C2B70580  44.055   7.067   6.547
 5471POPC   C3B70581  44.185   7.221   6.970
 5471POPC   C4B70582  44.216   7.208   7.431
 5472POPC   NC370583  18.911  10.104   5.045
 5472POPC   PO470584  19.465   9.788   5.219
 5472POPC   GL170585  19.021   9.815   5.513
 5472POPC   GL270586  18.832   9.494   5.684
 5472POPC   C1A70587  18.869   9.896   5.973
 5472POPC   D2A70588  18.794   9.919   6.438
 5472POPC   C3A70589  19.029   9.787   6.827
 5472POPC   C4A70590  19.244  10.089   7.117
 5472POPC   C1B70591  18.667   9.414   6.158
 5472POPC   C2B70592  18.663   9.468   6.646
 5472POPC   C3B70593  18.811   9.322   7.085
 5472POPC   C4B70594  18.852   9.407   7.593
 5473POPC   NC370595  40.918  28.691   5.076
 5473POPC   PO470596  40.750  28.122   5.403
 5473POPC   GL170597  40.734  28.215   5.826
 5473POPC   GL270598  40.877  28.541   5.791
 5473POPC   C1A70599  40.749  28.201   6.278
 5473POPC   D2A70600  40.484  28.165   6.653
 5473POPC   C3A70601  40.703  28.169   7.073
 5473POPC   C4A70602  40.748  28.216   7.504
 5473POPC   C1B70603  40.696  28.732   6.111
 5473POPC   C2B70604  40.672  28.664   6.536
 5473POPC   C3B70605  40.794  28.636   6.940
 5473POPC   C4B70606  40.870  28.687   7.367
 5474POPC   NC370607  43.372  34.879   5.445
 5474POPC   PO470608  42.772  34.572   5.424
 5474POPC   GL170609  42.908  34.387   5.808
 5474POPC   GL270610  43.250  34.462   5.771
 5474POPC   C1A70611  42.852  34.482   6.234
 5474POPC   D2A70612  43.133  34.572   6.584
 5474POPC   C3A70613  42.911  34.518   6.970
 5474POPC   C4A70614  43.005  34.463   7.396
 5474POPC   C1B70615  43.308  34.218   6.161
 5474POPC   C2B70616  43.314  34.081   6.609
 5474POPC   C3B70617  43.270  34.157   7.080
 5474POPC   C4B70618  43.471  34.134   7.503
 5475POPC   NC370619  21.285  34.640   5.290
 5475POPC   PO470620  20.778  35.040   5.413
 5475POPC   GL170621  21.143  34.878   5.707
 5475POPC   GL270622  21.542  34.805   5.711
 5475POPC   C1A70623  21.221  34.617   6.071
 5475POPC   D2A70624  21.164  34.357   6.410
 5475POPC   C3A70625  21.099  34.536   6.835
 5475POPC   C4A70626  21.136  34.351   7.241
 5475POPC   C1B70627  21.706  34.759   6.147
 5475POPC   C2B70628  21.659  34.433   6.461
 5475POPC   C3B70629  21.802  34.427   6.860
 5475POPC   C4B70630  21.545  34.700   7.107
 5476POPC   NC370631  35.996  16.324   5.416
 5476POPC   PO470632  36.265  15.685   5.369
 5476POPC   GL170633  36.101  15.902   5.776
 5476POPC   GL270634  35.957  16.245   5.909
 5476POPC   C1A70635  36.289  15.979   6.210
 5476POPC   D2A70636  36.435  15.732   6.560
 5476POPC   C3A70637  36.245  15.660   6.944
 5476POPC   C4A70638  36.164  15.976   7.237
 5476POPC   C1B70639  35.778  15.955   6.200
 5476POPC   C2B70640  35.921  15.915   6.619
 5476POPC   C3B70641  35.753  16.084   6.975
 5476POPC   C4B70642  35.797  16.303   7.370
 5477POPC   NC370643  14.114  43.918   5.379
 5477POPC   PO470644  14.662  43.593   5.586
 5477POPC   GL170645  14.329  43.790   5.844
 5477POPC   GL270646  14.375  44.093   5.793
 5477POPC   C1A70647  14.188  43.795   6.267
 5477POPC   D2A70648  14.418  43.616   6.625
 5477POPC   C3A70649  14.349  43.789   6.996
 5477POPC   C4A70650  14.111  43.709   7.341
 5477POPC   C1B70651  14.414  44.231   6.201
 5477POPC   C2B70652  14.264  44.220   6.593
 5477POPC   C3B70653  14.442  44.283   6.968
 5477POPC   C4B70654  14.173  44.209   7.254
 5478POPC   NC370655  13.336   0.387   5.259
 5478POPC   PO470656  13.692   0.898   5.096
 5478POPC   GL170657  13.715   0.619   5.576
 5478POPC   GL270658  13.490   0.616   5.735
 5478POPC   C1A70659  13.757   0.346   6.020
 5478POPC   D2A70660  13.623   0.332   6.428
 5478POPC   C3A70661  13.922   0.405   6.724
 5478POPC   C4A70662  13.928   0.440   7.126
 5478POPC   C1B70663  13.303   0.814   6.081
 5478POPC   C2B70664  13.269   0.689   6.477
 5478POPC   C3B70665  13.501   0.701   6.844
 5478POPC   C4B70666  13.399   0.526   7.208
 5479POPC   NC370667  30.544   8.022   5.617
 5479POPC   PO470668  31.089   8.169   5.347
 5479POPC   GL170669  31.030   8.137   5.836
 5479POPC   GL270670  30.757   7.950   6.062
 5479POPC   C1A70671  31.075   8.236   6.296
 5479POPC   D2A70672  30.848   8.323   6.682
 5479POPC   C3A70673  31.032   8.335   7.099
 5479POPC   C4A70674  30.881   8.436   7.520
 5479POPC   C1B70675  30.517   8.307   6.232
 5479POPC   C2B70676  30.299   8.331   6.617
 5479POPC   C3B70677  30.450   8.436   7.023
 5479POPC   C4B70678  30.597   8.096   7.246
 5480POPC   NC370679  32.053   9.143   5.268
 5480POPC   PO470680  32.593   8.792   5.368
 5480POPC   GL170681  32.382   9.028   5.728
 5480POPC   GL270682  31.997   9.007   5.769
 5480POPC   C1A70683  32.369   9.043   6.193
 5480POPC   D2A70684  32.409   8.869   6.614
 5480POPC   C3A70685  32.385   9.078   7.017
 5480POPC   C4A70686  32.125   8.765   7.201
 5480POPC   C1B70687  31.823   8.927   6.193
 5480POPC   C2B70688  31.895   8.984   6.654
 5480POPC   C3B70689  31.723   9.094   7.055
 5480POPC   C4B70690  31.958   9.256   7.385
 5481POPC   NC370691   9.105  30.412   5.264
 5481POPC   PO470692   9.009  30.992   5.533
 5481POPC   GL170693   9.105  30.710   5.834
 5481POPC   GL270694   8.853  30.479   5.777
 5481POPC   C1A70695   9.112  30.756   6.287
 5481POPC   D2A70696   9.072  30.593   6.701
 5481POPC   C3A70697   9.151  30.927   7.019
 5481POPC   C4A70698   9.488  30.927   7.349
 5481POPC   C1B70699   8.637  30.576   6.155
 5481POPC   C2B70700   8.544  30.746   6.560
 5481POPC   C3B70701   8.569  30.543   6.960
 5481POPC   C4B70702   8.757  30.463   7.336
 5482POPC   NC370703  37.399  18.153   5.314
 5482POPC   PO470704  37.888  18.487   5.406
 5482POPC   GL170705  37.704  18.188   5.730
 5482POPC   GL270706  37.517  18.435   5.906
 5482POPC   C1A70707  37.601  17.968   6.144
 5482POPC   D2A70708  37.529  17.956   6.597
 5482POPC   C3A70709  37.794  18.249   6.850
 5482POPC   C4A70710  37.980  18.225   7.269
 5482POPC   C1B70711  37.226  18.332   6.231
 5482POPC   C2B70712  37.216  18.408   6.641
 5482POPC   C3B70713  37.267  18.205   6.981
 5482POPC   C4B70714  37.485  18.150   7.336
 5483POPC   NC370715  33.601   9.253   5.279
 5483POPC   PO470716  34.222   9.185   5.543
 5483POPC   GL170717  34.041   8.948   5.845
 5483POPC   GL270718  33.699   8.828   5.754
 5483POPC   C1A70719  33.943   9.081   6.216
 5483POPC   D2A70720  33.694   8.950   6.511
 5483POPC   C3A70721  33.852   8.924   6.882
 5483POPC   C4A70722  33.767   8.958   7.277
 5483POPC   C1B70723  33.731   8.579   6.146
 5483POPC   C2B70724  33.547   8.469   6.569
 5483POPC   C3B70725  33.373   8.739   6.867
 5483POPC   C4B70726  33.363   8.642   7.268
 5484POPC   NC370727  13.869  17.001   5.466
 5484POPC   PO470728  13.479  17.599   5.460
 5484POPC   GL170729  13.693  17.617   5.779
 5484POPC   GL270730  13.570  17.249   5.836
 5484POPC   C1A70731  13.526  17.753   6.146
 5484POPC   D2A70732  13.403  17.503   6.501
 5484POPC   C3A70733  13.455  17.687   6.901
 5484POPC   C4A70734  13.545  17.646   7.332
 5484POPC   C1B70735  13.507  17.066   6.240
 5484POPC   C2B70736  13.402  16.995   6.670
 5484POPC   C3B70737  13.364  17.182   7.104
 5484POPC   C4B70738  13.594  17.175   7.506
 5485POPC   NC370739  31.929  38.707   5.360
 5485POPC   PO470740  32.528  38.332   5.370
 5485POPC   GL170741  32.246  38.467   5.714
 5485POPC   GL270742  31.920  38.302   5.702
 5485POPC   C1A70743  32.250  38.285   6.140
 5485POPC   D2A70744  32.440  38.392   6.535
 5485POPC   C3A70745  32.376  38.652   6.913
 5485POPC   C4A70746  32.443  38.532   7.363
 5485POPC   C1B70747  31.749  38.358   6.108
 5485POPC   C2B70748  31.880  38.413   6.511
 5485POPC   C3B70749  32.011  38.282   6.894
 5485POPC   C4B70750  31.948  38.538   7.259
 5486POPC   NC370751  27.383  37.404   5.466
 5486POPC   PO470752  26.681  37.634   5.321
 5486POPC   GL170753  26.854  37.863   5.689
 5486POPC   GL270754  26.554  37.941   5.891
 5486POPC   C1A70755  27.099  37.710   6.056
 5486POPC   D2A70756  27.101  37.404   6.431
 5486POPC   C3A70757  26.903  37.533   6.820
 5486POPC   C4A70758  26.953  37.464   7.253
 5486POPC   C1B70759  26.732  37.915   6.339
 5486POPC   C2B70760  27.024  38.032   6.671
 5486POPC   C3B70761  27.000  37.978   7.108
 5486POPC   C4B70762  26.813  37.872   7.499
 5487POPC   NC370763  31.060   9.202   5.369
 5487POPC   PO470764  31.637   8.955   5.346
 5487POPC   GL170765  31.466   8.893   5.766
 5487POPC   GL270766  31.121   8.932   5.831
 5487POPC   C1A70767  31.411   8.594   6.122
 5487POPC   D2A70768  31.578   8.613   6.545
 5487POPC   C3A70769  31.344   8.708   6.938
 5487POPC   C4A70770  31.199   8.802   7.382
 5487POPC   C1B70771  31.276   9.069   6.241
 5487POPC   C2B70772  31.365   9.136   6.672
 5487POPC   C3B70773  31.179   9.209   7.081
 5487POPC   C4B70774  31.071   9.600   7.319
 5488POPC   NC370775   7.458  18.816   5.344
 5488POPC   PO470776   7.564  18.189   5.377
 5488POPC   GL170777   7.745  18.341   5.773
 5488POPC   GL270778   7.769  18.704   5.760
 5488POPC   C1A70779   7.762  18.248   6.224
 5488POPC   D2A70780   7.482  18.329   6.562
 5488POPC   C3A70781   7.617  18.303   6.973
 5488POPC   C4A70782   7.370  18.268   7.320
 5488POPC   C1B70783   7.463  18.642   6.104
 5488POPC   C2B70784   7.236  18.768   6.480
 5488POPC   C3B70785   7.239  18.664   6.911
 5488POPC   C4B70786   7.064  18.674   7.313
 5489POPC   NC370787  34.125  28.547   5.006
 5489POPC   PO470788  33.669  28.330   5.462
 5489POPC   GL170789  33.908  28.400   5.810
 5489POPC   GL270790  33.610  28.502   5.956
 5489POPC   C1A70791  34.045  28.590   6.203
 5489POPC   D2A70792  33.865  28.546   6.574
 5489POPC   C3A70793  34.052  28.439   6.950
 5489POPC   C4A70794  33.832  28.581   7.294
 5489POPC   C1B70795  33.771  28.143   6.239
 5489POPC   C2B70796  33.840  28.026   6.701
 5489POPC   C3B70797  33.576  28.148   7.087
 5489POPC   C4B70798  33.557  28.181   7.552
 5490POPC   NC370799   2.183   5.960   5.348
 5490POPC   PO470800   1.533   5.771   5.206
 5490POPC   GL170801   1.666   5.993   5.662
 5490POPC   GL270802   2.002   6.142   5.771
 5490POPC   C1A70803   1.691   6.147   6.156
 5490POPC   D2A70804   1.923   6.211   6.573
 5490POPC   C3A70805   1.843   5.918   6.924
 5490POPC   C4A70806   1.826   5.798   7.378
 5490POPC   C1B70807   2.245   6.200   6.149
 5490POPC   C2B70808   2.457   6.075   6.545
 5490POPC   C3B70809   2.312   6.119   6.974
 5490POPC   C4B70810   2.443   6.216   7.371
 5491POPC   NC370811   8.942  14.808   5.432
 5491POPC   PO470812   9.369  14.249   5.454
 5491POPC   GL170813   9.277  14.527   5.820
 5491POPC   GL270814   8.910  14.645   5.898
 5491POPC   C1A70815   9.170  14.427   6.257
 5491POPC   D2A70816   9.018  14.060   6.472
 5491POPC   C3A70817   8.916  14.184   6.894
 5491POPC   C4A70818   8.922  14.228   7.347
 5491POPC   C1B70819   8.983  14.891   6.302
 5491POPC   C2B70820   9.050  14.674   6.717
 5491POPC   C3B70821   8.828  14.665   7.118
 5491POPC   C4B70822   8.777  14.629   7.632
 5492POPC   NC370823  35.171  35.779   5.525
 5492POPC   PO470824  35.335  36.377   5.240
 5492POPC   GL170825  35.371  36.267   5.687
 5492POPC   GL270826  35.082  36.426   5.828
 5492POPC   C1A70827  35.580  36.301   6.129
 5492POPC   D2A70828  35.408  36.430   6.551
 5492POPC   C3A70829  35.393  36.230   6.958
 5492POPC   C4A70830  35.297  36.050   7.381
 5492POPC   C1B70831  35.133  36.040   6.115
 5492POPC   C2B70832  35.066  36.027   6.545
 5492POPC   C3B70833  34.929  36.337   6.801
 5492POPC   C4B70834  34.849  36.282   7.219
 5493POPC   NC370835  39.052  32.629   5.538
 5493POPC   PO470836  39.369  32.043   5.473
 5493POPC   GL170837  39.188  32.223   5.804
 5493POPC   GL270838  39.414  32.499   5.898
 5493POPC   C1A70839  39.055  32.141   6.188
 5493POPC   D2A70840  39.217  32.097   6.573
 5493POPC   C3A70841  38.966  32.270   6.910
 5493POPC   C4A70842  38.999  32.170   7.350
 5493POPC   C1B70843  39.243  32.607   6.324
 5493POPC   C2B70844  39.392  32.539   6.760
 5493POPC   C3B70845  39.431  32.375   7.181
 5493POPC   C4B70846  39.440  32.608   7.620
 5494POPC   NC370847  27.004  39.513   5.494
 5494POPC   PO470848  27.172  38.820   5.549
 5494POPC   GL170849  26.839  39.026   5.835
 5494POPC   GL270850  26.714  39.391   5.887
 5494POPC   C1A70851  26.694  39.080   6.277
 5494POPC   D2A70852  26.794  38.887   6.630
 5494POPC   C3A70853  26.701  39.054   7.012
 5494POPC   C4A70854  26.530  38.870   7.401
 5494POPC   C1B70855  27.003  39.481   6.211
 5494POPC   C2B70856  26.944  39.403   6.642
 5494POPC   C3B70857  27.024  39.518   7.054
 5494POPC   C4B70858  26.888  39.287   7.416
 5495POPC   NC370859  24.467  25.738   5.415
 5495POPC   PO470860  24.346  25.084   5.069
 5495POPC   GL170861  24.450  25.198   5.547
 5495POPC   GL270862  24.285  24.938   5.763
 5495POPC   C1A70863  24.672  25.202   5.978
 5495POPC   D2A70864  24.569  25.208   6.448
 5495POPC   C3A70865  24.759  25.315   6.858
 5495POPC   C4A70866  24.583  25.498   7.217
 5495POPC   C1B70867  24.186  25.272   6.085
 5495POPC   C2B70868  24.047  25.263   6.490
 5495POPC   C3B70869  24.240  25.328   6.858
 5495POPC   C4B70870  24.360  25.027   7.126
 5496POPC   NC370871   7.829  26.257   5.479
 5496POPC   PO470872   8.446  25.975   5.560
 5496POPC   GL170873   8.210  26.125   5.896
 5496POPC   GL270874   7.908  25.940   5.902
 5496POPC   C1A70875   8.267  25.985   6.330
 5496POPC   D2A70876   8.481  25.940   6.713
 5496POPC   C3A70877   8.302  26.180   7.091
 5496POPC   C4A70878   8.190  26.048   7.490
 5496POPC   C1B70879   7.778  26.086   6.335
 5496POPC   C2B70880   7.956  26.046   6.753
 5496POPC   C3B70881   7.804  25.934   7.167
 5496POPC   C4B70882   7.387  25.977   7.418
 5497POPC   NC370883   3.863  39.491   5.101
 5497POPC   PO470884   4.405  39.391   5.506
 5497POPC   GL170885   4.298  39.531   5.904
 5497POPC   GL270886   4.517  39.292   6.015
 5497POPC   C1A70887   4.023  39.379   6.259
 5497POPC   D2A70888   4.018  39.110   6.654
 5497POPC   C3A70889   4.166  39.253   7.080
 5497POPC   C4A70890   4.508  39.540   7.042
 5497POPC   C1B70891   4.480  39.316   6.454
 5497POPC   C2B70892   4.499  39.001   6.773
 5497POPC   C3B70893   4.655  39.049   7.167
 5497POPC   C4B70894   4.569  39.083   7.595
 5498POPC   NC370895  23.381  21.809   5.557
 5498POPC   PO470896  23.856  22.256   5.492
 5498POPC   GL170897  23.550  22.262   5.798
 5498POPC   GL270898  23.736  21.978   5.920
 5498POPC   C1A70899  23.594  22.365   6.235
 5498POPC   D2A70900  23.915  22.103   6.461
 5498POPC   C3A70901  23.886  22.123   6.910
 5498POPC   C4A70902  23.577  22.271   7.209
 5498POPC   C1B70903  23.466  21.869   6.239
 5498POPC   C2B70904  23.417  22.049   6.654
 5498POPC   C3B70905  23.351  21.807   7.008
 5498POPC   C4B70906  23.329  21.655   7.405
 5499POPC   NC370907  27.784   6.295   5.437
 5499POPC   PO470908  27.214   5.885   5.457
 5499POPC   GL170909  27.405   5.892   5.865
 5499POPC   GL270910  27.748   5.971   5.921
 5499POPC   C1A70911  27.460   5.889   6.333
 5499POPC   D2A70912  27.818   6.072   6.552
 5499POPC   C3A70913  27.883   5.845   6.928
 5499POPC   C4A70914  27.547   5.861   7.225
 5499POPC   C1B70915  27.565   6.350   6.102
 5499POPC   C2B70916  27.389   6.394   6.513
 5499POPC   C3B70917  27.547   6.375   6.914
 5499POPC   C4B70918  27.365   6.303   7.349
 5500POPC   NC370919  19.348  36.197   5.167
 5500POPC   PO470920  18.997  35.713   5.447
 5500POPC   GL170921  19.215  36.076   5.675
 5500POPC   GL270922  18.961  36.319   5.783
 5500POPC   C1A70923  19.334  36.156   6.138
 5500POPC   D2A70924  19.142  36.004   6.556
 5500POPC   C3A70925  19.205  36.114   7.000
 5500POPC   C4A70926  18.863  36.041   7.358
 5500POPC   C1B70927  18.814  36.237   6.204
 5500POPC   C2B70928  18.635  36.152   6.596
 5500POPC   C3B70929  18.737  36.337   6.967
 5500POPC   C4B70930  19.015  36.507   7.270
 5501POPC   NC370931  41.102  10.131   5.456
 5501POPC   PO470932  41.734  10.447   5.344
 5501POPC   GL170933  41.779  10.326   5.799
 5501POPC   GL270934  41.492  10.163   5.789
 5501POPC   C1A70935  41.888  10.482   6.196
 5501POPC   D2A70936  41.663  10.597   6.546
 5501POPC   C3A70937  41.553  10.542   6.973
 5501POPC   C4A70938  41.621  10.700   7.372
 5501POPC   C1B70939  41.438  10.225   6.219
 5501POPC   C2B70940  41.436  10.060   6.641
 5501POPC   C3B70941  41.191  10.170   7.004
 5501POPC   C4B70942  41.069  10.544   7.256
 5502POPC   NC370943  26.300  28.564   5.131
 5502POPC   PO470944  25.740  28.256   5.174
 5502POPC   GL170945  25.994  28.198   5.575
 5502POPC   GL270946  26.300  28.368   5.678
 5502POPC   C1A70947  25.912  28.262   6.046
 5502POPC   D2A70948  25.582  28.461   6.325
 5502POPC   C3A70949  25.673  28.476   6.774
 5502POPC   C4A70950  25.772  28.325   7.174
 5502POPC   C1B70951  26.350  28.557   6.107
 5502POPC   C2B70952  26.090  28.540   6.473
 5502POPC   C3B70953  26.174  28.522   6.908
 5502POPC   C4B70954  26.336  28.461   7.281
 5503POPC   NC370955  12.858  20.812   5.404
 5503POPC   PO470956  12.880  21.484   5.314
 5503POPC   GL170957  12.748  21.531   5.723
 5503POPC   GL270958  12.647  21.176   5.765
 5503POPC   C1A70959  13.006  21.716   6.051
 5503POPC   D2A70960  13.237  21.718   6.457
 5503POPC   C3A70961  12.999  21.505   6.745
 5503POPC   C4A70962  12.686  21.632   7.022
 5503POPC   C1B70963  12.753  21.232   6.170
 5503POPC   C2B70964  12.919  21.033   6.498
 5503POPC   C3B70965  12.965  21.022   6.917
 5503POPC   C4B70966  12.630  21.137   7.152
 5504POPC   NC370967   4.585  29.799   5.487
 5504POPC   PO470968   3.982  29.801   5.470
 5504POPC   GL170969   4.217  29.738   5.883
 5504POPC   GL270970   4.576  29.809   5.989
 5504POPC   C1A70971   4.221  29.678   6.354
 5504POPC   D2A70972   4.443  29.548   6.755
 5504POPC   C3A70973   4.534  29.776   7.147
 5504POPC   C4A70974   4.406  29.881   7.586
 5504POPC   C1B70975   4.692  29.879   6.415
 5504POPC   C2B70976   4.904  30.035   6.776
 5504POPC   C3B70977   4.816  30.192   7.173
 5504POPC   C4B70978   4.396  30.323   7.311
 5505POPC   NC370979  12.971  42.921   5.522
 5505POPC   PO470980  13.172  42.186   5.354
 5505POPC   GL170981  12.979  42.302   5.749
 5505POPC   GL270982  13.161  42.581   5.834
 5505POPC   C1A70983  12.747  42.368   6.168
 5505POPC   D2A70984  12.774  42.230   6.609
 5505POPC   C3A70985  12.570  42.314   7.017
 5505POPC   C4A70986  12.708  42.331   7.460
 5505POPC   C1B70987  12.966  42.839   6.178
 5505POPC   C2B70988  12.765  42.772   6.588
 5505POPC   C3B70989  12.898  42.686   6.994
 5505POPC   C4B70990  13.131  42.623   7.408
 5506POPC   NC370991  28.540   5.597   5.462
 5506POPC   PO470992  27.916   5.830   5.471
 5506POPC   GL170993  28.214   5.780   5.808
 5506POPC   GL270994  28.456   6.035   5.821
 5506POPC   C1A70995  28.321   5.556   6.175
 5506POPC   D2A70996  28.544   5.545   6.568
 5506POPC   C3A70997  28.286   5.484   6.901
 5506POPC   C4A70998  28.457   5.661   7.239
 5506POPC   C1B70999  28.230   6.064   6.238
 5506POPC   C2B71000  28.400   6.076   6.668
 5506POPC   C3B71001  28.301   6.133   7.093
 5506POPC   C4B71002  27.903   6.274   7.224
 5507POPC   NC371003  31.204   6.791   5.418
 5507POPC   PO471004  31.674   6.303   5.462
 5507POPC   GL171005  31.548   6.619   5.768
 5507POPC   GL271006  31.288   6.342   5.799
 5507POPC   C1A71007  31.310   6.693   6.168
 5507POPC   D2A71008  31.193   6.543   6.559
 5507POPC   C3A71009  31.246   6.731   6.961
 5507POPC   C4A71010  31.290   7.015   7.292
 5507POPC   C1B71011  31.589   6.264   6.129
 5507POPC   C2B71012  31.717   6.385   6.512
 5507POPC   C3B71013  31.518   6.285   6.882
 5507POPC   C4B71014  31.607   6.444   7.246
 5508POPC   NC371015  32.592  34.367   5.610
 5508POPC   PO471016  33.002  34.745   5.152
 5508POPC   GL171017  33.075  34.566   5.636
 5508POPC   GL271018  33.134  34.185   5.622
 5508POPC   C1A71019  33.028  34.620   6.128
 5508POPC   D2A71020  32.815  34.647   6.559
 5508POPC   C3A71021  33.000  34.876   6.942
 5508POPC   C4A71022  33.349  34.737   7.231
 5508POPC   C1B71023  33.024  34.111   6.070
 5508POPC   C2B71024  33.131  34.208   6.459
 5508POPC   C3B71025  33.238  34.457   6.789
 5508POPC   C4B71026  33.051  34.333   7.142
 5509POPC   NC371027  11.058  35.709   5.501
 5509POPC   PO471028  11.330  36.273   5.229
 5509POPC   GL171029  11.196  36.165   5.673
 5509POPC   GL271030  11.064  36.400   5.877
 5509POPC   C1A71031  11.198  35.978   6.111
 5509POPC   D2A71032  11.131  36.244   6.475
 5509POPC   C3A71033  11.164  36.084   6.875
 5509POPC   C4A71034  10.917  36.177   7.251
 5509POPC   C1B71035  11.503  36.372   6.133
 5509POPC   C2B71036  11.672  36.245   6.528
 5509POPC   C3B71037  11.715  36.405   6.950
 5509POPC   C4B71038  11.438  36.300   7.259
 5510POPC   NC371039  15.594   1.484   5.499
 5510POPC   PO471040  15.089   1.106   5.408
 5510POPC   GL171041  15.241   1.184   5.810
 5510POPC   GL271042  15.439   0.912   5.737
 5510POPC   C1A71043  15.081   1.429   6.174
 5510POPC   D2A71044  14.908   1.721   6.483
 5510POPC   C3A71045  14.952   1.499   6.885
 5510POPC   C4A71046  14.745   1.450   7.285
 5510POPC   C1B71047  15.562   0.851   6.178
 5510POPC   C2B71048  15.419   1.024   6.550
 5510POPC   C3B71049  15.502   1.019   6.972
 5510POPC   C4B71050  15.164   1.138   7.246
 5511POPC   NC371051  24.859  13.013   5.058
 5511POPC   PO471052  24.328  12.929   5.480
 5511POPC   GL171053  24.439  12.800   5.884
 5511POPC   GL271054  24.312  13.139   5.953
 5511POPC   C1A71055  24.723  12.859   6.239
 5511POPC   D2A71056  24.570  12.771   6.663
 5511POPC   C3A71057  24.823  12.753   7.047
 5511POPC   C4A71058  24.747  12.655   7.479
 5511POPC   C1B71059  24.266  13.075   6.350
 5511POPC   C2B71060  24.054  13.186   6.682
 5511POPC   C3B71061  24.026  12.790   6.813
 5511POPC   C4B71062  24.332  12.670   7.095
 5512POPC   NC371063  16.918  35.542   5.452
 5512POPC   PO471064  16.343  35.276   5.084
 5512POPC   GL171065  16.427  35.439   5.595
 5512POPC   GL271066  16.553  35.189   5.712
 5512POPC   C1A71067  16.786  35.481   6.056
 5512POPC   D2A71068  16.940  35.305   6.485
 5512POPC   C3A71069  16.885  35.509   6.882
 5512POPC   C4A71070  16.766  35.343   7.276
 5512POPC   C1B71071  16.496  35.080   6.149
 5512POPC   C2B71072  16.566  34.939   6.577
 5512POPC   C3B71073  16.628  34.927   7.015
 5512POPC   C4B71074  16.341  35.054   7.351
 5513POPC   NC371075  41.644  40.465   5.496
 5513POPC   PO471076  41.274  39.906   5.303
 5513POPC   GL171077  41.482  40.030   5.766
 5513POPC   GL271078  41.715  40.296   5.951
 5513POPC   C1A71079  41.349  39.992   6.231
 5513POPC   D2A71080  41.335  40.183   6.662
 5513POPC   C3A71081  41.467  39.976   7.042
 5513POPC   C4A71082  41.645  40.235   7.288
 5513POPC   C1B71083  41.868  40.018   6.250
 5513POPC   C2B71084  41.832  39.951   6.680
 5513POPC   C3B71085  42.067  40.123   7.014
 5513POPC   C4B71086  42.129  40.193   7.444
 5514POPC   NC371087  28.762  18.959   5.386
 5514POPC   PO471088  29.271  19.283   5.473
 5514POPC   GL171089  29.302  19.040   5.826
 5514POPC   GL271090  29.033  18.817   5.839
 5514POPC   C1A71091  29.140  19.113   6.261
 5514POPC   D2A71092  28.811  19.050   6.557
 5514POPC   C3A71093  28.960  18.979   6.949
 5514POPC   C4A71094  29.311  19.166   7.115
 5514POPC   C1B71095  29.292  18.653   6.197
 5514POPC   C2B71096  29.351  18.823   6.646
 5514POPC   C3B71097  29.332  18.648   7.098
 5514POPC   C4B71098  29.462  18.600   7.528
 5515POPC   NC371099  44.094  36.333   5.356
 5515POPC   PO471100  43.460  35.965   5.441
 5515POPC   GL171101  43.833  36.040   5.700
 5515POPC   GL271102  43.919  36.419   5.818
 5515POPC   C1A71103  43.828  35.874   6.105
 5515POPC   D2A71104  43.596  36.081   6.426
 5515POPC   C3A71105  43.554  35.904   6.826
 5515POPC   C4A71106  43.488  36.217   7.137
 5515POPC   C1B71107  44.173  36.259   6.156
 5515POPC   C2B71108  44.101  36.024   6.523
 5515POPC   C3B71109  43.997  36.197   6.904
 5515POPC   C4B71110  44.293  36.229   7.219
 5516POPC   NC371111  32.559  19.625   5.406
 5516POPC   PO471112  31.962  20.007   5.361
 5516POPC   GL171113  32.195  19.811   5.720
 5516POPC   GL271114  32.526  19.989   5.808
 5516POPC   C1A71115  32.333  19.647   6.137
 5516POPC   D2A71116  32.112  19.713   6.511
 5516POPC   C3A71117  32.295  19.810   6.890
 5516POPC   C4A71118  32.175  19.878   7.335
 5516POPC   C1B71119  32.489  20.173   6.254
 5516POPC   C2B71120  32.585  20.310   6.714
 5516POPC   C3B71121  32.604  20.140   7.157
 5516POPC   C4B71122  32.567  20.020   7.599
 5517POPC   NC371123  18.853  31.952   5.478
 5517POPC   PO471124  19.078  32.571   5.519
 5517POPC   GL171125  19.069  32.331   5.874
 5517POPC   GL271126  18.895  32.054   6.000
 5517POPC   C1A71127  19.304  32.332   6.246
 5517POPC   D2A71128  19.481  32.542   6.588
 5517POPC   C3A71129  19.292  32.341   6.912
 5517POPC   C4A71130  19.389  32.154   7.265
 5517POPC   C1B71131  18.805  32.409   6.314
 5517POPC   C2B71132  18.783  32.371   6.768
 5517POPC   C3B71133  18.862  32.366   7.204
 5517POPC   C4B71134  18.768  32.532   7.644
 5518POPC   NC371135  14.618  10.223   5.464
 5518POPC   PO471136  14.268  10.724   5.272
 5518POPC   GL171137  14.399  10.629   5.743
 5518POPC   GL271138  14.691  10.442   5.923
 5518POPC   C1A71139  14.262  10.532   6.212
 5518POPC   D2A71140  14.322  10.322   6.626
 5518POPC   C3A71141  14.386  10.502   7.030
 5518POPC   C4A71142  14.219  10.327   7.369
 5518POPC   C1B71143  14.702  10.781   6.240
 5518POPC   C2B71144  14.533  10.828   6.661
 5518POPC   C3B71145  14.712  10.898   7.089
 5518POPC   C4B71146  14.744  10.595   7.427
 5519POPC   NC371147  18.729   6.997   5.362
 5519POPC   PO471148  19.194   7.416   5.370
 5519POPC   GL171149  19.134   7.340   5.789
 5519POPC   GL271150  18.772   7.346   5.787
 5519POPC   C1A71151  19.194   7.459   6.234
 5519POPC   D2A71152  19.303   7.649   6.642
 5519POPC   C3A71153  19.121   7.482   7.001
 5519POPC   C4A71154  19.275   7.354   7.386
 5519POPC   C1B71155  18.700   7.643   6.160
 5519POPC   C2B71156  18.729   7.684   6.647
 5519POPC   C3B71157  18.661   7.664   7.126
 5519POPC   C4B71158  18.942   7.687   7.506
 5520POPC   NC371159  41.791  19.210   5.583
 5520POPC   PO471160  41.192  19.225   5.428
 5520POPC   GL171161  41.260  19.173   5.886
 5520POPC   GL271162  41.555  18.972   5.956
 5520POPC   C1A71163  41.340  19.147   6.360
 5520POPC   D2A71164  41.708  19.256   6.589
 5520POPC   C3A71165  41.528  19.213   6.986
 5520POPC   C4A71166  41.259  18.932   7.189
 5520POPC   C1B71167  41.757  18.769   6.308
 5520POPC   C2B71168  41.681  18.772   6.753
 5520POPC   C3B71169  41.782  18.793   7.192
 5520POPC   C4B71170  41.742  18.657   7.600
 5521POPC   NC371171  37.243  37.035   5.656
 5521POPC   PO471172  37.832  36.816   5.490
 5521POPC   GL171173  37.677  36.814   5.864
 5521POPC   GL271174  37.394  36.621   5.878
 5521POPC   C1A71175  37.609  36.861   6.279
 5521POPC   D2A71176  37.440  37.048   6.593
 5521POPC   C3A71177  37.655  37.036   6.944
 5521POPC   C4A71178  37.464  37.120   7.293
 5521POPC   C1B71179  37.218  36.559   6.283
 5521POPC   C2B71180  37.412  36.536   6.664
 5521POPC   C3B71181  37.313  36.679   7.050
 5521POPC   C4B71182  37.392  36.628   7.468
 5522POPC   NC371183  40.843   9.554   5.308
 5522POPC   PO471184  40.670  10.232   5.528
 5522POPC   GL171185  40.732   9.848   5.814
 5522POPC   GL271186  41.069   9.845   5.909
 5522POPC   C1A71187  40.695   9.624   6.264
 5522POPC   D2A71188  40.643   9.388   6.692
 5522POPC   C3A71189  40.413   9.584   7.044
 5522POPC   C4A71190  40.570   9.621   7.468
 5522POPC   C1B71191  40.964  10.042   6.315
 5522POPC   C2B71192  40.722   9.917   6.693
 5522POPC   C3B71193  40.874   9.772   7.071
 5522POPC   C4B71194  40.803  10.097   7.372
 5523POPC   NC371195   3.287  37.209   5.421
 5523POPC   PO471196   2.620  36.965   5.279
 5523POPC   GL171197   2.720  37.030   5.689
 5523POPC   GL271198   2.414  37.185   5.759
 5523POPC   C1A71199   2.907  36.824   6.056
 5523POPC   D2A71200   2.819  36.732   6.483
 5523POPC   C3A71201   3.052  36.932   6.817
 5523POPC   C4A71202   2.987  36.704   7.183
 5523POPC   C1B71203   2.432  37.031   6.150
 5523POPC   C2B71204   2.359  36.991   6.564
 5523POPC   C3B71205   2.540  36.843   6.927
 5523POPC   C4B71206   2.459  36.932   7.340
 5524POPC   NC371207   1.881  17.511   5.383
 5524POPC   PO471208   2.537  17.811   5.424
 5524POPC   GL171209   2.199  17.761   5.728
 5524POPC   GL271210   2.162  17.415   5.802
 5524POPC   C1A71211   1.997  17.740   6.152
 5524POPC   D2A71212   1.872  17.927   6.529
 5524POPC   C3A71213   1.907  17.721   6.904
 5524POPC   C4A71214   2.077  17.831   7.299
 5524POPC   C1B71215   2.130  17.222   6.201
 5524POPC   C2B71216   1.973  17.162   6.626
 5524POPC   C3B71217   2.109  17.274   7.066
 5524POPC   C4B71218   2.010  17.337   7.519
 5525POPC   NC371219   8.701  26.255   5.300
 5525POPC   PO471220   8.817  25.616   5.156
 5525POPC   GL171221   8.871  25.728   5.678
 5525POPC   GL271222   8.971  26.090   5.752
 5525POPC   C1A71223   8.734  25.909   6.150
 5525POPC   D2A71224   8.812  26.263   6.491
 5525POPC   C3A71225   8.816  26.188   6.979
 5525POPC   C4A71226   8.631  25.855   7.278
 5525POPC   C1B71227   9.198  26.060   6.204
 5525POPC   C2B71228   9.019  25.825   6.604
 5525POPC   C3B71229   9.071  25.751   7.055
 5525POPC   C4B71230   9.109  26.051   7.414
 5526POPC   NC371231  40.608  35.307   5.224
 5526POPC   PO471232  41.118  35.015   5.582
 5526POPC   GL171233  40.830  35.228   5.936
 5526POPC   GL271234  40.658  35.550   5.929
 5526POPC   C1A71235  40.939  35.333   6.382
 5526POPC   D2A71236  40.833  35.663   6.705
 5526POPC   C3A71237  40.732  35.518   7.119
 5526POPC   C4A71238  40.859  35.076   7.179
 5526POPC   C1B71239  40.461  35.501   6.375
 5526POPC   C2B71240  40.572  35.199   6.745
 5526POPC   C3B71241  40.358  35.102   7.152
 5526POPC   C4B71242  40.379  35.378   7.531
 5527POPC   NC371243  36.005  15.305   5.354
 5527POPC   PO471244  36.163  14.679   5.449
 5527POPC   GL171245  36.146  14.993   5.800
 5527POPC   GL271246  36.293  15.372   5.808
 5527POPC   C1A71247  36.154  15.010   6.253
 5527POPC   D2A71248  36.257  15.260   6.595
 5527POPC   C3A71249  36.020  15.168   6.943
 5527POPC   C4A71250  36.157  14.930   7.226
 5527POPC   C1B71251  36.048  15.515   6.192
 5527POPC   C2B71252  35.781  15.440   6.581
 5527POPC   C3B71253  35.731  15.585   7.009
 5527POPC   C4B71254  35.975  15.511   7.356
 5528POPC   NC371255  25.308  14.690   4.979
 5528POPC   PO471256  25.515  14.190   5.447
 5528POPC   GL171257  25.259  14.364   5.755
 5528POPC   GL271258  25.304  14.060   5.908
 5528POPC   C1A71259  25.268  14.670   6.117
 5528POPC   D2A71260  25.096  14.600   6.535
 5528POPC   C3A71261  25.252  14.687   6.957
 5528POPC   C4A71262  25.155  14.471   7.331
 5528POPC   C1B71263  25.401  14.191   6.322
 5528POPC   C2B71264  25.365  14.215   6.766
 5528POPC   C3B71265  25.542  14.173   7.169
 5528POPC   C4B71266  25.375  13.996   7.545
 5529POPC   NC371267  20.976  38.669   5.458
 5529POPC   PO471268  20.974  38.138   5.203
 5529POPC   GL171269  20.684  38.293   5.619
 5529POPC   GL271270  20.596  38.671   5.787
 5529POPC   C1A71271  20.786  38.323   6.088
 5529POPC   D2A71272  20.600  38.413   6.505
 5529POPC   C3A71273  20.827  38.362   6.887
 5529POPC   C4A71274  20.681  38.403   7.304
 5529POPC   C1B71275  20.700  38.849   6.259
 5529POPC   C2B71276  20.949  38.793   6.663
 5529POPC   C3B71277  20.866  38.835   7.143
 5529POPC   C4B71278  20.705  38.856   7.592
 5530POPC   NC371279  35.765  24.610   5.473
 5530POPC   PO471280  36.243  24.189   5.425
 5530POPC   GL171281  36.138  24.386   5.807
 5530POPC   GL271282  36.352  24.675   5.877
 5530POPC   C1A71283  35.969  24.242   6.216
 5530POPC   D2A71284  36.149  24.170   6.608
 5530POPC   C3A71285  36.027  24.363   6.983
 5530POPC   C4A71286  36.354  24.561   7.249
 5530POPC   C1B71287  35.995  24.758   6.185
 5530POPC   C2B71288  36.008  24.871   6.633
 5530POPC   C3B71289  35.942  24.855   7.095
 5530POPC   C4B71290  35.903  24.584   7.450
 5531POPC   NC371291  14.591  21.011   5.573
 5531POPC   PO471292  14.410  20.510   5.167
 5531POPC   GL171293  14.603  20.573   5.770
 5531POPC   GL271294  14.635  20.284   5.986
 5531POPC   C1A71295  14.436  20.808   6.213
 5531POPC   D2A71296  14.357  20.922   6.694
 5531POPC   C3A71297  14.263  20.720   7.113
 5531POPC   C4A71298  14.206  20.633   7.581
 5531POPC   C1B71299  14.277  20.298   6.249
 5531POPC   C2B71300  14.188  20.432   6.658
 5531POPC   C3B71301  14.296  20.225   7.022
 5531POPC   C4B71302  14.560  20.309   7.385
 5532POPC   NC371303   8.169  11.650   5.377
 5532POPC   PO471304   7.985  12.310   5.384
 5532POPC   GL171305   8.228  12.079   5.709
 5532POPC   GL271306   8.428  11.746   5.823
 5532POPC   C1A71307   8.395  12.225   6.067
 5532POPC   D2A71308   8.520  12.369   6.452
 5532POPC   C3A71309   8.301  12.113   6.725
 5532POPC   C4A71310   8.273  12.220   7.136
 5532POPC   C1B71311   8.058  11.767   6.133
 5532POPC   C2B71312   7.873  11.752   6.591
 5532POPC   C3B71313   8.094  11.731   7.019
 5532POPC   C4B71314   8.554  11.770   7.041
 5533POPC   NC371315  14.661  39.742   5.522
 5533POPC   PO471316  14.184  40.320   5.583
 5533POPC   GL171317  14.347  40.001   5.828
 5533POPC   GL271318  14.702  40.053   5.956
 5533POPC   C1A71319  14.208  39.975   6.226
 5533POPC   D2A71320  14.415  40.232   6.525
 5533POPC   C3A71321  14.160  40.396   6.855
 5533POPC   C4A71322  14.293  40.376   7.286
 5533POPC   C1B71323  14.628  39.678   6.230
 5533POPC   C2B71324  14.402  39.723   6.622
 5533POPC   C3B71325  14.446  39.974   6.999
 5533POPC   C4B71326  14.455  39.854   7.425
 5534POPC   NC371327  42.552  43.102   5.504
 5534POPC   PO471328  42.299  42.528   5.256
 5534POPC   GL171329  42.267  42.733   5.732
 5534POPC   GL271330  42.119  43.069   5.816
 5534POPC   C1A71331  42.491  42.952   6.129
 5534POPC   D2A71332  42.614  43.183   6.521
 5534POPC   C3A71333  42.430  43.062   6.917
 5534POPC   C4A71334  42.641  43.135   7.307
 5534POPC   C1B71335  41.996  43.322   6.164
 5534POPC   C2B71336  42.106  43.447   6.591
 5534POPC   C3B71337  41.914  43.595   7.004
 5534POPC   C4B71338  42.094  43.544   7.442
 5535POPC   NC371339   2.622  17.321   5.505
 5535POPC   PO471340   3.276  17.495   5.395
 5535POPC   GL171341   3.081  17.378   5.761
 5535POPC   GL271342   2.871  17.670   5.796
 5535POPC   C1A71343   3.029  17.449   6.209
 5535POPC   D2A71344   2.829  17.698   6.513
 5535POPC   C3A71345   2.871  17.514   6.885
 5535POPC   C4A71346   2.976  17.686   7.277
 5535POPC   C1B71347   2.523  17.577   6.111
 5535POPC   C2B71348   2.313  17.592   6.531
 5535POPC   C3B71349   2.419  17.722   6.944
 5535POPC   C4B71350   2.505  17.481   7.330
 5536POPC   NC371351  38.661  38.375   5.357
 5536POPC   PO471352  38.028  38.498   5.507
 5536POPC   GL171353  38.401  38.692   5.684
 5536POPC   GL271354  38.475  38.370   5.837
 5536POPC   C1A71355  38.560  38.816   6.096
 5536POPC   D2A71356  38.315  38.558   6.378
 5536POPC   C3A71357  38.313  38.660   6.810
 5536POPC   C4A71358  38.314  38.509   7.222
 5536POPC   C1B71359  38.589  38.016   6.073
 5536POPC   C2B71360  38.547  37.946   6.496
 5536POPC   C3B71361  38.536  38.158   6.900
 5536POPC   C4B71362  38.553  38.054   7.303
 5537POPC   NC371363   2.647  20.536   5.373
 5537POPC   PO471364   3.316  20.359   5.361
 5537POPC   GL171365   3.183  20.429   5.804
 5537POPC   GL271366   2.889  20.650   5.825
 5537POPC   C1A71367   3.138  20.424   6.289
 5537POPC   D2A71368   3.073  20.703   6.678
 5537POPC   C3A71369   2.923  20.675   7.151
 5537POPC   C4A71370   3.176  20.657   7.569
 5537POPC   C1B71371   2.617  20.495   6.153
 5537POPC   C2B71372   2.665  20.369   6.574
 5537POPC   C3B71373   2.428  20.465   6.906
 5537POPC   C4B71374   2.396  20.786   7.210
 5538POPC   NC371375  25.668  41.648   5.468
 5538POPC   PO471376  25.050  41.669   5.420
 5538POPC   GL171377  25.201  41.623   5.793
 5538POPC   GL271378  25.017  41.349   5.885
 5538POPC   C1A71379  25.156  41.910   6.137
 5538POPC   D2A71380  25.333  41.882   6.572
 5538POPC   C3A71381  25.442  41.511   6.789
 5538POPC   C4A71382  25.365  41.461   7.230
 5538POPC   C1B71383  25.182  41.448   6.294
 5538POPC   C2B71384  24.927  41.539   6.597
 5538POPC   C3B71385  24.957  41.331   6.940
 5538POPC   C4B71386  24.809  41.502   7.273
 5539POPC   NC371387  41.137   2.251   5.586
 5539POPC   PO471388  40.638   1.845   5.618
 5539POPC   GL171389  40.726   2.171   5.897
 5539POPC   GL271390  40.488   2.426   5.924
 5539POPC   C1A71391  40.960   2.087   6.261
 5539POPC   D2A71392  40.877   1.972   6.684
 5539POPC   C3A71393  41.161   1.933   7.023
 5539POPC   C4A71394  40.833   1.675   7.125
 5539POPC   C1B71395  40.358   2.416   6.365
 5539POPC   C2B71396  40.418   2.223   6.779
 5539POPC   C3B71397  40.746   2.273   7.077
 5539POPC   C4B71398  40.645   2.416   7.462
 5540POPC   NC371399  14.757   6.029   4.911
 5540POPC   PO471400  14.290   5.934   5.353
 5540POPC   GL171401  14.283   5.887   5.811
 5540POPC   GL271402  14.592   5.713   5.883
 5540POPC   C1A71403  14.152   5.833   6.242
 5540POPC   D2A71404  13.959   5.988   6.617
 5540POPC   C3A71405  14.310   6.012   6.913
 5540POPC   C4A71406  14.310   5.910   7.330
 5540POPC   C1B71407  14.582   6.131   6.123
 5540POPC   C2B71408  14.682   6.127   6.533
 5540POPC   C3B71409  14.796   6.289   6.899
 5540POPC   C4B71410  14.797   6.090   7.264
 5541POPC   NC371411  29.612   1.409   5.363
 5541POPC   PO471412  29.481   0.758   5.627
 5541POPC   GL171413  29.643   1.149   5.782
 5541POPC   GL271414  29.971   1.206   5.642
 5541POPC   C1A71415  29.601   1.432   6.124
 5541POPC   D2A71416  29.775   1.392   6.505
 5541POPC   C3A71417  29.591   1.569   6.836
 5541POPC   C4A71418  29.854   1.626   7.179
 5541POPC   C1B71419  30.092   1.307   6.065
 5541POPC   C2B71420  30.288   1.360   6.488
 5541POPC   C3B71421  30.134   1.286   6.911
 5541POPC   C4B71422  30.095   0.863   7.040
 5542POPC   NC371423  36.625  10.882   5.241
 5542POPC   PO471424  37.251  11.007   5.393
 5542POPC   GL171425  37.013  11.094   5.786
 5542POPC   GL271426  36.625  11.028   5.764
 5542POPC   C1A71427  37.135  11.015   6.221
 5542POPC   D2A71428  37.000  11.072   6.670
 5542POPC   C3A71429  37.166  11.425   6.938
 5542POPC   C4A71430  37.156  11.349   7.380
 5542POPC   C1B71431  36.647  11.230   6.186
 5542POPC   C2B71432  36.477  11.316   6.597
 5542POPC   C3B71433  36.657  11.290   7.011
 5542POPC   C4B71434  36.660  11.519   7.380
 5543POPC   NC371435  37.991   8.798   5.553
 5543POPC   PO471436  38.656   8.922   5.391
 5543POPC   GL171437  38.455   8.735   5.754
 5543POPC   GL271438  38.325   9.040   5.859
 5543POPC   C1A71439  38.291   8.691   6.211
 5543POPC   D2A71440  38.459   8.606   6.620
 5543POPC   C3A71441  38.633   8.815   6.947
 5543POPC   C4A71442  38.581   8.727   7.357
 5543POPC   C1B71443  38.223   9.224   6.260
 5543POPC   C2B71444  38.242   9.070   6.696
 5543POPC   C3B71445  38.167   8.984   7.147
 5543POPC   C4B71446  38.193   9.097   7.584
 5544POPC   NC371447  44.406   8.969   5.598
 5544POPC   PO471448  43.862   9.283   5.344
 5544POPC   GL171449  43.848   9.286   5.832
 5544POPC   GL271450  44.162   9.220   5.990
 5544POPC   C1A71451  43.794   8.991   6.251
 5544POPC   D2A71452  43.926   8.667   6.580
 5544POPC   C3A71453  43.894   8.803   7.037
 5544POPC   C4A71454  43.754   9.052   7.413
 5544POPC   C1B71455  44.019   9.468   6.352
 5544POPC   C2B71456  43.944   9.471   6.791
 5544POPC   C3B71457  44.117   9.328   7.172
 5544POPC   C4B71458  44.240   9.184   7.564
 5545POPC   NC371459  33.524  21.944   5.416
 5545POPC   PO471460  33.934  21.382   5.359
 5545POPC   GL171461  33.758  21.331   5.775
 5545POPC   GL271462  33.646  21.639   5.828
 5545POPC   C1A71463  33.715  21.273   6.225
 5545POPC   D2A71464  33.486  21.191   6.619
 5545POPC   C3A71465  33.762  21.241   6.965
 5545POPC   C4A71466  33.676  21.376   7.376
 5545POPC   C1B71467  33.976  21.743   6.130
 5545POPC   C2B71468  34.104  21.877   6.567
 5545POPC   C3B71469  33.977  21.717   6.988
 5545POPC   C4B71470  34.140  21.596   7.439
 5546POPC   NC371471  10.961  25.222   5.334
 5546POPC   PO471472  10.362  25.444   5.408
 5546POPC   GL171473  10.594  25.185   5.731
 5546POPC   GL271474  10.344  24.927   5.815
 5546POPC   C1A71475  10.704  25.075   6.195
 5546POPC   D2A71476  10.562  24.874   6.620
 5546POPC   C3A71477  10.682  25.129   6.980
 5546POPC   C4A71478  10.859  25.501   7.189
 5546POPC   C1B71479  10.253  25.311   6.098
 5546POPC   C2B71480  10.459  25.502   6.455
 5546POPC   C3B71481  10.446  25.594   6.889
 5546POPC   C4B71482  10.305  25.595   7.311
 5547POPC   NC371483  36.150  35.578   5.494
 5547POPC   PO471484  35.473  35.417   5.401
 5547POPC   GL171485  35.739  35.380   5.804
 5547POPC   GL271486  36.082  35.199   5.838
 5547POPC   C1A71487  35.787  35.373   6.267
 5547POPC   D2A71488  35.945  35.118   6.624
 5547POPC   C3A71489  36.088  35.324   7.027
 5547POPC   C4A71490  36.350  35.190   7.377
 5547POPC   C1B71491  36.268  35.470   6.178
 5547POPC   C2B71492  36.427  35.358   6.609
 5547POPC   C3B71493  36.536  35.562   6.989
 5547POPC   C4B71494  36.765  35.468   7.369
 5548POPC   NC371495  24.646   9.320   5.091
 5548POPC   PO471496  24.278   9.371   5.630
 5548POPC   GL171497  24.449   8.946   5.702
 5548POPC   GL271498  24.185   8.774   5.853
 5548POPC   C1A71499  24.754   8.868   6.067
 5548POPC   D2A71500  24.777   9.245   6.363
 5548POPC   C3A71501  24.768   9.207   6.827
 5548POPC   C4A71502  24.734   9.362   7.222
 5548POPC   C1B71503  24.298   9.069   6.220
 5548POPC   C2B71504  24.294   9.278   6.646
 5548POPC   C3B71505  24.271   9.182   7.107
 5548POPC   C4B71506  24.120   8.844   7.422
 5549POPC   NC371507   2.233  40.608   5.368
 5549POPC   PO471508   1.606  40.658   5.569
 5549POPC   GL171509   1.884  40.669   5.868
 5549POPC   GL271510   2.236  40.829   5.826
 5549POPC   C1A71511   1.844  40.666   6.327
 5549POPC   D2A71512   2.014  40.817   6.713
 5549POPC   C3A71513   1.787  40.750   7.101
 5549POPC   C4A71514   1.782  40.958   7.495
 5549POPC   C1B71515   2.271  40.471   6.110
 5549POPC   C2B71516   2.169  40.288   6.537
 5549POPC   C3B71517   2.230  40.434   6.973
 5549POPC   C4B71518   2.434  40.573   7.363
 5550POPC   NC371519  32.706   9.589   4.872
 5550POPC   PO471520  33.214   9.560   5.295
 5550POPC   GL171521  33.029   9.496   5.761
 5550POPC   GL271522  32.654   9.472   5.826
 5550POPC   C1A71523  33.019   9.587   6.230
 5550POPC   D2A71524  33.086   9.619   6.682
 5550POPC   C3A71525  33.161   9.616   7.127
 5550POPC   C4A71526  33.341   9.905   7.437
 5550POPC   C1B71527  32.507   9.581   6.227
 5550POPC   C2B71528  32.570   9.739   6.645
 5550POPC   C3B71529  32.603   9.609   7.065
 5550POPC   C4B71530  32.795   9.764   7.448
 5551POPC   NC371531  36.508  12.812   4.984
 5551POPC   PO471532  36.719  12.449   5.452
 5551POPC   GL171533  36.707  12.408   5.935
 5551POPC   GL271534  37.039  12.436   5.956
 5551POPC   C1A71535  36.767  12.547   6.413
 5551POPC   D2A71536  36.963  12.900   6.693
 5551POPC   C3A71537  36.732  13.033   7.055
 5551POPC   C4A71538  36.519  12.696   7.160
 5551POPC   C1B71539  37.243  12.400   6.332
 5551POPC   C2B71540  37.332  12.552   6.755
 5551POPC   C3B71541  37.246  12.747   7.154
 5551POPC   C4B71542  37.154  13.187   7.306
 5552POPC   NC371543  27.073  21.178   5.375
 5552POPC   PO471544  27.301  21.724   5.749
 5552POPC   GL171545  27.424  21.328   5.893
 5552POPC   GL271546  27.796  21.267   5.803
 5552POPC   C1A71547  27.289  21.293   6.337
 5552POPC   D2A71548  27.411  21.562   6.728
 5552POPC   C3A71549  27.504  21.338   7.117
 5552POPC   C4A71550  27.460  20.901   7.256
 5552POPC   C1B71551  27.800  21.436   6.242
 5552POPC   C2B71552  27.963  21.507   6.644
 5552POPC   C3B71553  28.014  21.367   7.037
 5552POPC   C4B71554  27.905  21.493   7.436
 5553POPC   NC371555   5.996  16.885   5.351
 5553POPC   PO471556   5.384  16.623   5.381
 5553POPC   GL171557   5.636  16.736   5.762
 5553POPC   GL271558   6.013  16.759   5.849
 5553POPC   C1A71559   5.698  16.556   6.200
 5553POPC   D2A71560   5.688  16.749   6.600
 5553POPC   C3A71561   5.759  16.489   6.959
 5553POPC   C4A71562   5.665  16.555   7.390
 5553POPC   C1B71563   6.197  16.691   6.282
 5553POPC   C2B71564   6.179  16.739   6.733
 5553POPC   C3B71565   6.050  16.860   7.140
 5553POPC   C4B71566   6.311  16.909   7.457
 5554POPC   NC371567   7.697  22.043   5.509
 5554POPC   PO471568   8.348  22.240   5.479
 5554POPC   GL171569   8.182  21.963   5.754
 5554POPC   GL271570   7.987  22.247   5.866
 5554POPC   C1A71571   8.135  21.878   6.179
 5554POPC   D2A71572   8.283  22.006   6.554
 5554POPC   C3A71573   8.037  22.116   6.874
 5554POPC   C4A71574   8.110  22.023   7.281
 5554POPC   C1B71575   8.348  22.366   6.131
 5554POPC   C2B71576   8.496  22.477   6.537
 5554POPC   C3B71577   8.522  22.330   6.951
 5554POPC   C4B71578   8.523  22.318   7.396
 5555POPC   NC371579  11.319  14.190   5.249
 5555POPC   PO471580  10.726  14.078   5.599
 5555POPC   GL171581  11.109  14.274   5.788
 5555POPC   GL271582  11.499  14.261   5.714
 5555POPC   C1A71583  11.338  14.116   6.162
 5555POPC   D2A71584  11.361  14.368   6.532
 5555POPC   C3A71585  11.221  14.225   6.908
 5555POPC   C4A71586  11.166  14.247   7.344
 5555POPC   C1B71587  11.480  14.585   6.058
 5555POPC   C2B71588  11.658  14.773   6.462
 5555POPC   C3B71589  11.616  14.630   6.910
 5555POPC   C4B71590  11.567  14.560   7.367
 5556POPC   NC371591  24.570  27.786   5.533
 5556POPC   PO471592  24.584  27.115   5.479
 5556POPC   GL171593  24.366  27.378   5.783
 5556POPC   GL271594  24.687  27.453   5.891
 5556POPC   C1A71595  24.200  27.653   6.139
 5556POPC   D2A71596  24.327  27.844   6.549
 5556POPC   C3A71597  24.225  27.722   6.979
 5556POPC   C4A71598  24.463  27.661   7.370
 5556POPC   C1B71599  24.659  27.491   6.308
 5556POPC   C2B71600  24.938  27.445   6.618
 5556POPC   C3B71601  24.812  27.568   6.998
 5556POPC   C4B71602  24.912  27.362   7.371
 5557POPC   NC371603  35.514  17.094   5.391
 5557POPC   PO471604  35.363  17.774   5.477
 5557POPC   GL171605  35.303  17.565   5.898
 5557POPC   GL271606  35.234  17.233   5.803
 5557POPC   C1A71607  35.334  17.612   6.391
 5557POPC   D2A71608  35.633  17.555   6.722
 5557POPC   C3A71609  35.646  17.742   7.144
 5557POPC   C4A71610  35.615  17.516   7.557
 5557POPC   C1B71611  35.467  17.169   6.183
 5557POPC   C2B71612  35.335  17.125   6.601
 5557POPC   C3B71613  35.575  17.109   6.985
 5557POPC   C4B71614  35.296  17.336   7.206
 5558POPC   NC371615  42.264  31.224   5.480
 5558POPC   PO471616  42.622  31.760   5.369
 5558POPC   GL171617  42.515  31.538   5.793
 5558POPC   GL271618  42.686  31.180   5.801
 5558POPC   C1A71619  42.285  31.324   6.160
 5558POPC   D2A71620  42.057  31.402   6.573
 5558POPC   C3A71621  42.059  31.213   6.969
 5558POPC   C4A71622  42.129  31.395   7.354
 5558POPC   C1B71623  42.797  31.348   6.208
 5558POPC   C2B71624  42.551  31.573   6.536
 5558POPC   C3B71625  42.421  31.611   6.946
 5558POPC   C4B71626  42.643  31.414   7.253
 5559POPC   NC371627   0.018  22.803   5.319
 5559POPC   PO471628  44.408  23.083   5.257
 5559POPC   GL171629  44.587  22.892   5.679
 5559POPC   GL271630  44.864  23.108   5.768
 5559POPC   C1A71631  44.593  22.807   6.160
 5559POPC   D2A71632  44.807  22.797   6.582
 5559POPC   C3A71633  44.602  22.850   7.012
 5559POPC   C4A71634  44.422  22.673   7.418
 5559POPC   C1B71635  44.475  23.281   5.991
 5559POPC   C2B71636  44.406  23.222   6.439
 5559POPC   C3B71637  44.405  23.295   6.881
 5559POPC   C4B71638  44.284  23.176   7.320
 5560POPC   NC371639  40.895  25.353   5.497
 5560POPC   PO471640  40.313  24.971   5.454
 5560POPC   GL171641  40.578  25.085   5.785
 5560POPC   GL271642  40.547  25.468   5.866
 5560POPC   C1A71643  40.776  24.985   6.180
 5560POPC   D2A71644  40.718  25.038   6.647
 5560POPC   C3A71645  40.756  25.461   6.816
 5560POPC   C4A71646  40.487  25.638   7.153
 5560POPC   C1B71647  40.914  25.482   6.155
 5560POPC   C2B71648  41.193  25.282   6.452
 5560POPC   C3B71649  41.180  25.163   6.876
 5560POPC   C4B71650  40.858  25.071   7.162
 5561POPC   NC371651   4.672  39.992   5.407
 5561POPC   PO471652   4.076  39.854   5.291
 5561POPC   GL171653   4.105  40.002   5.765
 5561POPC   GL271654   4.405  40.086   5.825
 5561POPC   C1A71655   4.108  39.904   6.236
 5561POPC   D2A71656   4.195  39.695   6.642
 5561POPC   C3A71657   4.007  39.808   7.017
 5561POPC   C4A71658   4.102  40.019   7.425
 5561POPC   C1B71659   4.380  40.355   6.189
 5561POPC   C2B71660   4.467  40.294   6.610
 5561POPC   C3B71661   4.452  40.061   7.010
 5561POPC   C4B71662   4.664  39.917   7.380
 5562POPC   NC371663   9.104  16.465   5.158
 5562POPC   PO471664   8.605  16.730   5.324
 5562POPC   GL171665   8.839  16.575   5.660
 5562POPC   GL271666   9.174  16.480   5.699
 5562POPC   C1A71667   8.886  16.811   6.047
 5562POPC   D2A71668   8.854  17.153   6.340
 5562POPC   C3A71669   8.856  17.036   6.786
 5562POPC   C4A71670   8.775  16.665   7.047
 5562POPC   C1B71671   9.129  16.385   6.155
 5562POPC   C2B71672   9.013  16.519   6.561
 5562POPC   C3B71673   9.063  16.263   6.904
 5562POPC   C4B71674   9.147  16.446   7.310
 5563POPC   NC371675  21.540  37.147   5.312
 5563POPC   PO471676  21.877  37.762   5.249
 5563POPC   GL171677  21.490  37.699   5.542
 5563POPC   GL271678  21.594  37.947   5.722
 5563POPC   C1A71679  21.302  37.676   6.025
 5563POPC   D2A71680  21.413  37.745   6.483
 5563POPC   C3A71681  21.251  37.492   6.857
 5563POPC   C4A71682  21.058  37.532   7.284
 5563POPC   C1B71683  21.777  37.922   6.109
 5563POPC   C2B71684  21.815  38.080   6.515
 5563POPC   C3B71685  21.757  37.848   6.890
 5563POPC   C4B71686  21.502  37.759   7.225
 5564POPC   NC371687  32.941  28.950   5.002
 5564POPC   PO471688  32.921  29.515   5.401
 5564POPC   GL171689  33.028  29.169   5.761
 5564POPC   GL271690  33.171  28.796   5.731
 5564POPC   C1A71691  33.050  29.235   6.241
 5564POPC   D2A71692  33.030  29.447   6.661
 5564POPC   C3A71693  32.732  29.269   6.954
 5564POPC   C4A71694  32.710  28.808   7.091
 5564POPC   C1B71695  33.243  28.746   6.197
 5564POPC   C2B71696  33.035  28.740   6.607
 5564POPC   C3B71697  33.162  28.991   6.947
 5564POPC   C4B71698  33.505  28.978   7.246
 5565POPC   NC371699   9.706  14.556   5.493
 5565POPC   PO471700  10.181  14.906   5.470
 5565POPC   GL171701  10.047  14.576   5.865
 5565POPC   GL271702   9.800  14.242   5.859
 5565POPC   C1A71703  10.021  14.782   6.323
 5565POPC   D2A71704   9.754  14.651   6.690
 5565POPC   C3A71705   9.677  14.740   7.121
 5565POPC   C4A71706   9.990  14.644   7.399
 5565POPC   C1B71707   9.684  14.399   6.250
 5565POPC   C2B71708   9.456  14.249   6.627
 5565POPC   C3B71709   9.387  14.324   7.026
 5565POPC   C4B71710   9.667  14.248   7.344
 5566POPC   NC371711  17.394  35.021   5.275
 5566POPC   PO471712  17.380  35.621   5.398
 5566POPC   GL171713  17.351  35.367   5.752
 5566POPC   GL271714  17.596  35.073   5.755
 5566POPC   C1A71715  17.301  35.184   6.159
 5566POPC   D2A71716  17.462  35.102   6.584
 5566POPC   C3A71717  17.403  35.485   6.826
 5566POPC   C4A71718  17.257  35.500   7.252
 5566POPC   C1B71719  17.781  35.021   6.183
 5566POPC   C2B71720  17.978  34.895   6.582
 5566POPC   C3B71721  18.043  35.031   6.999
 5566POPC   C4B71722  17.671  35.201   7.162
 5567POPC   NC371723  30.899  43.278   5.253
 5567POPC   PO471724  30.591  42.668   5.492
 5567POPC   GL171725  30.524  43.022   5.830
 5567POPC   GL271726  30.782  43.322   5.790
 5567POPC   C1A71727  30.493  43.217   6.233
 5567POPC   D2A71728  30.765  43.122   6.589
 5567POPC   C3A71729  30.588  43.236   6.985
 5567POPC   C4A71730  30.553  42.991   7.338
 5567POPC   C1B71731  30.974  43.398   6.197
 5567POPC   C2B71732  31.167  43.499   6.601
 5567POPC   C3B71733  31.111  43.224   6.959
 5567POPC   C4B71734  30.952  43.286   7.362
 5568POPC   NC371735  10.628   6.105   5.354
 5568POPC   PO471736  10.884   5.498   5.358
 5568POPC   GL171737  10.649   5.739   5.756
 5568POPC   GL271738  10.494   6.083   5.848
 5568POPC   C1A71739  10.564   5.727   6.226
 5568POPC   D2A71740  10.571   5.552   6.658
 5568POPC   C3A71741  10.490   5.927   6.903
 5568POPC   C4A71742  10.788   6.088   7.188
 5568POPC   C1B71743  10.106   5.913   6.090
 5568POPC   C2B71744  10.073   5.648   6.467
 5568POPC   C3B71745   9.978   5.746   6.891
 5568POPC   C4B71746  10.037   6.134   7.120
 5569POPC   NC371747  43.872   1.759   5.017
 5569POPC   PO471748  43.295   1.945   5.290
 5569POPC   GL171749  43.671   2.156   5.541
 5569POPC   GL271750  43.796   1.858   5.724
 5569POPC   C1A71751  43.739   2.247   6.035
 5569POPC   D2A71752  43.559   2.197   6.502
 5569POPC   C3A71753  43.848   2.237   6.895
 5569POPC   C4A71754  43.835   2.109   7.360
 5569POPC   C1B71755  43.953   1.803   6.183
 5569POPC   C2B71756  44.252   1.577   6.462
 5569POPC   C3B71757  44.337   1.611   6.901
 5569POPC   C4B71758  44.009   1.656   7.202
 5570POPC   NC371759   5.248  17.065   5.330
 5570POPC   PO471760   4.961  17.667   5.217
 5570POPC   GL171761   5.071  17.438   5.707
 5570POPC   GL271762   5.405  17.261   5.766
 5570POPC   C1A71763   5.187  17.543   6.202
 5570POPC   D2A71764   5.361  17.753   6.637
 5570POPC   C3A71765   5.057  17.843   7.011
 5570POPC   C4A71766   4.918  17.836   7.447
 5570POPC   C1B71767   5.636  17.299   6.147
 5570POPC   C2B71768   5.457  17.214   6.545
 5570POPC   C3B71769   5.221  17.322   6.914
 5570POPC   C4B71770   5.151  17.401   7.349
 5571POPC   NC371771  27.083  35.916   5.383
 5571POPC   PO471772  26.922  36.603   5.329
 5571POPC   GL171773  26.988  36.299   5.690
 5571POPC   GL271774  26.715  36.118   5.758
 5571POPC   C1A71775  27.115  36.065   6.056
 5571POPC   D2A71776  27.233  36.049   6.480
 5571POPC   C3A71777  27.091  36.094   6.886
 5571POPC   C4A71778  27.056  36.145   7.321
 5571POPC   C1B71779  26.510  36.030   6.120
 5571POPC   C2B71780  26.655  36.089   6.534
 5571POPC   C3B71781  26.574  35.969   6.937
 5571POPC   C4B71782  26.534  36.161   7.316
 5572POPC   NC371783  14.066  26.044   5.312
 5572POPC   PO471784  13.392  25.959   5.501
 5572POPC   GL171785  13.739  26.013   5.756
 5572POPC   GL271786  13.789  25.669   5.768
 5572POPC   C1A71787  13.858  26.013   6.210
 5572POPC   D2A71788  13.830  26.265   6.603
 5572POPC   C3A71789  13.602  26.211   6.998
 5572POPC   C4A71790  13.213  26.403   7.169
 5572POPC   C1B71791  13.583  25.578   6.210
 5572POPC   C2B71792  13.618  25.764   6.658
 5572POPC   C3B71793  13.585  25.731   7.134
 5572POPC   C4B71794  13.682  25.708   7.604
 5573POPC   NC371795   6.279  22.690   5.343
 5573POPC   PO471796   6.547  22.076   5.495
 5573POPC   GL171797   6.587  21.892   5.896
 5573POPC   GL271798   6.312  21.705   6.003
 5573POPC   C1A71799   6.708  21.959   6.330
 5573POPC   D2A71800   7.082  22.130   6.572
 5573POPC   C3A71801   6.994  22.258   7.014
 5573POPC   C4A71802   6.685  22.549   7.202
 5573POPC   C1B71803   6.186  22.083   6.251
 5573POPC   C2B71804   6.030  22.334   6.634
 5573POPC   C3B71805   6.166  22.240   7.054
 5573POPC   C4B71806   6.549  21.993   7.062
 5574POPC   NC371807   4.013  42.514   5.447
 5574POPC   PO471808   4.436  42.100   5.352
 5574POPC   GL171809   4.358  42.283   5.779
 5574POPC   GL271810   4.152  42.578   5.938
 5574POPC   C1A71811   4.519  42.320   6.189
 5574POPC   D2A71812   4.509  42.519   6.576
 5574POPC   C3A71813   4.637  42.330   6.942
 5574POPC   C4A71814   4.300  42.362   7.211
 5574POPC   C1B71815   4.009  42.422   6.355
 5574POPC   C2B71816   3.987  42.517   6.810
 5574POPC   C3B71817   3.993  42.755   7.193
 5574POPC   C4B71818   4.157  42.686   7.623
 5575POPC   NC371819   0.853  26.812   5.414
 5575POPC   PO471820   1.461  26.776   5.476
 5575POPC   GL171821   1.166  26.651   5.820
 5575POPC   GL271822   1.033  26.949   5.883
 5575POPC   C1A71823   1.168  26.636   6.310
 5575POPC   D2A71824   1.122  26.845   6.711
 5575POPC   C3A71825   1.134  26.701   7.154
 5575POPC   C4A71826   1.308  26.393   7.469
 5575POPC   C1B71827   0.927  27.117   6.284
 5575POPC   C2B71828   0.972  27.320   6.667
 5575POPC   C3B71829   0.991  27.202   7.075
 5575POPC   C4B71830   1.038  27.082   7.494
 5576POPC   NC371831  27.405  18.514   5.483
 5576POPC   PO471832  27.794  18.084   5.082
 5576POPC   GL171833  27.548  18.014   5.580
 5576POPC   GL271834  27.212  18.050   5.722
 5576POPC   C1A71835  27.579  18.211   6.059
 5576POPC   D2A71836  27.745  18.109   6.498
 5576POPC   C3A71837  27.859  18.289   6.919
 5576POPC   C4A71838  27.951  18.031   7.297
 5576POPC   C1B71839  27.080  18.261   6.120
 5576POPC   C2B71840  27.179  18.337   6.547
 5576POPC   C3B71841  27.128  18.307   6.981
 5576POPC   C4B71842  27.455  18.145   7.195
 5577POPC   NC371843  20.009  39.213   5.395
 5577POPC   PO471844  19.518  38.846   5.444
 5577POPC   GL171845  19.787  38.961   5.812
 5577POPC   GL271846  19.793  39.342   5.854
 5577POPC   C1A71847  19.785  38.894   6.279
 5577POPC   D2A71848  19.872  39.170   6.627
 5577POPC   C3A71849  19.967  38.960   6.999
 5577POPC   C4A71850  19.660  38.903   7.327
 5577POPC   C1B71851  19.735  39.513   6.274
 5577POPC   C2B71852  19.556  39.671   6.655
 5577POPC   C3B71853  19.778  39.558   7.002
 5577POPC   C4B71854  20.206  39.432   6.906
 5578POPC   NC371855  39.514  40.832   5.423
 5578POPC   PO471856  38.816  40.611   5.431
 5578POPC   GL171857  39.070  40.888   5.698
 5578POPC   GL271858  39.259  40.676   5.850
 5578POPC   C1A71859  39.087  41.058   6.129
 5578POPC   D2A71860  39.248  41.181   6.517
 5578POPC   C3A71861  39.246  40.960   6.889
 5578POPC   C4A71862  39.034  41.101   7.270
 5578POPC   C1B71863  39.411  40.421   6.181
 5578POPC   C2B71864  39.290  40.231   6.557
 5578POPC   C3B71865  39.364  40.422   6.931
 5578POPC   C4B71866  39.202  40.618   7.273
 5579POPC   NC371867  39.051   9.148   5.464
 5579POPC   PO471868  39.299   8.510   5.491
 5579POPC   GL171869  39.021   8.730   5.779
 5579POPC   GL271870  38.831   9.038   5.885
 5579POPC   C1A71871  39.191   8.883   6.194
 5579POPC   D2A71872  39.305   9.158   6.547
 5579POPC   C3A71873  39.467   8.956   6.921
 5579POPC   C4A71874  39.714   8.991   7.290
 5579POPC   C1B71875  38.690   9.030   6.300
 5579POPC   C2B71876  38.792   9.219   6.657
 5579POPC   C3B71877  39.009   9.160   7.034
 5579POPC   C4B71878  39.098   8.738   7.232
 5580POPC   NC371879  37.518  19.702   5.410
 5580POPC   PO471880  38.128  19.882   5.161
 5580POPC   GL171881  37.895  19.893   5.672
 5580POPC   GL271882  37.974  20.183   5.896
 5580POPC   C1A71883  37.680  19.700   6.066
 5580POPC   D2A71884  37.482  19.727   6.499
 5580POPC   C3A71885  37.684  19.657   6.916
 5580POPC   C4A71886  37.770  19.489   7.317
 5580POPC   C1B71887  37.664  20.181   6.256
 5580POPC   C2B71888  37.461  20.228   6.670
 5580POPC   C3B71889  37.580  20.121   7.077
 5580POPC   C4B71890  37.999  19.945   7.230
 5581POPC   NC371891   7.595  35.375   5.346
 5581POPC   PO471892   7.001  35.565   5.615
 5581POPC   GL171893   7.334  35.319   5.777
 5581POPC   GL271894   7.596  35.537   5.855
 5581POPC   C1A71895   7.474  35.108   6.121
 5581POPC   D2A71896   7.274  35.153   6.501
 5581POPC   C3A71897   7.471  35.288   6.855
 5581POPC   C4A71898   7.535  35.193   7.272
 5581POPC   C1B71899   7.613  35.549   6.325
 5581POPC   C2B71900   7.905  35.511   6.665
 5581POPC   C3B71901   7.811  35.619   7.101
 5581POPC   C4B71902   7.749  35.839   7.507
 5582POPC   NC371903  38.352  37.432   5.325
 5582POPC   PO471904  38.858  37.916   5.415
 5582POPC   GL171905  38.634  37.666   5.707
 5582POPC   GL271906  38.318  37.873   5.669
 5582POPC   C1A71907  38.686  37.535   6.169
 5582POPC   D2A71908  38.536  37.427   6.619
 5582POPC   C3A71909  38.732  37.660   6.930
 5582POPC   C4A71910  38.824  37.634   7.351
 5582POPC   C1B71911  38.200  37.622   6.013
 5582POPC   C2B71912  38.098  37.655   6.450
 5582POPC   C3B71913  38.216  37.773   6.854
 5582POPC   C4B71914  38.329  37.608   7.231
 5583POPC   NC371915   9.054  27.744   5.289
 5583POPC   PO471916   8.563  27.340   5.449
 5583POPC   GL171917   8.844  27.574   5.740
 5583POPC   GL271918   9.195  27.421   5.743
 5583POPC   C1A71919   9.023  27.723   6.152
 5583POPC   D2A71920   9.002  27.523   6.564
 5583POPC   C3A71921   8.812  27.624   6.980
 5583POPC   C4A71922   8.975  27.584   7.429
 5583POPC   C1B71923   9.505  27.352   6.118
 5583POPC   C2B71924   9.502  27.482   6.567
 5583POPC   C3B71925   9.321  27.454   6.979
 5583POPC   C4B71926   9.391  27.276   7.396
 5584POPC   NC371927  27.363  36.583   5.541
 5584POPC   PO471928  27.850  37.077   5.452
 5584POPC   GL171929  27.575  37.015   5.761
 5584POPC   GL271930  27.761  36.752   5.915
 5584POPC   C1A71931  27.432  37.055   6.163
 5584POPC   D2A71932  27.680  36.894   6.489
 5584POPC   C3A71933  27.535  37.053   6.879
 5584POPC   C4A71934  27.799  37.109   7.239
 5584POPC   C1B71935  27.892  36.477   6.242
 5584POPC   C2B71936  28.074  36.578   6.638
 5584POPC   C3B71937  27.819  36.650   6.996
 5584POPC   C4B71938  27.938  36.631   7.435
 5585POPC   NC371939  25.109  42.130   5.346
 5585POPC   PO471940  24.987  42.745   5.642
 5585POPC   GL171941  25.195  42.379   5.791
 5585POPC   GL271942  25.434  42.077   5.752
 5585POPC   C1A71943  25.286  42.403   6.182
 5585POPC   D2A71944  25.295  42.382   6.577
 5585POPC   C3A71945  25.304  42.666   6.870
 5585POPC   C4A71946  25.105  42.502   7.212
 5585POPC   C1B71947  25.660  42.047   6.197
 5585POPC   C2B71948  25.759  42.192   6.643
 5585POPC   C3B71949  25.455  42.178   7.022
 5585POPC   C4B71950  25.041  41.978   7.103
 5586POPC   NC371951  42.983   1.719   5.552
 5586POPC   PO471952  43.100   1.031   5.420
 5586POPC   GL171953  42.973   0.954   5.825
 5586POPC   GL271954  43.012   1.300   5.940
 5586POPC   C1A71955  43.096   0.859   6.250
 5586POPC   D2A71956  43.193   1.124   6.614
 5586POPC   C3A71957  43.147   1.045   7.062
 5586POPC   C4A71958  43.276   1.440   7.239
 5586POPC   C1B71959  42.735   1.188   6.313
 5586POPC   C2B71960  42.717   1.069   6.765
 5586POPC   C3B71961  42.858   1.465   6.971
 5586POPC   C4B71962  42.743   1.708   7.347
 5587POPC   NC371963  35.898  21.395   5.160
 5587POPC   PO471964  36.377  21.005   5.536
 5587POPC   GL171965  36.197  21.362   5.774
 5587POPC   GL271966  36.385  21.691   5.731
 5587POPC   C1A71967  36.023  21.310   6.214
 5587POPC   D2A71968  36.255  21.347   6.603
 5587POPC   C3A71969  36.067  21.258   6.972
 5587POPC   C4A71970  35.712  21.263   7.178
 5587POPC   C1B71971  36.496  21.536   6.168
 5587POPC   C2B71972  36.715  21.578   6.558
 5587POPC   C3B71973  36.490  21.662   6.936
 5587POPC   C4B71974  36.308  21.521   7.339
 5588POPC   NC371975  34.368  27.048   5.569
 5588POPC   PO471976  34.697  26.381   5.495
 5588POPC   GL171977  34.513  26.468   5.861
 5588POPC   GL271978  34.674  26.782   5.901
 5588POPC   C1A71979  34.465  26.516   6.321
 5588POPC   D2A71980  34.731  26.569   6.694
 5588POPC   C3A71981  34.518  26.668   7.081
 5588POPC   C4A71982  34.265  26.660   7.461
 5588POPC   C1B71983  34.822  26.953   6.315
 5588POPC   C2B71984  34.908  27.047   6.766
 5588POPC   C3B71985  34.921  26.971   7.200
 5588POPC   C4B71986  34.536  27.103   7.436
 5589POPC   NC371987   2.238  15.683   5.283
 5589POPC   PO471988   2.018  16.340   5.399
 5589POPC   GL171989   2.064  15.964   5.704
 5589POPC   GL271990   1.734  15.901   5.886
 5589POPC   C1A71991   2.146  15.759   6.121
 5589POPC   D2A71992   1.860  15.804   6.473
 5589POPC   C3A71993   1.986  15.725   6.907
 5589POPC   C4A71994   1.997  15.835   7.352
 5589POPC   C1B71995   1.677  16.236   6.221
 5589POPC   C2B71996   1.603  16.175   6.690
 5589POPC   C3B71997   1.642  16.120   7.110
 5589POPC   C4B71998   1.589  16.378   7.447
 5590POPC   NC371999  40.760  38.007   5.416
 5590POPC   PO472000  40.418  37.359   5.430
 5590POPC   GL172001  40.615  37.561   5.769
 5590POPC   GL272002  40.959  37.448   5.711
 5590POPC   C1A72003  40.599  37.765   6.189
 5590POPC   D2A72004  40.573  38.042   6.552
 5590POPC   C3A72005  40.609  37.741   6.885
 5590POPC   C4A72006  40.782  37.755   7.279
 5590POPC   C1B72007  41.072  37.569   6.131
 5590POPC   C2B72008  41.030  37.740   6.550
 5590POPC   C3B72009  41.070  37.472   6.910
 5590POPC   C4B72010  41.111  37.292   7.299
 5591POPC   NC372011  40.586  41.864   5.474
 5591POPC   PO472012  40.729  42.524   5.339
 5591POPC   GL172013  40.627  42.528   5.761
 5591POPC   GL272014  40.465  42.854   5.781
 5591POPC   C1A72015  40.662  42.320   6.181
 5591POPC   D2A72016  40.941  42.144   6.479
 5591POPC   C3A72017  40.899  42.189   6.921
 5591POPC   C4A72018  41.153  42.328   7.252
 5591POPC   C1B72019  40.398  42.757   6.237
 5591POPC   C2B72020  40.485  42.526   6.649
 5591POPC   C3B72021  40.545  42.560   7.108
 5591POPC   C4B72022  40.427  42.813   7.528
 5592POPC   NC372023  38.314  31.022   5.445
 5592POPC   PO472024  38.642  30.426   5.374
 5592POPC   GL172025  38.546  30.635   5.757
 5592POPC   GL272026  38.196  30.657   5.796
 5592POPC   C1A72027  38.541  30.777   6.181
 5592POPC   D2A72028  38.487  30.608   6.582
 5592POPC   C3A72029  38.680  30.846   6.929
 5592POPC   C4A72030  38.669  30.622   7.328
 5592POPC   C1B72031  38.003  30.818   6.168
 5592POPC   C2B72032  37.939  30.747   6.592
 5592POPC   C3B72033  38.176  30.722   6.975
 5592POPC   C4B72034  37.911  30.801   7.285
 5593POPC   NC372035  26.462  20.413   5.582
 5593POPC   PO472036  25.980  20.588   5.101
 5593POPC   GL172037  25.935  20.515   5.582
 5593POPC   GL272038  26.130  20.810   5.725
 5593POPC   C1A72039  25.942  20.476   6.070
 5593POPC   D2A72040  25.896  20.763   6.450
 5593POPC   C3A72041  25.971  20.598   6.872
 5593POPC   C4A72042  25.786  20.532   7.263
 5593POPC   C1B72043  26.369  20.767   6.147
 5593POPC   C2B72044  26.416  20.865   6.593
 5593POPC   C3B72045  26.465  20.638   6.989
 5593POPC   C4B72046  26.287  20.725   7.385
 5594POPC   NC372047  11.472  20.081   5.459
 5594POPC   PO472048  11.079  19.580   5.542
 5594POPC   GL172049  11.279  19.783   5.838
 5594POPC   GL272050  11.090  20.091   5.806
 5594POPC   C1A72051  11.551  19.888   6.149
 5594POPC   D2A72052  11.698  19.748   6.547
 5594POPC   C3A72053  11.456  19.862   6.897
 5594POPC   C4A72054  11.577  19.715   7.290
 5594POPC   C1B72055  11.028  19.989   6.243
 5594POPC   C2B72056  11.017  20.173   6.657
 5594POPC   C3B72057  10.930  20.357   7.050
 5594POPC   C4B72058  10.930  20.124   7.427
 5595POPC   NC372059  25.624  14.642   5.534
 5595POPC   PO472060  25.350  15.162   5.278
 5595POPC   GL172061  25.366  15.067   5.715
 5595POPC   GL272062  25.244  15.377   5.754
 5595POPC   C1A72063  25.455  15.173   6.173
 5595POPC   D2A72064  25.361  15.027   6.581
 5595POPC   C3A72065  25.530  15.164   6.977
 5595POPC   C4A72066  25.395  14.992   7.370
 5595POPC   C1B72067  24.994  15.375   6.103
 5595POPC   C2B72068  25.134  15.477   6.504
 5595POPC   C3B72069  25.033  15.294   6.894
 5595POPC   C4B72070  25.174  15.419   7.253
 5596POPC   NC372071  21.874  43.015   5.340
 5596POPC   PO472072  21.971  43.699   5.233
 5596POPC   GL172073  21.919  43.463   5.659
 5596POPC   GL272074  22.190  43.196   5.704
 5596POPC   C1A72075  21.974  43.390   6.132
 5596POPC   D2A72076  21.919  43.110   6.507
 5596POPC   C3A72077  21.977  43.383   6.886
 5596POPC   C4A72078  21.944  43.318   7.318
 5596POPC   C1B72079  22.099  42.890   6.050
 5596POPC   C2B72080  22.336  42.774   6.427
 5596POPC   C3B72081  22.404  42.818   6.853
 5596POPC   C4B72082  22.105  42.865   7.152
 5597POPC   NC372083  32.944   8.493   5.372
 5597POPC   PO472084  33.410   7.972   5.454
 5597POPC   GL172085  33.229   8.129   5.833
 5597POPC   GL272086  32.881   8.313   5.988
 5597POPC   C1A72087  33.319   8.240   6.195
 5597POPC   D2A72088  33.022   8.276   6.527
 5597POPC   C3A72089  33.208   8.260   6.936
 5597POPC   C4A72090  32.942   8.292   7.267
 5597POPC   C1B72091  32.739   8.634   6.272
 5597POPC   C2B72092  32.906   8.766   6.669
 5597POPC   C3B72093  32.895   8.765   7.120
 5597POPC   C4B72094  32.627   8.709   7.472
 5598POPC   NC372095  31.649  37.103   5.197
 5598POPC   PO472096  31.633  36.434   5.384
 5598POPC   GL172097  31.674  36.740   5.778
 5598POPC   GL272098  31.334  36.919   5.811
 5598POPC   C1A72099  31.618  36.974   6.243
 5598POPC   D2A72100  31.376  37.019   6.667
 5598POPC   C3A72101  31.679  37.063   7.034
 5598POPC   C4A72102  31.619  37.219   7.485
 5598POPC   C1B72103  31.248  36.634   6.194
 5598POPC   C2B72104  31.536  36.553   6.571
 5598POPC   C3B72105  31.632  36.557   7.030
 5598POPC   C4B72106  31.568  36.589   7.480
 5599POPC   NC372107  30.921  35.512   5.441
 5599POPC   PO472108  30.437  35.117   5.435
 5599POPC   GL172109  30.531  35.312   5.817
 5599POPC   GL272110  30.849  35.171   5.842
 5599POPC   C1A72111  30.405  35.442   6.243
 5599POPC   D2A72112  30.452  35.617   6.672
 5599POPC   C3A72113  30.488  35.352   7.054
 5599POPC   C4A72114  30.520  35.287   7.524
 5599POPC   C1B72115  30.845  35.091   6.259
 5599POPC   C2B72116  30.895  35.336   6.595
 5599POPC   C3B72117  31.061  35.254   6.967
 5599POPC   C4B72118  30.804  34.981   7.200
 5600POPC   NC372119  32.895  41.765   5.290
 5600POPC   PO472120  33.446  41.904   5.576
 5600POPC   GL172121  33.073  41.723   5.778
 5600POPC   GL272122  32.866  41.433   5.681
 5600POPC   C1A72123  32.828  41.721   6.146
 5600POPC   D2A72124  32.826  41.811   6.574
 5600POPC   C3A72125  33.175  41.649   6.784
 5600POPC   C4A72126  33.237  41.562   7.195
 5600POPC   C1B72127  33.002  41.246   6.070
 5600POPC   C2B72128  32.922  41.283   6.495
 5600POPC   C3B72129  32.925  41.228   6.925
 5600POPC   C4B72130  32.749  41.412   7.282
 5601POPC   NC372131  35.468  11.680   5.383
 5601POPC   PO472132  35.196  12.248   5.128
 5601POPC   GL172133  35.270  12.111   5.582
 5601POPC   GL272134  35.026  11.870   5.694
 5601POPC   C1A72135  35.440  11.978   6.023
 5601POPC   D2A72136  35.481  12.140   6.474
 5601POPC   C3A72137  35.452  12.041   6.939
 5601POPC   C4A72138  35.379  12.301   7.320
 5601POPC   C1B72139  34.977  11.757   6.163
 5601POPC   C2B72140  35.071  11.818   6.632
 5601POPC   C3B72141  34.971  11.868   7.091
 5601POPC   C4B72142  34.859  11.818   7.533
 5602W        W72143   2.410  21.140  10.753
 5603W        W72144  11.656  29.090  14.373
 5604W        W72145  26.282  20.514  12.622
 5605W        W72146   3.483   8.235   3.795
 5606W        W72147  33.674  37.205   4.713
 5607W        W72148   6.797  29.485  14.988
 5608W        W72149  17.468  35.499  11.788
 5609W        W72150  13.295  20.743   0.287
 5610W        W72151  29.132  23.000  11.711
 5611W        W72152  38.878  26.590  12.435
 5612W        W72153   7.730   4.497   4.924
 5613W        W72154  40.735  35.997  13.809
 5614W        W72155  34.597  11.404  11.454
 5615W        W72156  26.211  13.233  13.484
 5616W        W72157  29.389  35.241   0.121
 5617W        W72158  20.511  20.622   4.080
 5618W        W72159  26.857  41.975   2.248
 5619W        W72160  16.623  44.325  11.831
 5620W        W72161  14.418  28.968   0.465
 5621W        W72162  40.533   2.592   4.063
 5622W        W72163  23.350  17.949   4.188
 5623W        W72164  14.792  14.682  11.459
 5624W        W72165  33.536  14.073   0.862
 5625W        W72166  11.351  10.229  14.277
 5626W        W72167   2.929  11.785   4.036
 5627W        W72168   4.239  41.718   1.025
 5628W        W72169  40.793  19.689   0.558
 5629W        W72170  32.200  13.384  13.516
 5630W        W72171   1.257  10.296   4.808
 5631W        W72172  20.944  34.731  12.411
 5632W        W72173   8.189   3.378  10.736
 5633W        W72174  20.012  28.234  14.483
 5634W        W72175  38.597  17.745   3.713
 5635W        W72176  25.481  40.255   0.435
 5636W        W72177  42.776  41.856  11.965
 5637W        W72178  26.170   3.010   2.787
 5638W        W72179  30.787  37.136  14.213
 5639W        W72180  14.534  14.126  14.666
 5640W        W72181   9.292  39.444  11.681
 5641W        W72182  30.004  35.363   0.658
 5642W        W72183  34.396  13.610   0.329
 5643W        W72184   8.437   6.428   3.746
 5644W        W72185  39.994  16.802  14.595
 5645W        W72186  32.650   0.420  12.596
 5646W        W72187  32.354  18.790   3.640
 5647W        W72188   8.987  14.380  11.952
 5648W        W72189  10.088  38.080   1.793
 5649W        W72190  32.087  26.910   4.858
 5650W        W72191  15.134   5.241   1.650
 5651W        W72192  20.227  29.536   0.682
 5652W        W72193   6.568  25.426  12.050
 5653W        W72194  28.692   4.753  14.682
 5654W        W72195  34.048  21.077   3.944
 5655W        W72196  34.678  32.666  14.362
 5656W        W72197   0.048  15.575  11.174
 5657W        W72198  19.593  11.295  10.608
 5658W        W72199  25.492  40.856  14.575
 5659W        W72200  31.585   1.232  13.109
 5660W        W72201  14.702  15.336  11.077
 5661W        W72202  21.094  42.314  12.025
 5662W        W72203  11.332  19.161   2.337
 5663W        W72204  21.503   9.351   3.664
 5664W        W72205   7.363  31.385  13.622
 5665W        W72206  10.027   4.645   2.656
 5666W        W72207  10.500  30.617   4.892
 5667W        W72208  24.194  38.322   1.758
 5668W        W72209  18.744  41.958  13.069
 5669W        W72210  34.975  13.835  12.119
 5670W        W72211  37.534  30.616  11.523
 5671W        W72212  24.228  31.210   1.532
 5672W        W72213  11.144  32.495  13.973
 5673W        W72214   6.908  40.486  14.427
 5674W        W72215   0.432   8.643  11.591
 5675W        W72216  27.131  42.321  10.718
 5676W        W72217  28.965  33.525  14.652
 5677W        W72218   1.726  26.767   4.133
 5678W        W72219  19.371  29.514  13.021
 5679W        W72220  16.806  32.272  12.820
 5680W        W72221   3.279  15.234  11.322
 5681W        W72222   6.597  37.704  11.051
 5682W        W72223  22.247  42.735  12.563
 5683W        W72224  18.324   2.965  13.336
 5684W        W72225  14.174  29.491   4.667
 5685W        W72226   9.808   6.675   1.862
 5686W        W72227  11.621   9.111  10.494
 5687W        W72228  19.792  13.529   1.782
 5688W        W72229   0.604  16.418   2.890
 5689W        W72230  42.565  20.553  14.412
 5690W        W72231  24.952  43.015  13.383
 5691W        W72232  28.111  26.652   0.704
 5692W        W72233  31.739   8.897  12.076
 5693W        W72234  31.683  28.133   0.022
 5694W        W72235  14.562  22.195  12.565
 5695W        W72236  16.452   2.992  14.312
 5696W        W72237  17.043  40.292  14.405
 5697W        W72238   4.121  28.137   4.666
 5698W        W72239  23.952  12.193   2.385
 5699W        W72240   8.189  11.951   0.883
 5700W        W72241   5.432  31.878  13.152
 5701W        W72242  38.155  14.159   2.393
 5702W        W72243  32.230   8.010   4.109
 5703W        W72244  44.412  18.243   4.157
 5704W        W72245  36.502  20.963   2.986
 5705W        W72246  30.734  25.169  13.029
 5706W        W72247   6.030  44.124  10.509
 5707W        W72248  28.357  12.523   4.623
 5708W        W72249  20.658   7.944   3.860
 5709W        W72250  32.582   9.883  11.005
 5710W        W72251  14.585  41.721  13.971
 5711W        W72252  29.263  22.532   3.797
 5712W        W72253  20.693  32.128  13.418
 5713W        W72254  40.003  35.554   3.936
 5714W        W72255  32.622  15.709   4.777
 5715W        W72256   1.644  21.062   0.517
 5716W        W72257  40.603  24.070   3.861
 5717W        W72258   2.404   8.663   2.382
 5718W        W72259  13.602   6.276   2.508
 5719W        W72260  41.850  39.560  13.753
 5720W        W72261   1.484  26.467   1.857
 5721W        W72262  15.791  29.854   3.994
 5722W        W72263  28.633  23.029  11.526
 5723W        W72264   1.878  28.184  10.525
 5724W        W72265  38.296  28.287  11.050
 5725W        W72266  33.907  10.753  12.604
 5726W        W72267   9.926  40.147   0.280
 5727W        W72268  27.023   3.572  13.055
 5728W        W72269  33.918  35.383  12.867
 5729W        W72270   6.025  25.675  13.899
 5730W        W72271   6.679  23.418   4.709
 5731W        W72272   7.792  22.514  11.647
 5732W        W72273   7.816  37.290  14.988
 5733W        W72274  27.971  14.614  14.361
 5734W        W72275   9.402  44.021   0.203
 5735W        W72276  43.102   9.416  14.071
 5736W        W72277  13.600  28.891  11.573
 5737W        W72278   7.910  37.714  10.743
 5738W        W72279   7.489  41.587  13.829
 5739W        W72280  19.850  18.949  14.753
 5740W        W72281   3.565   7.733  11.949
 5741W        W72282   7.209  20.723  13.894
 5742W        W72283  16.612  37.260   4.969
 5743W        W72284  14.263  40.209   0.233
 5744W        W72285  24.997   5.492   5.567
 5745W        W72286   8.094  19.802  14.422
 5746W        W72287   1.946  29.832   5.036
 5747W        W72288  16.528  41.323   3.451
 5748W        W72289  25.951  37.296   2.743
 5749W        W72290   5.257  41.285  10.245
 5750W        W72291  15.240   7.287   1.781
 5751W        W72292  15.710  39.580   1.991
 5752W        W72293   4.344  44.818  12.366
 5753W        W72294  26.536  35.034  12.987
 5754W        W72295  27.211  27.009   3.737
 5755W        W72296  10.044  23.895   3.613
 5756W        W72297  36.878  42.500   2.397
 5757W        W72298  40.238  31.494   0.158
 5758W        W72299  36.708  16.797  13.512
 5759W        W72300  41.050  11.397  10.725
 5760W        W72301   0.367   6.673   0.353
 5761W        W72302  17.758  16.797   2.310
 5762W        W72303  33.554  33.055   0.166
 5763W        W72304  10.651  12.364  14.778
 5764W        W72305  37.575  10.126   2.336
 5765W        W72306  14.807  22.503   0.822
 5766W        W72307  34.857  36.341   1.975
 5767W        W72308  44.905  20.350   3.701
 5768W        W72309  19.786   8.944  11.239
 5769W        W72310   5.926  27.524  14.267
 5770W        W72311   2.475   4.365  13.524
 5771W        W72312  16.027  23.686  14.423
 5772W        W72313  44.388   9.392  13.397
 5773W        W72314  35.016  44.956  10.425
 5774W        W72315  41.922   5.198   1.236
 5775W        W72316   3.681   8.137   0.829
 5776W        W72317   0.238  41.353  12.009
 5777W        W72318  31.846  13.593   2.562
 5778W        W72319  21.570  10.701   0.748
 5779W        W72320   2.195  44.942   1.946
 5780W        W72321   1.327  22.803  11.488
 5781W        W72322  38.036   1.510   2.060
 5782W        W72323  15.610   9.855  11.170
 5783W        W72324   5.974   4.066   0.492
 5784W        W72325  12.946   0.594   4.037
 5785W        W72326  12.851  13.559  14.561
 5786W        W72327   8.758  35.436   2.580
 5787W        W72328   7.370  23.846  12.461
 5788W        W72329  14.905  22.546  11.532
 5789W        W72330  12.766  12.168  14.901
 5790W        W72331  32.894  23.493   0.392
 5791W        W72332  30.813  17.282   2.811
 5792W        W72333  27.483  10.639  14.146
 5793W        W72334  22.075  22.190  13.389
 5794W        W72335  29.104  39.260   4.942
 5795W        W72336  30.176  11.416   4.647
 5796W        W72337  11.121  36.455   0.925
 5797W        W72338   3.291  13.473   2.383
 5798W        W72339   8.448   1.566   1.288
 5799W        W72340  15.898  28.715   2.302
 5800W        W72341  32.120   6.382   0.905
 5801W        W72342  12.784  23.182  10.704
 5802W        W72343  33.792   9.291   4.798
 5803W        W72344   9.642  35.773   0.764
 5804W        W72345   1.193   5.368  14.583
 5805W        W72346  10.741  37.130  14.483
 5806W        W72347  27.185  44.244  11.958
 5807W        W72348  39.411  23.665   4.144
 5808W        W72349   1.933  22.008   3.167
 5809W        W72350  19.805  14.861  11.616
 5810W        W72351  42.524  44.849   1.310
 5811W        W72352  29.629  42.564   1.594
 5812W        W72353   2.940  22.585  14.053
 5813W        W72354  18.575  29.507   1.337
 5814W        W72355  33.510  43.459  13.519
 5815W        W72356  12.364  36.682   3.772
 5816W        W72357  44.911  27.523   1.463
 5817W        W72358  41.179  23.683  11.685
 5818W        W72359  28.371  31.386  11.138
 5819W        W72360  34.899  27.160   0.771
 5820W        W72361  11.835   1.202  14.347
 5821W        W72362  14.725  23.616  11.673
 5822W        W72363   4.677  27.371   3.658
 5823W        W72364  15.111  27.464   4.267
 5824W        W72365   7.413  15.840   0.410
 5825W        W72366  35.995  23.631  14.024
 5826W        W72367  25.427  17.792   3.192
 5827W        W72368  31.072  32.111   1.458
 5828W        W72369  20.390  21.585   3.397
 5829W        W72370  39.296  30.605  11.961
 5830W        W72371   3.871  21.988  14.955
 5831W        W72372  33.728  18.750  14.024
 5832W        W72373  16.100  11.786   2.868
 5833W        W72374  32.166  31.213   4.909
 5834W        W72375  36.820   7.684  11.086
 5835W        W72376  30.528  36.092  10.781
 5836W        W72377   4.012  35.952  13.902
 5837W        W72378  30.109  10.344  10.844
 5838W        W72379  36.010   8.386   0.741
 5839W        W72380  12.634   4.400  10.836
 5840W        W72381  32.139  12.147  13.965
 5841W        W72382  28.588   0.533   4.852
 5842W        W72383  12.624  41.706   1.727
 5843W        W72384  32.250  37.962  13.422
 5844W        W72385  42.518   0.752  14.036
 5845W        W72386  27.519  40.623   2.869
 5846W        W72387  39.169  16.291   3.594
 5847W        W72388   0.429   7.859  13.017
 5848W        W72389  29.617   2.746  12.074
 5849W        W72390   4.337   7.752  10.596
 5850W        W72391  21.238  20.716   1.896
 5851W        W72392  41.597  17.484   3.907
 5852W        W72393   2.736  13.223  10.551
 5853W        W72394   2.699  17.863  11.071
 5854W        W72395  20.178  24.092   4.126
 5855W        W72396  40.660  38.748   1.708
 5856W        W72397  41.067  22.049  11.736
 5857W        W72398   0.755  10.298   0.189
 5858W        W72399   5.972  35.049  14.459
 5859W        W72400   6.664  34.949  12.735
 5860W        W72401  12.245  38.393  12.928
 5861W        W72402  14.402  17.298   4.505
 5862W        W72403   3.373  33.369   3.555
 5863W        W72404  19.172   9.178  11.257
 5864W        W72405  40.553  11.046   3.804
 5865W        W72406  37.273  38.207  14.868
 5866W        W72407  36.008  18.296   1.986
 5867W        W72408  17.768   7.240   4.578
 5868W        W72409  28.001   4.452   1.974
 5869W        W72410  25.213  22.307  12.026
 5870W        W72411  18.214  26.081  10.746
 5871W        W72412  40.788  28.203   4.911
 5872W        W72413  27.909  29.115  13.918
 5873W        W72414  11.291   6.436  14.481
 5874W        W72415  32.032  41.475  13.335
 5875W        W72416  37.542  32.062   2.288
 5876W        W72417  44.943  25.693   0.904
 5877W        W72418  21.821  30.505   1.824
 5878W        W72419   0.969  35.796  10.169
 5879W        W72420   3.140  24.013   4.568
 5880W        W72421  26.678  26.250   1.387
 5881W        W72422  19.779  42.984   0.745
 5882W        W72423  32.721  22.015   4.180
 5883W        W72424   2.319  15.254  10.725
 5884W        W72425  38.585  18.809   1.236
 5885W        W72426  35.215   4.476   0.337
 5886W        W72427  30.413   5.319   0.850
 5887W        W72428  13.666  10.322   4.367
 5888W        W72429  28.238  30.453  14.943
 5889W        W72430  42.446  20.631  11.470
 5890W        W72431  24.085   1.791   4.637
 5891W        W72432   1.980   0.011   3.354
 5892W        W72433   3.385  42.060  13.939
 5893W        W72434  28.122  12.789  13.719
 5894W        W72435   9.311  42.063  12.473
 5895W        W72436  40.364  17.088  11.980
 5896W        W72437  31.951  36.808  11.565
 5897W        W72438   2.319  18.628  11.289
 5898W        W72439  10.541   9.403  12.583
 5899W        W72440   1.851  14.727  11.664
 5900W        W72441  44.336  29.927   1.777
 5901W        W72442  33.203  28.471   0.412
 5902W        W72443  16.613  28.598   3.668
 5903W        W72444   9.379  36.282   4.116
 5904W        W72445  16.660  23.762  12.525
 5905W        W72446   7.395  26.017  11.964
 5906W        W72447  16.613  39.782   2.933
 5907W        W72448  40.297  22.973  12.238
 5908W        W72449  42.731  13.110  11.932
 5909W        W72450  28.133  29.446   1.774
 5910W        W72451   0.957  21.028  13.967
 5911W        W72452  31.626  13.291  14.386
 5912W        W72453   7.829  25.104   3.913
 5913W        W72454  30.028   1.176   1.279
 5914W        W72455  25.604   6.334   1.469
 5915W        W72456  42.854   4.682  14.378
 5916W        W72457  39.829  22.577  11.478
 5917W        W72458  33.915  37.397   2.978
 5918W        W72459  43.736  43.294  12.238
 5919W        W72460  17.539  21.978  10.612
 5920W        W72461  16.241  25.849   1.084
 5921W        W72462  40.540  25.170  11.692
 5922W        W72463  30.681  42.753   0.878
 5923W        W72464  26.264  23.464   0.422
 5924W        W72465  25.639  40.817  13.714
 5925W        W72466  22.713  42.956   1.830
 5926W        W72467   5.317  34.346  14.906
 5927W        W72468   4.256  38.228   1.096
 5928W        W72469  38.865  19.526  10.049
 5929W        W72470  21.163   1.487   0.741
 5930W        W72471  32.916  20.134  10.749
 5931W        W72472  25.997   4.239  13.386
 5932W        W72473   6.430   5.384  13.662
 5933W        W72474  18.120  16.594   3.786
 5934W        W72475  38.190  41.646  14.561
 5935W        W72476   0.322  31.609  14.774
 5936W        W72477  28.921  27.696   3.754
 5937W        W72478   8.962  12.937  13.388
 5938W        W72479   1.870  21.884  12.963
 5939W        W72480  15.326  22.843   2.154
 5940W        W72481  16.021  33.125   0.808
 5941W        W72482  42.770  21.106  13.089
 5942W        W72483  44.410  21.789  14.488
 5943W        W72484   5.326   4.414   1.822
 5944W        W72485  19.261  31.967  13.453
 5945W        W72486  36.428  43.727  14.738
 5946W        W72487  36.966  37.032   0.671
 5947W        W72488  39.912  13.227   1.081
 5948W        W72489  35.100  31.516  14.844
 5949W        W72490  16.335   4.366  11.363
 5950W        W72491  41.078  17.495   2.660
 5951W        W72492  40.158  17.269   4.985
 5952W        W72493  27.609  20.306  12.142
 5953W        W72494  15.336  25.401  11.051
 5954W        W72495  30.276  31.081   1.826
 5955W        W72496   4.665  12.294  10.661
 5956W        W72497  34.548   2.908   3.635
 5957W        W72498  33.619  39.868  11.613
 5958W        W72499  26.251  19.530   1.832
 5959W        W72500  22.731  27.852   2.917
 5960W        W72501   2.051   5.874   4.317
 5961W        W72502   2.837  20.172  13.098
 5962W        W72503  32.030  21.919  11.595
 5963W        W72504   1.316  44.788   1.842
 5964W        W72505  17.262   3.521  14.697
 5965W        W72506  28.018  18.788   1.279
 5966W        W72507   3.937  26.515  11.726
 5967W        W72508  14.579  40.959  13.342
 5968W        W72509  13.135  17.279  13.356
 5969W        W72510   5.862  43.638  10.544
 5970W        W72511  16.281  30.216   3.325
 5971W        W72512  19.921  39.823   3.742
 5972W        W72513   4.518  36.355  10.856
 5973W        W72514  28.235   4.663  12.508
 5974W        W72515  19.198  41.357   0.886
 5975W        W72516  22.664  15.747   0.748
 5976W        W72517  40.385   7.309  11.538
 5977W        W72518  13.056  22.518   0.472
 5978W        W72519  30.363  24.075   1.933
 5979W        W72520  17.556  35.840  14.302
 5980W        W72521  25.779   9.827   0.759
 5981W        W72522  24.826  17.264   1.383
 5982W        W72523  12.614  32.905   0.543
 5983W        W72524  12.049  24.368  11.540
 5984W        W72525  33.543  30.084  11.585
 5985W        W72526  29.522   3.826  13.550
 5986W        W72527  33.512  12.115  13.552
 5987W        W72528  40.053  20.641   4.922
 5988W        W72529  21.507  25.407   1.652
 5989W        W72530  44.438  10.787   2.626
 5990W        W72531  10.226  11.329  11.908
 5991W        W72532  20.782  10.524   0.247
 5992W        W72533  39.459  13.108   0.428
 5993W        W72534   3.319  40.929   4.604
 5994W        W72535  13.386   9.347   0.368
 5995W        W72536   7.292   0.264  11.736
 5996W        W72537  24.746  22.222  13.484
 5997W        W72538  37.275  39.840   3.703
 5998W        W72539  26.626  23.567  14.976
 5999W        W72540  10.278  29.467   0.333
 6000W        W72541   9.409   0.887  13.856
 6001W        W72542   7.829  36.467   5.091
 6002W        W72543   7.940  31.913   0.919
 6003W        W72544  35.498   8.982  12.889
 6004W        W72545  15.214   4.819  11.196
 6005W        W72546  30.440  22.571  12.148
 6006W        W72547  20.265  22.961  11.994
 6007W        W72548  20.560   5.324  13.444
 6008W        W72549   0.081  31.088   3.625
 6009W        W72550  42.377  28.252   3.807
 6010W        W72551  19.691  32.001   1.232
 6011W        W72552  25.951  39.450   4.621
 6012W        W72553   9.172  21.814  13.546
 6013W        W72554  17.119  37.823  12.085
 6014W        W72555   7.732   3.487   1.202
 6015W        W72556  12.713  35.628   4.715
 6016W        W72557  38.605  35.540  12.924
 6017W        W72558  25.219   8.338   2.384
 6018W        W72559   7.684  22.182  14.609
 6019W        W72560  32.679  16.287  13.835
 6020W        W72561  38.938   4.126  12.872
 6021W        W72562  13.776  36.990  11.357
 6022W        W72563  32.314  23.691  14.541
 6023W        W72564  11.616  29.663   4.953
 6024W        W72565  30.653  42.124  11.800
 6025W        W72566  10.603   1.418  14.841
 6026W        W72567  37.126  12.132  14.844
 6027W        W72568  16.660  14.936  10.097
 6028W        W72569  34.646   9.926   1.318
 6029W        W72570  17.196  11.221  12.576
 6030W        W72571   6.167  20.628  14.329
 6031W        W72572   4.583  34.030   2.631
 6032W        W72573   1.154  12.764  11.201
 6033W        W72574  35.569  25.523  12.869
 6034W        W72575  21.806   9.600   0.188
 6035W        W72576  14.066  34.636   0.900
 6036W        W72577  20.185  18.597  13.991
 6037W        W72578  14.644  39.319  10.695
 6038W        W72579  14.812  28.652  12.057
 6039W        W72580  38.945  23.576  14.396
 6040W        W72581  35.810  13.970  14.980
 6041W        W72582  21.809   9.968   3.084
 6042W        W72583  35.576  19.465  13.387
 6043W        W72584  20.818   4.208  14.038
 6044W        W72585  31.980   1.808   4.478
 6045W        W72586  31.491  36.535  11.606
 6046W        W72587  19.751  32.572   4.253
 6047W        W72588  39.387  32.538  13.572
 6048W        W72589   4.368  41.443  14.310
 6049W        W72590   8.864  42.900   3.819
 6050W        W72591  35.427   2.189   0.487
 6051W        W72592  18.012  33.105  12.376
 6052W        W72593  10.704  41.035  13.161
 6053W        W72594   0.971  34.096   3.166
 6054W        W72595   2.709  21.788   3.137
 6055W        W72596  30.592   2.317   3.175
 6056W        W72597  32.496  22.853   3.243
 6057W        W72598   2.651  12.320   0.974
 6058W        W72599  38.986  17.770  13.674
 6059W        W72600   6.142  27.035   1.333
 6060W        W72601  40.329   3.465   4.155
 6061W        W72602  28.419  32.489   2.407
 6062W        W72603  33.648  25.276  12.032
 6063W        W72604  27.127  32.332  12.558
 6064W        W72605  28.556  33.877  12.649
 6065W        W72606  16.215   6.755   2.691
 6066W        W72607  28.169   2.425  13.049
 6067W        W72608  40.420   4.781   2.094
 6068W        W72609  38.787  12.342   2.743
 6069W        W72610  31.230   5.566  14.976
 6070W        W72611  20.285  16.590   2.604
 6071W        W72612  12.533  24.171  12.842
 6072W        W72613  41.448  32.177   5.092
 6073W        W72614   4.242  17.093   1.118
 6074W        W72615   0.932  18.812  12.848
 6075W        W72616  29.825  26.710  12.916
 6076W        W72617  26.128   0.751  14.474
 6077W        W72618   8.759   9.109   1.699
 6078W        W72619   5.971  27.645  12.952
 6079W        W72620  25.072  19.426   4.466
 6080W        W72621  39.471  24.014   2.726
 6081W        W72622  17.204   4.918   3.669
 6082W        W72623  34.846  37.994  11.518
 6083W        W72624  17.095  33.036  12.351
 6084W        W72625   3.249  29.790  11.604
 6085W        W72626  31.571   8.866   4.193
 6086W        W72627  28.978  15.479   0.732
 6087W        W72628  11.343   8.419  12.027
 6088W        W72629  17.133   1.716  11.514
 6089W        W72630  24.440   2.405   4.774
 6090W        W72631  11.678  41.742  11.490
 6091W        W72632  34.477  27.454  10.690
 6092W        W72633  31.386  40.925  13.588
 6093W        W72634  32.288  35.835   1.486
 6094W        W72635  10.925  33.785   4.157
 6095W        W72636  29.028   6.824   3.364
 6096W        W72637  40.987  22.061  11.249
 6097W        W72638   1.401   6.388   1.277
 6098W        W72639   2.553  44.005  13.858
 6099W        W72640  44.633  38.458  14.240
 6100W        W72641  38.603  32.495  13.055
 6101W        W72642  17.706  29.677  11.359
 6102W        W72643  19.165  20.958  13.231
 6103W        W72644  42.900  29.627   1.459
 6104W        W72645  34.139  32.511  12.825
 6105W        W72646  13.346  29.390   1.631
 6106W        W72647   2.489   4.796   1.081
 6107W        W72648  16.315  38.465   0.683
 6108W        W72649  24.081  24.651   4.894
 6109W        W72650  35.417   0.841   2.813
 6110W        W72651   5.400  23.275   3.644
 6111W        W72652  31.099  17.078  10.977
 6112W        W72653  38.167  13.035  13.315
 6113W        W72654  15.269   2.339  12.632
 6114W        W72655  19.567  15.601   0.235
 6115W        W72656  16.357   1.390   3.588
 6116W        W72657  31.066  38.020   4.108
 6117W        W72658  16.694  39.480   3.694
 6118W        W72659  33.587   4.607  14.919
 6119W        W72660  32.461  22.205  11.549
 6120W        W72661  35.824  31.424   2.928
 6121W        W72662  22.673   4.551   5.020
 6122W        W72663  23.058  30.831  13.201
 6123W        W72664   1.349  31.367   1.872
 6124W        W72665  20.973  15.384   5.229
 6125W        W72666  44.968  29.429   1.003
 6126W        W72667   4.482  39.562  12.878
 6127W        W72668  27.955   3.343   4.604
 6128W        W72669   8.432  23.748  11.479
 6129W        W72670  11.512  42.918   3.681
 6130W        W72671  31.010  27.071   0.948
 6131W        W72672  27.594  44.805   3.660
 6132W        W72673  14.414  11.595  13.848
 6133W        W72674  23.135  38.108   0.944
 6134W        W72675   1.997  20.542   1.275
 6135W        W72676  30.897  27.078  11.062
 6136W        W72677  43.266   3.919   1.870
 6137W        W72678  25.092  28.352  10.650
 6138W        W72679  22.680  22.482   2.622
 6139W        W72680   6.136   3.535  14.318
 6140W        W72681   4.858  23.247   5.118
 6141W        W72682   6.659  19.711  13.512
 6142W        W72683  19.174  27.942  11.300
 6143W        W72684  14.075  31.621  14.940
 6144W        W72685  13.850  39.925  14.314
 6145W        W72686  32.094  10.788   2.444
 6146W        W72687  18.346   9.246   4.672
 6147W        W72688  30.087  31.446   2.447
 6148W        W72689  38.055  31.422   4.374
 6149W        W72690  27.171   3.210  11.611
 6150W        W72691  11.747  10.165   4.928
 6151W        W72692  35.465  26.329   4.833
 6152W        W72693  30.184  35.845   1.833
 6153W        W72694   3.024  13.892   4.583
 6154W        W72695  18.130   6.350  11.628
 6155W        W72696  24.532  35.356   0.920
 6156W        W72697  11.675  34.026  13.504
 6157W        W72698  12.674  21.209   2.516
 6158W        W72699  24.665  13.203   1.455
 6159W        W72700  32.984  22.165   0.910
 6160W        W72701  26.054  11.487   4.374
 6161W        W72702  27.015  43.278  13.357
 6162W        W72703   5.375   9.389  13.848
 6163W        W72704  12.205  29.586  13.808
 6164W        W72705  24.837   7.522  11.100
 6165W        W72706  35.211   7.646  11.635
 6166W        W72707  26.973   2.717  11.576
 6167W        W72708   6.354  41.410   2.210
 6168W        W72709   8.670  12.068   0.727
 6169W        W72710  15.121   3.270   0.347
 6170W        W72711  21.041  44.575   5.359
 6171W        W72712  35.918   8.473  12.345
 6172W        W72713  30.553  12.333  12.589
 6173W        W72714  30.089  23.361  13.066
 6174W        W72715   7.784  37.838  13.662
 6175W        W72716  40.682  43.700   4.812
 6176W        W72717  19.602  41.555  11.132
 6177W        W72718  12.649   7.863   0.399
 6178W        W72719  26.578  23.285  13.070
 6179W        W72720  17.312  18.066   9.689
 6180W        W72721  41.451  31.555   3.359
 6181W        W72722  43.704   1.492  10.991
 6182W        W72723  17.306  10.201  13.365
 6183W        W72724  33.839  44.582  10.875
 6184W        W72725   9.047  34.452   3.254
 6185W        W72726  33.201   9.160  13.935
 6186W        W72727   7.259  43.609   1.475
 6187W        W72728  12.089  22.947   1.895
 6188W        W72729  30.241  42.007  14.932
 6189W        W72730   1.528  42.461  12.357
 6190W        W72731  28.908   1.949  13.960
 6191W        W72732  43.832   5.816  11.742
 6192W        W72733   6.282  34.629  13.781
 6193W        W72734  32.963   9.698   4.063
 6194W        W72735  38.583   2.984   4.511
 6195W        W72736   4.201  23.321   9.778
 6196W        W72737  18.102  27.968   2.775
 6197W        W72738  26.914  34.828   3.739
 6198W        W72739  33.372  36.422  14.296
 6199W        W72740  22.583  39.051   4.606
 6200W        W72741  34.967  29.659   2.136
 6201W        W72742  23.819  14.111  12.146
 6202W        W72743  22.270  17.925  11.082
 6203W        W72744  32.677  39.035   2.738
 6204W        W72745   1.529  12.769  12.076
 6205W        W72746  32.081   2.879  12.217
 6206W        W72747  19.781  11.822   1.548
 6207W        W72748  32.142   4.132  12.705
 6208W        W72749  42.724  31.417  12.352
 6209W        W72750  34.301  11.401  13.795
 6210W        W72751  29.242  28.107  12.400
 6211W        W72752  30.329  21.578  11.834
 6212W        W72753  27.117  31.927  14.352
 6213W        W72754   1.466   3.775   3.280
 6214W        W72755   1.057  41.801  14.413
 6215W        W72756  25.967   0.128   3.905
 6216W        W72757  25.132  27.675   4.672
 6217W        W72758  10.291   6.749  12.930
 6218W        W72759  36.973   6.660  12.728
 6219W        W72760  41.138  20.588  11.120
 6220W        W72761  12.671  27.860   4.842
 6221W        W72762  26.668   6.980   3.838
 6222W        W72763  27.042  40.034   4.217
 6223W        W72764  26.994   2.245  13.134
 6224W        W72765   2.612   9.415   3.542
 6225W        W72766  18.283  34.093  13.067
 6226W        W72767  14.408  22.793  11.524
 6227W        W72768  27.163   5.664  12.425
 6228W        W72769  24.655  38.574   1.961
 6229W        W72770  30.734  27.200  14.924
 6230W        W72771  41.203  37.556  13.390
 6231W        W72772  13.903   8.621  10.733
 6232W        W72773  24.540  29.843   4.795
 6233W        W72774  10.256  40.852  12.981
 6234W        W72775  30.452  27.404  12.636
 6235W        W72776  12.342   3.478  14.806
 6236W        W72777  22.307  25.704  13.795
 6237W        W72778  37.931  41.419   2.746
 6238W        W72779   5.296   4.370   4.277
 6239W        W72780   1.442  32.612   2.150
 6240W        W72781  34.552  35.479   4.054
 6241W        W72782  33.521  27.212   0.304
 6242W        W72783  22.740  37.521   1.391
 6243W        W72784  44.703   3.428   0.814
 6244W        W72785  33.196  30.438  11.619
 6245W        W72786  37.076  13.326   2.818
 6246W        W72787  33.569  38.921  10.941
 6247W        W72788  17.558  25.962  14.450
 6248W        W72789   4.723   4.987   4.970
 6249W        W72790  26.003   7.468   1.805
 6250W        W72791  15.754  28.504  13.101
 6251W        W72792   6.185  22.582   4.700
 6252W        W72793  29.861  32.162   1.538
 6253W        W72794  23.709  26.859  11.548
 6254W        W72795  16.384   2.243   4.754
 6255W        W72796  23.515   0.062  13.809
 6256W        W72797   2.888  34.989   4.942
 6257W        W72798   3.527  41.085   4.154
 6258W        W72799  32.607  27.518   0.783
 6259W        W72800  28.343  43.711   0.638
 6260W        W72801   6.310   6.667  11.573
 6261W        W72802   4.281  13.189  13.035
 6262W        W72803   4.196  14.526   2.853
 6263W        W72804  13.578  42.018   0.256
 6264W        W72805  13.865  20.186   4.668
 6265W        W72806  11.573  13.761   4.801
 6266W        W72807  12.604  31.099   3.739
 6267W        W72808  38.824  16.733   0.341
 6268W        W72809  31.996  23.209  11.443
 6269W        W72810  42.291  26.475  10.951
 6270W        W72811  34.565   4.764   3.845
 6271W        W72812  10.832  29.142   3.836
 6272W        W72813  17.257   4.365   2.761
 6273W        W72814  16.354   6.400   1.794
 6274W        W72815  42.020  35.325  12.483
 6275W        W72816  28.831  21.926   0.342
 6276W        W72817  15.821  41.340   5.076
 6277W        W72818  13.235   4.555   5.259
 6278W        W72819  41.999  11.423   4.757
 6279W        W72820  24.181   1.508   5.085
 6280W        W72821  22.747  43.030  10.997
 6281W        W72822   5.949  41.863   4.136
 6282W        W72823   9.142  44.893  12.197
 6283W        W72824  32.181  25.676   4.179
 6284W        W72825  24.646   7.339  13.111
 6285W        W72826  16.167   9.277  10.666
 6286W        W72827  19.463  35.803   1.781
 6287W        W72828  18.783  41.410   4.953
 6288W        W72829  28.024  25.405  13.091
 6289W        W72830  16.632  35.322   1.164
 6290W        W72831  34.058  34.139   2.901
 6291W        W72832   1.055  34.367  12.505
 6292W        W72833   0.081  31.184   1.525
 6293W        W72834  23.124  19.956   3.177
 6294W        W72835   8.701  34.846  13.433
 6295W        W72836   3.112  21.430  12.882
 6296W        W72837   5.742  17.807   2.018
 6297W        W72838  40.684  27.570  12.029
 6298W        W72839   5.941  17.424  11.055
 6299W        W72840   3.245  16.247   0.733
 6300W        W72841  34.828   7.372   1.855
 6301W        W72842  32.555  36.176  13.966
 6302W        W72843  33.689  39.488   3.118
 6303W        W72844  41.823  15.113  14.470
 6304W        W72845   4.844  11.921   4.147
 6305W        W72846  10.848  21.749   2.253
 6306W        W72847   7.219   5.715   0.579
 6307W        W72848   3.543  31.095  11.742
 6308W        W72849   6.990  21.297   1.439
 6309W        W72850  24.091  31.222  13.658
 6310W        W72851  12.825  40.880   3.763
 6311W        W72852  34.675  43.064  13.909
 6312W        W72853   2.368  17.045  13.047
 6313W        W72854  14.898  30.416  10.677
 6314W        W72855  38.021  26.142   2.319
 6315W        W72856  31.758  37.937  14.250
 6316W        W72857  43.242   7.233  12.471
 6317W        W72858   9.411  22.282  11.349
 6318W        W72859  17.557  28.917  13.971
 6319W        W72860  39.588  38.370   3.753
 6320W        W72861   2.796  22.008   1.828
 6321W        W72862   2.350  42.377  14.068
 6322W        W72863  18.190  41.448  10.737
 6323W        W72864  30.892  43.717   0.202
 6324W        W72865  15.793  29.241   4.970
 6325W        W72866  37.889  20.530   0.759
 6326W        W72867  21.769  41.855  10.703
 6327W        W72868  26.768  24.540   1.398
 6328W        W72869   0.716  13.396   1.270
 6329W        W72870   5.338   4.148  13.051
 6330W        W72871  27.509  14.277   0.212
 6331W        W72872   6.753  11.777   4.696
 6332W        W72873  38.795  14.571  12.361
 6333W        W72874  29.423  34.036   2.764
 6334W        W72875  37.278  32.365   0.745
 6335W        W72876  36.245  30.153  12.537
 6336W        W72877  33.905  21.287  10.995
 6337W        W72878  33.851   7.398  11.611
 6338W        W72879  32.894  23.917  12.026
 6339W        W72880   9.184  33.513  11.625
 6340W        W72881  37.626  22.577  14.052
 6341W        W72882  44.994   2.866  10.363
 6342W        W72883  14.919  21.582  13.877
 6343W        W72884  21.062  16.231  11.588
 6344W        W72885   6.946  14.851   0.792
 6345W        W72886   1.326  41.481  13.334
 6346W        W72887   7.422  35.375   0.223
 6347W        W72888  11.378  12.469  11.142
 6348W        W72889  17.368  17.399   1.177
 6349W        W72890  32.328   4.662   0.305
 6350W        W72891  24.269   8.434   2.257
 6351W        W72892  25.565  36.042   4.662
 6352W        W72893  20.274  35.686  14.050
 6353W        W72894  21.507  17.883   4.931
 6354W        W72895  18.374  11.252   1.232
 6355W        W72896  19.343  24.764  12.749
 6356W        W72897   1.827  17.605  14.695
 6357W        W72898  19.686  17.653   0.928
 6358W        W72899  38.845  25.058  10.909
 6359W        W72900  22.015  36.174  12.550
 6360W        W72901  16.739  27.656   4.644
 6361W        W72902   4.576  26.137   3.963
 6362W        W72903  17.742  23.652  11.870
 6363W        W72904  23.621  10.809   3.268
 6364W        W72905   6.574  10.923  11.594
 6365W        W72906  38.106  36.198   4.595
 6366W        W72907  11.749  15.564  11.911
 6367W        W72908  10.357  34.279   3.649
 6368W        W72909   9.671  15.595   0.010
 6369W        W72910  41.337  36.317   2.738
 6370W        W72911   9.351  13.664   4.164
 6371W        W72912  22.314  40.400  10.779
 6372W        W72913  36.830  13.241  13.968
 6373W        W72914   4.812  39.291   0.255
 6374W        W72915  14.293  44.223   2.908
 6375W        W72916  20.959  38.993   2.646
 6376W        W72917  42.006  42.379   4.865
 6377W        W72918  40.495  35.011  10.866
 6378W        W72919   5.783  41.441   1.442
 6379W        W72920  41.393  16.167  11.150
 6380W        W72921  25.671   2.070  11.042
 6381W        W72922  26.435  29.865  12.642
 6382W        W72923   5.277  25.180  12.122
 6383W        W72924   1.356  15.479  13.117
 6384W        W72925  40.732  11.021  12.463
 6385W        W72926  41.762  33.789   2.871
 6386W        W72927  28.329  38.775   0.927
 6387W        W72928  34.352   9.831   2.629
 6388W        W72929  14.727  23.007   0.991
 6389W        W72930  39.521  43.983   4.687
 6390W        W72931  27.084   3.346  13.540
 6391W        W72932  29.139   4.232   4.939
 6392W        W72933   4.957  36.021   3.228
 6393W        W72934  23.700  11.567   2.782
 6394W        W72935   4.138  11.384  11.103
 6395W        W72936   2.277  27.420  13.383
 6396W        W72937  28.457  28.062   1.756
 6397W        W72938  12.081  43.583  12.768
 6398W        W72939   4.764   6.387  12.585
 6399W        W72940  43.346  34.028   4.604
 6400W        W72941   2.616   3.240   2.228
 6401W        W72942  37.021  35.646  12.488
 6402W        W72943  34.017   3.225  11.690
 6403W        W72944  36.952  40.252   2.333
 6404W        W72945  12.226  17.822   0.896
 6405W        W72946  15.359  44.037   0.017
 6406W        W72947  26.090  11.744   0.389
 6407W        W72948  36.843  11.757   0.035
 6408W        W72949  22.904   5.728  11.675
 6409W        W72950  15.244  38.811   3.254
 6410W        W72951  27.243  44.579  12.355
 6411W        W72952   5.487   7.049   3.118
 6412W        W72953   4.459   3.964  14.962
 6413W        W72954  10.199  14.142   0.563
 6414W        W72955   3.775  25.498  12.679
 6415W        W72956   3.019  20.153   0.012
 6416W        W72957   8.176   5.956  11.169
 6417W        W72958   5.173   1.028   4.021
 6418W        W72959  43.486  27.483   3.261
 6419W        W72960  16.677  30.415   1.339
 6420W        W72961  30.485  37.368   3.698
 6421W        W72962   4.094  21.767  12.942
 6422W        W72963   9.669  41.029   4.148
 6423W        W72964  31.416  19.491   1.262
 6424W        W72965   8.881  24.230   0.585
 6425W        W72966  19.010   6.775  14.472
 6426W        W72967  20.235   7.296   4.363
 6427W        W72968  38.409  10.186  11.573
 6428W        W72969  27.205  28.796  13.592
 6429W        W72970   1.482  42.870   3.331
 6430W        W72971  16.688   3.896  12.003
 6431W        W72972   0.469  10.694   0.374
 6432W        W72973  39.417   4.201   0.048
 6433W        W72974  26.729  37.884  12.310
 6434W        W72975  25.962   5.922   3.667
 6435W        W72976  27.108  11.310   0.123
 6436W        W72977  30.351   9.946  13.373
 6437W        W72978  18.032  36.006  12.420
 6438W        W72979  43.765  25.563   0.166
 6439W        W72980  22.469  19.411   0.099
 6440W        W72981  19.152  28.896   4.290
 6441W        W72982   8.258  33.942  13.469
 6442W        W72983  15.272  38.533   2.721
 6443W        W72984   3.077  44.668  14.149
 6444W        W72985  29.199  25.072  14.518
 6445W        W72986  36.588  24.163   0.811
 6446W        W72987  14.262   5.874   3.232
 6447W        W72988  29.398   8.326   4.384
 6448W        W72989  27.463   6.774   3.888
 6449W        W72990  13.841  44.769  14.620
 6450W        W72991   2.999  16.767   4.663
 6451W        W72992   3.899   2.047  14.366
 6452W        W72993  29.458  13.112   3.805
 6453W        W72994  21.457   2.531  13.866
 6454W        W72995   9.244  35.326  10.800
 6455W        W72996  11.150  29.175  11.202
 6456W        W72997  36.595  20.084   4.833
 6457W        W72998  26.521  19.210   2.690
 6458W        W72999  30.167  20.715   2.707
 6459W        W73000  10.459  27.569   4.600
 6460W        W73001  25.002  37.773   0.660
 6461W        W73002  19.083   0.027  13.409
 6462W        W73003  12.707  12.093   2.594
 6463W        W73004  14.453  30.191  14.967
 6464W        W73005  41.877  29.556   4.251
 6465W        W73006  19.462  26.222  11.172
 6466W        W73007  20.128   8.692   3.143
 6467W        W73008   0.785   1.308   1.850
 6468W        W73009  36.388  39.924   4.193
 6469W        W73010  26.090  42.801   1.763
 6470W        W73011  41.876  43.934  11.983
 6471W        W73012  14.251  35.615  14.832
 6472W        W73013   9.223   1.921  13.919
 6473W        W73014  28.108  17.971   3.788
 6474W        W73015  29.306  42.940   0.431
 6475W        W73016  14.822   8.674  10.733
 6476W        W73017  32.984  42.925   1.193
 6477W        W73018  38.334  12.791  12.884
 6478W        W73019  33.530  31.581  10.214
 6479W        W73020  42.830  41.986   3.139
 6480W        W73021   8.279  25.828   2.765
 6481W        W73022  30.073   9.269  13.033
 6482W        W73023  43.626  20.264   3.865
 6483W        W73024   7.392  42.893   2.164
 6484W        W73025   8.834  10.392   1.023
 6485W        W73026  20.068  23.103  14.364
 6486W        W73027   8.797  40.074  12.534
 6487W        W73028  26.486   0.733   3.162
 6488W        W73029  25.091   3.920  13.916
 6489W        W73030   1.030  29.215   4.563
 6490W        W73031   2.936  37.539   0.407
 6491W        W73032  39.021   8.838   0.964
 6492W        W73033   3.843  14.573  12.902
 6493W        W73034   7.766  25.923   2.811
 6494W        W73035  42.717  27.301  11.165
 6495W        W73036   2.431  25.659  14.092
 6496W        W73037  26.023  42.738   0.793
 6497W        W73038   6.697  33.308  12.563
 6498W        W73039  16.350  33.131   3.735
 6499W        W73040   8.464  19.079   2.405
 6500W        W73041   0.768  23.104   3.583
 6501W        W73042  35.338  27.942   1.325
 6502W        W73043  16.375  26.976  13.330
 6503W        W73044   1.244  37.380   3.189
 6504W        W73045  42.848  22.987  14.344
 6505W        W73046  20.823  34.040   3.189
 6506W        W73047  31.399  22.199   4.225
 6507W        W73048  21.011  41.554   3.244
 6508W        W73049  36.036  39.380   1.469
 6509W        W73050  39.078  38.114   1.245
 6510W        W73051  26.430  19.307  12.927
 6511W        W73052  10.613  22.227  12.127
 6512W        W73053  23.833  11.369   1.468
 6513W        W73054  30.468   2.220  12.100
 6514W        W73055  38.887  10.186   0.731
 6515W        W73056  37.704  12.740   3.148
 6516W        W73057  16.021   7.698   3.565
 6517W        W73058  40.864  42.450  12.019
 6518W        W73059  36.407  16.671   1.267
 6519W        W73060   7.897   5.818  10.757
 6520W        W73061   7.460  16.763   3.375
 6521W        W73062  24.066  22.165   0.734
 6522W        W73063  19.360  44.697  11.418
 6523W        W73064  33.049  24.532   4.356
 6524W        W73065  36.598  40.060   1.860
 6525W        W73066  21.365  27.527  13.282
 6526W        W73067  19.882  17.363   4.543
 6527W        W73068   8.192  14.578  12.353
 6528W        W73069  33.423  34.535   3.346
 6529W        W73070  16.391  35.976   3.822
 6530W        W73071  36.908  22.966   0.516
 6531W        W73072   9.439   3.322  13.062
 6532W        W73073   6.880  43.924   2.879
 6533W        W73074   2.307  33.322  12.252
 6534W        W73075  16.663  41.112  14.337
 6535W        W73076  44.486  16.617  12.960
 6536W        W73077  12.230  31.906  14.890
 6537W        W73078  18.366  41.773   3.682
 6538W        W73079  13.796  10.195  10.733
 6539W        W73080  30.047  13.175  12.902
 6540W        W73081  32.620  25.333  13.639
 6541W        W73082  34.929  15.627   4.093
 6542W        W73083  21.980   6.473   2.310
 6543W        W73084  43.842   1.438  14.142
 6544W        W73085   0.285   0.857  10.697
 6545W        W73086   9.385  38.070  11.093
 6546W        W73087  13.868  33.603   4.260
 6547W        W73088  27.502  12.879  10.871
 6548W        W73089  15.616  39.496   0.433
 6549W        W73090  43.005  31.989  14.867
 6550W        W73091  35.424   1.203   1.324
 6551W        W73092  42.556   9.679   3.924
 6552W        W73093  23.743  20.665   2.604
 6553W        W73094  44.507  30.982  11.058
 6554W        W73095  33.648  27.457  10.944
 6555W        W73096  33.051  37.585   3.416
 6556W        W73097  39.071   5.703   0.801
 6557W        W73098  13.553   1.214   3.761
 6558W        W73099   7.327  16.682  14.320
 6559W        W73100  39.040   2.313   0.832
 6560W        W73101  41.849  25.902   0.995
 6561W        W73102   7.990   9.990  11.645
 6562W        W73103  25.294  15.037   4.611
 6563W        W73104  23.217  38.624   2.671
 6564W        W73105  28.228  27.158   4.360
 6565W        W73106  26.182   9.872   2.845
 6566W        W73107  36.453   5.700  13.692
 6567W        W73108  39.871  38.759  14.869
 6568W        W73109  26.856  39.103  14.708
 6569W        W73110  18.767   7.231   0.331
 6570W        W73111  44.836  44.021  11.771
 6571W        W73112  41.958  42.535   3.382
 6572W        W73113  36.501  17.680  12.622
 6573W        W73114  35.052   8.942   3.670
 6574W        W73115  41.015  14.357  14.009
 6575W        W73116  36.733  25.703  13.799
 6576W        W73117   9.875  41.802  11.933
 6577W        W73118  16.594  34.083   2.652
 6578W        W73119  18.335  34.560   4.272
 6579W        W73120  18.008  22.074   4.172
 6580W        W73121  12.350  34.692   2.285
 6581W        W73122   1.331  13.410  11.666
 6582W        W73123  40.503  26.242   0.980
 6583W        W73124  27.136  13.182  12.036
 6584W        W73125  42.458  43.220   3.923
 6585W        W73126   9.747   2.888   0.293
 6586W        W73127  43.276  40.141  10.972
 6587W        W73128  19.115  31.982   2.827
 6588W        W73129  25.980   4.951  13.615
 6589W        W73130  27.049  34.603  11.703
 6590W        W73131   8.170   8.260   3.623
 6591W        W73132  27.442  31.929   1.744
 6592W        W73133  34.952  18.786  11.509
 6593W        W73134  13.097  15.730   2.219
 6594W        W73135  19.513  31.609  14.892
 6595W        W73136  23.588  33.827  11.569
 6596W        W73137  42.411  12.888   0.303
 6597W        W73138  22.167  32.599   2.395
 6598W        W73139  41.440  25.538  11.469
 6599W        W73140  21.235  41.501   0.861
 6600W        W73141  34.419   6.208   1.308
 6601W        W73142  14.617  35.244  10.229
 6602W        W73143   9.379  28.319   3.639
 6603W        W73144   0.301   8.928   0.765
 6604W        W73145  14.894  29.180  14.175
 6605W        W73146  38.975  39.464   1.210
 6606W        W73147   8.367   2.783  11.472
 6607W        W73148  29.113  31.639  12.602
 6608W        W73149  42.843  35.390   4.087
 6609W        W73150  11.377  36.014  13.514
 6610W        W73151  32.065  23.709  10.762
 6611W        W73152  24.755  29.701  12.574
 6612W        W73153   1.022   2.505  11.950
 6613W        W73154  30.158  37.618  13.101
 6614W        W73155  24.073  22.413   1.211
 6615W        W73156  13.578  20.737  13.424
 6616W        W73157  26.498   9.476   5.033
 6617W        W73158  42.054  24.229   2.456
 6618W        W73159  27.240  19.770   2.870
 6619W        W73160  42.913  15.606  10.548
 6620W        W73161  26.395  39.066   1.914
 6621W        W73162  17.649  33.520   2.102
 6622W        W73163  12.589  27.535   3.814
 6623W        W73164  19.016  34.946  11.165
 6624W        W73165  16.793  44.687   4.534
 6625W        W73166  30.552  29.181  11.726
 6626W        W73167   4.106   1.198  10.020
 6627W        W73168  13.865  14.847   1.438
 6628W        W73169  14.372  40.528   2.192
 6629W        W73170   1.366  11.711  13.061
 6630W        W73171  30.202   0.959   2.309
 6631W        W73172  42.068  14.750   0.414
 6632W        W73173  23.304   9.446  11.679
 6633W        W73174  28.053  43.876   4.602
 6634W        W73175  12.804  44.198   3.692
 6635W        W73176  11.960  43.982   1.674
 6636W        W73177  23.093  15.164  11.306
 6637W        W73178  36.498  21.880   1.675
 6638W        W73179  42.663  34.861  12.885
 6639W        W73180  19.805  23.024  14.876
 6640W        W73181  22.923  25.731  11.955
 6641W        W73182  33.064  21.229   4.228
 6642W        W73183   4.211  37.754  10.980
 6643W        W73184  22.207   6.915  14.528
 6644W        W73185  29.638  41.573   2.187
 6645W        W73186  16.839  13.302   1.749
 6646W        W73187  24.940  34.359   1.803
 6647W        W73188  39.751  43.956  12.596
 6648W        W73189  29.172  21.143   3.119
 6649W        W73190   0.367  37.794   0.151
 6650W        W73191  29.008   3.470   1.791
 6651W        W73192  35.894  19.166  13.716
 6652W        W73193  27.483  18.257   2.605
 6653W        W73194   8.457  37.931   2.169
 6654W        W73195  36.857  21.067  13.441
 6655W        W73196   3.247  42.800   2.820
 6656W        W73197  39.024  21.152   0.776
 6657W        W73198  42.787  18.197  11.067
 6658W        W73199  18.921  10.698  14.494
 6659W        W73200   5.685  27.269   3.601
 6660W        W73201  19.315   4.369   3.805
 6661W        W73202  14.982  25.009  13.574
 6662W        W73203  25.570  14.125   0.364
 6663W        W73204  19.077  22.191   0.524
 6664W        W73205  29.207  11.168   2.470
 6665W        W73206   7.751  18.202  12.671
 6666W        W73207  21.286  37.032  14.798
 6667W        W73208  28.430  15.895  12.504
 6668W        W73209  21.696  38.596  12.020
 6669W        W73210   4.757   2.408  12.589
 6670W        W73211   9.315  24.083   3.724
 6671W        W73212  20.200   6.895   3.049
 6672W        W73213   8.753  14.851   0.240
 6673W        W73214  23.556  35.892   2.501
 6674W        W73215  23.946   6.329  11.334
 6675W        W73216  18.114  39.756   3.717
 6676W        W73217   8.740  10.392   1.559
 6677W        W73218  28.553  12.111  10.495
 6678W        W73219   9.249  39.538   2.657
 6679W        W73220   0.959   7.852   0.448
 6680W        W73221   1.176  29.744  10.719
 6681W        W73222  32.486  23.968  13.782
 6682W        W73223  30.451  43.622  11.542
 6683W        W73224   7.918  34.552  10.794
 6684W        W73225  41.819   7.949   0.962
 6685W        W73226  17.152   0.492   4.817
 6686W        W73227   5.343  36.626  12.037
 6687W        W73228  30.993  27.694  11.802
 6688W        W73229  39.588  33.955  12.908
 6689W        W73230   2.107  39.095  10.054
 6690W        W73231  38.811  44.589   3.433
 6691W        W73232  16.258  29.665   4.174
 6692W        W73233   1.585  26.749   2.309
 6693W        W73234   9.146  10.550  12.197
 6694W        W73235  15.890   7.931   2.340
 6695W        W73236  36.439   4.821   4.625
 6696W        W73237  36.086   0.043   4.532
 6697W        W73238   7.859  10.244   3.200
 6698W        W73239  19.518  19.756  14.386
 6699W        W73240   7.355   3.306   0.458
 6700W        W73241  18.355  32.941  10.926
 6701W        W73242  19.076  12.862   9.629
 6702W        W73243   8.851  17.985  13.328
 6703W        W73244  24.786  12.735  12.148
 6704W        W73245  42.806  33.449   1.805
 6705W        W73246  23.918   0.974  10.708
 6706W        W73247  41.105  42.284   0.344
 6707W        W73248  35.360  21.107  12.618
 6708W        W73249  37.419  26.092  10.548
 6709W        W73250  36.850  24.592   3.397
 6710W        W73251  28.647  43.296   4.121
 6711W        W73252  35.602   7.541  12.679
 6712W        W73253   8.399   4.867  10.769
 6713W        W73254  24.743  42.486   1.175
 6714W        W73255  22.988  20.938  11.099
 6715W        W73256  14.792  10.328   3.778
 6716W        W73257  12.371  16.805   0.987
 6717W        W73258  40.532  13.799   3.166
 6718W        W73259  28.824  16.400  14.786
 6719W        W73260  30.483  24.078   1.431
 6720W        W73261  41.960   4.203  13.491
 6721W        W73262  21.176   5.861   1.011
 6722W        W73263  25.469  22.689  12.502
 6723W        W73264  39.499  17.832  14.841
 6724W        W73265   5.503  28.335  11.086
 6725W        W73266  40.283  33.655  11.810
 6726W        W73267  13.985   2.717  11.140
 6727W        W73268  21.761  36.128   4.491
 6728W        W73269  20.577  37.170  13.479
 6729W        W73270  34.647  42.983   3.246
 6730W        W73271  18.399  37.413   1.101
 6731W        W73272  37.721  43.456  12.082
 6732W        W73273  17.069  19.985   2.042
 6733W        W73274  14.800  26.919  11.376
 6734W        W73275   2.773  36.942   3.271
 6735W        W73276   4.256  17.175  10.494
 6736W        W73277  24.398   9.970   2.443
 6737W        W73278  13.076  28.795   4.098
 6738W        W73279  26.958  24.806   0.011
 6739W        W73280  41.576  10.672   1.752
 6740W        W73281  37.030   0.066   2.268
 6741W        W73282  44.460  13.477   3.488
 6742W        W73283  17.353  22.661   3.238
 6743W        W73284  22.109  44.340  12.512
 6744W        W73285  16.489  42.784  10.713
 6745W        W73286  20.050  44.467   3.688
 6746W        W73287  43.215  26.386   0.313
 6747W        W73288  42.716  10.855  11.536
 6748W        W73289  13.629  10.773   4.618
 6749W        W73290  18.556  34.884  13.977
 6750W        W73291  42.466  37.958   2.409
 6751W        W73292   4.290   2.633   1.233
 6752W        W73293  12.046  11.382   2.970
 6753W        W73294  30.674  24.535  11.712
 6754W        W73295   4.219  37.957   2.894
 6755W        W73296  10.293  32.523   3.039
 6756W        W73297  25.490   7.796  14.426
 6757W        W73298   2.962  26.178   2.766
 6758W        W73299   7.101  19.219  12.041
 6759W        W73300  27.150  23.200  14.119
 6760W        W73301  29.958  32.621  14.060
 6761W        W73302  13.119   7.177  11.378
 6762W        W73303   9.474  11.407  11.168
 6763W        W73304   4.917  35.413   2.368
 6764W        W73305  19.265  26.556  11.922
 6765W        W73306  15.270  36.819   0.602
 6766W        W73307  20.188   8.915  11.586
 6767W        W73308   7.908   3.972   0.398
 6768W        W73309   1.266  23.437  12.812
 6769W        W73310  41.775  33.338  13.488
 6770W        W73311  31.106  34.389   3.811
 6771W        W73312  14.166  35.077  11.254
 6772W        W73313   6.139   8.253   0.282
 6773W        W73314  13.118  20.456   2.212
 6774W        W73315  24.496   1.637  10.796
 6775W        W73316  40.383  12.866  12.067
 6776W        W73317  32.322   2.737  13.947
 6777W        W73318  29.052  12.157   0.317
 6778W        W73319  28.525   9.263   1.919
 6779W        W73320  43.873  20.676   3.246
 6780W        W73321  18.842   0.691  13.291
 6781W        W73322  10.717   6.853  12.547
 6782W        W73323  34.497  14.066   0.565
 6783W        W73324  34.908   7.921   1.173
 6784W        W73325  37.609  27.696  14.489
 6785W        W73326  21.124   3.255  10.436
 6786W        W73327  16.769  22.801  11.620
 6787W        W73328  34.036   9.365  14.406
 6788W        W73329  41.019  20.720  13.097
 6789W        W73330  40.139   7.889   2.728
 6790W        W73331  18.626  35.041   0.539
 6791W        W73332  12.482  18.181  10.736
 6792W        W73333  10.189  12.114  14.795
 6793W        W73334  25.569  38.932  12.142
 6794W        W73335  26.216  40.574   0.348
 6795W        W73336  44.446  21.989   0.859
 6796W        W73337  40.864  23.210   4.415
 6797W        W73338  37.335   8.286   4.082
 6798W        W73339  13.443  26.449  11.674
 6799W        W73340  17.693  24.026   0.513
 6800W        W73341  35.491  26.118   0.692
 6801W        W73342  36.366  22.179  13.461
 6802W        W73343  42.958  31.897  11.547
 6803W        W73344  11.371  23.223   2.210
 6804W        W73345  34.569  24.431   1.913
 6805W        W73346  32.730   0.451   0.326
 6806W        W73347  22.569  35.443  11.710
 6807W        W73348   4.261  17.398  13.765
 6808W        W73349  40.928  27.593   0.040
 6809W        W73350  27.676  15.986  14.327
 6810W        W73351  19.130   5.605  10.083
 6811W        W73352  30.345  42.933  13.073
 6812W        W73353  33.325  15.473  10.998
 6813W        W73354  37.089  43.345  14.233
 6814W        W73355  41.055  35.718  13.526
 6815W        W73356   4.908  13.636  11.183
 6816W        W73357  27.928  32.537  13.236
 6817W        W73358  26.120  39.133   0.424
 6818W        W73359  17.045  27.243   4.574
 6819W        W73360  10.419  17.149   3.665
 6820W        W73361  23.499   8.717   2.712
 6821W        W73362   0.390  10.671   1.790
 6822W        W73363   0.818  26.068   3.370
 6823W        W73364  41.980  29.099  12.576
 6824W        W73365   5.172  21.528   1.411
 6825W        W73366  44.113  17.859   4.297
 6826W        W73367   1.110  40.893   4.320
 6827W        W73368  43.275  23.656   1.896
 6828W        W73369  42.369   9.933  11.608
 6829W        W73370  44.187  34.423   4.891
 6830W        W73371   8.261  22.202   1.332
 6831W        W73372   1.442  30.688   4.742
 6832W        W73373   5.539  30.977   0.349
 6833W        W73374  12.875   3.566  11.137
 6834W        W73375  19.296   7.697   2.783
 6835W        W73376  43.784  35.167   2.757
 6836W        W73377   6.213  12.744  11.144
 6837W        W73378  20.068  39.310   1.191
 6838W        W73379  12.775  37.249   1.385
 6839W        W73380  30.678   1.892   2.855
 6840W        W73381  30.382   3.944  10.257
 6841W        W73382  22.208  25.454  13.289
 6842W        W73383  32.859  14.316  12.488
 6843W        W73384  16.285  18.004  11.268
 6844W        W73385  14.135  16.332  12.108
 6845W        W73386   7.773  40.230  12.401
 6846W        W73387  19.275  37.764  13.805
 6847W        W73388  32.723   5.888  14.830
 6848W        W73389  35.095  34.831   2.273
 6849W        W73390   7.136  28.897  11.211
 6850W        W73391  11.861   9.804  14.956
 6851W        W73392   5.806  31.965  13.861
 6852W        W73393  28.862  21.495   2.373
 6853W        W73394  33.289  21.771  10.618
 6854W        W73395  15.059   3.280  13.432
 6855W        W73396  30.979   1.030   0.823
 6856W        W73397  24.300  43.704   2.642
 6857W        W73398  10.758   7.181   4.206
 6858W        W73399  19.720  10.905  12.407
 6859W        W73400  20.686  17.339  14.518
 6860W        W73401  35.316  20.852  11.908
 6861W        W73402  21.999  33.028   4.648
 6862W        W73403  17.385  20.517  14.228
 6863W        W73404  40.080  34.604   1.479
 6864W        W73405  14.593  32.727  10.813
 6865W        W73406   3.398  13.963   0.256
 6866W        W73407   6.700   6.649   3.732
 6867W        W73408  19.282  32.551   0.214
 6868W        W73409  24.797  44.574   1.013
 6869W        W73410  25.313   4.243   3.123
 6870W        W73411  20.369  42.044  12.421
 6871W        W73412  13.706   8.165   2.746
 6872W        W73413  32.890  18.726  13.832
 6873W        W73414  11.378  38.482   4.615
 6874W        W73415  26.819  26.641  13.069
 6875W        W73416  39.839   7.214  11.418
 6876W        W73417  24.548  10.701   3.415
 6877W        W73418   6.172   7.109   0.712
 6878W        W73419  17.776  26.673   2.662
 6879W        W73420  28.955   5.468   0.705
 6880W        W73421  14.826  26.098   1.869
 6881W        W73422  37.941  11.487  11.989
 6882W        W73423  23.395  24.688   1.398
 6883W        W73424   5.804  39.956   3.596
 6884W        W73425   7.037   1.272   1.310
 6885W        W73426  14.176  19.792   0.261
 6886W        W73427  40.560  10.245   3.021
 6887W        W73428  23.264  38.443   1.711
 6888W        W73429  27.958  23.078  12.007
 6889W        W73430  26.575  39.217   1.427
 6890W        W73431  18.199  18.683  10.590
 6891W        W73432  33.272  41.968   3.354
 6892W        W73433  33.435  40.610   4.001
 6893W        W73434  36.521  16.681   2.632
 6894W        W73435  11.551  10.336  11.142
 6895W        W73436   5.065  39.512   4.181
 6896W        W73437  12.713  17.744   3.856
 6897W        W73438  43.436  39.961  14.265
 6898W        W73439  42.052  31.229  13.696
 6899W        W73440  29.499   9.824  14.738
 6900W        W73441  42.795  42.022   0.807
 6901W        W73442  14.638  24.247   4.153
 6902W        W73443  40.252  31.052  12.045
 6903W        W73444   3.923  27.381  11.415
 6904W        W73445  40.080  19.074  11.970
 6905W        W73446  28.586   1.200  14.001
 6906W        W73447  17.303  22.801  14.116
 6907W        W73448  29.635  27.653   3.197
 6908W        W73449   1.444  10.127   2.910
 6909W        W73450  12.714  41.602   2.645
 6910W        W73451  11.930  21.531   0.337
 6911W        W73452  41.027  20.674   4.582
 6912W        W73453  16.774  37.752   3.753
 6913W        W73454  30.818  38.929  13.943
 6914W        W73455  14.025  19.659  11.844
 6915W        W73456  39.446  33.760  14.067
 6916W        W73457  11.794  29.967   0.716
 6917W        W73458  28.009   1.013  10.562
 6918W        W73459  25.537   2.119  10.205
 6919W        W73460  36.067  42.503   0.796
 6920W        W73461  13.849  25.203   0.145
 6921W        W73462  36.967  34.125   0.015
 6922W        W73463  12.136  10.316  12.179
 6923W        W73464  23.899  36.245   0.864
 6924W        W73465  35.667   0.356  11.400
 6925W        W73466  30.076   1.336   4.964
 6926W        W73467  20.409  18.075  10.683
 6927W        W73468  23.588  28.845   1.657
 6928W        W73469   9.839  42.217   0.419
 6929W        W73470   2.272  25.486   0.018
 6930W        W73471  37.595  15.982  12.062
 6931W        W73472  17.403  32.907  10.613
 6932W        W73473   9.649  24.488  10.896
 6933W        W73474  30.667  41.549  10.593
 6934W        W73475  40.702   4.522  11.208
 6935W        W73476  26.261   6.306  10.982
 6936W        W73477  34.162  24.678  14.949
 6937W        W73478  15.109  25.596  11.604
 6938W        W73479  21.784  32.363  14.933
 6939W        W73480  40.819  30.003  14.438
 6940W        W73481  21.038   2.214  13.771
 6941W        W73482  19.614   8.716   3.316
 6942W        W73483  42.408  18.256  12.892
 6943W        W73484  36.852   1.902  14.741
 6944W        W73485  17.560   4.677   1.322
 6945W        W73486  43.839  40.962  10.843
 6946W        W73487  14.496  25.016  13.415
 6947W        W73488  15.525   7.225  12.381
 6948W        W73489  26.377  12.103  12.127
 6949W        W73490  17.039   6.364   2.905
 6950W        W73491  14.860  19.639  11.517
 6951W        W73492  40.593  28.901  13.912
 6952W        W73493   9.664  24.339  11.532
 6953W        W73494  12.045  30.732   1.315
 6954W        W73495  27.138  22.093   0.844
 6955W        W73496  36.006  29.364   4.132
 6956W        W73497  32.450  35.078  14.363
 6957W        W73498   4.651   7.585   4.485
 6958W        W73499  10.074  36.505  13.137
 6959W        W73500  30.433   9.434  14.433
 6960W        W73501  19.653  10.139  14.329
 6961W        W73502   8.937  42.777   5.250
 6962W        W73503  36.970  18.999   4.168
 6963W        W73504  12.213  36.547   1.793
 6964W        W73505  35.496  33.827   4.261
 6965W        W73506   4.969   3.372   2.636
 6966W        W73507   0.367  26.021  10.950
 6967W        W73508  21.085  39.382  12.066
 6968W        W73509  14.148  23.129   4.638
 6969W        W73510  39.080  33.500   0.345
 6970W        W73511  14.855  17.173  10.600
 6971W        W73512  12.621  29.080   4.250
 6972W        W73513  28.520  34.980  13.477
 6973W        W73514   8.947  32.329   2.894
 6974W        W73515   5.509  19.977   2.990
 6975W        W73516   8.446  18.613   2.643
 6976W        W73517  26.185  39.911   0.942
 6977W        W73518   4.893   0.086   0.391
 6978W        W73519  13.410  25.387  14.923
 6979W        W73520  35.130  20.827   0.217
 6980W        W73521  22.051  31.662  11.637
 6981W        W73522  16.591  41.693   3.085
 6982W        W73523  43.375  23.065  12.507
 6983W        W73524   7.923   6.828   3.170
 6984W        W73525  20.032  29.141   3.995
 6985W        W73526  23.507   3.174   3.639
 6986W        W73527   2.661  10.379  14.496
 6987W        W73528  27.147  25.431  12.568
 6988W        W73529  29.453  36.658   0.964
 6989W        W73530  21.471  18.543   2.939
 6990W        W73531   6.073  11.720  14.419
 6991W        W73532  32.197  22.601  13.099
 6992W        W73533  31.403   5.995  13.828
 6993W        W73534  30.644  26.554  11.142
 6994W        W73535  30.248   5.093  11.670
 6995W        W73536  28.903  18.770  13.999
 6996W        W73537  36.960  20.160   3.086
 6997W        W73538  23.293  41.664  11.065
 6998W        W73539  42.777  17.977   0.437
 6999W        W73540   7.212  10.349   0.750
 7000W        W73541  25.118  36.710   2.823
 7001W        W73542  13.621  17.358  13.531
 7002W        W73543  16.653  37.344   0.992
 7003W        W73544  11.085  33.350   2.552
 7004W        W73545  29.905   2.494   2.744
 7005W        W73546  29.600  40.817  13.755
 7006W        W73547  40.276  34.647   4.589
 7007W        W73548   1.187  18.741   3.220
 7008W        W73549  37.380   3.423  13.399
 7009W        W73550  44.525  16.218   1.000
 7010W        W73551  40.278  19.190   0.792
 7011W        W73552  21.638  28.172  12.112
 7012W        W73553   3.457  19.526   1.132
 7013W        W73554  12.836  36.680  11.709
 7014W        W73555  41.518   2.308   2.789
 7015W        W73556  38.412  33.216  12.512
 7016W        W73557  11.966  22.262  13.280
 7017W        W73558   3.710  12.807   2.939
 7018W        W73559   7.651  41.602   2.257
 7019W        W73560  41.868   8.974  11.998
 7020W        W73561  28.723  15.652  13.784
 7021W        W73562  30.618  19.128  13.507
 7022W        W73563   0.981   7.673   0.954
 7023W        W73564  29.505  39.666   3.464
 7024W        W73565  31.469  13.403  13.910
 7025W        W73566   7.834  36.281  10.228
 7026W        W73567  42.497  36.992   1.983
 7027W        W73568   6.383  15.153   2.677
 7028W        W73569   6.488  34.884  14.544
 7029W        W73570   0.792  16.122   0.017
 7030W        W73571  20.109  44.884   4.005
 7031W        W73572   5.110   4.790   1.003
 7032W        W73573  14.816  33.537   3.986
 7033W        W73574  25.312   9.226   4.460
 7034W        W73575  29.952  16.759  12.189
 7035W        W73576   1.813   1.764  13.521
 7036W        W73577   5.772  42.889   0.328
 7037W        W73578  42.621  27.364   3.578
 7038W        W73579  30.453  27.961  14.465
 7039W        W73580  34.120  42.038   1.705
 7040W        W73581  16.667  23.272  10.858
 7041W        W73582  37.591   9.115   3.690
 7042W        W73583  32.388  39.003  10.544
 7043W        W73584  43.509  10.869  12.903
 7044W        W73585   6.117   0.813  10.289
 7045W        W73586   5.714  42.609   1.779
 7046W        W73587  21.103  15.267   1.337
 7047W        W73588  23.840  30.933   4.246
 7048W        W73589  27.461   7.787   3.368
 7049W        W73590  36.529  23.370  13.108
 7050W        W73591  40.370  18.702   5.032
 7051W        W73592  42.322  42.772  11.974
 7052W        W73593  25.775  30.430   3.686
 7053W        W73594  16.267   2.835   3.711
 7054W        W73595  25.211  33.666   1.218
 7055W        W73596  13.518  27.902   3.656
 7056W        W73597   1.168   0.479   0.916
 7057W        W73598  12.625  16.762   1.463
 7058W        W73599  32.882  31.544  12.087
 7059W        W73600   9.684  40.989   1.289
 7060W        W73601  36.029   7.192   3.098
 7061W        W73602  22.884  34.876   4.994
 7062W        W73603   2.430  41.229   1.215
 7063W        W73604  21.466   9.784   2.744
 7064W        W73605  42.231  33.507   5.008
 7065W        W73606  34.322  39.334   3.568
 7066W        W73607  24.583   2.531  13.005
 7067W        W73608   7.614   5.828  12.494
 7068W        W73609  41.787   6.753  12.435
 7069W        W73610  27.928  33.445  11.966
 7070W        W73611  27.573  41.489   2.530
 7071W        W73612  19.754   3.198  12.859
 7072W        W73613  24.026  29.660   1.794
 7073W        W73614  18.612  10.772   4.602
 7074W        W73615  29.879  28.897  13.708
 7075W        W73616  25.837  26.598  10.498
 7076W        W73617  32.158  14.650   0.717
 7077W        W73618   1.852  43.567  14.855
 7078W        W73619  39.986  19.605   4.627
 7079W        W73620  40.107  40.022   2.293
 7080W        W73621   4.172   1.410   4.021
 7081W        W73622  38.396  36.521  13.073
 7082W        W73623  25.568  41.946   0.975
 7083W        W73624  22.050  14.260   2.699
 7084W        W73625  20.331  12.198  11.906
 7085W        W73626   8.291  22.303   4.550
 7086W        W73627  19.838   4.291   2.434
 7087W        W73628  32.095  14.802  10.515
 7088W        W73629   9.977   8.278  12.318
 7089W        W73630   6.485  28.085  10.002
 7090W        W73631  31.544  39.553  13.775
 7091W        W73632   3.191  34.940   0.775
 7092W        W73633  37.024   7.498   1.350
 7093W        W73634  29.079  44.596   2.275
 7094W        W73635  42.571   7.333  11.506
 7095W        W73636  10.372   0.225   0.198
 7096W        W73637   1.295  40.090   4.111
 7097W        W73638   4.420  15.109  13.384
 7098W        W73639   3.107   1.409  14.522
 7099W        W73640  11.530   2.316  12.009
 7100W        W73641  31.536   6.805   1.771
 7101W        W73642   1.693  34.351  11.657
 7102W        W73643   1.385  24.561  12.056
 7103W        W73644  13.659  23.418  11.570
 7104W        W73645  30.958  22.282   0.451
 7105W        W73646  18.188  18.778   3.233
 7106W        W73647  20.256  36.342  14.361
 7107W        W73648  36.923  24.250  12.757
 7108W        W73649  34.856  35.299  10.837
 7109W        W73650  13.109  26.291   0.961
 7110W        W73651  34.173  11.301   0.715
 7111W        W73652  24.440  23.677   3.195
 7112W        W73653  31.005  25.137  12.505
 7113W        W73654  36.451  44.144   2.872
 7114W        W73655  17.071  35.451  12.598
 7115W        W73656  13.804  21.025  13.001
 7116W        W73657  36.931  36.134  11.716
 7117W        W73658  21.968  28.230   3.230
 7118W        W73659  31.707  40.438  10.785
 7119W        W73660  31.054  38.519   1.881
 7120W        W73661   8.949  41.719   3.303
 7121W        W73662  23.283  34.016  10.623
 7122W        W73663  32.424  15.718   1.391
 7123W        W73664  16.361  19.659   4.512
 7124W        W73665  35.833  27.683  12.432
 7125W        W73666  11.266  40.721   3.764
 7126W        W73667  12.921  44.873   2.372
 7127W        W73668   6.462  32.118   3.066
 7128W        W73669  31.005  26.857   2.590
 7129W        W73670   1.834   4.304  11.200
 7130W        W73671  18.483  42.628  14.856
 7131W        W73672  43.239  28.357  13.419
 7132W        W73673  42.310  17.007   0.779
 7133W        W73674   9.187  13.666  13.969
 7134W        W73675   5.216  13.288   3.996
 7135W        W73676  18.615   3.891  12.305
 7136W        W73677   2.819  40.559   3.290
 7137W        W73678  23.164  41.551  14.915
 7138W        W73679  28.209  32.546   2.867
 7139W        W73680  27.153  20.843   1.347
 7140W        W73681  32.101  12.344   0.393
 7141W        W73682  21.116  18.288   3.195
 7142W        W73683  35.750  10.395  12.009
 7143W        W73684   9.676  20.072  11.062
 7144W        W73685   7.904  31.553  12.815
 7145W        W73686  38.614  33.875   3.674
 7146W        W73687  35.110  15.208   4.397
 7147W        W73688  31.472  15.150   4.094
 7148W        W73689   8.771  38.002  12.416
 7149W        W73690  20.625  16.392  10.663
 7150W        W73691  26.433  37.067  10.062
 7151W        W73692  15.217   0.002   4.389
 7152W        W73693  19.458  10.793   3.749
 7153W        W73694   0.011  24.522  11.994
 7154W        W73695   0.947   7.546  14.917
 7155W        W73696  40.057   6.108  14.273
 7156W        W73697   5.404  22.200  12.050
 7157W        W73698  13.459  22.852  14.573
 7158W        W73699   0.944  22.231  10.220
 7159W        W73700   5.641  20.692   1.659
 7160W        W73701  17.732   8.753   5.062
 7161W        W73702   1.284  22.201   2.209
 7162W        W73703  30.339  25.985   1.435
 7163W        W73704  27.983  41.791  11.631
 7164W        W73705  18.360   0.463  14.028
 7165W        W73706  14.626  31.503   0.719
 7166W        W73707  27.778  34.073   1.052
 7167W        W73708   7.149  29.917  12.514
 7168W        W73709  26.316   0.854  10.432
 7169W        W73710  32.402  13.224   2.768
 7170W        W73711   4.069  31.842   0.717
 7171W        W73712  43.422  20.684  12.561
 7172W        W73713  19.894   6.968   4.533
 7173W        W73714  14.571  44.373  12.998
 7174W        W73715  40.647   3.786  11.729
 7175W        W73716  10.186  19.185   0.901
 7176W        W73717  19.667   2.023  13.940
 7177W        W73718  11.202  28.291   0.172
 7178W        W73719   6.138  24.490  12.476
 7179W        W73720  25.747  37.501  14.027
 7180W        W73721  35.183   4.435  11.175
 7181W        W73722  44.080  12.776  10.527
 7182W        W73723  27.684  27.153  13.556
 7183W        W73724  25.726  43.578   4.947
 7184W        W73725  42.840  31.423   0.940
 7185W        W73726  37.330  28.024   0.825
 7186W        W73727  23.488  16.020  13.032
 7187W        W73728  43.920  37.656   4.729
 7188W        W73729  11.647   9.131  13.859
 7189W        W73730  24.632  18.742   2.118
 7190W        W73731   6.394  32.320  14.179
 7191W        W73732  22.302  24.115   2.430
 7192W        W73733  44.385  11.734   0.190
 7193W        W73734  31.562  44.943   0.810
 7194W        W73735   6.688  23.547   0.813
 7195W        W73736  26.931  16.204   4.917
 7196W        W73737  42.699  31.044  14.457
 7197W        W73738  25.450  40.445   0.925
 7198W        W73739   5.158  35.217  10.331
 7199W        W73740  18.508  30.896   4.700
 7200W        W73741  12.746  31.663  13.895
 7201W        W73742  42.513  28.506   2.345
 7202W        W73743  24.228  27.441  13.016
 7203W        W73744  29.166  14.263   4.938
 7204W        W73745   7.588  18.313   1.386
 7205W        W73746  38.562  42.245   4.523
 7206W        W73747  21.037   1.711  13.951
 7207W        W73748  18.635   7.922   1.658
 7208W        W73749   0.347  14.009   0.954
 7209W        W73750   8.665  31.738   9.947
 7210W        W73751   2.760   0.546   0.927
 7211W        W73752  26.999  38.753  10.579
 7212W        W73753  17.234  33.362   0.473
 7213W        W73754   0.239  37.110   0.876
 7214W        W73755  13.583  10.240  13.936
 7215W        W73756  31.114  40.933  14.246
 7216W        W73757  42.984  38.337  12.673
 7217W        W73758  44.938  41.351  10.770
 7218W        W73759  25.262  30.854   4.150
 7219W        W73760  11.186  42.420   4.308
 7220W        W73761  39.628  30.518   2.146
 7221W        W73762  19.651  20.045  11.645
 7222W        W73763   6.498   1.394  11.382
 7223W        W73764  20.578  11.801  12.958
 7224W        W73765  27.183  15.048  12.178
 7225W        W73766  36.053  32.541   4.177
 7226W        W73767  13.448  12.298  14.362
 7227W        W73768  44.261  16.718   0.257
 7228W        W73769   6.550  39.769  12.142
 7229W        W73770  25.357   4.334   2.191
 7230W        W73771  40.863  35.089  10.506
 7231W        W73772   7.296  36.979  12.605
 7232W        W73773  14.673  18.502  12.895
 7233W        W73774  32.947  42.016  13.940
 7234W        W73775  33.915  36.949   0.220
 7235W        W73776  44.333  44.294   4.090
 7236W        W73777  29.902  10.839   4.856
 7237W        W73778  21.943  17.127   2.836
 7238W        W73779   7.245  34.517   0.861
 7239W        W73780  11.252   5.334  14.468
 7240W        W73781   0.965  17.196   3.403
 7241W        W73782  37.209   4.720   2.552
 7242W        W73783  26.043  22.177  12.663
 7243W        W73784  20.464  34.172  13.420
 7244W        W73785  22.908  13.304  13.523
 7245W        W73786   7.352   3.403  12.394
 7246W        W73787  34.489   1.738   4.136
 7247W        W73788  39.821  31.928   1.861
 7248W        W73789   3.436   5.516  10.567
 7249W        W73790  21.188  14.878   4.400
 7250W        W73791  40.467   8.964  11.921
 7251W        W73792  38.769  13.867  11.755
 7252W        W73793  12.656  35.694   1.862
 7253W        W73794  40.864  33.670  12.738
 7254W        W73795   6.501  11.436  13.533
 7255W        W73796  33.007  22.690   1.124
 7256W        W73797  24.874  30.323   0.681
 7257W        W73798   1.365  30.845   1.907
 7258W        W73799  23.477   3.760  12.991
 7259W        W73800  32.844  44.546  13.967
 7260W        W73801   5.464  11.283  13.785
 7261W        W73802  39.018  31.578  10.146
 7262W        W73803  28.575  31.750   4.873
 7263W        W73804  14.251  28.122  10.726
 7264W        W73805  30.815  12.088  10.619
 7265W        W73806   5.759  40.742  12.292
 7266W        W73807  16.248  12.878  12.934
 7267W        W73808  30.009   8.165  14.482
 7268W        W73809  13.408   3.832  12.433
 7269W        W73810   3.347  28.290   2.417
 7270W        W73811   5.808  24.117  11.233
 7271W        W73812  27.376  43.970  13.013
 7272W        W73813  16.734  13.795   1.669
 7273W        W73814  35.131   8.706  13.134
 7274W        W73815  32.399   7.207  14.592
 7275W        W73816   9.718   6.255  14.835
 7276W        W73817  37.368  21.691  14.731
 7277W        W73818  16.025  42.503  10.744
 7278W        W73819   3.485  16.665   4.907
 7279W        W73820  43.087  12.781  10.367
 7280W        W73821  27.237  43.964   3.253
 7281W        W73822  21.558  38.877  14.398
 7282W        W73823  38.969   4.935   2.158
 7283W        W73824  18.082  11.199  13.072
 7284W        W73825  32.889   8.838   1.226
 7285W        W73826  35.325  42.502  14.440
 7286W        W73827  41.662  42.900  11.168
 7287W        W73828  16.676  27.613   0.387
 7288W        W73829  44.123  31.915  10.229
 7289W        W73830  14.855  23.672  13.524
 7290W        W73831   1.311   0.474  12.538
 7291W        W73832  22.039  36.637   3.254
 7292W        W73833  41.027  37.344  13.832
 7293W        W73834   7.861  10.426   2.324
 7294W        W73835  11.667  15.545   3.745
 7295W        W73836   1.716  32.084   1.732
 7296W        W73837  12.267  21.291   2.194
 7297W        W73838  33.589  15.869   4.386
 7298W        W73839  25.485  22.093   1.319
 7299W        W73840  27.800  36.833  13.131
 7300W        W73841  16.833   9.688  14.397
 7301W        W73842  27.040  13.683   2.260
 7302W        W73843  30.493  30.486  14.565
 7303W        W73844  33.848   7.407  12.121
 7304W        W73845  27.644   1.182   2.809
 7305W        W73846   4.707  34.427   3.855
 7306W        W73847  18.232  21.217  14.880
 7307W        W73848  41.293  13.768  14.737
 7308W        W73849  13.169  41.254   0.505
 7309W        W73850   9.160  36.475   3.692
 7310W        W73851  34.696  36.801   4.505
 7311W        W73852  38.265  26.605   1.892
 7312W        W73853  10.221  32.990  12.994
 7313W        W73854  11.185  10.370  12.410
 7314W        W73855  22.658  11.814   1.937
 7315W        W73856  27.110  34.619   1.599
 7316W        W73857   1.840  13.988  11.175
 7317W        W73858  10.449  23.428   4.232
 7318W        W73859  14.271  10.196  12.612
 7319W        W73860   3.698  32.417  13.478
 7320W        W73861  28.111  35.092   3.783
 7321W        W73862  37.537  18.149  13.248
 7322W        W73863  24.389  19.089   0.832
 7323W        W73864   4.916  16.856  13.457
 7324W        W73865  15.692  20.024   3.351
 7325W        W73866   4.927  11.469  11.141
 7326W        W73867  25.734  42.088  12.951
 7327W        W73868   5.650  25.920   3.304
 7328W        W73869   7.313  10.858   3.834
 7329W        W73870   8.883  41.040  11.194
 7330W        W73871   8.809  28.444  13.933
 7331W        W73872  22.696  33.636  14.007
 7332W        W73873  22.431  26.478   4.072
 7333W        W73874  38.635  12.698  12.478
 7334W        W73875   0.418  37.964   4.710
 7335W        W73876   3.470  40.058   2.690
 7336W        W73877  40.783   4.265  14.166
 7337W        W73878  13.981  24.871  13.535
 7338W        W73879  40.766  15.651  13.513
 7339W        W73880  21.692   1.064   4.752
 7340W        W73881  38.066  41.765  13.921
 7341W        W73882  11.403  14.247   3.260
 7342W        W73883  33.737   9.156  13.066
 7343W        W73884  43.394  21.961  13.981
 7344W        W73885  24.252   2.918   4.827
 7345W        W73886  35.891  27.710  13.988
 7346W        W73887  36.296  33.129  14.525
 7347W        W73888  43.786  38.450   3.739
 7348W        W73889  12.507  16.107   0.817
 7349W        W73890  40.881  23.560  12.194
 7350W        W73891   8.261  16.065   2.821
 7351W        W73892  37.879   6.010   0.879
 7352W        W73893  20.793  20.407   3.690
 7353W        W73894   8.405   9.846   3.767
 7354W        W73895  13.209   7.359   3.645
 7355W        W73896  22.385   8.895  12.650
 7356W        W73897  17.268  17.769  10.856
 7357W        W73898  39.069  39.384  13.347
 7358W        W73899   2.648   7.021   0.770
 7359W        W73900  10.393  41.892  13.568
 7360W        W73901   5.438   4.192   2.294
 7361W        W73902  15.605  29.592  10.277
 7362W        W73903  32.119  17.331  13.096
 7363W        W73904  42.886  16.533  12.025
 7364W        W73905  28.276   4.569  13.413
 7365W        W73906  32.043  31.137  12.941
 7366W        W73907  38.543  19.490  12.606
 7367W        W73908   3.031  12.282  13.548
 7368W        W73909   7.972  41.227   5.118
 7369W        W73910  18.267  36.423  12.645
 7370W        W73911  13.448  36.298   1.220
 7371W        W73912  17.641   6.188   1.227
 7372W        W73913  36.924   6.704  11.742
 7373W        W73914  10.398  44.001  13.887
 7374W        W73915  41.238  17.583  14.760
 7375W        W73916  18.957  27.244  12.545
 7376W        W73917   9.461   4.661   2.644
 7377W        W73918  17.216  43.914  13.054
 7378W        W73919   5.219  29.667   0.422
 7379W        W73920   1.785  15.157   3.016
 7380W        W73921   3.864  16.162   2.755
 7381W        W73922  24.097  41.766  10.525
 7382W        W73923   9.869  28.049  14.926
 7383W        W73924  33.596  19.249  13.815
 7384W        W73925   0.692  18.141  12.088
 7385W        W73926  35.396  41.830  12.157
 7386W        W73927  14.523  38.742  14.962
 7387W        W73928  21.332  12.232   0.449
 7388W        W73929  26.027  18.343  12.068
 7389W        W73930  22.671  17.301   4.979
 7390W        W73931  37.843  13.760   2.713
 7391W        W73932  28.224  39.038   3.243
 7392W        W73933  10.322  29.593  12.639
 7393W        W73934  31.650   6.226  11.057
 7394W        W73935  27.108  10.332   2.897
 7395W        W73936  38.955   1.931  10.894
 7396W        W73937   1.744  36.073  13.512
 7397W        W73938  26.524  41.995   1.819
 7398W        W73939  13.241  24.327   1.265
 7399W        W73940   9.784  30.044  11.590
 7400W        W73941   5.400  32.742  11.865
 7401W        W73942  25.338  19.607  12.474
 7402W        W73943   1.153  13.515   4.281
 7403W        W73944  32.118  19.603   0.503
 7404W        W73945  42.934  43.993   2.728
 7405W        W73946  26.073  16.886  11.604
 7406W        W73947   8.371   5.188  12.077
 7407W        W73948  19.610   8.169   1.906
 7408W        W73949  12.874  44.803  13.905
 7409W        W73950  43.432  33.824   2.240
 7410W        W73951  44.851   8.697   0.009
 7411W        W73952  26.401  14.476  12.857
 7412W        W73953  17.962  25.117   2.270
 7413W        W73954  35.076  34.369   3.132
 7414W        W73955  13.512  35.448   1.558
 7415W        W73956  21.626  12.802  11.272
 7416W        W73957  43.627  14.762   0.289
 7417W        W73958   6.488  24.813   9.938
 7418W        W73959  14.803   9.548   0.025
 7419W        W73960  15.356  26.136  12.478
 7420W        W73961  18.695  35.667  10.758
 7421W        W73962   1.925  34.159  14.918
 7422W        W73963  24.702  44.040  12.946
 7423W        W73964  22.331   1.818  11.926
 7424W        W73965   4.675  34.546   1.479
 7425W        W73966  23.096  14.524   0.983
 7426W        W73967  32.522  22.227   3.385
 7427W        W73968  32.045   6.209  12.967
 7428W        W73969  29.179  15.685   2.479
 7429W        W73970  16.031  28.984   4.592
 7430W        W73971  24.897  22.087  11.057
 7431W        W73972  41.134  10.194  12.092
 7432W        W73973   4.438  35.336  13.918
 7433W        W73974  26.030  24.680   0.954
 7434W        W73975  27.484  30.718  14.089
 7435W        W73976   2.458  11.679   3.646
 7436W        W73977  25.930  37.319  13.070
 7437W        W73978  42.330  19.976   2.086
 7438W        W73979  42.870  22.917  13.803
 7439W        W73980  21.190  18.024   3.653
 7440W        W73981  21.998  27.150   1.960
 7441W        W73982  42.315  44.700  14.720
 7442W        W73983  11.514  22.813  12.237
 7443W        W73984   2.491  25.839   2.685
 7444W        W73985  31.953   6.097   0.491
 7445W        W73986  41.522  14.397   3.595
 7446W        W73987   6.852  43.826  10.692
 7447W        W73988   0.804  13.892  13.436
 7448W        W73989   9.129   0.711  14.331
 7449W        W73990  16.171   3.743  13.014
 7450W        W73991   0.893   4.035   5.008
 7451W        W73992  43.870  14.236   1.138
 7452W        W73993  31.261   4.001  14.774
 7453W        W73994  29.399  15.636   3.463
 7454W        W73995   3.746  39.407  13.382
 7455W        W73996  24.342   9.134   2.768
 7456W        W73997  19.792   4.216   0.323
 7457W        W73998  43.513   3.780  10.957
 7458W        W73999   3.870  36.609  12.948
 7459W        W74000  21.466  23.237  11.343
 7460W        W74001  40.298  40.642  12.197
 7461W        W74002  43.883   3.538   1.797
 7462W        W74003  28.771  22.524   3.618
 7463W        W74004  27.089   4.623   4.520
 7464W        W74005  30.557   1.967   3.740
 7465W        W74006   3.808   4.577  10.860
 7466W        W74007  22.747  31.641  12.048
 7467W        W74008  35.374   4.658   0.831
 7468W        W74009  31.972  16.278  11.559
 7469W        W74010  30.114  20.837   3.608
 7470W        W74011  29.564   0.815  13.925
 7471W        W74012   2.701  33.192   4.565
 7472W        W74013   2.458  26.328   2.850
 7473W        W74014  15.624  41.744   0.773
 7474W        W74015  31.373  18.712  14.975
 7475W        W74016  36.928  22.028  10.642
 7476W        W74017  36.991   1.578   4.538
 7477W        W74018  33.347  15.217   2.443
 7478W        W74019   3.498  17.022  13.410
 7479W        W74020   7.323   2.362   1.284
 7480W        W74021   6.402   5.695  14.475
 7481W        W74022   3.098  28.419  13.925
 7482W        W74023  10.792   8.955  14.838
 7483W        W74024  41.486  27.739   1.518
 7484W        W74025  24.922  37.166  13.948
 7485W        W74026  36.634  29.910   2.316
 7486W        W74027  32.132   7.752   4.557
 7487W        W74028  41.795  32.748   1.891
 7488W        W74029  37.566  36.115   2.722
 7489W        W74030  26.199  10.063  13.483
 7490W        W74031  20.329   7.954  11.204
 7491W        W74032  43.014  27.442  11.577
 7492W        W74033  11.201  33.818   0.772
 7493W        W74034  16.086  28.855  11.714
 7494W        W74035  35.121  11.342  12.985
 7495W        W74036  36.926  11.814   0.520
 7496W        W74037  25.578  25.573  10.729
 7497W        W74038  22.786   5.265   3.121
 7498W        W74039  16.765   5.435   2.759
 7499W        W74040  33.977   0.533   2.783
 7500W        W74041  36.580   2.839   4.936
 7501W        W74042  26.694  39.536   1.829
 7502W        W74043  21.551   0.048  14.817
 7503W        W74044  12.172  30.097  11.095
 7504W        W74045   1.533  10.196   1.225
 7505W        W74046  31.960  15.361   2.930
 7506W        W74047  41.726  10.691  11.590
 7507W        W74048  14.454  12.628  12.044
 7508W        W74049  13.195  26.661   2.271
 7509W        W74050   5.074  15.203  11.179
 7510W        W74051  36.598  31.916   0.342
 7511W        W74052  30.404  19.224   3.689
 7512W        W74053  36.881   9.514   4.212
 7513W        W74054  24.201   8.435   1.684
 7514W        W74055   2.208  30.089   5.415
 7515W        W74056   6.321  38.855  11.598
 7516W        W74057  29.727  33.632  11.686
 7517W        W74058  43.441  14.585  11.859
 7518W        W74059  42.130  14.916  10.330
 7519W        W74060  19.358  26.176   3.010
 7520W        W74061   8.776   0.548  11.651
 7521W        W74062   7.728   4.710  14.245
 7522W        W74063  16.838  31.359   1.724
 7523W        W74064  19.294  15.222  13.284
 7524W        W74065  13.376  25.404   1.291
 7525W        W74066  13.443   3.141  10.199
 7526W        W74067  30.200  22.270   3.620
 7527W        W74068  42.326   5.251   4.340
 7528W        W74069  38.032  11.770  13.972
 7529W        W74070  43.205  24.123   1.683
 7530W        W74071  40.455  35.165   1.417
 7531W        W74072   3.369  31.957  13.920
 7532W        W74073  38.970  23.007  13.409
 7533W        W74074   6.108   9.262   2.092
 7534W        W74075   2.276  15.430   4.316
 7535W        W74076  42.295   8.947   1.408
 7536W        W74077  23.565  14.940   2.329
 7537W        W74078  28.056  40.811  10.274
 7538W        W74079  11.234   2.647  14.786
 7539W        W74080  38.462  43.359  11.293
 7540W        W74081  32.380  22.624   1.951
 7541W        W74082  28.400   0.822   2.237
 7542W        W74083   7.096  37.364  13.330
 7543W        W74084  28.149  43.106  12.035
 7544W        W74085  41.304  41.210   1.823
 7545W        W74086  10.317  22.533   3.591
 7546W        W74087  18.556  21.203   1.623
 7547W        W74088  12.924  44.390  10.773
 7548W        W74089   4.845  27.051  10.447
 7549W        W74090  29.184  11.653   3.533
 7550W        W74091  23.644  24.880   4.672
 7551W        W74092  25.266  29.537  10.905
 7552W        W74093  25.610  37.590   3.073
 7553W        W74094  27.822  36.063  13.569
 7554W        W74095  23.230  34.082   0.334
 7555W        W74096  24.076  40.371  12.973
 7556W        W74097  26.038  34.616  12.637
 7557W        W74098  43.349  19.801  11.035
 7558W        W74099  40.349  32.022   3.712
 7559W        W74100  41.445   7.177   0.877
 7560W        W74101  43.854  43.919  13.925
 7561W        W74102   2.436  15.679   2.668
 7562W        W74103  29.655  28.337  13.879
 7563W        W74104  39.391  11.332   0.428
 7564W        W74105  11.982  34.889   1.880
 7565W        W74106  16.105  36.379  11.995
 7566W        W74107  24.259  10.725  11.614
 7567W        W74108   0.124  32.992  12.432
 7568W        W74109   0.978  29.376  10.408
 7569W        W74110  44.941  37.587  12.840
 7570W        W74111   2.013  28.600   0.857
 7571W        W74112   9.793  41.531  11.018
 7572W        W74113  28.885  24.196  11.056
 7573W        W74114   0.707  36.401  14.326
 7574W        W74115  23.777  36.464  12.491
 7575W        W74116  34.923  34.830  14.032
 7576W        W74117  12.305   2.776   4.234
 7577W        W74118  28.061  27.575   1.178
 7578W        W74119  16.237   2.537   5.178
 7579W        W74120  36.661  38.945   0.082
 7580W        W74121  21.483  12.288   1.225
 7581W        W74122   5.311  43.832   4.116
 7582W        W74123  26.970  44.380  10.436
 7583W        W74124  30.456  26.550  12.636
 7584W        W74125  40.678  36.056   5.026
 7585W        W74126  11.085  17.227  10.128
 7586W        W74127   8.161  41.281  14.977
 7587W        W74128  35.423  30.024  14.331
 7588W        W74129  37.959  16.800  12.044
 7589W        W74130   0.603  44.350   3.774
 7590W        W74131  42.033  22.167   4.788
 7591W        W74132  38.300  41.678  12.236
 7592W        W74133  14.537  39.390   4.213
 7593W        W74134  36.000   8.950  10.691
 7594W        W74135  17.660   1.357   3.223
 7595W        W74136  19.856  18.476   3.755
 7596W        W74137  30.912  17.161   1.893
 7597W        W74138  17.066  25.028   3.735
 7598W        W74139  17.524  15.836  10.950
 7599W        W74140  36.890  14.717  13.414
 7600W        W74141  40.337  30.159  13.317
 7601W        W74142  26.179   0.789   2.727
 7602W        W74143  26.510  11.301  11.625
 7603W        W74144  32.977  20.982   3.294
 7604W        W74145   0.922  14.981   3.179
 7605W        W74146  37.971  20.763   4.346
 7606W        W74147  25.982   4.743  12.650
 7607W        W74148  29.975  36.106  12.001
 7608W        W74149  36.502  15.845   2.306
 7609W        W74150  38.335   3.319   2.004
 7610W        W74151   3.151  10.312   3.584
 7611W        W74152  42.792  23.074   1.671
 7612W        W74153  44.209  44.471   1.412
 7613W        W74154  12.831  33.767   0.267
 7614W        W74155   3.757  43.459   2.848
 7615W        W74156   6.942  20.994   4.986
 7616W        W74157  39.429   3.459   3.249
 7617W        W74158   1.214  21.097   2.263
 7618W        W74159  28.507  20.009  11.060
 7619W        W74160  15.724  24.232  14.593
 7620W        W74161  29.883  36.930   3.831
 7621W        W74162   2.404  22.186   1.538
 7622W        W74163  34.635   2.861   0.804
 7623W        W74164  19.358  39.296  11.206
 7624W        W74165  38.050   3.226   2.644
 7625W        W74166   2.998  44.426   2.408
 7626W        W74167  22.279   4.281   5.330
 7627W        W74168   4.283  19.736  12.948
 7628W        W74169  24.204  34.669   1.343
 7629W        W74170   7.530  43.623  11.105
 7630W        W74171  44.245  29.589   3.387
 7631W        W74172  21.922   5.779   3.962
 7632W        W74173   3.337   5.769   1.494
 7633W        W74174  23.746  23.368   3.633
 7634W        W74175   5.689  39.380  12.602
 7635W        W74176   6.716   9.632   3.659
 7636W        W74177  33.196  38.079   2.676
 7637W        W74178  37.067  12.126  12.983
 7638W        W74179  43.738  22.746   2.593
 7639W        W74180  19.959   1.354  10.409
 7640W        W74181  41.037  33.779   1.373
 7641W        W74182  31.834  10.459   2.126
 7642W        W74183   9.947  24.092   4.548
 7643W        W74184  39.448  32.423   4.391
 7644W        W74185  21.287  25.044  11.677
 7645W        W74186   7.315  29.961  14.809
 7646W        W74187  38.442  41.673   0.182
 7647W        W74188  41.458  32.362   1.857
 7648W        W74189  40.034   6.550  13.382
 7649W        W74190  17.101  27.661  14.684
 7650W        W74191  12.351  35.529   0.734
 7651W        W74192  17.290   5.880   3.140
 7652W        W74193  42.890  15.114   3.303
 7653W        W74194  37.928  14.015  13.464
 7654W        W74195  39.280  24.711   4.092
 7655W        W74196  32.641  41.827   0.687
 7656W        W74197  19.310  35.580  12.034
 7657W        W74198  35.541  26.188  14.358
 7658W        W74199  21.057  32.101   3.896
 7659W        W74200  42.948  12.718   0.968
 7660W        W74201   6.736  13.401  12.500
 7661W        W74202  18.198  30.072  12.020
 7662W        W74203  29.520  35.355   1.388
 7663W        W74204  41.360   8.705  14.951
 7664W        W74205  11.687   3.439  11.181
 7665W        W74206  16.161  36.616  13.331
 7666W        W74207  43.781  15.657  13.364
 7667W        W74208  43.458  16.005   1.507
 7668W        W74209  41.789  26.420  13.833
 7669W        W74210  38.994  31.522   4.862
 7670W        W74211  18.055  12.248  13.748
 7671W        W74212  42.468  15.767   0.363
 7672W        W74213   8.162  27.714   4.663
 7673W        W74214  42.444  13.410   0.319
 7674W        W74215  22.742  15.289   0.989
 7675W        W74216  11.917  14.591   3.979
 7676W        W74217   7.997  30.083   1.887
 7677W        W74218  38.311  31.112  14.321
 7678W        W74219  19.211  38.558  14.454
 7679W        W74220  39.279   3.912  13.664
 7680W        W74221  39.221  43.560   1.431
 7681W        W74222  22.873  44.273   4.209
 7682W        W74223  14.298   7.633   4.637
 7683W        W74224   9.741  23.462   0.917
 7684W        W74225  35.849  43.883  12.985
 7685W        W74226  43.398  14.302   2.910
 7686W        W74227  14.207  23.897  13.751
 7687W        W74228  41.238  23.148   4.802
 7688W        W74229  10.307  20.784  10.912
 7689W        W74230  42.812   1.913  13.516
 7690W        W74231  23.709  15.170   1.552
 7691W        W74232   8.968  19.210  14.469
 7692W        W74233  42.393  27.436   3.109
 7693W        W74234  13.299  26.219   1.959
 7694W        W74235  42.381   5.711  12.296
 7695W        W74236  23.164  23.114  11.665
 7696W        W74237  30.251  22.520  12.651
 7697W        W74238  13.180  21.971   2.613
 7698W        W74239   3.853  28.174  10.472
 7699W        W74240  42.788  28.461   4.548
 7700W        W74241  24.297  16.692  11.411
 7701W        W74242  10.648  14.441   0.552
 7702W        W74243  32.994  16.844   1.504
 7703W        W74244  37.562  29.537  10.765
 7704W        W74245  20.982   4.683  13.900
 7705W        W74246   8.312   1.411  11.979
 7706W        W74247  36.159   1.929   0.900
 7707W        W74248  16.529  25.138  13.407
 7708W        W74249   3.955   3.563   1.278
 7709W        W74250  37.337   2.578  12.979
 7710W        W74251  32.780  42.257   0.352
 7711W        W74252  38.775   1.909  12.598
 7712W        W74253   2.220  25.504  14.517
 7713W        W74254  11.110  15.641   3.527
 7714W        W74255  15.787   8.295   0.342
 7715W        W74256  35.860  43.147  13.966
 7716W        W74257  35.408  21.068   1.655
 7717W        W74258  30.841   5.011  12.985
 7718W        W74259   0.856  24.067  12.204
 7719W        W74260   8.334  37.447  10.726
 7720W        W74261   7.159  13.519   4.833
 7721W        W74262  22.268  33.969   4.611
 7722W        W74263  13.559  43.544  13.473
 7723W        W74264  35.505  16.785   2.225
 7724W        W74265  29.946  31.871  13.007
 7725W        W74266   8.358  43.300   4.884
 7726W        W74267   2.099  41.868   4.135
 7727W        W74268  14.560  10.267   4.872
 7728W        W74269  26.409  34.508  12.985
 7729W        W74270  25.505  29.603   0.013
 7730W        W74271  15.186  17.123   1.259
 7731W        W74272   5.171  38.725   1.858
 7732W        W74273   6.298  20.329  11.593
 7733W        W74274  18.933   5.287   3.075
 7734W        W74275  21.077  39.757   0.407
 7735W        W74276  32.216  28.899   2.846
 7736W        W74277  35.469  31.167  14.818
 7737W        W74278  10.809   4.239   1.187
 7738W        W74279  28.070   4.994   3.005
 7739W        W74280  18.339   6.831  11.669
 7740W        W74281  39.358  32.083  11.653
 7741W        W74282  20.460  43.755  13.952
 7742W        W74283  19.105  19.560  11.193
 7743W        W74284   7.417  43.030  10.431
 7744W        W74285  10.168  18.026   2.714
 7745W        W74286  20.667  12.940  12.072
 7746W        W74287  24.923  10.737   0.795
 7747W        W74288  30.134  30.903   3.718
 7748W        W74289  37.077  13.878  11.325
 7749W        W74290   4.797  18.342  14.490
 7750W        W74291   2.971   9.862   3.745
 7751W        W74292  44.505  18.332  13.112
 7752W        W74293  34.105  30.951  14.827
 7753W        W74294  27.904   6.625   1.429
 7754W        W74295  39.977  18.582  12.807
 7755W        W74296   6.888   8.379  14.453
 7756W        W74297  13.782  25.511  12.854
 7757W        W74298  44.050  31.452  14.281
 7758W        W74299  26.215  15.157   1.627
 7759W        W74300  42.012  32.935  11.673
 7760W        W74301  10.344  29.139   3.281
 7761W        W74302  11.417   9.704  12.459
 7762W        W74303  11.789   2.879   5.022
 7763W        W74304  20.713  39.411  12.426
 7764W        W74305   6.510  29.391   3.668
 7765W        W74306  38.379  37.021   2.658
 7766W        W74307  13.331  41.428   1.015
 7767W        W74308   5.747  10.780   2.328
 7768W        W74309  24.395  24.204   1.365
 7769W        W74310   0.788   2.310  14.852
 7770W        W74311  26.065  29.509  14.289
 7771W        W74312  16.139  25.295  14.046
 7772W        W74313  41.223  25.250  14.570
 7773W        W74314  25.624  29.451   4.074
 7774W        W74315  26.180  32.028  14.795
 7775W        W74316   5.421  25.776  10.349
 7776W        W74317  32.550  22.120   1.230
 7777W        W74318  17.768  15.724   2.294
 7778W        W74319  36.547  37.969  14.563
 7779W        W74320  44.066  23.509   3.690
 7780W        W74321  32.345  33.920  11.972
 7781W        W74322   1.968  25.678  13.888
 7782W        W74323  14.482  34.413   4.518
 7783W        W74324  28.515  12.813   0.169
 7784W        W74325  19.833  38.155  13.027
 7785W        W74326  29.571  43.523  12.936
 7786W        W74327   1.364   9.615   2.883
 7787W        W74328  40.556  36.458  13.584
 7788W        W74329  32.129  10.517  12.182
 7789W        W74330  16.529  11.195  14.292
 7790W        W74331  38.299  12.221  10.720
 7791W        W74332  34.068   8.422   1.205
 7792W        W74333  41.518  29.386   4.656
 7793W        W74334  29.388  12.366  11.680
 7794W        W74335  35.955  43.688  11.555
 7795W        W74336  19.814  26.876   1.238
 7796W        W74337  31.975  21.099  14.008
 7797W        W74338   7.727   4.740  12.816
 7798W        W74339  29.004   4.073  13.069
 7799W        W74340   8.836   8.915   1.231
 7800W        W74341  10.133   8.342   3.718
 7801W        W74342  13.549  33.028  11.537
 7802W        W74343  16.813  38.743   1.893
 7803W        W74344  24.036  14.755  14.377
 7804W        W74345  16.158  33.545  10.949
 7805W        W74346   2.264  29.658   0.749
 7806W        W74347  14.059  12.036   5.307
 7807W        W74348  35.989   3.677   2.711
 7808W        W74349  39.131   2.108   2.379
 7809W        W74350  15.652  25.145   1.027
 7810W        W74351  42.793   2.267  10.590
 7811W        W74352  39.786  15.773  11.274
 7812W        W74353  40.543  35.446   0.061
 7813W        W74354  34.888  13.885  14.431
 7814W        W74355  15.752  11.333  10.971
 7815W        W74356  41.367  34.951   2.367
 7816W        W74357  39.684  43.247   3.270
 7817W        W74358  36.954  38.693  13.733
 7818W        W74359  19.668  31.931   0.344
 7819W        W74360  21.048  21.306  12.880
 7820W        W74361  13.103  41.352   1.839
 7821W        W74362   2.266   6.710   3.913
 7822W        W74363   1.281  18.036   0.978
 7823W        W74364   3.352  22.132   1.723
 7824W        W74365  39.502   6.469  13.360
 7825W        W74366  15.323  29.699   4.158
 7826W        W74367  12.391  27.883  14.019
 7827W        W74368  11.131  21.477  12.082
 7828W        W74369  20.978   2.791  11.674
 7829W        W74370  34.947  11.847  12.920
 7830W        W74371   4.443   8.665  11.487
 7831W        W74372   9.830  17.004   3.294
 7832W        W74373  42.969  17.431   4.585
 7833W        W74374  35.478  39.763   2.159
 7834W        W74375  34.945  10.299   4.657
 7835W        W74376  22.706  14.191   2.207
 7836W        W74377   4.972  38.357   3.732
 7837W        W74378  12.202  41.732  14.290
 7838W        W74379  12.851  10.078  11.623
 7839W        W74380   8.101  19.417  11.563
 7840W        W74381  29.665  18.157  14.931
 7841W        W74382  29.166  30.979  12.040
 7842W        W74383  18.631  31.020  13.031
 7843W        W74384  28.973  26.531   2.335
 7844W        W74385  44.844  26.236  13.493
 7845W        W74386  34.063  28.651  14.068
 7846W        W74387  28.605   8.657   0.877
 7847W        W74388  10.954  23.175   4.267
 7848W        W74389  16.799  24.795   0.901
 7849W        W74390  14.187   5.537   2.402
 7850W        W74391  43.284  13.670  11.974
 7851W        W74392   3.897   3.259  13.008
 7852W        W74393   3.247   1.601   2.177
 7853W        W74394  31.528   5.393  11.649
 7854W        W74395  33.488   7.141   3.713
 7855W        W74396  35.638  32.834   4.088
 7856W        W74397  43.366  12.846  11.188
 7857W        W74398  25.278  39.292   0.674
 7858W        W74399  21.831   1.933  11.759
 7859W        W74400  27.441  32.049   2.710
 7860W        W74401   7.618   1.901   5.152
 7861W        W74402  24.165  27.976   1.524
 7862W        W74403  30.042  32.998   4.794
 7863W        W74404   1.271  24.120   1.765
 7864W        W74405   9.721  24.493   4.824
 7865W        W74406  16.368  20.125  10.610
 7866W        W74407  29.733  15.018  12.802
 7867W        W74408  27.308   7.437  13.621
 7868W        W74409  40.896  21.239  10.872
 7869W        W74410  44.262   9.070   5.085
 7870W        W74411   7.491  33.026   0.023
 7871W        W74412   4.942   1.407  13.477
 7872W        W74413  18.033  42.797  13.751
 7873W        W74414  39.721   4.750  13.290
 7874W        W74415  26.215  12.619   3.621
 7875W        W74416  37.180  15.676  11.921
 7876W        W74417  29.086  17.141   0.036
 7877W        W74418   1.472   1.059  10.741
 7878W        W74419  43.959  37.834   0.863
 7879W        W74420  10.757  43.679  14.273
 7880W        W74421  40.695  26.147   4.214
 7881W        W74422   7.487  38.118  10.694
 7882W        W74423  39.995  44.132   1.339
 7883W        W74424  22.556  29.418  11.609
 7884W        W74425  28.984   4.929   3.349
 7885W        W74426   4.269  15.061  10.687
 7886W        W74427  11.668   4.404   3.695
 7887W        W74428   5.584  17.694   3.732
 7888W        W74429  19.279  39.794  14.247
 7889W        W74430  41.237   9.208   0.116
 7890W        W74431  36.927  10.760   3.156
 7891W        W74432   8.061  41.892   2.845
 7892W        W74433  34.525  15.945  10.591
 7893W        W74434   6.140  24.456  11.485
 7894W        W74435  21.285  32.320   4.332
 7895W        W74436  13.063  39.530  14.324
 7896W        W74437  26.065  41.511   0.445
 7897W        W74438  30.399   4.266  13.891
 7898W        W74439  35.350  18.387   4.072
 7899W        W74440   8.730  10.745  14.792
 7900W        W74441  15.051  22.801  12.934
 7901W        W74442   2.816  22.088   4.068
 7902W        W74443  36.128   8.338  14.752
 7903W        W74444  14.395  43.362   3.633
 7904W        W74445  24.162  22.636  13.259
 7905W        W74446  17.759  42.063   1.479
 7906W        W74447  44.504   0.421  14.490
 7907W        W74448   3.356   6.034  14.048
 7908W        W74449  41.243  19.730   0.190
 7909W        W74450   1.014  25.690  11.674
 7910W        W74451  31.987  37.804   1.414
 7911W        W74452  13.794  35.438  10.520
 7912W        W74453  14.119   7.485   3.237
 7913W        W74454  33.949  39.636  12.528
 7914W        W74455  20.720  18.898  13.683
 7915W        W74456  16.753  44.782   0.860
 7916W        W74457   6.753  12.677   0.533
 7917W        W74458  24.555  31.212   0.328
 7918W        W74459   9.237  12.193  10.924
 7919W        W74460  39.235  32.791  11.085
 7920W        W74461  25.560  17.002   1.842
 7921W        W74462  36.368  11.340  11.168
 7922W        W74463   4.172   3.723  14.542
 7923W        W74464  11.267  36.054   3.254
 7924W        W74465  19.092  43.889  11.903
 7925W        W74466  18.327  16.762  13.432
 7926W        W74467  18.197  41.114   1.087
 7927W        W74468  16.423  36.931   3.688
 7928W        W74469   0.857   0.127  12.179
 7929W        W74470   3.691  40.750   2.048
 7930W        W74471  29.533  17.653  12.944
 7931W        W74472  39.828  17.771   1.403
 7932W        W74473   0.813  32.110   1.734
 7933W        W74474   3.207  28.556  13.452
 7934W        W74475  40.941  11.401   1.664
 7935W        W74476   7.586  29.455   1.360
 7936W        W74477  36.913  18.619   0.426
 7937W        W74478  36.828  39.921   0.677
 7938W        W74479   0.206   1.416   3.769
 7939W        W74480  44.028  41.833   0.354
 7940W        W74481  14.423  26.616  11.588
 7941W        W74482   0.173  38.326  14.385
 7942W        W74483  25.105  22.788   0.751
 7943W        W74484  17.021   4.110   3.191
 7944W        W74485  22.477  20.982  12.858
 7945W        W74486  14.650  22.635   1.325
 7946W        W74487  34.635  15.715   1.385
 7947W        W74488  37.326  41.326   4.713
 7948W        W74489  37.317  20.190   0.742
 7949W        W74490   0.189  15.897  13.493
 7950W        W74491  14.284  25.232   1.154
 7951W        W74492   9.748   2.261  10.911
 7952W        W74493  39.261  40.521  11.486
 7953W        W74494  31.989  31.272   0.752
 7954W        W74495   3.790  28.755   1.710
 7955W        W74496   8.277  36.712  12.917
 7956W        W74497  41.485  32.459  11.159
 7957W        W74498  19.780  31.429  10.748
 7958W        W74499   5.816  38.351   4.954
 7959W        W74500  19.630  15.621   5.060
 7960W        W74501  43.948  27.382   3.622
 7961W        W74502  30.838  24.040   3.301
 7962W        W74503   6.377   4.275   0.774
 7963W        W74504  43.387   4.849   1.705
 7964W        W74505  43.402  42.301   4.560
 7965W        W74506  41.731  22.561   4.913
 7966W        W74507   4.087  14.328   1.831
 7967W        W74508  42.832   7.672   0.927
 7968W        W74509  41.470   6.403  13.964
 7969W        W74510   0.982  14.766   4.639
 7970W        W74511  20.020  22.658  10.722
 7971W        W74512  14.882  31.069   0.403
 7972W        W74513  34.848  16.178  14.067
 7973W        W74514   4.257   5.609   0.528
 7974W        W74515  39.360  38.828  14.946
 7975W        W74516  21.587  13.551   4.609
 7976W        W74517  16.789   0.537  11.908
 7977W        W74518  32.325   5.510   5.040
 7978W        W74519  43.660  11.061   1.475
 7979W        W74520  18.571  30.621  10.770
 7980W        W74521  30.383   6.276   0.913
 7981W        W74522   3.154  35.508   2.452
 7982W        W74523  23.033  39.377   1.818
 7983W        W74524  34.852   1.876  12.609
 7984W        W74525  28.819   5.332   2.416
 7985W        W74526  14.642   0.454   2.975
 7986W        W74527   7.059   1.478   2.757
 7987W        W74528  23.798  24.689  14.962
 7988W        W74529   1.736  29.701  12.015
 7989W        W74530  22.598  20.013   2.814
 7990W        W74531  26.175  22.126  13.640
 7991W        W74532  17.665  11.295  12.793
 7992W        W74533  25.682  12.823  13.368
 7993W        W74534  38.119  19.655   3.014
 7994W        W74535  12.745  27.873  11.603
 7995W        W74536   5.258  40.678  13.039
 7996W        W74537  13.027  21.766  11.888
 7997W        W74538  11.473   1.752   4.157
 7998W        W74539  35.814  41.116   1.831
 7999W        W74540   8.504  36.288  13.615
 8000W        W74541   2.322  32.741  12.368
 8001W        W74542  40.753  41.440  13.849
 8002W        W74543   8.403   7.808   1.654
 8003W        W74544   4.179   3.350   2.380
 8004W        W74545  17.603  32.323   0.907
 8005W        W74546  28.498  14.601  11.144
 8006W        W74547  20.567  34.793   2.486
 8007W        W74548  44.318  15.451  12.559
 8008W        W74549  10.221  30.715   2.925
 8009W        W74550  19.848  18.135   1.187
 8010W        W74551  28.610   1.484   3.462
 8011W        W74552  20.072  32.174  12.925
 8012W        W74553  43.925   6.134   3.662
 8013W        W74554  36.150  18.870  12.904
 8014W        W74555  28.587  28.389   2.753
 8015W        W74556  21.117  20.979  11.081
 8016W        W74557  27.933  29.375  11.097
 8017W        W74558  43.512  41.137  11.204
 8018W        W74559   0.140   7.898  12.116
 8019W        W74560   4.202  22.584   1.289
 8020W        W74561  28.394  39.486  11.209
 8021W        W74562  17.182  23.255  12.269
 8022W        W74563  33.155   9.970   4.763
 8023W        W74564   2.891  44.359   0.440
 8024W        W74565  34.886  26.243  11.038
 8025W        W74566  41.482  12.387   0.443
 8026W        W74567  31.947  12.301   3.895
 8027W        W74568  15.912  26.708   1.353
 8028W        W74569   0.526  11.401   3.148
 8029W        W74570  25.701  12.883  14.936
 8030W        W74571  11.438  43.897  13.969
 8031W        W74572  16.191  17.748   0.003
 8032W        W74573  10.403  27.975   0.774
 8033W        W74574  42.530  26.711  14.446
 8034W        W74575  43.056  44.422  14.220
 8035W        W74576  44.787  38.936  14.359
 8036W        W74577   4.001  38.079   0.653
 8037W        W74578  14.078  14.334  14.843
 8038W        W74579  36.477  24.846  12.053
 8039W        W74580  36.910  38.087   1.250
 8040W        W74581  19.268  33.739   3.798
 8041W        W74582   4.603  28.440  11.288
 8042W        W74583  33.534  36.837  14.802
 8043W        W74584  15.260   4.850   1.974
 8044W        W74585  31.850   5.217  13.892
 8045W        W74586  32.937  36.511   2.819
 8046W        W74587  12.381  14.777  13.563
 8047W        W74588   9.946  44.468  11.081
 8048W        W74589  32.087  38.356  14.378
 8049W        W74590   7.330  44.867   0.658
 8050W        W74591  18.301  40.204   0.976
 8051W        W74592  35.528  42.392   1.700
 8052W        W74593  22.095  44.284  11.591
 8053W        W74594  32.166  40.003   0.559
 8054W        W74595   5.417  30.109  12.044
 8055W        W74596  42.915   3.565   1.726
 8056W        W74597  22.384  31.690   2.223
 8057W        W74598   8.178  33.105  11.082
 8058W        W74599  24.522   8.433   3.230
 8059W        W74600  35.090   3.993   4.131
 8060W        W74601   7.906   4.253  11.978
 8061W        W74602  21.825  30.084   3.660
 8062W        W74603  10.303  43.676  10.808
 8063W        W74604  18.165   2.661   1.331
 8064W        W74605   1.698  25.979  13.464
 8065W        W74606   0.886   9.699   1.236
 8066W        W74607  25.206  43.152  12.933
 8067W        W74608  26.403   4.745  13.865
 8068W        W74609   1.506  39.277   0.358
 8069W        W74610   5.729  18.775   4.826
 8070W        W74611  41.403  34.640  13.311
 8071W        W74612   4.336  36.340  12.964
 8072W        W74613  37.315  35.697   4.540
 8073W        W74614  33.119  15.746   3.665
 8074W        W74615  37.188   8.853   1.368
 8075W        W74616  34.151  33.001  12.611
 8076W        W74617  22.858  44.476   2.042
 8077W        W74618  34.607  16.154   3.195
 8078W        W74619  23.270  13.658  13.374
 8079W        W74620  15.029  27.747   0.169
 8080W        W74621  36.882  23.666   2.075
 8081W        W74622   1.727  21.791   4.136
 8082W        W74623   3.247  35.143   3.699
 8083W        W74624  14.567  28.780  12.508
 8084W        W74625  19.589   6.620  13.662
 8085W        W74626  34.704  10.101   2.318
 8086W        W74627  19.353   6.207  13.866
 8087W        W74628  15.857  33.162   3.096
 8088W        W74629  12.326  13.313   2.127
 8089W        W74630  34.363  17.207   3.049
 8090W        W74631  41.437  25.824   2.854
 8091W        W74632  10.991   0.429  12.794
 8092W        W74633  32.983  43.542   2.867
 8093W        W74634  37.355  11.622   0.254
 8094W        W74635  32.528   7.211  14.108
 8095W        W74636  38.752  10.757  13.921
 8096W        W74637  20.709  43.760  14.429
 8097W        W74638  21.682  13.093   2.581
 8098W        W74639  18.697  25.336  13.741
 8099W        W74640  19.237   5.295  13.850
 8100W        W74641  18.416  10.359  11.561
 8101W        W74642  28.626  18.594   4.623
 8102W        W74643  41.447   6.777   4.580
 8103W        W74644   0.811  21.223  10.261
 8104W        W74645   9.775  21.986   0.772
 8105W        W74646  21.011  25.346  13.642
 8106W        W74647   5.414   5.792  14.475
 8107W        W74648  32.766  20.220   2.894
 8108W        W74649  25.692  39.976   3.025
 8109W        W74650  10.236  20.120   3.691
 8110W        W74651   5.520  29.277   4.667
 8111W        W74652   0.445   6.298  12.690
 8112W        W74653  33.217  13.653   1.161
 8113W        W74654  37.651  28.026  11.593
 8114W        W74655  41.941  42.023   3.294
 8115W        W74656   9.317  29.739  12.868
 8116W        W74657  17.200   2.279   0.477
 8117W        W74658  10.043  29.339   0.758
 8118W        W74659  26.297  30.998  13.685
 8119W        W74660  36.072  16.726   2.883
 8120W        W74661  15.594   0.989   2.647
 8121W        W74662   7.568  30.631   3.268
 8122W        W74663  35.079  38.430   0.918
 8123W        W74664  14.603  19.655   0.560
 8124W        W74665  22.421   8.908   2.783
 8125W        W74666  42.657  13.836   2.753
 8126W        W74667  43.530  31.981   4.521
 8127W        W74668  30.480   5.036  14.414
 8128W        W74669  27.245  25.990  12.552
 8129W        W74670  21.443  32.542   0.303
 8130W        W74671  27.421  34.140  13.475
 8131W        W74672  22.430  26.459   3.367
 8132W        W74673   1.496  33.821  12.871
 8133W        W74674  17.136  18.526   0.348
 8134W        W74675   4.748  44.428   3.708
 8135W        W74676   2.304  10.395  11.280
 8136W        W74677  19.378  15.809  14.223
 8137W        W74678  33.352  22.033   2.754
 8138W        W74679  17.826  12.537   0.278
 8139W        W74680  21.498  33.365  12.627
 8140W        W74681   9.994   1.006  12.126
 8141W        W74682  22.993  29.159  11.769
 8142W        W74683  43.818   1.828  14.504
 8143W        W74684   5.911   9.573   0.552
 8144W        W74685   0.792  17.529   1.224
 8145W        W74686   2.100   4.674  10.543
 8146W        W74687  11.626  20.835   4.471
 8147W        W74688  21.767   4.294   0.886
 8148W        W74689  10.662  36.711   0.940
 8149W        W74690  13.647  17.796  14.313
 8150W        W74691  23.076  24.284   3.752
 8151W        W74692  20.139  27.249   0.348
 8152W        W74693  21.531  22.654  12.970
 8153W        W74694  21.589  40.847  12.697
 8154W        W74695  29.003  35.393   1.210
 8155W        W74696  33.745  25.070   1.881
 8156W        W74697  22.295  36.912   3.637
 8157W        W74698  34.675  29.716   0.376
 8158W        W74699  16.353   6.357   3.465
 8159W        W74700  12.382  13.590  12.482
 8160W        W74701   8.613  26.967  10.678
 8161W        W74702  39.927  42.040   0.393
 8162W        W74703  19.287   4.730  12.499
 8163W        W74704  23.779  22.440   4.587
 8164W        W74705  21.899  36.458   1.913
 8165W        W74706  31.021  12.861   0.632
 8166W        W74707   7.731  17.195  10.840
 8167W        W74708  41.748  32.219  13.826
 8168W        W74709   3.477   5.958  10.841
 8169W        W74710  24.247  30.006  14.936
 8170W        W74711  21.136   3.024   0.843
 8171W        W74712   1.419  18.625  12.839
 8172W        W74713  30.698  25.704   5.146
 8173W        W74714  21.422  20.531   1.437
 8174W        W74715  21.676   3.784   1.013
 8175W        W74716  36.421  13.183   1.529
 8176W        W74717   7.948  12.281  11.963
 8177W        W74718  36.624  22.093  14.953
 8178W        W74719  41.339  38.832  13.022
 8179W        W74720  25.676  34.445   3.790
 8180W        W74721  44.571   9.451  12.476
 8181W        W74722  15.696   1.925   2.800
 8182W        W74723  18.722  31.023  11.085
 8183W        W74724  41.407  43.393   2.692
 8184W        W74725  41.939  10.058   3.448
 8185W        W74726  39.083  33.189  13.592
 8186W        W74727  11.966  28.102  11.190
 8187W        W74728  24.458  10.233   4.176
 8188W        W74729  43.503  27.063   0.847
 8189W        W74730   3.329  23.954  14.407
 8190W        W74731   4.702   4.305  13.274
 8191W        W74732   7.859  25.984  11.724
 8192W        W74733   2.965  38.495   3.867
 8193W        W74734   9.285  42.844  11.060
 8194W        W74735   9.680  15.531   0.922
 8195W        W74736  23.213   6.124   2.180
 8196W        W74737  19.591  16.333  13.063
 8197W        W74738  42.975  17.852  13.683
 8198W        W74739  29.001  10.687   2.282
 8199W        W74740  42.613  23.065   0.714
 8200W        W74741  11.096   2.052  11.117
 8201W        W74742  32.733   5.265  10.447
 8202W        W74743  25.471  23.161  13.791
 8203W        W74744   3.963   0.833  11.554
 8204W        W74745  28.139  21.188   0.974
 8205W        W74746  30.137   7.739   0.740
 8206W        W74747   3.893  32.366   2.449
 8207W        W74748  11.083  43.353  13.352
 8208W        W74749  16.656  38.393  13.878
 8209W        W74750  19.529  19.648  13.025
 8210W        W74751  28.277  12.164   4.206
 8211W        W74752  29.604  26.390  14.162
 8212W        W74753  41.991  11.464   2.096
 8213W        W74754   3.433  35.065  11.769
 8214W        W74755  13.574  37.435  12.493
 8215W        W74756  28.180  34.098  11.090
 8216W        W74757  42.026  34.096  11.659
 8217W        W74758  38.946  41.378  11.425
 8218W        W74759  28.137  29.127  10.700
 8219W        W74760  44.543   1.240  11.259
 8220W        W74761  22.892  20.758  13.557
 8221W        W74762   3.931  24.390   1.549
 8222W        W74763  38.596  38.183  12.896
 8223W        W74764  34.401  27.387   0.020
 8224W        W74765  24.993  29.009  12.126
 8225W        W74766  15.765   7.244   3.670
 8226W        W74767  24.437  18.374  11.163
 8227W        W74768  32.391  27.201   3.178
 8228W        W74769  24.448   2.730  12.427
 8229W        W74770   7.331  41.260   4.765
 8230W        W74771  38.191  41.258  12.535
 8231W        W74772  10.768   6.368   3.800
 8232W        W74773  10.788  21.319   1.580
 8233W        W74774   2.382  21.729  14.406
 8234W        W74775  14.258  17.632   2.746
 8235W        W74776  18.026   8.957   4.317
 8236W        W74777  42.903   5.556   0.939
 8237W        W74778  39.300   7.748   3.707
 8238W        W74779  29.828  29.946   0.258
 8239W        W74780  28.485  37.560   0.375
 8240W        W74781   4.838  37.208   2.646
 8241W        W74782  22.090  25.708  10.503
 8242W        W74783  42.858   4.282   0.342
 8243W        W74784  34.162  19.203   3.865
 8244W        W74785   0.318  37.407   2.086
 8245W        W74786  43.360  10.439   2.222
 8246W        W74787  34.847  41.470   0.349
 8247W        W74788   8.886  31.945  12.515
 8248W        W74789  44.979   1.158  13.427
 8249W        W74790  26.555  33.425  14.530
 8250W        W74791  31.382   8.180   3.969
 8251W        W74792  21.767  38.366   0.167
 8252W        W74793   0.381  29.508   1.325
 8253W        W74794  11.751  42.509  11.104
 8254W        W74795   3.067  24.506   2.670
 8255W        W74796  32.455  21.233  10.445
 8256W        W74797  42.473  15.467  14.936
 8257W        W74798  30.762  11.600   5.414
 8258W        W74799  31.859  30.477  10.726
 8259W        W74800  31.867   8.199  10.925
 8260W        W74801  39.549   2.811  12.835
 8261W        W74802  19.750  40.053   2.873
 8262W        W74803  39.376  37.469   1.679
 8263W        W74804  35.996   5.928   4.710
 8264W        W74805  36.547  44.728   3.695
 8265W        W74806  21.301   7.927  12.576
 8266W        W74807   4.693  35.817  12.559
 8267W        W74808  36.343  37.619   4.162
 8268W        W74809  36.987  44.868  14.403
 8269W        W74810  26.862  35.366  13.840
 8270W        W74811  14.282  12.768   0.884
 8271W        W74812  18.973  32.602  11.918
 8272W        W74813  26.081  33.438   4.365
 8273W        W74814  14.977  32.975   4.850
 8274W        W74815  40.172  22.539  14.995
 8275W        W74816   2.846   6.385  10.593
 8276W        W74817   4.759  13.561   1.351
 8277W        W74818   2.024  16.261  10.689
 8278W        W74819  31.885  42.318  10.628
 8279W        W74820   1.314  17.520   1.086
 8280W        W74821  19.341  10.387  10.763
 8281W        W74822  39.858  15.145  11.946
 8282W        W74823  22.714  32.551  12.184
 8283W        W74824  16.267   5.301  10.920
 8284W        W74825  18.827   1.866   4.240
 8285W        W74826  13.355  25.232   3.483
 8286W        W74827  15.775  12.680  11.507
 8287W        W74828  23.327   6.253   0.246
 8288W        W74829  26.302  14.279  14.872
 8289W        W74830  11.103  15.643   3.008
 8290W        W74831   3.314   3.281  14.855
 8291W        W74832  31.200   8.447  11.544
 8292W        W74833  24.705  35.850   1.953
 8293W        W74834  15.323   4.914  14.852
 8294W        W74835  18.758  35.398   2.587
 8295W        W74836  39.285   1.766  11.705
 8296W        W74837   2.648   9.044   2.768
 8297W        W74838   9.343  25.176  11.566
 8298W        W74839  17.922  41.248  12.056
 8299W        W74840  37.427  17.918  14.013
 8300W        W74841   9.780  27.639  10.766
 8301W        W74842  23.422  36.613   4.132
 8302W        W74843   9.698  40.319  11.527
 8303W        W74844  12.122   9.933  14.270
 8304W        W74845  41.305   1.238  11.965
 8305W        W74846  31.575  24.709   1.812
 8306W        W74847  22.680  15.849   4.598
 8307W        W74848  29.144  14.961   0.733
 8308W        W74849  23.762  33.864  10.739
 8309W        W74850  18.194  10.705  12.988
 8310W        W74851  27.118  14.172  10.539
 8311W        W74852  22.536  30.330  12.510
 8312W        W74853  29.629  21.977   2.697
 8313W        W74854  42.994  15.380   4.142
 8314W        W74855  29.899  22.127  13.958
 8315W        W74856   1.280   1.786   4.067
 8316W        W74857   7.560  23.734   2.307
 8317W        W74858  14.729  31.915  12.420
 8318W        W74859  36.768   4.616   3.864
 8319W        W74860  25.602  32.147   4.252
 8320W        W74861   3.419   0.534   4.221
 8321W        W74862   5.364   8.373   1.346
 8322W        W74863  16.479  26.297   0.963
 8323W        W74864  26.653  37.087   2.684
 8324W        W74865   4.306  39.863   0.401
 8325W        W74866  43.432  30.737  14.173
 8326W        W74867  12.245  32.996   3.505
 8327W        W74868  40.582   3.061   3.162
 8328W        W74869  17.607  11.363  12.292
 8329W        W74870   9.675  33.987   2.305
 8330W        W74871  16.219  40.581   4.852
 8331W        W74872  25.286  40.988  14.065
 8332W        W74873  20.661  26.254   3.749
 8333W        W74874   9.502  40.917  11.750
 8334W        W74875  24.931  34.019  11.462
 8335W        W74876   6.039  36.480   2.625
 8336W        W74877  39.009  15.425   0.805
 8337W        W74878   5.005  36.252   2.766
 8338W        W74879  30.485  11.535  11.629
 8339W        W74880  22.775   2.382  12.616
 8340W        W74881  24.732   7.864   3.754
 8341W        W74882  37.861  10.939   2.346
 8342W        W74883  39.599   9.136  12.003
 8343W        W74884  22.133  16.892   4.184
 8344W        W74885  23.337  28.821  12.589
 8345W        W74886  13.729  34.198   0.276
 8346W        W74887  37.531  37.035  12.921
 8347W        W74888  35.853  35.099  11.617
 8348W        W74889  44.380   0.018  12.895
 8349W        W74890  30.560  44.063   0.049
 8350W        W74891  43.705  42.838   1.724
 8351W        W74892  12.805  15.200  12.446
 8352W        W74893  41.630  19.738  12.517
 8353W        W74894  10.992   4.970  13.886
 8354W        W74895  18.735  15.802   4.864
 8355W        W74896  22.972   0.539   1.157
 8356W        W74897  23.660   0.763   3.743
 8357W        W74898  25.484  18.157   4.590
 8358W        W74899   6.457  42.632   4.566
 8359W        W74900  34.830  29.354  14.077
 8360W        W74901  20.225  42.921   4.757
 8361W        W74902  27.846   3.533   0.223
 8362W        W74903  36.104  44.166  11.577
 8363W        W74904  34.112   3.716   3.632
 8364W        W74905  38.815  39.829   4.016
 8365W        W74906  29.055   4.650   0.079
 8366W        W74907  44.591  26.924   4.216
 8367W        W74908  16.191   1.826   4.467
 8368W        W74909  35.894  43.990  14.353
 8369W        W74910  13.755  25.251   4.465
 8370W        W74911   1.273   1.410  14.056
 8371W        W74912  43.798  40.887  14.065
 8372W        W74913   8.774  22.160  11.514
 8373W        W74914   4.797  19.805  11.636
 8374W        W74915  13.279   1.693  14.096
 8375W        W74916  11.583  28.068  12.094
 8376W        W74917  16.134  14.787  13.488
 8377W        W74918  18.474   0.907   1.854
 8378W        W74919  14.820  11.336   2.747
 8379W        W74920  34.063   4.724   0.818
 8380W        W74921  44.796  40.302  13.161
 8381W        W74922  17.651  22.185  14.048
 8382W        W74923  21.168  22.600   9.803
 8383W        W74924   7.333  36.111  12.565
 8384W        W74925   9.128   0.494   0.692
 8385W        W74926  22.518  12.621   2.324
 8386W        W74927   9.890  17.965   4.459
 8387W        W74928   7.712  28.702  13.351
 8388W        W74929  34.801   7.618  13.023
 8389W        W74930  36.918  35.872  12.929
 8390W        W74931  43.426  36.745  13.319
 8391W        W74932  34.273  16.670  14.366
 8392W        W74933   2.735   5.857  12.436
 8393W        W74934  13.732  38.782  13.445
 8394W        W74935  43.900  42.019   4.537
 8395W        W74936  16.069  21.567   0.422
 8396W        W74937  38.509  15.675  13.005
 8397W        W74938  13.319  13.273   2.254
 8398W        W74939  40.807   1.473   1.237
 8399W        W74940  41.317  28.504   0.818
 8400W        W74941  39.530  15.352   0.871
 8401W        W74942  35.727  42.492  13.422
 8402W        W74943  39.784  21.761  12.492
 8403W        W74944  24.467  14.367   1.734
 8404W        W74945  27.687  28.201  14.230
 8405W        W74946  28.074  25.999   2.527
 8406W        W74947  17.816  37.965   4.311
 8407W        W74948  28.958   9.581  13.378
 8408W        W74949  24.807  13.142  10.756
 8409W        W74950   2.877  22.145  11.210
 8410W        W74951  13.741  15.682   4.514
 8411W        W74952  43.185  30.619   2.784
 8412W        W74953  35.904  33.968   0.751
 8413W        W74954  29.879  35.505  13.953
 8414W        W74955  11.033   3.907  14.540
 8415W        W74956   7.929  30.368   1.459
 8416W        W74957   4.932  11.197  10.682
 8417W        W74958  32.900  22.175   3.725
 8418W        W74959  23.007   9.737   0.208
 8419W        W74960  29.445  44.915  13.981
 8420W        W74961  43.728  11.729   3.238
 8421W        W74962  39.471  25.036   2.296
 8422W        W74963  36.283  32.320   0.374
 8423W        W74964   4.197   3.782  12.364
 8424W        W74965  16.088   0.936   2.457
 8425W        W74966  30.040  41.713  13.800
 8426W        W74967   1.153  36.520   4.608
 8427W        W74968   3.927  41.417   0.457
 8428W        W74969  38.128  31.801  13.137
 8429W        W74970  41.271  14.612  13.524
 8430W        W74971   8.173  34.854  14.733
 8431W        W74972  32.133  42.768  10.748
 8432W        W74973   8.877  14.164  14.021
 8433W        W74974  41.321  12.670  10.430
 8434W        W74975   4.223  26.021   2.175
 8435W        W74976  37.789  26.108   2.826
 8436W        W74977  17.147  10.667   0.719
 8437W        W74978   2.768  12.592  12.496
 8438W        W74979  39.098  15.074   2.918
 8439W        W74980  16.905  11.858   1.819
 8440W        W74981   0.974  20.602   1.414
 8441W        W74982  32.521  14.585   2.929
 8442W        W74983  38.426   2.317  13.125
 8443W        W74984  22.493  38.448  11.175
 8444W        W74985  30.041  25.079  14.516
 8445W        W74986  30.211  20.415  12.302
 8446W        W74987  43.988   3.248   1.378
 8447W        W74988  21.935  34.097   1.258
 8448W        W74989  22.707  19.157   3.762
 8449W        W74990  34.522   1.081   0.233
 8450W        W74991  41.948  26.550  14.741
 8451W        W74992  28.970   9.332  14.797
 8452W        W74993   5.211  10.295  14.079
 8453W        W74994  14.623  13.663   2.326
 8454W        W74995  44.328  24.144  12.978
 8455W        W74996  23.604  40.627   4.770
 8456W        W74997  12.285  38.440   1.907
 8457W        W74998  44.493  43.373  13.301
 8458W        W74999  33.036   6.592  14.648
 8459W        W75000  20.055  30.812   1.558
 8460W        W75001  10.198  25.825   3.791
 8461W        W75002  14.674  38.928   0.448
 8462W        W75003  30.618  19.115  12.186
 8463W        W75004  38.389  21.721   1.331
 8464W        W75005   7.116  23.674  11.186
 8465W        W75006   4.774  40.066   2.929
 8466W        W75007   8.646  33.980  11.042
 8467W        W75008  37.838  26.673   2.155
 8468W        W75009  33.824  44.420  11.862
 8469W        W75010  24.265   5.296   1.859
 8470W        W75011  14.317  20.634  14.938
 8471W        W75012  36.895  19.419  13.399
 8472W        W75013  25.518   7.461   2.485
 8473W        W75014   0.896   6.285   0.957
 8474W        W75015  18.775  15.383   3.631
 8475W        W75016   3.891  30.669  12.489
 8476W        W75017   7.715  41.727  12.010
 8477W        W75018  13.817   1.226  14.823
 8478W        W75019  33.076  26.747  12.155
 8479W        W75020  36.049  35.021   0.169
 8480W        W75021  39.276   0.266   1.823
 8481W        W75022  30.026  11.120   5.603
 8482W        W75023  33.310  41.450   5.385
 8483W        W75024  28.032  12.464   5.030
 8484W        W75025  16.690   1.936  12.679
 8485W        W75026   0.392  13.258  14.460
 8486W        W75027  19.374   7.313  12.025
 8487W        W75028  20.496  42.988   1.487
 8488W        W75029  20.524  19.985  11.556
 8489W        W75030  23.896   9.247   2.313
 8490W        W75031  25.371   3.060  14.008
 8491W        W75032   3.323  34.133   3.884
 8492W        W75033  11.381  19.001  11.416
 8493W        W75034  41.488  27.607  14.868
 8494W        W75035  34.411  37.693  14.293
 8495W        W75036   3.350  36.231   3.153
 8496W        W75037  44.788   2.822   0.223
 8497W        W75038   8.623  24.891  13.782
 8498W        W75039  31.983  33.169  13.499
 8499W        W75040  20.545  36.156   1.868
 8500W        W75041   7.892  44.325   2.174
 8501W        W75042  20.271   5.148   0.310
 8502W        W75043  23.508  12.178  12.099
 8503W        W75044   2.945  39.089   4.495
 8504W        W75045  29.662   7.185  12.642
 8505W        W75046   0.257  15.792  10.751
 8506W        W75047  15.134  13.685   1.478
 8507W        W75048  40.510  21.522  11.568
 8508W        W75049  39.499  18.865   2.696
 8509W        W75050  23.834  32.117   3.102
 8510W        W75051  44.285  44.225  13.647
 8511W        W75052  24.459  24.990   2.753
 8512W        W75053  37.189   6.252   3.125
 8513W        W75054  39.353  16.849   3.569
 8514W        W75055   9.203  28.579  12.617
 8515W        W75056  39.782   2.327   4.527
 8516W        W75057  24.238  26.576   4.390
 8517W        W75058   9.125   4.650   1.480
 8518W        W75059  30.946  24.214  14.370
 8519W        W75060   9.217  22.259   4.465
 8520W        W75061  13.134  43.275  13.323
 8521W        W75062  11.937   3.951   3.016
 8522W        W75063  30.486   1.706  14.028
 8523W        W75064  16.771  42.301  10.711
 8524W        W75065   5.586  43.841  14.907
 8525W        W75066  10.155  13.873  12.987
 8526W        W75067  20.570   7.168   2.280
 8527W        W75068   7.817  37.365  13.886
 8528W        W75069  18.299  32.347   3.674
 8529W        W75070  14.129  39.884  13.055
 8530W        W75071  15.335  44.570   0.823
 8531W        W75072  36.335  18.488  11.102
 8532W        W75073   6.528  44.507  11.121
 8533W        W75074  23.473  30.011  12.917
 8534W        W75075   5.994  13.151   9.814
 8535W        W75076   4.378  24.221  10.640
 8536W        W75077  11.598  11.653  13.675
 8537W        W75078   0.358  36.926  14.017
 8538W        W75079   3.559   6.933  13.892
 8539W        W75080   2.383  44.605  11.547
 8540W        W75081  34.941  15.834   3.613
 8541W        W75082  27.424  34.822   3.777
 8542W        W75083  39.857  39.341  13.909
 8543W        W75084  23.265  16.745   0.401
 8544W        W75085   4.521   0.898   0.408
 8545W        W75086   7.021  15.270   3.404
 8546W        W75087  12.832  36.867  13.474
 8547W        W75088   3.447  43.329  12.167
 8548W        W75089  10.170  20.598  14.455
 8549W        W75090  35.336  37.498   3.354
 8550W        W75091  26.146  40.131   2.808
 8551W        W75092  10.498   0.723   9.923
 8552W        W75093   7.035  25.479   9.831
 8553W        W75094   1.754  11.463  12.834
 8554W        W75095  15.259   6.431  11.516
 8555W        W75096  23.780  32.671  13.125
 8556W        W75097  24.184  27.116  13.816
 8557W        W75098  22.278  39.732   0.499
 8558W        W75099   9.860  26.863  11.642
 8559W        W75100  28.907   5.845   2.342
 8560W        W75101  41.770   4.713   1.119
 8561W        W75102  44.749   1.285   1.729
 8562W        W75103  23.162  24.497   3.275
 8563W        W75104  39.644  12.679  12.448
 8564W        W75105  38.525  14.264   0.797
 8565W        W75106   2.404   4.336   0.869
 8566W        W75107  33.601  24.644  14.315
 8567W        W75108  21.228  30.950  14.458
 8568W        W75109  30.229   4.043   1.408
 8569W        W75110   2.219  44.684   4.240
 8570W        W75111   7.777  16.228   2.923
 8571W        W75112  40.468   1.061  11.273
 8572W        W75113  24.752  43.739  14.891
 8573W        W75114  29.044  37.119  11.001
 8574W        W75115  19.805  35.857   3.287
 8575W        W75116  27.404  13.276   2.201
 8576W        W75117  22.774  43.361   3.711
 8577W        W75118  36.572  26.398   4.426
 8578W        W75119   8.620  44.854   1.844
 8579W        W75120   9.126  39.561  13.441
 8580W        W75121  14.465  22.639  14.420
 8581W        W75122  24.148  14.267   2.909
 8582W        W75123   2.234   9.129  12.087
 8583W        W75124  39.553  22.308   4.571
 8584W        W75125   2.424   4.859   3.375
 8585W        W75126  30.973  42.457  12.869
 8586W        W75127  24.089  34.342   4.787
 8587W        W75128  16.486  26.120  13.792
 8588W        W75129  15.112  26.589   4.039
 8589W        W75130  14.244  12.082  13.808
 8590W        W75131  25.523   5.274   3.202
 8591W        W75132  18.951  10.429  11.572
 8592W        W75133   9.778   1.190  13.025
 8593W        W75134  39.173  27.634   4.446
 8594W        W75135  17.191   5.837   2.632
 8595W        W75136  10.124  42.867  10.555
 8596W        W75137  23.492  42.279  13.882
 8597W        W75138  33.976  17.562  11.221
 8598W        W75139  11.885  20.276   1.876
 8599W        W75140  32.363   9.625  14.064
 8600W        W75141  40.622  12.423  11.945
 8601W        W75142   6.886   4.664  11.666
 8602W        W75143  17.658  10.919  14.880
 8603W        W75144  35.391  40.801  14.716
 8604W        W75145  41.773  16.247  12.812
 8605W        W75146  28.602  14.237   1.718
 8606W        W75147  17.224  20.531   1.857
 8607W        W75148  40.830   0.041   2.787
 8608W        W75149   8.228  44.240   5.003
 8609W        W75150  20.200  38.661   0.986
 8610W        W75151  14.082  13.515  13.369
 8611W        W75152  25.911  22.373   1.430
 8612W        W75153  19.243   7.239   4.885
 8613W        W75154  43.070  17.298   5.080
 8614W        W75155  12.580  35.026   4.104
 8615W        W75156  19.135  40.263  12.396
 8616W        W75157  13.643  19.527   0.504
 8617W        W75158  34.301  13.377   0.795
 8618W        W75159  24.124   7.442   2.261
 8619W        W75160  37.567  35.189  12.528
 8620W        W75161  43.234  13.125  12.009
 8621W        W75162   3.307  31.709   1.166
 8622W        W75163  41.383  15.807   3.215
 8623W        W75164   8.885  34.288   2.737
 8624W        W75165   7.724  34.859   5.276
 8625W        W75166  35.386  42.991   2.408
 8626W        W75167  41.037  14.713  14.433
 8627W        W75168   0.251  26.396   0.324
 8628W        W75169  21.974  37.363   0.952
 8629W        W75170  23.755  10.869   2.306
 8630W        W75171  23.590  14.674  11.503
 8631W        W75172  41.439  24.411   4.864
 8632W        W75173  32.662  28.607   2.379
 8633W        W75174  23.158   1.735   1.702
 8634W        W75175  39.461  25.038   1.270
 8635W        W75176  18.135  33.562   0.385
 8636W        W75177  30.382  18.818  14.736
 8637W        W75178  15.254  10.130  12.422
 8638W        W75179  26.790  12.588  13.357
 8639W        W75180   0.986  28.037  11.700
 8640W        W75181   4.402  23.001   3.646
 8641W        W75182  32.959  34.099   1.225
 8642W        W75183   8.724  21.702  14.868
 8643W        W75184  43.003  42.742   4.372
 8644W        W75185  15.735  34.634   3.209
 8645W        W75186  29.508  13.231  13.156
 8646W        W75187  42.898  23.538   2.900
 8647W        W75188   4.246   1.402   2.080
 8648W        W75189   9.684  15.972  11.732
 8649W        W75190   2.190   4.844   1.512
 8650W        W75191   2.412  26.651  10.475
 8651W        W75192  10.134  40.977   2.278
 8652W        W75193  10.812   0.743   1.628
 8653W        W75194  25.623  21.738  12.203
 8654W        W75195  25.535  11.217  11.938
 8655W        W75196  43.844  37.917   4.207
 8656W        W75197   2.670  44.044   1.709
 8657W        W75198  25.110   6.219   2.156
 8658W        W75199  39.788   7.111   1.325
 8659W        W75200  43.535  11.550   1.552
 8660W        W75201  34.095   1.226  10.248
 8661W        W75202  29.860  22.290  11.975
 8662W        W75203  34.140  38.834   3.713
 8663W        W75204  22.215  18.443  11.080
 8664W        W75205   0.434  13.322  11.214
 8665W        W75206  17.625  38.993  13.116
 8666W        W75207  41.340  40.771  13.900
 8667W        W75208  20.855   1.699   1.661
 8668W        W75209  11.956  34.071   1.851
 8669W        W75210  44.359  40.326  12.387
 8670W        W75211   7.303   6.244   2.314
 8671W        W75212  36.838  17.845  10.510
 8672W        W75213   4.855   2.836  12.888
 8673W        W75214  32.536  39.526  14.124
 8674W        W75215   3.905  11.213  11.781
 8675W        W75216  15.159  25.418   4.458
 8676W        W75217  27.124  38.788   4.682
 8677W        W75218  22.218  15.781   9.834
 8678W        W75219  19.087  38.459   4.225
 8679W        W75220  29.719  27.470  11.108
 8680W        W75221   4.638  27.618   4.932
 8681W        W75222  25.000  38.609  10.662
 8682W        W75223  38.989  21.281  13.855
 8683W        W75224   0.004   3.949  11.002
 8684W        W75225  11.396  10.914  11.212
 8685W        W75226  26.688  25.067  14.611
 8686W        W75227  15.922  11.104   1.861
 8687W        W75228  29.145   0.253   4.691
 8688W        W75229  14.552   3.876   0.137
 8689W        W75230  19.033  33.440   1.904
 8690W        W75231  27.594  25.310   2.448
 8691W        W75232   5.353  33.559  11.210
 8692W        W75233   7.788   2.335   3.564
 8693W        W75234  12.142  28.027   1.464
 8694W        W75235  22.802  31.444  10.804
 8695W        W75236  38.422  43.823  11.513
 8696W        W75237   0.324  34.940   2.678
 8697W        W75238  26.610  40.861  12.337
 8698W        W75239   2.437  36.319  10.683
 8699W        W75240  15.288  30.994  14.028
 8700W        W75241  35.338  19.872  14.667
 8701W        W75242  24.175  23.866  11.948
 8702W        W75243  16.049  21.755  14.902
 8703W        W75244  24.464  15.201  12.094
 8704W        W75245   1.236  26.336   2.309
 8705W        W75246  22.637  37.403  13.877
 8706W        W75247  14.980  30.029  13.920
 8707W        W75248  30.713  33.420  12.689
 8708W        W75249  35.959  36.856   4.331
 8709W        W75250  39.064  18.431  10.642
 8710W        W75251  28.292  25.712  13.412
 8711W        W75252  18.820  44.393   1.842
 8712W        W75253  36.391  34.605   2.840
 8713W        W75254  44.759   3.256  14.258
 8714W        W75255  36.487   2.753   0.510
 8715W        W75256  16.669  25.918  12.123
 8716W        W75257  38.044  14.674   3.652
 8717W        W75258  17.981  34.960   3.046
 8718W        W75259  19.567   0.442   3.690
 8719W        W75260  16.788  38.234  12.047
 8720W        W75261  23.615  29.249  11.952
 8721W        W75262  38.464  37.527  12.141
 8722W        W75263  20.268  38.355   3.669
 8723W        W75264   4.277  40.382   0.409
 8724W        W75265  42.400  43.108  11.595
 8725W        W75266   2.482   9.063   4.162
 8726W        W75267  43.936  29.043  12.580
 8727W        W75268  12.795   1.584  14.249
 8728W        W75269  34.855  38.029   0.375
 8729W        W75270   5.350   3.224   3.911
 8730W        W75271  11.225  22.495   0.419
 8731W        W75272  14.368  23.596   0.484
 8732W        W75273  17.404  15.426   4.110
 8733W        W75274  14.261   7.092   1.171
 8734W        W75275  31.975  14.510  12.672
 8735W        W75276  22.967  16.532  11.135
 8736W        W75277  29.008  43.580  14.067
 8737W        W75278  22.564  35.380   4.582
 8738W        W75279  10.483  29.717  11.096
 8739W        W75280  21.476  16.139   3.698
 8740W        W75281  35.196  34.008  12.649
 8741W        W75282  25.478  25.111   2.708
 8742W        W75283  26.785  20.201   4.413
 8743W        W75284  44.313   4.081   0.382
 8744W        W75285  42.905  10.251   3.112
 8745W        W75286  23.553  42.039   4.047
 8746W        W75287  15.846  44.535   1.711
 8747W        W75288  25.002   1.689   1.697
 8748W        W75289  19.286  41.569  14.912
 8749W        W75290  41.051   5.304  11.072
 8750W        W75291  40.127  25.109   4.250
 8751W        W75292  25.185  33.098   2.839
 8752W        W75293  39.962  17.805   0.903
 8753W        W75294  42.033   9.002  14.449
 8754W        W75295  23.725  11.701   3.646
 8755W        W75296   7.893  11.540   4.084
 8756W        W75297  37.287  25.670   2.258
 8757W        W75298  22.693   0.912  10.019
 8758W        W75299  32.966  35.179   1.949
 8759W        W75300  24.533   0.401   0.818
 8760W        W75301  26.472  16.901   0.551
 8761W        W75302  11.054  35.830   3.688
 8762W        W75303  14.332   1.305   2.070
 8763W        W75304   9.749  34.029  11.938
 8764W        W75305  21.259  43.889   0.222
 8765W        W75306  17.174  18.745   4.317
 8766W        W75307  16.972  34.891   3.273
 8767W        W75308  28.662  29.122  10.744
 8768W        W75309  15.271   6.408   0.698
 8769W        W75310   2.018   8.010   4.034
 8770W        W75311  38.378  30.440   1.938
 8771W        W75312  27.932  42.423   0.365
 8772W        W75313  16.536   6.750  13.143
 8773W        W75314  31.186  18.838  14.073
 8774W        W75315  22.291   5.245   0.846
 8775W        W75316  29.785  27.344   2.798
 8776W        W75317   6.477  41.928   1.961
 8777W        W75318  18.094   3.436  13.479
 8778W        W75319  10.860  40.443   4.399
 8779W        W75320  34.101   5.811  14.235
 8780W        W75321  13.744  27.359  11.614
 8781W        W75322  39.942  27.585  13.367
 8782W        W75323   4.996  14.591   1.248
 8783W        W75324  22.962  16.702   2.278
 8784W        W75325  40.910  28.508  11.510
 8785W        W75326  37.000  34.646  14.309
 8786W        W75327  23.775  13.679   4.754
 8787W        W75328   5.817  37.088  13.089
 8788W        W75329   4.393  12.328  11.092
 8789W        W75330  14.331  39.508  11.162
 8790W        W75331  29.543  24.205   1.404
 8791W        W75332  15.280   4.806  13.509
 8792W        W75333  39.284   9.161  13.764
 8793W        W75334   3.846  26.466   3.642
 8794W        W75335  28.514  35.573   0.402
 8795W        W75336  42.422  18.548  14.988
 8796W        W75337   3.636  28.963  11.925
 8797W        W75338  43.503  32.624  11.986
 8798W        W75339   0.273   6.485  10.699
 8799W        W75340  34.971  22.174   1.902
 8800W        W75341  37.896  24.469   3.374
 8801W        W75342  43.272  25.656  14.261
 8802W        W75343  25.905  36.492  11.037
 8803W        W75344  21.278  26.762  10.990
 8804W        W75345  23.593   1.139   1.444
 8805W        W75346  38.449  42.372   0.869
 8806W        W75347  23.280  38.921   1.009
 8807W        W75348   0.862  28.298   5.090
 8808W        W75349  33.991  44.209   0.778
 8809W        W75350   2.633  10.345  10.564
 8810W        W75351  44.995  18.614  14.559
 8811W        W75352  43.446   6.538   4.374
 8812W        W75353  27.130  26.264   0.187
 8813W        W75354  29.599  36.286   2.305
 8814W        W75355  35.063  32.117   2.823
 8815W        W75356  25.036  22.444  12.538
 8816W        W75357  16.833  17.252   4.462
 8817W        W75358  40.749   0.914  11.679
 8818W        W75359  27.907  21.829   2.298
 8819W        W75360  22.947   9.611  12.967
 8820W        W75361  12.699  18.291  11.210
 8821W        W75362  12.953   5.893  12.985
 8822W        W75363  16.303   4.456   3.624
 8823W        W75364  12.733  23.457   4.312
 8824W        W75365  16.476   4.755   1.450
 8825W        W75366  30.344   4.104  12.999
 8826W        W75367  18.816   8.160   4.302
 8827W        W75368  37.835  41.623  11.967
 8828W        W75369   2.251  24.447   2.277
 8829W        W75370  14.403  16.162   1.411
 8830W        W75371   7.774   8.247   1.893
 8831W        W75372  39.678   2.406  12.063
 8832W        W75373  11.106  42.879   4.599
 8833W        W75374  22.961  43.009  12.230
 8834W        W75375  28.979  22.572  11.948
 8835W        W75376  26.825  19.220  10.547
 8836W        W75377   6.350  41.486   4.187
 8837W        W75378  13.331  30.600  12.696
 8838W        W75379  29.556   8.498   1.268
 8839W        W75380  10.612  13.588  10.738
 8840W        W75381  11.159  32.390   3.201
 8841W        W75382  44.225  24.871  13.419
 8842W        W75383  18.698  33.832  13.957
 8843W        W75384  26.476   6.027   3.678
 8844W        W75385  10.986  41.384   5.420
 8845W        W75386  16.662  42.662   1.916
 8846W        W75387  27.648  26.163  12.172
 8847W        W75388  15.794   2.552  12.561
 8848W        W75389   6.549  13.904  13.910
 8849W        W75390  37.361  19.653  13.527
 8850W        W75391  18.763  23.119  13.615
 8851W        W75392   1.438  44.438  11.660
 8852W        W75393   7.155   3.303  12.888
 8853W        W75394  35.796  30.660  11.501
 8854W        W75395  23.982  29.374  11.425
 8855W        W75396  34.923  31.040  11.853
 8856W        W75397  41.544  30.081   2.230
 8857W        W75398   4.544  36.393  12.080
 8858W        W75399  27.203  26.012   2.659
 8859W        W75400  10.189  42.756  14.468
 8860W        W75401   4.838   0.195   4.016
 8861W        W75402  16.301   0.468  14.729
 8862W        W75403  31.027  19.777   3.377
 8863W        W75404  31.986  24.181  13.862
 8864W        W75405  16.334  14.507   0.043
 8865W        W75406  32.776  44.666  11.140
 8866W        W75407  19.129  13.891   2.747
 8867W        W75408  10.215  30.063  12.345
 8868W        W75409  43.078  23.336   0.740
 8869W        W75410  26.351  25.735   3.088
 8870W        W75411  40.769  28.550  12.223
 8871W        W75412  33.173  14.839   4.671
 8872W        W75413   7.366   2.748   4.842
 8873W        W75414  28.997  43.517  13.520
 8874W        W75415  33.304  15.112   2.951
 8875W        W75416   1.717  43.813   1.952
 8876W        W75417  10.244  43.561   0.374
 8877W        W75418  27.605  15.294  10.995
 8878W        W75419  36.641  14.172  10.195
 8879W        W75420  33.586  11.674   3.937
 8880W        W75421   7.688  32.133  14.678
 8881W        W75422  21.057  11.297  11.654
 8882W        W75423  31.618  29.067  13.694
 8883W        W75424  15.081   8.658   0.574
 8884W        W75425   3.433   9.837   1.254
 8885W        W75426   6.145  20.149  12.923
 8886W        W75427  41.097   1.068   1.112
 8887W        W75428  25.589  25.756   1.693
 8888W        W75429  30.363  32.110   0.838
 8889W        W75430  18.515  24.244   1.644
 8890W        W75431  12.582   5.747   0.814
 8891W        W75432  37.804   6.451  13.039
 8892W        W75433  16.876  37.476  12.465
 8893W        W75434  14.296  15.349  12.269
 8894W        W75435  41.424  23.602   3.799
 8895W        W75436  31.070  17.581  14.349
 8896W        W75437  19.249  11.901  13.073
 8897W        W75438  41.721  23.256  13.234
 8898W        W75439  44.612  38.973  12.660
 8899W        W75440  33.645   1.758  13.456
 8900W        W75441  31.107  11.840   1.777
 8901W        W75442   8.340  15.656   3.257
 8902W        W75443   2.128  16.279   4.351
 8903W        W75444   0.756  27.233  10.771
 8904W        W75445   5.485  18.158   1.759
 8905W        W75446  26.191  10.344  11.169
 8906W        W75447  34.747   2.694  13.403
 8907W        W75448  25.178  12.188   2.821
 8908W        W75449  42.504  34.976  10.718
 8909W        W75450  26.114  15.511   4.283
 8910W        W75451  22.529  15.000   3.919
 8911W        W75452  43.488  14.628   4.138
 8912W        W75453  15.621  21.128   5.133
 8913W        W75454   6.401   1.266  10.357
 8914W        W75455  24.782  32.900  11.594
 8915W        W75456  34.322  12.906  11.607
 8916W        W75457  44.477  44.520  14.589
 8917W        W75458  12.370  11.405   2.022
 8918W        W75459  27.486  25.836  13.865
 8919W        W75460  40.034  35.456  14.961
 8920W        W75461  26.036  29.177   3.759
 8921W        W75462  38.328  42.270   3.272
 8922W        W75463  12.665  11.896   3.940
 8923W        W75464   4.668  30.183   2.315
 8924W        W75465  39.894  34.993  12.897
 8925W        W75466  15.564  19.963  14.284
 8926W        W75467  27.482   8.783  12.032
 8927W        W75468  16.562  20.613  10.689
 8928W        W75469  28.444  35.693   3.309
 8929W        W75470  23.405   2.187   3.678
 8930W        W75471  32.161  37.670   4.493
 8931W        W75472  35.443  12.137   4.651
 8932W        W75473  25.457  31.459  14.934
 8933W        W75474  12.891  29.561   0.699
 8934W        W75475   8.933  26.572  10.605
 8935W        W75476  38.798  31.672   1.802
 8936W        W75477  40.906  20.086   1.398
 8937W        W75478   5.892  43.101   1.652
 8938W        W75479  21.998   0.312   1.382
 8939W        W75480  14.534  38.443   1.724
 8940W        W75481  12.859  33.143  13.416
 8941W        W75482  23.066  16.560   0.842
 8942W        W75483  11.300  21.316  12.928
 8943W        W75484  16.834  30.011  12.826
 8944W        W75485  40.107  27.026  14.359
 8945W        W75486  43.691  18.849   4.104
 8946W        W75487  24.058  24.732  11.629
 8947W        W75488  36.428  37.446  11.600
 8948W        W75489  28.509   4.871   1.224
 8949W        W75490   9.438  36.157  14.523
 8950W        W75491  33.384  39.315  11.430
 8951W        W75492  43.473   6.682  12.917
 8952W        W75493  23.114  10.120  12.825
 8953W        W75494   8.191  36.452   3.762
 8954W        W75495  42.904  25.576   4.246
 8955W        W75496  26.079  16.652   2.817
 8956W        W75497  15.599  19.229   1.760
 8957W        W75498  39.410  19.540  13.429
 8958W        W75499   8.648  26.210  11.932
 8959W        W75500   5.351  19.825  11.555
 8960W        W75501  20.510  33.541   2.290
 8961W        W75502  10.736  43.961   2.645
 8962W        W75503  34.418   0.683  12.836
 8963W        W75504  44.711  33.707  10.632
 8964W        W75505   5.033   6.903   2.950
 8965W        W75506  19.557  35.980  14.110
 8966W        W75507  44.148  13.887   2.702
 8967W        W75508   8.347  43.467   4.400
 8968W        W75509  44.382   3.964  11.186
 8969W        W75510   9.484  15.908   3.603
 8970W        W75511  14.143  41.798   2.763
 8971W        W75512  22.705  30.000   0.273
 8972W        W75513  17.386  18.039  11.691
 8973W        W75514  13.606   0.889   2.561
 8974W        W75515  28.961   9.564  12.496
 8975W        W75516  25.244  38.042  12.574
 8976W        W75517   8.738  37.407   1.772
 8977W        W75518  21.409  22.965   2.717
 8978W        W75519  28.358  41.271   2.800
 8979W        W75520   2.074  38.343  13.450
 8980W        W75521   6.283   5.476  11.037
 8981W        W75522  25.462  32.596  11.864
 8982W        W75523  17.702  23.134  14.036
 8983W        W75524  42.397  34.685  13.465
 8984W        W75525  32.114   6.580  13.873
 8985W        W75526  41.297  22.438   1.878
 8986W        W75527   4.934  35.164   4.184
 8987W        W75528   2.460  38.430  11.186
 8988W        W75529  36.968  26.730  11.968
 8989W        W75530  10.523  43.531   2.353
 8990W        W75531  20.029  43.878  11.675
 8991W        W75532   2.507  13.853  12.162
 8992W        W75533  31.159  18.344  13.874
 8993W        W75534  25.600   7.352   1.483
 8994W        W75535  11.108  23.644  10.753
 8995W        W75536  18.025  34.534   3.517
 8996W        W75537  38.368  36.296   2.259
 8997W        W75538   6.555  10.729  13.123
 8998W        W75539  16.310  35.946  13.938
 8999W        W75540  40.588  44.104  13.754
 9000W        W75541  13.074   8.241  11.549
 9001W        W75542  35.589  17.444  10.958
 9002W        W75543  34.834  42.344  11.637
 9003W        W75544  20.705  42.818  14.051
 9004W        W75545  22.090  24.450   0.789
 9005W        W75546  41.264  40.359   0.623
 9006W        W75547  18.222  17.811  10.631
 9007W        W75548  26.643  38.480   2.835
 9008W        W75549  42.834  34.161   3.332
 9009W        W75550   1.007   6.986  11.912
 9010W        W75551  29.571  40.759  11.497
 9011W        W75552  32.964  37.496  12.862
 9012W        W75553  32.488  18.355  14.542
 9013W        W75554   7.575  19.969  14.424
 9014W        W75555  44.269  11.323  11.490
 9015W        W75556  12.366   5.648   1.283
 9016W        W75557  44.605   7.816  11.046
 9017W        W75558  34.070  44.782   2.200
 9018W        W75559  24.394   0.930   0.988
 9019W        W75560  21.187  22.562   3.428
 9020W        W75561   5.876  26.200  12.691
 9021W        W75562  14.929  18.757   0.191
 9022W        W75563  38.343  36.618   1.782
 9023W        W75564  41.075  10.455   1.801
 9024W        W75565  24.555  19.674   4.627
 9025W        W75566   0.989  32.324   2.187
 9026W        W75567  12.214  30.857   1.822
 9027W        W75568  27.922  36.437   1.714
 9028W        W75569  42.909  43.902   0.385
 9029W        W75570  25.007   5.837  13.127
 9030W        W75571   0.442   4.012  11.262
 9031W        W75572  21.565  30.158  13.484
 9032W        W75573  14.052   6.727  12.641
 9033W        W75574  36.755  42.464   1.334
 9034W        W75575   7.074  21.506  10.623
 9035W        W75576  26.232  33.128  11.126
 9036W        W75577  33.607  37.338  14.924
 9037W        W75578  37.344  16.582  12.384
 9038W        W75579   3.478  30.355   4.631
 9039W        W75580  15.798   0.614  10.282
 9040W        W75581  37.481  13.345  11.971
 9041W        W75582  18.162  32.594  13.081
 9042W        W75583  40.455  31.112   2.668
 9043W        W75584  42.749  10.636  12.978
 9044W        W75585   3.314  36.855   0.235
 9045W        W75586  15.521  12.308  12.666
 9046W        W75587  14.414  30.185  10.691
 9047W        W75588  16.044  32.444   3.232
 9048W        W75589  42.206  42.210   2.553
 9049W        W75590  24.013  33.222   1.568
 9050W        W75591   3.048  42.790  10.704
 9051W        W75592  40.585  42.819  14.078
 9052W        W75593  22.177  40.539   0.896
 9053W        W75594   2.406   3.333  11.737
 9054W        W75595  40.935   2.139  13.055
 9055W        W75596  14.177   5.656   0.894
 9056W        W75597   8.161   5.050  14.294
 9057W        W75598  31.576   2.716  10.868
 9058W        W75599   9.911  40.582   4.034
 9059W        W75600  30.158   1.011   0.774
 9060W        W75601  30.011   6.631  10.630
 9061W        W75602   1.676   1.417  11.912
 9062W        W75603  31.463  35.604   4.411
 9063W        W75604  26.970  41.825   4.698
 9064W        W75605  37.551  39.072   0.436
 9065W        W75606  43.775   8.748  11.151
 9066W        W75607  21.642  38.043   4.717
 9067W        W75608  21.089  26.572  12.277
 9068W        W75609  42.396  10.437  11.546
 9069W        W75610  36.863   1.780  13.415
 9070W        W75611  21.002  12.104  14.313
 9071W        W75612  27.270  18.118   5.166
 9072W        W75613  25.796   4.325  14.301
 9073W        W75614  18.863  11.736   0.369
 9074W        W75615  37.482   8.686  14.758
 9075W        W75616   6.977  26.609   3.691
 9076W        W75617  13.301  38.725  12.818
 9077W        W75618  31.074   2.740  12.391
 9078W        W75619  15.084  22.701   2.602
 9079W        W75620  42.926  37.245   0.363
 9080W        W75621  20.214  40.905  12.984
 9081W        W75622   1.252  25.550   1.813
 9082W        W75623  23.475  41.466  11.507
 9083W        W75624  39.002   4.339  13.326
 9084W        W75625  26.477  21.055   1.784
 9085W        W75626   5.519  31.959  10.736
 9086W        W75627  22.998  37.617  11.439
 9087W        W75628  10.634  12.622   3.704
 9088W        W75629  44.561  28.424   0.971
 9089W        W75630  31.031   8.838   3.280
 9090W        W75631  15.888   2.366   4.794
 9091W        W75632  38.076  34.493  13.530
 9092W        W75633  20.985   9.170   3.133
 9093W        W75634   7.575  43.610   4.945
 9094W        W75635  36.278  16.140  11.935
 9095W        W75636  37.555  40.033  10.634
 9096W        W75637  14.585  14.845  11.019
 9097W        W75638  12.453  12.205  14.487
 9098W        W75639  37.082   1.323  11.204
 9099W        W75640   4.226   4.940  13.315
 9100W        W75641  33.631  40.035   0.503
 9101W        W75642  38.068  27.445   2.596
 9102W        W75643  18.793   0.861  11.532
 9103W        W75644  44.224  19.484   0.904
 9104W        W75645  34.523  10.453  13.738
 9105W        W75646   2.437  28.524  12.140
 9106W        W75647  34.315  14.286   2.365
 9107W        W75648  30.632  22.477   4.413
 9108W        W75649  18.901  26.922   1.396
 9109W        W75650  23.201   9.849   1.796
 9110W        W75651  35.917  16.270  11.228
 9111W        W75652  16.655  44.987  11.182
 9112W        W75653  22.468  29.067  12.837
 9113W        W75654  15.610  14.457   1.791
 9114W        W75655  36.341  23.956   2.653
 9115W        W75656  43.349  43.261   0.037
 9116W        W75657  23.795  27.060   2.194
 9117W        W75658  12.138   9.211  13.699
 9118W        W75659  29.611  41.812   1.185
 9119W        W75660  23.076  31.791  11.120
 9120W        W75661   3.183   5.212   3.516
 9121W        W75662  44.110  20.724   2.300
 9122W        W75663  13.870   2.604   2.143
 9123W        W75664   1.568  39.784  10.962
 9124W        W75665  40.067   0.350  14.752
 9125W        W75666  17.782  26.999  10.921
 9126W        W75667  41.557  27.093   3.353
 9127W        W75668  27.204  33.524  13.892
 9128W        W75669  41.674  27.707  12.065
 9129W        W75670  35.182  42.966   3.317
 9130W        W75671  19.754  19.246   4.070
 9131W        W75672  15.548   2.270  13.899
 9132W        W75673  43.789   5.388   3.208
 9133W        W75674  17.523  36.021   4.195
 9134W        W75675  14.797   0.959   0.980
 9135W        W75676  25.506  20.381  11.688
 9136W        W75677  43.660  23.636  12.805
 9137W        W75678  39.918  23.251   2.633
 9138W        W75679   8.737   9.287   0.849
 9139W        W75680   2.755  30.930   1.544
 9140W        W75681  14.220  15.319   4.077
 9141W        W75682  18.214  11.287  12.542
 9142W        W75683  34.455  31.224  10.728
 9143W        W75684  40.783  17.134   5.073
 9144W        W75685  43.278  35.562   4.331
 9145W        W75686  31.435   0.452   0.819
 9146W        W75687  16.602  36.490  13.627
 9147W        W75688  44.144  14.668   0.202
 9148W        W75689  18.557  29.172  11.111
 9149W        W75690  16.173  19.885   3.175
 9150W        W75691  10.201  15.543   4.553
 9151W        W75692  26.120  33.936  10.687
 9152W        W75693   8.362  28.938   0.889
 9153W        W75694  39.301  28.009   2.224
 9154W        W75695  18.715   0.460   1.233
 9155W        W75696  39.724  23.611  13.837
 9156W        W75697  42.710   0.004   0.832
 9157W        W75698  32.941  32.523  13.992
 9158W        W75699  21.617  35.933  12.312
 9159W        W75700   9.473  29.912   2.600
 9160W        W75701   4.990  37.396  13.339
 9161W        W75702   9.371  29.263  11.678
 9162W        W75703  27.902  26.567   4.086
 9163W        W75704  18.191  40.012  13.294
 9164W        W75705  31.570   1.268  14.022
 9165W        W75706  32.195  34.220   3.236
 9166W        W75707   0.886  28.990  14.274
 9167W        W75708  27.883  30.594  10.269
 9168W        W75709  11.126  23.226  12.741
 9169W        W75710  29.892  42.559  11.982
 9170W        W75711   7.379  38.381  11.628
 9171W        W75712  40.616  28.107   3.226
 9172W        W75713  20.711  39.574   4.438
 9173W        W75714  40.577  16.145  13.505
 9174W        W75715  26.215  27.726  11.943
 9175W        W75716  27.435  34.810   0.507
 9176W        W75717  16.333  44.333  13.635
 9177W        W75718  23.306   0.254   0.167
 9178W        W75719  21.338  17.833  14.851
 9179W        W75720  14.645  15.092  12.938
 9180W        W75721  20.269   2.352   1.780
 9181W        W75722  18.399  11.581  12.935
 9182W        W75723  23.490   0.946   1.955
 9183W        W75724  39.018  17.250  12.048
 9184W        W75725   6.100  24.841   1.769
 9185W        W75726  12.785  35.700  11.443
 9186W        W75727  34.093  26.645  13.003
 9187W        W75728   1.511  33.858   2.775
 9188W        W75729  13.849   1.751   0.679
 9189W        W75730  37.193  21.473   4.885
 9190W        W75731  36.521  16.778   3.627
 9191W        W75732  21.358  36.140  14.784
 9192W        W75733  10.957  44.298  11.046
 9193W        W75734   7.118  14.228  11.005
 9194W        W75735  40.634  11.804   4.442
 9195W        W75736  42.755  25.025  14.479
 9196W        W75737   1.685  24.174  12.186
 9197W        W75738   4.540   8.815  10.493
 9198W        W75739  18.174  14.592   0.532
 9199W        W75740   0.941  11.673  11.848
 9200W        W75741  16.809  13.615  11.504
 9201W        W75742  16.371   6.720   4.591
 9202W        W75743   1.867  17.300  10.646
 9203W        W75744   4.392  20.763  14.431
 9204W        W75745  14.620  34.008   1.343
 9205W        W75746   2.144   7.888  13.658
 9206W        W75747  28.929  24.289   1.827
 9207W        W75748  33.312  10.799   1.915
 9208W        W75749  25.366  25.687  14.520
 9209W        W75750  14.637  37.660  10.756
 9210W        W75751  22.680   3.367  11.007
 9211W        W75752  25.064  15.694   2.193
 9212W        W75753  43.406  37.515   3.873
 9213W        W75754  23.596  15.545  12.039
 9214W        W75755  35.415  39.048   4.728
 9215W        W75756  27.870   4.865  13.489
 9216W        W75757   4.761  25.050  11.144
 9217W        W75758  10.411  30.643  14.853
 9218W        W75759  19.165  32.174   3.679
 9219W        W75760  37.427   1.161  10.846
 9220W        W75761  44.300   2.221   0.699
 9221W        W75762   2.756  37.869  14.451
 9222W        W75763  12.088  31.194   1.132
 9223W        W75764   2.864  29.087  11.443
 9224W        W75765  10.378  27.069  13.362
 9225W        W75766  34.501  33.481   3.069
 9226W        W75767  43.310  31.786  10.702
 9227W        W75768  33.881  34.415   3.749
 9228W        W75769  25.448  27.532  10.715
 9229W        W75770  31.294   4.023   3.721
 9230W        W75771  14.457  28.024  14.517
 9231W        W75772  21.027  26.218  10.758
 9232W        W75773  10.083   6.009   0.907
 9233W        W75774   0.315  31.853   0.924
 9234W        W75775  24.616  10.775   1.240
 9235W        W75776  28.723  32.034   2.157
 9236W        W75777  21.160  32.959   1.487
 9237W        W75778   4.039  34.590   0.354
 9238W        W75779  19.876  10.176  12.015
 9239W        W75780  19.712  41.430  14.596
 9240W        W75781  16.302   3.361  11.692
 9241W        W75782  31.038  37.176  13.553
 9242W        W75783  17.117  22.566   0.039
 9243W        W75784  14.615  40.745   0.870
 9244W        W75785  17.923  13.697   2.914
 9245W        W75786  23.084   1.305  10.585
 9246W        W75787  15.270  39.926   4.264
 9247W        W75788  37.793  30.442   4.556
 9248W        W75789   1.274  26.685   1.214
 9249W        W75790  16.061   2.980   4.928
 9250W        W75791  19.533  12.727   1.270
 9251W        W75792  35.446  24.011   2.938
 9252W        W75793   5.444  18.643  12.150
 9253W        W75794  37.854   3.743   1.226
 9254W        W75795  14.756  23.020   4.552
 9255W        W75796  12.898  36.350   1.295
 9256W        W75797   1.545   4.642   0.904
 9257W        W75798   3.353  42.301   1.561
 9258W        W75799  42.308   5.469  10.608
 9259W        W75800  19.608  31.944   2.986
 9260W        W75801  17.713  13.286   1.202
 9261W        W75802  23.229   0.485  13.814
 9262W        W75803   6.873  12.830   2.806
 9263W        W75804  42.411   5.982   0.461
 9264W        W75805  29.025  31.115  12.534
 9265W        W75806  39.025  30.724   0.716
 9266W        W75807   2.635  28.953  12.971
 9267W        W75808  18.139  41.860  11.546
 9268W        W75809  38.028  19.386   1.220
 9269W        W75810  37.130   6.066  13.414
 9270W        W75811   4.279   8.841   0.827
 9271W        W75812   5.836  10.608   3.205
 9272W        W75813   3.769  33.840   1.613
 9273W        W75814  14.714  33.913  12.551
 9274W        W75815  26.315  40.333   3.257
 9275W        W75816  36.898  21.961   4.935
 9276W        W75817  37.303  12.805  14.581
 9277W        W75818  24.612  10.997  10.783
 9278W        W75819  44.549  22.578  12.109
 9279W        W75820  37.570  30.092  13.948
 9280W        W75821  39.684  29.645   1.461
 9281W        W75822  19.388  30.107   0.019
 9282W        W75823  23.591  13.937  10.810
 9283W        W75824  23.344  42.558  14.806
 9284W        W75825  24.429   8.821  11.167
 9285W        W75826  25.163   5.359   0.744
 9286W        W75827  35.738  15.800  11.170
 9287W        W75828  37.423   1.165   1.872
 9288W        W75829  12.212  10.963  10.699
 9289W        W75830  38.012  44.936   0.959
 9290W        W75831   0.934  41.419   3.655
 9291W        W75832  39.491  39.049   2.834
 9292W        W75833  31.444  40.683   2.911
 9293W        W75834  38.988  24.798   0.025
 9294W        W75835  31.067   6.736  11.663
 9295W        W75836  16.698  34.385  11.951
 9296W        W75837   7.945  29.140  12.531
 9297W        W75838  21.592  30.289  11.036
 9298W        W75839   9.741  11.272   2.200
 9299W        W75840  22.106  34.903   0.191
 9300W        W75841   4.441   8.277  10.731
 9301W        W75842   6.845  25.741   0.846
 9302W        W75843  11.643  24.327  10.613
 9303W        W75844  42.883  14.677   4.623
 9304W        W75845  23.059  11.362   1.800
 9305W        W75846  43.258  41.868   2.874
 9306W        W75847  27.591  34.810  13.820
 9307W        W75848   4.477   0.272  10.313
 9308W        W75849  39.495  23.079   4.978
 9309W        W75850   1.610  35.093  12.692
 9310W        W75851   7.762   8.481  13.837
 9311W        W75852  11.660  29.506   1.808
 9312W        W75853   9.953  29.387  12.302
 9313W        W75854  29.120  31.790   3.683
 9314W        W75855  28.650  24.015  12.707
 9315W        W75856   4.381  17.282   3.608
 9316W        W75857  40.530  44.332   4.224
 9317W        W75858   7.544  37.332   3.759
 9318W        W75859   4.456  15.264   2.131
 9319W        W75860   4.037  29.442   2.414
 9320W        W75861  41.924  22.892  14.214
 9321W        W75862  19.804  23.133  13.525
 9322W        W75863  38.767  14.344  11.914
 9323W        W75864  25.665  35.924   3.641
 9324W        W75865   9.756  39.403   0.997
 9325W        W75866  35.998   6.892  12.970
 9326W        W75867  24.274   9.804   3.263
 9327W        W75868  42.872   2.229   1.371
 9328W        W75869   7.955  42.858  11.522
 9329W        W75870  28.756  43.034  11.039
 9330W        W75871  37.941  43.359  14.788
 9331W        W75872  26.704  41.474   0.909
 9332W        W75873  19.764  34.563  12.028
 9333W        W75874  13.541  10.078   1.870
 9334W        W75875  18.039  12.788   0.722
 9335W        W75876   4.986  18.752   3.483
 9336W        W75877  12.849  36.080  11.095
 9337W        W75878  18.482  13.448  10.946
 9338W        W75879  21.056  26.939   4.064
 9339W        W75880  26.218  30.909  12.356
 9340W        W75881  12.536  27.488  11.318
 9341W        W75882  16.744  33.594   0.479
 9342W        W75883  10.180  36.858  12.404
 9343W        W75884  17.961  32.035   2.846
 9344W        W75885  38.957  30.615  10.274
 9345W        W75886   8.724  20.720  14.777
 9346W        W75887   6.848  16.199   2.941
 9347W        W75888  13.358  10.744   0.022
 9348W        W75889  39.580  27.581   4.102
 9349W        W75890  11.262  41.010  13.521
 9350W        W75891  29.561  30.664  14.273
 9351W        W75892   0.711  39.288   2.140
 9352W        W75893   4.815  34.270  11.499
 9353W        W75894  11.031   5.038   3.753
 9354W        W75895  26.659  18.927   0.394
 9355W        W75896   5.157   6.680  14.859
 9356W        W75897  30.581  15.830  11.447
 9357W        W75898  32.974  36.051  10.627
 9358W        W75899  14.151  25.117   4.159
 9359W        W75900  34.016  33.111   0.386
 9360W        W75901   2.677  25.007   3.668
 9361W        W75902  28.601  21.851   2.694
 9362W        W75903  14.362  13.282  10.661
 9363W        W75904   0.217  38.125  10.885
 9364W        W75905  20.207  42.332   2.589
 9365W        W75906  21.492  18.625  13.619
 9366W        W75907  11.212   8.730  12.563
 9367W        W75908  14.261  36.742  13.574
 9368W        W75909  39.552  34.584   1.832
 9369W        W75910  43.820  28.850   4.236
 9370W        W75911  32.562  14.785  11.250
 9371W        W75912  33.490  25.065   0.784
 9372W        W75913   4.298  41.309   1.368
 9373W        W75914  28.334  34.775   3.388
 9374W        W75915   8.430  20.756   0.459
 9375W        W75916  21.073   6.316   0.730
 9376W        W75917  44.580  24.351   0.209
 9377W        W75918  37.777  43.092  11.082
 9378W        W75919  10.060  39.481   0.597
 9379W        W75920   7.603  24.835   5.172
 9380W        W75921  23.589   3.787  14.798
 9381W        W75922  10.250   6.435   1.687
 9382W        W75923  15.803  34.166  14.480
 9383W        W75924  38.349  21.612  13.437
 9384W        W75925  17.867  13.332  14.837
 9385W        W75926  15.781   2.466   4.306
 9386W        W75927  22.505  38.834   0.488
 9387W        W75928  10.148  40.891  10.709
 9388W        W75929   5.958  11.047   1.915
 9389W        W75930  27.060  33.486  12.804
 9390W        W75931   9.494  41.336  13.872
 9391W        W75932  13.781  35.443  13.841
 9392W        W75933   0.543   4.725  12.983
 9393W        W75934  32.347   0.455  11.615
 9394W        W75935  29.568  24.984   0.791
 9395W        W75936   3.920  42.551   4.955
 9396W        W75937   5.488   2.839  13.512
 9397W        W75938  41.449  11.424  11.929
 9398W        W75939  24.708  14.145  10.790
 9399W        W75940  41.997   9.216   4.541
 9400W        W75941  37.449   6.500   5.052
 9401W        W75942   7.465  44.394   0.809
 9402W        W75943   6.176   2.639  11.031
 9403W        W75944  28.000  41.310  10.707
 9404W        W75945  22.977  43.456  10.795
 9405W        W75946   8.359  29.518   3.233
 9406W        W75947  21.670  38.487   2.247
 9407W        W75948  21.692  22.383   2.720
 9408W        W75949  44.374  43.344   4.474
 9409W        W75950  32.190   3.589  11.075
 9410W        W75951   2.151  17.764   3.648
 9411W        W75952  26.099   6.150   1.364
 9412W        W75953   3.240  40.935   2.397
 9413W        W75954  12.075  16.869   0.019
 9414W        W75955  29.362  26.588   4.215
 9415W        W75956   7.307  14.500  14.856
 9416W        W75957  31.887  31.421   1.251
 9417W        W75958  33.389  44.264  12.951
 9418W        W75959  27.101  28.996  14.314
 9419W        W75960  32.164  31.925  14.470
 9420W        W75961  19.544   1.449   2.612
 9421W        W75962   9.157  14.232   0.825
 9422W        W75963  10.687   9.397   0.943
 9423W        W75964   6.252  41.468   1.180
 9424W        W75965  37.140   9.837   2.318
 9425W        W75966  44.867  44.839  13.922
 9426W        W75967  40.565  40.464  13.476
 9427W        W75968   1.523  23.257   9.691
 9428W        W75969  26.665  12.696  11.369
 9429W        W75970   7.260   2.349   3.578
 9430W        W75971  41.910  13.144   1.274
 9431W        W75972  43.948  15.542   0.743
 9432W        W75973  11.385   1.883  14.377
 9433W        W75974  27.891  37.767  14.074
 9434W        W75975   2.381  22.020   0.246
 9435W        W75976  14.192   4.020  14.797
 9436W        W75977  25.519  39.749   4.733
 9437W        W75978  16.949  36.075  10.227
 9438W        W75979  26.785  13.837  12.408
 9439W        W75980  26.237  30.555  11.993
 9440W        W75981  30.898   0.275  13.355
 9441W        W75982  24.715   5.070  12.454
 9442W        W75983  18.038  16.206  12.070
 9443W        W75984  33.948  14.688   2.686
 9444W        W75985  40.017  25.466  11.445
 9445W        W75986  37.659  10.351   3.160
 9446W        W75987  40.416  15.607  12.540
 9447W        W75988   2.730   0.052  11.086
 9448W        W75989  25.152  16.129   0.204
 9449W        W75990  32.487  38.908  14.930
 9450W        W75991   9.802  43.590   2.721
 9451W        W75992  34.071  24.195   0.882
 9452W        W75993  37.063  33.999  11.157
 9453W        W75994  37.421  43.522  11.230
 9454W        W75995  25.473  26.255   1.778
 9455W        W75996   2.857  36.530  12.711
 9456W        W75997   8.129  20.349   2.326
 9457W        W75998   8.226  13.114  10.456
 9458W        W75999  35.193  30.899   1.100
 9459W        W76000  40.265  16.253  13.989
 9460W        W76001  15.621  34.684   0.742
 9461W        W76002  15.884  11.837   4.517
 9462W        W76003  10.034   6.735  11.652
 9463W        W76004  13.697  24.752   3.577
 9464W        W76005  15.098  21.101   1.861
 9465W        W76006  13.285  12.360   0.866
 9466W        W76007   8.247   1.506   4.171
 9467W        W76008   6.739  38.379   9.944
 9468W        W76009  34.062  16.725   4.637
 9469W        W76010  32.457  22.772  14.328
 9470W        W76011  10.567   6.234  13.326
 9471W        W76012  36.109  43.369   0.849
 9472W        W76013   8.219  35.995   9.921
 9473W        W76014  15.096  14.165   3.266
 9474W        W76015  10.434  29.907  13.589
 9475W        W76016   5.286  44.970   4.155
 9476W        W76017  39.968  26.587  13.617
 9477W        W76018  43.960  15.572  11.074
 9478W        W76019  12.724  38.489   4.629
 9479W        W76020  15.533   6.475   2.216
 9480W        W76021  39.577  41.799  14.473
 9481W        W76022  42.666   6.670  12.397
 9482W        W76023  24.541  43.357  12.641
 9483W        W76024  29.058  27.129  13.922
 9484W        W76025  41.931  11.135  12.881
 9485W        W76026  44.951   4.761   3.173
 9486W        W76027  20.564  14.574  14.492
 9487W        W76028  38.520   1.166  11.626
 9488W        W76029  22.550  19.546  10.362
 9489W        W76030  30.123  37.040   2.880
 9490W        W76031  38.851  15.378   4.419
 9491W        W76032  24.557  30.813  10.557
 9492W        W76033  34.954  20.199   0.725
 9493W        W76034  32.705  28.730  14.588
 9494W        W76035  20.292   8.895  12.948
 9495W        W76036  22.197  42.935   1.706
 9496W        W76037   1.744  10.686  10.725
 9497W        W76038  11.437  34.527   4.756
 9498W        W76039  43.852   9.732  11.189
 9499W        W76040  14.496  29.526   5.047
 9500W        W76041  21.619   5.862   1.775
 9501W        W76042  10.319   1.027  14.048
 9502W        W76043  23.776  14.779   3.687
 9503W        W76044  14.222  22.114  12.952
 9504W        W76045  21.972  31.032   4.388
 9505W        W76046  38.109  31.190   3.678
 9506W        W76047  26.646  43.566  13.582
 9507W        W76048  22.898  26.248   0.362
 9508W        W76049   8.736   3.665  13.061
 9509W        W76050  24.683  37.583   3.379
 9510W        W76051  44.392  17.693  13.977
 9511W        W76052  23.345  31.619   0.777
 9512W        W76053  33.421  26.681  14.442
 9513W        W76054   0.513   7.218  13.518
 9514W        W76055  22.701   9.144   0.918
 9515W        W76056   9.810  33.953  12.955
 9516W        W76057  42.885   1.994   1.850
 9517W        W76058  17.027   0.920  10.407
 9518W        W76059  13.357  24.579   0.822
 9519W        W76060  33.221  17.918   4.710
 9520W        W76061   8.145   7.697  13.121
 9521W        W76062  26.082  10.308   0.876
 9522W        W76063  13.873  42.282   1.197
 9523W        W76064   3.667   6.332   1.749
 9524W        W76065  39.305  11.070  13.887
 9525W        W76066  14.277  18.866   3.775
 9526W        W76067  23.496  29.482  11.491
 9527W        W76068  32.446  14.606  14.717
 9528W        W76069  34.012  32.139   3.329
 9529W        W76070  23.623  15.084  12.902
 9530W        W76071  38.377   1.521   1.008
 9531W        W76072   9.363   4.211   2.369
 9532W        W76073  40.890  40.051  11.209
 9533W        W76074   3.537  31.909   0.269
 9534W        W76075  30.682   2.375   4.055
 9535W        W76076  36.535  38.555   2.851
 9536W        W76077  39.321  15.993  11.604
 9537W        W76078  26.169   2.060  13.368
 9538W        W76079   3.287  29.431  13.313
 9539W        W76080  12.864  38.731   4.186
 9540W        W76081  40.645  30.560  12.986
 9541W        W76082  27.095  39.270  13.030
 9542W        W76083  42.059  44.935  11.939
 9543W        W76084  30.911   9.205  11.955
 9544W        W76085  28.908  41.500  11.674
 9545W        W76086  36.922  15.267  12.847
 9546W        W76087  11.815  18.754   4.644
 9547W        W76088  10.859  25.806  11.153
 9548W        W76089  20.976   4.643   5.514
 9549W        W76090  12.738  27.523   0.989
 9550W        W76091  15.262  32.105   5.347
 9551W        W76092   2.452   0.216   3.217
 9552W        W76093  28.125  26.056  12.427
 9553W        W76094  37.056  20.049   0.272
 9554W        W76095  14.580  16.335   0.963
 9555W        W76096  12.777   1.844  13.373
 9556W        W76097  15.033  15.888  12.962
 9557W        W76098   4.673  19.710   2.731
 9558W        W76099  19.833  22.444  13.493
 9559W        W76100  10.936  37.837  11.895
 9560W        W76101  36.498  32.872  11.990
 9561W        W76102   6.893  15.717   2.248
 9562W        W76103   5.691  27.064  14.157
 9563W        W76104  33.924  37.105  10.753
 9564W        W76105  27.420  22.520   2.335
 9565W        W76106  12.059  14.858  12.127
 9566W        W76107   6.118  25.824  11.964
 9567W        W76108  20.082  20.268   3.083
 9568W        W76109  27.197  29.285  13.425
 9569W        W76110   4.853  34.286  10.700
 9570W        W76111  27.700  23.828  14.369
 9571W        W76112  19.022  16.670   2.728
 9572W        W76113   2.145  38.811   4.244
 9573W        W76114  40.722  17.573  14.852
 9574W        W76115  33.739   1.845   2.156
 9575W        W76116  13.096   1.620   4.467
 9576W        W76117   4.225  32.683   2.194
 9577W        W76118   6.828   3.533   5.224
 9578W        W76119  11.137  25.135   1.425
 9579W        W76120  42.951  37.903  13.970
 9580W        W76121   6.169  28.009   4.089
 9581W        W76122  36.010  28.759   4.778
 9582W        W76123  40.907  43.214   2.638
 9583W        W76124  31.605  21.563   2.474
 9584W        W76125  14.079  26.682  14.320
 9585W        W76126   8.047   8.295  11.732
 9586W        W76127  19.327  15.155   1.304
 9587W        W76128  21.843  22.242  13.869
 9588W        W76129   9.941  20.777   3.195
 9589W        W76130  13.809  34.956  12.497
 9590W        W76131  38.562  21.593   0.283
 9591W        W76132  35.984  41.292   2.710
 9592W        W76133  40.921  34.833   2.110
 9593W        W76134  29.063  34.589  12.952
 9594W        W76135  10.581  36.045  11.925
 9595W        W76136  23.264  21.588   2.872
 9596W        W76137  36.632  24.988   3.656
 9597W        W76138   8.878   0.866   3.294
 9598W        W76139   6.469  41.430  13.399
 9599W        W76140  34.001  37.889  11.906
 9600W        W76141  17.318  37.242  14.595
 9601W        W76142  28.712  28.580  11.657
 9602W        W76143  22.621  15.136  13.099
 9603W        W76144  42.438   3.511  11.775
 9604W        W76145  10.067  11.182  14.914
 9605W        W76146  16.557  19.373   2.555
 9606W        W76147  42.379  10.879   2.736
 9607W        W76148  35.635  34.382   0.592
 9608W        W76149  20.828   4.700   0.314
 9609W        W76150  24.208   2.766  14.544
 9610W        W76151  20.834  44.732  13.459
 9611W        W76152   3.647  10.150   3.687
 9612W        W76153  43.427   2.131  13.140
 9613W        W76154  43.255  29.206  14.502
 9614W        W76155   1.758  21.488   3.152
 9615W        W76156  44.963  38.021  11.714
 9616W        W76157  24.432  27.806   5.024
 9617W        W76158  19.187  13.431  13.889
 9618W        W76159  38.750  39.361  11.785
 9619W        W76160  25.051  14.043   0.279
 9620W        W76161  31.214  44.893  13.927
 9621W        W76162  12.701   1.938   3.990
 9622W        W76163   2.856   2.782   2.170
 9623W        W76164  32.332  43.272  13.943
 9624W        W76165   6.191  27.973   4.990
 9625W        W76166  11.710  19.657   4.245
 9626W        W76167  35.909   7.815   3.858
 9627W        W76168  35.852  14.249   0.421
 9628W        W76169  33.180  28.164  12.555
 9629W        W76170  22.783  42.198  12.418
 9630W        W76171  33.432  34.016  11.663
 9631W        W76172  26.669  20.616  11.776
 9632W        W76173  33.694  34.968  12.072
 9633W        W76174  39.434  32.195  13.983
 9634W        W76175  40.910   4.831  14.900
 9635W        W76176  19.248  40.759  11.060
 9636W        W76177  43.358  36.700   3.502
 9637W        W76178  40.351  25.519   2.276
 9638W        W76179  36.818  38.432  12.842
 9639W        W76180  31.429  14.723  10.154
 9640W        W76181  44.879  25.495   1.393
 9641W        W76182   5.689  39.705  10.283
 9642W        W76183  41.867  25.573   2.202
 9643W        W76184   5.303   6.185  13.797
 9644W        W76185  27.537   0.680   2.808
 9645W        W76186  20.959  11.598  10.736
 9646W        W76187  24.061   7.601  12.057
 9647W        W76188  22.316  44.925   3.661
 9648W        W76189  27.148  14.265  13.460
 9649W        W76190  15.797  20.815  11.149
 9650W        W76191  24.403  33.898   0.929
 9651W        W76192   2.402  41.359  14.548
 9652W        W76193  24.060  16.166   1.351
 9653W        W76194   6.094  32.572  13.410
 9654W        W76195  43.278  20.935   3.246
 9655W        W76196  44.576  44.851   1.327
 9656W        W76197  30.142  23.545   3.215
 9657W        W76198  32.544  30.439   4.320
 9658W        W76199  33.543  11.435  11.220
 9659W        W76200   8.229  36.186   3.068
 9660W        W76201  15.237   0.554  14.884
 9661W        W76202  15.528  25.047   3.600
 9662W        W76203  35.187  20.587   1.866
 9663W        W76204   2.788  34.655   2.696
 9664W        W76205   7.739  28.235  10.750
 9665W        W76206  10.602  15.642   3.754
 9666W        W76207  23.555   6.982  12.098
 9667W        W76208   3.425  36.573   0.918
 9668W        W76209  29.027  30.575  12.537
 9669W        W76210  42.821  28.919  13.047
 9670W        W76211  11.668  12.098   3.065
 9671W        W76212  10.332  40.690  11.163
 9672W        W76213   8.451  30.682  14.234
 9673W        W76214  28.675  39.818   3.168
 9674W        W76215  44.656  20.067   5.069
 9675W        W76216  31.868  26.642   4.078
 9676W        W76217  18.192  33.688  14.416
 9677W        W76218   3.593  20.271   1.374
 9678W        W76219  22.217   0.252  11.088
 9679W        W76220  43.152  26.075  11.478
 9680W        W76221  32.872  23.324   2.639
 9681W        W76222  35.295  29.468   1.249
 9682W        W76223  16.620  26.521   0.029
 9683W        W76224  23.993  11.261   1.968
 9684W        W76225  25.188  18.665   3.890
 9685W        W76226   1.724  15.132   3.552
 9686W        W76227  33.354   1.058   3.133
 9687W        W76228  38.915   0.225   0.027
 9688W        W76229  16.287  18.725  14.728
 9689W        W76230   8.433  12.708   9.919
 9690W        W76231   3.433  40.868  13.303
 9691W        W76232  25.009  39.514   2.803
 9692W        W76233   4.710  29.717  13.645
 9693W        W76234  12.548   7.495  11.370
 9694W        W76235  21.056   4.637  10.700
 9695W        W76236  31.382  14.435   5.262
 9696W        W76237   1.224  28.258  11.184
 9697W        W76238  14.572  41.395  11.732
 9698W        W76239   2.574  42.440   0.919
 9699W        W76240  44.392  10.445  10.975
 9700W        W76241  35.181   5.308   4.373
 9701W        W76242   8.637  30.964   2.650
 9702W        W76243  13.154   4.276  13.771
 9703W        W76244  24.471  29.268  12.561
 9704W        W76245  39.854  29.949  11.481
 9705W        W76246   4.736  12.532  12.010
 9706W        W76247  22.685  20.340   1.712
 9707W        W76248   1.437   8.902   2.261
 9708W        W76249  36.160  10.513  13.283
 9709W        W76250  19.303  37.073  13.053
 9710W        W76251  15.636  36.634   0.256
 9711W        W76252  32.353   9.874   2.673
 9712W        W76253   5.830  30.351  14.417
 9713W        W76254  42.006  32.370  11.205
 9714W        W76255  43.016  16.225   1.299
 9715W        W76256  28.098  25.142  14.989
 9716W        W76257   5.859  23.590  11.554
 9717W        W76258  44.481  31.159   0.933
 9718W        W76259  43.271  20.710  12.070
 9719W        W76260   6.437  24.149   3.232
 9720W        W76261   6.955  22.684  11.628
 9721W        W76262   5.930  33.828  12.823
 9722W        W76263  35.230  30.629  10.328
 9723W        W76264  15.708  37.465  11.541
 9724W        W76265   8.344  44.288  11.512
 9725W        W76266   8.742   3.567  11.636
 9726W        W76267  27.692  11.947   0.282
 9727W        W76268  38.001  17.325  13.278
 9728W        W76269  38.460  34.019   2.729
 9729W        W76270  24.966  44.823   2.856
 9730W        W76271   2.815  40.054  13.550
 9731W        W76272  40.218  36.373   5.058
 9732W        W76273  22.059  34.492   4.230
 9733W        W76274  22.521  44.907  14.261
 9734W        W76275  28.943  15.051  12.604
 9735W        W76276  33.603   7.805   2.672
 9736W        W76277  34.877   9.211   4.106
 9737W        W76278  23.097  25.251   4.622
 9738W        W76279   8.722  22.092   4.309
 9739W        W76280  19.400  39.842   2.418
 9740W        W76281   0.721  32.864  13.555
 9741W        W76282   0.456   5.791   4.469
 9742W        W76283   0.787  11.449   2.018
 9743W        W76284  29.217  43.799  12.654
 9744W        W76285   9.680  15.671   2.675
 9745W        W76286  30.925  10.401  11.123
 9746W        W76287   7.727  43.760   1.316
 9747W        W76288  28.454  42.634  11.825
 9748W        W76289  38.765  23.456  11.619
 9749W        W76290  34.314  20.096   1.456
 9750W        W76291  22.227  23.722  14.783
 9751W        W76292   3.507  15.195   1.834
 9752W        W76293  20.529  22.639  12.790
 9753W        W76294  33.068  14.880   3.581
 9754W        W76295  44.440  28.019   2.432
 9755W        W76296  39.893  19.331  14.394
 9756W        W76297  26.675  40.522   3.572
 9757W        W76298   4.493  31.035   4.922
 9758W        W76299  25.639  24.189  12.950
 9759W        W76300   4.526  18.728   3.796
 9760W        W76301  21.829   9.321   5.665
 9761W        W76302   9.396  17.620  11.067
 9762W        W76303  24.736  33.537  11.335
 9763W        W76304  20.491  10.269   0.941
 9764W        W76305  36.427   2.177   2.261
 9765W        W76306  10.506  38.584  11.607
 9766W        W76307   3.554  26.813  14.349
 9767W        W76308  35.134  18.150  10.184
 9768W        W76309  28.237  27.129  13.555
 9769W        W76310  29.860  43.440  14.489
 9770W        W76311   2.723   9.977   2.762
 9771W        W76312  43.001  31.417  13.500
 9772W        W76313   7.947  25.959   4.197
 9773W        W76314  40.304  34.135   1.644
 9774W        W76315  17.242  44.787   2.221
 9775W        W76316  30.877  17.678   4.175
 9776W        W76317  33.604  30.351  12.898
 9777W        W76318  12.633  21.032   0.410
 9778W        W76319  22.427  26.636  12.985
 9779W        W76320  29.506  25.004   1.813
 9780W        W76321  25.675  10.707  12.050
 9781W        W76322  17.136   1.728   4.896
 9782W        W76323  25.693   1.744   2.511
 9783W        W76324  30.973  30.400  11.160
 9784W        W76325  43.974  14.427   4.035
 9785W        W76326  12.413  15.166   2.514
 9786W        W76327  31.151  18.073   0.393
 9787W        W76328  24.795  36.344  12.649
 9788W        W76329   0.226   2.232  11.467
 9789W        W76330  10.305  11.835  13.036
 9790W        W76331  26.592  44.536   3.661
 9791W        W76332  35.644  33.488   2.853
 9792W        W76333  33.633  37.096  12.638
 9793W        W76334  27.488  24.178  11.167
 9794W        W76335  17.001  25.627   4.662
 9795W        W76336  17.043  41.843   0.845
 9796W        W76337  10.725  28.930   1.197
 9797W        W76338  36.419   6.330   2.439
 9798W        W76339  13.756  27.902  10.699
 9799W        W76340  19.349  44.557  14.597
 9800W        W76341  26.333   9.137   0.340
 9801W        W76342  41.938  16.254   3.380
 9802W        W76343   1.323  23.398   1.354
 9803W        W76344   5.149  10.166  10.209
 9804W        W76345   5.305  33.930  12.551
 9805W        W76346  43.731  42.268  11.144
 9806W        W76347  24.622  21.405   1.757
 9807W        W76348  23.306  36.936   3.534
 9808W        W76349  37.162   5.590   2.421
 9809W        W76350  19.054   0.377   4.586
 9810W        W76351  16.037  24.843   1.311
 9811W        W76352  31.394  38.437   4.873
 9812W        W76353  19.574  28.349   1.638
 9813W        W76354  42.045  24.562  12.046
 9814W        W76355  31.430  16.778   2.222
 9815W        W76356  12.600  31.435  13.446
 9816W        W76357  44.056  16.851   3.780
 9817W        W76358  35.961  12.851  14.267
 9818W        W76359  33.542  31.349  13.103
 9819W        W76360  37.768  16.303   3.566
 9820W        W76361  25.612  24.152  13.950
 9821W        W76362  43.937  24.943   1.905
 9822W        W76363   3.493  27.513   3.053
 9823W        W76364   5.709  25.452  12.233
 9824W        W76365  21.469  31.888   4.131
 9825W        W76366  14.288  25.672   1.414
 9826W        W76367  15.806   1.963   1.326
 9827W        W76368  43.881  38.410  14.675
 9828W        W76369   6.217  38.122   1.728
 9829W        W76370  22.247   5.459   1.831
 9830W        W76371  27.928  36.911   3.836
 9831W        W76372   6.682  42.909   1.301
 9832W        W76373  40.386   4.772  10.123
 9833W        W76374   4.226  21.786   0.325
 9834W        W76375  42.022  14.353   3.805
 9835W        W76376  11.158   2.753   2.593
 9836W        W76377  44.482   4.484  13.255
 9837W        W76378  41.581   0.824  13.055
 9838W        W76379   9.139  23.111   0.847
 9839W        W76380  23.581  13.808   3.722
 9840W        W76381  40.107  24.611   3.153
 9841W        W76382  22.987  41.777  14.479
 9842W        W76383  22.152   2.220   4.289
 9843W        W76384  21.413  33.727   1.828
 9844W        W76385   1.417  33.844  13.802
 9845W        W76386  42.551  25.261   1.703
 9846W        W76387  28.979  10.371  10.274
 9847W        W76388  33.026  37.168  10.793
 9848W        W76389  11.693   3.770  11.630
 9849W        W76390  36.266  19.528  10.316
 9850W        W76391  25.529   1.575  12.843
 9851W        W76392   0.337   1.114   0.041
 9852W        W76393  40.522   6.959   3.144
 9853W        W76394   3.781  36.139   0.512
 9854W        W76395  30.911  20.218   2.229
 9855W        W76396  43.222   1.599   2.599
 9856W        W76397  30.924  35.331   0.922
 9857W        W76398  34.787  20.557  14.946
 9858W        W76399   7.266   3.903  11.642
 9859W        W76400  36.456  43.782  12.733
 9860W        W76401  39.174  17.023  14.308
 9861W        W76402  33.688  26.648   1.271
 9862W        W76403  38.728  25.979  14.431
 9863W        W76404  37.186   9.604  13.808
 9864W        W76405  37.355  27.669   2.189
 9865W        W76406  21.480  20.768   2.385
 9866W        W76407  24.440  18.538  14.722
 9867W        W76408   8.379   4.322  12.136
 9868W        W76409  38.042  28.496   4.619
 9869W        W76410  19.441  33.141  14.846
 9870W        W76411   1.413  27.640   3.250
 9871W        W76412   0.019  34.100   2.828
 9872W        W76413  15.575  42.041  11.978
 9873W        W76414  38.479  31.650   3.580
 9874W        W76415  35.738   5.772  11.494
 9875W        W76416   5.183   7.300  13.387
 9876W        W76417   4.462  29.691   3.280
 9877W        W76418   5.521   9.375   0.269
 9878W        W76419  30.457   0.597   1.515
 9879W        W76420  35.620  27.213   2.819
 9880W        W76421  33.420  39.988  12.108
 9881W        W76422  27.962  40.684   2.580
 9882W        W76423  30.109  12.630  13.775
 9883W        W76424  23.361   0.810   3.053
 9884W        W76425  34.533  43.593  10.963
 9885W        W76426  11.700  33.446  14.023
 9886W        W76427   5.272  32.185   4.810
 9887W        W76428  20.998  27.064   0.875
 9888W        W76429   7.173   1.885   4.876
 9889W        W76430  12.076  25.745  10.716
 9890W        W76431   5.364  39.834  11.174
 9891W        W76432  37.744  23.980  12.915
 9892W        W76433  27.223  25.660   4.098
 9893W        W76434  19.809  14.476   1.120
 9894W        W76435  17.525  20.982  14.449
 9895W        W76436  12.801  35.480   2.860
 9896W        W76437  43.404   1.273  13.945
 9897W        W76438  32.007  26.099  14.569
 9898W        W76439  14.302   7.596   1.376
 9899W        W76440  38.340   5.189  11.617
 9900W        W76441   6.228   6.774   1.482
 9901W        W76442  44.055  23.262   0.716
 9902W        W76443  24.144   1.741   0.422
 9903W        W76444   4.418  30.003   3.676
 9904W        W76445   6.247   5.374   0.145
 9905W        W76446  10.372  31.987  13.533
 9906W        W76447  12.261   5.675   2.973
 9907W        W76448  16.214  12.279   2.747
 9908W        W76449  44.759  42.413   2.362
 9909W        W76450  13.753   9.122   1.972
 9910W        W76451  39.293  44.339   0.408
 9911W        W76452  26.237  24.667   2.285
 9912W        W76453  22.349   9.526   0.944
 9913W        W76454   2.995  32.543  11.604
 9914W        W76455  17.345  12.093   1.994
 9915W        W76456   1.808  24.743   9.988
 9916W        W76457  13.362  29.032   0.518
 9917W        W76458  16.069  25.708   1.598
 9918W        W76459  40.604  14.745  11.388
 9919W        W76460   9.688  36.782  12.989
 9920W        W76461  38.015  19.594   1.679
 9921W        W76462  35.254  28.141  11.959
 9922W        W76463  32.162  41.958  11.222
 9923W        W76464  11.875  17.241  14.696
 9924W        W76465  17.531  27.434  14.901
 9925W        W76466   0.541   7.756  14.636
 9926W        W76467  27.702  13.240  11.186
 9927W        W76468  20.288   4.306  10.966
 9928W        W76469  36.878  37.743   2.746
 9929W        W76470  23.116   2.334   3.281
 9930W        W76471  18.987  14.721   4.088
 9931W        W76472  20.268   4.198  12.344
 9932W        W76473  30.028  14.694  12.504
 9933W        W76474  33.874  15.704  11.383
 9934W        W76475  33.507  11.751   1.261
 9935W        W76476  24.171  32.989  14.266
 9936W        W76477  24.197  15.803   3.316
 9937W        W76478  39.636  25.915  13.460
 9938W        W76479  17.554  13.501   4.861
 9939W        W76480  43.755  21.678   1.278
 9940W        W76481  16.333  33.108   1.258
 9941W        W76482  35.059  40.750  11.664
 9942W        W76483  19.538  13.208  14.429
 9943W        W76484  14.111  29.148  12.460
 9944W        W76485  13.706  24.515   1.352
 9945W        W76486  29.507   3.998  11.507
 9946W        W76487  30.591  20.696   4.823
 9947W        W76488  22.525  43.585  14.446
 9948W        W76489  35.160  40.879  12.739
 9949W        W76490   6.367  16.112   3.732
 9950W        W76491   9.182  44.873   1.418
 9951W        W76492  13.586  37.738  14.527
 9952W        W76493   6.560  27.170  12.097
 9953W        W76494  19.691  33.522  13.960
 9954W        W76495  27.640  32.149  13.416
 9955W        W76496  13.103  36.402  14.371
 9956W        W76497   8.325   6.458   3.249
 9957W        W76498  43.545   4.441   0.838
 9958W        W76499   8.228  27.500  12.623
 9959W        W76500  37.810  15.152  12.810
 9960W        W76501  12.778  12.041  12.471
 9961W        W76502  21.463  19.669  10.769
 9962W        W76503   3.389  20.174   0.473
 9963W        W76504  38.236  18.668   0.846
 9964W        W76505   4.019   8.466  11.704
 9965W        W76506  41.386  38.468   3.028
 9966W        W76507   8.850  32.367   3.733
 9967W        W76508   6.461  17.225   0.326
 9968W        W76509  16.078  17.343   2.865
 9969W        W76510   9.175   9.438   0.062
 9970W        W76511  28.651   9.587  14.029
 9971W        W76512   4.750  11.114   1.356
 9972W        W76513  36.986   5.631   3.854
 9973W        W76514  32.028  41.561   0.155
 9974W        W76515  14.129   2.202   2.870
 9975W        W76516  38.515  30.081  14.062
 9976W        W76517  25.263  25.566  13.537
 9977W        W76518  40.049  30.866   2.141
 9978W        W76519  27.026  28.687   2.615
 9979W        W76520   7.874  33.942  13.854
 9980W        W76521  20.275  35.204  13.916
 9981W        W76522  26.589  29.214   1.389
 9982W        W76523   6.495   6.970   3.381
 9983W        W76524  26.147  28.799   2.224
 9984W        W76525   1.903  27.863  12.032
 9985W        W76526  22.969  34.371   4.801
 9986W        W76527  36.519  15.799   0.509
 9987W        W76528   0.982   7.635  13.889
 9988W        W76529  14.186  34.567   4.134
 9989W        W76530  23.688  26.945  13.898
 9990W        W76531   0.710  42.852  12.268
 9991W        W76532   8.859  42.782   3.306
 9992W        W76533   5.440  42.460  13.281
 9993W        W76534  23.088  12.393  11.886
 9994W        W76535  10.267  15.539   1.826
 9995W        W76536  11.889  23.190  12.324
 9996W        W76537  32.000  27.808   4.325
 9997W        W76538  32.012  22.775  13.573
 9998W        W76539   5.682  33.536  10.420
 9999W        W76540  14.046  32.392   0.432
10000W        W76541  13.299  34.926  12.512
10001W        W76542  25.162  24.985   4.614
10002W        W76543  42.811  30.794   3.113
10003W        W76544   3.356  19.542  14.078
10004W        W76545   3.875  11.937  13.488
10005W        W76546  43.596  29.523  14.264
10006W        W76547  24.000   3.885   2.308
10007W        W76548  35.504  23.505  12.407
10008W        W76549  30.231  23.850  11.236
10009W        W76550  36.653   1.975   1.002
10010W        W76551  38.336   2.297   1.808
10011W        W76552  38.087  23.076  12.667
10012W        W76553   8.898  27.963   2.721
10013W        W76554  37.241  34.529  10.551
10014W        W76555  41.065  39.897   4.657
10015W        W76556   3.450  28.150  14.988
10016W        W76557  10.588  14.710  14.220
10017W        W76558  27.064  42.747  12.084
10018W        W76559  10.878   3.333  11.748
10019W        W76560  35.893  11.562  13.072
10020W        W76561  10.606  20.720   1.850
10021W        W76562   3.423  18.075   0.351
10022W        W76563  17.700  36.472   0.556
10023W        W76564  33.578  32.126   0.037
10024W        W76565  22.641   8.114  10.705
10025W        W76566  38.800  31.620   0.344
10026W        W76567  40.224  39.813  12.552
10027W        W76568  12.221   4.912  13.120
10028W        W76569  39.502  31.309   1.339
10029W        W76570   5.452   3.404  14.442
10030W        W76571  38.972  34.515  12.593
10031W        W76572  25.847   9.099   5.038
10032W        W76573  16.010  33.805   1.981
10033W        W76574  33.788  19.453   3.106
10034W        W76575   0.794  19.568  14.901
10035W        W76576  18.885   6.453  13.766
10036W        W76577  37.340  15.196  12.076
10037W        W76578  14.560   8.221   3.200
10038W        W76579  43.756   0.493  11.695
10039W        W76580  30.798   9.722  13.526
10040W        W76581  11.088  13.453  10.957
10041W        W76582  23.994  27.660   1.896
10042W        W76583   1.249  38.732   3.903
10043W        W76584  31.086  33.679  12.436
10044W        W76585  38.821  10.858   1.346
10045W        W76586  10.832  24.572   1.795
10046W        W76587  28.525  17.364  10.884
10047W        W76588  36.067  20.363  11.944
10048W        W76589  40.504  30.649   2.278
10049W        W76590  25.019  44.525  14.735
10050W        W76591  25.283  10.289  10.844
10051W        W76592  30.289  23.743   4.223
10052W        W76593  10.181  18.302   2.236
10053W        W76594  26.885  17.281  12.161
10054W        W76595  10.045  42.306  11.906
10055W        W76596  24.071  41.838   2.608
10056W        W76597  44.024  13.150   2.145
10057W        W76598  33.646  41.913  13.272
10058W        W76599  26.669  22.226  14.238
10059W        W76600  33.189   2.439  14.064
10060W        W76601  37.506  27.028   0.040
10061W        W76602   6.797  32.656  14.930
10062W        W76603  21.538  32.168  14.523
10063W        W76604  37.546  25.279   3.038
10064W        W76605  38.842  43.365  11.975
10065W        W76606   9.221  26.103   4.062
10066W        W76607  33.167   2.477   3.112
10067W        W76608  32.898   1.032   4.828
10068W        W76609  43.006  36.739   0.421
10069W        W76610  19.740  16.172   3.721
10070W        W76611  17.273  44.491   4.673
10071W        W76612  17.586  21.265  13.998
10072W        W76613   3.659  17.869   2.652
10073W        W76614  28.057  10.412  11.096
10074W        W76615  38.818  24.900   4.204
10075W        W76616  17.230  40.880   3.278
10076W        W76617   8.888  16.628   3.721
10077W        W76618  11.715  41.705   2.259
10078W        W76619  21.590  25.375   0.495
10079W        W76620  23.039  44.535   4.674
10080W        W76621  36.815  40.605  14.868
10081W        W76622  26.221  12.684  11.073
10082W        W76623  43.828  38.180  11.973
10083W        W76624  16.651  14.179  14.764
10084W        W76625  27.920  16.602  12.791
10085W        W76626   6.683  25.104   3.688
10086W        W76627  16.200   7.106  14.899
10087W        W76628  36.047  26.248  12.150
10088W        W76629  21.227  26.430  14.250
10089W        W76630  23.812   2.764  10.735
10090W        W76631  27.480   8.368  13.505
10091W        W76632  27.987  29.593   9.837
10092W        W76633  43.894  12.131  12.424
10093W        W76634  30.463  32.053  13.970
10094W        W76635  12.081  22.256   0.162
10095W        W76636  26.151  20.563   1.372
10096W        W76637  14.187  44.753   2.827
10097W        W76638   7.862  44.836   2.401
10098W        W76639  32.608  11.362   1.892
10099W        W76640   6.877   5.839  14.710
10100W        W76641  32.293   1.756  11.398
10101W        W76642   0.171  25.420   3.452
10102W        W76643  40.066  28.558   3.191
10103W        W76644  10.332   8.877  11.143
10104W        W76645  15.841   5.298  11.705
10105W        W76646  18.461   4.952   4.596
10106W        W76647   9.673  15.143  11.407
10107W        W76648   9.189   5.865  12.403
10108W        W76649  13.538   2.220  14.830
10109W        W76650  10.552  35.301  13.555
10110W        W76651  28.479  21.109   2.335
10111W        W76652  39.954  34.579  10.354
10112W        W76653  11.632  22.719   1.838
10113W        W76654  32.348  14.250   3.316
10114W        W76655   6.674   9.274  11.197
10115W        W76656  18.342  29.526  10.784
10116W        W76657   0.679  31.846   0.048
10117W        W76658  21.536  14.290   2.734
10118W        W76659  19.674  40.534   1.948
10119W        W76660  36.599  27.653  11.243
10120W        W76661   9.813   5.139   4.132
10121W        W76662   7.523   1.541  14.087
10122W        W76663  36.509   5.438  11.109
10123W        W76664  37.435  25.455   3.570
10124W        W76665  19.999  11.958   2.783
10125W        W76666  30.082  29.690   2.608
10126W        W76667  39.322  28.997   0.255
10127W        W76668  24.649  25.142  14.935
10128W        W76669   8.918  10.548  13.850
10129W        W76670  29.457  20.808   2.353
10130W        W76671   7.045  42.462  11.567
10131W        W76672  42.309  19.025   2.291
10132W        W76673  11.797   9.262   4.865
10133W        W76674  42.634  25.136  11.021
10134W        W76675  16.562  27.621  12.638
10135W        W76676  11.109  24.961   0.926
10136W        W76677   1.591  22.435   5.108
10137W        W76678  28.287  34.316  14.978
10138W        W76679  26.924  26.146   4.124
10139W        W76680  19.561  10.636  12.882
10140W        W76681   1.900  36.425  12.185
10141W        W76682  40.746   9.584   2.851
10142W        W76683  27.278  12.372   9.790
10143W        W76684   0.158  11.977   2.192
10144W        W76685  42.553  34.588  14.357
10145W        W76686   1.634  40.259  11.127
10146W        W76687  23.768   4.937   2.640
10147W        W76688   1.024  14.915  13.571
10148W        W76689   9.752  22.314   4.598
10149W        W76690  38.920   2.981   2.746
10150W        W76691  31.889  30.863   5.192
10151W        W76692   5.593  10.782  11.590
10152W        W76693   8.248  43.134  13.456
10153W        W76694  43.912  13.608   1.901
10154W        W76695  28.295  24.046  11.519
10155W        W76696  18.142  32.794  14.958
10156W        W76697   3.740  40.922  13.691
10157W        W76698  34.622  29.212  12.508
10158W        W76699  36.010  23.449  12.168
10159W        W76700  38.695  32.885  12.262
10160W        W76701  22.705  22.913   3.824
10161W        W76702  21.446  41.524   1.645
10162W        W76703  10.687  30.739   3.152
10163W        W76704  22.099  38.276   2.444
10164W        W76705  35.052  11.257   3.376
10165W        W76706  35.855  12.608  11.507
10166W        W76707  30.854   7.038  14.827
10167W        W76708  43.022  37.879   3.798
10168W        W76709  34.917  11.224   1.214
10169W        W76710  14.476   9.167  14.377
10170W        W76711  27.545   5.788  11.539
10171W        W76712   7.824   6.975  12.088
10172W        W76713  18.120  44.979  12.055
10173W        W76714  26.156  32.653   4.662
10174W        W76715   7.738   4.856   9.632
10175W        W76716  32.403   6.825  12.419
10176W        W76717  44.570  37.936   2.806
10177W        W76718  16.571  10.097   1.655
10178W        W76719  34.323  21.590  13.011
10179W        W76720  30.958   9.362  10.976
10180W        W76721  22.139  43.031   0.312
10181W        W76722  44.960  22.222   0.756
10182W        W76723  39.337  23.623  10.670
10183W        W76724  27.076  25.098   3.478
10184W        W76725   0.985  28.092   1.138
10185W        W76726  12.827  21.996   4.354
10186W        W76727  32.708  32.095   0.595
10187W        W76728  44.245   3.742   2.098
10188W        W76729   2.330  15.558  13.015
10189W        W76730  10.919   9.695   0.484
10190W        W76731  19.691  37.620  12.945
10191W        W76732  41.081  33.761  12.087
10192W        W76733   7.221  34.507   0.332
10193W        W76734  35.955  33.160  14.106
10194W        W76735  30.258  37.320   4.447
10195W        W76736   2.420  27.801   4.560
10196W        W76737  44.447  13.648   0.258
10197W        W76738  25.059  43.484   0.324
10198W        W76739  17.764   6.911   1.198
10199W        W76740  22.997  24.250  14.262
10200W        W76741  43.679  13.081   3.117
10201W        W76742   0.163  27.436  12.486
10202W        W76743   9.205  24.084  11.594
10203W        W76744  42.302  10.215   3.804
10204W        W76745   5.258   7.168  14.354
10205W        W76746  12.547  41.750  11.118
10206W        W76747  34.345  34.967   1.885
10207W        W76748   7.292  17.990   3.242
10208W        W76749  13.343  28.646  10.677
10209W        W76750   7.673  36.442   3.738
10210W        W76751  36.947  28.832   0.831
10211W        W76752  23.450   6.636  14.322
10212W        W76753  44.418   3.282   3.885
10213W        W76754   9.164  26.600   4.180
10214W        W76755  32.711  12.789  14.921
10215W        W76756   1.380   5.141  11.339
10216W        W76757  39.291   2.230   4.583
10217W        W76758  33.578  12.368  10.695
10218W        W76759  34.203  34.128   3.390
10219W        W76760  16.671  34.933  13.777
10220W        W76761  43.271  31.016  13.289
10221W        W76762  25.702  23.598   2.902
10222W        W76763   2.436  30.644   3.261
10223W        W76764  21.370  18.591   2.438
10224W        W76765   1.747  13.767  14.491
10225W        W76766  24.684  15.347   1.998
10226W        W76767  18.454  21.101  12.249
10227W        W76768  36.500  35.348  13.517
10228W        W76769  11.800  33.998   0.282
10229W        W76770  38.448  31.430   0.677
10230W        W76771  25.092   8.169  14.433
10231W        W76772  32.004  41.512   1.701
10232W        W76773  10.811  21.457  11.060
10233W        W76774  37.967  40.862  11.579
10234W        W76775   0.499  13.437  11.706
10235W        W76776  31.460  35.922  13.944
10236W        W76777  13.328  30.797  13.571
10237W        W76778  14.282   7.895   4.159
10238W        W76779  18.394  29.425  14.327
10239W        W76780  35.612  28.638   0.865
10240W        W76781  19.540  35.486  14.391
10241W        W76782  38.587  22.513  14.490
10242W        W76783  18.307  31.294  13.442
10243W        W76784  24.092  29.486   3.568
10244W        W76785  16.404  26.160  12.500
10245W        W76786  10.588  18.151  11.279
10246W        W76787   1.868  34.778  13.001
10247W        W76788   8.596  39.498   0.304
10248W        W76789  32.017  14.291  14.275
10249W        W76790  34.151  20.848  12.356
10250W        W76791  22.890   2.285   0.085
10251W        W76792  41.307  31.421   0.917
10252W        W76793  28.220  27.526  12.920
10253W        W76794   5.271  13.678  13.270
10254W        W76795  32.869  30.196   3.614
10255W        W76796  43.803   3.718  13.360
10256W        W76797  22.245  26.959  14.303
10257W        W76798  36.370  19.166  14.017
10258W        W76799  14.675  37.817  11.571
10259W        W76800  15.758  16.782  12.459
10260W        W76801   1.450   2.459   1.477
10261W        W76802  14.075   1.797  12.071
10262W        W76803  32.507  35.449   4.715
10263W        W76804  39.746  34.144   4.403
10264W        W76805  38.941  30.255  12.139
10265W        W76806   7.765  17.581   0.702
10266W        W76807  38.639   3.954  13.931
10267W        W76808  37.392  19.887  13.038
10268W        W76809  23.297  12.068  14.079
10269W        W76810  13.201  40.919  13.901
10270W        W76811  34.053  28.142   0.554
10271W        W76812  15.318  13.266   4.895
10272W        W76813   7.057  27.625   0.336
10273W        W76814   6.324  25.439   3.885
10274W        W76815   9.634   1.911  12.357
10275W        W76816  41.973   2.740   1.342
10276W        W76817  30.542   5.829   3.597
10277W        W76818  27.112  10.854   0.702
10278W        W76819  19.041  29.321  11.417
10279W        W76820  31.113  16.249  12.929
10280W        W76821  28.137  32.039  12.354
10281W        W76822  29.335  20.020   1.923
10282W        W76823   9.309  44.772  10.543
10283W        W76824  28.541  27.694  14.253
10284W        W76825  25.465  19.086   1.676
10285W        W76826  13.074  44.468  12.958
10286W        W76827  35.021  32.508   1.682
10287W        W76828  16.286  22.641  14.609
10288W        W76829  41.505   5.234  14.645
10289W        W76830  15.869  38.684  12.073
10290W        W76831  44.419  39.373  11.847
10291W        W76832  33.763  21.102  13.513
10292W        W76833  10.679  12.698  14.311
10293W        W76834  13.567   3.273   2.835
10294W        W76835   1.186   5.419   3.272
10295W        W76836  26.914  25.936  11.589
10296W        W76837  39.234  17.198  12.517
10297W        W76838  17.454  14.883  13.571
10298W        W76839  39.479  11.915  14.668
10299W        W76840   1.652   5.129  14.614
10300W        W76841  37.799   3.307  13.111
10301W        W76842  12.236  12.482   4.525
10302W        W76843  17.986   4.955   0.311
10303W        W76844  29.431  27.959  14.366
10304W        W76845  33.467  12.389   1.698
10305W        W76846  24.705  17.367  12.760
10306W        W76847  10.517  40.054  12.968
10307W        W76848  35.070  30.493   2.158
10308W        W76849  34.873   8.679   4.086
10309W        W76850   3.972  25.005   0.652
10310W        W76851   6.632  27.016  10.991
10311W        W76852  24.603  17.555  14.936
10312W        W76853  28.710  41.131  11.987
10313W        W76854  12.192  10.689   2.659
10314W        W76855   6.420   6.567   4.150
10315W        W76856   1.742  38.040   3.760
10316W        W76857  10.645  12.666   4.583
10317W        W76858  24.934  37.877   4.614
10318W        W76859  22.272  11.294  10.423
10319W        W76860  20.749   5.836   2.211
10320W        W76861  44.948  41.632   1.264
10321W        W76862  21.147  32.002   0.451
10322W        W76863  30.387  21.445  13.571
10323W        W76864  25.229   0.373  13.082
10324W        W76865   4.964   0.554  11.547
10325W        W76866  37.154  10.299   3.160
10326W        W76867  36.372  44.201  13.320
10327W        W76868  37.926  31.133   2.380
10328W        W76869   2.721   8.412  11.158
10329W        W76870   8.215  32.818   1.843
10330W        W76871   5.813  30.869   3.267
10331W        W76872  41.870   2.525   0.835
10332W        W76873  42.448  24.833   4.179
10333W        W76874  12.105  27.996   0.954
10334W        W76875  42.899  20.035   1.856
10335W        W76876  42.889  24.159   2.110
10336W        W76877   8.493   9.610  13.313
10337W        W76878  22.206  18.832   0.225
10338W        W76879  36.119  17.762  13.433
10339W        W76880  42.397  14.439   1.393
10340W        W76881  36.890  18.169   1.183
10341W        W76882  19.153  36.239  13.860
10342W        W76883  16.516  42.632   4.589
10343W        W76884  31.321  34.358   3.276
10344W        W76885   6.888  27.098   1.959
10345W        W76886   7.133  31.473   1.425
10346W        W76887  36.998  31.117   4.494
10347W        W76888  22.061  15.218   1.220
10348W        W76889  25.525  29.066  10.869
10349W        W76890  14.115  43.841   4.649
10350W        W76891  28.965  18.874   1.257
10351W        W76892   4.370  11.729   2.291
10352W        W76893  25.130  17.353  13.333
10353W        W76894  15.264   8.625  12.421
10354W        W76895  21.641   4.838   1.885
10355W        W76896   1.659  11.680   2.273
10356W        W76897  34.394   2.829  11.766
10357W        W76898  41.114  40.748   2.644
10358W        W76899  12.178  39.995  14.501
10359W        W76900  13.302  25.398  13.013
10360W        W76901   1.028  31.123  12.984
10361W        W76902   9.266  24.171   0.937
10362W        W76903   6.901  11.756   3.768
10363W        W76904  40.966  38.994   4.157
10364W        W76905  34.405  20.622   1.337
10365W        W76906  34.116  27.601  11.079
10366W        W76907  18.807  36.625  10.738
10367W        W76908   2.232  39.016  12.441
10368W        W76909  39.234   0.962  11.795
10369W        W76910  16.532  33.983   1.223
10370W        W76911   7.817  36.932   3.596
10371W        W76912  40.169  22.387  12.034
10372W        W76913  27.126  37.592  12.199
10373W        W76914  44.179  36.475   1.946
10374W        W76915  42.411  40.944  12.425
10375W        W76916   7.533  44.443   3.150
10376W        W76917   1.383  11.820  13.948
10377W        W76918  30.272  31.400  14.476
10378W        W76919  39.976  21.749  14.216
10379W        W76920   0.142  21.086   2.196
10380W        W76921  41.609   8.678  14.449
10381W        W76922  13.210  15.167   3.115
10382W        W76923  12.377  22.575  12.476
10383W        W76924  40.314  37.751   2.724
10384W        W76925   8.334  30.021   2.307
10385W        W76926  16.335   6.647  13.927
10386W        W76927   9.615  10.653   2.926
10387W        W76928  37.306  44.267  12.546
10388W        W76929   7.323  17.651   0.385
10389W        W76930  36.799   9.188  12.681
10390W        W76931  11.435  14.650  11.255
10391W        W76932  37.786  26.944   0.768
10392W        W76933  27.853  22.801   0.943
10393W        W76934  11.249  15.318  11.901
10394W        W76935  13.823  42.693   5.073
10395W        W76936   1.859  41.754   2.413
10396W        W76937  32.635  34.793   3.932
10397W        W76938  34.140  25.149  11.135
10398W        W76939  19.237  14.154   4.169
10399W        W76940  10.898   2.524  13.479
10400W        W76941  12.295  26.630  11.112
10401W        W76942  36.808  23.707   0.782
10402W        W76943  36.770   0.744   3.646
10403W        W76944   3.224  23.119  10.572
10404W        W76945  28.670  34.505  13.271
10405W        W76946  44.165  36.934  11.997
10406W        W76947  24.475  23.818  14.424
10407W        W76948  24.318   5.806   1.656
10408W        W76949   2.668   6.377   1.891
10409W        W76950  18.184   6.092   2.043
10410W        W76951   9.908  43.108  14.712
10411W        W76952  36.544  34.285   2.194
10412W        W76953  36.979  30.527  13.355
10413W        W76954   6.704  18.782  14.611
10414W        W76955  27.553  14.633   1.969
10415W        W76956  15.573   4.912  14.364
10416W        W76957  38.377  34.575   1.825
10417W        W76958  25.121  37.152  12.478
10418W        W76959  39.824  41.409   3.364
10419W        W76960  42.298  22.581   1.436
10420W        W76961  42.826  31.547  10.725
10421W        W76962  22.543  32.777  14.369
10422W        W76963  37.936  13.536  14.467
10423W        W76964  23.840  36.268   4.022
10424W        W76965   7.622  31.072   2.688
10425W        W76966   4.197  39.946  14.377
10426W        W76967  21.750   5.219   0.936
10427W        W76968  19.522   3.415  11.522
10428W        W76969   8.346  16.770   4.439
10429W        W76970  24.165  25.513  12.441
10430W        W76971  28.653  16.415   2.225
10431W        W76972  23.235  25.021  12.962
10432W        W76973   7.232  24.198  11.131
10433W        W76974  44.911  29.632  11.390
10434W        W76975  16.019   8.807   0.362
10435W        W76976   0.961  20.124   2.624
10436W        W76977   2.015   0.853  12.048
10437W        W76978  31.459  34.809  14.301
10438W        W76979  26.465  29.006   1.864
10439W        W76980   9.113   2.799  11.571
10440W        W76981  11.788  16.259   2.241
10441W        W76982  42.988   9.369   0.200
10442W        W76983  20.498  40.542  12.035
10443W        W76984  18.324   6.243   3.206
10444W        W76985  30.482  34.571   1.453
10445W        W76986  13.357  10.713  13.974
10446W        W76987  14.092   6.867  14.526
10447W        W76988  10.114   5.257  12.299
10448W        W76989  14.456   0.966   0.348
10449W        W76990  43.146   8.760   4.359
10450W        W76991  31.196   1.859   2.940
10451W        W76992  26.439  42.902   2.676
10452W        W76993  17.036  28.478   0.797
10453W        W76994  26.924  18.605  12.141
10454W        W76995  32.157  37.051  14.180
10455W        W76996  35.627  42.919   1.955
10456W        W76997  27.702  41.273   3.341
10457W        W76998  41.011  31.637  10.532
10458W        W76999  36.804  41.629  12.096
10459W        W77000  22.624  13.797  14.721
10460W        W77001  35.952  14.832   1.770
10461W        W77002  32.935  14.569   1.400
10462W        W77003  33.114   1.978  14.836
10463W        W77004  37.044  30.659   1.165
10464W        W77005   8.236   2.917   4.426
10465W        W77006  18.422  37.092  14.274
10466W        W77007   2.076   6.099   0.160
10467W        W77008  14.858  29.535   0.781
10468W        W77009  39.078   6.863   0.708
10469W        W77010  16.992  21.604   3.722
10470W        W77011  33.429  41.547  10.758
10471W        W77012  18.089  28.632   0.935
10472W        W77013  13.094  32.247  11.923
10473W        W77014  34.236   0.259   2.194
10474W        W77015   4.760  13.798   3.202
10475W        W77016  10.789  20.827   1.370
10476W        W77017  35.812  36.290  12.098
10477W        W77018  33.045  19.581   0.942
10478W        W77019  21.744  12.853  13.049
10479W        W77020  10.724  16.716  14.634
10480W        W77021  41.510  31.852   1.838
10481W        W77022  17.414  30.005   3.738
10482W        W77023  10.913  27.603  10.417
10483W        W77024   1.384  25.424   0.878
10484W        W77025  24.110  40.470   4.518
10485W        W77026  44.876   6.251  14.118
10486W        W77027  22.064  24.975   1.861
10487W        W77028  13.794  42.514  14.379
10488W        W77029  11.775  36.376   0.222
10489W        W77030  19.081  22.530  14.912
10490W        W77031   7.599   8.178   3.640
10491W        W77032  32.224   1.781   2.682
10492W        W77033  14.372  23.000  14.755
10493W        W77034  34.486  31.770  14.329
10494W        W77035  38.784   6.160   3.657
10495W        W77036  36.545  17.335  13.587
10496W        W77037  41.016  20.241   2.396
10497W        W77038  36.628  43.328   0.791
10498W        W77039  16.302  34.273   5.192
10499W        W77040  30.959  35.198  11.559
10500W        W77041  24.312  43.281  11.686
10501W        W77042  42.905   6.351   2.747
10502W        W77043  43.385  14.151  12.136
10503W        W77044   6.618   0.330  10.517
10504W        W77045  33.630  32.527  14.352
10505W        W77046   2.897  40.026   4.509
10506W        W77047  35.231  26.929  12.008
10507W        W77048  41.025  15.811  11.157
10508W        W77049  32.405  25.628   3.690
10509W        W77050  38.788  43.023  14.847
10510W        W77051  43.270  19.475   0.595
10511W        W77052  12.397  30.999  14.699
10512W        W77053   7.370  13.832  11.218
10513W        W77054  20.224  42.062  14.947
10514W        W77055  29.033  25.718  10.716
10515W        W77056   0.937  41.161   3.212
10516W        W77057  29.186  43.749   1.859
10517W        W77058  23.408  15.562   1.753
10518W        W77059  39.311   0.895   2.657
10519W        W77060  10.822   0.735  12.399
10520W        W77061  44.709  21.188   0.254
10521W        W77062  14.632  20.668  12.141
10522W        W77063  26.705  29.406   0.073
10523W        W77064  30.617  10.920  13.377
10524W        W77065  20.953   1.213   1.806
10525W        W77066  33.757  29.085  14.019
10526W        W77067  12.568  36.786   1.203
10527W        W77068  26.782   5.659   0.546
10528W        W77069  10.344  26.186  14.567
10529W        W77070   6.213  39.019   3.669
10530W        W77071  31.117  25.776  10.542
10531W        W77072  33.136  41.530  13.917
10532W        W77073  12.261  14.321  11.145
10533W        W77074  28.661  30.255  14.307
10534W        W77075   3.574  14.926  12.121
10535W        W77076  21.984  32.867   0.875
10536W        W77077  10.588  38.824  13.254
10537W        W77078  39.610  40.044   1.137
10538W        W77079  36.387  28.814   3.307
10539W        W77080  33.999  10.721  11.619
10540W        W77081  16.828   7.252   1.873
10541W        W77082   0.795   2.153  11.090
10542W        W77083   2.364   6.247  11.551
10543W        W77084   9.863  24.453  13.861
10544W        W77085  42.522  33.314   3.143
10545W        W77086  23.224  10.785   2.207
10546W        W77087  32.982  40.787  12.059
10547W        W77088  13.633  17.535   0.644
10548W        W77089  42.459  43.881  12.623
10549W        W77090  44.807  32.537  12.487
10550W        W77091  28.530  10.223  11.183
10551W        W77092  24.798  21.079  14.356
10552W        W77093  24.255  40.365  13.862
10553W        W77094  43.261  11.710   4.956
10554W        W77095  44.057  35.375   2.273
10555W        W77096   4.847  43.880   0.885
10556W        W77097  27.700   9.288   3.316
10557W        W77098  26.006   3.746   1.752
10558W        W77099  39.124  17.637   3.524
10559W        W77100  19.727  34.841  12.472
10560W        W77101  16.517  12.792  14.879
10561W        W77102  13.206  43.600  14.329
10562W        W77103  31.870  14.933   0.380
10563W        W77104  29.171   3.718   2.216
10564W        W77105  25.056  12.231  11.410
10565W        W77106  36.252   1.056   3.335
10566W        W77107  29.940  28.617  12.252
10567W        W77108   6.197   3.658   2.609
10568W        W77109   8.286  13.858  13.589
10569W        W77110  29.018  27.301  10.733
10570W        W77111  16.569   0.486   1.354
10571W        W77112  14.800  15.321  13.362
10572W        W77113   3.828  26.954   0.843
10573W        W77114   6.967  38.099   1.285
10574W        W77115   7.819   9.846   0.403
10575W        W77116  17.005   2.167  11.267
10576W        W77117  28.458   6.360  12.844
10577W        W77118  22.718  42.671   3.986
10578W        W77119   1.352  40.844  11.276
10579W        W77120  12.106  20.469  13.368
10580W        W77121  19.571   3.451  10.630
10581W        W77122  28.566  12.470   5.092
10582W        W77123  22.168   6.798  10.721
10583W        W77124  20.918  40.468   0.026
10584W        W77125   8.447   5.913   3.654
10585W        W77126  20.776  30.437   3.300
10586W        W77127   3.466  17.080   4.599
10587W        W77128   9.706  32.687  11.607
10588W        W77129  44.887   5.945  14.970
10589W        W77130   1.148   4.230  14.544
10590W        W77131  40.276  44.899  14.873
10591W        W77132   0.277  16.060  11.236
10592W        W77133  22.947  10.628  11.111
10593W        W77134  28.557  24.473  14.253
10594W        W77135  42.362   2.025   2.155
10595W        W77136  33.166  24.277   5.153
10596W        W77137   2.311  24.017   0.376
10597W        W77138  39.496  20.674   0.340
10598W        W77139  37.905   2.332   0.984
10599W        W77140  10.845   5.466   0.667
10600W        W77141   9.429  14.116  10.509
10601W        W77142  35.998  41.310   3.550
10602W        W77143   5.910  40.572   2.857
10603W        W77144  43.878   2.885   4.693
10604W        W77145  35.040  39.786   1.409
10605W        W77146  27.109  19.581   0.023
10606W        W77147  10.626  18.026  10.648
10607W        W77148  31.548  32.025  10.170
10608W        W77149  39.445  38.440  10.380
10609W        W77150  43.233  27.399  11.124
10610W        W77151  27.232  38.031   3.960
10611W        W77152   1.739  40.588  14.857
10612W        W77153  20.063  15.405   1.963
10613W        W77154  36.994   9.287  12.184
10614W        W77155  38.873  19.535  13.385
10615W        W77156  39.692  27.780  12.043
10616W        W77157  37.582   4.740   2.898
10617W        W77158   4.484   3.543  13.082
10618W        W77159   1.659  43.084  14.842
10619W        W77160  12.535  39.318  12.544
10620W        W77161  28.724   6.250  10.396
10621W        W77162  21.659  18.782   1.440
10622W        W77163  35.047  42.694   5.081
10623W        W77164  15.988  19.307  11.137
10624W        W77165  36.416   2.023  11.611
10625W        W77166  20.824  13.952  12.026
10626W        W77167  28.176  36.330   0.743
10627W        W77168   4.832  42.179   5.007
10628W        W77169  17.606  14.077   2.695
10629W        W77170  15.805  44.315   3.401
10630W        W77171  23.168  42.371   0.258
10631W        W77172  43.688  40.967   1.326
10632W        W77173  43.302  33.840  13.339
10633W        W77174  41.205  19.708   2.602
10634W        W77175  36.870   3.023   3.286
10635W        W77176  21.501  44.859  13.941
10636W        W77177  24.097  10.127  10.469
10637W        W77178  30.083  27.166  12.943
10638W        W77179  14.643  12.103   2.338
10639W        W77180  34.975  36.794  12.939
10640W        W77181   3.605   5.281  14.879
10641W        W77182  38.832  38.478   3.346
10642W        W77183  22.718  20.047  13.792
10643W        W77184  17.513  18.661  13.008
10644W        W77185   6.858  32.328  13.895
10645W        W77186  23.718   4.496  12.064
10646W        W77187   5.899  17.515  11.959
10647W        W77188  44.028  42.745   2.103
10648W        W77189  27.620  19.275  12.123
10649W        W77190  18.678  35.525   0.704
10650W        W77191   6.989  20.751  12.075
10651W        W77192  33.242  23.196  13.900
10652W        W77193  17.211  23.628   2.799
10653W        W77194  13.738  22.458   3.303
10654W        W77195  12.770  42.404   4.334
10655W        W77196   4.833  19.170   3.763
10656W        W77197  10.969  14.874   0.307
10657W        W77198  27.521   2.445  12.368
10658W        W77199   8.030   4.042  12.431
10659W        W77200   8.265   8.452  14.004
10660W        W77201  36.037  22.233   1.364
10661W        W77202   0.019  20.798  11.583
10662W        W77203  42.306  37.478   1.120
10663W        W77204  36.404  19.701  13.976
10664W        W77205  35.587  37.351   4.814
10665W        W77206  22.328  32.985  11.542
10666W        W77207   7.431  10.654  11.265
10667W        W77208  41.407   5.281   2.389
10668W        W77209   8.216   2.164  12.603
10669W        W77210  10.879   1.658  12.926
10670W        W77211   3.450  11.623  14.895
10671W        W77212  34.188  26.824  11.557
10672W        W77213  27.143   2.197  13.650
10673W        W77214   9.868  22.391  11.939
10674W        W77215  41.329   0.317  13.404
10675W        W77216   3.604   3.014   3.592
10676W        W77217  18.537   6.291  12.720
10677W        W77218   7.402  38.149  13.002
10678W        W77219   1.678  37.841   1.145
10679W        W77220  10.296   5.362   4.445
10680W        W77221   1.222  21.575  13.093
10681W        W77222  20.221  25.466  14.642
10682W        W77223   0.722  32.945  14.450
10683W        W77224  36.436  25.935  12.008
10684W        W77225  34.677   4.360  13.465
10685W        W77226  22.593  36.492   3.558
10686W        W77227  44.737  17.265  13.924
10687W        W77228  38.292   3.139  14.973
10688W        W77229  16.325  22.208  13.316
10689W        W77230  25.747   4.679  11.341
10690W        W77231   2.428  40.828  14.378
10691W        W77232  28.689   7.067   4.562
10692W        W77233  10.106  23.253   0.585
10693W        W77234  37.864  10.656  12.981
10694W        W77235  28.954  20.011  14.766
10695W        W77236   5.229  17.980   1.350
10696W        W77237  21.042  16.295   1.344
10697W        W77238  39.562  21.247   1.307
10698W        W77239  40.274  28.925  10.420
10699W        W77240   1.445   1.300   4.012
10700W        W77241  43.549  32.484  12.874
10701W        W77242  28.077   5.807   1.676
10702W        W77243  12.234  24.623  12.973
10703W        W77244  26.748  42.362  13.338
10704W        W77245   3.293  16.672   3.822
10705W        W77246  22.259  32.193   2.093
10706W        W77247   7.834  43.279   4.628
10707W        W77248  33.988  23.592  13.478
10708W        W77249  31.662  10.802  11.534
10709W        W77250  24.749  40.840  11.601
10710W        W77251  34.219  31.628  12.663
10711W        W77252  23.536  19.820  13.495
10712W        W77253  22.536  38.539   2.283
10713W        W77254  36.608   0.389   5.014
10714W        W77255   1.218  44.268   4.604
10715W        W77256  17.228  41.617   1.906
10716W        W77257  22.246  30.911  14.476
10717W        W77258  11.023  44.286  13.105
10718W        W77259  26.398  14.685  14.521
10719W        W77260  24.068  16.610   4.338
10720W        W77261  39.253  26.922   2.285
10721W        W77262  22.104  38.814   2.387
10722W        W77263  23.190   2.816  11.899
10723W        W77264   4.306  30.096   0.253
10724W        W77265  11.315  42.506  10.382
10725W        W77266  13.093  38.885   4.681
10726W        W77267  18.131  16.275  11.531
10727W        W77268  19.997  28.380   1.328
10728W        W77269   1.833  43.803  12.555
10729W        W77270  29.104  36.895   1.300
10730W        W77271  29.385  27.477   3.619
10731W        W77272  29.408  34.368  12.056
10732W        W77273  44.128  23.104   4.231
10733W        W77274   1.780  38.730  13.647
10734W        W77275   3.184  26.534  12.765
10735W        W77276  17.903  10.728   2.329
10736W        W77277  15.194  43.357   1.478
10737W        W77278  36.756   2.683   5.392
10738W        W77279  36.409   8.133   0.921
10739W        W77280  16.616  13.904  12.199
10740W        W77281  40.583  40.607   4.561
10741W        W77282   5.141  36.522   3.206
10742W        W77283  19.675  44.350   0.413
10743W        W77284  12.558  29.401   4.653
10744W        W77285  17.817  44.763  13.263
10745W        W77286   1.918  14.490  11.218
10746W        W77287  39.830  32.530  13.831
10747W        W77288  43.096  35.644  12.289
10748W        W77289  17.525  20.269   3.247
10749W        W77290  21.449  40.437   4.936
10750W        W77291  13.709  21.011   3.875
10751W        W77292  37.620  26.978  13.277
10752W        W77293  36.920  33.002   0.356
10753W        W77294  11.148   4.459   4.414
10754W        W77295   2.178  28.434  11.287
10755W        W77296  18.960   4.224   0.695
10756W        W77297   9.786  23.691  11.482
10757W        W77298  29.377   8.270  11.785
10758W        W77299  35.827   7.205   2.623
10759W        W77300  33.470  15.585  12.021
10760W        W77301  36.918   4.432  14.619
10761W        W77302  25.112   7.913   2.904
10762W        W77303  34.307  43.360   4.224
10763W        W77304  37.113   1.282  13.380
10764W        W77305   5.799   4.926   1.646
10765W        W77306   0.515  28.537   0.757
10766W        W77307  12.163  36.602   0.901
10767W        W77308  29.117  23.211  14.881
10768W        W77309  35.861  27.566   4.261
10769W        W77310  20.645  42.505   0.430
10770W        W77311  44.256  26.022   3.982
10771W        W77312  25.399  20.706   3.409
10772W        W77313  36.472  37.126  12.935
10773W        W77314  20.170  33.125   1.394
10774W        W77315   1.393  31.367  14.592
10775W        W77316   9.161   7.368  14.723
10776W        W77317  12.833  28.371  11.815
10777W        W77318   1.473  22.163  10.953
10778W        W77319  22.744  12.458   1.436
10779W        W77320  38.382  18.983   4.101
10780W        W77321  31.612   7.200   3.499
10781W        W77322  44.135  29.139  14.915
10782W        W77323  25.461   4.191  13.413
10783W        W77324  30.097  43.875   2.821
10784W        W77325  19.653  20.001  12.202
10785W        W77326  23.650  35.460   2.233
10786W        W77327  31.311  32.481   1.148
10787W        W77328   7.268  21.090   3.474
10788W        W77329  32.504  22.691   0.979
10789W        W77330  24.232   5.681  14.464
10790W        W77331  16.017  36.622   2.487
10791W        W77332  26.451  20.062  11.027
10792W        W77333  31.404  15.252   4.632
10793W        W77334  28.646  27.697   0.437
10794W        W77335  13.202  13.368   0.938
10795W        W77336  32.883   0.416  11.591
10796W        W77337   7.181  10.606  13.170
10797W        W77338  43.366  41.813  12.674
10798W        W77339  41.054  12.080  13.836
10799W        W77340  32.960  30.609  12.082
10800W        W77341  24.200   7.956   3.200
10801W        W77342  32.173   6.430   3.550
10802W        W77343  10.241  10.790  11.002
10803W        W77344  20.038  30.633   3.831
10804W        W77345   7.141  13.692  12.175
10805W        W77346   7.435  10.176   2.148
10806W        W77347  33.893  37.459   1.046
10807W        W77348  38.206  21.934  11.149
10808W        W77349   5.379   6.653  14.336
10809W        W77350  27.597   4.708  13.064
10810W        W77351   2.137   2.151  14.902
10811W        W77352  20.093  10.584   4.645
10812W        W77353  31.195  24.965  13.024
10813W        W77354  41.482   3.847  12.400
10814W        W77355  35.142   6.808  12.617
10815W        W77356  21.704  19.306   4.675
10816W        W77357  17.856   1.407  13.470
10817W        W77358   6.435  36.116  14.400
10818W        W77359  36.227  14.877  12.361
10819W        W77360  19.331   0.656  10.870
10820W        W77361   5.599  12.230   3.804
10821W        W77362   0.328  20.806  11.177
10822W        W77363  22.501  13.616  12.022
10823W        W77364  14.762  16.610  14.103
10824W        W77365  37.490  17.503   0.879
10825W        W77366  13.331  24.866   1.330
10826W        W77367  33.873   9.126   3.365
10827W        W77368  18.705  10.346   4.198
10828W        W77369  14.358  17.625   0.352
10829W        W77370  36.476  42.950  10.037
10830W        W77371  27.465  20.788  13.059
10831W        W77372   4.414   0.704   1.348
10832W        W77373  30.686  31.954   2.357
10833W        W77374  30.686  32.925  14.465
10834W        W77375  10.673  39.652  14.812
10835W        W77376   2.974  11.293   1.702
10836W        W77377  34.999  26.568  14.924
10837W        W77378  16.552  32.890  14.832
10838W        W77379  29.374   9.644  10.747
10839W        W77380  20.165  38.381  10.860
10840W        W77381   5.179  32.125   4.304
10841W        W77382  29.482  31.880   4.990
10842W        W77383  23.975  25.404  14.419
10843W        W77384   5.877   3.821  10.724
10844W        W77385  34.387  32.086   2.401
10845W        W77386  40.758  29.689   2.609
10846W        W77387  26.964  16.959  10.686
10847W        W77388  37.639  13.179  12.435
10848W        W77389  26.309  34.611  10.367
10849W        W77390  12.131   3.754   0.983
10850W        W77391  38.462  25.105   2.518
10851W        W77392  19.956  34.312   1.870
10852W        W77393  30.628   6.721  12.566
10853W        W77394   1.961  28.042  11.548
10854W        W77395  25.047  10.311  11.662
10855W        W77396   8.253  22.334   0.281
10856W        W77397  33.037   3.513  13.266
10857W        W77398  39.044  31.861  13.091
10858W        W77399  44.782  25.163  12.823
10859W        W77400  37.910  16.546   4.919
10860W        W77401  15.080  41.898  11.854
10861W        W77402  40.524  15.102   3.697
10862W        W77403  36.742  14.614   0.010
10863W        W77404   1.774   3.844   4.291
10864W        W77405  19.102  10.388   3.835
10865W        W77406   7.363  28.139   4.326
10866W        W77407   2.029  17.147  13.419
10867W        W77408  29.803  30.388   4.486
10868W        W77409  37.079  22.833   1.042
10869W        W77410  30.323  14.601  10.784
10870W        W77411   8.827  13.652   4.268
10871W        W77412  28.977  18.984  10.979
10872W        W77413  35.420  17.082  11.244
10873W        W77414  30.874   8.147   3.991
10874W        W77415  25.539  21.718   3.159
10875W        W77416  30.150  31.927   3.756
10876W        W77417  15.635   1.962   0.413
10877W        W77418   7.303  15.621  12.738
10878W        W77419  19.858  29.019  10.605
10879W        W77420  40.970  10.400   4.154
10880W        W77421  36.804  26.059   3.182
10881W        W77422  38.911  23.400   2.229
10882W        W77423  36.558  31.959   1.325
10883W        W77424  18.440  15.909   4.423
10884W        W77425  40.699  27.596  12.929
10885W        W77426  41.090  38.561  12.063
10886W        W77427  31.657   9.366   4.997
10887W        W77428  43.271  37.773  14.488
10888W        W77429  40.915  12.289   3.801
10889W        W77430  18.054  17.760   2.687
10890W        W77431  38.784  39.276   4.050
10891W        W77432  13.071  44.794  13.429
10892W        W77433  20.711  29.594   1.775
10893W        W77434  20.784   2.842  10.455
10894W        W77435  43.302  29.618   1.099
10895W        W77436  18.979   5.581   5.211
10896W        W77437  20.794  34.105  14.233
10897W        W77438  12.369  10.577  14.956
10898W        W77439  14.355  14.143   1.343
10899W        W77440  15.306   5.344   4.116
10900W        W77441   0.229  38.322   2.359
10901W        W77442  37.452  43.241  12.486
10902W        W77443  40.213  35.952   2.132
10903W        W77444   1.975  33.705   9.762
10904W        W77445  31.284  30.077  11.746
10905W        W77446  22.651  40.069   0.670
10906W        W77447  39.507  34.385   4.002
10907W        W77448   0.854   3.816  14.702
10908W        W77449  39.280  41.204  11.065
10909W        W77450   3.667  42.487  13.885
10910W        W77451  22.498  22.252   1.288
10911W        W77452   5.302  13.785   2.237
10912W        W77453  12.995  30.144  14.190
10913W        W77454  29.679  42.425  12.441
10914W        W77455  30.740  38.072   1.915
10915W        W77456  29.534  21.141  13.362
10916W        W77457   0.240  24.711   2.742
10917W        W77458  29.419  24.302   3.232
10918W        W77459   5.425   7.978  12.985
10919W        W77460  19.690  22.243   4.776
10920W        W77461   1.723   3.331   3.172
10921W        W77462  37.056  20.933   0.824
10922W        W77463   7.310   3.296   3.695
10923W        W77464  33.687  23.483  12.558
10924W        W77465  23.210  29.637   3.706
10925W        W77466  32.323   1.919   3.669
10926W        W77467  27.196   3.518   1.261
10927W        W77468  37.035  32.622  10.725
10928W        W77469  20.481  42.866   0.075
10929W        W77470  30.767  37.040   4.152
10930W        W77471   8.840  23.468   4.307
10931W        W77472   7.609  33.005  14.052
10932W        W77473  35.880  21.716   1.009
10933W        W77474  40.299   9.862  12.056
10934W        W77475  13.640  12.353  14.853
10935W        W77476  24.539  33.709   2.669
10936W        W77477  25.541   5.004   1.372
10937W        W77478  10.868  19.443  12.763
10938W        W77479  37.834  19.446   5.104
10939W        W77480  42.747  11.852  10.690
10940W        W77481  31.005  39.440   4.534
10941W        W77482   2.380  20.730  13.401
10942W        W77483  33.502  43.640   1.266
10943W        W77484  38.315  36.711   4.759
10944W        W77485  30.530  40.811  13.573
10945W        W77486  17.521   2.827   3.314
10946W        W77487  13.633  15.092   1.868
10947W        W77488   9.356  20.070  14.858
10948W        W77489  19.855  15.271  11.267
10949W        W77490  18.749  12.288  12.022
10950W        W77491  39.736  25.551  10.657
10951W        W77492  42.773  19.172   2.134
10952W        W77493  28.584  19.080  10.619
10953W        W77494  42.335  30.983   3.230
10954W        W77495  41.296   8.441   4.494
10955W        W77496  40.920  27.544  11.565
10956W        W77497  19.076   3.296  14.805
10957W        W77498  23.470   2.435  11.027
10958W        W77499  18.223  28.180  13.099
10959W        W77500   5.825  27.904  11.983
10960W        W77501   6.772   8.886  14.532
10961W        W77502  39.427   5.455  11.889
10962W        W77503  30.269  10.875   5.217
10963W        W77504  15.824  42.938  12.157
10964W        W77505  26.098   2.039   0.123
10965W        W77506  38.513  18.115  11.205
10966W        W77507  24.122  16.540   4.849
10967W        W77508   6.608  15.371   4.862
10968W        W77509  37.013  33.693   1.799
10969W        W77510  28.547  10.411   9.520
10970W        W77511   9.907  42.722   0.130
10971W        W77512  41.490   4.696   4.598
10972W        W77513  40.312  41.346  12.457
10973W        W77514  10.905   8.659  12.152
10974W        W77515  39.882   4.250   1.632
10975W        W77516  10.237  26.634   1.804
10976W        W77517  12.571  14.130   0.911
10977W        W77518  18.249  34.042   1.717
10978W        W77519  24.967   6.977   4.478
10979W        W77520  19.488   9.696   4.281
10980W        W77521  15.552  14.789   3.887
10981W        W77522  20.281  13.409  14.002
10982W        W77523  39.412  36.276   4.492
10983W        W77524  10.305  18.826   2.222
10984W        W77525  25.981   0.301   0.805
10985W        W77526  42.862  10.299  14.927
10986W        W77527  23.923  38.295  11.181
10987W        W77528  33.918  19.308  10.706
10988W        W77529  23.240  12.680  11.429
10989W        W77530   6.154  42.470   3.265
10990W        W77531  33.165  34.979   3.275
10991W        W77532  22.993  20.113   0.816
10992W        W77533  11.191  31.365   4.120
10993W        W77534  41.391  26.603   3.243
10994W        W77535  21.265  35.067  11.635
10995W        W77536  14.637  17.906   3.668
10996W        W77537   3.715  40.606   3.125
10997W        W77538  37.736  21.118  10.599
10998W        W77539  20.605  11.201  10.734
10999W        W77540  41.842  30.943  13.321
11000W        W77541  29.197   5.279  12.492
11001W        W77542  32.604  42.656  12.877
11002W        W77543  14.676  27.092  13.769
11003W        W77544   0.856   6.884  13.321
11004W        W77545  28.008  29.659  12.359
11005W        W77546  11.837   9.334   4.351
11006W        W77547  41.371  27.543  10.771
11007W        W77548  40.919  19.874   4.123
11008W        W77549  20.687  41.621   1.775
11009W        W77550  25.053   4.168  12.529
11010W        W77551  30.628   8.306   1.368
11011W        W77552   2.759  14.252   2.488
11012W        W77553  28.634  26.969  14.800
11013W        W77554  21.213  18.917  11.219
11014W        W77555  42.310   8.268   1.448
11015W        W77556  11.758  37.094   2.361
11016W        W77557  42.030  34.427   0.263
11017W        W77558  33.576   4.197  14.267
11018W        W77559  41.387  27.492  14.330
11019W        W77560   1.663   8.830  13.789
11020W        W77561  37.232   0.097   0.788
11021W        W77562   6.322   6.817  12.063
11022W        W77563  21.696  41.410   4.483
11023W        W77564  29.502   9.347   1.879
11024W        W77565  29.048  39.269   2.213
11025W        W77566   5.872   1.360  12.638
11026W        W77567  13.801  24.998  12.845
11027W        W77568  37.605   1.841   4.130
11028W        W77569  21.875  12.427   3.734
11029W        W77570  34.305   6.949   0.903
11030W        W77571  42.392  39.591   2.260
11031W        W77572   5.317   4.347   1.242
11032W        W77573  40.859  29.232   3.289
11033W        W77574   1.617   8.169  14.381
11034W        W77575  18.967  24.956  14.939
11035W        W77576  13.662  11.397  12.747
11036W        W77577   3.507  33.055   2.749
11037W        W77578   7.171  24.799  12.453
11038W        W77579  41.005  16.792   1.922
11039W        W77580  40.392   5.249  11.736
11040W        W77581  19.455  41.760  12.420
11041W        W77582  44.596  10.941   0.502
11042W        W77583  23.731  21.933   2.164
11043W        W77584  40.337  27.595   1.658
11044W        W77585  23.194  32.064   4.131
11045W        W77586  14.776  41.787   4.618
11046W        W77587  35.555  38.047  13.792
11047W        W77588   7.570  44.878  13.429
11048W        W77589  38.287   4.089   3.125
11049W        W77590  43.929  23.135   1.191
11050W        W77591   7.965   2.228   0.393
11051W        W77592  33.449  34.589   4.254
11052W        W77593  38.556  14.552   4.567
11053W        W77594  18.349  44.205  12.073
11054W        W77595  17.594  23.166   1.071
11055W        W77596  29.193   2.282   4.354
11056W        W77597  19.312   3.674  14.495
11057W        W77598  21.015  22.706   1.395
11058W        W77599  25.054   4.878   3.405
11059W        W77600  39.430  25.260  14.269
11060W        W77601  17.724  30.444   4.506
11061W        W77602  42.893  32.083  10.538
11062W        W77603  26.136  30.526  13.966
11063W        W77604  17.236   2.165   1.371
11064W        W77605   0.408  39.051  10.948
11065W        W77606  37.801  16.090  14.388
11066W        W77607  33.379  33.950  10.645
11067W        W77608  40.994  22.434  12.476
11068W        W77609  17.666   3.671  12.113
11069W        W77610  15.841  29.847  14.036
11070W        W77611  29.288  28.616  11.139
11071W        W77612  30.392  12.057   0.502
11072W        W77613  41.964  32.622  12.071
11073W        W77614  30.387  19.831  12.949
11074W        W77615   8.488  39.701   5.011
11075W        W77616  11.156  31.495   2.333
11076W        W77617  31.519  13.306  10.347
11077W        W77618  21.309  23.534  12.524
11078W        W77619  13.051  29.060   1.948
11079W        W77620   5.292  31.679  14.507
11080W        W77621  24.794  12.605   4.710
11081W        W77622  32.080  43.792   4.324
11082W        W77623  33.460   5.337   4.198
11083W        W77624  14.053  22.360   3.959
11084W        W77625   5.786   4.695  13.385
11085W        W77626   3.538  35.780  14.017
11086W        W77627  18.111  44.521  10.888
11087W        W77628  29.507   8.156  12.284
11088W        W77629   1.409   0.743   0.508
11089W        W77630  10.376  33.253   0.596
11090W        W77631  16.009  32.569   0.518
11091W        W77632  37.816  36.576  10.841
11092W        W77633  30.410   5.323  14.834
11093W        W77634  20.342  37.169   1.325
11094W        W77635  24.630  26.171  14.328
11095W        W77636   9.014  41.434  13.432
11096W        W77637  44.944  19.965  14.127
11097W        W77638   4.904  11.826  14.986
11098W        W77639   5.363   8.360   3.165
11099W        W77640  21.439   5.148   2.230
11100W        W77641  38.778  42.041  13.541
11101W        W77642  11.631  23.713   2.309
11102W        W77643   9.855  22.743   0.315
11103W        W77644  36.603  32.947  12.560
11104W        W77645  24.497   1.842   0.796
11105W        W77646   6.434  25.179  13.086
11106W        W77647  13.557  13.148   1.794
11107W        W77648  35.007  41.758  13.039
11108W        W77649   6.904  41.502  13.113
11109W        W77650  23.989  28.156   1.998
11110W        W77651   4.440  30.372   4.389
11111W        W77652   6.690  23.492   4.176
11112W        W77653  37.775  31.380  13.108
11113W        W77654  12.324  23.720  13.043
11114W        W77655  15.953   5.909  12.946
11115W        W77656   0.521  26.652  14.923
11116W        W77657  33.776   8.646  12.447
11117W        W77658  44.755  10.624  13.722
11118W        W77659   0.253  12.003  10.866
11119W        W77660   1.809  19.931   4.196
11120W        W77661  31.173  35.213  12.767
11121W        W77662   6.721   8.717   0.390
11122W        W77663  11.225  38.112  13.808
11123W        W77664   9.432  37.083   1.587
11124W        W77665  44.487   6.307   4.918
11125W        W77666  43.767  18.325   2.830
11126W        W77667  21.817  17.523   1.316
11127W        W77668  29.497  20.946   0.780
11128W        W77669  37.824  13.105  12.927
11129W        W77670  25.413  37.895  14.903
11130W        W77671  27.692  24.883   2.156
11131W        W77672   2.192  23.807  10.783
11132W        W77673   6.955  32.426   2.423
11133W        W77674  31.182  35.957   4.668
11134W        W77675   1.013  33.566   0.767
11135W        W77676  15.741  32.699   1.799
11136W        W77677  33.139  20.000   4.081
11137W        W77678  18.652   8.269  10.877
11138W        W77679  16.618  18.713  11.557
11139W        W77680  20.070   6.481   4.449
11140W        W77681   4.572  10.427   0.017
11141W        W77682  30.620   6.188   1.390
11142W        W77683  38.712  44.342   1.996
11143W        W77684  16.788  12.817   1.657
11144W        W77685   6.909  11.405  14.423
11145W        W77686  31.900  38.381  13.375
11146W        W77687  22.856   7.279   4.131
11147W        W77688  13.133   2.543  14.864
11148W        W77689  23.059  30.305   0.509
11149W        W77690  31.857  40.534  12.498
11150W        W77691  21.341  23.574   4.543
11151W        W77692  29.902  36.026  13.837
11152W        W77693  39.329  28.649  11.109
11153W        W77694  39.863   5.923   4.631
11154W        W77695  22.989  14.719  10.487
11155W        W77696  32.739  17.693  11.511
11156W        W77697  29.208  30.744   0.538
11157W        W77698   7.087  10.385  12.699
11158W        W77699   0.260   7.329  14.841
11159W        W77700  24.164  30.017   3.736
11160W        W77701   7.764  32.070  14.149
11161W        W77702  11.730  21.658   1.231
11162W        W77703  14.820  39.002  13.591
11163W        W77704  23.899   4.203   1.710
11164W        W77705  31.201  42.676   4.526
11165W        W77706  21.964  40.868   2.232
11166W        W77707  23.315  19.275  10.738
11167W        W77708  28.075  33.815  10.650
11168W        W77709  13.461  23.687   4.956
11169W        W77710  39.400  29.655  11.684
11170W        W77711  15.710   0.536  12.869
11171W        W77712   9.345  42.925  10.248
11172W        W77713  29.955  13.426   1.727
11173W        W77714  36.892  24.212   4.190
11174W        W77715   5.193   1.772  14.822
11175W        W77716  32.163  41.260  13.798
11176W        W77717   5.047  14.379  11.645
11177W        W77718   9.814  17.056  12.764
11178W        W77719   4.765  10.478  10.408
11179W        W77720  12.233  25.697   4.597
11180W        W77721  32.768  24.560   0.885
11181W        W77722  23.986  37.800  13.989
11182W        W77723  37.968   4.542  10.668
11183W        W77724  44.469  40.813   3.699
11184W        W77725   6.331  12.566  14.012
11185W        W77726  14.272  43.862  13.620
11186W        W77727  37.883  32.121   4.103
11187W        W77728   6.849  36.362   2.008
11188W        W77729   6.160  17.438  14.831
11189W        W77730  31.639  34.541  10.620
11190W        W77731  14.096  40.539  11.159
11191W        W77732  26.786  11.397  13.385
11192W        W77733  44.061   7.055  11.448
11193W        W77734  10.986  36.680   4.133
11194W        W77735  11.298  39.605  14.066
11195W        W77736  44.762  33.180  10.702
11196W        W77737  22.684  16.874   1.871
11197W        W77738  31.919  27.231   0.047
11198W        W77739  30.035  15.780   2.275
11199W        W77740   9.256  35.208   0.130
11200W        W77741  11.677   4.870   0.227
11201W        W77742  17.826  11.600   0.397
11202W        W77743  25.026  25.901   2.613
11203W        W77744  20.570  11.231   3.677
11204W        W77745  24.152  14.820  12.244
11205W        W77746  10.352  24.765  13.987
11206W        W77747  43.806  37.046  12.966
11207W        W77748  35.407   5.805  10.250
11208W        W77749  18.326  14.538  11.633
11209W        W77750  29.739  41.612  11.960
11210W        W77751  36.904  18.902  13.422
11211W        W77752  15.583  33.804  14.838
11212W        W77753  44.654  10.840   1.240
11213W        W77754  43.414  36.885   1.028
11214W        W77755  17.795  27.361   1.324
11215W        W77756  30.432   6.043  10.565
11216W        W77757  30.718   3.921  11.645
11217W        W77758   0.424  38.798   5.273
11218W        W77759   6.940  42.641   2.877
11219W        W77760  17.039  20.506  11.685
11220W        W77761   8.931   4.177   4.943
11221W        W77762  25.928   9.753   4.213
11222W        W77763   0.205  12.870   3.487
11223W        W77764  19.285  41.013  13.845
11224W        W77765   6.696  10.073   5.102
11225W        W77766   9.934   4.859   5.102
11226W        W77767  33.414   4.013  10.760
11227W        W77768   5.899  41.720   0.883
11228W        W77769  37.893  12.441  10.463
11229W        W77770  38.371  22.153   3.915
11230W        W77771  43.575   5.752  14.019
11231W        W77772  13.679  42.362  14.882
11232W        W77773   8.891   9.576  13.676
11233W        W77774  14.893  35.061  13.807
11234W        W77775  42.913   4.615  10.758
11235W        W77776  14.571  24.779  11.610
11236W        W77777   2.418   3.926   3.169
11237W        W77778   4.731  20.310  11.601
11238W        W77779  33.455   7.968   4.038
11239W        W77780  18.581  19.574   3.954
11240W        W77781  24.809  41.977  14.037
11241W        W77782  39.637   2.775  14.816
11242W        W77783  12.168   8.905  13.283
11243W        W77784  26.310  26.025  11.025
11244W        W77785  10.704  35.127   3.580
11245W        W77786  32.598  12.822  12.984
11246W        W77787  28.260  26.582  14.789
11247W        W77788  22.588  13.198   0.477
11248W        W77789  18.139  33.752   3.876
11249W        W77790   3.268  13.502  12.599
11250W        W77791  42.875  22.535   3.636
11251W        W77792   7.684  22.747  10.757
11252W        W77793  44.012  41.625   0.825
11253W        W77794  21.635   3.979  12.993
11254W        W77795  21.631  34.161   1.669
11255W        W77796  44.452   0.508  13.036
11256W        W77797  41.269  43.973   1.037
11257W        W77798  20.085  16.101   4.639
11258W        W77799  19.985  40.520  14.039
11259W        W77800  16.349  12.588  14.399
11260W        W77801  25.128  25.792  12.525
11261W        W77802   5.321  39.527   3.705
11262W        W77803  14.829  15.645  10.663
11263W        W77804  29.113   2.004   2.734
11264W        W77805  19.960  33.662   0.496
11265W        W77806  16.726  24.242   4.604
11266W        W77807  22.239  20.088   3.804
11267W        W77808  42.327  37.934   1.359
11268W        W77809   9.202  26.334   2.598
11269W        W77810   3.205  30.673   2.836
11270W        W77811  15.677   0.090   4.119
11271W        W77812  40.501   7.937  13.534
11272W        W77813  43.781  34.412  14.801
11273W        W77814   6.964  22.608   4.145
11274W        W77815  25.689  29.502  10.607
11275W        W77816  14.253  42.002  12.635
11276W        W77817  43.398  24.818  12.238
11277W        W77818  27.579  43.884  11.733
11278W        W77819  27.094   4.697  11.528
11279W        W77820  10.684  17.377   0.908
11280W        W77821   4.723  33.872   0.746
11281W        W77822  16.561   7.947  12.256
11282W        W77823  32.427  41.546  10.431
11283W        W77824  32.303  23.449  11.990
11284W        W77825  17.037  35.593   4.517
11285W        W77826   8.892  30.932   5.004
11286W        W77827  30.693  30.811  11.027
11287W        W77828  18.682  10.399  13.725
11288W        W77829  29.249  28.470  14.450
11289W        W77830  35.415  37.972   4.024
11290W        W77831  18.182   2.509  11.623
11291W        W77832  35.108  35.388   2.316
11292W        W77833  12.063  42.434  14.696
11293W        W77834  25.483  37.992   2.768
11294W        W77835  20.166  15.357   1.425
11295W        W77836  34.778   1.270   4.946
11296W        W77837  27.143  36.395  14.818
11297W        W77838  17.110   5.950  13.873
11298W        W77839  21.048   0.263   3.742
11299W        W77840   9.257  43.279  13.024
11300W        W77841  13.996  20.029   1.332
11301W        W77842  39.581  27.161  14.373
11302W        W77843  34.562   9.939  13.749
11303W        W77844  27.771  14.470   2.927
11304W        W77845  39.037  24.483   4.496
11305W        W77846  36.860   8.817  13.059
11306W        W77847  16.092  17.150  13.808
11307W        W77848   6.269   5.366   3.852
11308W        W77849  26.559   0.769   1.426
11309W        W77850  14.603  19.589   3.394
11310W        W77851  11.725  35.568  14.471
11311W        W77852  40.526  22.565   3.632
11312W        W77853  12.013   1.203  13.583
11313W        W77854   9.467   8.371  11.052
11314W        W77855  12.686  15.143  11.961
11315W        W77856  34.403  37.799  14.800
11316W        W77857  35.313   9.030   2.416
11317W        W77858   9.867  35.983  14.256
11318W        W77859   8.208  42.943   4.484
11319W        W77860   6.170  29.512   5.152
11320W        W77861  31.107  33.244   4.596
11321W        W77862  24.008   8.888   4.934
11322W        W77863   8.834  19.804  10.808
11323W        W77864   6.569   3.247   4.192
11324W        W77865  33.144  16.246  14.811
11325W        W77866  19.008  21.203   1.369
11326W        W77867  41.249   5.401  13.084
11327W        W77868  27.644  16.163   0.467
11328W        W77869  19.332  37.124   2.274
11329W        W77870  31.878   2.954   4.093
11330W        W77871  36.371   2.210  12.944
11331W        W77872  24.003   1.475  10.924
11332W        W77873  26.953  10.338   3.409
11333W        W77874  24.271   0.555  10.719
11334W        W77875   5.297  35.041   1.042
11335W        W77876  30.636   7.651  14.066
11336W        W77877  33.721  40.959  12.868
11337W        W77878  36.966   6.711  11.232
11338W        W77879  18.119  36.869  14.888
11339W        W77880  41.861   5.090  10.473
11340W        W77881  37.105  18.533  14.367
11341W        W77882  20.136  44.164   0.175
11342W        W77883  35.705  25.933   4.123
11343W        W77884  40.382  39.404  14.477
11344W        W77885   7.854  27.458  13.505
11345W        W77886  28.088  18.726   0.330
11346W        W77887  44.528  42.393  12.853
11347W        W77888  28.036  39.068   5.120
11348W        W77889  12.563  10.101  12.960
11349W        W77890  22.603  39.894   1.700
11350W        W77891  22.063  31.598   2.660
11351W        W77892  21.013  11.577   2.314
11352W        W77893   8.913  16.165  14.857
11353W        W77894  32.868   5.851  13.910
11354W        W77895  34.394  37.285  10.605
11355W        W77896  11.784  11.210   3.382
11356W        W77897  11.836  26.528  12.924
11357W        W77898  23.683  12.094   1.937
11358W        W77899   9.830   3.352  11.834
11359W        W77900  11.588   7.643  14.297
11360W        W77901  27.754   4.856   0.229
11361W        W77902  17.339  32.379   0.086
11362W        W77903  13.867   8.366  12.002
11363W        W77904  18.769  21.990   0.929
11364W        W77905  11.221  12.109   0.533
11365W        W77906  33.068  24.465  13.658
11366W        W77907  12.194  16.264  11.293
11367W        W77908   0.488   1.945  10.510
11368W        W77909  21.127  41.569  12.546
11369W        W77910  18.840   8.729   2.608
11370W        W77911   5.949  17.214   0.259
11371W        W77912  44.377  35.990   1.927
11372W        W77913  42.155   8.941  13.578
11373W        W77914   2.071  15.203  14.434
11374W        W77915  11.758   3.134   0.216
11375W        W77916   8.891  42.419  10.921
11376W        W77917  17.946  31.321  10.037
11377W        W77918   8.467  42.994  13.893
11378W        W77919  40.799  33.597   1.837
11379W        W77920  12.788  26.913   0.456
11380W        W77921  40.384  41.864  10.738
11381W        W77922  31.176   7.058  10.063
11382W        W77923  27.451   2.734   4.084
11383W        W77924  18.585  21.492  12.583
11384W        W77925  24.159  26.186   1.063
11385W        W77926  27.653   0.916  12.137
11386W        W77927  19.912  31.969  14.865
11387W        W77928  35.480  44.917   1.990
11388W        W77929   3.839  13.883  11.268
11389W        W77930  26.479   6.936  13.399
11390W        W77931  26.876  25.499   2.284
11391W        W77932  31.421  37.769   3.811
11392W        W77933  40.783   2.497   0.323
11393W        W77934  11.758   6.960  12.563
11394W        W77935  42.019  19.215   1.146
11395W        W77936  21.506   3.305   2.773
11396W        W77937  43.411   5.516   0.866
11397W        W77938  37.000   2.719   9.840
11398W        W77939  16.654  28.940  14.873
11399W        W77940  32.734   0.405  14.001
11400W        W77941   3.365   9.828   3.405
11401W        W77942  10.200  28.746  13.116
11402W        W77943  34.042  11.792   0.668
11403W        W77944  39.431  32.021  10.651
11404W        W77945  31.694  37.793  14.726
11405W        W77946  34.117  38.099  11.078
11406W        W77947  23.746  16.103   3.185
11407W        W77948  11.090  30.128   2.854
11408W        W77949  32.825  17.119  13.831
11409W        W77950  11.067  15.562   1.153
11410W        W77951  32.007  21.711   2.799
11411W        W77952  11.625  32.338   3.539
11412W        W77953  39.164  18.458   5.097
11413W        W77954   4.958  32.662   0.181
11414W        W77955   0.299   3.518  11.078
11415W        W77956  29.124  31.825   0.721
11416W        W77957  43.516  38.502   3.312
11417W        W77958   3.946   4.024  14.889
11418W        W77959   0.469  38.429   0.888
11419W        W77960   8.447   2.766  13.050
11420W        W77961  35.143  31.842  13.710
11421W        W77962   8.613  34.933  12.125
11422W        W77963  44.461  30.437   1.696
11423W        W77964   0.035  24.630  13.930
11424W        W77965  10.243   3.681   3.232
11425W        W77966  31.135  31.862  12.483
11426W        W77967  42.568  29.519   2.790
11427W        W77968  19.237  40.330   2.207
11428W        W77969  20.640   9.984   2.364
11429W        W77970   1.305   2.142   3.630
11430W        W77971  39.728  31.461  15.000
11431W        W77972   3.473  29.045  13.600
11432W        W77973  26.134  33.399   1.198
11433W        W77974   9.981   0.500  11.969
11434W        W77975  26.180  12.844  10.568
11435W        W77976   3.461  21.027  10.740
11436W        W77977  32.280  30.896   0.933
11437W        W77978   0.865  37.272   5.025
11438W        W77979  22.109  41.532   0.609
11439W        W77980  14.365   8.396  11.973
11440W        W77981  37.068  23.513  10.500
11441W        W77982  15.544  20.314   2.901
11442W        W77983   2.762  40.845  10.627
11443W        W77984   8.185   2.900   2.640
11444W        W77985  43.772  38.926   3.426
11445W        W77986  11.402  38.865  10.200
11446W        W77987   5.464  28.108   2.374
11447W        W77988  38.158   1.410  11.902
11448W        W77989  18.860  11.665   1.736
11449W        W77990  29.249  21.700   0.573
11450W        W77991  26.582  12.444  14.670
11451W        W77992  43.077  38.991  14.886
11452W        W77993  21.038  24.948   1.424
11453W        W77994  41.879  12.271  12.442
11454W        W77995  12.766   5.292  13.586
11455W        W77996   6.034  32.154   3.318
11456W        W77997  16.772  31.914   4.965
11457W        W77998  24.430  17.530  10.800
11458W        W77999  42.781   2.415  12.371
11459W        W78000  18.292  42.727   3.468
11460W        W78001  26.079  43.858   2.618
11461W        W78002  43.004  27.211   2.345
11462W        W78003  35.539  37.195  11.907
11463W        W78004   4.114  22.629  12.588
11464W        W78005  34.593  37.387  12.434
11465W        W78006  28.974  39.855   0.454
11466W        W78007  43.874  39.136  11.000
11467W        W78008  27.107  17.287   3.875
11468W        W78009  22.988  27.330   1.147
11469W        W78010   0.716  21.211  14.678
11470W        W78011   6.836  37.488  12.911
11471W        W78012  22.090   4.461  12.762
11472W        W78013  39.412  22.396  11.247
11473W        W78014   1.460  31.028   2.906
11474W        W78015  43.878   6.339  11.986
11475W        W78016   3.722  31.603   1.751
11476W        W78017  32.895   3.400   0.484
11477W        W78018   4.115  21.052  13.789
11478W        W78019  25.231  24.081  14.291
11479W        W78020  35.921  27.231  13.775
11480W        W78021  10.313  33.087   3.796
11481W        W78022  28.930  28.510  12.373
11482W        W78023  35.604  10.638  14.068
11483W        W78024  20.675  22.076   2.333
11484W        W78025  22.565  41.622  11.556
11485W        W78026  14.558  32.352  14.723
11486W        W78027   7.271  19.289   2.786
11487W        W78028  39.813  37.282   1.468
11488W        W78029  22.690  41.420  12.051
11489W        W78030  39.881  22.622   0.480
11490W        W78031   8.760  15.559   4.962
11491W        W78032   8.185   4.812  11.698
11492W        W78033  29.835  14.147   0.496
11493W        W78034  31.155   2.497   1.316
11494W        W78035  32.801  23.140  13.452
11495W        W78036  44.480   4.509  11.284
11496W        W78037  32.850  22.001  11.840
11497W        W78038  29.483  12.049   2.292
11498W        W78039   0.541  24.581  13.859
11499W        W78040  43.641  39.559  14.572
11500W        W78041  14.873  16.365   3.686
11501W        W78042   9.465  18.038  10.222
11502W        W78043  39.352  17.601  13.338
11503W        W78044  17.938  17.489  12.825
11504W        W78045  41.836  22.544   1.189
11505W        W78046  20.453  12.515  13.400
11506W        W78047  34.484  36.588  12.881
11507W        W78048  43.464  15.149   4.144
11508W        W78049   6.127  34.988   3.637
11509W        W78050  40.330  12.515   0.796
11510W        W78051   4.443  44.643  13.841
11511W        W78052  26.647  33.505  13.983
11512W        W78053   1.904  13.480  11.173
11513W        W78054  40.469  24.393  12.364
11514W        W78055  22.119  37.389   4.282
11515W        W78056  13.745  40.485   3.523
11516W        W78057   7.576  27.396   0.990
11517W        W78058  25.689  31.404  13.960
11518W        W78059  13.224  36.895  12.058
11519W        W78060  35.060  39.403  13.906
11520W        W78061   1.600  41.073   4.130
11521W        W78062  34.953  13.568   2.685
11522W        W78063  40.933   4.944  11.896
11523W        W78064   9.189   9.698  11.076
11524W        W78065   9.809   3.860  13.880
11525W        W78066  27.998  16.323  14.080
11526W        W78067   0.974   5.761   0.928
11527W        W78068  21.316  23.012   0.686
11528W        W78069  22.031  44.260   3.760
11529W        W78070  24.221   9.390  11.872
11530W        W78071  40.727   8.592   4.547
11531W        W78072  20.282  41.839   3.566
11532W        W78073  43.528  40.690   4.923
11533W        W78074  18.128  15.069   0.248
11534W        W78075  37.386  17.392  14.018
11535W        W78076  13.367  43.228  12.511
11536W        W78077  25.597  33.554   3.663
11537W        W78078  14.348  39.069  14.625
11538W        W78079  26.379   2.343   3.731
11539W        W78080  31.280  32.475  13.724
11540W        W78081  16.529  37.040  14.454
11541W        W78082  39.946  10.309   3.806
11542W        W78083  44.788   0.933   4.367
11543W        W78084  23.574  22.795  13.988
11544W        W78085  14.244  43.935  11.669
11545W        W78086  34.206  22.619  10.920
11546W        W78087   9.858   0.842   4.149
11547W        W78088   3.518  32.480   0.790
11548W        W78089  28.964   3.388   4.503
11549W        W78090  16.207  28.234  13.037
11550W        W78091  30.543  37.311  12.402
11551W        W78092  41.982  29.419  13.523
11552W        W78093  16.813  28.095  13.942
11553W        W78094  39.827  33.012  12.925
11554W        W78095  31.328  12.860   0.208
11555W        W78096  38.901   2.080   3.030
11556W        W78097   0.482  38.034  11.873
11557W        W78098  20.853  10.280  10.499
11558W        W78099  31.012  21.973  12.501
11559W        W78100  10.060  35.470   0.733
11560W        W78101   4.241  27.010  12.211
11561W        W78102  41.339  34.369   0.772
11562W        W78103   2.096  12.923  12.972
11563W        W78104  30.665   1.366  11.995
11564W        W78105  38.376  32.876  13.855
11565W        W78106  27.920  42.117   1.631
11566W        W78107  25.104  11.585  11.270
11567W        W78108  41.328  38.370  13.776
11568W        W78109  34.662   7.271   1.357
11569W        W78110  42.924   4.758   5.424
11570W        W78111  20.010  37.469   2.469
11571W        W78112  38.716  42.193   3.618
11572W        W78113   9.430  43.036  12.557
11573W        W78114  22.053  29.885   3.226
11574W        W78115  23.586  14.666   0.897
11575W        W78116  27.688  38.833  13.442
11576W        W78117  40.437   7.788  12.566
11577W        W78118  34.950  36.932  13.776
11578W        W78119  14.294  36.525   2.633
11579W        W78120   0.373  40.020  10.870
11580W        W78121  24.064  25.632  13.954
11581W        W78122   5.419  20.262   4.321
11582W        W78123   7.950  42.070   0.920
11583W        W78124   3.209  43.242  13.165
11584W        W78125  13.823  16.662   0.817
11585W        W78126  28.117   2.456   2.725
11586W        W78127  32.996  18.671  12.912
11587W        W78128  37.758  31.909   5.111
11588W        W78129   2.883  30.613  11.569
11589W        W78130  36.065  18.638   3.320
11590W        W78131  17.461   7.594  13.887
11591W        W78132   9.701  31.649   2.265
11592W        W78133   9.871   2.388   2.408
11593W        W78134   9.052  29.913  14.219
11594W        W78135  40.972   2.750   2.214
11595W        W78136  13.837  13.191   2.379
11596W        W78137  36.606   8.231  13.333
11597W        W78138  25.106   7.495   1.560
11598W        W78139  32.870   7.766  14.596
11599W        W78140   9.122  18.051  11.101
11600W        W78141   6.332  32.627   3.196
11601W        W78142  10.055  17.142  12.298
11602W        W78143   6.781  11.829  13.351
11603W        W78144  19.207   8.719   3.761
11604W        W78145  31.157   9.682   1.240
11605W        W78146   8.915  22.344   1.859
11606W        W78147  32.599   2.776   1.101
11607W        W78148  36.413  15.563  14.328
11608W        W78149   1.285  17.097  11.230
11609W        W78150  41.979  33.391   2.408
11610W        W78151  28.160  17.609  13.319
11611W        W78152  37.802  28.663   4.158
11612W        W78153  41.803   7.808  12.436
11613W        W78154   9.836  22.876  12.967
11614W        W78155  13.009   7.465   2.721
11615W        W78156  42.509  43.800  10.937
11616W        W78157  27.649  36.996  11.114
11617W        W78158  21.975  16.300  10.411
11618W        W78159  10.439  31.578  11.221
11619W        W78160  13.557  18.019  11.596
11620W        W78161  35.286  33.096  14.871
11621W        W78162  24.653  16.352  11.098
11622W        W78163  36.841  30.637   3.634
11623W        W78164  19.265  36.788   3.623
11624W        W78165  34.000  31.757   2.362
11625W        W78166   8.481   7.032  11.142
11626W        W78167  18.806  44.781   2.214
11627W        W78168  17.836  17.194  11.575
11628W        W78169  28.656  42.415  12.602
11629W        W78170   5.943  42.891  13.047
11630W        W78171   2.425  12.776   0.122
11631W        W78172  39.176   8.473  12.510
11632W        W78173  29.597  22.619   1.362
11633W        W78174  42.150   5.992  14.517
11634W        W78175   6.427  34.482  11.167
11635W        W78176  37.281   0.191   2.745
11636W        W78177  21.550  15.737   1.809
11637W        W78178  30.892   4.803   1.298
11638W        W78179   5.790  11.785  12.614
11639W        W78180  34.453  26.879   0.117
11640W        W78181  15.617   4.665   3.195
11641W        W78182  10.635  23.051   4.645
11642W        W78183  16.740  32.335   3.751
11643W        W78184  40.907  10.047   2.698
11644W        W78185  21.454   9.476   3.162
11645W        W78186  29.259  30.985   1.911
11646W        W78187  11.672  34.005   1.401
11647W        W78188  43.857  42.115   0.816
11648W        W78189  18.752   4.234  13.339
11649W        W78190  16.926  38.870   4.506
11650W        W78191  29.516   4.750  12.980
11651W        W78192  44.798  27.695   0.460
11652W        W78193  26.985  25.588   3.650
11653W        W78194  15.757  40.792  11.725
11654W        W78195  11.559  41.284   4.967
11655W        W78196  32.588  20.878   0.729
11656W        W78197  14.980   7.258   4.127
11657W        W78198  20.558   1.489   1.257
11658W        W78199  14.606  41.285  14.936
11659W        W78200  20.783  29.144  14.322
11660W        W78201  35.871  14.293  12.171
11661W        W78202  31.587  10.728  13.805
11662W        W78203  28.957  39.315  13.068
11663W        W78204  24.669  25.952  11.238
11664W        W78205  17.046  23.080  10.540
11665W        W78206  35.135  14.194  10.638
11666W        W78207  16.389  33.387   9.971
11667W        W78208  18.423   9.069  13.736
11668W        W78209  41.455   0.678   1.966
11669W        W78210  29.089  24.016   2.262
11670W        W78211   6.680  23.541   1.781
11671W        W78212  42.066  37.914  13.444
11672W        W78213   4.624  35.094  12.684
11673W        W78214  27.754  28.896   2.425
11674W        W78215  41.009  12.426   1.894
11675W        W78216  43.873  36.910  13.487
11676W        W78217  42.418  44.531   2.791
11677W        W78218  43.042  43.406  11.044
11678W        W78219  18.503  43.144  14.904
11679W        W78220  16.743  12.095  12.173
11680W        W78221  37.447  27.924  12.812
11681W        W78222  33.712  20.873  10.737
11682W        W78223   5.377   9.413   4.508
11683W        W78224   3.173  27.638   2.229
11684W        W78225  28.259  22.659  11.473
11685W        W78226  14.625   5.117  13.972
11686W        W78227  20.167  15.417  13.050
11687W        W78228   1.957  26.205   1.664
11688W        W78229  28.626  29.860   2.379
11689W        W78230  31.128  15.117  11.588
11690W        W78231  16.474  19.500  11.151
11691W        W78232   1.882  27.709   0.001
11692W        W78233   3.790  41.517   1.476
11693W        W78234  16.803  18.084   2.666
11694W        W78235  30.467  18.313   4.617
11695W        W78236  14.216   4.406   1.518
11696W        W78237  23.253  23.460  13.952
11697W        W78238  11.584  40.703  10.608
11698W        W78239  28.551  24.891  12.323
11699W        W78240  17.859   2.389  14.593
11700W        W78241   4.685  30.473   3.628
11701W        W78242   2.732  14.059  14.389
11702W        W78243  29.992  44.996  10.507
11703W        W78244  16.268  38.716  11.212
11704W        W78245  26.418  38.171  11.633
11705W        W78246  10.408  14.704   4.016
11706W        W78247   2.711  41.096   0.826
11707W        W78248  18.885  20.084   3.950
11708W        W78249   4.971  16.542   2.280
11709W        W78250  26.712  37.961   4.031
11710W        W78251  17.285  43.396  13.884
11711W        W78252  27.427  36.740   3.765
11712W        W78253   5.304  15.747  11.103
11713W        W78254  29.488  29.648  13.377
11714W        W78255  15.271  14.384  13.014
11715W        W78256  14.826  44.771   1.690
11716W        W78257   7.516  24.239   4.034
11717W        W78258  40.401  20.171   1.706
11718W        W78259  12.861   5.745   4.123
11719W        W78260  42.655  36.001  11.525
11720W        W78261  31.420  19.738  12.111
11721W        W78262  22.029  12.418   2.370
11722W        W78263  25.673  26.566   1.419
11723W        W78264   3.707   2.753  13.572
11724W        W78265  33.227  44.907  13.994
11725W        W78266  34.591  18.737   2.410
11726W        W78267  31.546  25.666   3.159
11727W        W78268  28.982  11.054   3.320
11728W        W78269  39.237  40.405   4.716
11729W        W78270  40.525   1.294   1.640
11730W        W78271  13.343   4.734  13.961
11731W        W78272  37.267  16.803   0.323
11732W        W78273  19.504   4.849  12.977
11733W        W78274  19.511   8.403   0.456
11734W        W78275  37.945   8.784  12.122
11735W        W78276  40.612  32.101  11.156
11736W        W78277  13.500  38.471  10.829
11737W        W78278  29.860   1.838  11.111
11738W        W78279  21.042  14.387   1.854
11739W        W78280  20.005  13.204  12.624
11740W        W78281  40.924  31.803  11.482
11741W        W78282  30.625  32.663  13.344
11742W        W78283  24.300   9.157   4.428
11743W        W78284  16.177  15.807  10.698
11744W        W78285  36.330  29.586  12.080
11745W        W78286   0.236  11.227   4.547
11746W        W78287  34.894  38.481  13.442
11747W        W78288   7.728   1.361   9.761
11748W        W78289  20.386  42.820   2.325
11749W        W78290  13.486  22.733   1.918
11750W        W78291   5.472  43.388  13.798
11751W        W78292   6.674  13.339  10.724
11752W        W78293  44.698   3.036  14.737
11753W        W78294  21.250  43.760  14.422
11754W        W78295  32.326  12.100  10.204
11755W        W78296  24.650  32.753   4.017
11756W        W78297  17.107  37.802   2.203
11757W        W78298  37.488  37.221  11.047
11758W        W78299   1.875  22.408  13.072
11759W        W78300  33.470  12.527   5.054
11760W        W78301   3.720  36.592   5.077
11761W        W78302  28.403   5.503  14.441
11762W        W78303  25.022  38.559   0.221
11763W        W78304  34.669  35.615   2.187
11764W        W78305   6.124  33.388   1.946
11765W        W78306  29.577  11.509  10.317
11766W        W78307   6.243  34.664  12.866
11767W        W78308  34.820  14.364   2.227
11768W        W78309   1.933  27.000   4.554
11769W        W78310  43.298   6.849  10.838
11770W        W78311  16.970  42.530   1.496
11771W        W78312   9.152  27.656  12.367
11772W        W78313  18.693  19.688  14.022
11773W        W78314  10.967  32.813  13.467
11774W        W78315  30.819  11.145  11.498
11775W        W78316  22.197  11.660   4.702
11776W        W78317  30.421  17.158   3.692
11777W        W78318  11.863  13.826   1.660
11778W        W78319  37.473  13.402   5.106
11779W        W78320  10.254  24.236  13.007
11780W        W78321  27.136  14.681   5.502
11781W        W78322  23.109  11.379   4.241
11782W        W78323  29.997  17.562   4.486
11783W        W78324   9.709  36.273  13.877
11784W        W78325  28.014  25.873  12.915
11785W        W78326   8.280  15.224  13.049
11786W        W78327  11.750  24.969  13.099
11787W        W78328  17.491  22.183  13.050
11788W        W78329  31.532  35.469  13.031
11789W        W78330  35.261  16.310  11.609
11790W        W78331  32.385   3.916  11.514
11791W        W78332  39.324   4.885  11.008
11792W        W78333  36.023  19.257   1.837
11793W        W78334  26.089  21.217   3.596
11794W        W78335   8.663  38.986   2.737
11795W        W78336  26.972   3.706  12.557
11796W        W78337  12.354   8.078  12.961
11797W        W78338  30.053  31.411   3.731
11798W        W78339  24.336  37.046  11.677
11799W        W78340  26.468  19.208  14.268
11800W        W78341  29.674  27.129   1.485
11801W        W78342  24.662  28.149   1.303
11802W        W78343  43.523  41.727  13.614
11803W        W78344  11.815  21.902   4.260
11804W        W78345  38.844  24.123   4.805
11805W        W78346  34.047  40.816   2.447
11806W        W78347  12.764   5.328  14.490
11807W        W78348  30.638  40.998  11.898
11808W        W78349  25.496  21.310  14.704
11809W        W78350  36.145  12.464  13.964
11810W        W78351  30.059  42.648   3.753
11811W        W78352  37.962  31.373   0.491
11812W        W78353  28.972   5.591  14.767
11813W        W78354   2.320  26.506   2.380
11814W        W78355  38.849  24.724  12.121
11815W        W78356  28.506  13.253   0.483
11816W        W78357  36.106  13.416   2.983
11817W        W78358  12.911  20.476   3.238
11818W        W78359   4.782  15.794  14.271
11819W        W78360  20.890  44.410   1.799
11820W        W78361  44.473  36.083  13.457
11821W        W78362  40.942  25.615  10.612
11822W        W78363  35.631   7.223  13.105
11823W        W78364  13.667   9.762   0.725
11824W        W78365  31.344  11.573   0.659
11825W        W78366  23.259  21.786   4.336
11826W        W78367  23.636  11.307  14.621
11827W        W78368  14.864   9.550   0.548
11828W        W78369  44.708   0.741   1.882
11829W        W78370  34.853   8.566  11.201
11830W        W78371  19.325  22.776   4.503
11831W        W78372  23.642   8.307   5.410
11832W        W78373  40.979  41.551   0.772
11833W        W78374  11.689  28.616   0.801
11834W        W78375  37.995   3.874   4.713
11835W        W78376  28.189   2.684   3.214
11836W        W78377  26.024   6.147   2.247
11837W        W78378   8.798  39.863   1.794
11838W        W78379  21.590   5.632   2.261
11839W        W78380  43.037  20.115  10.724
11840W        W78381  15.583  43.324  13.491
11841W        W78382  10.782  10.012  12.927
11842W        W78383  36.395  38.371  13.242
11843W        W78384  14.625  20.010   0.193
11844W        W78385  36.619  26.064  11.541
11845W        W78386  32.710  35.686  13.510
11846W        W78387  30.080  25.234   3.608
11847W        W78388  24.813  20.518   3.673
11848W        W78389  18.013   2.950   3.109
11849W        W78390  24.099  34.863   3.747
11850W        W78391  23.012  16.273  12.740
11851W        W78392  28.404  35.284  13.042
11852W        W78393   8.396  38.501   2.844
11853W        W78394  11.660   1.858  10.658
11854W        W78395  42.529  25.719   3.903
11855W        W78396  24.531  20.877   1.699
11856W        W78397  13.096  18.022   1.242
11857W        W78398  16.813  16.436  14.014
11858W        W78399  24.284   7.674   2.717
11859W        W78400   7.354  11.203  12.009
11860W        W78401  18.699  29.068   1.020
11861W        W78402  11.117  20.450  12.059
11862W        W78403  10.718  39.322  13.468
11863W        W78404  24.960  39.801  14.870
11864W        W78405  21.001  33.890   3.669
11865W        W78406  10.096  21.163  13.962
11866W        W78407  16.662  28.933   0.866
11867W        W78408  17.887  40.798   0.826
11868W        W78409   3.421  40.571   0.672
11869W        W78410  11.373  16.065   1.518
11870W        W78411  40.027  42.886  11.920
11871W        W78412  19.243  20.619  11.245
11872W        W78413   2.839  28.563  11.510
11873W        W78414  17.808  24.324  11.984
11874W        W78415  16.377  30.188  13.623
11875W        W78416  15.209  15.806   0.770
11876W        W78417   3.189  15.236  12.909
11877W        W78418  23.719  43.868  10.686
11878W        W78419  42.711  40.718   2.314
11879W        W78420  11.201  15.601   1.663
11880W        W78421  29.152  34.626  11.102
11881W        W78422  10.862  17.836  14.118
11882W        W78423  25.029  31.930   1.790
11883W        W78424  34.952  37.012  14.308
11884W        W78425  15.528   5.493   1.875
11885W        W78426  36.004  24.317  10.725
11886W        W78427  19.704  22.295   4.245
11887W        W78428  11.334   1.261  11.436
11888W        W78429  32.309  27.651   1.479
11889W        W78430  24.631  25.649   3.712
11890W        W78431   9.944  19.269   1.345
11891W        W78432  19.537  32.533   1.130
11892W        W78433  43.946  14.105  14.331
11893W        W78434  27.941   5.691   4.549
11894W        W78435  37.542   9.680   0.948
11895W        W78436   9.107  10.077   1.774
11896W        W78437   8.324  31.082  11.606
11897W        W78438  40.124  22.834  11.793
11898W        W78439   0.396  30.814   9.865
11899W        W78440  42.871  13.113   0.212
11900W        W78441   4.952  10.250   3.120
11901W        W78442  16.240  14.833  10.826
11902W        W78443  36.882  21.031   0.324
11903W        W78444  43.974  36.851   2.246
11904W        W78445   0.786   0.135  13.999
11905W        W78446  11.178  43.842  13.493
11906W        W78447   1.903  37.900   3.278
11907W        W78448  43.306  37.542   0.179
11908W        W78449  44.450   0.216  10.576
11909W        W78450  43.466  30.852  12.818
11910W        W78451  34.815  32.861  14.825
11911W        W78452  27.456  19.759   0.838
11912W        W78453  29.099  17.419   0.822
11913W        W78454  44.244  41.056   1.394
11914W        W78455  28.628  31.253   4.654
11915W        W78456   0.285  25.645  13.422
11916W        W78457   9.872  18.304  12.442
11917W        W78458  20.511  42.311   4.886
11918W        W78459  13.406  42.308  12.494
11919W        W78460  32.547  44.578  12.654
11920W        W78461   5.896  32.163  14.335
11921W        W78462   9.025  42.847  12.872
11922W        W78463  37.293  35.831  13.690
11923W        W78464  37.669  15.520  11.855
11924W        W78465  11.554   7.453  11.172
11925W        W78466  15.038  13.220  11.776
11926W        W78467  19.057  40.679  13.448
11927W        W78468   1.269   7.376  12.128
11928W        W78469  24.943  33.942   4.849
11929W        W78470  43.114  20.676   4.952
11930W        W78471  20.228  20.143  13.973
11931W        W78472   7.732  29.623   1.817
11932W        W78473  20.651   8.792  11.424
11933W        W78474  26.525  35.572   1.994
11934W        W78475   2.762  40.122  11.081
11935W        W78476  24.141   6.622   0.419
11936W        W78477  36.660  31.595  12.574
11937W        W78478  42.436  16.286   0.316
11938W        W78479   5.764  11.465   2.225
11939W        W78480  28.002  36.927   4.382
11940W        W78481  44.939   0.516  12.894
11941W        W78482   2.868   7.456   3.845
11942W        W78483   2.130  25.061  11.178
11943W        W78484  31.525  40.293  12.886
11944W        W78485  41.502   6.942  12.871
11945W        W78486  26.519   5.887   0.941
11946W        W78487   6.693   9.437  12.094
11947W        W78488   0.373  14.136   1.464
11948W        W78489  16.789  15.284  12.949
11949W        W78490   1.739   3.217   0.974
11950W        W78491   2.715  20.649  11.289
11951W        W78492  15.070   7.230  14.279
11952W        W78493  15.216   2.657   1.665
11953W        W78494  34.925   1.335  12.476
11954W        W78495  44.471  21.232  14.376
11955W        W78496  21.313  27.641  13.769
11956W        W78497  42.175   4.812   4.090
11957W        W78498  41.818  40.859   1.145
11958W        W78499  44.203  30.457   3.628
11959W        W78500  33.607  44.340   0.456
11960W        W78501  23.242  18.697  11.568
11961W        W78502  11.611   2.696   0.461
11962W        W78503  37.503  18.316  11.543
11963W        W78504  22.719  26.178  12.125
11964W        W78505  20.815  13.257  13.075
11965W        W78506  33.016  30.366   4.093
11966W        W78507   4.657  11.822  11.435
11967W        W78508  33.929  12.330  11.070
11968W        W78509  11.268  39.357   3.196
11969W        W78510   9.698  28.987  13.762
11970W        W78511  31.372  13.050   2.807
11971W        W78512   6.412  28.570  12.912
11972W        W78513  14.165  11.236  13.040
11973W        W78514  37.552  43.541   3.633
11974W        W78515  44.978   3.960  13.788
11975W        W78516  42.919  25.186  13.496
11976W        W78517  18.137  29.427  11.230
11977W        W78518  32.475  12.529   3.816
11978W        W78519  29.149  28.695  11.971
11979W        W78520  35.673  22.700   1.102
11980W        W78521  27.119  21.026   3.731
11981W        W78522  16.291  22.563  11.456
11982W        W78523  25.244   7.363  14.818
11983W        W78524  37.997  20.667   3.808
11984W        W78525  38.026  26.946  14.394
11985W        W78526   9.215  11.837  11.318
11986W        W78527  10.167  27.512   0.720
11987W        W78528  27.165  39.714  12.592
11988W        W78529  37.172  38.722   4.221
11989W        W78530  11.085  23.061  11.437
11990W        W78531   5.302  22.486  12.459
11991W        W78532  39.280  30.825   2.691
11992W        W78533  37.648   3.676   5.069
11993W        W78534  40.460  27.445   0.239
11994W        W78535  20.693  16.826  14.661
11995W        W78536  22.751  23.423   3.754
11996W        W78537  22.737   8.405   2.508
11997W        W78538   0.242  15.389   1.718
11998W        W78539  24.106  24.408  10.630
11999W        W78540  28.042   4.853   2.481
12000W        W78541   4.235  24.186   1.965
12001W        W78542  32.349  42.521   2.437
12002W        W78543   1.051  21.551   0.049
12003W        W78544  44.499  40.543  13.867
12004W        W78545  12.284   2.667   4.923
12005W        W78546  25.010  40.464   3.598
12006W        W78547  37.642  31.562  10.635
12007W        W78548   8.159   0.367   4.591
12008W        W78549  23.271  13.192  13.135
12009W        W78550   7.289  11.823   4.153
12010W        W78551  42.258  21.141   3.189
12011W        W78552  35.606   9.314  14.961
12012W        W78553  14.440  16.703  11.186
12013W        W78554   2.723  42.401   4.400
12014W        W78555  39.949   2.885   4.820
12015W        W78556   0.089  33.519  14.642
12016W        W78557  20.382  43.305   0.737
12017W        W78558  35.934   1.237  14.299
12018W        W78559  10.288  29.523  13.147
12019W        W78560   5.813  30.043   2.904
12020W        W78561   6.781  41.844  14.501
12021W        W78562  18.772  41.502  13.798
12022W        W78563  38.125  19.253  13.860
12023W        W78564  42.025  23.794   3.732
12024W        W78565  23.080   8.865  14.386
12025W        W78566  42.035  17.819  11.594
12026W        W78567  33.397   7.340   2.718
12027W        W78568  44.392  38.158  13.356
12028W        W78569   0.217  33.049   0.075
12029W        W78570  40.250   9.493   0.817
12030W        W78571   1.538  23.112   1.739
12031W        W78572  31.070  36.646  13.502
12032W        W78573  38.401  31.978  11.474
12033W        W78574  38.471  19.507   1.901
12034W        W78575   3.193  35.646   3.720
12035W        W78576  18.081  22.435   3.748
12036W        W78577  16.799  21.142   4.232
12037W        W78578  29.061  43.369   1.264
12038W        W78579  38.032   1.813  10.666
12039W        W78580  26.607  17.573  11.852
12040W        W78581  23.681  25.206  14.982
12041W        W78582  25.985  38.927   0.933
12042W        W78583   7.639   0.416  14.294
12043W        W78584  39.439   0.374  14.991
12044W        W78585  13.761  27.596  14.570
12045W        W78586   2.765  24.511  13.253
12046W        W78587  29.462  31.845  12.270
12047W        W78588   4.166  29.553   3.734
12048W        W78589  25.304  41.089  12.494
12049W        W78590  29.833  29.399   2.204
12050W        W78591   4.648  36.434   3.149
12051W        W78592  41.422  38.950   4.408
12052W        W78593  37.830  42.206  14.825
12053W        W78594   1.804  42.320  12.838
12054W        W78595  38.839  24.979  11.458
12055W        W78596  14.964  43.267   1.951
12056W        W78597  24.527  22.786  11.494
12057W        W78598  24.653  44.802   3.276
12058W        W78599  25.050  36.983   0.328
12059W        W78600  24.813   5.893   4.134
12060W        W78601  25.477  22.655  13.024
12061W        W78602   4.299   8.471  13.758
12062W        W78603  27.741  30.036  14.268
12063W        W78604  28.407  42.738   0.343
12064W        W78605  33.829  40.124  13.851
12065W        W78606   3.202   3.746  12.621
12066W        W78607  44.804  15.564  13.445
12067W        W78608  36.920  19.727  14.873
12068W        W78609  13.811   7.325  13.550
12069W        W78610  10.463  18.347   3.993
12070W        W78611  34.131  27.064   3.945
12071W        W78612  29.741  17.856  14.483
12072W        W78613   2.439  19.816  14.549
12073W        W78614  42.535   1.348  14.192
12074W        W78615  11.572  44.702   0.431
12075W        W78616  33.355  18.374   4.454
12076W        W78617  26.717  31.002   0.897
12077W        W78618   1.618  43.299   4.305
12078W        W78619  41.414   3.933   2.435
12079W        W78620   2.980   9.822  12.036
12080W        W78621  33.459  15.660   1.838
12081W        W78622  27.516  41.380  10.989
12082W        W78623   6.478  43.965  11.999
12083W        W78624  20.154   1.459   2.772
12084W        W78625  26.652  37.919  13.834
12085W        W78626  31.596  26.294  14.177
12086W        W78627  16.468   9.679   3.673
12087W        W78628  39.516  20.796   3.716
12088W        W78629   8.298  44.940  13.971
12089W        W78630  40.579  41.356  10.069
12090W        W78631  28.650  35.735  12.511
12091W        W78632   5.920  23.304   3.537
12092W        W78633  32.944  40.206  12.071
12093W        W78634  44.675  12.700   9.924
12094W        W78635  44.770   6.368   3.082
12095W        W78636  18.019  42.523   1.412
12096W        W78637  20.166  36.736   4.517
12097W        W78638  35.608  14.844  13.549
12098W        W78639  18.112   9.171   0.817
12099W        W78640  18.999   6.635   2.264
12100W        W78641  38.289  33.546  14.916
12101W        W78642  42.418  29.968  12.380
12102W        W78643  23.714  31.895   3.552
12103W        W78644  28.173  38.864  13.280
12104W        W78645  34.491  15.603   4.379
12105W        W78646  30.202  38.741  12.038
12106W        W78647  14.041  38.007  12.949
12107W        W78648  24.298   8.702  14.440
12108W        W78649   6.640  43.040   2.723
12109W        W78650  22.699  35.303   1.394
12110W        W78651  11.354  32.058   4.709
12111W        W78652  44.419   9.914   1.218
12112W        W78653  14.491   4.184  13.894
12113W        W78654   4.194  20.078   3.297
12114W        W78655  37.735  14.266   4.550
12115W        W78656  18.029  20.584   0.852
12116W        W78657  16.138  26.287   0.567
12117W        W78658  35.904  43.803  12.067
12118W        W78659   8.755   7.726   3.187
12119W        W78660  41.112  37.059  13.139
12120W        W78661  31.471  44.873   4.002
12121W        W78662  41.667  26.356  10.370
12122W        W78663   2.109  21.206   0.726
12123W        W78664  21.220  28.031   4.574
12124W        W78665  15.702   7.000  11.940
12125W        W78666  39.400   5.461  10.639
12126W        W78667  33.923   9.935  13.521
12127W        W78668  36.777  32.387  12.009
12128W        W78669   3.428  25.749  14.452
12129W        W78670   4.889  17.299  11.651
12130W        W78671  32.458  19.019   1.298
12131W        W78672  33.551  37.636   2.277
12132W        W78673  21.441  40.927  10.705
12133W        W78674  22.490  38.567   4.434
12134W        W78675  43.370  14.260   1.427
12135W        W78676  39.116  11.952  13.869
12136W        W78677  17.117  17.175   2.141
12137W        W78678  44.096  40.991   4.772
12138W        W78679  19.643  36.182   2.498
12139W        W78680  13.826  21.488   0.834
12140W        W78681  42.963   0.610   3.606
12141W        W78682  15.710  11.589  14.075
12142W        W78683  31.645  15.828  14.394
12143W        W78684  29.129   2.524  11.924
12144W        W78685   9.122  40.343  14.421
12145W        W78686  30.940   2.249  12.368
12146W        W78687  39.112   4.583   4.883
12147W        W78688   6.132  28.411  13.355
12148W        W78689  28.520   4.739   0.707
12149W        W78690  41.055   1.663  12.151
12150W        W78691  14.146  16.826   3.195
12151W        W78692   8.209  23.236  14.843
12152W        W78693  39.393  19.017  10.660
12153W        W78694  27.917  32.042  13.866
12154W        W78695  25.215  42.851   1.805
12155W        W78696  39.078  30.021   3.367
12156W        W78697   5.242   6.454  12.831
12157W        W78698  16.732  15.899  14.039
12158W        W78699   1.367  22.684  10.623
12159W        W78700  35.338   7.704   4.625
12160W        W78701  44.386  40.393   1.923
12161W        W78702  38.321   4.375  14.535
12162W        W78703   3.242  10.251   0.191
12163W        W78704  16.778  34.736  11.580
12164W        W78705  22.052  10.231   1.636
12165W        W78706   4.854  42.325  10.956
12166W        W78707  26.024  25.041  13.370
12167W        W78708  22.419  42.448   1.852
12168W        W78709  31.438  20.578   4.396
12169W        W78710  12.021   9.685  11.108
12170W        W78711  17.104  29.504   2.869
12171W        W78712   4.243  23.202   1.858
12172W        W78713   8.490  21.602  12.066
12173W        W78714   5.963  27.702  14.920
12174W        W78715  23.142   9.070   4.998
12175W        W78716   8.226  31.518  11.884
12176W        W78717  34.884  44.967  12.387
12177W        W78718  18.196  24.164  12.808
12178W        W78719   8.546  19.070  14.728
12179W        W78720  39.680  24.584   2.706
12180W        W78721  31.768  14.431   0.417
12181W        W78722   9.742  29.389   0.044
12182W        W78723  29.552   4.200   3.697
12183W        W78724  21.628  10.619  13.285
12184W        W78725  28.438  36.002   2.366
12185W        W78726  37.680  16.092   1.759
12186W        W78727  33.524  17.217   3.664
12187W        W78728  33.995  20.366   3.188
12188W        W78729  10.702  43.814   0.291
12189W        W78730  17.507  31.770  10.006
12190W        W78731  37.174  30.733  12.837
12191W        W78732  24.725  30.870   4.160
12192W        W78733  32.447  22.732  10.705
12193W        W78734  20.096   3.160   2.371
12194W        W78735  42.344  19.626   1.397
12195W        W78736  27.187  37.441   2.231
12196W        W78737  41.943  29.013   1.252
12197W        W78738  16.038  29.255   1.231
12198W        W78739  12.548  31.874   0.326
12199W        W78740  37.973  26.468   4.306
12200W        W78741  14.663  34.100  14.447
12201W        W78742  23.537  39.323  12.086
12202W        W78743  17.445   7.924   0.218
12203W        W78744  28.540   2.098   2.769
12204W        W78745  24.089  42.837  13.068
12205W        W78746  22.808  22.078   4.434
12206W        W78747  41.348  24.577  12.915
12207W        W78748  32.146  40.380   3.289
12208W        W78749  26.995  17.583  11.234
12209W        W78750   9.066  23.233  11.117
12210W        W78751  34.032  35.158  12.398
12211W        W78752  25.646  10.860  13.436
12212W        W78753  21.887  44.812  12.622
12213W        W78754  38.001  14.222  11.452
12214W        W78755   6.445   6.913   4.545
12215W        W78756  29.058  40.530  13.526
12216W        W78757   6.453  37.499   1.367
12217W        W78758  32.170  43.849   2.333
12218W        W78759  24.352   7.694   4.102
12219W        W78760  13.735   9.904   4.727
12220W        W78761   3.809  16.879  11.721
12221W        W78762  24.249  17.365   3.142
12222W        W78763  42.066  34.319   4.572
12223W        W78764  38.124  11.150  12.852
12224W        W78765  38.090  29.186   2.448
12225W        W78766  15.612   2.911   0.781
12226W        W78767   8.787  36.814  12.907
12227W        W78768   5.811   6.235   3.042
12228W        W78769  28.985  21.613  14.594
12229W        W78770  15.891  28.078   2.178
12230W        W78771   1.265  23.478  10.086
12231W        W78772  28.959   0.267   1.783
12232W        W78773  41.780  32.568  10.750
12233W        W78774  32.634  32.067   1.433
12234W        W78775  13.377  15.151   1.440
12235W        W78776   9.086  44.684   2.829
12236W        W78777  15.721  21.630  10.710
12237W        W78778  19.652  43.037  12.037
12238W        W78779  43.438   0.501   0.169
12239W        W78780  30.021  11.479  14.368
12240W        W78781   3.986  31.446   9.886
12241W        W78782  23.675  37.277  11.142
12242W        W78783  41.024  13.926   3.210
12243W        W78784  22.239  33.909  13.761
12244W        W78785  37.243  11.629  14.752
12245W        W78786  36.448   6.717  11.969
12246W        W78787  28.022  11.264   4.539
12247W        W78788  38.572   8.721  12.947
12248W        W78789  24.401   9.275   1.490
12249W        W78790   0.974   2.407   1.284
12250W        W78791   6.251  17.541  12.990
12251W        W78792  42.797  16.888  13.502
12252W        W78793  43.548  38.333   4.253
12253W        W78794  36.770  20.066  13.432
12254W        W78795  31.744  42.873   1.838
12255W        W78796  39.120  20.583   1.775
12256W        W78797  32.567  36.814  14.931
12257W        W78798  28.388  43.428  14.801
12258W        W78799   8.053  33.956   4.468
12259W        W78800  40.303   3.233   2.754
12260W        W78801   4.026  34.357  11.920
12261W        W78802  25.952  30.916   2.983
12262W        W78803  33.672  31.957   1.052
12263W        W78804   8.128  31.374  12.384
12264W        W78805  33.946   7.159   1.855
12265W        W78806  27.380   1.873  13.998
12266W        W78807  17.707  35.068   4.026
12267W        W78808  14.793   0.706  10.613
12268W        W78809   0.519   7.949   2.287
12269W        W78810  36.080  36.070   0.747
12270W        W78811  37.184  31.916  11.193
12271W        W78812  12.166  33.674   2.275
12272W        W78813   3.714   6.351   4.207
12273W        W78814  30.022  42.717  13.969
12274W        W78815   8.987  37.939   4.564
12275W        W78816  12.362  42.406   4.663
12276W        W78817  26.723  17.850  14.422
12277W        W78818   4.976  21.734   0.099
12278W        W78819  23.085  30.667   3.723
12279W        W78820  18.675  13.149   4.883
12280W        W78821  40.349  12.920  11.170
12281W        W78822  33.819  41.242   0.321
12282W        W78823  13.373   6.500   0.467
12283W        W78824   9.356  23.571  13.050
12284W        W78825  13.386   0.257   2.595
12285W        W78826  43.671   9.758  14.466
12286W        W78827  24.991  41.374  13.444
12287W        W78828  17.389  14.538   2.795
12288W        W78829  40.545  44.142   5.035
12289W        W78830  14.369   3.698  13.727
12290W        W78831  13.769  37.207  13.495
12291W        W78832  12.937  32.522   0.705
12292W        W78833  19.719  38.353  12.546
12293W        W78834  36.124  38.710  13.590
12294W        W78835  26.463   3.256   2.374
12295W        W78836  36.065  14.105  11.589
12296W        W78837  30.419  21.077   1.265
12297W        W78838  31.607  43.363   1.675
12298W        W78839  40.344  44.521  13.910
12299W        W78840  18.721  21.717   4.091
12300W        W78841  39.639  44.178  11.637
12301W        W78842  34.411  30.756  14.000
12302W        W78843  31.504  17.521  14.091
12303W        W78844  44.749  28.439   4.502
12304W        W78845  16.279  15.303  12.850
12305W        W78846   5.805   0.227  11.958
12306W        W78847  39.121   0.411  14.563
12307W        W78848  44.179  39.609   2.439
12308W        W78849  11.892  28.981   1.698
12309W        W78850  41.467  19.744  12.016
12310W        W78851  44.824  25.725   3.176
12311W        W78852  41.972  25.642  11.517
12312W        W78853  33.420   2.387  12.671
12313W        W78854  11.728  37.967   0.974
12314W        W78855  41.420  33.918  14.864
12315W        W78856  30.139  16.669   4.981
12316W        W78857  31.403  26.183  11.127
12317W        W78858  17.589   3.451  13.462
12318W        W78859   8.977   6.893  14.447
12319W        W78860  31.917  41.078   3.323
12320W        W78861  28.434   4.818  10.375
12321W        W78862  39.990  16.649   4.155
12322W        W78863  13.504   4.400   2.373
12323W        W78864  11.395  40.197  14.065
12324W        W78865  36.580  11.847  13.458
12325W        W78866  14.629  18.348  13.526
12326W        W78867  12.527  31.992  11.184
12327W        W78868  37.137  39.892   3.211
12328W        W78869  29.226  44.281   1.716
12329W        W78870  35.086  31.590  13.009
12330W        W78871  35.222  14.696  13.996
12331W        W78872  23.249  36.424   0.344
12332W        W78873  37.765  15.628   0.113
12333W        W78874  22.353   0.850  13.185
12334W        W78875  26.244  35.503  12.880
12335W        W78876  40.390  15.093   0.699
12336W        W78877   4.773  38.304  12.414
12337W        W78878  14.214  40.376   1.705
12338W        W78879  27.004  23.447  12.320
12339W        W78880  24.688  34.623   2.178
12340W        W78881  10.383  42.033  14.562
12341W        W78882  34.608  15.470   0.039
12342W        W78883  31.808  22.269  12.946
12343W        W78884  41.967   1.710   1.292
12344W        W78885  39.529  19.714  14.362
12345W        W78886  38.394  34.003   0.166
12346W        W78887   8.146  42.759  13.119
12347W        W78888   2.020  40.542   3.709
12348W        W78889  31.160  36.593   0.347
12349W        W78890  42.927  35.303   1.216
12350W        W78891  31.949   1.364  10.711
12351W        W78892  35.750  22.636  14.099
12352W        W78893  28.570  33.063  11.547
12353W        W78894  43.021  38.431  14.014
12354W        W78895  11.798  23.182  14.023
12355W        W78896   6.842  43.866  11.603
12356W        W78897  35.145  22.773   1.178
12357W        W78898  40.533  12.152  10.731
12358W        W78899  11.985  44.840  12.432
12359W        W78900  27.012  34.991  11.325
12360W        W78901   8.957  22.930   3.776
12361W        W78902  20.404  43.470   1.704
12362W        W78903  35.402  11.190   4.695
12363W        W78904  19.217   7.357  13.471
12364W        W78905   8.288  20.621  14.531
12365W        W78906  44.963  29.090   0.134
12366W        W78907   0.995  34.355   3.853
12367W        W78908   0.944  37.570  12.392
12368W        W78909  38.662  18.503  12.440
12369W        W78910   2.387  11.884  10.967
12370W        W78911  36.034   8.406  11.835
12371W        W78912  32.911  43.807   1.662
12372W        W78913   8.155   7.381   3.716
12373W        W78914  15.158  24.214   0.396
12374W        W78915   3.188  30.544   3.714
12375W        W78916  20.154  28.868  11.616
12376W        W78917   5.380   0.580  10.783
12377W        W78918  40.552  12.815   0.390
12378W        W78919  40.972   6.436   3.921
12379W        W78920  35.574  37.276  10.373
12380W        W78921  13.115   3.352  12.565
12381W        W78922  20.607   9.334   4.210
12382W        W78923  13.170  39.594   4.128
12383W        W78924  14.623   0.238   4.505
12384W        W78925  37.519  22.452   3.739
12385W        W78926  23.332  20.490   0.942
12386W        W78927   7.025  31.390  14.857
12387W        W78928  38.528   1.405   2.406
12388W        W78929  38.898  35.934  11.677
12389W        W78930  23.499   7.893   2.277
12390W        W78931  22.989  41.315  11.526
12391W        W78932  10.780  17.062   1.876
12392W        W78933  40.895   6.153  13.315
12393W        W78934  28.465  15.231  13.578
12394W        W78935  12.232  10.413   2.188
12395W        W78936  28.876  16.561   1.752
12396W        W78937  34.200  25.627   2.390
12397W        W78938   6.140  23.706   3.240
12398W        W78939  44.711  24.036  14.176
12399W        W78940   3.201  35.913   2.771
12400W        W78941  16.974   8.255  14.324
12401W        W78942  18.826  12.996   5.350
12402W        W78943  21.126  35.079   2.547
12403W        W78944  40.260  24.147  14.532
12404W        W78945  13.703  36.808   3.588
12405W        W78946  30.877  16.657  11.148
12406W        W78947   2.363  40.393   3.104
12407W        W78948   3.939   4.540   9.886
12408W        W78949  12.265   5.478   4.205
12409W        W78950   2.255  25.216  13.858
12410W        W78951   4.253   9.439  14.192
12411W        W78952  29.019  22.509   2.203
12412W        W78953   4.680  21.108   2.818
12413W        W78954  38.764  16.196  14.210
12414W        W78955  28.408  36.503   3.050
12415W        W78956  33.828  18.216  14.007
12416W        W78957  24.723   9.910  11.647
12417W        W78958  26.372  30.690   0.573
12418W        W78959  30.205  39.417  14.475
12419W        W78960  32.538   7.444  13.671
12420W        W78961  12.744   9.372   3.895
12421W        W78962  13.248  31.062   3.393
12422W        W78963   6.468  37.853   2.130
12423W        W78964   0.688   3.395  13.968
12424W        W78965  24.899  17.553   4.445
12425W        W78966  26.255   7.886  13.955
12426W        W78967  12.619  23.047   2.731
12427W        W78968  27.146  14.360   3.564
12428W        W78969  21.709  21.101   2.060
12429W        W78970  31.171  28.925  13.945
12430W        W78971  40.753   2.717   0.794
12431W        W78972  32.490  22.775  14.862
12432W        W78973  38.358   3.764   3.837
12433W        W78974  14.874  23.769   0.381
12434W        W78975  12.700  34.329   2.141
12435W        W78976  25.742  34.005   2.808
12436W        W78977  12.553  19.121   3.710
12437W        W78978  30.066   1.820   2.814
12438W        W78979  18.270  33.024  13.352
12439W        W78980  24.878  19.058  10.730
12440W        W78981  41.548  41.792   3.925
12441W        W78982  21.298  21.103   3.636
12442W        W78983  28.958  19.000   4.766
12443W        W78984  18.316  35.852  10.453
12444W        W78985  39.724  44.464   0.700
12445W        W78986  13.340  36.765  13.429
12446W        W78987   9.804  14.783  13.625
12447W        W78988  26.827  19.370   4.834
12448W        W78989  38.029  35.471  12.556
12449W        W78990  14.309  42.932  10.567
12450W        W78991  35.568  32.706   3.215
12451W        W78992  40.470  27.983  14.253
12452W        W78993   1.472  22.967  12.807
12453W        W78994  37.983  44.468   0.433
12454W        W78995   5.671   8.372  14.052
12455W        W78996   2.674  30.177  10.183
12456W        W78997  34.722   4.815   9.726
12457W        W78998  32.897  11.677   0.286
12458W        W78999   5.807  12.028   0.771
12459W        W79000  29.402  23.162   2.348
12460W        W79001   0.328  28.876  12.115
12461W        W79002   1.941   8.766   1.418
12462W        W79003   2.516   0.890  11.941
12463W        W79004   3.154  43.366   0.017
12464W        W79005  38.437   9.407  13.083
12465W        W79006  13.444  15.244   2.333
12466W        W79007  42.292  35.709  14.979
12467W        W79008   3.313  40.159  12.482
12468W        W79009  12.304  11.750  14.214
12469W        W79010  32.213   4.622  12.518
12470W        W79011  34.898   4.657  13.065
12471W        W79012  19.157  32.234  12.970
12472W        W79013  23.331   5.153   0.871
12473W        W79014  37.357   4.749   4.352
12474W        W79015  40.760   3.765  13.350
12475W        W79016  37.827   0.451  12.676
12476W        W79017   3.183  16.598   0.352
12477W        W79018  42.435   7.153  11.969
12478W        W79019   7.200  37.930  14.976
12479W        W79020   9.399  10.326  10.597
12480W        W79021  43.740  22.987  12.113
12481W        W79022  16.868  43.017   2.859
12482W        W79023   1.415  39.319   0.864
12483W        W79024  29.937  40.736   4.152
12484W        W79025  40.919   4.068   3.636
12485W        W79026   4.965  33.703  11.537
12486W        W79027  15.389  31.991  14.452
12487W        W79028  39.557  31.881  14.409
12488W        W79029  13.929  15.544   4.979
12489W        W79030   1.357  40.822   4.821
12490W        W79031   1.872  12.317  13.438
12491W        W79032  17.136   3.886   3.758
12492W        W79033  40.410   9.674  13.967
12493W        W79034  10.155  19.820   4.173
12494W        W79035  16.665  40.669   4.320
12495W        W79036   8.536  43.449  14.339
12496W        W79037  28.985  18.192  13.399
12497W        W79038  39.544  25.543  12.843
12498W        W79039  39.804  35.912   0.717
12499W        W79040   2.409  15.536   0.824
12500W        W79041  12.186  22.007  13.681
12501W        W79042  15.316  31.108  11.518
12502W        W79043  28.166  33.009  14.424
12503W        W79044  23.661  26.074   1.267
12504W        W79045  43.791   0.671   2.221
12505W        W79046  41.788  10.198   2.460
12506W        W79047  10.389  14.322  12.939
12507W        W79048  36.442   8.354   0.429
12508W        W79049   6.955  32.355   4.585
12509W        W79050  39.967  10.338  10.589
12510W        W79051   8.698   0.741   1.823
12511W        W79052  32.170  25.141   2.969
12512W        W79053  33.087  19.963   0.577
12513W        W79054  39.881  26.087   0.780
12514W        W79055  24.867  25.819  12.075
12515W        W79056  28.198  24.089   2.469
12516W        W79057  27.166  31.079   1.226
12517W        W79058  11.301   6.460  13.793
12518W        W79059  16.975  43.014  13.716
12519W        W79060  40.783  21.201   3.295
12520W        W79061  11.338  23.713   3.207
12521W        W79062  17.976  18.196   4.223
12522W        W79063   4.207  43.251   1.144
12523W        W79064  25.910  41.967   4.071
12524W        W79065  44.279  12.458   3.640
12525W        W79066   3.088  28.195   2.850
12526W        W79067  23.550  30.367  13.855
12527W        W79068  41.097   0.680   0.264
12528W        W79069  35.550   9.030  14.031
12529W        W79070  38.596  14.478   2.292
12530W        W79071   5.810  28.161   3.675
12531W        W79072  22.024  27.153  10.696
12532W        W79073   9.854  17.139   0.917
12533W        W79074  38.815  25.947   4.108
12534W        W79075  33.894   7.641  13.566
12535W        W79076  40.776   0.008  14.932
12536W        W79077  34.586  10.960   4.631
12537W        W79078  12.202  21.707  12.619
12538W        W79079   5.377  44.346  13.830
12539W        W79080  30.708   8.427   3.175
12540W        W79081  10.592   7.355   0.785
12541W        W79082  24.424  15.093  12.620
12542W        W79083  35.041  16.829   4.328
12543W        W79084   2.949  12.210   2.043
12544W        W79085  28.944  25.776  12.723
12545W        W79086  29.435  17.090  13.868
12546W        W79087  41.836   0.278   1.180
12547W        W79088  21.023  23.008   2.309
12548W        W79089  33.523  44.395   1.841
12549W        W79090  36.750   1.888   5.328
12550W        W79091  12.436   7.207  13.035
12551W        W79092  43.003  20.155   0.882
12552W        W79093   1.730  13.369  13.529
12553W        W79094  39.702  19.405   2.141
12554W        W79095  42.905  38.520   1.953
12555W        W79096   8.487  36.954   2.013
12556W        W79097  34.409  35.168   3.606
12557W        W79098  16.119  19.117  13.042
12558W        W79099  20.806  30.718   0.364
12559W        W79100  19.137  37.262  13.870
12560W        W79101  14.308   8.268  12.945
12561W        W79102   7.356  27.409   1.973
12562W        W79103   2.740  27.573  13.827
12563W        W79104  16.174  38.206  11.243
12564W        W79105  13.062  21.994  11.066
12565W        W79106   5.585  32.593   4.981
12566W        W79107  43.778  16.191   0.434
12567W        W79108  35.261   2.795  13.463
12568W        W79109  16.868  32.017  13.738
12569W        W79110  27.620   7.820   3.846
12570W        W79111  28.760  43.506   1.666
12571W        W79112   8.092  37.343   3.721
12572W        W79113  35.834  40.310   3.613
12573W        W79114  23.835  32.037   4.911
12574W        W79115  37.137  18.264   0.731
12575W        W79116  22.256  33.577   1.394
12576W        W79117  13.701  10.666   2.217
12577W        W79118  31.983  39.934  14.614
12578W        W79119  15.046  15.257   1.757
12579W        W79120  12.234  24.845  11.542
12580W        W79121   6.688  33.495  11.302
12581W        W79122  29.616  44.631   4.002
12582W        W79123  44.685   3.705  12.449
12583W        W79124  41.771  31.774   4.604
12584W        W79125  41.525   9.377  10.803
12585W        W79126  28.197   9.603   1.722
12586W        W79127  33.411   6.398  13.589
12587W        W79128  35.245   5.698   2.300
12588W        W79129  16.740   2.585   3.827
12589W        W79130  28.571  32.309  14.407
12590W        W79131  17.911   1.739   3.639
12591W        W79132  14.574  22.558  11.961
12592W        W79133  11.758  43.908  12.484
12593W        W79134  37.113  35.024   2.453
12594W        W79135  23.739  42.843   1.918
12595W        W79136  20.139  36.835  13.519
12596W        W79137  24.515  39.838  11.083
12597W        W79138  40.380  12.553   2.210
12598W        W79139  38.561  36.613  12.099
12599W        W79140   8.225  41.607   0.886
12600W        W79141  43.076  12.800  12.598
12601W        W79142  30.544  29.449  14.292
12602W        W79143   1.487  14.698  13.361
12603W        W79144  14.731  27.694   4.584
12604W        W79145  20.103  44.647   0.335
12605W        W79146  13.465  15.253   4.806
12606W        W79147  25.590  31.669   4.440
12607W        W79148  10.796   3.733   4.770
12608W        W79149  43.136  22.631   5.102
12609W        W79150  15.267  22.655  14.846
12610W        W79151  20.972  21.546  14.792
12611W        W79152   2.834   7.639   2.381
12612W        W79153  36.863  11.224  13.345
12613W        W79154  12.272  20.690  14.976
12614W        W79155  44.908   5.458  12.095
12615W        W79156  32.351  13.837   2.179
12616W        W79157  41.534  38.379  11.210
12617W        W79158  13.668   3.369   4.313
12618W        W79159  36.380  14.190   2.124
12619W        W79160  44.855  29.970   1.695
12620W        W79161  32.094  18.340   0.775
12621W        W79162  43.318  25.851  11.903
12622W        W79163   7.276  38.441   1.720
12623W        W79164  32.000  26.719   3.166
12624W        W79165  18.072  23.008  10.768
12625W        W79166  28.133  26.185  13.549
12626W        W79167  31.189  14.507   2.689
12627W        W79168  11.309  21.761   4.062
12628W        W79169  31.831  19.145   3.014
12629W        W79170  33.789   4.974  10.704
12630W        W79171  23.576  29.931   2.654
12631W        W79172   3.411   7.848  14.845
12632W        W79173   1.526  18.365   4.129
12633W        W79174  11.386  39.015  12.024
12634W        W79175  25.629  13.208  12.078
12635W        W79176  26.529  42.094  11.974
12636W        W79177   0.249   3.846   2.421
12637W        W79178  17.623  30.337   1.291
12638W        W79179  10.891  19.901  11.221
12639W        W79180  42.126  33.357  10.319
12640W        W79181  44.782  39.118   1.012
12641W        W79182   7.357  43.432  13.978
12642W        W79183  11.258  14.196  12.856
12643W        W79184  44.070  14.413   0.672
12644W        W79185  21.645   3.840  11.568
12645W        W79186  26.895   4.757   4.056
12646W        W79187  16.847  39.548  11.131
12647W        W79188  15.803  40.467   1.701
12648W        W79189   9.057  26.148  13.880
12649W        W79190  43.352  12.641   3.172
12650W        W79191  20.635  18.291   1.778
12651W        W79192   9.141  12.053   1.806
12652W        W79193  35.890  39.979  10.728
12653W        W79194  43.733  15.171  13.992
12654W        W79195  40.739  37.019   1.095
12655W        W79196   3.472  32.524   1.659
12656W        W79197  26.838  22.237  11.139
12657W        W79198  17.749  20.024  12.039
12658W        W79199  13.180  38.112  12.929
12659W        W79200   8.234  42.429  12.132
12660W        W79201  32.123  43.536   3.721
12661W        W79202  32.369  38.481  13.524
12662W        W79203  20.153   4.360  12.830
12663W        W79204   7.917  12.621  14.303
12664W        W79205  29.671  33.196  14.535
12665W        W79206  41.797  14.049  11.614
12666W        W79207   6.407  36.272   3.456
12667W        W79208  18.321   1.987  13.537
12668W        W79209  21.421  10.373  14.047
12669W        W79210  37.022  16.554   0.698
12670W        W79211  19.527  26.413   3.439
12671W        W79212  39.283  17.721  10.988
12672W        W79213  10.378  43.308  11.912
12673W        W79214  43.586  13.745  12.425
12674W        W79215  29.165  42.455   2.427
12675W        W79216  10.263  29.623   4.121
12676W        W79217   0.495  26.514  10.742
12677W        W79218  41.482  20.622   0.365
12678W        W79219  17.710  34.133   3.299
12679W        W79220   4.861   8.894   4.891
12680W        W79221   9.037   3.589  11.220
12681W        W79222   9.137   7.657   2.227
12682W        W79223   5.227  28.696  14.339
12683W        W79224   2.794   1.970  13.254
12684W        W79225  28.428  28.333   4.866
12685W        W79226   3.973   3.867   3.126
12686W        W79227  22.081  44.481   2.439
12687W        W79228  17.743   6.664   2.637
12688W        W79229  41.750  18.794  12.581
12689W        W79230   5.453  30.036   3.678
12690W        W79231  18.256  23.433  14.874
12691W        W79232  36.431  25.181  14.426
12692W        W79233  12.555  42.323   3.072
12693W        W79234  21.975  19.773   4.120
12694W        W79235  29.041  38.522  11.665
12695W        W79236  23.694  26.091   3.363
12696W        W79237   9.246   6.594  11.487
12697W        W79238   3.984   3.663  13.904
12698W        W79239   3.328  41.688  11.357
12699W        W79240  31.149   8.910  14.930
12700W        W79241  40.463  12.032   3.629
12701W        W79242  22.144   3.207  10.257
12702W        W79243  16.987   0.250   2.971
12703W        W79244   2.391  34.224  13.713
12704W        W79245  21.566  22.161   3.172
12705W        W79246   0.031  26.580  12.045
12706W        W79247  32.885  32.506  14.930
12707W        W79248   2.954  31.338   2.812
12708W        W79249  43.497  22.044  10.448
12709W        W79250  35.440   4.597  10.747
12710W        W79251  29.624  34.844   2.326
12711W        W79252  35.905  33.968  10.739
12712W        W79253   2.702  24.464  11.407
12713W        W79254  22.455  15.180   9.992
12714W        W79255  21.663  40.764   2.645
12715W        W79256  43.897  24.197  10.659
12716W        W79257  21.194  11.274   1.442
12717W        W79258  13.782  20.056  13.881
12718W        W79259  30.443  11.121   1.701
12719W        W79260  18.667  30.501   3.797
12720W        W79261   0.065  40.785  14.404
12721W        W79262  23.992  42.002  12.382
12722W        W79263  27.995   2.325  13.531
12723W        W79264  20.686  12.542   4.617
12724W        W79265   1.750  35.848   9.581
12725W        W79266  35.024  29.375   3.692
12726W        W79267  37.610  44.741   0.721
12727W        W79268   7.711  20.576   4.671
12728W        W79269  42.853  37.165  14.461
12729W        W79270  40.513  41.715  11.551
12730W        W79271   5.242  24.805   2.212
12731W        W79272   7.898   2.921  13.878
12732W        W79273   1.819  40.712   2.266
12733W        W79274  25.865  17.116  12.051
12734W        W79275   8.888  30.586   1.962
12735W        W79276  27.678  19.630   4.345
12736W        W79277  34.546  25.996   3.140
12737W        W79278  39.798  27.908   0.955
12738W        W79279  25.859   9.655   3.208
12739W        W79280  36.798   1.697  11.477
12740W        W79281  22.137  24.911  14.406
12741W        W79282  38.086  13.816   1.721
12742W        W79283  10.203  19.905   0.154
12743W        W79284  37.944  36.664   0.520
12744W        W79285   5.165   1.480  14.379
12745W        W79286  27.356   4.921   4.178
12746W        W79287  42.352  12.067   4.825
12747W        W79288  12.103   8.873   0.372
12748W        W79289   0.441  36.993   4.946
12749W        W79290  18.744  20.218  14.020
12750W        W79291  32.242   7.024  13.578
12751W        W79292  26.586  24.217  11.112
12752W        W79293  21.692  18.961   2.733
12753W        W79294  16.977  38.693  11.989
12754W        W79295  38.350   8.523   5.266
12755W        W79296  18.027  41.745  12.037
12756W        W79297  16.775  41.746  11.538
12757W        W79298  18.280   8.576  12.486
12758W        W79299   1.893  23.739  14.090
12759W        W79300  36.077  31.910  12.036
12760W        W79301  13.456  43.924  11.056
12761W        W79302   9.348  37.478   2.848
12762W        W79303   4.850  13.579  13.978
12763W        W79304  40.735  28.395  14.436
12764W        W79305  10.705  18.780   3.725
12765W        W79306  27.640  11.801   2.901
12766W        W79307  22.017   8.645   1.113
12767W        W79308  40.348  31.344  12.508
12768W        W79309  41.566  24.982  12.603
12769W        W79310   7.399  17.842  14.300
12770W        W79311  42.738   3.770   3.209
12771W        W79312  14.263  44.282  11.306
12772W        W79313  25.686  39.296  14.497
12773W        W79314  40.771  22.691   0.373
12774W        W79315  14.557  17.842  13.591
12775W        W79316  30.281  34.984   1.099
12776W        W79317   5.196   8.866   1.320
12777W        W79318  23.158  39.100  13.542
12778W        W79319  15.958  34.168   4.123
12779W        W79320  10.302   1.868  10.061
12780W        W79321  11.569  25.232   0.804
12781W        W79322   4.869   3.875  14.046
12782W        W79323  21.104  25.140   0.512
12783W        W79324  19.179  22.626  11.541
12784W        W79325  16.811  10.696   1.740
12785W        W79326  25.244  20.178   4.634
12786W        W79327   3.022   7.397   0.026
12787W        W79328  41.019  12.644   1.395
12788W        W79329  24.589  11.262   3.663
12789W        W79330  38.983   1.631   2.227
12790W        W79331   5.410  41.400   3.361
12791W        W79332  39.748  42.953   0.203
12792W        W79333   6.736  18.830  12.016
12793W        W79334   4.483  24.243   3.347
12794W        W79335  15.609  23.953   0.418
12795W        W79336  23.689  33.348   2.712
12796W        W79337  29.873  19.069   0.197
12797W        W79338  29.582   8.647   3.182
12798W        W79339   2.245  42.448  13.068
12799W        W79340  35.619  17.501  12.142
12800W        W79341  38.827  39.354  11.210
12801W        W79342   3.562  22.600  11.760
12802W        W79343  26.784  35.477   1.141
12803W        W79344  28.441   6.294  14.218
12804W        W79345  13.832  30.556  11.919
12805W        W79346  13.668   1.949   1.635
12806W        W79347  34.510  14.384   0.986
12807W        W79348  23.894   0.251  13.403
12808W        W79349  23.568   2.290   0.878
12809W        W79350  27.512  24.861   0.813
12810W        W79351  31.051  13.248   2.452
12811W        W79352  28.036  13.620   4.110
12812W        W79353  31.723   4.282   2.378
12813W        W79354   8.088  30.322   0.478
12814W        W79355   8.650  42.848  13.279
12815W        W79356  19.529  14.346  12.558
12816W        W79357  12.220  22.195   3.681
12817W        W79358  16.697  37.827   1.233
12818W        W79359  44.378  37.420  13.859
12819W        W79360  36.003  43.331   1.375
12820W        W79361  12.613  19.247  13.941
12821W        W79362  10.291  27.086   4.469
12822W        W79363  16.553  21.787  14.967
12823W        W79364  40.861   8.761  14.764
12824W        W79365  13.595  28.431  12.486
12825W        W79366   9.178  44.268   1.600
12826W        W79367   0.228  21.227   0.401
12827W        W79368  36.401   4.977   3.610
12828W        W79369  22.174   4.507   9.718
12829W        W79370  20.022  17.210   1.780
12830W        W79371  15.189  16.326  11.977
12831W        W79372  30.474  22.546  11.175
12832W        W79373  23.023  38.376   4.570
12833W        W79374  25.995  26.200   1.684
12834W        W79375   5.695   4.802  14.319
12835W        W79376  37.916   9.609  11.287
12836W        W79377   3.011  12.365   3.449
12837W        W79378  35.344  31.171  12.109
12838W        W79379  10.888  33.406   0.619
12839W        W79380  41.014  43.925  11.421
12840W        W79381  30.326   5.782   0.235
12841W        W79382  16.847  22.689   0.968
12842W        W79383  37.801   2.751  13.786
12843W        W79384  26.007  29.560   4.438
12844W        W79385   3.248  34.552  13.509
12845W        W79386   4.770  22.319   2.227
12846W        W79387  22.801   1.976  11.748
12847W        W79388  22.523  40.084   2.195
12848W        W79389  37.915  17.053   4.713
12849W        W79390   5.226  28.558   1.446
12850W        W79391  36.387  19.895  11.126
12851W        W79392  14.063  13.298  13.896
12852W        W79393  20.708  19.534   4.859
12853W        W79394   4.974   2.784  13.401
12854W        W79395   0.864  39.046  12.671
12855W        W79396   9.879  32.882  14.691
12856W        W79397  13.747  35.205   2.305
12857W        W79398  35.854   2.325   0.782
12858W        W79399  11.345  33.987  10.710
12859W        W79400  22.553  27.366  10.733
12860W        W79401  23.412  36.399  13.560
12861W        W79402  38.129  28.174   0.216
12862W        W79403  14.430  35.777   5.034
12863W        W79404  22.498   1.035   0.524
12864W        W79405  28.166  17.966   0.382
12865W        W79406  23.701  34.257   3.037
12866W        W79407  33.629  31.861   3.120
12867W        W79408  43.212  34.681   3.346
12868W        W79409  34.424  18.336   0.210
12869W        W79410  42.485  36.512   1.268
12870W        W79411  21.754  33.440  14.936
12871W        W79412   1.016  21.022   3.511
12872W        W79413  35.012  39.589  14.410
12873W        W79414  24.769  10.683   4.255
12874W        W79415   3.169  25.412   1.451
12875W        W79416  16.752   1.702   2.705
12876W        W79417  11.215  32.614   3.673
12877W        W79418  14.646   5.725  11.694
12878W        W79419  32.345  36.344  12.488
12879W        W79420  23.983   2.830   1.437
12880W        W79421  21.154   5.804   3.258
12881W        W79422  12.780  40.361   3.711
12882W        W79423  21.211   7.620   0.491
12883W        W79424   8.335  26.135  12.398
12884W        W79425  21.670  29.348   1.452
12885W        W79426  32.681  26.873   1.263
12886W        W79427  23.814   6.147   3.334
12887W        W79428  25.905   6.771   9.834
12888W        W79429   4.471  29.945  11.020
12889W        W79430   3.886  24.664  14.892
12890W        W79431  15.117  18.501   2.191
12891W        W79432  44.019  28.930  10.641
12892W        W79433  25.900   1.158   1.787
12893W        W79434   5.385  34.096  13.040
12894W        W79435  25.772  26.057   1.236
12895W        W79436   5.271  28.463   4.216
12896W        W79437  44.110   7.909  11.116
12897W        W79438  18.977   1.857  11.176
12898W        W79439  18.954  37.450  13.426
12899W        W79440  17.349  19.000  10.846
12900W        W79441  20.178  17.560   0.720
12901W        W79442  38.812   8.423  10.658
12902W        W79443  29.172   7.357   1.604
12903W        W79444  13.884  44.882  11.223
12904W        W79445  30.874   8.382  10.722
12905W        W79446  28.158  28.901   4.486
12906W        W79447  25.641  31.546  14.467
12907W        W79448   8.780  36.398  13.207
12908W        W79449  39.422  19.754   3.778
12909W        W79450   9.361  38.954   0.340
12910W        W79451  29.594  33.790  11.216
12911W        W79452   3.620   0.710   1.981
12912W        W79453   0.251  16.309   1.737
12913W        W79454  31.559  30.697  13.986
12914W        W79455  10.689  35.788  11.469
12915W        W79456  28.399   6.396   0.908
12916W        W79457  25.227  26.887   0.256
12917W        W79458  41.377  43.574  10.790
12918W        W79459  42.991   6.698   1.749
12919W        W79460  35.064  26.152  10.565
12920W        W79461  42.796  23.778   0.789
12921W        W79462  21.594   1.180   4.157
12922W        W79463  39.797  18.085   3.984
12923W        W79464  22.880  20.739   5.076
12924W        W79465  34.072  16.563   2.306
12925W        W79466  10.998  16.624  14.199
12926W        W79467  38.959  24.934   2.396
12927W        W79468  22.785   3.883  14.485
12928W        W79469  12.409  28.643  12.773
12929W        W79470  11.962  27.153  11.037
12930W        W79471   9.135  35.080   2.648
12931W        W79472  10.505  27.547  10.727
12932W        W79473  12.086  28.501   0.081
12933W        W79474  28.417  39.074  10.004
12934W        W79475   8.275  35.414  10.685
12935W        W79476  18.096  33.558   1.868
12936W        W79477  29.463  33.313  11.316
12937W        W79478  38.678  19.094  11.697
12938W        W79479  14.744  39.001  12.552
12939W        W79480  24.830   8.695  14.372
12940W        W79481  30.016  43.050   2.507
12941W        W79482   7.870   8.958  13.153
12942W        W79483  28.403  42.996   0.798
12943W        W79484  19.981  15.801  11.708
12944W        W79485  31.407  25.047  10.642
12945W        W79486  32.421  20.804  14.851
12946W        W79487  12.636  38.947   0.922
12947W        W79488  10.527  35.647   0.851
12948W        W79489  22.212  38.953   0.039
12949W        W79490  40.344  43.477   4.442
12950W        W79491   2.935   5.852   4.806
12951W        W79492   9.856   6.920  13.636
12952W        W79493  15.608  38.291  11.897
12953W        W79494  14.260   7.407  13.293
12954W        W79495  30.404  21.632   4.472
12955W        W79496   0.707   8.875   1.921
12956W        W79497  43.402  33.231   1.289
12957W        W79498  28.699  41.635  12.150
12958W        W79499  37.958   5.506   0.892
12959W        W79500  26.031  16.010   4.230
12960W        W79501  42.807   4.705  13.498
12961W        W79502   8.496  42.009   4.164
12962W        W79503  23.455  40.411   3.165
12963W        W79504   9.228  20.029  13.905
12964W        W79505  16.172  28.051  10.746
12965W        W79506   8.390  23.228   0.352
12966W        W79507  16.227  33.493   0.455
12967W        W79508  10.016  21.319   2.632
12968W        W79509  20.817  41.087  11.617
12969W        W79510  25.943  35.158  11.161
12970W        W79511   5.242  12.787  14.920
12971W        W79512  43.015  11.082  13.095
12972W        W79513   2.474  30.397  14.029
12973W        W79514  16.843  27.380  10.471
12974W        W79515  23.284  20.024  14.857
12975W        W79516  32.447  21.122  13.768
12976W        W79517   6.997   3.295  12.020
12977W        W79518   6.765  12.269  14.710
12978W        W79519  37.410  41.306   2.604
12979W        W79520  11.325  25.047   4.241
12980W        W79521  12.617   3.518  14.271
12981W        W79522  29.503  29.639  14.331
12982W        W79523  18.542  37.284   1.891
12983W        W79524  18.815   0.896  10.686
12984W        W79525   2.218  27.522   3.616
12985W        W79526  11.812  29.938   4.287
12986W        W79527  11.610   1.917   3.616
12987W        W79528   2.779  17.105  13.942
12988W        W79529  40.129  29.875   2.385
12989W        W79530  28.624   2.251  13.270
12990W        W79531   2.245  19.428  10.658
12991W        W79532  22.577  11.048   0.903
12992W        W79533  12.861  21.269  12.013
12993W        W79534  37.278   9.728   1.415
12994W        W79535  11.145  11.038  10.641
12995W        W79536  32.863  18.579  10.316
12996W        W79537  21.414   9.987   5.029
12997W        W79538  31.510  41.047   2.339
12998W        W79539   8.695  15.555  12.889
12999W        W79540   8.149  11.905   4.337
13000W        W79541  38.077  23.565   1.348
13001W        W79542  14.996  10.213   1.489
13002W        W79543  14.133   6.130   3.670
13003W        W79544  41.857  38.824   2.169
13004W        W79545  17.329   7.326  13.410
13005W        W79546  16.062  44.454   2.904
13006W        W79547  41.354  35.525   1.724
13007W        W79548  20.496  34.029   0.808
13008W        W79549  20.573  34.386   4.566
13009W        W79550  34.843  30.541   3.758
13010W        W79551  15.647  42.694   1.911
13011W        W79552  25.652  14.691  12.350
13012W        W79553  29.519   7.332   2.702
13013W        W79554  10.221   3.390   2.667
13014W        W79555  23.219  44.723  12.135
13015W        W79556   3.120  28.945  13.139
13016W        W79557  16.254  44.006   0.898
13017W        W79558  24.200  20.684  11.644
13018W        W79559  13.389  21.425   2.094
13019W        W79560  43.876  14.080   2.305
13020W        W79561  30.700   2.661  12.027
13021W        W79562  26.013  26.965   3.124
13022W        W79563  19.348  35.271   1.784
13023W        W79564  11.321   7.170  12.382
13024W        W79565  34.850   7.230  10.660
13025W        W79566   5.138  17.825  11.622
13026W        W79567  26.751  42.967  13.029
13027W        W79568  17.337  19.004   0.296
13028W        W79569   3.864  24.161   9.895
13029W        W79570  18.280  29.070   0.725
13030W        W79571  25.948  27.533  10.609
13031W        W79572  10.926  30.930   4.062
13032W        W79573  16.266  25.023   0.815
13033W        W79574  29.193  14.217  10.287
13034W        W79575  32.704  28.284   0.282
13035W        W79576  14.041  13.919   0.791
13036W        W79577   1.232  18.829   1.515
13037W        W79578   4.944  18.239   4.212
13038W        W79579  15.104   8.306   0.175
13039W        W79580  39.065   2.331   3.815
13040W        W79581   1.462  44.717   4.661
13041W        W79582   5.209  13.109  10.750
13042W        W79583  37.082  39.527   4.607
13043W        W79584  29.018   8.434  11.435
13044W        W79585   2.971  15.205   0.308
13045W        W79586  40.052  37.932   0.820
13046W        W79587  41.817  30.023  10.762
13047W        W79588   8.397   7.280   1.709
13048W        W79589  14.656   3.421  12.401
13049W        W79590  27.722   6.824   1.878
13050W        W79591  35.711  11.236   0.821
13051W        W79592   1.474  17.821   3.260
13052W        W79593  20.609  40.220  14.689
13053W        W79594   2.423   2.737   3.146
13054W        W79595  20.339  40.075   4.432
13055W        W79596  36.472   6.724  13.836
13056W        W79597  12.322  37.419   4.542
13057W        W79598   6.850  40.509   1.304
13058W        W79599   9.687  19.893   3.315
13059W        W79600   0.776  43.830  11.628
13060W        W79601   4.992  26.618  12.586
13061W        W79602  16.688   4.854  14.331
13062W        W79603   3.757  18.033   3.136
13063W        W79604  28.598  17.068  14.001
13064W        W79605  44.783   6.766   1.047
13065W        W79606  42.003  39.030  10.819
13066W        W79607  10.892  17.790  11.004
13067W        W79608   8.177  18.696   4.738
13068W        W79609  21.247   0.894  14.944
13069W        W79610   0.942  17.581   2.134
13070W        W79611  18.895  32.074   0.834
13071W        W79612  19.812   0.705   0.867
13072W        W79613  17.282  15.336   3.625
13073W        W79614  30.537  44.932  10.569
13074W        W79615  26.126  35.175   0.553
13075W        W79616  17.663   8.923  13.056
13076W        W79617  30.372  29.126  12.575
13077W        W79618   3.232   2.216  11.705
13078W        W79619   3.829  41.674  14.309
13079W        W79620  15.844  24.703   0.830
13080W        W79621  33.469   5.362   0.260
13081W        W79622   7.591  10.098  10.181
13082W        W79623  24.088  40.786   2.597
13083W        W79624  12.888  19.218  13.480
13084W        W79625  40.303  22.988   3.272
13085W        W79626  21.763  12.532   0.365
13086W        W79627   5.479   2.882  14.407
13087W        W79628   6.437  44.489  13.949
13088W        W79629  23.466  38.078   4.725
13089W        W79630   3.788   1.334  12.882
13090W        W79631  44.706  12.709   4.491
13091W        W79632  28.530  24.259  12.270
13092W        W79633  26.448  10.295   4.057
13093W        W79634  15.162  25.056  13.105
13094W        W79635  15.855  27.057   3.168
13095W        W79636  21.190  38.938  14.973
13096W        W79637   1.517  12.190   3.759
13097W        W79638  38.476  20.503   4.632
13098W        W79639  40.194   1.911  11.247
13099W        W79640   1.186  35.098   1.560
13100W        W79641  25.224  38.812   3.611
13101W        W79642  21.359   2.300   0.139
13102W        W79643  31.806  31.489   4.032
13103W        W79644  26.619  32.483   3.831
13104W        W79645   2.608   1.319   1.392
13105W        W79646  41.928  32.334  12.492
13106W        W79647  40.578  37.030  11.087
13107W        W79648  35.919  22.543  11.936
13108W        W79649  41.086  33.928   2.118
13109W        W79650  41.442   5.705  10.906
13110W        W79651   4.628  42.018   0.285
13111W        W79652   5.615  35.210   3.607
13112W        W79653   7.223   9.648  13.612
13113W        W79654  11.721  17.780  12.071
13114W        W79655  26.472   8.699  11.070
13115W        W79656  20.451  27.973  13.028
13116W        W79657  16.571  35.355   4.571
13117W        W79658   6.643  13.212  11.616
13118W        W79659  26.127  32.092  11.100
13119W        W79660  37.143  41.238  11.965
13120W        W79661   5.154  35.426  13.413
13121W        W79662   8.348  32.354   2.774
13122W        W79663  25.253  13.397  10.633
13123W        W79664  21.536  29.972   3.231
13124W        W79665  36.598  43.298   2.774
13125W        W79666   7.173  33.641   3.279
13126W        W79667  38.501  16.587   3.560
13127W        W79668  24.646  16.055   3.181
13128W        W79669  14.147  37.023   0.059
13129W        W79670  27.172  15.567  12.239
13130W        W79671  24.531   6.553  10.668
13131W        W79672  34.059  40.545  11.580
13132W        W79673  38.274   6.328   2.901
13133W        W79674  24.289  36.421   0.395
13134W        W79675  37.180   7.500  14.439
13135W        W79676  16.736  40.300  10.611
13136W        W79677  39.259  15.677   1.269
13137W        W79678   8.260  13.842   1.630
13138W        W79679   7.604  13.650  12.591
13139W        W79680   0.828  24.191   3.642
13140W        W79681  22.172  16.846   1.251
13141W        W79682  30.421  12.960   3.191
13142W        W79683  20.766  13.233  13.922
13143W        W79684  26.232  25.518  11.155
13144W        W79685  41.777  23.851   1.703
13145W        W79686   0.548   6.203  13.574
13146W        W79687   7.692  42.463  14.326
13147W        W79688  32.473  27.960  14.883
13148W        W79689  13.775  25.503   2.752
13149W        W79690  31.463  26.583   2.565
13150W        W79691  30.919  18.116   4.442
13151W        W79692  12.813   0.712  10.630
13152W        W79693  24.224  22.147  13.418
13153W        W79694   7.425   1.068  12.895
13154W        W79695   0.452  31.387   1.843
13155W        W79696  28.927  15.027  13.476
13156W        W79697  44.753  20.769   2.356
13157W        W79698  16.303  44.931  13.142
13158W        W79699  36.019   8.658   1.695
13159W        W79700  27.446   5.910   3.483
13160W        W79701  17.602  33.493  12.398
13161W        W79702  28.222  21.520  12.391
13162W        W79703   9.162  25.237   2.003
13163W        W79704  27.089   3.409   2.972
13164W        W79705  39.882  15.214   0.500
13165W        W79706  40.818   9.367  12.640
13166W        W79707  34.066  40.101   1.428
13167W        W79708   8.148   8.805  14.504
13168W        W79709  28.678   6.793  14.293
13169W        W79710  29.515  41.472   4.049
13170W        W79711  24.023  40.556  11.600
13171W        W79712  35.087   3.883  13.589
13172W        W79713  31.027   0.263  11.613
13173W        W79714  35.133  36.894  11.970
13174W        W79715   2.052  25.988  14.355
13175W        W79716   6.953  14.330   0.204
13176W        W79717   2.955  40.461   0.444
13177W        W79718  17.100  13.222  11.134
13178W        W79719   4.388  43.999  11.465
13179W        W79720  15.200   8.651   3.821
13180W        W79721   0.409  24.045  12.476
13181W        W79722  39.232   1.442   4.914
13182W        W79723  38.967   8.828  13.493
13183W        W79724  17.074  21.679   2.800
13184W        W79725  17.853  13.228   3.647
13185W        W79726  30.512  39.794   2.302
13186W        W79727  34.594  25.122   4.655
13187W        W79728   1.098  41.407   4.989
13188W        W79729   5.067  24.032   1.327
13189W        W79730  14.669  27.415  11.514
13190W        W79731  43.390  32.049  14.238
13191W        W79732  23.211  30.093   4.606
13192W        W79733  21.483   5.486   1.319
13193W        W79734  22.613  35.994   2.654
13194W        W79735  30.612  33.071   1.035
13195W        W79736  18.660  29.175  10.107
13196W        W79737  33.069  30.379  13.971
13197W        W79738  19.685   9.249  13.172
13198W        W79739  14.287   9.202   1.284
13199W        W79740  26.031   6.742   3.266
13200W        W79741  10.229  42.718   4.074
13201W        W79742  22.297  10.459   1.237
13202W        W79743  19.657  35.928  13.581
13203W        W79744  11.068  17.700  10.534
13204W        W79745  31.824   8.837   2.824
13205W        W79746   2.789  10.706  14.059
13206W        W79747   0.013   7.633   2.690
13207W        W79748  14.075  37.595  14.367
13208W        W79749   4.955  40.671   0.997
13209W        W79750   0.407  26.140   1.755
13210W        W79751   8.231  16.450  13.942
13211W        W79752  12.495  30.940   5.551
13212W        W79753  20.150  29.217   2.987
13213W        W79754  18.775  39.849  12.515
13214W        W79755  41.395  11.886   0.486
13215W        W79756  36.469   9.735   0.000
13216W        W79757  34.084  35.860  11.234
13217W        W79758  15.744   1.238   0.808
13218W        W79759   8.377  33.580   1.373
13219W        W79760  24.604  31.325   4.682
13220W        W79761  37.706  22.647  14.569
13221W        W79762  19.703  26.642   3.896
13222W        W79763  25.407  44.780   1.804
13223W        W79764  40.785  14.585  12.583
13224W        W79765  41.173  17.658   4.166
13225W        W79766  20.751  31.828  13.839
13226W        W79767  31.965  27.983  13.665
13227W        W79768  23.868   7.820  13.345
13228W        W79769  20.245  20.277  14.843
13229W        W79770  10.631  33.914  13.473
13230W        W79771  25.613  13.149   3.016
13231W        W79772  37.876   5.727   0.442
13232W        W79773  28.202  31.205   2.141
13233W        W79774  12.204   6.619   0.345
13234W        W79775  44.859  15.560   3.624
13235W        W79776  35.645  24.765   0.231
13236W        W79777  22.733  41.585   2.765
13237W        W79778   2.384  12.103  14.984
13238W        W79779  29.436  14.774  11.090
13239W        W79780  21.642  39.607   4.055
13240W        W79781  30.332   3.523  13.118
13241W        W79782  15.558  11.654   2.188
13242W        W79783  39.834  11.757  12.844
13243W        W79784   6.393  44.307  13.000
13244W        W79785   8.383  23.017  12.828
13245W        W79786   3.334  38.991   3.676
13246W        W79787  36.429  28.095   0.907
13247W        W79788  39.276  39.134   3.820
13248W        W79789  22.743  23.066  11.373
13249W        W79790  36.398  30.557   2.632
13250W        W79791  13.156  41.131   2.307
13251W        W79792  13.159  44.319  14.792
13252W        W79793  24.992  23.190  13.996
13253W        W79794  18.082  39.928   0.507
13254W        W79795  39.786  20.204   4.620
13255W        W79796   7.880  28.241  13.071
13256W        W79797  12.818  32.431   1.213
13257W        W79798  21.906  22.222   0.582
13258W        W79799   3.855  40.015   4.548
13259W        W79800   1.988  11.098   4.173
13260W        W79801  36.045  39.781  13.910
13261W        W79802  18.666   9.537  12.989
13262W        W79803  10.732  40.309  12.020
13263W        W79804  25.603  15.661   2.217
13264W        W79805  24.955  29.160   1.957
13265W        W79806  32.421  28.602   4.892
13266W        W79807  26.173  17.094   1.650
13267W        W79808  26.603   9.407   3.559
13268W        W79809  44.017  37.961  14.915
13269W        W79810   5.247  24.675  11.965
13270W        W79811  42.894  13.277  10.462
13271W        W79812  36.985  32.928   2.469
13272W        W79813  29.717  30.505  12.085
13273W        W79814   6.462  33.229   4.203
13274W        W79815  44.465  26.099   2.631
13275W        W79816  15.518   8.198  14.892
13276W        W79817  34.443  10.805   3.577
13277W        W79818  39.780  12.170   2.846
13278W        W79819  22.565  21.603  14.095
13279W        W79820  33.210  17.557   0.050
13280W        W79821  35.999  32.539   2.649
13281W        W79822  11.671  30.964  10.908
13282W        W79823   1.322  42.307   4.404
13283W        W79824   5.868  17.897  12.331
13284W        W79825  18.817  17.495  14.370
13285W        W79826  42.032  41.764   3.727
13286W        W79827   6.316  34.302  10.626
13287W        W79828  31.316  13.502   4.957
13288W        W79829  37.866   2.346   2.717
13289W        W79830  20.893   6.463  10.987
13290W        W79831  10.844  10.055  11.656
13291W        W79832  23.557  17.598   0.678
13292W        W79833   2.436  22.640   1.746
13293W        W79834  10.109   2.860   2.381
13294W        W79835   7.663   5.228   3.223
13295W        W79836  14.759  14.769  13.385
13296W        W79837  25.165  43.447   4.317
13297W        W79838  37.483  21.968   3.611
13298W        W79839  38.253  21.164   0.202
13299W        W79840  42.374  34.124   2.852
13300W        W79841  30.638  34.136   3.846
13301W        W79842  36.206  26.550   2.897
13302W        W79843  19.087  28.630  14.430
13303W        W79844  13.877  27.158   2.439
13304W        W79845  25.613  40.009   4.286
13305W        W79846  10.097  28.989   2.302
13306W        W79847  42.320  11.125  10.769
13307W        W79848   5.836  22.475   2.046
13308W        W79849  21.590   2.995  10.514
13309W        W79850   4.026  22.182  14.497
13310W        W79851  24.536  10.170   1.972
13311W        W79852   9.921   0.574  12.492
13312W        W79853  40.252   8.830  12.435
13313W        W79854  31.025  15.771  11.719
13314W        W79855  14.470  44.660   1.301
13315W        W79856   3.703   9.711  13.421
13316W        W79857  31.199  32.974  14.418
13317W        W79858  34.944  38.273   2.481
13318W        W79859  11.851  16.585  11.105
13319W        W79860  30.419  32.854   1.468
13320W        W79861  43.213  36.635  11.004
13321W        W79862  32.062  22.046   1.009
13322W        W79863  14.426  36.356   1.731
13323W        W79864  42.487  40.909   3.868
13324W        W79865  28.384  16.797  12.739
13325W        W79866  24.701  11.912  11.148
13326W        W79867  34.552  17.110  13.584
13327W        W79868  21.572  38.322  13.552
13328W        W79869  27.905   2.377   4.112
13329W        W79870   7.848  39.996  13.817
13330W        W79871   2.037  36.309  13.922
13331W        W79872  25.189  41.288   2.135
13332W        W79873  28.086  34.982   1.442
13333W        W79874  14.483  14.629   2.230
13334W        W79875  35.741  19.580   2.936
13335W        W79876  37.534   7.876  11.632
13336W        W79877  13.919   3.486  11.618
13337W        W79878  38.993  24.930  10.411
13338W        W79879  13.867  17.576   4.621
13339W        W79880  34.710   1.526   2.434
13340W        W79881  30.637  33.585  11.288
13341W        W79882   7.258   1.158  13.371
13342W        W79883  44.047  41.040   4.251
13343W        W79884  26.043  30.131   2.633
13344W        W79885  29.695  11.698  13.016
13345W        W79886   2.311  41.666  13.023
13346W        W79887   7.472  34.938   4.798
13347W        W79888  32.024  29.717   4.484
13348W        W79889   0.322  25.058   0.587
13349W        W79890   9.905  14.235  12.076
13350W        W79891  36.329   9.804   2.890
13351W        W79892  38.718  29.675  13.268
13352W        W79893  11.115  41.497  13.392
13353W        W79894   4.321  26.736  10.433
13354W        W79895  12.720  28.113   3.141
13355W        W79896   9.250  21.007   1.978
13356W        W79897  38.907  25.664  13.744
13357W        W79898  15.567  35.363  14.944
13358W        W79899  16.099  28.643   3.697
13359W        W79900  17.764  26.839   1.283
13360W        W79901  44.218  16.607  14.340
13361W        W79902  21.284  32.627  13.857
13362W        W79903   2.764  35.975   3.800
13363W        W79904  36.973  40.311  13.997
13364W        W79905  34.637  18.820  10.687
13365W        W79906   8.811  12.850  14.311
13366W        W79907  43.519  39.367  13.150
13367W        W79908  25.959  37.032  14.036
13368W        W79909  38.380  20.635  12.064
13369W        W79910  19.610   5.749  13.862
13370W        W79911  41.031  39.905  13.027
13371W        W79912   0.392  32.669  14.770
13372W        W79913  10.028  13.458   3.762
13373W        W79914  26.525  18.276  14.651
13374W        W79915  22.541  31.842  14.051
13375W        W79916   7.233  41.091  12.094
13376W        W79917  35.074  22.002  12.891
13377W        W79918  42.402  31.416   1.884
13378W        W79919  34.174   3.797   4.554
13379W        W79920  43.521  14.338  14.810
13380W        W79921  35.341   0.338   2.648
13381W        W79922  13.707  26.921   1.526
13382W        W79923   2.354  13.989   3.287
13383W        W79924   0.894  12.808   4.131
13384W        W79925  22.085  14.590   4.697
13385W        W79926   6.638  34.964   2.720
13386W        W79927  34.946  34.911   0.001
13387W        W79928  36.098  26.491   1.877
13388W        W79929  38.437   5.037  13.921
13389W        W79930  13.560  33.557   3.846
13390W        W79931   9.742   0.019  13.404
13391W        W79932   5.947  42.399   0.453
13392W        W79933   8.345  35.839  10.990
13393W        W79934  26.992  30.567   1.380
13394W        W79935  13.724  30.931  14.286
13395W        W79936   2.795  34.321  13.399
13396W        W79937  30.697  23.952  11.719
13397W        W79938  16.792   1.472   2.210
13398W        W79939   4.492  40.371  12.783
13399W        W79940  14.127  26.838   2.070
13400W        W79941   8.611  32.416   1.909
13401W        W79942  30.646   5.414  12.266
13402W        W79943  12.372  14.822  11.730
13403W        W79944  21.394  12.203  10.339
13404W        W79945  20.697   7.834   2.851
13405W        W79946  38.036  21.739   4.336
13406W        W79947  18.139   8.745   4.769
13407W        W79948  20.723  33.845  10.674
13408W        W79949  42.368   3.481  12.322
13409W        W79950   5.025  32.946  10.670
13410W        W79951  20.718   8.864   1.401
13411W        W79952   7.992  13.252  11.158
13412W        W79953   2.496  18.031  10.621
13413W        W79954  29.923  32.986   1.494
13414W        W79955  15.918  39.936   1.640
13415W        W79956  40.248   4.582   3.382
13416W        W79957   7.969   2.284   4.208
13417W        W79958  37.338  34.898   3.152
13418W        W79959  36.484  18.832   4.261
13419W        W79960  22.085  34.418  14.465
13420W        W79961  37.662  42.525   2.904
13421W        W79962  39.545  32.467  10.869
13422W        W79963   9.111   9.704   4.820
13423W        W79964   2.912  15.087   1.900
13424W        W79965  40.249  36.944   4.209
13425W        W79966  21.294  42.410  11.575
13426W        W79967   5.282  34.657  12.966
13427W        W79968  27.457  30.325  12.737
13428W        W79969  24.566  21.266   0.818
13429W        W79970  13.955  40.032   0.815
13430W        W79971  42.302  22.695  10.770
13431W        W79972  35.503  42.216  14.062
13432W        W79973   2.804  12.238  13.078
13433W        W79974  15.794  32.753   4.509
13434W        W79975  19.971  36.824   0.914
13435W        W79976  17.128  29.281  12.429
13436W        W79977  25.709  21.315   1.948
13437W        W79978   3.854  24.578  13.779
13438W        W79979  24.542  30.926   1.808
13439W        W79980  39.651  36.874   2.433
13440W        W79981  19.268   9.449   4.689
13441W        W79982  12.940  35.871  14.398
13442W        W79983  39.355   0.761  10.816
13443W        W79984  24.978  28.564  14.897
13444W        W79985  34.497  32.972   0.574
13445W        W79986  33.900  10.105  12.559
13446W        W79987  33.176  36.523   4.553
13447W        W79988  28.397   6.493   4.526
13448W        W79989  12.341  21.991   4.143
13449W        W79990  17.893  43.559   3.484
13450W        W79991  29.837  31.471   1.462
13451W        W79992  40.132  15.448   3.678
13452W        W79993   4.522  31.209  10.473
13453W        W79994   6.686  21.922   0.990
13454W        W79995  35.057  24.787  14.673
13455W        W79996  33.033  11.845   3.792
13456W        W79997  26.567  20.480  13.525
13457W        W79998   4.877  28.739  13.917
13458W        W79999   3.422  15.262   2.841
13459W        W80000  19.070  19.101  12.482
13460W        W80001  29.424  21.491   3.795
13461W        W80002  39.297   8.637   1.915
13462W        W80003  13.862  28.463   4.108
13463W        W80004  12.801  20.744   1.881
13464W        W80005   0.238   5.283   0.744
13465W        W80006  34.318  34.451   1.812
13466W        W80007   5.802  28.005  14.523
13467W        W80008  29.478  26.654   3.282
13468W        W80009   4.028  14.733   1.503
13469W        W80010  34.477  17.841   0.329
13470W        W80011  25.523  31.054   3.211
13471W        W80012  43.911  37.879  13.323
13472W        W80013   9.689  34.903  11.267
13473W        W80014  29.950   5.884   2.284
13474W        W80015  44.854  38.409  13.480
13475W        W80016  41.184   0.687   0.776
13476W        W80017  14.147  34.686  12.065
13477W        W80018  19.254  17.688  10.448
13478W        W80019  12.144  38.587   3.784
13479W        W80020  20.123   4.315   1.928
13480W        W80021  21.224  12.874   3.515
13481W        W80022  32.578  20.709   2.160
13482W        W80023  38.515  20.055   4.177
13483W        W80024  14.145  43.271  11.916
13484W        W80025  38.876  33.976   0.377
13485W        W80026   4.568  14.159   2.693
13486W        W80027  17.320  25.223  12.121
13487W        W80028  31.484  25.368  13.225
13488W        W80029  10.954  31.199   3.197
13489W        W80030  12.747   9.709  14.822
13490W        W80031  26.984  14.025   2.651
13491W        W80032  18.666  36.315   3.603
13492W        W80033  24.231  25.667  13.462
13493W        W80034  16.586  21.479   0.383
13494W        W80035  14.077   5.012  14.720
13495W        W80036   0.860  17.152  13.098
13496W        W80037  12.838  33.581  11.954
13497W        W80038  34.558   1.990  12.156
13498W        W80039   3.851   6.956  11.619
13499W        W80040  41.792  20.819  11.153
13500W        W80041  15.468  37.920  12.720
13501W        W80042  12.581  28.966   1.686
13502W        W80043   9.798  32.882   1.357
13503W        W80044   0.861  42.656  11.144
13504W        W80045  44.796  11.099  14.390
13505W        W80046  16.389  13.124   1.482
13506W        W80047  13.291  24.637  14.515
13507W        W80048  12.386  25.099   3.366
13508W        W80049  41.953   3.481  11.522
13509W        W80050  10.952  11.200  11.115
13510W        W80051  34.198  36.929  12.002
13511W        W80052  32.479   1.814   9.784
13512W        W80053  33.407  21.953  13.594
13513W        W80054  26.161  26.959   2.207
13514W        W80055  15.216  14.653   1.108
13515W        W80056   0.384  20.997   1.748
13516W        W80057  40.745   6.843   2.695
13517W        W80058  28.401  34.976   2.654
13518W        W80059  18.951  27.408  13.048
13519W        W80060  14.142  12.074   0.408
13520W        W80061   7.692   8.931  13.631
13521W        W80062   1.669  41.584   4.250
13522W        W80063  24.060  26.835   0.254
13523W        W80064  12.847   6.303   4.232
13524W        W80065  29.871   1.735   4.623
13525W        W80066  31.713  39.032   4.100
13526W        W80067  39.132  35.563  12.525
13527W        W80068  27.279  27.598   0.740
13528W        W80069  36.354  16.830   0.277
13529W        W80070  12.817  44.288  13.928
13530W        W80071  22.847  44.364  12.020
13531W        W80072  28.945  40.477   4.585
13532W        W80073   7.318  27.983  15.000
13533W        W80074  43.584  35.965   3.023
13534W        W80075  25.047   5.907  10.315
13535W        W80076  15.394  38.165   0.443
13536W        W80077  40.409   3.532  12.096
13537W        W80078   6.496  40.506  12.958
13538W        W80079  15.623  13.178   2.283
13539W        W80080  16.901   8.342   3.842
13540W        W80081  38.919  30.434   2.660
13541W        W80082  27.147   8.768   4.663
13542W        W80083  23.243  16.885   1.867
13543W        W80084  29.515   1.414   4.349
13544W        W80085  38.677  30.123  11.156
13545W        W80086  19.025  24.801   2.874
13546W        W80087  41.465   9.147   3.987
13547W        W80088   8.777   7.682  14.884
13548W        W80089  28.178  15.826  11.539
13549W        W80090  43.579  39.471   4.415
13550W        W80091  38.894  35.774  11.206
13551W        W80092  17.115  31.481  13.460
13552W        W80093  25.358   4.065  10.473
13553W        W80094   2.145   4.445   3.245
13554W        W80095   8.544  29.027   3.316
13555W        W80096   9.107  33.524   0.032
13556W        W80097  34.309  35.521   0.450
13557W        W80098  38.747  29.667   3.143
13558W        W80099  35.334  25.430  11.462
13559W        W80100  41.356  28.959   3.680
13560W        W80101  36.599  40.161  11.492
13561W        W80102  42.533  28.077  12.953
13562W        W80103  30.597  43.732   2.978
13563W        W80104  26.138  40.073  12.525
13564W        W80105  30.603  23.326  14.506
13565W        W80106  23.026   0.796  12.043
13566W        W80107  30.331  10.365  14.870
13567W        W80108  29.595  38.570  11.584
13568W        W80109  15.259   9.133  12.434
13569W        W80110   7.344  24.528  10.726
13570W        W80111  30.953  24.720  13.443
13571W        W80112   0.482  15.596  11.694
13572W        W80113  35.876  19.654   1.538
13573W        W80114  31.760  10.150   3.856
13574W        W80115  40.744  33.321   4.461
13575W        W80116   0.474  34.396   3.793
13576W        W80117  42.365  33.702   1.641
13577W        W80118  18.380   0.858   5.039
13578W        W80119  12.872  41.977  14.465
13579W        W80120  11.526   7.675   3.194
13580W        W80121  36.612   1.016   1.359
13581W        W80122  19.217  16.603  12.398
13582W        W80123  21.827  41.432   5.012
13583W        W80124  26.905  11.161   4.382
13584W        W80125  26.812   7.337  13.475
13585W        W80126   2.919  35.552   1.691
13586W        W80127  37.639   3.260  10.259
13587W        W80128  10.590  21.706  13.336
13588W        W80129  30.096  28.783  11.798
13589W        W80130   9.263  37.008  10.700
13590W        W80131  43.367  34.014   0.224
13591W        W80132  29.410   5.327  11.008
13592W        W80133   3.927  44.923  13.012
13593W        W80134   8.691  35.457  12.102
13594W        W80135  14.304  13.130  11.818
13595W        W80136  23.978  16.013  14.279
13596W        W80137  35.699   6.250   3.596
13597W        W80138   3.814  42.731   4.171
13598W        W80139  25.220   5.617   0.324
13599W        W80140  25.578  38.502  13.102
13600W        W80141  11.655  32.512   3.038
13601W        W80142  23.574  10.177  12.618
13602W        W80143  19.955  37.874  12.120
13603W        W80144  18.397  27.439  12.458
13604W        W80145  18.455  30.861   1.355
13605W        W80146  41.158  35.838  12.557
13606W        W80147  36.913  38.584  14.818
13607W        W80148  27.705  41.500   4.137
13608W        W80149  27.106   9.312  14.602
13609W        W80150   7.539  33.303  11.641
13610W        W80151  28.106  43.486   3.715
13611W        W80152  31.592  30.985  12.094
13612W        W80153  12.138   9.757  12.880
13613W        W80154   3.824   2.339  11.654
13614W        W80155   9.247  30.446   1.562
13615W        W80156   0.117  10.329   3.239
13616W        W80157  35.836  33.651  13.981
13617W        W80158  41.426  21.139  11.897
13618W        W80159  43.287  13.316   3.682
13619W        W80160   0.682  36.897   3.422
13620W        W80161  32.507   4.600  10.959
13621W        W80162  42.923   0.422  12.325
13622W        W80163  16.225  24.319   4.372
13623W        W80164  38.896  28.138   3.618
13624W        W80165   8.191  34.695  13.900
13625W        W80166   8.882  38.365  13.003
13626W        W80167  13.372   6.288   4.343
13627W        W80168  22.763   9.760  13.415
13628W        W80169  14.344   3.756  10.769
13629W        W80170   9.426  12.394  12.988
13630W        W80171  19.043  17.661   3.060
13631W        W80172   3.167  38.610   5.117
13632W        W80173  28.463  27.708  10.113
13633W        W80174  40.476  21.230  13.520
13634W        W80175   9.819  38.198   2.294
13635W        W80176  29.366  10.829   3.061
13636W        W80177  24.586   9.717  13.911
13637W        W80178  26.802  37.088  13.435
13638W        W80179  25.196   2.311   0.285
13639W        W80180  18.602  22.463  11.642
13640W        W80181  22.284  15.857  11.088
13641W        W80182  42.491  15.477  13.500
13642W        W80183  18.534  44.376   3.396
13643W        W80184  25.107  42.340  11.626
13644W        W80185  40.047  41.088   2.138
13645W        W80186   1.862  40.482   1.256
13646W        W80187  22.927  17.210  10.696
13647W        W80188   1.346  20.818  13.674
13648W        W80189   8.473  42.218  10.645
13649W        W80190  40.907   5.920  12.411
13650W        W80191  30.664   8.673   3.939
13651W        W80192  35.880  36.356  13.883
13652W        W80193  20.399  36.376  10.724
13653W        W80194  21.126  25.255   4.120
13654W        W80195  31.435   7.135  13.211
13655W        W80196  14.377  16.047  13.496
13656W        W80197  38.577  42.207   0.368
13657W        W80198  15.223  32.912  12.901
13658W        W80199   6.853  39.323   3.724
13659W        W80200  37.483  33.210  10.624
13660W        W80201  39.884  26.069  13.906
13661W        W80202  20.198   8.704   1.639
13662W        W80203  11.671   1.195   4.200
13663W        W80204  43.336  29.105   4.216
13664W        W80205   9.221  43.839  11.313
13665W        W80206  42.476  35.671   3.644
13666W        W80207  25.198  42.797   3.152
13667W        W80208  13.616  18.424  11.291
13668W        W80209  11.558  15.758   0.281
13669W        W80210  43.497  13.562   3.252
13670W        W80211  25.044  37.170   2.606
13671W        W80212   9.380   9.245  10.978
13672W        W80213  33.218  42.824  13.628
13673W        W80214  14.786  40.677  12.940
13674W        W80215  40.565  44.502  10.657
13675W        W80216  38.780  16.343  13.718
13676W        W80217  32.311  17.983  13.245
13677W        W80218  38.203  43.414  12.312
13678W        W80219  34.932   6.836  13.678
13679W        W80220  22.143  15.508  10.265
13680W        W80221  30.566  18.174   3.548
13681W        W80222  34.912  32.250  12.480
13682W        W80223  44.323  39.631   0.264
13683W        W80224  31.395  31.411   3.674
13684W        W80225  39.089  28.587   4.601
13685W        W80226  29.894  22.967   2.232
13686W        W80227  26.714  44.091  11.255
13687W        W80228  29.982   7.864  11.062
13688W        W80229  11.927  22.690  13.624
13689W        W80230  31.974  14.395   4.198
13690W        W80231  42.828  16.617   2.986
13691W        W80232   7.248  26.591   4.182
13692W        W80233  24.907   3.257   4.329
13693W        W80234  29.666  29.517   4.590
13694W        W80235   2.728  15.708   4.300
13695W        W80236  33.011  12.348   2.814
13696W        W80237  29.016  44.835   0.421
13697W        W80238  18.370   5.672  14.390
13698W        W80239  17.246  30.355  13.139
13699W        W80240  40.455  34.903  14.483
13700W        W80241  32.865  34.710   1.771
13701W        W80242  37.552  24.540  11.184
13702W        W80243  37.962  14.193   3.876
13703W        W80244   0.393  27.219  12.962
13704W        W80245  41.470  31.263  14.576
13705W        W80246  21.805  23.356   3.644
13706W        W80247   7.418  13.634  13.071
13707W        W80248  40.321  33.219   0.976
13708W        W80249  28.445  26.761   4.734
13709W        W80250  27.497   0.293   0.440
13710W        W80251  34.615  43.411   3.810
13711W        W80252  30.754   6.002  14.498
13712W        W80253   7.822  11.840  10.760
13713W        W80254   5.517  40.118   1.237
13714W        W80255  39.146  44.296  11.637
13715W        W80256  26.846   1.878  13.915
13716W        W80257  33.044  15.649   2.180
13717W        W80258  33.452  33.900   2.817
13718W        W80259  29.510  28.498  13.031
13719W        W80260   7.033  27.138  12.355
13720W        W80261  22.577   7.098   0.815
13721W        W80262   7.839  24.303  12.113
13722W        W80263  26.463  41.923  13.362
13723W        W80264  18.096  43.676   4.349
13724W        W80265  38.704   1.889   2.598
13725W        W80266   7.193   6.799   3.787
13726W        W80267  27.065  36.712  14.410
13727W        W80268  12.022  29.015   0.839
13728W        W80269  24.678   5.602   0.715
13729W        W80270  42.251  40.375  10.525
13730W        W80271  32.052  14.874  13.931
13731W        W80272  37.512   0.740  11.141
13732W        W80273  11.434  24.501  14.246
13733W        W80274   7.176  27.029   0.216
13734W        W80275  25.156  39.596  14.420
13735W        W80276   0.918  18.544  14.832
13736W        W80277  32.324   5.277   1.435
13737W        W80278  26.107  11.212   1.111
13738W        W80279  12.187   9.632   3.572
13739W        W80280  21.994  23.603   2.836
13740W        W80281  39.478  39.568  11.107
13741W        W80282  15.532  28.435   0.331
13742W        W80283  17.009   7.409  12.531
13743W        W80284  43.540  23.830   1.393
13744W        W80285  35.660  20.685   2.784
13745W        W80286  23.990   3.399   3.633
13746W        W80287  23.775  22.003  13.204
13747W        W80288  32.610  26.335   1.189
13748W        W80289   7.695   7.645  12.926
13749W        W80290  12.521  43.006   3.825
13750W        W80291  35.822  35.612  14.307
13751W        W80292  32.412  40.220  12.940
13752W        W80293  40.823  13.375   3.295
13753W        W80294  33.008  43.274   3.854
13754W        W80295  19.639   0.988   1.301
13755W        W80296  31.712  38.645  11.262
13756W        W80297  36.089   9.881   4.823
13757W        W80298  28.660  43.183  13.022
13758W        W80299  17.062   1.929   1.798
13759W        W80300  39.348  30.615  10.639
13760W        W80301  31.130   4.559  10.614
13761W        W80302  43.301   1.732  13.482
13762W        W80303  31.056  10.137  10.711
13763W        W80304  19.852   1.397   2.183
13764W        W80305  43.281   2.338   0.670
13765W        W80306  33.939  29.514   0.820
13766W        W80307   0.787  29.145  11.208
13767W        W80308  22.238  33.776  11.989
13768W        W80309   8.168   6.257   0.755
13769W        W80310  22.154  37.680  13.833
13770W        W80311   3.423  31.329   0.324
13771W        W80312   7.941  22.684  14.326
13772W        W80313  14.193  42.487  12.858
13773W        W80314   6.930  40.619  13.258
13774W        W80315  11.573  30.031   1.812
13775W        W80316  40.834  43.638  14.645
13776W        W80317   9.610   9.111  14.186
13777W        W80318  34.075  37.218  12.406
13778W        W80319  38.613   2.756  14.850
13779W        W80320   0.321  37.911   3.333
13780W        W80321   7.309  35.341  12.153
13781W        W80322  22.513  10.999  13.830
13782W        W80323  28.332   4.163  12.601
13783W        W80324  11.733  35.880  14.927
13784W        W80325  22.735  39.563  14.758
13785W        W80326  10.085   5.223  12.831
13786W        W80327  37.874   6.615  12.536
13787W        W80328  11.068  39.436  14.578
13788W        W80329  21.127   4.139  13.074
13789W        W80330   1.306  35.227  14.121
13790W        W80331  19.662   7.407   0.351
13791W        W80332   6.122  44.819  14.896
13792W        W80333  24.122  18.245  13.916
13793W        W80334   7.192   2.208  10.694
13794W        W80335  33.465  13.253   0.374
13795W        W80336  10.433  26.257   3.970
13796W        W80337  33.465  35.324  11.604
13797W        W80338  39.262  17.663   0.257
13798W        W80339  32.356  40.471  12.461
13799W        W80340  32.127  20.129   4.318
13800W        W80341  37.067  29.769  13.848
13801W        W80342  30.559   4.281   0.407
13802W        W80343  11.191   1.371   1.288
13803W        W80344  28.792  41.653  13.026
13804W        W80345   7.845   2.392   1.317
13805W        W80346  41.049   4.770   0.406
13806W        W80347   7.589  11.488  11.072
13807W        W80348  41.373  16.075   2.689
13808W        W80349   9.753  29.261   4.624
13809W        W80350  35.919  12.357   4.773
13810W        W80351  15.619  40.016   0.377
13811W        W80352   2.513  23.001   0.287
13812W        W80353  29.614  18.670   4.567
13813W        W80354  23.630   9.004   0.309
13814W        W80355  26.914   5.112   4.524
13815W        W80356  26.172  36.860  11.736
13816W        W80357   9.864   0.300   0.149
13817W        W80358  44.712  43.588   0.589
13818W        W80359  25.197  38.420   3.235
13819W        W80360  38.882  33.609   1.732
13820W        W80361  40.823  17.716   0.752
13821W        W80362   6.434   6.716   2.446
13822W        W80363  40.959  44.440  13.161
13823W        W80364  30.175  44.231   4.366
13824W        W80365  29.144   8.589  13.437
13825W        W80366  19.986  17.612   4.115
13826W        W80367   8.842  21.544  11.216
13827W        W80368   2.767  14.724   0.239
13828W        W80369  32.601  14.230   0.154
13829W        W80370  33.973  20.023   4.849
13830W        W80371  43.395  35.771   2.032
13831W        W80372   0.448  17.454   4.347
13832W        W80373   7.683  10.863   1.241
13833W        W80374  10.412  10.334  13.140
13834W        W80375  17.273  20.066   3.646
13835W        W80376  26.882   1.818  12.851
13836W        W80377   2.655  29.638   3.880
13837W        W80378  14.732  39.216   0.023
13838W        W80379   5.792   0.036  14.389
13839W        W80380  17.975   2.347   0.100
13840W        W80381  40.509  12.046   0.966
13841W        W80382  30.070  40.767   1.737
13842W        W80383   0.542  22.041  10.518
13843W        W80384  30.516  39.891   3.326
13844W        W80385   2.416  33.842   1.911
13845W        W80386  19.052  28.957  11.073
13846W        W80387   5.354  16.488  12.913
13847W        W80388   3.607  44.951  10.213
13848W        W80389  17.114   4.499  14.887
13849W        W80390  36.292  12.306  11.031
13850W        W80391  15.841  36.534   4.189
13851W        W80392  16.578  39.718  12.605
13852W        W80393  36.866   9.667   3.732
13853W        W80394   3.724  33.181   3.199
13854W        W80395  38.348  35.340  11.969
13855W        W80396   2.859  34.813   3.590
13856W        W80397   5.706  10.010   1.908
13857W        W80398   8.174   0.303   3.687
13858W        W80399  24.516   8.495   0.378
13859W        W80400  22.473  17.290   4.094
13860W        W80401   6.961  28.529  13.743
13861W        W80402  44.998  24.477  11.499
13862W        W80403  17.002  22.136  11.280
13863W        W80404  42.992  16.259   2.622
13864W        W80405  18.522  21.539   3.634
13865W        W80406  37.975  17.140  13.768
13866W        W80407  10.760  22.246  11.566
13867W        W80408   7.358  16.320   4.144
13868W        W80409  36.599   7.896  10.674
13869W        W80410  24.074  26.886  10.653
13870W        W80411  37.910  31.070  13.964
13871W        W80412  39.492  13.450  12.067
13872W        W80413  15.272  37.625  12.315
13873W        W80414  17.758  19.837  14.733
13874W        W80415   5.489  22.764  12.071
13875W        W80416  41.330  15.806  12.459
13876W        W80417  40.530   0.793  12.120
13877W        W80418  17.312  27.545   0.654
13878W        W80419  10.447  21.639  14.882
13879W        W80420  24.062   1.808  14.399
13880W        W80421  36.781  27.939   9.733
13881W        W80422  38.306   7.296   3.793
13882W        W80423  15.906   5.777  14.639
13883W        W80424  42.651  24.728  14.897
13884W        W80425  37.137  22.758   1.567
13885W        W80426   6.702  31.512   0.747
13886W        W80427  40.961  26.022   3.750
13887W        W80428   8.647  40.097  13.887
13888W        W80429  34.034  14.637   4.657
13889W        W80430  31.912  20.255  14.414
13890W        W80431   9.711   1.229   2.272
13891W        W80432  24.656  28.437   0.866
13892W        W80433  40.777  12.287   2.437
13893W        W80434  22.071  12.145   1.921
13894W        W80435  18.913  16.557  14.255
13895W        W80436  37.573  10.098  12.045
13896W        W80437  38.713   8.084  12.041
13897W        W80438  26.981  32.556  12.995
13898W        W80439   6.226  28.525  11.495
13899W        W80440  37.195  22.864  12.785
13900W        W80441   8.968   2.474   4.992
13901W        W80442   3.474   2.815  13.045
13902W        W80443  12.141  25.524   2.111
13903W        W80444   7.200  26.969   4.694
13904W        W80445  30.193  26.025   4.264
13905W        W80446  37.846  23.225  11.609
13906W        W80447  11.470  44.456   3.206
13907W        W80448   1.022   9.349  10.743
13908W        W80449   3.480  19.726  11.730
13909W        W80450  33.544   4.191  13.256
13910W        W80451  11.381  25.962  11.159
13911W        W80452  10.685  44.425  12.713
13912W        W80453   0.207  44.513   0.531
13913W        W80454  14.101  18.092  11.534
13914W        W80455  23.928   9.784   2.215
13915W        W80456   9.680  11.789  14.618
13916W        W80457  10.724   9.192  11.258
13917W        W80458  24.049  41.301  10.722
13918W        W80459  29.607  22.966   3.650
13919W        W80460  21.243  20.966  11.941
13920W        W80461  27.875  38.027  13.218
13921W        W80462   1.357   7.723  14.238
13922W        W80463  15.995  33.916   1.224
13923W        W80464  38.792  20.218   1.008
13924W        W80465  40.369  34.188  11.634
13925W        W80466  40.257  10.094   2.071
13926W        W80467  28.669  33.116  14.475
13927W        W80468  36.324   8.738  14.492
13928W        W80469  42.621  44.735  14.300
13929W        W80470  38.820  28.760   4.201
13930W        W80471   7.874  27.591  11.515
13931W        W80472  20.159   4.272  14.424
13932W        W80473   5.966   2.998  13.125
13933W        W80474  40.289  42.973  10.211
13934W        W80475  17.320  38.623   3.768
13935W        W80476  13.405  37.861   1.299
13936W        W80477  37.965   1.263   0.771
13937W        W80478  32.448   4.791   1.317
13938W        W80479  17.963  21.740   4.567
13939W        W80480  12.795  14.114   4.687
13940W        W80481  44.212   3.522  14.045
13941W        W80482   5.358  35.016   4.442
13942W        W80483   8.395  27.887   3.651
13943W        W80484  18.147  15.020  14.730
13944W        W80485  29.760  44.059   3.163
13945W        W80486  32.193  32.932   1.233
13946W        W80487  11.243  39.894   5.025
13947W        W80488  26.573  44.379  12.711
13948W        W80489  18.595  30.502  13.056
13949W        W80490  30.083  36.313   2.143
13950W        W80491  26.960  13.345  13.016
13951W        W80492  15.987  20.041   1.218
13952W        W80493   8.599  36.582  12.452
13953W        W80494  32.239  18.331   2.735
13954W        W80495  28.160  24.092  12.819
13955W        W80496  27.018  25.964  12.093
13956W        W80497  38.905  19.660   1.686
13957W        W80498   0.822  24.308  14.902
13958W        W80499  10.339   3.279   3.565
13959W        W80500  11.913  37.376  12.586
13960W        W80501  20.286  16.260   4.178
13961W        W80502  32.026   1.940  14.519
13962W        W80503   9.435  10.206  14.429
13963W        W80504  24.346  41.851   4.242
13964W        W80505   7.846  39.304   3.705
13965W        W80506   0.856  27.932  12.676
13966W        W80507  37.770  10.902  14.850
13967W        W80508  14.446   1.497   0.407
13968W        W80509   2.996  17.388  12.367
13969W        W80510  31.706  33.098   3.080
13970W        W80511  23.207  31.346   0.298
13971W        W80512  29.492   9.580   1.422
13972W        W80513  38.160  33.017   4.681
13973W        W80514  26.442  15.726  12.965
13974W        W80515  17.596  23.980   2.934
13975W        W80516  24.495   8.763   3.628
13976W        W80517  16.852  14.711   5.545
13977W        W80518  44.925  30.103   3.895
13978W        W80519  12.267  30.817   2.803
13979W        W80520  28.919  22.603  11.438
13980W        W80521  32.862   9.402  12.063
13981W        W80522   4.154  36.476  11.218
13982W        W80523  42.475   8.426  11.550
13983W        W80524  33.905  44.519   2.644
13984W        W80525  43.253  38.325   2.912
13985W        W80526  28.988   0.736  12.881
13986W        W80527  21.707  35.030   1.678
13987W        W80528  18.792  40.404   1.245
13988W        W80529   9.860  22.592  13.399
13989W        W80530  44.313   3.243   1.809
13990W        W80531  42.955  31.059   2.656
13991W        W80532   8.267   7.233  13.269
13992W        W80533  43.389   8.284   4.547
13993W        W80534  32.979  22.954  11.082
13994W        W80535  37.744  22.085   4.598
13995W        W80536  17.599  24.804  12.046
13996W        W80537  26.926  15.680   3.237
13997W        W80538   5.664   5.304  14.440
13998W        W80539  36.536  30.077  12.965
13999W        W80540  40.322  36.209   1.288
14000W        W80541   8.093  21.052   4.114
14001W        W80542  26.820  28.977   0.960
14002W        W80543  17.097  41.299   4.108
14003W        W80544  40.807  38.044  14.418
14004W        W80545  21.053  20.083   0.254
14005W        W80546  36.965  38.249  14.446
14006W        W80547  39.333  35.353   0.476
14007W        W80548   1.934   4.974   4.476
14008W        W80549  33.035  36.083   4.823
14009W        W80550   5.162  20.699   4.570
14010W        W80551  24.275  14.336  12.107
14011W        W80552  26.015  13.207  11.640
14012W        W80553  34.489  21.330   3.776
14013W        W80554  30.154  35.133  12.968
14014W        W80555  14.833  42.357  13.486
14015W        W80556  11.775  35.618   1.814
14016W        W80557  43.274   6.333   1.474
14017W        W80558  44.122   4.328  12.896
14018W        W80559  18.674   0.493  14.469
14019W        W80560  41.032  43.880  13.837
14020W        W80561   9.904  43.164  10.014
14021W        W80562   1.814  22.723   0.949
14022W        W80563  18.364  43.358  13.096
14023W        W80564  10.726   9.517  13.979
14024W        W80565  42.251  21.517   4.404
14025W        W80566   8.389  34.535   4.791
14026W        W80567  31.425  15.152   9.833
14027W        W80568  16.659   4.402   2.858
14028W        W80569   9.946   7.741  13.532
14029W        W80570   0.391   4.318   0.318
14030W        W80571  16.418  19.380  13.435
14031W        W80572  21.442  35.690  14.012
14032W        W80573  18.635   3.002  12.358
14033W        W80574  12.812  30.353   0.039
14034W        W80575  34.293  12.121   3.196
14035W        W80576  30.773  17.337   4.548
14036W        W80577  19.581  30.613  11.645
14037W        W80578  23.185  30.941  14.883
14038W        W80579  12.945   0.375  11.698
14039W        W80580  30.379  17.848   0.884
14040W        W80581   5.460   2.815   0.302
14041W        W80582  38.065  25.718  12.540
14042W        W80583  32.645   8.669  14.421
14043W        W80584  21.207   7.867  14.502
14044W        W80585  42.457  32.623   4.173
14045W        W80586  19.519  18.094   3.587
14046W        W80587   1.826  28.933   1.239
14047W        W80588   9.114  34.858  12.114
14048W        W80589  19.739   9.284   4.553
14049W        W80590   0.533  17.200   3.071
14050W        W80591  34.508  29.668   2.960
14051W        W80592  23.836  18.748   4.297
14052W        W80593   8.371  13.971  10.619
14053W        W80594   6.321   0.221   3.763
14054W        W80595   4.337  13.648   4.116
14055W        W80596  22.822  44.871  12.427
14056W        W80597   8.240  22.015  12.746
14057W        W80598  23.504  31.875   4.546
14058W        W80599  37.047   2.801   0.813
14059W        W80600  44.407  38.318  11.543
14060W        W80601   8.353  30.576  12.789
14061W        W80602  15.213  35.514   1.275
14062W        W80603   4.994  36.266   1.629
14063W        W80604  17.151  36.859  13.318
14064W        W80605  18.296  21.746   0.443
14065W        W80606  16.861  13.152  14.809
14066W        W80607  43.678   3.456   1.027
14067W        W80608  15.117   7.782   0.292
14068W        W80609  27.241  40.399  11.923
14069W        W80610  28.615  37.510  14.467
14070W        W80611  16.530   1.921   2.264
14071W        W80612  32.803  44.834  11.860
14072W        W80613  11.460  11.848  11.648
14073W        W80614   9.335  26.279  12.567
14074W        W80615   2.312  20.261   3.023
14075W        W80616  11.218  11.383  12.393
14076W        W80617  36.723  16.172   0.853
14077W        W80618  40.712  35.202   3.858
14078W        W80619  33.733  10.163   4.489
14079W        W80620  36.743  23.682  14.891
14080W        W80621  20.725  32.805   4.626
14081W        W80622  32.350  41.668   2.579
14082W        W80623  18.203   0.890  11.534
14083W        W80624  30.830  16.457   0.595
14084W        W80625  29.991  39.857  11.664
14085W        W80626   9.443  25.653   4.168
14086W        W80627   5.384  10.302  11.529
14087W        W80628  42.277  31.360  13.155
14088W        W80629  28.330  11.243  11.961
14089W        W80630  32.919  25.778   3.707
14090W        W80631  36.891  22.056  14.398
14091W        W80632  38.426  23.170   4.377
14092W        W80633  22.897   9.344   2.266
14093W        W80634  20.868  34.570   1.691
14094W        W80635  36.291  30.132  10.756
14095W        W80636  30.179  10.363  12.096
14096W        W80637  26.242   1.908   1.196
14097W        W80638   4.805  28.004  14.474
14098W        W80639  18.117  33.974  10.721
14099W        W80640  19.270  24.448  14.442
14100W        W80641  40.694  24.716   1.723
14101W        W80642  41.347  28.966  14.397
14102W        W80643  15.089  44.222  13.563
14103W        W80644  41.502  15.042   2.127
14104W        W80645  18.602  27.118   1.003
14105W        W80646  29.927  34.746   4.819
14106W        W80647  25.165  26.627   1.401
14107W        W80648  12.859   1.166   4.598
14108W        W80649  13.226  27.459   4.539
14109W        W80650   4.887  36.870  12.499
14110W        W80651  26.473  43.957  13.942
14111W        W80652  43.488  15.752   1.949
14112W        W80653  19.915  37.786   0.684
14113W        W80654   1.777  34.263  12.896
14114W        W80655  13.163   8.990  13.494
14115W        W80656  22.974  21.464  11.159
14116W        W80657   4.651  10.111   9.974
14117W        W80658  26.270   9.323  12.687
14118W        W80659  18.822   0.499   4.133
14119W        W80660  16.198   8.011  12.872
14120W        W80661   6.302   0.494   0.985
14121W        W80662  43.481  12.139   4.037
14122W        W80663  18.366  11.777  14.058
14123W        W80664  10.543  42.285  11.964
14124W        W80665   0.492  20.789   0.417
14125W        W80666   7.657   3.414  12.955
14126W        W80667   5.127  28.043   5.034
14127W        W80668  23.737  44.945  14.274
14128W        W80669  35.988  44.035   0.498
14129W        W80670  42.913  14.030   3.712
14130W        W80671  39.977  19.518  12.612
14131W        W80672  37.084  39.059  12.057
14132W        W80673  22.381  31.638  12.387
14133W        W80674  43.937  28.623   3.362
14134W        W80675   8.818  10.368  12.538
14135W        W80676  31.589  26.820  14.249
14136W        W80677  21.108   3.639   3.359
14137W        W80678   4.435  26.686  11.432
14138W        W80679  24.514  34.570   4.586
14139W        W80680  38.055  16.819  11.167
14140W        W80681  44.795  44.076  12.282
14141W        W80682   9.084  28.527   4.602
14142W        W80683  43.741  10.045  11.597
14143W        W80684  15.277  15.168   5.000
14144W        W80685  19.070  36.620  14.308
14145W        W80686  10.312  32.230  12.290
14146W        W80687  35.476  31.136   1.978
14147W        W80688  18.154  19.261  13.441
14148W        W80689  15.200   2.875   3.719
14149W        W80690  13.752  16.823   2.826
14150W        W80691  26.647   9.632  10.957
14151W        W80692   8.128  19.641   3.157
14152W        W80693   3.644  35.422  14.423
14153W        W80694   0.474  26.506   0.779
14154W        W80695  26.109  25.968  13.900
14155W        W80696  23.245   1.871  11.488
14156W        W80697  41.838  34.346   3.681
14157W        W80698  31.036   5.169  12.524
14158W        W80699  22.173  24.077   2.936
14159W        W80700  26.974  21.729   1.403
14160W        W80701   4.309  41.786  12.606
14161W        W80702  27.353   4.473  12.565
14162W        W80703  15.240   3.743  14.019
14163W        W80704   1.850  32.961   5.410
14164W        W80705  15.099   5.334   2.153
14165W        W80706  31.154  28.063  12.565
14166W        W80707  19.684  17.337  14.051
14167W        W80708   7.150  10.397   3.644
14168W        W80709  11.083  33.083  11.689
14169W        W80710  38.248  39.448  13.364
14170W        W80711  21.998  41.369  10.722
14171W        W80712   5.004   9.235  12.570
14172W        W80713  33.789  39.124   2.406
14173W        W80714  20.969  33.412  11.122
14174W        W80715  27.390  11.215   2.921
14175W        W80716   3.937  37.045  14.185
14176W        W80717  24.067  20.707   4.284
14177W        W80718  15.475   5.915   0.523
14178W        W80719  27.638  27.527   0.286
14179W        W80720   8.198   2.701   3.563
14180W        W80721   5.517   5.346  10.829
14181W        W80722   4.249  27.544   0.010
14182W        W80723  22.745   6.396  13.435
14183W        W80724  30.777  40.784   0.088
14184W        W80725  21.067  21.274   3.187
14185W        W80726  20.664  36.651  12.076
14186W        W80727  43.329  39.821   2.539
14187W        W80728  43.275  42.520  10.409
14188W        W80729   4.360   6.271   2.342
14189W        W80730  21.811  43.749  14.343
14190W        W80731  32.981  26.928   3.009
14191W        W80732  39.011   7.381   0.846
14192W        W80733  41.371  37.940   3.885
14193W        W80734  19.543  27.254   0.315
14194W        W80735  33.667  22.691  14.461
14195W        W80736   3.866  15.189   3.341
14196W        W80737  17.184  42.617  10.714
14197W        W80738   6.443  14.847  11.420
14198W        W80739  30.216   5.472   5.013
14199W        W80740  35.025  40.423  14.774
14200W        W80741  36.833  40.648  13.633
14201W        W80742   0.489  44.797  13.264
14202W        W80743  43.107   1.038  13.007
14203W        W80744  21.475  20.117  13.443
14204W        W80745  12.040  44.894  11.531
14205W        W80746  44.834  38.452  10.821
14206W        W80747  29.966  11.130  13.934
14207W        W80748  14.701   0.423   1.938
14208W        W80749   5.833   2.892  11.323
14209W        W80750  15.061   6.906   4.847
14210W        W80751  13.895  13.378   4.218
14211W        W80752  17.809  39.450  11.339
14212W        W80753   4.320  31.606  10.773
14213W        W80754  42.332  41.994  13.512
14214W        W80755  23.547  40.435  11.423
14215W        W80756  28.750  13.732  12.888
14216W        W80757   4.156   5.025   1.895
14217W        W80758   7.461   6.251   4.481
14218W        W80759  35.049  43.909   2.399
14219W        W80760  29.507   8.757  10.763
14220W        W80761  33.360   6.834   2.537
14221W        W80762  35.212   3.766   2.138
14222W        W80763  34.395  34.441   4.040
14223W        W80764  32.032  36.889   2.903
14224W        W80765  39.435  23.194   2.393
14225W        W80766  21.023  22.760  12.879
14226W        W80767  10.267   8.705   0.008
14227W        W80768  28.452  40.456  11.444
14228W        W80769   7.807  32.515  12.378
14229W        W80770  27.417  20.640   0.951
14230W        W80771  16.154  31.909   1.525
14231W        W80772  15.598  11.210  11.847
14232W        W80773  32.128  19.730   3.936
14233W        W80774  38.753  31.957   4.143
14234W        W80775  16.259  15.762  14.298
14235W        W80776  21.735  23.017  13.937
14236W        W80777  21.742   7.523   3.201
14237W        W80778  33.039   6.280  12.849
14238W        W80779  43.060  29.571   3.695
14239W        W80780  28.059  28.636   4.066
14240W        W80781  16.687  28.667  14.365
14241W        W80782  13.178  33.268  13.016
14242W        W80783   4.562   4.448   5.815
14243W        W80784  36.975  17.554   2.293
14244W        W80785  12.820   7.771  10.598
14245W        W80786  35.040   5.107   0.961
14246W        W80787   8.171  36.924   9.884
14247W        W80788   0.462   9.337  13.969
14248W        W80789  23.167   1.984  13.863
14249W        W80790   4.799  31.614   0.196
14250W        W80791  19.141   8.649  13.936
14251W        W80792   0.800  35.166   3.581
14252W        W80793  31.944  21.244   4.161
14253W        W80794  22.770  34.123   1.942
14254W        W80795  20.592  26.026   4.226
14255W        W80796  44.426  27.734   1.479
14256W        W80797   9.795  11.977  13.121
14257W        W80798   1.919  39.866  10.596
14258W        W80799  17.663   4.857  14.488
14259W        W80800  43.886  11.547  14.515
14260W        W80801   9.574  13.545   1.023
14261W        W80802  11.750  28.951  12.333
14262W        W80803   0.963  39.582   0.891
14263W        W80804  20.759  20.134  13.979
14264W        W80805  35.311  37.687   0.440
14265W        W80806  23.788  18.703   2.700
14266W        W80807   2.808  18.200   2.110
14267W        W80808  21.163  33.994  14.567
14268W        W80809  20.925  18.563   2.683
14269W        W80810  19.196  11.357   2.038
14270W        W80811  27.131  41.635  11.672
14271W        W80812  28.904   8.902  13.813
14272W        W80813   9.296   9.251   1.588
14273W        W80814  39.271  43.810   2.723
14274W        W80815  27.580  40.441  10.870
14275W        W80816   5.246   5.797  11.032
14276W        W80817   6.944  21.566   1.905
14277W        W80818  40.611  37.336   4.195
14278W        W80819  20.356  10.693   0.452
14279W        W80820  19.268  24.561   3.247
14280W        W80821  22.369  18.888   1.551
14281W        W80822  23.194   9.738   3.096
14282W        W80823  36.843  26.649  12.878
14283W        W80824  40.964   5.411  12.565
14284W        W80825  16.634  43.196  14.899
14285W        W80826  15.053  35.178   4.584
14286W        W80827  13.574  21.199   0.170
14287W        W80828  29.477  26.922   2.813
14288W        W80829  35.590  11.251   0.307
14289W        W80830  40.463  20.766   4.582
14290W        W80831  39.624  34.356   0.429
14291W        W80832   5.283  20.116   0.809
14292W        W80833  30.801  25.621  10.969
14293W        W80834  43.995  33.129   4.474
14294W        W80835   1.667  11.927   1.822
14295W        W80836  35.076  15.560   0.253
14296W        W80837  37.130  40.853  10.613
14297W        W80838   9.839  32.361   3.775
14298W        W80839   0.991  40.506   0.428
14299W        W80840  18.026   1.245   2.872
14300W        W80841  17.702   2.392   1.407
14301W        W80842  20.463   0.355  14.826
14302W        W80843  24.165  28.441  12.771
14303W        W80844  23.574  40.611  10.534
14304W        W80845   9.064  23.061   4.601
14305W        W80846  29.092  28.099   2.852
14306W        W80847   3.721  24.702   3.274
14307W        W80848   4.026  32.350   0.817
14308W        W80849  14.502   9.349   4.384
14309W        W80850  17.859  11.870   3.422
14310W        W80851  35.565  43.918   2.360
14311W        W80852   5.446  24.126  13.588
14312W        W80853  26.661  22.463  14.730
14313W        W80854   8.888  38.982  13.879
14314W        W80855  31.506  11.897  14.875
14315W        W80856  14.254  16.909   4.144
14316W        W80857  36.488  21.730  14.191
14317W        W80858  21.521  30.549   2.790
14318W        W80859  21.035  15.519  12.935
14319W        W80860  35.842   4.538   3.112
14320W        W80861  44.297  43.291   3.292
14321W        W80862  43.340  28.639  12.981
14322W        W80863  20.964  20.496  11.120
14323W        W80864   3.326  21.708  12.485
14324W        W80865  24.802   3.370  13.345
14325W        W80866   7.109   6.768  11.215
14326W        W80867   5.740  15.714  13.333
14327W        W80868  30.965   3.175   3.723
14328W        W80869   7.959  37.070   1.197
14329W        W80870   7.164  40.391   3.186
14330W        W80871  35.803   7.645  11.864
14331W        W80872  43.815   3.931   0.229
14332W        W80873  42.865  22.926   0.237
14333W        W80874   4.826  19.609   4.078
14334W        W80875   8.888  44.441  14.389
14335W        W80876  16.192  16.460  12.417
14336W        W80877   4.902   3.702  14.974
14337W        W80878  36.800  11.505  14.301
14338W        W80879  28.136  39.435  14.426
14339W        W80880  24.278  12.907   4.413
14340W        W80881  42.888   3.241   0.389
14341W        W80882  15.394  24.581  10.784
14342W        W80883  22.019  27.363  14.782
14343W        W80884  42.853  40.032  11.996
14344W        W80885   8.938  44.204  13.893
14345W        W80886   7.105  32.531  13.456
14346W        W80887  30.604  24.972   2.552
14347W        W80888  15.095  34.232   0.727
14348W        W80889  37.007  28.617   4.702
14349W        W80890  17.732  34.340  13.817
14350W        W80891  28.725  14.281  13.443
14351W        W80892  37.556  10.037   3.575
14352W        W80893  19.188  23.475  11.188
14353W        W80894  35.414  12.661  14.921
14354W        W80895  13.342  12.673   0.457
14355W        W80896  16.836  31.073  13.317
14356W        W80897  35.276  32.630  11.190
14357W        W80898  32.475  24.389   1.306
14358W        W80899  34.577  33.875  11.196
14359W        W80900   4.238  34.080   0.288
14360W        W80901  13.649  24.022   2.292
14361W        W80902  32.101   7.928   2.407
14362W        W80903  12.867  38.121  11.200
14363W        W80904   3.118  16.094   4.157
14364W        W80905   1.807   6.894   0.698
14365W        W80906  32.432   0.775  14.901
14366W        W80907  39.413  30.180  11.594
14367W        W80908  43.415   4.401  14.450
14368W        W80909  21.008  36.421   3.024
14369W        W80910  41.995  37.564  14.816
14370W        W80911  43.600  16.678   4.690
14371W        W80912  37.102   7.958  10.730
14372W        W80913   1.595  12.764  12.959
14373W        W80914  33.646  13.889   4.909
14374W        W80915  34.343  42.422  14.464
14375W        W80916  17.757   2.501  13.323
14376W        W80917  27.729  32.524   3.744
14377W        W80918   2.451   9.899   0.270
14378W        W80919  26.394  18.694   3.367
14379W        W80920  39.046  21.805   1.759
14380W        W80921   1.578  41.547  14.862
14381W        W80922  10.297   3.369   4.064
14382W        W80923  33.053   1.990  14.302
14383W        W80924  20.650  40.958  14.397
14384W        W80925  21.907  40.318   0.073
14385W        W80926  33.156  28.979   4.200
14386W        W80927  36.439  32.689   1.930
14387W        W80928  44.038  19.701  14.536
14388W        W80929   9.816  12.529   2.817
14389W        W80930  39.783  24.096   4.196
14390W        W80931  27.592  31.467  10.708
14391W        W80932  27.834  15.761  13.890
14392W        W80933  39.822  44.892  13.940
14393W        W80934   0.759   5.962   2.710
14394W        W80935  13.255  40.285   2.707
14395W        W80936  21.047   8.117  12.181
14396W        W80937  31.117  29.891   0.788
14397W        W80938   5.469  31.149  10.030
14398W        W80939  22.512   4.405  10.964
14399W        W80940   9.230  16.526  11.692
14400W        W80941  22.505  24.933   3.805
14401W        W80942  22.084  12.751  10.498
14402W        W80943   7.337  13.848   1.357
14403W        W80944  36.130  17.643   1.372
14404W        W80945  14.791  38.556   2.205
14405W        W80946  23.067  22.941  14.013
14406W        W80947  31.578   7.321   1.515
14407W        W80948   8.231   5.496  14.927
14408W        W80949   5.207   3.170  12.635
14409W        W80950  29.556  26.153  12.187
14410W        W80951   0.751  20.657   3.794
14411W        W80952   8.664   2.930   2.450
14412W        W80953  35.861  40.034   2.334
14413W        W80954  16.134  25.446  13.534
14414W        W80955  25.780  12.004   1.305
14415W        W80956   0.582  21.031   4.146
14416W        W80957  17.727  32.102   1.402
14417W        W80958  15.803  15.987  14.000
14418W        W80959   2.711  38.598   1.377
14419W        W80960  27.408   7.949  13.092
14420W        W80961  39.988  31.333   2.484
14421W        W80962  19.688  44.954   1.333
14422W        W80963   4.503  10.615  11.214
14423W        W80964  35.170  25.556   1.099
14424W        W80965  23.773  40.137   4.761
14425W        W80966  37.045  30.558  10.521
14426W        W80967  32.822   9.077  13.410
14427W        W80968  22.732  32.084   2.274
14428W        W80969  31.616  33.979   0.844
14429W        W80970   1.556  27.638   1.949
14430W        W80971  11.227   0.299  14.918
14431W        W80972  24.969   5.963  11.098
14432W        W80973   0.235   8.136   1.896
14433W        W80974  29.479  36.138  11.784
14434W        W80975  21.736  17.619  13.373
14435W        W80976  13.839  39.802  13.464
14436W        W80977  14.625  19.683   2.910
14437W        W80978  15.400  12.976  12.096
14438W        W80979  44.315  31.476  14.746
14439W        W80980  15.093  35.446  10.352
14440W        W80981  26.540  16.566  11.703
14441W        W80982  39.529  22.529  13.968
14442W        W80983   7.268  17.318  14.998
14443W        W80984  27.988  34.517  12.105
14444W        W80985  23.854  18.560  13.586
14445W        W80986   1.517  44.113   3.726
14446W        W80987  38.017   8.464  14.814
14447W        W80988  17.153   5.226   4.099
14448W        W80989  39.955  25.677  14.247
14449W        W80990   1.212   2.653   2.735
14450W        W80991  14.143   5.711  11.739
14451W        W80992  31.105   7.267  11.562
14452W        W80993  15.571  16.186  10.723
14453W        W80994  42.854   9.799  12.503
14454W        W80995  23.102  21.467   3.375
14455W        W80996  20.125  36.661   2.221
14456W        W80997  25.927   8.656   0.358
14457W        W80998  21.475  26.673   3.930
14458W        W80999  21.762   5.931   1.274
14459W        W81000  28.671   3.495  14.230
14460W        W81001  13.383  27.728  13.802
14461W        W81002  41.383  19.126  11.804
14462W        W81003  41.670  42.820   2.178
14463W        W81004  24.947  31.362  12.586
14464W        W81005  10.268  15.357  13.004
14465W        W81006  30.391  12.276  14.584
14466W        W81007   6.726  19.536   1.957
14467W        W81008  42.965   3.767   4.608
14468W        W81009  36.962  26.442  14.418
14469W        W81010  43.072  14.702  14.068
14470W        W81011  32.068   8.133  12.282
14471W        W81012  14.794  36.979  11.065
14472W        W81013  20.788  23.970   3.250
14473W        W81014  29.006  43.907   0.000
14474W        W81015   0.835  35.945   3.266
14475W        W81016  18.475  14.497   1.966
14476W        W81017  27.973  33.605   1.858
14477W        W81018  14.542  17.540  12.534
14478W        W81019  37.902  13.554  12.665
14479W        W81020  20.542  21.143   4.074
14480W        W81021   0.651   0.912   4.784
14481W        W81022  41.531  21.982   1.843
14482W        W81023  24.185  13.619  11.436
14483W        W81024  24.148  26.105   4.781
14484W        W81025   5.200  28.175  13.104
14485W        W81026  29.520  44.866  11.739
14486W        W81027  34.526  22.014   1.667
14487W        W81028  31.619  35.492   2.667
14488W        W81029   5.756  33.150   1.199
14489W        W81030   3.283   7.623  13.321
14490W        W81031   3.769   5.378   0.364
14491W        W81032  39.015  25.691   4.562
14492W        W81033  16.063  21.558   2.752
14493W        W81034  17.688  43.076   3.542
14494W        W81035   8.393  30.639  13.297
14495W        W81036  34.595  10.399   1.541
14496W        W81037  42.895   8.162  10.744
14497W        W81038  19.530   0.660  14.971
14498W        W81039   6.858  30.597  14.541
14499W        W81040  32.438   8.444  14.893
14500W        W81041  40.907   8.224   1.358
14501W        W81042   3.898  31.929  14.379
14502W        W81043  29.579   1.147   0.429
14503W        W81044   5.958  40.259  12.109
14504W        W81045   7.392  27.071   3.336
14505W        W81046  28.016  27.662  10.743
14506W        W81047  37.074  39.884   1.809
14507W        W81048  10.927  23.745   1.468
14508W        W81049  40.734  19.615  11.628
14509W        W81050  11.392   9.366  14.259
14510W        W81051  19.086  38.991   3.010
14511W        W81052  29.256  31.290  12.968
14512W        W81053  30.446  36.799  12.414
14513W        W81054  20.269   7.607  14.134
14514W        W81055   8.219  24.049   1.892
14515W        W81056  29.604   9.005  11.475
14516W        W81057  44.657  20.493  13.930
14517W        W81058  29.705  44.814  13.538
14518W        W81059  44.377   5.371  13.945
14519W        W81060   5.892   7.919  14.241
14520W        W81061   0.898   2.681  11.096
14521W        W81062   5.818  21.464   0.458
14522W        W81063  16.458  21.411  11.184
14523W        W81064   6.979  25.108   1.159
14524W        W81065  18.577  22.136   3.253
14525W        W81066  16.001  12.773   3.331
14526W        W81067  26.257  29.645  12.058
14527W        W81068  10.764  11.286   0.636
14528W        W81069   2.949  34.915   4.105
14529W        W81070  17.898   8.189   0.192
14530W        W81071   8.818  24.241   0.017
14531W        W81072  30.364   2.749   1.540
14532W        W81073  18.247  23.221  13.040
14533W        W81074  18.286  26.574  10.922
14534W        W81075  29.266   7.198  11.382
14535W        W81076   1.025  33.401   2.279
14536W        W81077  28.527  14.573   0.215
14537W        W81078  31.007   7.220   0.867
14538W        W81079  14.173  29.088  14.284
14539W        W81080  25.654  37.723  14.480
14540W        W81081  19.868  21.522   3.310
14541W        W81082   6.257  11.094  13.825
14542W        W81083  40.409  32.731   0.760
14543W        W81084  23.013   1.401   0.826
14544W        W81085  34.755  42.691  11.255
14545W        W81086  18.260  21.476  10.716
14546W        W81087  16.307  32.596   4.556
14547W        W81088  16.082  29.863  10.291
14548W        W81089  18.270   6.513   4.622
14549W        W81090  42.527  40.224  11.371
14550W        W81091   2.790   1.865   2.187
14551W        W81092  36.140  21.192  13.035
14552W        W81093  35.766  22.681   3.268
14553W        W81094   9.466  31.039  13.437
14554W        W81095  25.098  30.381   0.211
14555W        W81096  36.682  44.959  12.921
14556W        W81097  44.907  41.617  11.226
14557W        W81098   2.521  16.021  13.127
14558W        W81099   3.897  20.721   3.573
14559W        W81100   2.398  17.145   2.648
14560W        W81101   8.932  42.038  11.271
14561W        W81102  44.864  17.259  10.732
14562W        W81103  39.888  22.009  10.639
14563W        W81104  34.837  38.382  11.131
14564W        W81105  14.940   7.280   0.316
14565W        W81106  12.163   1.893  12.479
14566W        W81107  43.074  18.245   1.799
14567W        W81108  13.557  19.127  12.514
14568W        W81109  35.176  33.274  10.634
14569W        W81110  43.352  22.775  14.410
14570W        W81111  24.743  36.844  12.618
14571W        W81112  12.690   1.960   2.901
14572W        W81113  35.359  35.252  11.484
14573W        W81114   7.875  23.161   0.514
14574W        W81115  44.243  23.832  14.362
14575W        W81116  43.916  44.710   2.171
14576W        W81117  19.749  12.097   0.537
14577W        W81118  24.802  14.348  14.920
14578W        W81119   8.221  25.325   2.908
14579W        W81120  22.313   8.163  14.937
14580W        W81121  23.032  26.714  11.026
14581W        W81122  32.593  14.305  11.058
14582W        W81123  13.184  11.643  13.797
14583W        W81124   0.947  13.586   1.725
14584W        W81125  24.924   8.701  12.047
14585W        W81126  37.010  39.084  13.387
14586W        W81127  35.578   7.691   1.344
14587W        W81128  19.917  41.522  12.930
14588W        W81129   8.348  32.598  12.997
14589W        W81130  22.494   4.819   3.117
14590W        W81131  43.068  35.035   3.690
14591W        W81132  31.332   1.723   4.174
14592W        W81133   5.815  18.235   4.954
14593W        W81134   7.813  42.719  11.983
14594W        W81135   5.747  41.978  10.574
14595W        W81136  12.696  35.526   4.213
14596W        W81137  13.318  11.752   0.216
14597W        W81138  33.087  43.997   3.085
14598W        W81139   4.514  17.594  14.173
14599W        W81140  29.834  26.052  11.181
14600W        W81141  42.256  25.175  14.403
14601W        W81142  15.229   2.942  13.094
14602W        W81143  35.865  22.069  11.128
14603W        W81144  27.116  44.444   1.224
14604W        W81145  30.428   1.944  12.533
14605W        W81146  10.495  15.234  10.233
14606W        W81147  29.948  37.935   1.032
14607W        W81148  29.112   1.618  14.322
14608W        W81149  42.969   8.308  12.433
14609W        W81150  11.092  28.833   0.835
14610W        W81151  38.539  26.065   1.407
14611W        W81152  12.052  30.983   4.622
14612W        W81153  22.660  26.955   3.105
14613W        W81154   9.659  25.540  10.719
14614W        W81155  40.940   8.804   0.277
14615W        W81156  25.975  20.940   1.703
14616W        W81157  43.695   0.968   9.958
14617W        W81158   3.041  10.531  13.648
14618W        W81159  15.135   8.252   3.280
14619W        W81160  21.252   9.184   4.513
14620W        W81161  41.871  27.421  14.541
14621W        W81162  11.678  38.745   2.793
14622W        W81163  44.299  33.645  11.086
14623W        W81164  21.254  15.437   9.712
14624W        W81165  32.938  13.263   2.732
14625W        W81166  36.067  29.677   0.293
14626W        W81167  37.570  40.953  11.904
14627W        W81168  44.903  13.105  14.483
14628W        W81169  41.809   0.849  12.576
14629W        W81170  41.906  40.249   4.803
14630W        W81171  38.141   8.969  13.043
14631W        W81172  40.454  28.405  13.927
14632W        W81173  30.950  43.848   2.242
14633W        W81174   9.452  27.280   2.522
14634W        W81175  11.667  36.829   2.824
14635W        W81176  19.577  36.016   4.213
14636W        W81177  12.750  16.337   4.176
14637W        W81178  13.878  23.647  11.979
14638W        W81179   8.745  13.380   5.020
14639W        W81180  17.590  16.411  12.187
14640W        W81181   2.833  42.573   3.406
14641W        W81182  37.976  18.728  13.846
14642W        W81183  23.029   5.138   2.243
14643W        W81184   3.876  15.681  12.560
14644W        W81185  24.575  41.581   2.771
14645W        W81186   8.958  32.882  13.331
14646W        W81187  43.493  43.843   4.672
14647W        W81188   6.215  28.166   0.417
14648W        W81189  20.571   1.897  10.823
14649W        W81190  21.623  44.798   1.898
14650W        W81191  12.418  22.521  13.653
14651W        W81192  27.105   0.819  10.939
14652W        W81193  42.458  35.344  12.819
14653W        W81194  17.891  13.321   4.500
14654W        W81195  22.113  18.605   2.716
14655W        W81196  29.685  28.133  11.546
14656W        W81197  40.187  37.849  11.241
14657W        W81198  14.824  15.076   2.323
14658W        W81199  30.083  14.179  14.068
14659W        W81200  35.158  28.587   2.714
14660W        W81201  18.250   4.142   4.076
14661W        W81202   7.359   1.285  10.158
14662W        W81203  38.612  11.143   2.515
14663W        W81204   5.632  13.334   2.131
14664W        W81205   3.948  12.612  11.055
14665W        W81206  22.684   8.487   3.789
14666W        W81207  40.954  22.340   0.716
14667W        W81208  42.224  32.416  12.920
14668W        W81209   4.163  24.528  12.962
14669W        W81210  16.291  29.704  13.816
14670W        W81211  14.045  11.101   4.428
14671W        W81212   1.002   8.528   4.877
14672W        W81213  24.116  25.092  11.255
14673W        W81214  37.375  35.931   0.930
14674W        W81215  41.945  35.373  13.506
14675W        W81216  15.289   8.363   4.304
14676W        W81217  37.829  33.618  14.053
14677W        W81218  16.766  34.133   3.129
14678W        W81219  12.200  40.665   0.873
14679W        W81220  40.845  32.576   3.853
14680W        W81221  31.435  35.925   2.452
14681W        W81222  14.719  35.549   0.185
14682W        W81223  19.884  37.346  14.320
14683W        W81224   3.405  38.372  14.486
14684W        W81225  12.680  29.895   2.682
14685W        W81226  13.894   3.255   1.412
14686W        W81227  16.347  44.260   0.458
14687W        W81228  14.768   2.278   0.217
14688W        W81229  21.648  22.031   1.279
14689W        W81230  34.501   5.354  13.586
14690W        W81231  35.446   1.299   4.578
14691W        W81232  11.564  41.545  10.038
14692W        W81233   1.652   0.928  11.698
14693W        W81234  13.639  35.574   3.280
14694W        W81235  13.925   5.907  12.149
14695W        W81236  29.299  31.619  14.272
14696W        W81237  40.172  36.814   2.381
14697W        W81238  28.659  44.891  13.568
14698W        W81239  30.848  18.770  14.989
14699W        W81240  40.891  20.110   0.263
14700W        W81241  41.433  30.551   3.305
14701W        W81242   1.528  11.393   3.287
14702W        W81243  22.004  19.402  11.672
14703W        W81244   6.211  41.457  12.953
14704W        W81245  27.179   1.735   4.510
14705W        W81246  38.836   8.948   9.855
14706W        W81247   4.723   5.557  10.463
14707W        W81248  21.161  39.940   2.700
14708W        W81249   6.420   4.492   0.296
14709W        W81250  25.281  29.768   3.676
14710W        W81251  20.091  18.540   0.967
14711W        W81252   7.104  36.671  13.354
14712W        W81253  20.095  16.038  13.921
14713W        W81254  19.435   3.201   2.053
14714W        W81255   9.461  14.644   2.379
14715W        W81256  28.960  23.480  12.134
14716W        W81257  36.643  14.677   2.216
14717W        W81258  39.078  10.528   4.131
14718W        W81259  12.283  10.932   2.223
14719W        W81260  10.065  30.097   4.251
14720W        W81261   3.470  23.959   5.098
14721W        W81262   9.681  10.647   1.273
14722W        W81263   3.376   8.642  11.092
14723W        W81264  28.587  12.827   1.419
14724W        W81265  16.885  25.494  13.070
14725W        W81266  38.895   6.744   2.400
14726W        W81267   1.975   9.206  11.575
14727W        W81268  21.059  13.670   2.219
14728W        W81269  41.974  16.214   2.498
14729W        W81270  18.613  40.922   1.346
14730W        W81271  41.532  27.391   3.778
14731W        W81272  32.668  25.581   4.134
14732W        W81273  14.839  11.915  14.475
14733W        W81274  24.501  29.399   0.897
14734W        W81275   7.969  28.653  13.803
14735W        W81276  23.295  13.598   1.702
14736W        W81277  10.515  11.389   3.348
14737W        W81278  26.612  30.378   4.119
14738W        W81279  17.475  15.439  11.308
14739W        W81280  27.475   5.453   4.332
14740W        W81281  31.812   2.735  13.940
14741W        W81282  23.058  21.981   3.504
14742W        W81283   2.456  19.957  14.058
14743W        W81284  13.318  22.222  12.741
14744W        W81285  25.244   4.860   5.297
14745W        W81286  10.404  32.378   5.036
14746W        W81287  17.988  12.959  14.511
14747W        W81288  10.041  20.976  11.339
14748W        W81289   4.291  27.118  14.145
14749W        W81290   5.376  30.911  11.425
14750W        W81291  12.050   1.031  11.837
14751W        W81292  30.022  25.251   0.923
14752W        W81293  40.214   9.300  13.319
14753W        W81294  28.616  34.625   4.823
14754W        W81295  26.247  43.945  10.760
14755W        W81296   3.204   2.302  13.314
14756W        W81297  18.150   1.310   1.862
14757W        W81298  18.625   0.734  14.913
14758W        W81299  27.575  21.378  13.788
14759W        W81300  34.625  34.711  13.612
14760W        W81301  12.099  35.965   0.266
14761W        W81302  40.406  32.358  10.510
14762W        W81303  15.213  21.151  13.170
14763W        W81304  15.688  36.200   1.203
14764W        W81305  30.925  24.571   2.509
14765W        W81306  19.611  19.053   3.151
14766W        W81307  17.041  40.078   4.949
14767W        W81308  27.914  11.228   1.223
14768W        W81309  25.712  14.828   3.673
14769W        W81310   0.838   1.268  14.987
14770W        W81311  15.223  35.283   9.873
14771W        W81312   5.109  41.961   0.440
14772W        W81313   5.240   2.349  11.597
14773W        W81314  13.747  19.711   0.991
14774W        W81315  39.613  34.819   3.732
14775W        W81316  28.617  16.326   4.686
14776W        W81317  17.470   1.450  14.447
14777W        W81318  30.162   8.688  14.741
14778W        W81319   5.173  13.093   2.897
14779W        W81320   3.597  28.091  13.078
14780W        W81321  13.629  19.456  11.586
14781W        W81322  33.433  32.612  14.835
14782W        W81323  37.337   4.824  14.595
14783W        W81324  18.800  10.357   3.165
14784W        W81325  36.374  34.170   0.718
14785W        W81326  14.360  11.269  10.364
14786W        W81327  28.046   3.947  13.050
14787W        W81328  21.137  15.463  11.940
14788W        W81329  35.541  34.614  12.964
14789W        W81330  17.799   8.718  14.310
14790W        W81331  19.198   2.252   0.486
14791W        W81332  12.152   6.383  13.309
14792W        W81333  11.148  22.434   0.986
14793W        W81334  16.722  29.989  13.966
14794W        W81335  32.007  33.129   2.185
14795W        W81336  41.038  23.182   2.294
14796W        W81337  28.123   2.292   0.920
14797W        W81338   5.159  41.268  13.879
14798W        W81339  33.484  17.701   3.311
14799W        W81340  17.297  36.956   2.164
14800W        W81341  20.394  14.146  14.246
14801W        W81342   7.324  21.220   1.830
14802W        W81343  19.063   7.210  12.517
14803W        W81344   8.259  14.182  13.154
14804W        W81345  33.869  18.047  14.532
14805W        W81346  31.482  27.514   3.004
14806W        W81347  15.291  28.430  12.064
14807W        W81348  14.767  34.750   1.671
14808W        W81349  34.872  30.514  14.883
14809W        W81350   0.408  15.568  13.058
14810W        W81351  29.467   9.013   1.484
14811W        W81352  16.221  42.470   4.184
14812W        W81353   7.908  26.646   0.536
14813W        W81354  25.060  18.971   0.367
14814W        W81355  29.953  40.338   3.780
14815W        W81356  42.713  17.307   0.985
14816W        W81357  23.000   4.663  12.046
14817W        W81358   1.229   2.742  12.367
14818W        W81359   2.536  28.972   2.284
14819W        W81360  34.263  18.315  14.309
14820W        W81361   6.652  37.713   4.851
14821W        W81362  37.780  20.263  13.503
14822W        W81363  25.910  13.436   2.173
14823W        W81364  36.972  33.213  10.742
14824W        W81365  36.717  19.203   4.600
14825W        W81366  40.766  19.656   0.022
14826W        W81367  29.645  39.333   2.239
14827W        W81368   7.987  20.865  14.193
14828W        W81369  23.993  39.888  10.939
14829W        W81370  35.462  20.709  14.337
14830W        W81371  42.342  36.121   4.503
14831W        W81372  33.441  36.332  10.725
14832W        W81373  44.376  42.302  14.708
14833W        W81374   8.416  13.066  10.964
14834W        W81375  10.049  32.611   1.747
14835W        W81376  25.475  37.550   0.881
14836W        W81377   7.829  20.076   1.456
14837W        W81378  26.482  25.705   3.596
14838W        W81379  19.156  18.834   3.277
14839W        W81380  42.867  19.844   4.171
14840W        W81381  34.889  33.357  13.966
14841W        W81382  31.144  37.609   1.285
14842W        W81383  17.097  43.669  13.495
14843W        W81384  43.295  43.855   3.688
14844W        W81385  13.774   3.830  11.246
14845W        W81386  19.097  23.777   2.741
14846W        W81387   7.289  12.842   4.072
14847W        W81388  27.433  29.106  12.174
14848W        W81389  28.737  33.550  11.555
14849W        W81390   8.809  42.443   2.871
14850W        W81391  23.988   3.765  13.137
14851W        W81392  22.776   9.377  11.748
14852W        W81393  41.027   7.596  13.249
14853W        W81394  13.079  38.153   1.590
14854W        W81395  42.614  35.402  11.055
14855W        W81396  30.383  31.754  11.380
14856W        W81397  33.971   9.391   0.336
14857W        W81398  31.670  22.283   1.712
14858W        W81399  24.509  41.546  10.774
14859W        W81400  14.284   9.643  13.871
14860W        W81401  41.370  15.339   3.603
14861W        W81402  30.375  13.883   2.116
14862W        W81403  28.073  13.713   0.086
14863W        W81404  38.349   3.405   1.498
14864W        W81405  37.895  15.072  13.570
14865W        W81406  31.001  14.061  13.933
14866W        W81407   1.881  22.707  12.108
14867W        W81408  15.708  16.806   3.574
14868W        W81409  24.491   7.892  11.339
14869W        W81410  11.182   8.968  11.160
14870W        W81411  19.614   0.854  14.497
14871W        W81412  44.923  35.944   3.260
14872W        W81413  33.996   7.851  12.362
14873W        W81414  34.717  39.051   0.193
14874W        W81415   9.305   5.263   4.002
14875W        W81416  30.567  16.777  11.615
14876W        W81417  26.365  41.790   2.299
14877W        W81418  15.210  35.466   0.367
14878W        W81419  42.023   1.301  12.383
14879W        W81420  25.596  12.351  14.827
14880W        W81421  16.670  31.861   1.772
14881W        W81422  35.891  25.797  14.413
14882W        W81423  42.696  30.642  10.929
14883W        W81424   8.829  13.387   2.643
14884W        W81425  36.027  12.641   1.679
14885W        W81426   3.478  14.632  12.537
14886W        W81427  43.516  26.543  14.904
14887W        W81428  24.493  40.624  14.936
14888W        W81429   8.324  27.994   0.894
14889W        W81430   4.688   8.360  14.064
14890W        W81431  41.751  31.013  11.079
14891W        W81432  37.294  27.538  14.873
14892W        W81433  37.017  31.976  13.544
14893W        W81434  15.428   6.486   2.830
14894W        W81435  18.950   0.220  11.595
14895W        W81436  33.614  20.682  14.036
14896W        W81437  33.270   9.026   0.836
14897W        W81438  44.428  20.546   2.686
14898W        W81439  28.025   9.806  13.300
14899W        W81440  11.764  40.466  10.163
14900W        W81441   2.901  11.220  13.933
14901W        W81442  28.361  29.863   0.932
14902W        W81443  34.145  10.362  10.828
14903W        W81444   4.928  33.807   1.250
14904W        W81445  25.405  30.806   3.657
14905W        W81446  29.938   6.374   2.142
14906W        W81447  17.660  21.041  12.239
14907W        W81448  29.588   4.732   0.085
14908W        W81449  25.613  32.653  10.644
14909W        W81450   6.706  28.409  12.516
14910W        W81451  12.358  20.052   1.912
14911W        W81452  29.534   9.211  11.010
14912W        W81453   3.240  24.787  12.551
14913W        W81454   2.236  31.962   3.188
14914W        W81455  43.866  17.236  12.686
14915W        W81456   1.899  29.946  14.725
14916W        W81457  13.655   1.991  13.469
14917W        W81458  44.455  33.504  14.561
14918W        W81459  24.916   0.374  12.657
14919W        W81460  26.785  24.753  13.712
14920W        W81461  16.284   4.941   1.016
14921W        W81462  33.532  17.408   2.241
14922W        W81463  26.586  37.029  12.447
14923W        W81464   3.912  13.302  12.116
14924W        W81465  44.038  10.108   2.278
14925W        W81466  25.024  25.030   1.372
14926W        W81467  26.190  41.417  14.003
14927W        W81468  17.757  42.853  13.282
14928W        W81469  25.970  36.497   3.582
14929W        W81470   4.592  42.591  10.595
14930W        W81471  44.225  13.371   1.189
14931W        W81472  17.155  33.784  13.541
14932W        W81473  36.868  30.110  14.819
14933W        W81474   3.992   1.632  11.152
14934W        W81475  13.842  30.166  13.841
14935W        W81476   8.394  22.349   1.826
14936W        W81477   3.876  30.434  10.646
14937W        W81478  38.405   8.245  11.617
14938W        W81479  37.244   9.261   1.700
14939W        W81480  14.827  25.069   2.431
14940W        W81481   3.340   9.876   2.383
14941W        W81482  35.779   6.895   4.336
14942W        W81483  30.570  31.266  11.221
14943W        W81484  38.923  40.262  12.968
14944W        W81485  43.675  15.227  14.994
14945W        W81486  29.107  10.080  11.968
14946W        W81487   0.421  20.193   2.682
14947W        W81488  22.470  40.814  12.646
14948W        W81489  28.603   1.437   0.749
14949W        W81490  42.512  31.870   0.046
14950W        W81491  15.530  14.318   4.785
14951W        W81492  29.586  38.354  10.693
14952W        W81493  11.674   7.485   2.723
14953W        W81494  41.883  41.043  12.476
14954W        W81495  23.178  23.757   3.701
14955W        W81496  33.468  26.992   0.777
14956W        W81497  38.416  25.957   3.656
14957W        W81498  23.776  41.821  11.132
14958W        W81499  17.972  41.869   4.033
14959W        W81500  11.104  35.199   4.119
14960W        W81501  44.767  40.090  11.963
14961W        W81502  25.662  13.296  13.582
14962W        W81503  10.804   7.880  12.548
14963W        W81504  31.829  35.498   4.077
14964W        W81505  12.813  24.401   0.954
14965W        W81506  42.312  44.186  10.654
14966W        W81507   0.355   5.802  11.896
14967W        W81508  31.541  20.086   0.358
14968W        W81509  41.767  43.936   0.939
14969W        W81510  14.567  38.909   3.710
14970W        W81511  29.469  12.855   0.002
14971W        W81512  11.235  25.217  12.096
14972W        W81513  31.680  42.438   2.906
14973W        W81514  24.150  30.685   1.400
14974W        W81515   2.974  17.897  12.290
14975W        W81516  34.871  12.150   2.786
14976W        W81517   3.850  20.829  11.514
14977W        W81518  39.935  26.943   0.556
14978W        W81519  35.877   8.847   2.729
14979W        W81520  32.421  28.494  11.586
14980W        W81521  32.812  41.734   3.316
14981W        W81522  10.645   1.355   2.270
14982W        W81523  33.345  33.045  11.679
14983W        W81524  36.176  20.502   2.000
14984W        W81525  43.435  15.982   2.475
14985W        W81526  11.911  18.749  14.751
14986W        W81527  22.620   7.950  13.910
14987W        W81528  31.392  15.507  11.380
14988W        W81529  27.158   7.286   2.235
14989W        W81530   4.140  35.555  13.472
14990W        W81531   4.389  13.445   4.926
14991W        W81532   9.660  26.275   0.706
14992W        W81533  22.515  43.316  10.610
14993W        W81534  20.333  12.689   1.697
14994W        W81535   6.542  20.505  12.014
14995W        W81536  12.183   0.343  14.586
14996W        W81537  13.548   7.024  14.447
14997W        W81538  44.767  22.466   1.165
14998W        W81539  26.408  26.236   3.211
14999W        W81540  16.253   9.735   0.376
15000W        W81541  21.239   9.128  13.842
15001W        W81542  30.633  26.505  13.151
15002W        W81543   1.220  27.924   1.643
15003W        W81544  10.297  26.276  10.587
15004W        W81545  21.871  28.408   0.439
15005W        W81546  26.163   6.933   3.804
15006W        W81547  36.985  14.321  11.040
15007W        W81548  13.654  14.739   4.616
15008W        W81549   6.809  27.051  13.065
15009W        W81550  20.116  13.727   3.626
15010W        W81551   7.290  33.586   2.399
15011W        W81552  40.890  44.416  12.142
15012W        W81553  32.572  41.850   1.195
15013W        W81554  15.326  12.262  14.543
15014W        W81555  17.277  29.864  13.546
15015W        W81556  21.015   9.632  12.062
15016W        W81557   1.812  19.206  11.627
15017W        W81558   6.048   7.832   4.588
15018W        W81559  36.588  21.144   0.995
15019W        W81560  27.600  15.098   1.724
15020W        W81561  16.276  16.639   2.261
15021W        W81562  26.638  38.459  14.811
15022W        W81563  36.824  35.989  14.755
15023W        W81564  34.988  24.751   2.104
15024W        W81565  36.992  44.153  10.103
15025W        W81566  11.522  24.011   4.506
15026W        W81567  34.169  11.287   3.888
15027W        W81568  29.039   4.359  10.796
15028W        W81569  22.774  26.503   2.798
15029W        W81570  29.465  32.128   2.701
15030W        W81571  21.327  30.352   1.749
15031W        W81572   1.319  12.583   2.219
15032W        W81573  18.231   6.973   3.826
15033W        W81574  16.622  13.157   2.216
15034W        W81575  19.061  17.555  13.542
15035W        W81576  31.477  39.760  12.847
15036W        W81577   5.412  19.098  13.575
15037W        W81578  36.057  39.267  13.975
15038W        W81579  16.317  42.128   3.042
15039W        W81580   8.363  20.164  13.057
15040W        W81581  13.105  12.642  14.097
15041W        W81582  30.917  17.671  12.103
15042W        W81583  23.651   6.899   2.660
15043W        W81584  36.957  26.942   2.254
15044W        W81585  32.862  26.098   3.310
15045W        W81586   8.631  13.217   4.037
15046W        W81587  38.008  15.217   0.861
15047W        W81588   9.871  27.942   4.468
15048W        W81589  31.602  37.826   3.290
15049W        W81590  43.524  34.079  13.857
15050W        W81591  40.359  13.582   1.708
15051W        W81592  41.589  27.124  10.610
15052W        W81593   9.401  41.969  14.724
15053W        W81594  35.985  37.114  12.140
15054W        W81595  11.324  40.397   4.186
15055W        W81596  36.413   0.770   0.928
15056W        W81597  18.623  24.434  11.640
15057W        W81598   6.020  11.542  10.410
15058W        W81599  41.277  30.270  14.500
15059W        W81600  17.658   8.622  12.185
15060W        W81601  29.006  35.634   1.668
15061W        W81602  25.726  17.690  10.686
15062W        W81603  12.158   4.299  13.991
15063W        W81604  10.780  32.711   3.335
15064W        W81605  12.215  23.976   0.914
15065W        W81606   5.222  10.085   2.709
15066W        W81607  34.616  35.282   4.538
15067W        W81608  22.629  16.785   4.106
15068W        W81609  39.704  38.107   1.925
15069W        W81610  44.328  14.284  13.408
15070W        W81611   8.154  22.405  13.907
15071W        W81612  38.390  36.404   0.421
15072W        W81613   9.370  40.805  14.355
15073W        W81614   6.232  29.303  10.251
15074W        W81615   2.354  24.907   5.043
15075W        W81616   5.063  28.512   4.825
15076W        W81617  12.792  41.872  13.493
15077W        W81618  32.808  44.981   3.791
15078W        W81619   6.860  33.405  13.034
15079W        W81620   7.395  41.367   2.649
15080W        W81621  38.490  27.612  14.213
15081W        W81622  31.603  28.384  13.172
15082W        W81623  33.460  30.686   1.693
15083W        W81624  30.044  32.410  14.517
15084W        W81625  22.322  42.829  10.752
15085W        W81626  38.949  37.209  12.967
15086W        W81627  35.311   0.444  10.468
15087W        W81628  16.092   3.750  10.929
15088W        W81629   5.118   2.747   1.217
15089W        W81630   3.159   2.793  13.477
15090W        W81631  40.835   6.813   1.350
15091W        W81632  35.638  40.489  11.594
15092W        W81633  17.113  32.152  11.950
15093W        W81634  43.177  25.488   4.677
15094W        W81635  31.365  16.624  13.798
15095W        W81636  41.563  34.178   1.221
15096W        W81637  44.480  39.581   4.248
15097W        W81638   0.163   9.608  14.436
15098W        W81639  33.559  39.980   2.427
15099W        W81640  19.677  34.096   4.669
15100W        W81641  16.125  39.202  11.374
15101W        W81642   2.854   7.310   1.975
15102W        W81643  31.528  25.896  14.547
15103W        W81644  39.877  43.370  11.821
15104W        W81645  42.236  28.352   0.448
15105W        W81646  36.181  41.802  14.557
15106W        W81647  44.029  31.569  13.320
15107W        W81648  40.469  15.798   1.369
15108W        W81649  17.600  34.124   0.161
15109W        W81650  31.557   6.238  12.818
15110W        W81651  23.792   3.821   4.699
15111W        W81652  12.332  38.954  13.384
15112W        W81653  16.476  44.690   1.967
15113W        W81654  38.863  29.439   1.211
15114W        W81655  27.446   2.321   1.441
15115W        W81656  22.607   7.777   4.848
15116W        W81657  31.331   6.879   3.188
15117W        W81658   5.352  13.043  12.450
15118W        W81659   6.133  38.237   0.326
15119W        W81660  37.385  29.031  14.462
15120W        W81661   5.224  14.544   0.242
15121W        W81662  43.798  19.916   4.196
15122W        W81663  32.540  12.076   5.013
15123W        W81664   5.461  31.948   5.240
15124W        W81665  19.023  17.082   2.338
15125W        W81666  15.597  11.147  10.522
15126W        W81667  38.356   5.070  13.386
15127W        W81668  41.087   9.442   3.222
15128W        W81669  36.918  38.188  13.431
15129W        W81670  44.968  22.861  12.374
15130W        W81671   6.170  18.857  11.122
15131W        W81672   8.405  18.138   1.331
15132W        W81673   9.264   8.474   3.176
15133W        W81674   7.345  26.780  13.818
15134W        W81675  11.148   6.231   3.493
15135W        W81676  16.256  18.735   4.038
15136W        W81677  44.521   5.951  14.577
15137W        W81678   7.256  39.956   2.304
15138W        W81679  38.993  19.248  10.921
15139W        W81680  29.155  30.706  11.607
15140W        W81681  42.943  38.936  12.181
15141W        W81682  39.452   4.261   4.618
15142W        W81683  10.077   7.493   4.061
15143W        W81684  39.103  38.993   0.959
15144W        W81685   7.223   2.391   0.412
15145W        W81686   8.850   0.689   2.317
15146W        W81687  15.018   6.172  11.122
15147W        W81688  11.078   0.604   2.043
15148W        W81689  38.995  35.939  10.342
15149W        W81690   1.280  20.542   2.852
15150W        W81691  31.646  10.632  12.007
15151W        W81692  41.710   9.202   2.652
15152W        W81693   3.958  32.966  12.938
15153W        W81694  28.662   0.021   4.561
15154W        W81695  37.125  16.126  12.193
15155W        W81696  28.453  33.104   3.653
15156W        W81697  25.680  17.326  13.997
15157W        W81698  26.507  36.307   1.218
15158W        W81699  28.081  34.172   3.658
15159W        W81700  28.624  21.336  13.233
15160W        W81701  25.025  23.827  10.653
15161W        W81702  20.012  41.488   2.273
15162W        W81703  38.843   3.274  10.701
15163W        W81704   1.318  42.231   4.944
15164W        W81705   2.899  26.480   1.895
15165W        W81706   0.339  34.072   3.254
15166W        W81707  28.486  20.626   4.998
15167W        W81708  27.145  22.676   5.018
15168W        W81709  20.254   7.829  14.593
15169W        W81710  20.960  25.460   2.282
15170W        W81711  24.503  17.914   4.841
15171W        W81712   1.977  19.148   2.273
15172W        W81713  17.196   0.889   3.743
15173W        W81714  24.463  15.582  12.954
15174W        W81715  20.970   2.695  13.988
15175W        W81716  41.969  17.799  10.687
15176W        W81717  11.720  42.751  11.556
15177W        W81718  41.998  32.493   3.163
15178W        W81719  12.928  22.122  13.564
15179W        W81720  26.502   5.255  14.876
15180W        W81721  42.471  34.118  11.347
15181W        W81722  29.522  18.309  10.255
15182W        W81723   9.253  35.507   2.894
15183W        W81724  44.931  27.451  10.303
15184W        W81725  42.263  27.630  14.262
15185W        W81726  26.809  42.489  12.458
15186W        W81727  22.502  19.191   3.256
15187W        W81728  34.684  40.954   2.694
15188W        W81729  17.725  11.881  13.554
15189W        W81730   9.226  14.458   0.350
15190W        W81731  20.698  44.292   2.275
15191W        W81732  24.004  17.260   1.791
15192W        W81733  27.404   5.581   2.147
15193W        W81734  22.157  16.554  12.503
15194W        W81735  25.034  10.204   2.267
15195W        W81736  24.707  35.446   4.532
15196W        W81737  40.101  33.985   2.381
15197W        W81738  17.740  20.040   3.816
15198W        W81739  26.719   2.941   0.798
15199W        W81740  22.748  39.219  11.272
15200W        W81741  11.277  10.631   2.176
15201W        W81742  27.602  39.571  13.857
15202W        W81743   7.527  26.964  10.975
15203W        W81744  19.024   4.401  14.893
15204W        W81745   7.913  18.432   3.617
15205W        W81746  39.295  14.876  12.366
15206W        W81747  31.919  42.993   1.351
15207W        W81748  40.400  31.947  11.584
15208W        W81749   3.926   9.361   1.845
15209W        W81750  11.893  25.011   0.427
15210W        W81751   4.747  37.119  11.565
15211W        W81752   4.232  34.842  11.735
15212W        W81753  29.463  22.388  14.243
15213W        W81754   0.911  38.908  10.606
15214W        W81755  23.518  15.246   3.730
15215W        W81756   8.765  35.527  12.973
15216W        W81757   3.717  19.435  12.517
15217W        W81758   4.434  32.857   2.618
15218W        W81759  21.755  36.839   3.668
15219W        W81760  43.387   3.260   0.237
15220W        W81761  16.499   9.882  14.933
15221W        W81762  37.993  12.112   4.283
15222W        W81763  42.620  28.106   2.678
15223W        W81764  36.752  12.805   4.515
15224W        W81765   8.973  31.946  14.297
15225W        W81766  43.784   8.807   0.442
15226W        W81767   8.480  16.063  12.956
15227W        W81768  34.347   3.261   0.998
15228W        W81769   5.997  18.600  13.990
15229W        W81770  22.665  35.875  11.454
15230W        W81771   0.407  36.105   4.561
15231W        W81772   5.179   9.421   1.259
15232W        W81773   2.541  30.802  11.201
15233W        W81774  40.794  10.130   2.106
15234W        W81775  22.917  10.304   1.012
15235W        W81776  42.045  12.996   5.509
15236W        W81777   4.939  44.191  11.941
15237W        W81778  17.802  22.656  13.829
15238W        W81779  27.056  42.249  14.773
15239W        W81780  35.086  34.613  13.391
15240W        W81781  42.780  28.113   0.442
15241W        W81782  29.428   0.761   1.249
15242W        W81783  18.551  26.907  12.519
15243W        W81784   2.417  16.816  13.523
15244W        W81785  20.611  33.002   4.136
15245W        W81786  15.623  13.045   3.608
15246W        W81787  16.497  20.619   0.583
15247W        W81788   0.733   4.942  10.259
15248W        W81789   0.945  18.441   1.114
15249W        W81790  28.034  33.967  11.976
15250W        W81791  13.538  40.742  14.861
15251W        W81792  30.426   6.744  13.033
15252W        W81793   1.419   9.822  14.577
15253W        W81794  20.115  18.399   5.407
15254W        W81795  30.384  20.530   0.330
15255W        W81796  36.589   4.437   0.010
15256W        W81797   6.398   7.707  12.906
15257W        W81798  31.968  21.765  13.445
15258W        W81799  26.576  11.402   4.698
15259W        W81800  36.917  10.542   0.383
15260W        W81801   5.713  17.280   1.947
15261W        W81802   7.308  26.242   5.154
15262W        W81803  15.732  16.280   3.429
15263W        W81804  44.965  20.094   4.626
15264W        W81805   5.433  33.454  14.645
15265W        W81806  20.710  20.287   1.942
15266W        W81807  41.965  22.323   2.210
15267W        W81808   7.899  28.136   2.817
15268W        W81809  26.121   5.569  14.430
15269W        W81810   1.585  22.683   1.440
15270W        W81811   9.887  36.855   1.690
15271W        W81812  20.235   7.430   0.819
15272W        W81813  35.812  15.723  12.649
15273W        W81814  44.269  20.749  14.149
15274W        W81815  38.760  16.123  13.261
15275W        W81816   2.294   4.663  13.034
15276W        W81817  17.175  29.973  10.568
15277W        W81818  32.127  13.941   4.997
15278W        W81819  34.541  10.083  11.025
15279W        W81820  12.575  36.179  11.521
15280W        W81821   7.786  37.563   1.936
15281W        W81822  30.711   8.317  11.685
15282W        W81823  21.657   1.546   2.309
15283W        W81824   3.875   7.999   1.308
15284W        W81825  23.969  39.341   2.774
15285W        W81826  34.574  11.293   2.588
15286W        W81827  42.499  19.027   4.223
15287W        W81828   9.655   1.722   2.102
15288W        W81829  34.543   9.945   0.771
15289W        W81830  38.631  29.065  12.525
15290W        W81831   5.463   4.297   2.822
15291W        W81832   9.693  13.430   1.961
15292W        W81833  29.220  37.600   4.504
15293W        W81834  13.694   2.286  13.049
15294W        W81835  19.286  29.503   1.680
15295W        W81836  39.276  29.879   1.901
15296W        W81837   9.855  40.518  11.074
15297W        W81838  36.368  15.053   1.986
15298W        W81839  39.501  17.838   1.805
15299W        W81840  20.544  36.341   2.344
15300W        W81841  36.289  31.919   3.612
15301W        W81842  44.471  10.371  13.362
15302W        W81843   5.024  11.561   1.277
15303W        W81844  30.587  34.372  11.256
15304W        W81845  38.304  43.057  10.339
15305W        W81846   2.777  13.123  11.593
15306W        W81847  24.465   5.369   1.359
15307W        W81848   9.095   2.001   4.718
15308W        W81849  20.454  31.089   1.229
15309W        W81850  38.512  24.194  11.023
15310W        W81851  12.349  35.529   0.215
15311W        W81852  30.165  23.770   3.699
15312W        W81853   1.710  11.226  11.103
15313W        W81854  19.164   9.864   3.633
15314W        W81855  27.434  23.021   2.168
15315W        W81856  13.623  29.993   0.885
15316W        W81857  39.646  41.335   1.121
15317W        W81858  25.492   6.790  14.368
15318W        W81859  40.492  41.321  14.717
15319W        W81860  25.263  16.226  10.474
15320W        W81861  27.683  29.496  13.601
15321W        W81862  10.282  11.864  13.949
15322W        W81863   9.803   4.789  14.404
15323W        W81864  28.621  30.176   1.240
15324W        W81865  30.020  18.766   2.303
15325W        W81866  17.390  30.484   5.432
15326W        W81867  20.121   6.597   0.297
15327W        W81868  24.751   2.180  12.075
15328W        W81869   8.855  23.306   1.739
15329W        W81870  12.844  35.842   1.408
15330W        W81871  36.873  38.829  14.246
15331W        W81872  38.296  22.538   3.198
15332W        W81873  28.535  34.218   3.940
15333W        W81874   4.732  22.004  10.692
15334W        W81875  17.230  22.189   2.835
15335W        W81876  19.250  29.086  13.662
15336W        W81877   8.262  20.947  14.930
15337W        W81878  23.233   3.487  14.021
15338W        W81879  44.741   9.187   0.129
15339W        W81880  10.951   9.109  12.975
15340W        W81881  36.723  10.052   0.396
15341W        W81882  42.317   4.080   2.358
15342W        W81883  13.814  37.717   0.527
15343W        W81884  35.835  41.237  11.165
15344W        W81885  36.503  22.543   2.756
15345W        W81886  33.115   6.861   4.663
15346W        W81887  32.952   5.791  12.983
15347W        W81888  26.953  13.556   0.905
15348W        W81889  39.925   3.339   3.125
15349W        W81890  12.188  41.779   4.534
15350W        W81891   0.661  30.421   0.670
15351W        W81892  40.095  25.065  13.546
15352W        W81893  34.962  43.416  14.152
15353W        W81894  41.074  10.163  13.604
15354W        W81895  12.220   7.221  14.765
15355W        W81896   6.753   7.379  14.373
15356W        W81897  34.827   6.328  11.908
15357W        W81898   0.450  10.798   0.890
15358W        W81899  41.015   2.017   2.657
15359W        W81900  19.210  25.278  11.547
15360W        W81901  19.043  44.908  14.935
15361W        W81902  24.796  40.883  12.631
15362W        W81903  23.295  35.117  11.176
15363W        W81904  40.083  11.160  14.417
15364W        W81905  42.472  37.765  14.820
15365W        W81906  12.902   3.841  12.480
15366W        W81907   4.075  33.579   3.369
15367W        W81908  41.127  25.030   1.856
15368W        W81909   6.718  30.889   2.438
15369W        W81910   2.436  34.558   4.215
15370W        W81911   0.545  39.586  13.986
15371W        W81912  38.570  41.919  13.085
15372W        W81913  10.505  43.940  12.951
15373W        W81914  32.632  28.149   4.716
15374W        W81915   4.984  38.329  14.283
15375W        W81916  41.413   9.462  13.764
15376W        W81917   6.345  27.489  13.388
15377W        W81918   5.631  40.151   2.728
15378W        W81919  29.891  32.620  12.411
15379W        W81920   7.700  14.630  10.683
15380W        W81921  38.903  44.744  11.502
15381W        W81922   4.675  44.828  10.098
15382W        W81923  32.832  12.337   4.660
15383W        W81924  39.445   1.926  14.356
15384W        W81925  27.291  42.071  13.037
15385W        W81926  20.630  22.797  13.787
15386W        W81927  19.388  17.263   4.353
15387W        W81928  38.486  26.994  13.582
15388W        W81929  24.207  12.176   1.935
15389W        W81930  43.941  23.736  13.809
15390W        W81931   8.062  26.508  10.099
15391W        W81932  21.192  23.263   4.144
15392W        W81933  34.778  44.462  14.995
15393W        W81934   6.383  17.144  11.668
15394W        W81935  30.825  33.042  11.130
15395W        W81936  20.490  17.862   9.614
15396W        W81937  41.277  35.955  14.509
15397W        W81938  40.178  11.014  11.921
15398W        W81939  13.234  11.209  14.082
15399W        W81940  15.132  18.344  13.060
15400W        W81941   9.430   9.690   3.724
15401W        W81942  19.251   5.866   0.839
15402W        W81943   5.118  31.131  13.476
15403W        W81944  36.601  26.926  12.481
15404W        W81945  40.521  38.885   0.687
15405W        W81946   9.372  36.219   0.841
15406W        W81947  34.018  22.945  14.166
15407W        W81948   5.851  28.165   0.817
15408W        W81949  16.633   4.911   4.163
15409W        W81950  17.771  17.338  14.477
15410W        W81951   2.692   1.810   1.273
15411W        W81952  15.609  37.081  10.653
15412W        W81953   3.871   7.816  13.934
15413W        W81954  38.554  15.694  11.407
15414W        W81955  15.227  36.344  13.484
15415W        W81956  15.284  35.578   4.288
15416W        W81957   7.432  29.397  14.242
15417W        W81958   5.345  29.530   4.201
15418W        W81959  24.258   4.263   4.082
15419W        W81960  44.940   4.530  14.226
15420W        W81961  35.615   2.411  13.498
15421W        W81962  22.112  31.133   2.918
15422W        W81963  31.097  12.790  14.733
15423W        W81964   4.673  21.552  10.945
15424W        W81965  39.246  35.065   4.025
15425W        W81966  32.495   8.160   2.119
15426W        W81967   2.412  19.063   2.650
15427W        W81968  23.730  33.481  11.098
15428W        W81969  33.124  13.778   4.968
15429W        W81970  12.624  22.294  11.176
15430W        W81971   8.332   0.274  11.580
15431W        W81972  40.899  38.888  11.004
15432W        W81973  19.321   1.445   0.858
15433W        W81974  16.993  19.364   0.967
15434W        W81975  19.638  36.576  10.780
15435W        W81976  43.245  13.378  14.336
15436W        W81977  37.065  34.584   2.164
15437W        W81978  42.327  41.795   2.852
15438W        W81979  26.751  17.182  13.080
15439W        W81980  41.764  31.368   2.688
15440W        W81981  29.535  17.106  12.882
15441W        W81982  37.610   4.304   0.267
15442W        W81983  21.463  31.980   0.876
15443W        W81984  34.258  37.472  12.813
15444W        W81985  10.238  14.599   0.273
15445W        W81986   9.424  17.201   2.946
15446W        W81987  22.201  28.100   2.755
15447W        W81988  14.807  30.955   1.301
15448W        W81989  32.414  42.052   2.218
15449W        W81990   4.509  31.846   2.803
15450W        W81991  39.021   4.472   4.383
15451W        W81992  13.590  12.779  11.633
15452W        W81993  18.647  29.967   2.150
15453W        W81994  36.523  25.889  13.313
15454W        W81995  21.834  12.432  10.200
15455W        W81996  33.386  12.721   9.925
15456W        W81997  16.809  23.542  10.435
15457W        W81998  20.654  15.006   1.231
15458W        W81999  30.869  38.305  11.098
15459W        W82000  23.083   0.568  10.987
15460W        W82001   8.240   0.942  14.522
15461W        W82002  22.385  21.305   0.405
15462W        W82003  13.963  19.265   4.596
15463W        W82004  12.816  39.963   0.013
15464W        W82005  32.145  39.341   1.362
15465W        W82006  33.933  34.405  14.063
15466W        W82007  37.529  27.403  13.617
15467W        W82008  40.948  39.884   4.126
15468W        W82009  30.442  34.303  12.108
15469W        W82010  26.450  36.545   3.778
15470W        W82011  26.429  28.165  12.150
15471W        W82012  19.162   8.149  14.076
15472W        W82013   9.170  20.873  10.636
15473W        W82014   3.695  18.571  10.901
15474W        W82015  29.208  20.817   4.151
15475W        W82016  20.329   3.951   5.095
15476W        W82017  37.455  34.596  11.009
15477W        W82018  35.541   0.423   2.171
15478W        W82019  39.114  39.060   4.394
15479W        W82020  22.474  42.273  11.985
15480W        W82021  12.744  26.932  11.129
15481W        W82022  12.442   4.951  11.556
15482W        W82023  32.146  17.824   2.799
15483W        W82024   9.821  43.078   2.596
15484W        W82025  36.663   3.112   2.528
15485W        W82026  25.443  10.125   4.283
15486W        W82027   7.921   8.828  11.576
15487W        W82028  13.030  31.398   3.710
15488W        W82029  16.113  26.177  12.930
15489W        W82030   7.164  35.105  13.535
15490W        W82031   6.150  17.611  11.499
15491W        W82032  42.719  20.778   4.624
15492W        W82033  41.792   9.280  11.217
15493W        W82034   2.557  25.164  12.103
15494W        W82035  26.540  33.129   3.075
15495W        W82036  19.538  20.148   1.188
15496W        W82037  22.865  38.676  13.416
15497W        W82038  29.416  34.737  14.989
15498W        W82039  37.852  42.744   1.260
15499W        W82040   7.420  16.253   1.176
15500W        W82041  15.560  14.955   0.282
15501W        W82042  17.062  27.826  12.491
15502W        W82043   7.797   6.380  14.660
15503W        W82044  24.447  10.229  13.997
15504W        W82045  20.025  43.678   1.429
15505W        W82046  28.317  23.905   4.689
15506W        W82047  10.340  25.022  10.716
15507W        W82048  33.843  24.961   5.089
15508W        W82049  24.730  11.920   0.254
15509W        W82050  12.054  16.407   0.810
15510W        W82051  23.162  17.573  12.634
15511W        W82052   3.831  40.109   0.437
15512W        W82053   8.857  28.844  14.824
15513W        W82054  21.587  31.989  12.543
15514W        W82055   8.319  19.092   1.341
15515W        W82056  19.830  43.339   4.507
15516W        W82057  35.620  11.220   1.753
15517W        W82058  25.361   2.584   0.711
15518W        W82059  41.830  40.914   2.613
15519W        W82060  41.299  31.685   1.369
15520W        W82061  22.462   0.894   4.080
15521W        W82062  31.217  18.140   4.896
15522W        W82063  27.057  43.925  11.589
15523W        W82064  31.547  17.347  11.175
15524W        W82065   3.616  19.146  12.922
15525W        W82066   3.747  15.995  10.829
15526W        W82067  11.123  28.296  12.090
15527W        W82068  36.467  13.295  11.427
15528W        W82069  39.784  40.334   1.939
15529W        W82070  40.678  43.046   4.187
15530W        W82071   3.582  12.385   3.814
15531W        W82072  19.761   7.129  10.563
15532W        W82073  35.684   6.044  13.332
15533W        W82074  10.713  38.502   3.560
15534W        W82075   7.876  17.040  13.531
15535W        W82076   6.926   8.608  14.923
15536W        W82077  21.825  37.328  13.507
15537W        W82078  38.372  44.895  14.394
15538W        W82079  36.047  42.835  12.619
15539W        W82080  14.127  26.517   0.252
15540W        W82081  30.132  19.260   2.420
15541W        W82082   2.370  36.470   2.661
15542W        W82083   8.580  37.990  11.559
15543W        W82084  13.348  25.596   4.305
15544W        W82085  24.869  15.699   1.681
15545W        W82086  39.476  37.164   0.742
15546W        W82087  27.082  21.094  10.739
15547W        W82088  40.751  36.599  14.178
15548W        W82089  31.047  26.380   2.757
15549W        W82090   9.710  40.852  12.213
15550W        W82091   8.018  31.410   0.803
15551W        W82092  13.136  14.302  13.858
15552W        W82093   7.298   3.789   2.380
15553W        W82094  28.904  43.046  10.546
15554W        W82095  38.715  11.975   1.583
15555W        W82096   2.055   0.445  14.764
15556W        W82097   0.722  10.216  10.684
15557W        W82098  20.558  26.934  10.647
15558W        W82099  19.445  30.485  10.627
15559W        W82100  35.463  15.379  14.978
15560W        W82101  11.735   4.210  14.370
15561W        W82102  43.810  18.574   4.765
15562W        W82103  33.380  34.306   3.811
15563W        W82104  20.462  35.858   4.465
15564W        W82105  40.003  21.256  13.314
15565W        W82106  10.636   1.748  12.450
15566W        W82107  43.135  31.496   2.830
15567W        W82108  21.871  39.098  12.375
15568W        W82109  44.790  28.550  10.653
15569W        W82110  41.307  12.079   0.961
15570W        W82111  42.082  16.931  11.975
15571W        W82112   6.171  11.706  12.035
15572W        W82113  40.341  33.201   2.763
15573W        W82114  27.710  27.700   1.867
15574W        W82115  37.298   4.847  11.090
15575W        W82116  41.546  15.550  14.456
15576W        W82117  23.535  11.927  10.707
15577W        W82118  12.794  30.357  12.011
15578W        W82119  23.138   0.892   4.787
15579W        W82120  12.217   7.136   0.292
15580W        W82121  14.720  18.786   2.405
15581W        W82122   3.200   6.318  14.540
15582W        W82123  42.969  39.578  13.032
15583W        W82124   2.278   7.350  14.495
15584W        W82125   5.983   7.362  14.831
15585W        W82126   5.076   8.453   4.723
15586W        W82127  42.202   6.457  12.508
15587W        W82128  25.877  40.270   0.111
15588W        W82129  42.902  26.621  13.175
15589W        W82130  42.397  28.571  13.101
15590W        W82131  17.419  37.343   2.764
15591W        W82132  42.469  40.995  11.881
15592W        W82133  20.692  31.193  11.636
15593W        W82134  33.350  29.155  11.339
15594W        W82135  36.275  17.058   3.238
15595W        W82136  39.996   0.400   4.603
15596W        W82137  27.091   7.695   3.830
15597W        W82138  18.264   8.368   3.186
15598W        W82139   3.997  37.373   1.330
15599W        W82140  21.089   4.625   1.818
15600W        W82141  13.858   8.936   3.325
15601W        W82142  42.425   6.305   2.910
15602W        W82143   9.513  16.756  10.746
15603W        W82144  17.167   8.706  14.744
15604W        W82145  36.921  43.324   1.365
15605W        W82146  16.375  15.133   4.001
15606W        W82147  19.657  37.975   4.120
15607W        W82148  20.064  10.303   0.210
15608W        W82149   1.232  27.233   2.049
15609W        W82150   4.848  17.180  13.876
15610W        W82151  37.757   6.694   0.254
15611W        W82152  28.474  33.294  11.985
15612W        W82153   7.806  22.141  13.593
15613W        W82154   3.403  11.751   0.946
15614W        W82155  32.966  15.312   0.719
15615W        W82156  11.246   5.148   0.446
15616W        W82157  34.738  21.009   4.980
15617W        W82158  14.861  39.017  14.096
15618W        W82159   9.163  29.359   0.848
15619W        W82160  31.301  17.610  10.404
15620W        W82161  16.756  29.435   3.241
15621W        W82162   2.755  27.646  13.315
15622W        W82163  15.890  30.195   1.347
15623W        W82164   2.311  22.919   1.228
15624W        W82165  25.003   5.040  11.078
15625W        W82166  41.936  32.056  10.804
15626W        W82167  38.748  28.108   0.920
15627W        W82168  39.764  38.488  12.402
15628W        W82169  44.756  41.925  14.882
15629W        W82170  25.994  34.157  12.984
15630W        W82171  15.234   8.135   3.782
15631W        W82172  31.549  19.067  11.808
15632W        W82173  20.954  19.987  11.190
15633W        W82174  10.729  11.808  10.307
15634W        W82175  35.531  35.566  11.859
15635W        W82176   7.939  17.289  11.289
15636W        W82177  18.203  29.596  12.980
15637W        W82178  30.326   5.273   4.271
15638W        W82179  31.876   3.405  10.703
15639W        W82180  21.289  19.343  13.047
15640W        W82181  18.799  44.742   3.135
15641W        W82182   0.287  16.095   3.642
15642W        W82183  31.595  43.751  12.470
15643W        W82184  18.341  22.880  13.434
15644W        W82185  30.262  35.653   0.246
15645W        W82186  20.525  40.280   1.981
15646W        W82187  35.076  41.078   1.370
15647W        W82188  29.227   8.817  10.324
15648W        W82189  37.022  20.039   1.698
15649W        W82190  14.111  28.637  13.392
15650W        W82191   5.033  21.051  13.956
15651W        W82192  15.974   0.805   4.850
15652W        W82193   2.417  23.026   4.452
15653W        W82194  17.255   2.769  12.521
15654W        W82195   8.595   1.016   2.879
15655W        W82196  41.785   3.948  12.802
15656W        W82197  29.682  37.311  14.045
15657W        W82198  41.831   7.404  13.399
15658W        W82199  36.270  25.102  11.560
15659W        W82200  34.343  43.747  12.229
15660W        W82201  31.157  18.143  12.064
15661W        W82202  23.950  29.596   4.046
15662W        W82203  34.227   5.785   5.063
15663W        W82204  27.136   9.210  12.067
15664W        W82205  12.392  20.548   3.249
15665W        W82206  43.775  24.544   2.863
15666W        W82207  35.087  42.952   0.313
15667W        W82208  26.264  18.017  14.237
15668W        W82209  42.856  15.333   1.198
15669W        W82210  10.162  37.112  11.427
15670W        W82211  21.045  34.095   0.071
15671W        W82212   6.346  18.754   2.640
15672W        W82213  13.858  16.264   1.410
15673W        W82214  12.254  25.561   2.687
15674W        W82215  18.153  44.573  11.734
15675W        W82216   0.778  25.537  13.424
15676W        W82217   3.670  18.137  14.898
15677W        W82218   0.229  25.514  11.109
15678W        W82219  16.949  30.106   1.773
15679W        W82220  27.875  30.293   1.964
15680W        W82221  41.276  28.665  12.164
15681W        W82222  37.099  13.557   3.265
15682W        W82223  44.577  32.626   1.374
15683W        W82224  22.147  42.357   0.753
15684W        W82225  17.647   2.929  11.246
15685W        W82226  37.958  28.470  14.811
15686W        W82227  17.254  39.472   0.799
15687W        W82228  22.621  44.010  14.036
15688W        W82229  26.614  23.111   0.280
15689W        W82230  43.506  13.772   3.743
15690W        W82231  41.227   1.153   0.087
15691W        W82232  39.869  34.064  12.456
15692W        W82233  20.940   9.255   0.715
15693W        W82234   9.296  44.388  11.485
15694W        W82235  13.106   6.692  12.438
15695W        W82236   2.038  42.639   9.627
15696W        W82237  38.516  43.392   2.391
15697W        W82238  35.439  26.929   1.416
15698W        W82239  39.510  31.794   1.476
15699W        W82240  35.666   4.026  12.852
15700W        W82241  15.158   4.656  12.659
15701W        W82242  24.142  36.374   3.591
15702W        W82243  10.891  13.070  10.674
15703W        W82244  14.248  28.687   3.636
15704W        W82245  36.499  20.983   5.013
15705W        W82246  40.256  30.138   1.678
15706W        W82247   7.487  41.902  14.968
15707W        W82248  42.071  43.181   2.217
15708W        W82249  36.080  42.906  11.552
15709W        W82250  39.868   8.184  13.118
15710W        W82251  24.730  25.707   4.232
15711W        W82252  17.507   8.717   1.256
15712W        W82253  18.458  38.325  14.017
15713W        W82254   9.394  21.048  14.417
15714W        W82255  26.084  26.962  10.846
15715W        W82256  20.290  36.416   0.779
15716W        W82257  42.784   5.277   0.532
15717W        W82258  20.444  19.230  13.957
15718W        W82259  26.187   2.671  12.420
15719W        W82260  17.693   3.055   0.558
15720W        W82261  33.506  38.900  12.515
15721W        W82262   1.474  31.512  14.109
15722W        W82263  21.146  36.944   2.240
15723W        W82264  13.868  34.822  11.633
15724W        W82265  11.378   1.830  11.944
15725W        W82266  31.485  11.206   0.315
15726W        W82267  43.429  26.918   2.270
15727W        W82268  28.023  26.581  12.388
15728W        W82269  28.039  28.861   0.013
15729W        W82270  21.540  31.538  13.295
15730W        W82271  32.354   4.244   1.723
15731W        W82272   8.553  12.160  13.939
15732W        W82273   6.330   9.318  13.954
15733W        W82274  30.897  24.726  14.356
15734W        W82275  18.485  41.926   0.495
15735W        W82276  11.797  33.671   4.050
15736W        W82277  39.336   3.943  13.152
15737W        W82278   5.673  10.876  12.526
15738W        W82279  21.033  13.553   0.843
15739W        W82280  40.255   0.305   1.651
15740W        W82281  11.302  30.500  14.458
15741W        W82282  31.518  38.034   1.217
15742W        W82283  23.147  22.259   0.817
15743W        W82284   4.210   9.830  13.430
15744W        W82285  16.643  15.917   3.295
15745W        W82286  31.546  26.670   1.781
15746W        W82287   3.823  14.647   1.038
15747W        W82288  19.668   1.711  14.879
15748W        W82289  17.073   2.441  13.973
15749W        W82290  34.678   5.246   3.968
15750W        W82291   2.980   7.368  13.678
15751W        W82292  10.739  39.431  10.627
15752W        W82293  20.485  39.762  11.639
15753W        W82294  10.608   2.755  13.895
15754W        W82295  37.537  17.859   4.516
15755W        W82296  44.269  22.468   3.389
15756W        W82297   3.273  21.170  13.821
15757W        W82298  10.407   5.646  12.166
15758W        W82299   1.865  35.610   2.010
15759W        W82300  16.422  28.038  11.214
15760W        W82301  20.482  28.763  14.778
15761W        W82302  14.729  36.135  10.382
15762W        W82303  28.512  27.111  13.093
15763W        W82304  32.738  39.465  12.571
15764W        W82305   5.744  30.673  12.006
15765W        W82306  18.110  44.957   0.792
15766W        W82307  31.528   5.310  12.503
15767W        W82308   3.715  13.032  10.865
15768W        W82309  11.246   7.860  12.037
15769W        W82310  15.671  12.685   4.326
15770W        W82311  42.915  15.520  14.671
15771W        W82312  40.564  43.847   3.119
15772W        W82313   8.246  18.706  14.932
15773W        W82314   9.868   3.939  10.413
15774W        W82315  20.998   1.971  13.133
15775W        W82316   6.594  38.329  13.153
15776W        W82317  11.167  33.193   0.237
15777W        W82318  17.792  40.179   1.112
15778W        W82319   0.007  31.863  12.839
15779W        W82320  29.010  26.729  10.581
15780W        W82321  12.244  27.522  13.304
15781W        W82322   6.093  37.393  12.266
15782W        W82323  25.572  35.574   4.878
15783W        W82324  16.623  16.492   0.853
15784W        W82325  20.669  38.493  12.494
15785W        W82326   0.109  22.669  14.003
15786W        W82327  18.263   7.214   1.836
15787W        W82328  30.522  21.151   1.770
15788W        W82329   4.552  22.856  10.912
15789W        W82330  41.466   4.915  11.826
15790W        W82331   4.498  21.235  12.095
15791W        W82332  27.923  12.400   3.604
15792W        W82333   0.286   2.737  11.526
15793W        W82334  40.767  13.205  11.284
15794W        W82335  21.532  22.623  10.717
15795W        W82336  36.493  19.931   1.720
15796W        W82337   9.452  36.559   3.268
15797W        W82338  20.971  10.094  13.865
15798W        W82339   3.977   0.207   0.419
15799W        W82340  36.458  15.237  12.070
15800W        W82341   7.715  32.830   0.742
15801W        W82342   8.336  12.179   3.374
15802W        W82343  27.621   9.697   0.738
15803W        W82344  29.042   2.710   4.656
15804W        W82345  33.050  32.711  10.810
15805W        W82346  44.450   2.927  10.407
15806W        W82347  31.036  23.460  14.812
15807W        W82348  34.221  28.885  14.978
15808W        W82349  33.099   0.895   1.234
15809W        W82350  25.589  37.591  12.759
15810W        W82351  37.400  26.441   1.936
15811W        W82352  41.796   6.355   0.305
15812W        W82353  13.573  22.492   3.799
15813W        W82354   3.627  23.645  14.145
15814W        W82355  37.517  11.941   1.658
15815W        W82356  15.185  25.441   2.184
15816W        W82357  27.245  24.921   4.729
15817W        W82358  39.245  36.006  13.416
15818W        W82359  26.883  31.019   1.659
15819W        W82360  13.849   8.768   0.022
15820W        W82361  44.452  14.507  10.574
15821W        W82362  15.809  37.389   4.548
15822W        W82363  44.184  41.034   2.468
15823W        W82364   2.950   4.805   3.280
15824W        W82365   9.703  17.139   1.925
15825W        W82366   0.817  11.023   2.899
15826W        W82367   2.281   0.125  13.046
15827W        W82368  30.677  35.727  13.456
15828W        W82369  33.720  19.247  11.607
15829W        W82370  43.077   8.791  13.395
15830W        W82371  12.805  31.960   4.555
15831W        W82372  20.682  41.033   2.647
15832W        W82373  19.743  23.738   1.403
15833W        W82374  40.921  12.067  12.489
15834W        W82375  32.038  20.877  12.440
15835W        W82376   5.727   2.338   1.447
15836W        W82377   6.382  36.785   2.314
15837W        W82378  11.382  28.271  13.993
15838W        W82379   5.235   9.249   3.583
15839W        W82380  39.834  29.122  10.661
15840W        W82381  20.982   6.861   2.190
15841W        W82382  30.474  39.204  14.872
15842W        W82383   3.007  18.332   1.611
15843W        W82384  18.699   6.899   1.815
15844W        W82385   5.429  30.110  10.223
15845W        W82386   7.194  14.287  12.926
15846W        W82387  16.347   8.113   2.185
15847W        W82388  12.541  12.320   0.395
15848W        W82389  29.735   4.225   0.717
15849W        W82390  43.021  18.677  12.206
15850W        W82391  26.074  31.588   4.577
15851W        W82392  30.026   1.420  14.792
15852W        W82393   0.931  31.848   2.962
15853W        W82394   5.986  34.601  13.328
15854W        W82395   0.742  18.736   4.497
15855W        W82396   3.931  18.018   0.381
15856W        W82397  32.953   6.004  10.548
15857W        W82398  26.053  14.420   3.313
15858W        W82399  39.898  22.268  14.232
15859W        W82400  41.204  17.276   2.170
15860W        W82401  42.835  14.589   0.729
15861W        W82402  34.930   7.321   2.845
15862W        W82403  40.682  35.030  11.929
15863W        W82404  26.014   7.693   4.614
15864W        W82405  34.318  22.222   3.647
15865W        W82406  38.846  12.300   0.335
15866W        W82407   8.596   8.382   4.423
15867W        W82408  12.187  13.362  10.725
15868W        W82409  28.070  30.277   4.108
15869W        W82410  20.641   4.256   1.877
15870W        W82411  44.842  35.667   0.873
15871W        W82412   8.245  23.725   0.284
15872W        W82413  16.011  28.147   4.873
15873W        W82414  41.863   2.422  12.527
15874W        W82415  40.772   9.662  14.354
15875W        W82416  42.926  30.719   9.982
15876W        W82417  11.603  38.855  12.440
15877W        W82418  24.237  25.112  13.133
15878W        W82419  22.144  16.092   2.945
15879W        W82420  27.409  41.086  13.333
15880W        W82421  20.514  16.478   2.139
15881W        W82422  33.213  19.068   0.651
15882W        W82423  38.471  43.890  13.017
15883W        W82424   6.841  36.206  14.713
15884W        W82425  15.757  34.899  11.472
15885W        W82426  27.997  40.741  13.442
15886W        W82427   7.035   0.531  12.217
15887W        W82428   8.642  34.971   4.883
15888W        W82429  23.964  39.745   0.903
15889W        W82430  17.509  19.561   3.743
15890W        W82431  35.089  35.515  13.363
15891W        W82432  10.901  43.282  14.611
15892W        W82433  16.267  14.107   4.152
15893W        W82434  13.740  18.788   3.907
15894W        W82435  17.390  28.470   2.321
15895W        W82436  12.524  42.407   2.215
15896W        W82437   5.412  36.917  12.508
15897W        W82438  39.899  39.386   4.648
15898W        W82439  27.720  21.098   1.849
15899W        W82440   1.801  28.869  14.271
15900W        W82441   7.922  41.487  12.887
15901W        W82442  41.050  17.984   0.019
15902W        W82443   0.604  42.891  13.459
15903W        W82444  11.085  25.087  14.780
15904W        W82445  28.443   7.214  14.469
15905W        W82446  43.479   9.275   0.055
15906W        W82447   4.695  26.189  12.546
15907W        W82448  14.820   2.886   4.942
15908W        W82449  21.708  23.248  14.846
15909W        W82450  41.813  17.496   2.738
15910W        W82451  24.762   6.854   5.059
15911W        W82452   9.118   4.787   4.704
15912W        W82453  20.708  24.983   0.215
15913W        W82454  30.537  36.816   2.633
15914W        W82455  31.115  20.819  14.331
15915W        W82456   3.641  42.926   3.721
15916W        W82457  31.674   2.113   4.160
15917W        W82458  32.326   7.821   3.317
15918W        W82459  21.241  16.131   1.792
15919W        W82460  18.972  30.657   0.798
15920W        W82461  22.673  43.823  10.592
15921W        W82462   4.767  38.268   3.259
15922W        W82463  32.337  39.273  11.030
15923W        W82464  26.959   2.741   3.412
15924W        W82465  16.581  26.515   4.416
15925W        W82466  40.418  13.214   3.021
15926W        W82467   8.725  11.087   3.125
15927W        W82468  14.363  12.770   3.860
15928W        W82469  21.426  21.197  13.827
15929W        W82470  15.307  19.334  10.673
15930W        W82471  19.821  34.582   3.810
15931W        W82472  36.399   9.715  14.478
15932W        W82473  20.394  33.146  14.884
15933W        W82474  25.034  17.090   0.945
15934W        W82475   6.941  35.612  11.416
15935W        W82476  32.079  23.778   1.840
15936W        W82477  13.593  28.686  13.838
15937W        W82478  21.760  41.263   2.591
15938W        W82479  29.870  18.502  13.950
15939W        W82480  25.798  41.091  11.639
15940W        W82481   3.714  44.296   1.306
15941W        W82482  27.647  44.299   3.764
15942W        W82483  28.669  11.626  11.245
15943W        W82484  39.791  19.361   3.770
15944W        W82485  38.597   3.320   3.647
15945W        W82486   7.475  28.013  12.340
15946W        W82487  41.996   4.508   2.788
15947W        W82488  34.443   1.818  11.686
15948W        W82489  22.298   0.856  14.958
15949W        W82490  42.773  42.513  13.802
15950W        W82491  31.296  24.278   3.260
15951W        W82492  10.159  30.180  12.836
15952W        W82493  38.889  32.356  10.233
15953W        W82494  30.035  18.289  12.175
15954W        W82495  35.880  29.362  12.074
15955W        W82496   0.204   8.449  11.022
15956W        W82497   8.701  31.149   4.456
15957W        W82498   5.653  24.086   2.802
15958W        W82499  42.493  24.293  12.016
15959W        W82500   3.751  28.489   2.179
15960W        W82501  28.257   2.844   0.821
15961W        W82502  15.773  22.012   2.721
15962W        W82503  14.105  24.038   0.575
15963W        W82504  44.752   0.305  11.665
15964W        W82505   9.601   7.453   0.631
15965W        W82506  41.906  32.550   0.242
15966W        W82507  33.859   3.748   1.924
15967W        W82508  43.584   8.818  14.803
15968W        W82509  43.690  12.579  13.214
15969W        W82510  10.483  13.220  14.032
15970W        W82511  39.061  18.251   0.730
15971W        W82512   1.372  31.543   0.403
15972W        W82513  29.177  36.107   1.824
15973W        W82514  34.035  20.207  14.483
15974W        W82515  31.690  38.460   3.201
15975W        W82516  24.702  33.449   1.649
15976W        W82517   0.147   2.688  13.407
15977W        W82518  41.352  27.290   2.877
15978W        W82519  29.113  21.103   3.624
15979W        W82520  35.658  20.970   3.951
15980W        W82521  35.407  39.726   4.157
15981W        W82522  38.232  37.784   3.706
15982W        W82523  12.103  37.574   2.288
15983W        W82524  32.592  27.401  10.739
15984W        W82525  30.667  40.504  12.061
15985W        W82526  36.593  13.910  12.400
15986W        W82527  12.622  33.386   2.108
15987W        W82528  21.477  43.914  12.459
15988W        W82529   9.488   0.870  14.679
15989W        W82530  21.744  15.340   5.353
15990W        W82531  12.770  31.386   3.266
15991W        W82532  25.806  39.075   2.784
15992W        W82533   7.047  22.651   3.136
15993W        W82534  35.324  27.796  12.341
15994W        W82535  44.517  14.326   1.946
15995W        W82536  29.437   1.219  13.559
15996W        W82537  10.734   6.172   4.278
15997W        W82538  22.575  41.613   0.976
15998W        W82539  18.956   2.496   1.912
15999W        W82540  35.326  42.452   3.209
16000W        W82541  32.885  27.199  14.940
16001W        W82542  13.270  11.161   2.026
16002W        W82543  26.843  36.461  11.125
16003W        W82544  41.272  24.966   3.690
16004W        W82545  42.659  13.609   5.387
16005W        W82546   4.190  36.032   1.628
16006W        W82547  31.917  19.804  12.165
16007W        W82548  10.980  24.549  14.505
16008W        W82549  38.742  22.526  13.523
16009W        W82550  34.491  43.074  12.858
16010W        W82551   4.911  12.545  13.947
16011W        W82552   6.818  11.773  14.854
16012W        W82553   8.463  40.916  11.678
16013W        W82554  17.010   7.454   2.719
16014W        W82555   7.571  20.214  11.678
16015W        W82556  38.985   4.470   2.791
16016W        W82557   0.309  42.876  11.960
16017W        W82558  32.406  44.560  11.599
16018W        W82559  10.583  27.806   0.258
16019W        W82560  25.181  27.580  11.989
16020W        W82561  26.475   7.176  13.870
16021W        W82562   1.838  29.564  14.345
16022W        W82563  10.356   7.606  14.840
16023W        W82564  25.090  22.587  13.358
16024W        W82565  26.073  39.556  12.542
16025W        W82566  24.704  28.734  14.492
16026W        W82567  37.823  44.341  10.632
16027W        W82568  41.751  37.584  14.322
16028W        W82569  30.578   3.813   4.220
16029W        W82570  37.008  29.336  14.627
16030W        W82571  32.104   2.936  11.706
16031W        W82572   8.717   1.004  10.711
16032W        W82573  15.298  10.785   0.201
16033W        W82574   6.825  19.149   3.239
16034W        W82575  39.845  30.059  13.556
16035W        W82576  37.251  17.313  11.666
16036W        W82577  29.860  26.670   4.260
16037W        W82578  21.513  16.842  12.849
16038W        W82579  14.410   0.449   4.070
16039W        W82580  18.817  12.718   1.786
16040W        W82581   7.058   0.426   9.701
16041W        W82582  25.480   0.763  12.824
16042W        W82583  15.158   2.950   3.171
16043W        W82584  25.208  32.208   4.591
16044W        W82585  22.321  20.566   3.415
16045W        W82586  31.619  44.574  13.511
16046W        W82587  31.470   3.562   4.600
16047W        W82588  43.258  26.730   4.246
16048W        W82589   7.672  10.625  10.819
16049W        W82590  20.284  22.121  12.309
16050W        W82591  24.818  13.693  14.297
16051W        W82592  40.444  41.327   4.153
16052W        W82593  33.130  22.001  13.075
16053W        W82594   5.009  31.696   4.579
16054W        W82595   8.933   1.786   4.216
16055W        W82596   1.500  43.830   2.623
16056W        W82597  26.526  19.604  13.874
16057W        W82598  18.912  17.293  12.833
16058W        W82599  18.707  11.414   0.834
16059W        W82600  25.695   3.317   1.670
16060W        W82601  42.089  30.057  13.003
16061W        W82602   2.919  28.027  11.531
16062W        W82603  35.650  17.932  11.062
16063W        W82604  22.486  37.112   4.932
16064W        W82605  34.647  25.053  11.195
16065W        W82606   6.820  43.909   1.489
16066W        W82607   6.452  16.266   1.150
16067W        W82608  24.135   7.374  13.343
16068W        W82609  10.197   0.104  13.755
16069W        W82610  35.611  36.977   0.375
16070W        W82611  40.622  23.152   2.884
16071W        W82612  28.131  12.175  14.342
16072W        W82613  43.922  24.430   1.890
16073W        W82614  16.962  17.246   4.962
16074W        W82615  36.990  39.473  12.991
16075W        W82616   2.489  17.325  13.569
16076W        W82617  11.715  16.391  11.557
16077W        W82618  40.479   2.443   1.585
16078W        W82619  33.390  15.734   0.027
16079W        W82620  27.064  14.317  11.055
16080W        W82621  18.522  26.956   2.929
16081W        W82622  15.022  19.015  11.024
16082W        W82623   8.205  22.698   1.187
16083W        W82624   8.118  44.566   4.237
16084W        W82625  33.139  21.111  14.525
16085W        W82626   7.797  12.877  12.934
16086W        W82627  19.064  31.099   0.465
16087W        W82628   9.938  29.153   1.766
16088W        W82629  35.947  31.024  14.321
16089W        W82630   8.152  39.956  12.173
16090W        W82631  17.142  39.021   4.989
16091W        W82632   0.814  25.034  13.717
16092W        W82633  43.055  13.672  12.497
16093W        W82634  34.861  44.944   4.518
16094W        W82635  43.962   2.999   3.843
16095W        W82636  24.092  27.864   0.531
16096W        W82637   5.882  29.501  14.545
16097W        W82638   6.864  19.071  11.593
16098W        W82639  30.073  24.479   2.224
16099W        W82640  11.052  36.314  13.775
16100W        W82641  15.665  19.054   4.564
16101W        W82642  24.991  35.237  10.907
16102W        W82643  20.740  12.430  12.139
16103W        W82644  36.828  20.005   0.729
16104W        W82645  38.407  30.996   2.199
16105W        W82646  27.171  32.431  11.218
16106W        W82647   6.281   5.421   1.209
16107W        W82648  17.175   1.702  10.454
16108W        W82649  17.877  41.391   3.862
16109W        W82650  22.302  34.093   2.173
16110W        W82651   7.317  41.358  13.410
16111W        W82652  15.819  28.855   4.161
16112W        W82653  16.039  28.480   0.488
16113W        W82654   3.327  43.968   4.522
16114W        W82655  11.151   5.702  10.748
16115W        W82656  34.708   7.164  11.912
16116W        W82657  23.624  20.505   0.271
16117W        W82658  25.012  13.289   2.369
16118W        W82659  22.632  44.507  11.524
16119W        W82660  31.493   7.334   0.990
16120W        W82661  20.698   0.374  12.315
16121W        W82662  21.028  34.818   2.125
16122W        W82663  42.651  37.227   3.381
16123W        W82664   4.471  39.512  11.203
16124W        W82665  24.411  37.268   4.871
16125W        W82666  22.102  42.785  14.320
16126W        W82667   6.423  44.391   0.022
16127W        W82668  44.004  21.228   1.336
16128W        W82669  30.843  20.294   0.244
16129W        W82670  10.144  37.959  14.971
16130W        W82671  28.478  10.073  13.944
16131W        W82672   7.597  24.214   1.344
16132W        W82673  14.075  17.802  14.017
16133W        W82674  23.480  30.331   0.820
16134W        W82675  42.361  15.059   4.537
16135W        W82676  17.166  28.324  12.639
16136W        W82677  33.011  37.844   4.592
16137W        W82678  33.489  44.905   5.091
16138W        W82679   7.362  13.669  10.736
16139W        W82680  19.695  32.161  12.531
16140W        W82681   1.500   6.893  14.429
16141W        W82682  39.417  34.834   0.420
16142W        W82683  33.437  18.755  13.158
16143W        W82684  44.696  18.277   3.630
16144W        W82685  20.005   8.152  11.903
16145W        W82686  35.678   4.264   0.217
16146W        W82687  18.520  13.032  14.286
16147W        W82688  34.628  29.025   4.165
16148W        W82689  28.679  39.830  10.924
16149W        W82690  30.071  26.366   4.682
16150W        W82691  23.372  21.936  13.985
16151W        W82692   9.019  10.086   0.622
16152W        W82693  37.291  40.954  14.375
16153W        W82694  17.751  27.063  13.101
16154W        W82695  19.311  27.883   1.898
16155W        W82696  40.243  30.542  12.188
16156W        W82697   4.379  30.417   2.699
16157W        W82698  19.283   1.103  11.571
16158W        W82699  17.839  37.568   4.624
16159W        W82700  17.709  15.269   0.989
16160W        W82701  39.161  30.538   4.515
16161W        W82702  44.846  39.980   4.185
16162W        W82703  10.634  13.399   3.960
16163W        W82704   2.366  28.199  10.303
16164W        W82705   3.344  23.024   4.837
16165W        W82706   0.236  26.920  13.891
16166W        W82707  13.057  39.384   4.577
16167W        W82708   6.871  25.281  11.684
16168W        W82709   8.138  20.530  10.647
16169W        W82710  41.964   3.707  11.018
16170W        W82711  41.475  44.849  13.608
16171W        W82712  39.918   3.879   0.369
16172W        W82713  10.587  42.466  14.738
16173W        W82714  27.053  26.192  10.947
16174W        W82715   5.015  19.496  11.294
16175W        W82716  24.798   6.385  14.029
16176W        W82717  19.481   2.003   2.630
16177W        W82718  38.890  29.165   3.341
16178W        W82719   9.922   5.645   1.877
16179W        W82720  40.471  22.311  14.071
16180W        W82721  30.304  36.779   4.130
16181W        W82722  30.456  18.492   2.257
16182W        W82723  32.418  30.168   2.200
16183W        W82724  21.054   4.317   1.084
16184W        W82725  13.923   1.430  10.668
16185W        W82726  27.632  34.076  10.786
16186W        W82727  41.988  23.611  13.523
16187W        W82728  38.499  44.769   0.218
16188W        W82729   8.829  32.897  13.817
16189W        W82730  30.194  37.269   1.227
16190W        W82731  38.653  24.923   3.330
16191W        W82732  36.133  11.175   1.781
16192W        W82733  19.118  43.936   1.886
16193W        W82734  28.221  37.000  11.926
16194W        W82735  38.748  20.049  13.417
16195W        W82736  37.802  18.021  11.816
16196W        W82737   8.542  39.273  11.252
16197W        W82738  43.152  19.581   1.851
16198W        W82739   3.983   2.685  13.138
16199W        W82740  31.467  31.399  10.820
16200W        W82741   6.727   2.036  13.869
16201W        W82742  35.602  27.543  11.164
16202W        W82743   3.719   4.308   3.297
16203W        W82744  24.786   9.184  11.131
16204W        W82745  34.055   2.407   0.288
16205W        W82746  25.075  16.067   4.616
16206W        W82747  30.207   8.939   4.695
16207W        W82748  15.399  37.663   2.846
16208W        W82749  18.780  11.551   4.027
16209W        W82750   8.308  35.578   2.333
16210W        W82751   6.546   3.346   0.343
16211W        W82752  25.946  19.967   1.750
16212W        W82753  24.690  14.211   2.186
16213W        W82754   2.915  42.041  11.941
16214W        W82755   2.307  37.917   2.833
16215W        W82756  32.573  17.526   2.854
16216W        W82757  41.740  13.490   3.534
16217W        W82758   6.597  21.615  12.911
16218W        W82759  30.637   6.403   4.188
16219W        W82760  20.104   3.899   4.634
16220W        W82761  35.821  37.603  12.234
16221W        W82762  33.394  32.196  14.034
16222W        W82763  22.417   0.385   3.881
16223W        W82764  23.730  42.128   3.570
16224W        W82765  29.707  32.152   3.580
16225W        W82766  44.923  35.596  13.994
16226W        W82767   4.802  24.939  12.069
16227W        W82768  23.771  21.191  13.581
16228W        W82769  19.057  20.600   4.598
16229W        W82770  20.155  43.095  12.990
16230W        W82771  38.630  40.836   5.024
16231W        W82772  37.788  44.564   4.778
16232W        W82773  18.628  37.535  14.506
16233W        W82774  39.978  19.023  13.962
16234W        W82775  19.105  20.255  14.905
16235W        W82776  28.968  33.074   2.767
16236W        W82777  22.189   1.066  14.492
16237W        W82778  25.447  27.785  11.161
16238W        W82779  14.714   9.877  12.522
16239W        W82780  15.227  24.772  12.402
16240W        W82781  22.507   0.460   3.348
16241W        W82782  21.335  11.513  11.068
16242W        W82783  16.820  14.105   0.723
16243W        W82784  30.019  40.170  10.916
16244W        W82785  35.075  25.161   2.871
16245W        W82786   1.680  19.110   3.164
16246W        W82787  36.047  38.918  11.535
16247W        W82788  22.600  37.190   4.311
16248W        W82789  12.009  40.956  10.442
16249W        W82790  36.538   5.937  10.399
16250W        W82791   4.473   1.320   0.785
16251W        W82792  28.432  40.861   4.046
16252W        W82793  23.560  22.313   2.820
16253W        W82794  21.069  32.627  12.974
16254W        W82795  22.844  28.623   0.804
16255W        W82796  21.671  30.113  11.541
16256W        W82797  27.057  28.374   3.031
16257W        W82798  10.296  17.083   0.157
16258W        W82799  14.292  11.622   0.635
16259W        W82800   8.418  32.038   1.371
16260W        W82801  42.077  25.209   3.428
16261W        W82802  28.884  31.445  11.139
16262W        W82803  32.040  38.967   3.600
16263W        W82804  16.806   4.362  14.463
16264W        W82805  34.644  22.635   1.272
16265W        W82806   4.562  38.044   4.591
16266W        W82807  18.382  35.003   1.336
16267W        W82808   7.869  15.370   3.136
16268W        W82809  38.804  43.377   1.935
16269W        W82810  44.789  35.304  13.445
16270W        W82811  15.250  39.772   5.247
16271W        W82812  25.060  37.379   3.731
16272W        W82813  28.990  10.308  11.492
16273W        W82814  15.287  29.178   5.042
16274W        W82815  12.150  14.101  13.961
16275W        W82816  34.860  24.558  11.156
16276W        W82817  42.806  18.860  13.434
16277W        W82818  22.096  35.356  14.481
16278W        W82819  32.528   5.919   4.148
16279W        W82820  40.947  20.987  12.281
16280W        W82821  20.005  30.445  14.554
16281W        W82822   9.862  17.374   0.400
16282W        W82823  35.854  12.922   4.898
16283W        W82824   3.998  28.641   2.609
16284W        W82825  38.992  38.542  13.826
16285W        W82826  30.071  11.634  11.040
16286W        W82827   8.854  41.362   0.346
16287W        W82828  12.087  17.322  12.657
16288W        W82829  43.938  12.885  14.773
16289W        W82830  19.053  27.567  14.844
16290W        W82831  18.202   1.024  14.925
16291W        W82832  11.730   8.362   1.426
16292W        W82833   7.668   9.906  12.922
16293W        W82834  21.346   2.071  14.168
16294W        W82835  23.763  22.046  12.230
16295W        W82836  15.642  10.717   2.278
16296W        W82837  12.117  15.634  14.012
16297W        W82838   6.225  19.122  10.691
16298W        W82839  42.961  17.885   3.679
16299W        W82840  24.981  40.835  14.931
16300W        W82841  23.719  28.139  11.135
16301W        W82842   1.965  26.672  11.172
16302W        W82843  29.886  41.316   2.629
16303W        W82844  13.148  21.078   0.657
16304W        W82845  42.951  31.106  11.095
16305W        W82846  37.393  37.988   2.707
16306W        W82847  12.303  23.543  11.529
16307W        W82848  35.815  10.943   1.367
16308W        W82849  39.521  43.511   2.336
16309W        W82850  30.388  19.280  14.479
16310W        W82851  13.497  36.101   0.363
16311W        W82852  29.429  40.946   3.418
16312W        W82853  13.663  43.031  13.413
16313W        W82854  30.112  33.602   1.178
16314W        W82855  40.206   8.308   0.202
16315W        W82856  28.511  16.192   2.697
16316W        W82857  11.923  42.228  14.239
16317W        W82858  23.112   8.977  11.579
16318W        W82859   2.742  11.810   0.237
16319W        W82860  24.687  16.127  13.418
16320W        W82861  19.638  37.577   3.801
16321W        W82862  30.722  17.983   1.688
16322W        W82863  42.805  27.597   0.625
16323W        W82864  30.384  29.993   4.652
16324W        W82865  30.075  35.890   0.739
16325W        W82866  43.364  12.332  10.233
16326W        W82867  13.738  27.613   4.490
16327W        W82868   4.887  22.178  12.996
16328W        W82869  33.996  27.317   1.769
16329W        W82870  26.169   0.452   1.281
16330W        W82871   2.364  23.243   4.918
16331W        W82872  17.678   7.885  10.761
16332W        W82873  31.216  11.101   9.730
16333W        W82874  22.092   3.528  13.058
16334W        W82875  19.943   6.658  10.674
16335W        W82876  32.146   2.743  13.109
16336W        W82877   6.507   1.856   0.257
16337W        W82878   5.758  23.422   4.010
16338W        W82879   8.128  27.008  12.536
16339W        W82880   7.045  15.250   5.070
16340W        W82881  23.526  11.163  11.778
16341W        W82882  16.727  16.905   2.311
16342W        W82883   1.425  30.981   0.972
16343W        W82884  20.500  44.800   0.657
16344W        W82885  23.981  24.675   2.739
16345W        W82886  15.708  22.543   3.046
16346W        W82887  43.126  37.120  11.798
16347W        W82888  26.429  21.430   3.203
16348W        W82889  29.418  28.689   4.485
16349W        W82890  28.843  31.884  14.289
16350W        W82891  18.566  32.813   2.825
16351W        W82892  37.133  22.236  13.932
16352W        W82893  31.672  26.147   1.796
16353W        W82894  28.920  32.585   0.736
16354W        W82895  37.600  30.526   2.024
16355W        W82896  35.094   3.813  12.765
16356W        W82897  36.309  18.012   1.675
16357W        W82898  37.935   5.525  11.638
16358W        W82899  20.776  20.182  14.825
16359W        W82900  27.356  12.295  12.027
16360W        W82901  39.408  35.766  13.837
16361W        W82902  19.855  24.379   2.964
16362W        W82903  18.213  38.452  10.678
16363W        W82904   6.678  43.289   0.245
16364W        W82905  35.323  42.832   1.503
16365W        W82906  34.127   9.644  13.912
16366W        W82907  11.676  14.686   1.477
16367W        W82908  36.988  40.680  12.596
16368W        W82909  22.246  43.499   1.172
16369W        W82910  43.270  17.169  12.437
16370W        W82911  26.690  19.381   0.672
16371W        W82912  27.908   6.615  11.599
16372W        W82913  23.719  24.644   3.188
16373W        W82914  22.608   2.314  14.512
16374W        W82915  35.236   8.264   2.828
16375W        W82916  38.878  22.031   0.288
16376W        W82917  30.841  13.565   1.249
16377W        W82918  36.049  19.416   0.710
16378W        W82919  13.579  40.016   3.284
16379W        W82920  42.085  18.450   9.718
16380W        W82921  26.960  36.124   4.525
16381W        W82922   4.304   9.222   0.481
16382W        W82923  41.383  13.879   3.572
16383W        W82924  21.650  19.121   1.873
16384W        W82925  17.364   6.732  11.439
16385W        W82926   4.594  26.737   5.083
16386W        W82927  20.167  16.940   3.579
16387W        W82928  18.696  34.243  11.229
16388W        W82929  36.093  11.076   0.412
16389W        W82930  36.432   6.922   1.321
16390W        W82931  16.539   6.693   3.113
16391W        W82932  31.462  33.942   2.305
16392W        W82933  32.021  14.225   3.726
16393W        W82934  20.247  41.546   3.994
16394W        W82935  18.210  14.058  12.526
16395W        W82936  40.227  29.034   3.103
16396W        W82937  25.004   7.383  13.868
16397W        W82938  15.095  44.340  11.219
16398W        W82939  15.813  42.379  13.761
16399W        W82940  11.603   3.443  12.068
16400W        W82941  32.574   0.674   4.562
16401W        W82942  10.594  13.280  11.144
16402W        W82943   2.990  11.631   2.681
16403W        W82944  15.225  42.014  12.347
16404W        W82945  14.614  11.070   3.168
16405W        W82946   1.911  29.995   1.952
16406W        W82947  19.229  31.130  11.122
16407W        W82948   6.667  22.738   2.297
16408W        W82949  35.229  37.586  13.280
16409W        W82950  16.571   3.072  12.617
16410W        W82951  32.103  34.520  11.182
16411W        W82952  36.550  24.604   4.181
16412W        W82953   3.971  28.669   4.840
16413W        W82954  20.774  33.075  11.452
16414W        W82955  32.018  37.665  13.034
16415W        W82956   5.321  10.115  14.569
16416W        W82957  38.077  32.924   3.424
16417W        W82958   8.292  30.778   0.702
16418W        W82959  21.491  17.238   2.608
16419W        W82960  31.256   1.812  10.277
16420W        W82961  29.644  32.060   4.082
16421W        W82962  19.036   9.935  11.631
16422W        W82963  33.952  38.097  14.808
16423W        W82964   5.037   0.522   3.630
16424W        W82965  30.172  42.359  12.457
16425W        W82966  15.698  38.394   4.363
16426W        W82967  30.147  14.595  14.911
16427W        W82968   3.623  30.083  11.923
16428W        W82969   8.929  25.422   3.281
16429W        W82970  10.767  23.973   2.417
16430W        W82971  40.028  18.618  11.750
16431W        W82972  41.976   5.836  13.130
16432W        W82973  42.038  34.442  12.064
16433W        W82974  35.376  41.488  14.411
16434W        W82975  13.019  36.613   0.818
16435W        W82976  32.596  39.994  12.467
16436W        W82977   9.760  16.500   4.432
16437W        W82978   5.622  33.422   3.424
16438W        W82979  44.781  37.977  14.484
16439W        W82980  16.759  23.228  12.559
16440W        W82981  21.526  37.156   3.143
16441W        W82982  17.265  38.473  11.067
16442W        W82983  13.311  34.887  14.995
16443W        W82984  44.248  12.559  11.220
16444W        W82985  18.156  28.415  14.509
16445W        W82986   3.617  11.544  14.407
16446W        W82987  42.989   0.784   1.237
16447W        W82988  11.290  26.075   3.535
16448W        W82989  33.605  19.548  14.803
16449W        W82990  37.262   2.686   4.260
16450W        W82991  40.953  26.594  12.036
16451W        W82992  24.508   7.968   0.433
16452W        W82993  11.671  26.607   0.826
16453W        W82994  34.025  14.420  12.027
16454W        W82995  41.935  40.966   0.149
16455W        W82996  17.177  18.559   4.795
16456W        W82997  40.389   8.724  12.918
16457W        W82998  44.951  10.419   1.936
16458W        W82999  36.365  25.151   3.229
16459W        W83000  11.505  37.479   0.900
16460W        W83001   9.645  12.190   1.868
16461W        W83002  29.096  39.834  11.273
16462W        W83003  44.521  15.515   4.600
16463W        W83004  44.776  13.265  13.563
16464W        W83005  37.872  26.993   1.733
16465W        W83006  31.455  20.036   1.338
16466W        W83007  17.019  10.908  11.268
16467W        W83008   2.420  24.660  12.065
16468W        W83009  14.569  32.168  12.832
16469W        W83010  38.709  12.389   4.589
16470W        W83011  18.678  39.670  11.601
16471W        W83012  23.542   2.443   1.854
16472W        W83013  43.254  20.380  11.107
16473W        W83014  15.226  20.695   4.523
16474W        W83015  25.556  30.106   0.189
16475W        W83016   3.077  34.115  12.550
16476W        W83017   6.963  42.005  14.965
16477W        W83018  42.571  17.054  14.889
16478W        W83019  42.822   6.814  10.559
16479W        W83020  25.899  12.146   2.487
16480W        W83021   1.629  19.669  12.712
16481W        W83022  34.717  26.750   4.587
16482W        W83023  12.238  17.074   2.880
16483W        W83024  34.400  43.347  11.899
16484W        W83025  22.755  14.728  13.887
16485W        W83026  42.282   6.354  11.001
16486W        W83027  40.459  17.623  14.409
16487W        W83028  16.491  41.386   1.425
16488W        W83029  31.554  43.252  12.325
16489W        W83030  42.562  37.377   0.697
16490W        W83031  10.192  24.845   2.347
16491W        W83032  40.832  35.409  12.711
16492W        W83033  11.760  10.021  10.236
16493W        W83034   3.695   5.164   3.696
16494W        W83035  28.769  17.660   1.979
16495W        W83036  28.588  17.603  14.478
16496W        W83037   3.800  37.943   1.139
16497W        W83038  29.057  25.278  10.427
16498W        W83039  43.467  40.812  12.658
16499W        W83040  40.276  14.110  14.502
16500W        W83041  17.062  13.210   4.181
16501W        W83042  29.820  32.876  11.963
16502W        W83043  25.063   6.215   1.243
16503W        W83044   7.631  25.440   3.547
16504W        W83045   2.703  44.691   4.068
16505W        W83046  42.190  12.255   0.799
16506W        W83047  15.660  20.764   0.657
16507W        W83048  16.466  26.533   2.407
16508W        W83049  43.556  21.159   1.635
16509W        W83050  38.941  37.547  14.920
16510W        W83051   0.527  21.123  12.034
16511W        W83052   3.201   9.005  11.432
16512W        W83053  22.163  40.227  14.195
16513W        W83054  25.604   2.956   3.778
16514W        W83055  16.249  29.539  10.661
16515W        W83056  37.294  11.334  14.335
16516W        W83057  44.102  21.365  10.989
16517W        W83058  10.906  41.922  12.041
16518W        W83059  40.408  36.162   4.603
16519W        W83060  35.921  11.492   3.600
16520W        W83061  36.412  14.602   3.149
16521W        W83062  39.074  20.776   3.421
16522W        W83063  43.987   2.959  11.159
16523W        W83064  31.819  10.831  12.459
16524W        W83065   5.383   0.627  12.517
16525W        W83066   6.848   2.190  12.495
16526W        W83067  12.109  18.789   3.347
16527W        W83068  36.390  22.449   1.725
16528W        W83069  43.374  19.265   1.480
16529W        W83070  29.870   9.417  11.345
16530W        W83071  30.433  44.325  13.135
16531W        W83072  42.022  12.123   1.297
16532W        W83073  19.553  31.892  10.589
16533W        W83074   4.323  32.196  14.865
16534W        W83075  42.824   2.223   0.423
16535W        W83076  42.759  20.272   0.106
16536W        W83077  34.680  43.935   4.711
16537W        W83078  36.124  20.690   4.041
16538W        W83079  35.188  36.674  13.397
16539W        W83080  40.744  17.970   1.368
16540W        W83081   1.179  27.878   2.860
16541W        W83082  39.883   0.516  12.039
16542W        W83083   2.122  22.232   3.590
16543W        W83084  24.771   8.637  14.879
16544W        W83085  41.773  30.404  12.156
16545W        W83086  39.486   8.160  11.161
16546W        W83087   2.248  25.042   2.894
16547W        W83088  26.052  27.036   0.818
16548W        W83089  35.174  30.802   3.422
16549W        W83090  38.688  11.137   1.985
16550W        W83091  20.431   6.924  10.811
16551W        W83092   8.706  21.210  14.905
16552W        W83093  15.125  35.688  14.892
16553W        W83094   8.186  18.621  12.055
16554W        W83095   3.721   0.328   9.865
16555W        W83096  38.958  27.621   3.557
16556W        W83097  34.403  20.248   0.768
16557W        W83098  29.062   2.187   3.247
16558W        W83099  23.905  22.592  11.461
16559W        W83100  43.816  10.041   4.028
16560W        W83101  26.056  37.134   0.355
16561W        W83102  25.625  33.340  12.848
16562W        W83103   5.084  32.625   5.025
16563W        W83104  38.436   6.787   3.107
16564W        W83105  22.591  13.868   4.721
16565W        W83106  34.146   7.194   1.333
16566W        W83107  36.052  32.923   3.215
16567W        W83108   4.188   2.661   4.369
16568W        W83109  19.461  21.753   2.398
16569W        W83110   4.633   7.252   2.793
16570W        W83111  33.404  44.711   1.432
16571W        W83112  14.131   2.470   3.848
16572W        W83113  38.372  23.129  11.706
16573W        W83114  34.657  21.499   1.886
16574W        W83115  37.091  15.800  11.017
16575W        W83116  17.294   8.907  13.444
16576W        W83117  29.964  17.288  14.791
16577W        W83118   2.439  25.487   3.065
16578W        W83119  25.478  23.532   3.775
16579W        W83120  41.580  19.588  11.138
16580W        W83121  38.988  21.904  10.693
16581W        W83122   9.438  10.405   3.654
16582W        W83123  33.576  44.971  13.616
16583W        W83124  11.537  36.509   3.314
16584W        W83125  28.515  16.538  13.949
16585W        W83126  24.527   5.387   3.085
16586W        W83127  38.648  39.926  12.082
16587W        W83128   4.665  36.630   2.645
16588W        W83129  41.401  24.030  12.923
16589W        W83130  22.201   6.964   0.489
16590W        W83131  41.525   1.767   3.681
16591W        W83132  15.404  27.549  13.900
16592W        W83133  37.568  25.096   1.476
16593W        W83134  42.171  13.377   3.297
16594W        W83135  32.628  17.649   1.375
16595W        W83136  19.279  42.576   0.013
16596W        W83137   3.446  36.578   3.903
16597W        W83138  33.166  24.301   2.332
16598W        W83139  20.661  31.050  11.131
16599W        W83140  18.484   4.954  11.543
16600W        W83141  24.840   6.716  10.261
16601W        W83142  24.700  33.624   4.410
16602W        W83143   8.794  22.798  12.625
16603W        W83144  26.750  10.668   3.073
16604W        W83145  14.802  44.159  10.597
16605W        W83146  23.080  24.462  11.521
16606W        W83147   9.882  19.682   3.748
16607W        W83148  13.642   0.218   4.711
16608W        W83149  41.599   1.705  14.017
16609W        W83150  40.804  43.077   0.897
16610W        W83151   1.693  39.655   2.892
16611W        W83152  12.613   3.096  14.585
16612W        W83153  27.737  13.321   2.675
16613W        W83154  41.993  10.925  11.995
16614W        W83155   2.387   8.563  12.117
16615W        W83156  29.923  21.013  11.149
16616W        W83157   0.989  33.864  11.123
16617W        W83158   8.300  44.655   0.561
16618W        W83159   9.798   3.719  13.012
16619W        W83160  29.907  13.412   3.728
16620W        W83161   3.809   5.708   0.781
16621W        W83162  27.038   9.885  13.918
16622W        W83163  19.099  13.137   1.534
16623W        W83164  17.321  27.069  12.101
16624W        W83165  24.016  38.837   2.885
16625W        W83166  42.413  26.446   2.344
16626W        W83167  41.331  30.128  13.610
16627W        W83168  39.250  14.712  14.807
16628W        W83169  39.797  41.313  11.056
16629W        W83170  19.507  19.837  13.511
16630W        W83171  33.955  35.553   0.827
16631W        W83172  16.174  10.825   0.077
16632W        W83173   2.289  16.796  11.546
16633W        W83174   9.170  30.958  12.552
16634W        W83175  35.792  20.876   1.293
16635W        W83176  20.064   3.150  12.370
16636W        W83177  44.072  38.799   1.267
16637W        W83178  21.641   7.303  12.917
16638W        W83179  38.578  32.566  10.588
16639W        W83180   1.776  33.402   1.316
16640W        W83181  33.262  37.685  10.121
16641W        W83182  35.696   3.884   1.916
16642W        W83183  44.358  43.876  14.020
16643W        W83184  16.675  25.386  10.668
16644W        W83185   1.017  31.433  13.581
16645W        W83186  33.939  22.884   1.162
16646W        W83187  30.147   4.881   0.950
16647W        W83188  12.961  39.878   3.616
16648W        W83189   0.517  40.901   3.630
16649W        W83190  40.976  13.795  14.314
16650W        W83191  36.440  12.572  12.428
16651W        W83192  32.328  23.334   3.248
16652W        W83193  28.254  13.934   4.465
16653W        W83194   4.803  29.373   0.459
16654W        W83195   6.295   1.979   1.262
16655W        W83196  39.132  40.352   0.863
16656W        W83197  20.033  20.747  14.919
16657W        W83198  22.524  37.988   3.139
16658W        W83199  43.427  44.423  10.184
16659W        W83200   0.979  36.944  12.892
16660W        W83201  12.046  17.618   1.982
16661W        W83202   2.473   7.136  11.617
16662W        W83203   5.419   7.824  11.288
16663W        W83204  26.050   5.299  10.665
16664W        W83205  43.875  19.253  14.821
16665W        W83206  32.528  15.779  11.608
16666W        W83207  26.363  12.908  14.497
16667W        W83208  27.448   1.924   0.847
16668W        W83209  33.266   1.396  11.728
16669W        W83210  13.782   5.802  13.628
16670W        W83211  13.968  12.224  14.467
16671W        W83212  35.679  10.377  13.389
16672W        W83213  35.299   4.950  11.120
16673W        W83214   4.291  41.528  12.101
16674W        W83215   4.874  27.510   0.692
16675W        W83216  36.615  38.453  12.369
16676W        W83217  39.822  29.136   0.231
16677W        W83218  18.703  40.989   3.433
16678W        W83219  34.385  25.613  11.200
16679W        W83220  17.806  33.412  11.537
16680W        W83221  40.720   3.230   0.793
16681W        W83222  15.522  42.093  14.390
16682W        W83223  39.540  18.886   0.533
16683W        W83224  24.107  21.028   2.413
16684W        W83225   3.558  10.782   4.476
16685W        W83226  41.988  23.548  12.163
16686W        W83227  38.446  11.230   3.436
16687W        W83228  25.185  10.482   4.008
16688W        W83229  31.586  33.902   1.788
16689W        W83230   2.405   4.211   2.315
16690W        W83231   6.735  39.003   0.265
16691W        W83232   1.619  31.497   0.881
16692W        W83233  15.247  24.591  12.872
16693W        W83234  23.070  29.787   0.601
16694W        W83235  31.041   4.784   3.346
16695W        W83236  15.567  23.884  14.241
16696W        W83237  18.116  14.047  14.397
16697W        W83238  25.500   6.778   3.257
16698W        W83239  25.437  11.681   3.133
16699W        W83240  36.905  31.620  14.769
16700W        W83241  42.564  27.486   2.249
16701W        W83242  17.253  32.560  11.640
16702W        W83243  10.276  10.598   0.217
16703W        W83244  23.729  39.121   0.829
16704W        W83245  27.257  18.002   4.668
16705W        W83246   9.219  34.764   1.531
16706W        W83247  37.398   9.437   2.807
16707W        W83248  25.818   0.954  10.373
16708W        W83249  39.117  29.922  13.088
16709W        W83250   7.867  29.988   4.578
16710W        W83251  34.874  28.064   3.696
16711W        W83252  36.840   3.650  14.581
16712W        W83253  32.155  41.895  10.716
16713W        W83254  10.792  25.368   0.698
16714W        W83255  21.773   3.919   4.448
16715W        W83256   2.742  42.818   2.705
16716W        W83257  30.633  38.325   2.364
16717W        W83258  26.640  20.312   2.253
16718W        W83259  11.258  20.129  14.790
16719W        W83260  43.407  15.498  11.159
16720W        W83261   8.319  11.641  12.051
16721W        W83262  24.236  16.950  13.468
16722W        W83263  44.288  38.709  14.507
16723W        W83264  18.591  28.544  14.257
16724W        W83265   9.656  19.312  11.665
16725W        W83266   3.947  24.237   3.322
16726W        W83267  13.772  34.374  11.900
16727W        W83268  13.835  21.609   4.397
16728W        W83269  19.528  14.742  14.831
16729W        W83270  18.590  13.153   1.670
16730W        W83271  13.832   8.503  12.880
16731W        W83272  26.729  15.048  11.532
16732W        W83273  32.684  25.064   5.011
16733W        W83274  16.069  18.220  10.639
16734W        W83275  12.932   7.337  12.866
16735W        W83276  33.984   1.820  14.395
16736W        W83277  31.431  41.841  13.813
16737W        W83278  39.865  29.460  11.592
16738W        W83279   3.312  13.318   1.856
16739W        W83280  15.369  32.642   3.561
16740W        W83281  19.891   6.202  13.819
16741W        W83282  37.633   9.962  13.411
16742W        W83283   9.916   1.220   3.815
16743W        W83284  13.059  32.312  14.533
16744W        W83285  41.402  31.384  13.842
16745W        W83286  33.526   5.419   9.835
16746W        W83287  21.675  32.316  14.010
16747W        W83288  32.620  10.898  13.423
16748W        W83289  10.100   9.282  11.986
16749W        W83290  14.314  15.620  11.649
16750W        W83291  15.809  13.990   3.903
16751W        W83292   3.842  26.991   3.728
16752W        W83293  24.925  18.989  12.533
16753W        W83294  23.593  40.603   3.642
16754W        W83295   2.634  36.046  14.778
16755W        W83296   1.698  18.862  12.449
16756W        W83297  18.844  24.461  12.118
16757W        W83298  34.481  14.576   1.880
16758W        W83299  33.577  27.427  12.406
16759W        W83300  32.891  42.388  11.104
16760W        W83301   9.047  11.877   4.739
16761W        W83302  30.654   0.897   1.935
16762W        W83303  10.710  44.801  11.099
16763W        W83304  16.032   4.974   3.241
16764W        W83305  11.329  19.874  11.545
16765W        W83306   2.916  39.541   2.470
16766W        W83307  17.125  27.513  13.329
16767W        W83308  29.698  16.215   0.975
16768W        W83309  33.171  31.137  12.814
16769W        W83310  20.651  27.478  13.882
16770W        W83311  32.261  25.199   3.461
16771W        W83312  44.232  44.535  12.914
16772W        W83313  29.737  18.619  12.987
16773W        W83314   9.737  39.897   0.701
16774W        W83315   5.475  17.558  10.862
16775W        W83316  10.388   3.628   0.304
16776W        W83317   0.387  27.189  11.543
16777W        W83318  16.071  34.461   0.887
16778W        W83319   1.683  29.939  10.671
16779W        W83320  23.309  20.150   4.750
16780W        W83321  27.627  35.657  14.997
16781W        W83322   4.933   0.275   0.892
16782W        W83323   9.326  10.823  10.490
16783W        W83324   9.314   6.937  13.853
16784W        W83325   1.492  40.280  14.481
16785W        W83326  15.317  14.928  14.828
16786W        W83327  23.052   6.184   0.728
16787W        W83328  41.817  33.384   3.659
16788W        W83329   9.392   5.716   3.740
16789W        W83330  40.548  31.084  12.953
16790W        W83331  32.727  19.185   0.851
16791W        W83332  15.710  26.616  11.322
16792W        W83333  34.180  10.831   2.209
16793W        W83334  23.145   2.426  14.610
16794W        W83335  23.935  29.679  10.580
16795W        W83336  12.837  35.786   0.899
16796W        W83337  37.072   4.003  14.846
16797W        W83338  31.197  22.820   0.435
16798W        W83339  15.613  42.473   1.403
16799W        W83340  11.859   8.391   4.215
16800W        W83341  38.544  22.977   3.346
16801W        W83342  31.510  23.035   2.723
16802W        W83343  30.718  34.869   0.186
16803W        W83344  16.050  14.161  14.794
16804W        W83345  16.354  17.979   0.792
16805W        W83346  39.404  33.890   0.452
16806W        W83347  11.064  34.903   2.737
16807W        W83348   1.212  20.138   4.048
16808W        W83349  15.903  20.047   2.129
16809W        W83350   9.410  38.434   1.367
16810W        W83351  24.049  35.854  13.601
16811W        W83352  23.723  19.160  14.849
16812W        W83353  25.835   2.039   3.276
16813W        W83354  40.849   0.723  11.198
16814W        W83355   4.732  33.862   4.457
16815W        W83356  21.983   4.776   0.866
16816W        W83357   6.901  32.269  12.440
16817W        W83358  18.177  18.726  13.443
16818W        W83359  43.734  40.204   4.727
16819W        W83360  32.816  37.926  11.240
16820W        W83361  43.705   6.610   3.905
16821W        W83362   8.298  27.301   1.623
16822W        W83363  26.656  15.555   3.664
16823W        W83364   0.216  39.502   1.804
16824W        W83365  30.522   7.249  13.761
16825W        W83366  42.565  14.827   0.354
16826W        W83367   6.300   4.329   1.288
16827W        W83368  10.229  11.563   4.247
16828W        W83369  22.518  43.539   0.719
16829W        W83370  14.005  22.505  11.665
16830W        W83371  23.183  26.040  13.845
16831W        W83372  17.715  31.479  12.783
16832W        W83373  14.174  21.841   3.988
16833W        W83374  31.425  26.302  13.410
16834W        W83375  44.052  34.523   3.278
16835W        W83376  36.092  16.897  12.445
16836W        W83377  40.535  19.525   3.711
16837W        W83378  11.630  10.700   4.313
16838W        W83379  16.816   4.156  11.286
16839W        W83380  10.294  38.465  12.062
16840W        W83381  40.437  35.087   2.888
16841W        W83382   1.100  34.192  14.039
16842W        W83383  35.567   6.498  12.520
16843W        W83384  20.106   2.396  12.981
16844W        W83385   8.960   6.250  12.122
16845W        W83386  26.665   0.427   0.057
16846W        W83387   5.987   1.918  14.395
16847W        W83388  32.141  15.805  14.540
16848W        W83389  19.724   9.223   1.396
16849W        W83390  41.740  39.452  10.638
16850W        W83391  21.233  15.578   0.815
16851W        W83392  12.168  39.288   1.659
16852W        W83393   0.866  10.462   4.531
16853W        W83394   2.245  27.031  10.832
16854W        W83395  37.066  38.281  10.779
16855W        W83396   4.587  24.097   4.962
16856W        W83397  33.180  32.899   3.383
16857W        W83398  22.698  33.390   2.779
16858W        W83399  27.264  41.277  14.488
16859W        W83400   6.886  12.267   1.358
16860W        W83401  37.942  19.774   2.150
16861W        W83402   3.407  18.008   1.464
16862W        W83403   3.396  29.050   1.530
16863W        W83404  38.974  15.168  13.500
16864W        W83405  24.622  37.428  14.935
16865W        W83406  35.120  44.406   3.093
16866W        W83407  13.259  30.656  10.335
16867W        W83408  34.369  30.497  14.917
16868W        W83409  43.242  27.079  14.023
16869W        W83410   0.029  28.064  13.333
16870W        W83411  39.505  38.263   1.486
16871W        W83412  43.256   2.296   3.220
16872W        W83413  27.965   2.383   1.414
16873W        W83414  27.229  23.452   0.722
16874W        W83415  30.080  32.619  14.989
16875W        W83416  11.035  24.117  11.505
16876W        W83417  10.122   9.796  12.095
16877W        W83418  21.707  13.998   0.496
16878W        W83419  29.429  30.267   4.161
16879W        W83420  20.571  18.791   1.885
16880W        W83421  29.577  32.602  10.634
16881W        W83422  31.692  42.003  10.995
16882W        W83423   0.975   0.830  14.741
16883W        W83424  35.008  33.117  14.411
16884W        W83425   4.915  25.012   0.792
16885W        W83426  23.739  35.457  13.787
16886W        W83427  39.770  44.398  10.799
16887W        W83428  22.065   6.867   1.512
16888W        W83429  36.032  44.719  11.179
16889W        W83430  14.719  38.096  13.540
16890W        W83431   2.890  30.870  12.917
16891W        W83432  36.053   8.904   0.742
16892W        W83433   5.846  11.881   2.592
16893W        W83434  28.005   6.311   1.844
16894W        W83435  18.213  20.150  10.923
16895W        W83436  16.466  11.676   0.288
16896W        W83437   6.151  19.557  12.052
16897W        W83438  32.688  35.999   0.716
16898W        W83439  17.561  21.407  11.814
16899W        W83440  21.236  13.837   3.597
16900W        W83441   4.822   9.483  10.647
16901W        W83442  39.034   6.200  13.541
16902W        W83443   7.460  21.203   1.291
16903W        W83444  41.559  39.397  11.112
16904W        W83445  38.315  13.803  11.487
16905W        W83446   3.896  31.141  14.047
16906W        W83447  18.378   2.903   2.715
16907W        W83448   5.267  26.199  11.846
16908W        W83449   0.967  17.990   1.385
16909W        W83450  16.112  24.782   0.380
16910W        W83451  39.548  16.140  12.064
16911W        W83452  20.810   9.808   1.413
16912W        W83453   0.665  33.138   4.722
16913W        W83454   8.117  38.413  13.544
16914W        W83455  31.197  31.947   2.382
16915W        W83456  27.650  21.231  11.881
16916W        W83457  11.278  33.285  12.992
16917W        W83458  18.650  35.111  13.455
16918W        W83459  15.016  28.586  13.822
16919W        W83460  14.093   8.927   4.135
16920W        W83461   2.873  23.498   1.748
16921W        W83462   8.185  37.243   0.347
16922W        W83463  10.256   8.584  10.734
16923W        W83464   5.818  34.854   0.894
16924W        W83465   8.557  27.494   0.798
16925W        W83466  24.927  36.325   1.973
16926W        W83467   9.646  41.096   3.181
16927W        W83468   0.273  36.161  11.677
16928W        W83469  42.325  17.722   1.875
16929W        W83470   1.997  44.915   0.116
16930W        W83471   1.300  41.754   1.197
16931W        W83472  35.066  38.765  14.907
16932W        W83473  30.708   4.129   1.523
16933W        W83474  11.232  19.142  14.284
16934W        W83475   5.661   8.810   2.938
16935W        W83476   5.425  10.862  12.067
16936W        W83477  24.974  31.694   3.766
16937W        W83478  27.163  17.039   0.218
16938W        W83479   2.020   5.849   3.329
16939W        W83480  10.731  35.180   3.057
16940W        W83481  29.509  35.101   1.843
16941W        W83482  33.464  22.573  13.410
16942W        W83483  29.579  22.393   1.867
16943W        W83484  34.531  25.647  14.372
16944W        W83485  35.415  30.361   4.456
16945W        W83486  14.589  42.358  11.052
16946W        W83487   8.782   9.181  13.992
16947W        W83488  42.515  34.008  10.863
16948W        W83489  24.472   1.489  11.575
16949W        W83490  36.153  32.133  14.336
16950W        W83491   7.696  34.834  13.800
16951W        W83492   3.179  38.724  14.177
16952W        W83493  24.083  14.237  14.528
16953W        W83494  38.100   3.918   0.785
16954W        W83495  17.163  25.169  11.213
16955W        W83496   0.553  39.256   0.883
16956W        W83497   1.908  18.575  13.945
16957W        W83498  30.531   8.629  13.005
16958W        W83499   2.373  18.190   2.438
16959W        W83500  20.231   6.412  14.802
16960W        W83501  23.951  25.138   4.020
16961W        W83502  33.429  42.742  14.846
16962W        W83503  44.852   1.720   1.345
16963W        W83504  18.462  34.100   2.970
16964W        W83505  42.791  28.441  12.159
16965W        W83506   3.197   5.781  12.664
16966W        W83507   9.411  35.659  14.871
16967W        W83508  28.636  44.712   3.733
16968W        W83509   3.886  31.059   0.416
16969W        W83510   0.391  11.694   2.690
16970W        W83511  40.265  28.122   0.989
16971W        W83512  36.560  36.637   4.224
16972W        W83513  44.890  42.371   4.771
16973W        W83514  22.220  39.829   4.056
16974W        W83515  36.147   6.779  10.579
16975W        W83516  28.598  15.267   1.919
16976W        W83517  23.484  26.172  13.441
16977W        W83518  18.674  30.032  10.733
16978W        W83519   5.404  29.342  11.224
16979W        W83520  38.573  28.987  13.872
16980W        W83521   7.687  33.352  13.452
16981W        W83522  35.827   0.114   0.728
16982W        W83523  12.609   3.852   4.614
16983W        W83524  43.505  30.215  14.360
16984W        W83525  26.810   5.996   3.252
16985W        W83526  29.597  14.049  12.018
16986W        W83527  36.434  39.442   2.312
16987W        W83528   7.348   3.215   4.574
16988W        W83529   1.790  18.351   1.767
16989W        W83530  19.676   2.294   2.200
16990W        W83531  19.263   8.665  13.403
16991W        W83532  41.251  39.618  13.427
16992W        W83533  34.288  21.236  12.644
16993W        W83534  42.096  36.998   2.723
16994W        W83535  21.762  21.764   3.446
16995W        W83536   4.299  21.590   3.340
16996W        W83537  24.107  19.710  10.668
16997W        W83538  19.169  29.196  12.670
16998W        W83539  12.301  29.075  14.491
16999W        W83540  31.172  26.418   0.411
17000W        W83541  43.867  44.491  11.592
17001W        W83542  33.351   7.916   1.778
17002W        W83543   8.800  11.859  11.040
17003W        W83544  23.199  28.536   0.419
17004W        W83545  33.937  40.035   4.496
17005W        W83546  43.380  13.252  10.263
17006W        W83547  37.757   0.514  14.095
17007W        W83548  32.929   1.272   0.867
17008W        W83549  20.269  39.408   1.660
17009W        W83550  10.751  19.585   0.411
17010W        W83551  36.162  40.076  14.324
17011W        W83552  39.412  44.483   4.738
17012W        W83553   8.770   2.406  11.505
17013W        W83554  18.075   0.006  11.222
17014W        W83555  22.794  43.883   2.726
17015W        W83556  38.038  10.739   4.272
17016W        W83557  17.626  43.842   4.051
17017W        W83558  42.577  35.432  14.161
17018W        W83559  17.215   5.468  11.903
17019W        W83560  18.759   5.643  10.962
17020W        W83561  20.646  35.586  11.884
17021W        W83562  41.539  37.374   0.300
17022W        W83563   0.556  33.456   2.626
17023W        W83564  16.081  15.843   3.581
17024W        W83565   4.244  21.794  10.735
17025W        W83566  11.211   3.419   3.719
17026W        W83567   4.894  17.839  14.472
17027W        W83568  40.500  10.511  13.715
17028W        W83569  24.444  15.776  10.484
17029W        W83570  42.525  44.427  12.458
17030W        W83571  28.953  33.916  10.770
17031W        W83572  39.223  36.546   2.715
17032W        W83573   9.622  23.130   3.693
17033W        W83574  42.498  33.291  13.099
17034W        W83575  37.605  42.390   4.626
17035W        W83576  19.813  31.585   4.842
17036W        W83577   9.902  20.155   4.801
17037W        W83578  13.917  35.136   3.173
17038W        W83579  18.312   9.388  11.345
17039W        W83580  37.485  29.468   0.762
17040W        W83581   9.470  33.518   4.733
17041W        W83582   9.548  13.731   2.390
17042W        W83583  14.211  25.265  11.636
17043W        W83584  18.116  34.359   0.731
17044W        W83585  28.310  13.018   2.869
17045W        W83586   3.552   9.310  10.532
17046W        W83587  13.082   0.311  14.197
17047W        W83588  17.464  39.325   2.747
17048W        W83589  27.464  24.913   1.691
17049W        W83590  10.207  19.661   1.079
17050W        W83591  20.298   5.042  14.770
17051W        W83592  31.248  39.325  12.460
17052W        W83593  21.989  15.395   0.325
17053W        W83594   5.686  11.026   0.965
17054W        W83595   2.473  28.051  13.987
17055W        W83596  41.307  26.372  10.958
17056W        W83597  30.894  44.996  12.030
17057W        W83598  44.651  42.443   0.992
17058W        W83599   0.159  18.068  11.992
17059W        W83600  31.716   8.182   1.451
17060W        W83601  11.844  26.694   1.315
17061W        W83602  30.835  13.630   2.728
17062W        W83603   9.889   7.743  11.694
17063W        W83604   3.645  44.940   5.263
17064W        W83605   0.640  41.389   2.826
17065W        W83606  10.352  22.654   2.173
17066W        W83607  31.951  16.343  10.652
17067W        W83608   5.232  18.516   1.275
17068W        W83609   5.450  21.728  11.250
17069W        W83610  19.836   4.637   1.639
17070W        W83611  39.584   7.768  12.081
17071W        W83612  38.960  15.290  11.601
17072W        W83613  33.627  31.927   1.584
17073W        W83614  26.730  22.599   4.691
17074W        W83615  19.176  15.103   1.820
17075W        W83616  32.096  36.073   3.824
17076W        W83617  23.511  37.151   4.353
17077W        W83618  42.630  15.164  11.680
17078W        W83619  43.884   9.083   2.314
17079W        W83620  28.641   6.230   2.670
17080W        W83621  23.459   5.456  12.130
17081W        W83622  18.533  26.207   1.817
17082W        W83623  20.081   3.312   1.477
17083W        W83624   5.012   5.502   3.085
17084W        W83625  38.369  37.623   3.223
17085W        W83626  39.452   7.031   4.144
17086W        W83627  22.488  32.249  14.373
17087W        W83628  31.673  43.012   4.457
17088W        W83629  20.111  37.386  12.007
17089W        W83630  39.525  44.047  12.145
17090W        W83631  16.307  23.144  12.293
17091W        W83632  44.617  13.471   3.978
17092W        W83633  44.874  37.315   0.377
17093W        W83634  41.260  30.076   1.795
17094W        W83635  40.936  36.191  13.354
17095W        W83636  43.665  16.252   1.917
17096W        W83637  34.658  15.714   0.510
17097W        W83638  29.871  22.099   3.186
17098W        W83639  35.156  32.429  12.917
17099W        W83640  36.114  12.963   0.290
17100W        W83641  44.783   3.507   2.719
17101W        W83642   1.732   5.408  12.058
17102W        W83643   4.652  23.951  10.302
17103W        W83644  15.679  13.551   3.645
17104W        W83645  42.592  20.538   2.745
17105W        W83646  13.692  38.133   3.312
17106W        W83647  38.449   6.632  10.746
17107W        W83648  42.719  25.758   1.642
17108W        W83649   7.251  24.029  12.932
17109W        W83650   8.070  40.836  14.747
17110W        W83651   3.278  18.780   1.597
17111W        W83652  30.579  23.043  11.335
17112W        W83653  23.177  19.447   1.449
17113W        W83654  36.904  37.625  13.347
17114W        W83655   1.732  25.520  10.210
17115W        W83656  40.438  11.022   0.794
17116W        W83657   8.859   3.171   1.790
17117W        W83658  16.074  18.648   1.539
17118W        W83659   2.733  33.336   3.284
17119W        W83660  28.162  44.535   3.907
17120W        W83661  33.164  39.508   2.233
17121W        W83662  36.897  43.736   1.025
17122W        W83663  38.172  16.299   4.302
17123W        W83664  10.245  35.147   0.365
17124W        W83665  22.745  17.522  13.494
17125W        W83666  12.786  12.875   1.258
17126W        W83667  14.542   5.271  10.569
17127W        W83668  36.514  27.858   0.448
17128W        W83669   4.402   0.312  12.184
17129W        W83670   6.343  14.125   0.873
17130W        W83671  31.838  11.247   4.090
17131W        W83672  18.174  25.658   1.823
17132W        W83673  44.615  33.018  12.508
17133W        W83674  36.416  43.723   3.668
17134W        W83675  29.966  14.668   0.422
17135W        W83676  18.962  41.475  13.050
17136W        W83677  12.715   2.851   4.535
17137W        W83678   2.131  43.286   4.424
17138W        W83679  12.988  23.460   4.776
17139W        W83680  12.143  20.711   4.528
17140W        W83681  10.588  30.397  13.382
17141W        W83682   1.836  29.236  13.926
17142W        W83683  35.136  38.812  11.094
17143W        W83684   7.312  12.599   2.081
17144W        W83685   7.580  13.445   2.259
17145W        W83686  20.583  42.499  10.997
17146W        W83687  21.024  44.375   2.681
17147W        W83688  31.594   5.314   2.733
17148W        W83689  42.861  20.757   1.506
17149W        W83690  10.704  26.285  14.952
17150W        W83691   0.131  30.115  14.299
17151W        W83692  35.543   2.424   2.372
17152W        W83693   6.298  44.080  14.247
17153W        W83694   4.963  10.306   2.295
17154W        W83695  27.254   4.398  13.299
17155W        W83696  10.037  23.029   2.382
17156W        W83697   9.557  33.848  14.981
17157W        W83698  41.219  40.207   1.804
17158W        W83699  25.179   6.994   1.682
17159W        W83700  39.212  26.110  14.328
17160W        W83701  43.231  32.645  12.446
17161W        W83702  25.951  32.073  12.002
17162W        W83703   5.923   1.011   3.574
17163W        W83704  41.444  43.827   0.565
17164W        W83705  30.910   8.736  10.307
17165W        W83706  33.105  11.926   0.990
17166W        W83707   4.305   5.870  14.071
17167W        W83708   9.790   3.721   0.847
17168W        W83709  44.239  27.599  14.243
17169W        W83710  12.214  27.007  13.455
17170W        W83711  23.986   4.598   1.367
17171W        W83712   6.327  20.349  14.762
17172W        W83713  12.315  11.728  14.733
17173W        W83714  15.185  11.962  10.537
17174W        W83715  15.265  36.042   4.015
17175W        W83716  27.016   2.030  11.182
17176W        W83717  39.114   3.900  14.140
17177W        W83718  31.523   0.426  14.540
17178W        W83719  39.596   7.676  11.272
17179W        W83720  27.482  35.517   4.712
17180W        W83721  32.091  14.148  11.259
17181W        W83722  13.306  25.536  11.059
17182W        W83723  37.669   2.361   4.462
17183W        W83724  30.010  24.459  14.001
17184W        W83725  10.729  34.846   4.038
17185W        W83726  19.219  10.868  11.626
17186W        W83727   0.987  36.112   1.890
17187W        W83728  10.205  39.767  12.194
17188W        W83729  40.235  23.555  13.879
17189W        W83730  38.538  26.447   3.766
17190W        W83731  37.592  23.926  14.040
17191W        W83732  33.049  42.782  14.431
17192W        W83733  23.336  39.881   4.622
17193W        W83734  10.298  27.629   1.618
17194W        W83735   2.234  28.903  13.915
17195W        W83736  22.133  19.227   2.861
17196W        W83737  16.620  26.256   1.611
17197W        W83738  14.607  43.188   2.800
17198W        W83739  12.371  35.844   1.150
17199W        W83740  41.087  20.561   1.455
17200W        W83741  18.364  10.167  12.434
17201W        W83742  36.409   8.302  14.214
17202W        W83743  31.876  24.514  14.838
17203W        W83744  21.964  31.356   2.165
17204W        W83745  32.818  18.131   4.396
17205W        W83746  19.714  24.210   3.928
17206W        W83747  29.403   4.409   1.360
17207W        W83748  35.985  29.552  10.799
17208W        W83749  28.646  26.138  13.335
17209W        W83750  33.035  31.066   0.414
17210W        W83751  12.810  14.847  11.441
17211W        W83752  36.105  31.045   2.674
17212W        W83753  35.355  20.315  13.611
17213W        W83754  15.209   6.822  12.569
17214W        W83755   0.773  36.944  14.336
17215W        W83756   8.362  17.659  12.904
17216W        W83757   5.813  21.844   3.657
17217W        W83758   6.909  23.396  13.061
17218W        W83759  27.231  17.525  13.454
17219W        W83760  21.240   9.706   0.677
17220W        W83761  28.670  33.773   1.300
17221W        W83762  39.489  36.412  10.937
17222W        W83763  44.010  19.969  13.502
17223W        W83764  23.259  26.184   3.664
17224W        W83765  42.604  21.981  13.476
17225W        W83766   4.338   2.210  11.757
17226W        W83767  17.241   4.904  10.101
17227W        W83768  39.623   6.165  11.437
17228W        W83769  33.402  16.882   0.561
17229W        W83770  39.043  44.724  13.349
17230W        W83771  10.856  16.634   4.459
17231W        W83772  43.452  40.782   3.614
17232W        W83773   0.528  40.322   3.120
17233W        W83774  27.699   6.785   2.707
17234W        W83775   1.546  28.941  10.899
17235W        W83776  32.912   1.923   1.238
17236W        W83777  39.968   1.715  14.476
17237W        W83778  12.255  18.767  11.479
17238W        W83779  17.130  10.427  11.474
17239W        W83780  14.364  34.481   1.381
17240W        W83781   6.927  14.139  12.332
17241W        W83782   1.380  15.560   3.688
17242W        W83783  18.120  11.303  14.190
17243W        W83784  14.152  37.807  10.874
17244W        W83785  42.270  32.563   0.792
17245W        W83786  37.462   5.724   0.855
17246W        W83787  17.619  43.085  11.122
17247W        W83788  11.372  44.261   0.860
17248W        W83789  22.066  24.260   1.271
17249W        W83790   1.476   7.572  13.761
17250W        W83791  22.578  44.835   1.816
17251W        W83792   3.950  37.324   3.718
17252W        W83793  32.657  36.798   1.732
17253W        W83794   6.721  36.140   4.597
17254W        W83795  26.068  24.082  14.191
17255W        W83796   1.690  32.638  12.351
17256W        W83797  19.849  38.394  12.016
17257W        W83798  35.192  33.190  12.651
17258W        W83799  39.892   5.686  13.083
17259W        W83800  25.967  31.383  12.415
17260W        W83801  31.151  10.699  11.478
17261W        W83802  22.735  37.244  12.581
17262W        W83803  24.529  37.487   4.409
17263W        W83804  22.383   2.270   0.026
17264W        W83805   1.207  38.454  12.990
17265W        W83806   2.799  32.250  14.873
17266W        W83807  32.799   0.951   0.225
17267W        W83808  28.424  32.430  12.509
17268W        W83809  43.444  34.716  12.055
17269W        W83810  24.041  30.589  14.422
17270W        W83811   3.966  20.716   2.618
17271W        W83812  40.268  39.530   3.253
17272W        W83813  14.260  24.300  10.701
17273W        W83814  11.590  21.092   0.341
17274W        W83815  17.672  27.926  10.696
17275W        W83816   0.906  11.750   1.214
17276W        W83817  22.644   7.238  14.451
17277W        W83818   8.263  30.732  14.781
17278W        W83819  36.086  13.971  12.539
17279W        W83820  25.073  18.601   2.346
17280W        W83821  13.305  12.859   0.970
17281W        W83822  34.602  27.461  11.183
17282W        W83823  16.160  12.344  11.405
17283W        W83824   4.784  28.410   5.244
17284W        W83825  33.429  36.435   0.728
17285W        W83826  16.044  21.843   1.830
17286W        W83827  21.999  12.339   9.725
17287W        W83828   9.466  27.375  13.479
17288W        W83829  16.207  34.865   0.595
17289W        W83830  23.691  12.094   2.818
17290W        W83831  32.804  15.210   2.290
17291W        W83832  14.317  16.282   0.494
17292W        W83833   2.748   8.806   2.018
17293W        W83834  21.665  41.345  14.382
17294W        W83835  37.394  21.938  14.266
17295W        W83836  38.459  23.537  14.544
17296W        W83837  43.244  17.153  13.472
17297W        W83838   1.886  32.542  13.791
17298W        W83839  33.045   1.599  12.143
17299W        W83840  35.166  13.106   2.732
17300W        W83841  21.834  31.121  13.440
17301W        W83842  35.840   4.394   4.051
17302W        W83843   1.638  29.522  12.970
17303W        W83844  24.829  27.090  14.988
17304W        W83845  38.393  43.503  13.330
17305W        W83846   0.473  18.264  13.471
17306W        W83847  37.907  42.345  13.262
17307W        W83848   7.757  32.127   2.636
17308W        W83849  13.909  18.151  12.494
17309W        W83850  43.012  27.925   1.806
17310W        W83851   4.395  23.034  11.354
17311W        W83852   7.043  24.463   4.113
17312W        W83853  38.945   0.366  11.630
17313W        W83854  12.346  15.764   4.804
17314W        W83855   9.626  44.809  12.382
17315W        W83856  14.541  21.416   1.378
17316W        W83857  30.970  29.761  14.379
17317W        W83858   3.371  42.085  14.904
17318W        W83859  22.807  24.051  12.059
17319W        W83860  38.243  15.335  14.508
17320W        W83861   4.971  26.575   0.412
17321W        W83862  17.187   0.294  12.908
17322W        W83863   0.456  11.857   0.982
17323W        W83864  11.763  32.646  14.867
17324W        W83865  19.008   4.335   3.400
17325W        W83866  35.088  13.426   4.482
17326W        W83867  34.453  44.956  14.415
17327W        W83868  24.016  13.207   4.743
17328W        W83869  37.574  15.636  12.824
17329W        W83870  39.615  16.471  13.392
17330W        W83871  17.487  39.527  13.073
17331W        W83872  29.623  24.513  11.684
17332W        W83873  13.744  15.335   0.243
17333W        W83874  43.768  16.901   2.701
17334W        W83875  31.565  40.125  12.409
17335W        W83876   3.513  25.282   0.614
17336W        W83877  23.685  26.494   1.585
17337W        W83878  29.081  37.997   0.635
17338W        W83879   8.613  17.249  12.722
17339W        W83880  42.604  40.915   4.800
17340W        W83881  12.058  25.135   4.897
17341W        W83882  31.228   9.268   2.030
17342W        W83883  41.257  36.224   0.943
17343W        W83884   2.359   6.804   3.419
17344W        W83885  13.110   2.777  12.691
17345W        W83886  29.643   2.679   3.855
17346W        W83887  26.868  42.899  11.621
17347W        W83888   1.764  35.338   0.946
17348W        W83889   8.851  13.241  11.631
17349W        W83890  32.554  33.957  13.029
17350W        W83891  22.256  19.850  11.520
17351W        W83892  42.063   8.111  11.511
17352W        W83893  16.691   8.746   3.592
17353W        W83894  22.065  41.466  13.029
17354W        W83895  25.948  35.370  10.579
17355W        W83896   9.440  42.491   0.241
17356W        W83897   1.738  32.046   0.824
17357W        W83898  15.838  17.749   3.473
17358W        W83899   5.933  22.824   3.323
17359W        W83900  23.998  38.458   1.292
17360W        W83901  33.038  39.977   2.402
17361W        W83902   2.283  29.071  12.110
17362W        W83903  27.309  18.664   0.755
17363W        W83904  11.754  16.572  12.028
17364W        W83905  11.432  27.613   1.713
17365W        W83906  37.086  36.929   4.254
17366W        W83907   8.286  29.584  11.382
17367W        W83908  23.416  32.677   3.779
17368W        W83909  34.782  37.512  10.841
17369W        W83910  21.820  24.096  11.150
17370W        W83911  32.569  14.293   3.785
17371W        W83912  39.905  36.936  10.558
17372W        W83913  12.656  17.457  14.335
17373W        W83914  42.496  36.086  12.402
17374W        W83915  29.593  36.805   2.237
17375W        W83916  44.313  39.927   4.651
17376W        W83917  25.277  28.944  11.717
17377W        W83918  43.850   5.144  10.708
17378W        W83919  38.517  42.423  13.323
17379W        W83920   9.099   1.391  11.577
17380W        W83921   8.597  34.695   3.381
17381W        W83922  27.980   1.429  13.618
17382W        W83923   7.260   6.163   0.297
17383W        W83924  16.484  14.778   1.754
17384W        W83925  39.348   9.895   1.518
17385W        W83926  15.220   8.385   2.778
17386W        W83927  26.447  10.463   3.502
17387W        W83928  11.673   0.663   1.362
17388W        W83929  11.329   0.938   1.034
17389W        W83930  23.957  23.955   1.276
17390W        W83931   8.210  13.120   0.385
17391W        W83932  34.922  20.755   1.461
17392W        W83933  21.992  12.856  11.664
17393W        W83934   6.196  44.135   2.031
17394W        W83935  28.243   4.737   3.414
17395W        W83936  33.648  28.305   0.233
17396W        W83937  12.188  26.546  13.729
17397W        W83938  12.849  32.296  12.914
17398W        W83939  40.894  21.198   4.658
17399W        W83940  40.377  23.734  14.844
17400W        W83941  38.823  42.210   2.153
17401W        W83942   6.206  29.304   0.432
17402W        W83943  31.500  39.626   3.219
17403W        W83944  10.372   5.164   4.996
17404W        W83945  39.311  23.029   1.260
17405W        W83946  17.377   2.421  11.009
17406W        W83947  31.047  39.968   3.330
17407W        W83948  33.546  41.250   1.723
17408W        W83949  33.945  30.433   2.853
17409W        W83950  29.835   7.473  10.745
17410W        W83951  18.374  42.546  12.470
17411W        W83952   3.877  18.154  14.416
17412W        W83953  43.097  17.339   1.834
17413W        W83954  34.815  23.123   1.438
17414W        W83955   6.946   8.046  13.809
17415W        W83956   4.626  33.502   3.680
17416W        W83957  15.655   1.963   4.557
17417W        W83958  41.614  27.162   0.407
17418W        W83959  22.063   7.400  14.548
17419W        W83960  27.226  43.824  10.684
17420W        W83961  30.903   9.953   0.808
17421W        W83962  21.995   3.562   2.805
17422W        W83963  33.417  22.603   0.338
17423W        W83964   4.933  19.965  13.404
17424W        W83965  21.827   0.750   3.243
17425W        W83966  31.484   8.181   4.998
17426W        W83967  19.653   7.165   1.819
17427W        W83968  31.550  37.465   2.146
17428W        W83969  17.743  38.316  14.309
17429W        W83970   9.919  33.675  14.375
17430W        W83971   7.590  32.169   1.813
17431W        W83972   1.746  23.614   1.153
17432W        W83973   6.616  40.923   2.284
17433W        W83974  19.593  12.644   2.390
17434W        W83975  10.692  15.802  13.859
17435W        W83976  14.201  30.466  14.085
17436W        W83977  42.055  25.108   1.471
17437W        W83978   1.349   9.158   1.817
17438W        W83979  35.985  24.221   4.375
17439W        W83980   4.240  29.379  13.843
17440W        W83981  14.840   9.259   1.237
17441W        W83982  38.032   0.936  13.991
17442W        W83983  16.820  17.102   1.703
17443W        W83984  15.869  22.857  14.383
17444W        W83985  19.575  25.143  13.400
17445W        W83986  17.715  36.313  14.508
17446W        W83987   5.840  35.965  14.136
17447W        W83988  33.431  26.639  13.493
17448W        W83989  19.288   6.839  14.915
17449W        W83990  11.700  27.179   2.358
17450W        W83991  27.569  38.830   2.678
17451W        W83992  21.210  32.079  13.876
17452W        W83993  43.934   4.485   3.151
17453W        W83994  38.813  11.629   3.328
17454W        W83995  10.715  28.058   3.807
17455W        W83996   8.812   0.036  11.682
17456W        W83997  27.095  18.698   4.201
17457W        W83998  28.473  44.317   3.445
17458W        W83999  43.851   5.097   3.632
17459W        W84000  15.118   6.424   1.212
17460W        W84001   4.958   1.487  12.599
17461W        W84002   8.171  29.059   2.959
17462W        W84003  29.863  12.107   0.919
17463W        W84004  39.824  38.592   3.149
17464W        W84005  41.029  22.842  13.216
17465W        W84006  18.695  24.521   0.768
17466W        W84007  14.055  22.731   0.434
17467W        W84008   9.862   4.625   4.157
17468W        W84009   8.096  19.832   2.368
17469W        W84010  18.665  25.727   1.957
17470W        W84011  38.047  30.388  14.024
17471W        W84012  15.130   5.752   2.896
17472W        W84013  15.432  34.519   2.347
17473W        W84014  34.092   0.719   3.615
17474W        W84015  24.267   4.717   4.308
17475W        W84016  29.982  41.596  13.269
17476W        W84017   8.796  22.805   0.398
17477W        W84018  25.476  22.478  11.533
17478W        W84019   2.476   4.557  14.502
17479W        W84020   8.420   1.853   3.241
17480W        W84021  29.551  26.631   0.719
17481W        W84022  24.544  22.615   1.250
17482W        W84023  11.513  23.252   3.135
17483W        W84024   1.959  33.389  13.269
17484W        W84025  20.186  11.585   3.661
17485W        W84026  28.107  22.657  13.979
17486W        W84027  11.680  37.604   5.068
17487W        W84028   4.749   6.366   4.103
17488W        W84029   4.847  11.861   0.852
17489W        W84030  28.649  29.394   3.235
17490W        W84031  37.453  36.428   0.394
17491W        W84032   5.967  36.924  13.547
17492W        W84033  36.375  20.899  11.178
17493W        W84034  11.136  43.819   0.574
17494W        W84035  19.321   0.641   2.430
17495W        W84036  33.027   7.656  13.065
17496W        W84037  34.472   0.907  11.090
17497W        W84038  35.676  24.524   4.686
17498W        W84039  12.822  16.558  14.378
17499W        W84040   2.297  15.772   1.864
17500W        W84041  13.132   0.791  14.390
17501W        W84042  39.424  20.817   4.651
17502W        W84043  25.707   7.433  11.031
17503W        W84044  18.846   7.240  13.002
17504W        W84045  10.729  11.422   2.209
17505W        W84046  17.147  42.004  12.460
17506W        W84047   6.017  22.853  12.028
17507W        W84048  27.132  18.834  14.305
17508W        W84049  20.609  25.985   4.762
17509W        W84050  41.778  26.572  12.934
17510W        W84051   3.246   8.180  13.414
17511W        W84052  31.111  28.618  13.443
17512W        W84053  14.168  28.568  14.350
17513W        W84054  30.071  27.677  12.424
17514W        W84055   5.727   3.862  14.410
17515W        W84056  39.553  37.017  11.074
17516W        W84057  18.241  12.642   4.193
17517W        W84058  29.528  26.034   0.745
17518W        W84059   5.642  34.878   1.841
17519W        W84060  36.076  31.114   0.765
17520W        W84061  18.293  22.645  12.964
17521W        W84062  24.681  44.248   1.394
17522W        W84063   0.081  38.929  12.867
17523W        W84064  36.865   3.293   0.804
17524W        W84065  29.713  16.795  10.694
17525W        W84066  42.353  15.174  14.466
17526W        W84067  32.032  36.918   1.898
17527W        W84068  22.095  38.840   3.752
17528W        W84069  16.647  24.272  11.654
17529W        W84070   0.777  10.782  14.926
17530W        W84071  19.611   8.904   0.530
17531W        W84072  43.428  43.575   1.287
17532W        W84073  16.775   9.911  10.981
17533W        W84074  36.529  29.202  14.487
17534W        W84075   9.968  19.203   4.640
17535W        W84076   4.204  23.507   4.522
17536W        W84077  21.641  20.047   2.719
17537W        W84078   5.575  37.921  12.626
17538W        W84079   4.003  29.615   4.614
17539W        W84080  30.672   7.833   0.742
17540W        W84081  41.934  17.799   0.248
17541W        W84082   0.544   7.169  11.211
17542W        W84083  39.528  18.572  11.924
17543W        W84084   9.978  36.952  13.416
17544W        W84085  32.900  37.648   5.122
17545W        W84086   0.807  21.533   1.439
17546W        W84087   0.476   1.916  12.360
17547W        W84088  32.742  28.121  12.918
17548W        W84089   1.169  19.620   1.043
17549W        W84090  41.806  28.626   0.300
17550W        W84091  38.661  39.982   3.543
17551W        W84092  44.975  35.307   5.023
17552W        W84093  25.244  38.585   4.092
17553W        W84094  30.100  27.430   2.377
17554W        W84095  14.293  24.827  12.975
17555W        W84096  16.236  31.952  14.400
17556W        W84097  30.122  32.898   1.028
17557W        W84098  33.870  40.816  14.907
17558W        W84099  32.668  13.264  14.383
17559W        W84100  13.589   8.245  10.607
17560W        W84101  41.459  33.421  13.997
17561W        W84102  29.704  29.965  12.097
17562W        W84103  19.554  30.780   3.102
17563W        W84104  40.964  42.535  14.355
17564W        W84105   8.741  12.755   4.271
17565W        W84106  14.350  19.196   1.402
17566W        W84107  29.404   1.779  13.896
17567W        W84108  18.610  32.232   1.279
17568W        W84109  20.117   0.122   3.163
17569W        W84110  18.050  36.546   2.281
17570W        W84111  38.796  15.543  12.610
17571W        W84112  17.177  19.269   4.254
17572W        W84113  25.454  29.697   0.535
17573W        W84114  28.057   8.398   3.733
17574W        W84115  43.828  16.666   2.212
17575W        W84116  37.442  17.582  14.935
17576W        W84117  23.484  37.256  13.122
17577W        W84118  38.943   7.188   4.215
17578W        W84119  29.915  24.641   2.678
17579W        W84120  11.867   2.359   4.858
17580W        W84121  12.722   8.003   3.360
17581W        W84122  28.363  31.977  10.563
17582W        W84123   7.380  15.062  10.555
17583W        W84124  26.477  24.947   1.628
17584W        W84125   2.902   1.897   0.255
17585W        W84126  29.482  17.579   3.708
17586W        W84127  19.743  39.617  14.036
17587W        W84128   6.648   0.888  12.058
17588W        W84129  25.996   6.667   2.341
17589W        W84130  16.614  39.020   1.511
17590W        W84131  11.174  24.237  12.906
17591W        W84132  20.498  23.067  12.447
17592W        W84133  13.310  31.300  13.464
17593W        W84134   3.890  21.132  12.900
17594W        W84135  17.319  30.875   2.427
17595W        W84136  18.466  18.350   4.155
17596W        W84137  24.941   4.157  13.395
17597W        W84138  19.058  22.734   3.657
17598W        W84139  28.715  24.313  14.993
17599W        W84140  15.165   2.471  10.585
17600W        W84141   9.405  16.870  13.038
17601W        W84142  36.931  22.107   4.420
17602W        W84143  34.539   1.189  12.803
17603W        W84144  40.318   4.462   0.497
17604W        W84145  31.032  13.136  13.019
17605W        W84146  18.077  41.867  11.056
17606W        W84147  41.333   7.738  12.625
17607W        W84148  27.337  21.566   0.731
17608W        W84149  30.967   6.460   0.481
17609W        W84150   3.339  10.902   2.202
17610W        W84151  16.367  31.429  12.039
17611W        W84152   7.809  34.960  12.408
17612W        W84153  23.731  40.576  14.509
17613W        W84154  17.027  12.278   2.368
17614W        W84155   4.499  15.174  14.695
17615W        W84156  12.190  19.800   2.353
17616W        W84157  17.779  30.446  12.900
17617W        W84158  25.675  44.427  13.003
17618W        W84159  24.215  26.768  11.620
17619W        W84160   1.181  30.111  11.435
17620W        W84161  17.564  28.233   3.679
17621W        W84162  14.788  25.625  12.988
17622W        W84163   7.477  20.792  12.235
17623W        W84164  35.732  38.747  11.136
17624W        W84165   3.383  30.764  11.343
17625W        W84166  27.421  31.980   0.358
17626W        W84167   7.268  11.926  11.768
17627W        W84168  16.882  39.756   0.995
17628W        W84169  20.346  17.298   5.375
17629W        W84170  21.019   9.011   2.343
17630W        W84171  21.653  34.033  11.954
17631W        W84172  21.619   9.195  14.868
17632W        W84173  39.958   1.290   4.279
17633W        W84174  10.846  15.890   0.780
17634W        W84175  34.083  24.280   2.720
17635W        W84176  18.774  33.868  13.104
17636W        W84177  31.012   5.199   2.085
17637W        W84178  31.797  23.560  14.600
17638W        W84179   2.651  19.525   2.779
17639W        W84180  38.040  22.198  11.598
17640W        W84181  40.890   9.337  12.115
17641W        W84182   3.858   8.293   1.774
17642W        W84183  30.447  25.103   0.242
17643W        W84184  28.030  23.421  12.386
17644W        W84185  37.093  22.300  13.049
17645W        W84186  19.550   0.275   1.746
17646W        W84187  31.921   0.319   1.001
17647W        W84188  22.974  15.740  13.904
17648W        W84189  41.926  19.077  13.021
17649W        W84190  17.965   2.973  14.275
17650W        W84191   0.521  32.623   2.212
17651W        W84192  31.427   3.158  12.012
17652W        W84193   8.225  22.024   4.106
17653W        W84194  22.628   6.721  14.738
17654W        W84195   6.987   2.673   1.040
17655W        W84196  17.819  42.212  14.705
17656W        W84197  44.500  21.077   4.779
17657W        W84198   6.741   4.195   4.110
17658W        W84199  11.759  38.597  12.850
17659W        W84200   7.887  35.581   1.698
17660W        W84201  19.827  24.777   1.262
17661W        W84202  29.503  15.405   0.837
17662W        W84203  28.905  10.159   2.991
17663W        W84204   9.591  35.563   1.469
17664W        W84205  26.647  32.513  12.444
17665W        W84206  10.926  19.738   1.829
17666W        W84207  33.101  13.322  12.563
17667W        W84208  11.045  11.078   0.264
17668W        W84209  21.785  12.373  11.488
17669W        W84210  21.386   6.966   4.386
17670W        W84211  36.926   3.533   0.326
17671W        W84212  32.399  36.640  13.408
17672W        W84213  28.670  25.003  10.642
17673W        W84214  39.516   7.690  12.574
17674W        W84215  29.504  14.639  14.585
17675W        W84216   4.923  38.618  10.212
17676W        W84217  10.715  42.841  14.417
17677W        W84218  40.557  12.187   1.869
17678W        W84219  41.067  41.544  11.528
17679W        W84220  28.248  20.962  13.291
17680W        W84221  27.965  10.149  10.664
17681W        W84222  33.749  18.284  13.075
17682W        W84223  38.432  28.189  12.609
17683W        W84224  38.486  41.570   2.672
17684W        W84225  20.296  31.911   3.142
17685W        W84226  24.903   0.859   0.894
17686W        W84227  31.969   7.849  11.292
17687W        W84228   9.361   8.870   0.038
17688W        W84229   0.384  32.790   4.382
17689W        W84230   5.099  32.398  13.487
17690W        W84231  17.618   0.051  14.267
17691W        W84232   2.942  33.049  14.228
17692W        W84233  23.560  30.442   1.737
17693W        W84234  31.501   0.753  14.960
17694W        W84235  32.823  42.795   3.847
17695W        W84236  42.383  20.063   4.172
17696W        W84237  17.681   3.283  11.743
17697W        W84238  10.096   3.694  14.279
17698W        W84239  14.722  22.621  14.898
17699W        W84240   4.577  41.502  13.009
17700W        W84241   6.187  14.860  13.936
17701W        W84242  36.455   2.542  11.633
17702W        W84243  40.161  41.473   2.969
17703W        W84244  33.555  17.382   4.180
17704W        W84245   4.389  42.422  14.450
17705W        W84246   2.908  17.595  13.782
17706W        W84247  24.663   4.806  10.750
17707W        W84248   2.123  15.934   2.334
17708W        W84249  14.124  27.350   1.960
17709W        W84250   2.017  13.053  14.851
17710W        W84251  15.224  25.455  13.481
17711W        W84252  15.215  40.149  12.450
17712W        W84253  39.129  35.955  12.125
17713W        W84254  34.773  11.897  11.116
17714W        W84255  12.836  22.760  12.359
17715W        W84256  20.042  27.889  11.845
17716W        W84257  12.591  23.003   1.832
17717W        W84258  26.035  16.511   4.188
17718W        W84259  28.084  22.179  11.596
17719W        W84260  32.491  32.463   0.308
17720W        W84261   9.857  16.512   1.322
17721W        W84262   6.431  23.220  12.892
17722W        W84263   1.801   6.202  11.597
17723W        W84264  43.020   7.204   2.167
17724W        W84265  26.285  43.382   2.621
17725W        W84266   0.230  24.386   2.244
17726W        W84267  35.019  38.486  12.867
17727W        W84268  37.455  36.569   1.900
17728W        W84269  34.897  15.895  11.590
17729W        W84270   0.387  32.902   1.790
17730W        W84271  30.329  14.249  12.492
17731W        W84272  36.051  36.527  10.873
17732W        W84273  27.553  41.758   1.294
17733W        W84274  26.972   1.982   1.822
17734W        W84275   5.990  37.323   1.216
17735W        W84276  36.092  15.208  10.627
17736W        W84277  43.565  28.424  12.373
17737W        W84278  40.637   0.710   0.761
17738W        W84279   9.907  30.067   1.792
17739W        W84280  21.579   4.493  12.895
17740W        W84281  41.679  23.478  12.579
17741W        W84282   1.320   8.112  11.657
17742W        W84283  22.526  20.217  10.781
17743W        W84284  29.934  31.974  12.083
17744W        W84285   2.727  26.196   2.311
17745W        W84286  22.068   0.725  10.268
17746W        W84287  17.942   2.349   0.959
17747W        W84288  20.516  24.033  12.480
17748W        W84289   4.265  37.823   0.289
17749W        W84290  22.034  14.197   0.982
17750W        W84291  35.292   7.812  12.998
17751W        W84292  34.475  40.104  13.610
17752W        W84293  17.845  25.266  12.002
17753W        W84294  18.102   0.483   0.792
17754W        W84295   5.393  35.924   2.904
17755W        W84296   7.390  33.810  11.610
17756W        W84297  41.558  19.899  13.826
17757W        W84298  11.690  41.275  14.273
17758W        W84299  18.254   0.498   3.316
17759W        W84300  38.615  11.879   4.579
17760W        W84301   0.795  17.659   4.693
17761W        W84302  27.004   1.669  14.915
17762W        W84303  30.566  15.444   4.433
17763W        W84304  16.652  10.135   3.137
17764W        W84305  14.422   6.953  13.525
17765W        W84306  25.164  16.818  13.253
17766W        W84307  38.489   8.440   2.322
17767W        W84308  42.666  25.422   4.695
17768W        W84309  25.063   4.689  12.551
17769W        W84310  24.149  37.492  10.469
17770W        W84311  14.969  36.406  13.039
17771W        W84312  20.868   9.808   1.920
17772W        W84313   1.776  26.763  12.422
17773W        W84314  38.636  11.207   1.000
17774W        W84315   6.816  36.861  12.098
17775W        W84316  21.200  28.439   0.948
17776W        W84317  21.012  11.044   2.364
17777W        W84318  36.230  37.858  12.455
17778W        W84319  35.939  12.804   3.671
17779W        W84320   3.680   8.254  11.256
17780W        W84321  13.883  43.405   3.533
17781W        W84322   1.854  20.955   3.083
17782W        W84323   4.997  20.737  11.653
17783W        W84324  38.800  35.028  12.896
17784W        W84325  24.074  18.325  11.587
17785W        W84326  19.006  27.159   2.937
17786W        W84327   7.571  41.868   2.685
17787W        W84328  34.852  14.742  11.642
17788W        W84329  10.684  20.498   0.450
17789W        W84330  20.257   2.170  12.496
17790W        W84331   4.013  39.713   1.777
17791W        W84332  43.377  23.299  14.366
17792W        W84333  39.078  37.966   3.267
17793W        W84334  20.191   6.501   1.855
17794W        W84335  27.906  16.738  11.476
17795W        W84336  32.601  19.248   3.699
17796W        W84337  23.631  44.755   1.103
17797W        W84338  39.262  13.760  14.895
17798W        W84339  40.926  43.294   0.013
17799W        W84340   3.196   5.487  11.866
17800W        W84341   7.648   4.873   3.635
17801W        W84342   7.355   9.299   2.742
17802W        W84343  39.582  23.647   0.924
17803W        W84344  39.956  12.868   2.162
17804W        W84345   1.971  42.190   2.926
17805W        W84346  17.835  32.083  11.232
17806W        W84347  32.552  24.504   0.427
17807W        W84348  11.319  38.267  11.922
17808W        W84349  25.442  39.924   1.686
17809W        W84350   6.671  40.606   3.101
17810W        W84351  21.537  18.666  11.659
17811W        W84352   4.209  28.236   2.357
17812W        W84353   4.341   3.126  13.880
17813W        W84354  24.208  28.456  11.735
17814W        W84355  35.834   9.610   2.994
17815W        W84356   2.324  15.846   4.627
17816W        W84357   3.281   6.887   3.291
17817W        W84358  42.848  21.961  12.040
17818W        W84359   3.276  17.287  14.917
17819W        W84360  38.469  30.695  11.505
17820W        W84361  30.882  36.680  14.440
17821W        W84362   6.247  11.505  12.505
17822W        W84363   5.643  39.905   9.805
17823W        W84364  11.718  38.359   3.625
17824W        W84365  12.319  44.056   2.199
17825W        W84366  36.490  15.130  14.606
17826W        W84367  13.903  14.703   3.100
17827W        W84368   1.685  35.039   3.677
17828W        W84369  40.299  40.781   2.758
17829W        W84370  18.755  22.134  14.986
17830W        W84371   0.877   8.398  11.690
17831W        W84372  35.897  32.190   4.539
17832W        W84373  10.040  15.223  14.976
17833W        W84374   0.493  43.757   1.246
17834W        W84375  27.723   2.018   4.499
17835W        W84376  29.129  34.365   0.200
17836W        W84377   2.903   0.834  13.718
17837W        W84378  35.018  27.609  13.057
17838W        W84379   3.902  10.565  10.587
17839W        W84380  26.414  40.115   0.480
17840W        W84381  14.740  17.434   1.195
17841W        W84382  36.066  44.672  12.558
17842W        W84383  21.977  31.020   1.730
17843W        W84384  30.859   2.501   0.788
17844W        W84385   1.778  43.573  13.882
17845W        W84386  29.860  40.677  11.054
17846W        W84387  22.815  29.738  10.993
17847W        W84388  27.985  10.263  14.091
17848W        W84389  20.665  32.149  12.576
17849W        W84390  23.444  31.669   2.225
17850W        W84391  17.357   4.170  12.568
17851W        W84392  16.306   9.267  13.479
17852W        W84393  18.914  36.926   1.752
17853W        W84394  13.288  38.478   3.489
17854W        W84395  37.293   3.617  12.913
17855W        W84396  37.967  31.388   2.837
17856W        W84397  33.955  30.368   4.747
17857W        W84398  42.978   9.886   0.230
17858W        W84399  29.271  25.114   2.794
17859W        W84400  24.453  38.960  10.778
17860W        W84401  25.632  17.537  13.523
17861W        W84402  39.015  19.641  14.330
17862W        W84403  30.295  23.996   4.704
17863W        W84404  44.031  16.665  11.957
17864W        W84405   9.561  25.260  13.718
17865W        W84406  18.536  27.040  14.325
17866W        W84407  26.519  36.595   0.793
17867W        W84408  34.172  30.578  14.447
17868W        W84409  28.519  22.189  14.486
17869W        W84410   9.792  23.725  13.298
17870W        W84411  18.103  31.347   3.782
17871W        W84412  40.789   9.207   1.438
17872W        W84413  44.788  13.091   3.679
17873W        W84414   8.360  36.436  10.613
17874W        W84415  26.802   2.338  14.621
17875W        W84416  10.439  31.400  12.056
17876W        W84417  20.750  11.633   4.840
17877W        W84418  17.031  38.377  13.434
17878W        W84419  29.475   3.228   4.535
17879W        W84420  16.286  39.360   0.858
17880W        W84421  41.014  28.729   2.739
17881W        W84422  39.415  33.029   0.816
17882W        W84423   7.273  35.336  11.662
17883W        W84424  39.693   6.715  11.487
17884W        W84425  33.972  21.273  14.565
17885W        W84426  35.351  21.156   3.562
17886W        W84427  24.514  39.332   4.014
17887W        W84428   7.731  21.075  11.124
17888W        W84429  26.137  19.693  13.091
17889W        W84430  30.148  24.743   3.730
17890W        W84431  17.795  11.863  10.289
17891W        W84432  16.889   9.170   3.849
17892W        W84433   1.226  30.246   4.591
17893W        W84434   3.426  18.095   3.999
17894W        W84435  12.109  27.219   3.697
17895W        W84436   5.794  14.330  12.890
17896W        W84437  11.605  29.930  12.724
17897W        W84438   3.755  38.611   1.859
17898W        W84439  26.411  26.236  12.665
17899W        W84440  15.835  31.094  13.478
17900W        W84441   6.110  32.602   4.971
17901W        W84442  16.745  42.350   2.347
17902W        W84443  32.117  31.703   2.225
17903W        W84444  10.683  33.088   0.980
17904W        W84445  12.527  21.693  12.006
17905W        W84446  17.072   7.453  11.703
17906W        W84447   4.520  22.166   5.467
17907W        W84448  41.280  36.148   3.235
17908W        W84449  26.910  20.644   0.934
17909W        W84450  16.503   4.364   0.877
17910W        W84451  44.407  12.316  14.407
17911W        W84452  32.266  23.233  10.707
17912W        W84453  29.477  20.810  12.926
17913W        W84454  17.464  35.838   1.908
17914W        W84455  43.723  36.443   3.204
17915W        W84456  26.113  32.566   3.549
17916W        W84457  18.517   7.396  10.334
17917W        W84458  18.887  42.342  14.703
17918W        W84459  20.763  39.043   0.783
17919W        W84460   9.845  27.185   4.176
17920W        W84461  24.679  30.919  12.413
17921W        W84462  31.026  13.612  14.786
17922W        W84463   2.790  27.028   4.573
17923W        W84464  16.180  31.414   1.362
17924W        W84465  21.445  35.530   1.808
17925W        W84466  42.382  12.151  12.493
17926W        W84467  21.482  10.773  12.837
17927W        W84468   3.805  33.222   0.382
17928W        W84469  43.912  34.512   4.138
17929W        W84470  26.131  17.150   0.221
17930W        W84471  28.261   6.240  11.950
17931W        W84472  38.560  31.573  10.374
17932W        W84473  25.213  43.295  14.375
17933W        W84474  37.090  21.269  12.997
17934W        W84475  28.696  33.512   0.857
17935W        W84476  13.404  18.567  13.814
17936W        W84477  17.769  44.930   3.695
17937W        W84478   6.239  30.435  11.221
17938W        W84479  44.525   2.937   1.000
17939W        W84480  25.499  25.199  12.051
17940W        W84481   1.969  22.084  13.457
17941W        W84482  33.436   6.433  14.340
17942W        W84483  11.843  15.166  10.686
17943W        W84484   1.259  22.362   3.358
17944W        W84485   7.668  42.515   0.791
17945W        W84486   5.736  11.407   4.112
17946W        W84487  19.059  35.529  11.119
17947W        W84488  39.149  18.555   3.156
17948W        W84489  31.280  14.301   0.341
17949W        W84490  20.131  13.021  10.831
17950W        W84491  32.312  23.396   1.313
17951W        W84492  19.471  24.223  11.130
17952W        W84493  13.710  26.921  12.468
17953W        W84494  19.689  32.882   1.483
17954W        W84495  31.553   7.959  14.487
17955W        W84496   9.797  11.434   0.299
17956W        W84497  20.048  39.791  13.468
17957W        W84498   2.052   6.500  11.210
17958W        W84499  27.572  12.487   1.660
17959W        W84500  21.182  17.292   4.167
17960W        W84501   9.676  34.448   4.210
17961W        W84502  31.121  11.370  11.893
17962W        W84503  34.061  24.480   3.216
17963W        W84504  38.494  43.778   3.213
17964W        W84505   6.118  13.169  12.911
17965W        W84506   7.681  34.302  13.102
17966W        W84507  23.459   9.362  10.713
17967W        W84508   2.537   0.610  11.512
17968W        W84509  14.274  28.058   2.807
17969W        W84510  37.829  29.551  14.311
17970W        W84511  13.318  38.386   2.501
17971W        W84512  10.461  10.877  12.826
17972W        W84513  27.104  33.927   2.299
17973W        W84514  29.598  43.069   1.648
17974W        W84515  15.622  22.167   0.719
17975W        W84516  32.240  13.117  12.512
17976W        W84517  29.918   6.684   0.368
17977W        W84518  27.419   1.399   1.988
17978W        W84519  41.759  25.307  11.075
17979W        W84520  37.641   5.316  12.394
17980W        W84521  10.795  43.418  12.194
17981W        W84522  37.491  39.615  14.389
17982W        W84523  30.371   9.433  13.448
17983W        W84524  25.905  31.472   2.258
17984W        W84525  30.568  11.428  13.368
17985W        W84526  39.563  41.117   4.992
17986W        W84527  35.976  15.156  11.934
17987W        W84528  40.605  37.090  12.975
17988W        W84529  22.845   2.736  14.256
17989W        W84530  33.817  30.366  10.748
17990W        W84531  35.460  17.717  14.719
17991W        W84532  38.063   2.912  13.380
17992W        W84533  28.259  41.752  13.003
17993W        W84534  16.727  30.518   2.431
17994W        W84535  43.769  34.934   0.550
17995W        W84536   1.421  39.862   1.905
17996W        W84537  38.554   9.899   2.439
17997W        W84538  43.465  31.147   2.591
17998W        W84539  29.121   1.339   3.411
17999W        W84540   1.664  15.317   0.915
18000W        W84541  44.251  12.272   2.719
18001W        W84542  21.179  35.341  13.720
18002W        W84543  22.114  21.010  10.950
18003W        W84544   8.437  20.164  14.353
18004W        W84545  35.882  35.550  12.565
18005W        W84546  41.924  10.039  10.383
18006W        W84547  27.272  37.507   4.578
18007W        W84548  30.647  20.176   3.335
18008W        W84549  19.163  34.599   2.339
18009W        W84550  37.040  25.541  12.519
18010W        W84551  41.915  25.083  13.394
18011W        W84552   4.808   1.733   3.719
18012W        W84553  33.956   6.430  12.888
18013W        W84554  20.955   2.882   4.433
18014W        W84555  23.103  33.690  12.659
18015W        W84556   2.262  12.498  12.364
18016W        W84557   5.930  32.461   0.979
18017W        W84558  42.086  36.182   1.379
18018W        W84559  35.961   4.818   4.417
18019W        W84560   8.695  31.505   2.376
18020W        W84561   5.783  22.713  12.532
18021W        W84562   0.062  31.115   2.061
18022W        W84563   6.904  23.299   1.374
18023W        W84564  19.461  23.670  13.758
18024W        W84565   5.392  31.134   5.078
18025W        W84566   0.285   8.959   2.213
18026W        W84567  10.265   0.489  11.184
18027W        W84568  23.532  39.595   1.799
18028W        W84569  16.680  13.864   0.270
18029W        W84570  16.407   7.611  11.047
18030W        W84571   7.724   8.276   4.153
18031W        W84572  28.598  15.782   4.708
18032W        W84573  35.622  19.895   3.338
18033W        W84574   3.897  18.734   0.912
18034W        W84575  32.939  29.238   4.584
18035W        W84576  14.275  27.582  14.740
18036W        W84577   9.522  18.471  14.538
18037W        W84578  23.284  34.565   3.894
18038W        W84579  34.376  15.512   1.806
18039W        W84580  39.187  27.914  11.138
18040W        W84581  43.450  11.956   4.522
18041W        W84582  24.751   7.588  14.889
18042W        W84583  15.175   1.694  13.383
18043W        W84584  42.744  41.527   4.271
18044W        W84585  20.083  18.422   4.216
18045W        W84586   8.519  27.567  13.527
18046W        W84587  30.174   0.945   1.771
18047W        W84588   1.215   1.930   1.282
18048W        W84589  20.610  23.456   3.233
18049W        W84590  42.806  37.985  10.754
18050W        W84591   5.997   1.309   1.309
18051W        W84592   5.834   7.291  11.673
18052W        W84593   6.151  20.588   1.819
18053W        W84594  33.456  33.958   1.937
18054W        W84595  43.199  31.162   4.060
18055W        W84596   3.121  23.077  13.764
18056W        W84597  15.012  40.208  13.067
18057W        W84598  39.570  33.348   0.406
18058W        W84599  31.410  10.156   2.240
18059W        W84600   1.919   9.956  12.055
18060W        W84601  39.049   5.201   3.627
18061W        W84602  22.217  27.583   1.775
18062W        W84603  36.047  18.654   4.664
18063W        W84604  14.859  16.672  10.801
18064W        W84605  43.519  29.378   2.388
18065W        W84606  17.434  24.085  13.474
18066W        W84607  35.516  18.536  14.576
18067W        W84608  36.367  17.099  11.343
18068W        W84609  14.476  34.496   5.021
18069W        W84610   6.666  21.684  12.419
18070W        W84611  34.417  11.896   0.066
18071W        W84612  26.143  28.503   0.305
18072W        W84613  32.966  39.088   0.003
18073W        W84614  37.936   6.758  11.520
18074W        W84615  26.850  11.851   3.300
18075W        W84616  27.452  40.480  13.825
18076W        W84617  21.464  18.709   3.825
18077W        W84618  25.884  40.333   3.579
18078W        W84619  29.348  22.241   4.283
18079W        W84620   3.396  43.071   4.208
18080W        W84621  31.039  30.515  11.656
18081W        W84622   7.201  22.977  13.350
18082W        W84623  11.854  28.897   0.363
18083W        W84624  34.037  38.562  11.578
18084W        W84625   8.130  19.134  12.019
18085W        W84626  20.741  13.890  13.328
18086W        W84627   9.182  17.513   2.607
18087W        W84628  15.172   2.700   2.692
18088W        W84629  38.303  12.441   3.878
18089W        W84630  31.291  38.250  13.336
18090W        W84631   0.449  23.441   4.786
18091W        W84632  37.551   4.381  10.921
18092W        W84633  31.487  22.671  12.797
18093W        W84634  41.110  14.813   2.403
18094W        W84635  27.933  40.389  13.032
18095W        W84636   9.878  43.127   4.078
18096W        W84637  31.358  35.462  14.814
18097W        W84638  19.871  43.457  14.905
18098W        W84639  32.609  30.102  14.110
18099W        W84640   5.944  41.019   1.176
18100W        W84641  10.076  27.013  13.794
18101W        W84642   4.717  13.737  14.928
18102W        W84643  39.067  42.937  12.183
18103W        W84644  30.240  17.954   3.147
18104W        W84645   9.620  26.461  12.180
18105W        W84646  11.164   7.463   2.802
18106W        W84647  43.035   2.746  10.623
18107W        W84648   3.755  39.375   2.106
18108W        W84649   9.887   2.911  12.628
18109W        W84650  34.032  44.779   0.846
18110W        W84651   0.047  22.569  11.961
18111W        W84652  11.021  38.914  11.129
18112W        W84653   1.879  31.303   1.301
18113W        W84654  33.934  14.670  12.500
18114W        W84655  20.703  44.313  11.462
18115W        W84656  20.592  24.376   0.901
18116W        W84657  43.771   4.824  11.632
18117W        W84658  34.818  44.031   2.868
18118W        W84659  42.363  27.480   5.054
18119W        W84660  10.167  22.918  12.582
18120W        W84661  34.610  26.878   3.640
18121W        W84662  18.761  28.963   3.674
18122W        W84663  26.662  10.148  11.015
18123W        W84664  18.336  39.446   3.341
18124W        W84665   3.438   3.886   3.154
18125W        W84666   3.463  20.752   4.291
18126W        W84667  44.704  37.637   4.104
18127W        W84668  31.426  23.102  13.083
18128W        W84669  27.583  28.641   3.874
18129W        W84670  29.887   6.246   1.655
18130W        W84671  41.087   9.687  13.364
18131W        W84672   1.803   6.264   3.110
18132W        W84673  38.263  17.016  14.526
18133W        W84674  13.156  15.818   3.685
18134W        W84675  38.954   1.255   4.258
18135W        W84676  19.622  14.263  11.604
18136W        W84677  39.424  19.123  14.244
18137W        W84678   6.733  13.835   0.223
18138W        W84679   7.482  27.198   2.766
18139W        W84680  12.562  37.543   0.964
18140W        W84681   9.712  42.233   2.320
18141W        W84682  23.761  26.167   0.748
18142W        W84683  44.926   2.423  11.098
18143W        W84684  37.805  34.068  14.311
18144W        W84685   5.150  39.361   0.644
18145W        W84686  32.900   5.964   2.749
18146W        W84687  44.226  17.777   3.424
18147W        W84688  10.354   1.280   4.819
18148W        W84689  35.544  41.238  12.798
18149W        W84690  36.867  43.749  14.472
18150W        W84691  22.056  27.346   4.194
18151W        W84692  21.689   9.651   4.483
18152W        W84693  25.079  39.043   5.019
18153W        W84694  16.653   5.463  10.614
18154W        W84695   2.718  19.245  12.119
18155W        W84696  19.694  30.445   0.338
18156W        W84697   1.957  12.185   1.187
18157W        W84698  19.716  29.585   0.767
18158W        W84699  41.958  20.669   0.562
18159W        W84700  27.475  28.712   2.040
18160W        W84701  15.692  39.303   3.842
18161W        W84702  34.474  11.682   3.407
18162W        W84703  21.609  36.911  13.283
18163W        W84704  27.869  38.708   3.471
18164W        W84705   7.771  38.442  12.028
18165W        W84706  44.077  10.400  11.865
18166W        W84707  29.507  21.749   4.242
18167W        W84708  28.910  10.683   2.826
18168W        W84709  40.237  40.820  11.714
18169W        W84710  11.660  21.726  12.452
18170W        W84711   0.615  28.012   3.733
18171W        W84712   0.281  37.038  14.530
18172W        W84713  28.327   8.942   2.320
18173W        W84714  38.882  27.182   1.681
18174W        W84715  32.180  40.340  13.439
18175W        W84716  19.563   1.177  12.913
18176W        W84717   4.691   6.468  10.980
18177W        W84718  14.957  44.763   0.273
18178W        W84719  28.501  38.024  12.993
18179W        W84720   3.711  37.182   0.100
18180W        W84721  32.142   1.275  14.079
18181W        W84722  34.855  25.324   1.415
18182W        W84723  44.433  41.535   1.377
18183W        W84724   7.709  36.670   1.411
18184W        W84725  34.527  15.100   4.530
18185W        W84726  34.942  30.275   4.190
18186W        W84727  31.435  11.894  10.712
18187W        W84728  26.289  18.687  10.693
18188W        W84729   9.337  40.030  13.322
18189W        W84730  41.098   9.199  14.615
18190W        W84731  16.478   4.130  10.894
18191W        W84732  36.470  11.456   0.273
18192W        W84733  37.206   1.441  11.680
18193W        W84734  28.971  26.704   3.296
18194W        W84735  43.209  44.987   2.456
18195W        W84736  20.711   5.114   0.054
18196W        W84737  43.296  41.927  13.180
18197W        W84738   4.425  27.612   0.987
18198W        W84739   7.766   4.427   1.247
18199W        W84740   4.942  36.097  12.970
18200W        W84741  28.767   0.012   2.272
18201W        W84742  14.619  39.339   2.783
18202W        W84743  15.883  22.194  12.147
18203W        W84744  31.298   1.379  14.459
18204W        W84745  28.110  29.278  13.416
18205W        W84746   5.993  37.198   4.937
18206W        W84747  19.649  26.628  13.131
18207W        W84748   2.507  32.977  11.910
18208W        W84749   9.061   3.687  12.120
18209W        W84750  11.436  35.425  14.903
18210W        W84751  44.302   7.373  14.018
18211W        W84752   8.185  41.356  11.672
18212W        W84753  15.809  23.529  11.175
18213W        W84754  40.308  22.574  13.323
18214W        W84755  38.685  20.512   3.210
18215W        W84756  36.011  22.070   4.619
18216W        W84757  19.802   5.485   2.222
18217W        W84758  20.148  26.110   0.854
18218W        W84759   9.764  16.906   4.767
18219W        W84760   1.826  18.861   2.690
18220W        W84761   4.070  12.164  10.716
18221W        W84762  12.863   9.587  11.544
18222W        W84763  29.503  22.419   0.730
18223W        W84764  39.009  33.102  11.922
18224W        W84765   5.787  23.263   4.684
18225W        W84766  32.146  28.262   4.548
18226W        W84767  12.206  35.991  12.483
18227W        W84768  32.839   9.786  12.608
18228W        W84769   6.874  42.283   4.537
18229W        W84770  17.411  28.520  10.426
18230W        W84771  31.719   2.682   2.796
18231W        W84772  25.528   4.441  12.454
18232W        W84773  24.160  27.697   0.060
18233W        W84774  32.841  18.168  12.653
18234W        W84775   3.299  39.911  12.945
18235W        W84776  42.471  11.852   0.184
18236W        W84777   3.671  33.439  12.141
18237W        W84778   7.517  19.204   3.657
18238W        W84779  41.569  36.799   4.873
18239W        W84780  30.308  40.310   1.787
18240W        W84781  41.996  18.791   4.351
18241W        W84782  18.848  21.959   3.657
18242W        W84783  31.896  34.558  14.756
18243W        W84784  36.935   7.487   1.887
18244W        W84785   3.735   6.654  14.841
18245W        W84786  15.856  41.316  10.620
18246W        W84787  39.688   4.537  12.425
18247W        W84788   2.258  13.394  12.869
18248W        W84789  36.516   4.369  13.920
18249W        W84790  28.357  39.439   2.725
18250W        W84791   5.472  39.329  14.808
18251W        W84792  12.819  11.900  11.573
18252W        W84793  26.293   8.267   5.209
18253W        W84794  34.678  20.553   2.784
18254W        W84795  25.783  15.706  13.420
18255W        W84796   0.369   9.679   1.703
18256W        W84797   6.499  18.089   1.808
18257W        W84798   1.667  23.288  14.934
18258W        W84799  39.615  42.157  12.474
18259W        W84800  41.936   3.298  13.071
18260W        W84801  29.061  22.938  12.700
18261W        W84802   4.501  34.879   3.353
18262W        W84803   4.319  30.960  12.426
18263W        W84804  11.904  33.283   3.232
18264W        W84805  17.321   8.168  13.908
18265W        W84806  38.399  29.722  10.957
18266W        W84807  37.051  30.352  12.006
18267W        W84808  39.573  32.986  13.754
18268W        W84809  19.579  27.549  14.864
18269W        W84810  30.926  11.269   0.693
18270W        W84811  21.548  20.727  13.650
18271W        W84812   2.339  17.800  11.646
18272W        W84813   9.323   4.174   1.459
18273W        W84814  40.388  25.262  12.161
18274W        W84815  30.699  13.309  12.622
18275W        W84816  23.516  12.659   3.104
18276W        W84817  43.537  24.792  11.758
18277W        W84818  11.359   7.884  13.388
18278W        W84819  19.186  39.227   0.772
18279W        W84820   5.709  10.263  14.234
18280W        W84821  28.703  20.734  10.599
18281W        W84822  10.284   1.986   3.697
18282W        W84823  25.129   6.425   2.632
18283W        W84824  10.084   6.041   5.006
18284W        W84825  38.552  42.009  12.554
18285W        W84826  15.084  34.654  11.213
18286W        W84827  25.453   8.435   4.529
18287W        W84828  29.034  44.847   0.928
18288W        W84829  14.039   0.871  12.015
18289W        W84830   2.229  39.329  11.424
18290W        W84831  20.171   0.290  12.392
18291W        W84832  19.946  29.486   0.261
18292W        W84833  19.219  14.097   3.271
18293W        W84834   1.310   8.627  11.504
18294W        W84835   0.346   3.838  14.866
18295W        W84836  33.388  13.542   2.858
18296W        W84837  14.156  14.559   3.558
18297W        W84838   3.957  28.948  13.954
18298W        W84839  15.632  20.187   4.715
18299W        W84840  21.698  34.638  14.105
18300W        W84841  32.390  14.293   2.483
18301W        W84842  24.579  37.541  13.062
18302W        W84843  12.069   8.705   4.553
18303W        W84844   4.531  29.586   4.702
18304W        W84845  42.333  28.659  10.724
18305W        W84846  18.084  44.207   2.167
18306W        W84847  23.440  37.541   4.696
18307W        W84848  34.520  42.321  12.040
18308W        W84849   8.394  34.176  13.012
18309W        W84850   2.142  35.963  14.731
18310W        W84851  36.519  44.239   4.588
18311W        W84852  18.550  28.464  11.610
18312W        W84853  28.472  16.212  11.747
18313W        W84854  42.758  36.183  11.988
18314W        W84855   0.383  38.499   4.819
18315W        W84856  38.543   0.739  12.372
18316W        W84857   7.794  40.231   4.079
18317W        W84858   3.471  39.573   2.845
18318W        W84859   2.309  22.505  12.394
18319W        W84860  17.376  16.610  13.865
18320W        W84861  32.948   4.679   2.256
18321W        W84862  37.395  26.443  12.109
18322W        W84863  10.711   5.706  10.984
18323W        W84864   6.727  28.689   0.748
18324W        W84865   9.188  30.916   2.783
18325W        W84866  16.884  24.014  12.058
18326W        W84867   9.283  13.197  11.390
18327W        W84868  37.890   8.012   2.744
18328W        W84869  25.645   7.294  14.468
18329W        W84870  16.652   1.116   0.940
18330W        W84871   5.907   9.371  14.699
18331W        W84872  42.443  35.539   1.335
18332W        W84873  22.931  32.121  11.988
18333W        W84874  34.575  16.581   4.539
18334W        W84875  30.531  14.428   4.563
18335W        W84876  26.589  28.979   4.607
18336W        W84877  12.857   8.225  12.955
18337W        W84878  38.105  41.783  10.650
18338W        W84879   9.596  11.823   2.250
18339W        W84880  31.582  32.826  13.453
18340W        W84881  11.860  21.693  13.925
18341W        W84882  36.746   0.807  11.988
18342W        W84883  11.384   6.003   3.068
18343W        W84884   0.053  11.215  12.629
18344W        W84885   3.177  26.558   4.016
18345W        W84886  20.109  20.684   0.824
18346W        W84887  29.349  16.816  11.913
18347W        W84888  34.438  17.821  13.435
18348W        W84889   5.258  16.957  11.419
18349W        W84890  24.699  31.025   2.805
18350W        W84891  17.187  28.452  13.145
18351W        W84892  20.581   5.533  12.669
18352W        W84893  24.954  21.958   1.304
18353W        W84894  40.779  37.110   3.340
18354W        W84895  21.896  13.373   2.937
18355W        W84896  20.287  28.476  12.534
18356W        W84897  28.659  30.997  12.184
18357W        W84898  29.481  33.372   4.517
18358W        W84899  17.599  32.557   4.284
18359W        W84900  15.002  24.167  13.376
18360W        W84901  19.412  20.032  12.683
18361W        W84902  37.460  12.319   2.817
18362W        W84903  43.127  13.250   4.180
18363W        W84904  43.630  22.635   4.965
18364W        W84905   0.758   9.235   2.789
18365W        W84906  34.568  11.778  14.055
18366W        W84907  41.871  18.288   4.170
18367W        W84908  21.691  35.862   0.977
18368W        W84909  44.588  29.952  13.075
18369W        W84910  11.778  15.277  12.629
18370W        W84911  14.565  20.956   0.425
18371W        W84912   4.931  44.711   2.225
18372W        W84913  39.816  24.974  14.027
18373W        W84914   4.672  20.139   3.892
18374W        W84915   6.302   2.320  14.421
18375W        W84916  23.946  22.485   0.342
18376W        W84917  28.129   6.192  12.454
18377W        W84918   9.800  10.681   3.407
18378W        W84919  36.641   0.701   2.188
18379W        W84920  31.985   9.375  11.553
18380W        W84921  11.198  16.944   3.748
18381W        W84922  34.533   5.049   2.225
18382W        W84923  34.111   7.200   4.641
18383W        W84924  31.484   0.418   3.741
18384W        W84925  10.463  36.545   2.369
18385W        W84926  17.983  34.075   4.273
18386W        W84927   4.259  38.058  14.812
18387W        W84928  38.959  37.399  12.186
18388W        W84929  40.291  36.922   5.144
18389W        W84930  18.599  19.612   0.358
18390W        W84931  17.699  29.100  13.527
18391W        W84932  35.128  28.026   0.292
18392W        W84933   4.701  44.191  14.451
18393W        W84934  25.474  42.921  10.786
18394W        W84935   0.733   8.581   0.008
18395W        W84936  42.919  20.718  13.411
18396W        W84937   2.902  34.601  10.171
18397W        W84938  30.538   5.728   3.100
18398W        W84939  17.283  31.707  12.956
18399W        W84940  26.607  41.215   1.350
18400W        W84941  12.761  29.197  11.627
18401W        W84942   0.929  38.387  10.449
18402W        W84943   8.911  27.912  11.101
18403W        W84944  28.666  29.187   1.399
18404W        W84945  34.089   3.730   0.842
18405W        W84946  31.531  15.192   1.699
18406W        W84947  30.619  12.324  13.092
18407W        W84948  11.244   6.996  10.929
18408W        W84949  43.272  18.329  11.940
18409W        W84950  26.243  13.269  10.820
18410W        W84951  19.207  15.160   0.369
18411W        W84952  43.493  28.857   4.640
18412W        W84953  44.779   7.189  12.896
18413W        W84954  29.344  36.424   3.246
18414W        W84955  33.748  34.423  11.609
18415W        W84956  17.077  44.537  11.995
18416W        W84957   9.971  42.459  12.964
18417W        W84958  29.382   7.312   0.886
18418W        W84959  15.760  26.670  14.977
18419W        W84960  40.638  31.980   5.068
18420W        W84961  29.739  22.551  13.335
18421W        W84962  12.374  28.226   4.559
18422W        W84963  26.015  11.767   1.726
18423W        W84964   0.157  13.822  11.580
18424W        W84965  21.303   2.624  14.401
18425W        W84966  29.885   8.784  11.105
18426W        W84967  27.066  27.883   3.553
18427W        W84968  24.086  23.488  14.264
18428W        W84969  10.425   6.264  12.839
18429W        W84970  28.940  34.963   2.666
18430W        W84971  19.220  22.510   4.094
18431W        W84972  44.387   3.843   2.573
18432W        W84973  21.669  33.057   0.325
18433W        W84974  44.674  36.142  12.597
18434W        W84975  17.815  20.418  13.046
18435W        W84976   5.930  33.513  11.925
18436W        W84977   1.330  39.560  14.912
18437W        W84978  22.456  14.649  14.809
18438W        W84979  28.567  30.026  10.675
18439W        W84980   0.027  11.327   3.132
18440W        W84981  39.355   2.647   2.872
18441W        W84982  35.409   0.858   3.855
18442W        W84983   4.566  31.869   4.265
18443W        W84984  35.917  11.089   3.965
18444W        W84985  14.795   4.417  13.515
18445W        W84986  33.939  23.620   4.835
18446W        W84987  32.591  42.800  11.053
18447W        W84988   6.930  26.600   1.067
18448W        W84989  11.978  15.144  11.638
18449W        W84990   2.248  18.082  12.541
18450W        W84991  17.210  14.541  14.654
18451W        W84992  11.831   2.225  14.490
18452W        W84993  14.149  40.824   1.448
18453W        W84994  43.258  44.037   0.736
18454W        W84995   4.864   0.320   2.225
18455W        W84996  17.627   3.122   3.721
18456W        W84997  33.487   7.817  11.792
18457W        W84998  43.203   8.685  11.958
18458W        W84999  32.191  20.928   4.484
18459W        W85000  29.262  33.647  14.234
18460W        W85001  22.292  28.312  13.986
18461W        W85002   0.803  25.993   3.957
18462W        W85003  11.594   4.368   0.361
18463W        W85004  14.116  30.729   3.456
18464W        W85005  18.791  11.695  13.773
18465W        W85006  19.129   6.895  11.052
18466W        W85007  15.254  43.987   2.892
18467W        W85008   3.015  29.867  12.860
18468W        W85009  34.809  12.769  11.538
18469W        W85010  37.929  24.714   3.832
18470W        W85011   1.727  29.764   4.236
18471W        W85012  19.737  12.506   0.853
18472W        W85013  22.551  18.117  13.046
18473W        W85014  36.598  15.675   2.777
18474W        W85015  37.892  22.277  12.514
18475W        W85016  43.452   1.032  11.092
18476W        W85017  20.002  25.462  13.417
18477W        W85018  30.810  40.288   4.264
18478W        W85019  26.401   6.727  10.661
18479W        W85020   6.550  26.787   2.743
18480W        W85021  43.434  20.274   0.300
18481W        W85022  30.541  15.738   5.284
18482W        W85023  20.528  37.007   3.114
18483W        W85024   0.027  21.198  11.113
18484W        W85025  28.116  38.935  12.749
18485W        W85026  22.193  15.507   0.796
18486W        W85027  36.797  13.497  12.603
18487W        W85028  38.623  28.551   3.763
18488W        W85029   2.405   4.340   1.407
18489W        W85030  28.055   0.698  12.393
18490W        W85031  10.212  26.157   0.070
18491W        W85032  30.746   5.704  14.943
18492W        W85033  11.436  13.369   3.644
18493W        W85034  44.377  22.271   1.978
18494W        W85035   3.481  32.520   2.760
18495W        W85036   0.332  36.052   0.192
18496W        W85037   4.039  44.019  10.312
18497W        W85038  17.727  30.992   9.689
18498W        W85039  23.793  15.338   2.017
18499W        W85040  25.565  21.327  13.654
18500W        W85041  37.666  21.237   3.131
18501W        W85042   1.922  23.465   1.622
18502W        W85043  31.851  18.973   3.502
18503W        W85044  12.712  27.527  12.028
18504W        W85045  44.344  18.241  14.098
18505W        W85046  12.006  26.691  10.718
18506W        W85047  24.682  25.520  12.573
18507W        W85048  32.325   6.916  11.163
18508W        W85049  31.259  42.943  12.016
18509W        W85050  11.615  29.183   2.651
18510W        W85051  26.077  19.036   2.472
18511W        W85052  42.009  34.509  10.715
18512W        W85053  33.767  40.772   2.874
18513W        W85054  15.029   1.952  12.954
18514W        W85055  16.599  14.816   0.370
18515W        W85056  40.442  34.836  12.571
18516W        W85057   8.082   0.005  13.469
18517W        W85058  14.610  29.207   4.593
18518W        W85059  23.269  17.836  13.461
18519W        W85060  12.139  29.674   4.824
18520W        W85061  31.164   8.387   2.267
18521W        W85062  20.143  43.900   1.895
18522W        W85063  11.786   7.203   2.273
18523W        W85064  18.398   7.330  14.081
18524W        W85065   0.847  25.089   0.597
18525W        W85066  42.256  14.977  14.932
18526W        W85067   9.662   1.036  12.536
18527W        W85068  33.771  42.034   3.328
18528W        W85069  14.654  16.808  13.492
18529W        W85070  27.567  26.246  13.504
18530W        W85071  37.043  31.428   2.167
18531W        W85072  16.565  12.956   3.250
18532W        W85073  15.603   6.010   2.893
18533W        W85074   6.512  16.092  14.394
18534W        W85075  19.010   1.781  12.973
18535W        W85076  41.759   5.379  13.007
18536W        W85077  31.737  19.754  14.466
18537W        W85078  42.268  35.111  13.810
18538W        W85079  33.852  19.612   0.291
18539W        W85080  33.946   6.337   3.794
18540W        W85081  28.775  34.332  14.815
18541W        W85082  25.069  23.481  10.258
18542W        W85083  27.209  10.754   2.155
18543W        W85084  16.065  23.278  14.096
18544W        W85085  15.849  35.197   3.980
18545W        W85086  22.711  44.851  11.926
18546W        W85087  32.639   6.815  10.741
18547W        W85088   8.746  11.722  12.975
18548W        W85089  23.308  29.667  11.925
18549W        W85090  35.619  29.125  11.683
18550W        W85091  15.347  16.245  14.943
18551W        W85092   6.418  18.951   3.510
18552W        W85093  30.697  18.693  13.225
18553W        W85094  29.397   0.656   0.364
18554W        W85095  11.359  39.348  11.138
18555W        W85096  15.179  13.426   4.421
18556W        W85097  32.909  39.626   0.909
18557W        W85098   9.960  32.134  10.501
18558W        W85099  16.523  27.116   0.706
18559W        W85100  18.618  17.734   1.517
18560W        W85101  14.757  18.838  14.664
18561W        W85102  29.118  30.994   3.304
18562W        W85103  44.053  25.329   2.421
18563W        W85104  17.657  39.373   4.121
18564W        W85105  14.763  28.869  10.699
18565W        W85106   8.479  43.045   2.325
18566W        W85107   6.419   6.690  14.543
18567W        W85108  39.736  24.192  14.572
18568W        W85109   5.294  12.707   3.837
18569W        W85110  13.219  37.056  12.544
18570W        W85111   2.864  27.481  14.326
18571W        W85112  20.505  24.527  14.006
18572W        W85113  21.846   5.171  14.448
18573W        W85114  43.858   7.773  13.223
18574W        W85115  36.905  28.918  12.067
18575W        W85116  10.686   1.675   3.823
18576W        W85117  32.691  42.492  14.020
18577W        W85118   5.472  34.835  11.049
18578W        W85119  43.830  15.073  12.161
18579W        W85120   1.519  37.905   2.470
18580W        W85121  39.257  10.840   3.731
18581W        W85122  29.210  27.076   4.580
18582W        W85123  44.067  44.954   1.244
18583W        W85124  22.945   2.833  10.585
18584W        W85125   2.472  17.567  14.057
18585W        W85126  28.907   0.214  11.128
18586W        W85127  11.774  26.644   4.690
18587W        W85128  29.709   4.229   3.202
18588W        W85129   3.196  37.977   0.284
18589W        W85130  31.509  15.833  11.009
18590W        W85131   7.443  17.503   3.323
18591W        W85132   0.198   8.395   2.742
18592W        W85133  22.669  30.282   4.230
18593W        W85134  29.504  36.202   5.174
18594W        W85135  11.558  24.240  11.489
18595W        W85136  13.266  34.074   1.045
18596W        W85137  25.340   9.207  13.858
18597W        W85138  30.203   4.407   0.765
18598W        W85139   5.213  19.703  12.566
18599W        W85140   3.649  27.222   1.319
18600W        W85141   4.629  22.129   9.821
18601W        W85142  29.981   9.615   0.839
18602W        W85143  39.964  36.188  14.415
18603W        W85144  24.662  42.930   0.874
18604W        W85145  35.947  12.465   2.197
18605W        W85146   8.632  40.253   3.586
18606W        W85147   3.331  37.787   4.352
18607W        W85148   9.307   0.477   2.433
18608W        W85149   9.230   0.975  12.839
18609W        W85150  42.038  37.482  13.872
18610W        W85151  22.258  10.975   3.884
18611W        W85152   8.681  31.927   2.701
18612W        W85153  25.016  34.990  14.074
18613W        W85154  24.536  28.822  12.790
18614W        W85155  22.854  28.705  12.009
18615W        W85156  29.675   5.286   2.562
18616W        W85157  17.848  28.198   2.371
18617W        W85158  29.138  29.120   4.493
18618W        W85159  17.639   5.197   3.646
18619W        W85160  41.659  18.058  13.794
18620W        W85161  42.074   8.324   2.656
18621W        W85162  34.840  29.347  13.095
18622W        W85163   9.207  34.912  11.122
18623W        W85164  22.256  19.207  10.715
18624W        W85165  40.316  29.340  10.761
18625W        W85166   6.148  22.061   1.906
18626W        W85167  16.806  13.256   0.695
18627W        W85168  44.760   3.744   1.261
18628W        W85169  26.030  33.667  12.830
18629W        W85170   8.246  25.015  11.996
18630W        W85171   3.631  22.632  11.228
18631W        W85172   6.753   9.418  13.657
18632W        W85173   9.009  37.856  11.995
18633W        W85174  31.041  13.832  11.233
18634W        W85175  12.837  18.170   3.604
18635W        W85176  38.566  38.986   2.943
18636W        W85177  18.201  40.801  13.458
18637W        W85178  35.917  27.416  10.726
18638W        W85179  18.620   8.773  10.721
18639W        W85180  15.606   2.472   3.837
18640W        W85181  31.529  17.172  10.692
18641W        W85182  35.610  35.964  13.328
18642W        W85183  24.121  24.915   1.225
18643W        W85184  38.764  11.325  13.303
18644W        W85185  36.607  15.623  11.092
18645W        W85186  35.011  17.196   1.861
18646W        W85187  18.486  18.300   4.735
18647W        W85188   5.061   3.747   0.460
18648W        W85189   5.283  40.037   3.628
18649W        W85190  25.830  16.165  13.667
18650W        W85191  28.751  25.023  14.226
18651W        W85192   1.364   2.268  13.638
18652W        W85193  32.397  25.521   2.730
18653W        W85194  31.823  25.968   2.432
18654W        W85195  40.624   3.775  14.000
18655W        W85196  14.639  23.467   5.028
18656W        W85197   6.243  24.717   3.159
18657W        W85198  17.106   5.396  10.857
18658W        W85199  44.013   9.070  11.731
18659W        W85200  28.045   5.444  13.792
18660W        W85201  29.685  11.160  10.727
18661W        W85202   6.828  43.899  12.925
18662W        W85203  11.988  35.580   4.188
18663W        W85204  31.986  39.456  11.969
18664W        W85205  14.610  31.458   0.182
18665W        W85206  20.309  15.592   2.395
18666W        W85207  44.952  10.361  12.692
18667W        W85208   5.051  17.517  12.104
18668W        W85209  43.453  28.922   3.268
18669W        W85210  41.969  20.188  12.540
18670W        W85211   3.504  19.204   0.297
18671W        W85212  13.103  20.968  12.483
18672W        W85213   4.932   8.057  14.397
18673W        W85214   0.103  27.040   2.860
18674W        W85215  42.993  33.983  12.911
18675W        W85216  25.730  29.155  11.331
18676W        W85217  32.860  30.720   3.769
18677W        W85218  44.436  29.846   2.320
18678W        W85219  12.780  27.158  11.641
18679W        W85220  14.586  11.677  12.995
18680W        W85221   9.616  11.521  12.987
18681W        W85222  32.201   5.159  12.940
18682W        W85223  30.208  23.044  14.302
18683W        W85224  26.146   3.436  13.002
18684W        W85225  22.704  40.075  14.726
18685W        W85226  25.982  17.112  14.374
18686W        W85227   0.474   0.554  12.204
18687W        W85228  15.024   2.990  14.893
18688W        W85229  43.301  13.632  13.870
18689W        W85230  19.642  36.326  11.775
18690W        W85231  24.423  31.515  11.297
18691W        W85232  19.684  26.530  11.652
18692W        W85233   4.327  14.084  13.376
18693W        W85234  15.494  39.734  10.766
18694W        W85235   0.348  30.337   4.094
18695W        W85236  24.025  41.074  13.463
18696W        W85237  20.777  32.974   2.318
18697W        W85238  31.069  15.316   3.797
18698W        W85239   9.423  21.621  11.678
18699W        W85240  41.056  13.832  12.038
18700W        W85241  13.651  17.942  12.881
18701W        W85242   3.899  42.397   0.810
18702W        W85243   5.705  39.054   2.793
18703W        W85244  30.162  35.333   2.304
18704W        W85245   2.853  15.639  14.040
18705W        W85246  18.245  14.262  12.057
18706W        W85247  36.154  38.435  10.446
18707W        W85248  19.582  41.094  14.245
18708W        W85249  34.710   5.635   2.122
18709W        W85250   7.293   9.569  13.074
18710W        W85251  44.740  21.516   4.258
18711W        W85252  22.270   8.429  10.525
18712W        W85253  13.815  41.018   0.227
18713W        W85254  30.160  10.860   0.140
18714W        W85255   8.551  18.306   0.087
18715W        W85256  34.108  44.836  11.641
18716W        W85257  42.940   8.071  12.878
18717W        W85258  39.576   2.369   3.684
18718W        W85259   5.414  23.659  10.636
18719W        W85260  13.704  25.485  13.395
18720W        W85261  21.482   2.999   1.245
18721W        W85262  11.780  21.197  14.464
18722W        W85263  27.028   5.691  11.568
18723W        W85264  31.567  32.128   4.011
18724W        W85265   7.644  27.725   4.498
18725W        W85266  32.123  20.162  11.185
18726W        W85267  28.152   5.980   0.755
18727W        W85268  28.045  23.240  10.566
18728W        W85269  30.976   0.888   2.737
18729W        W85270   0.650   6.698  11.026
18730W        W85271  34.712  25.945  11.393
18731W        W85272   9.384  11.918   3.774
18732W        W85273  12.679  16.061  14.448
18733W        W85274  19.235  28.383  13.029
18734W        W85275  25.729   4.508  13.722
18735W        W85276  41.448  12.136  14.592
18736W        W85277   9.343  34.960   4.106
18737W        W85278   1.763   5.016  10.114
18738W        W85279  32.581   8.713   2.306
18739W        W85280  26.205  36.530   2.107
18740W        W85281   4.286  44.401   0.483
18741W        W85282  22.049   8.185   4.232
18742W        W85283  28.317  11.635  11.642
18743W        W85284  42.278   5.399  12.838
18744W        W85285  41.150  39.392  12.011
18745W        W85286  24.993  10.155  13.776
18746W        W85287   6.163  29.959   4.718
18747W        W85288   6.701   3.775  14.409
18748W        W85289  27.876   8.341  12.758
18749W        W85290  28.021  12.576  11.551
18750W        W85291  33.109  35.580   1.661
18751W        W85292   6.511  38.453  11.911
18752W        W85293  20.067   2.035  11.605
18753W        W85294   6.086  38.030  12.571
18754W        W85295   7.253  33.102   3.331
18755W        W85296  27.625  19.557   3.352
18756W        W85297  22.916  31.432  14.875
18757W        W85298  33.868  33.076   4.141
18758W        W85299  10.523  25.458  14.263
18759W        W85300  18.249  16.798  11.476
18760W        W85301  12.807  13.155   2.197
18761W        W85302  30.046  25.530   1.366
18762W        W85303  25.144  34.502   0.981
18763W        W85304  23.643  18.061  13.780
18764W        W85305  41.312   0.300   3.862
18765W        W85306  32.435  20.220   0.779
18766W        W85307   9.467  22.587  14.361
18767W        W85308  13.611   8.193   1.755
18768W        W85309  19.401  21.334  12.132
18769W        W85310  18.029  44.946   2.617
18770W        W85311  35.037   0.515   1.784
18771W        W85312  39.649  36.752   0.424
18772W        W85313   9.474  42.854  14.849
18773W        W85314  40.284   7.104   2.722
18774W        W85315  40.106  41.011   3.182
18775W        W85316  31.600  28.920   3.088
18776W        W85317  10.980   0.357  13.298
18777W        W85318  30.490  19.203   4.612
18778W        W85319  39.068  36.981  11.471
18779W        W85320   4.864  21.628   2.722
18780W        W85321  11.252  28.381   0.684
18781W        W85322  29.073  37.499   1.990
18782W        W85323  27.911  13.875   3.674
18783W        W85324  44.608   2.235  14.358
18784W        W85325  37.301   2.832  11.099
18785W        W85326  23.740  30.618  12.628
18786W        W85327  20.655  28.364   0.071
18787W        W85328  41.631  44.006   4.172
18788W        W85329  41.733   4.250  12.102
18789W        W85330   9.774  42.578   2.693
18790W        W85331  21.175  38.308   3.843
18791W        W85332   8.091  11.702   4.824
18792W        W85333  43.598  36.931   4.339
18793W        W85334  33.019   8.226   1.224
18794W        W85335  16.064  18.102   2.376
18795W        W85336  32.301  36.990  13.035
18796W        W85337  26.308  11.887   1.328
18797W        W85338  11.176  37.517   3.163
18798W        W85339   3.236  27.106  12.935
18799W        W85340  27.066  37.075   4.337
18800W        W85341  32.576  16.091  12.020
18801W        W85342  22.520  12.829   3.246
18802W        W85343  31.556  18.700  11.425
18803W        W85344  31.069  13.914  12.119
18804W        W85345  18.623   3.834   0.771
18805W        W85346  40.687  22.207  12.060
18806W        W85347   5.924  32.609  14.959
18807W        W85348   3.807  20.915  12.422
18808W        W85349  44.848  34.885  11.339
18809W        W85350   2.320  26.266  11.416
18810W        W85351  16.291   8.252  10.725
18811W        W85352  12.283  40.905   4.573
18812W        W85353  40.473  36.653  12.186
18813W        W85354  18.686  14.103   3.774
18814W        W85355  31.198  27.057   4.686
18815W        W85356  18.278  19.855   1.538
18816W        W85357   9.902   3.635   4.762
18817W        W85358  37.511  14.096  11.479
18818W        W85359  17.175  40.395  13.539
18819W        W85360  13.810  39.914   2.798
18820W        W85361   9.186  36.562  14.199
18821W        W85362   4.175  40.394   4.344
18822W        W85363   7.270  25.385  14.330
18823W        W85364  25.299  14.574  14.063
18824W        W85365   8.932  16.871  14.496
18825W        W85366  19.536  35.609  11.291
18826W        W85367  29.265  41.706   4.901
18827W        W85368  35.919   6.660  11.990
18828W        W85369   9.461   3.964  12.623
18829W        W85370  12.855   8.228   0.691
18830W        W85371  31.414   4.236  11.131
18831W        W85372   4.698  12.812   3.001
18832W        W85373  11.117  29.972  12.903
18833W        W85374  44.464  32.387   1.809
18834W        W85375  40.472  31.431  14.677
18835W        W85376   2.253  10.695  13.941
18836W        W85377   4.928  29.025  12.529
18837W        W85378  33.413   4.463   2.218
18838W        W85379  32.970  25.813  12.470
18839W        W85380  28.008  15.745   3.289
18840W        W85381  21.904  42.586   2.606
18841W        W85382  44.769  23.891   4.229
18842W        W85383  29.431  37.873  10.542
18843W        W85384  17.962  21.273  14.420
18844W        W85385  13.193  41.864  12.705
18845W        W85386  20.609   8.039  13.131
18846W        W85387  22.591   2.144  12.208
18847W        W85388  31.968  33.431  14.909
18848W        W85389   9.448  43.220   0.898
18849W        W85390  39.188  29.434  14.038
18850W        W85391   8.197  32.055  14.724
18851W        W85392  24.914   9.842   1.345
18852W        W85393  34.969  14.828  12.132
18853W        W85394  19.105   6.003  10.771
18854W        W85395  14.683  39.050   2.358
18855W        W85396  21.770   8.344   2.685
18856W        W85397  24.499   2.884   2.169
18857W        W85398  30.587  34.967   0.693
18858W        W85399  24.660  22.229   4.066
18859W        W85400  42.600  12.176   2.174
18860W        W85401  33.586  16.408   0.638
18861W        W85402  33.201  36.995  11.242
18862W        W85403  31.276  19.732  10.231
18863W        W85404   8.371   4.443   2.463
18864W        W85405   8.234  34.859  10.519
18865W        W85406  13.286  12.305   2.472
18866W        W85407  34.139   4.039   3.219
18867W        W85408  40.305  25.765  13.806
18868W        W85409  24.268  26.488  10.312
18869W        W85410  37.850  13.652   5.395
18870W        W85411  21.392  34.622   1.784
18871W        W85412  35.983   1.742   3.880
18872W        W85413   7.995  12.671  10.233
18873W        W85414  36.604  11.276  12.846
18874W        W85415  37.267  16.472   1.702
18875W        W85416  14.734  20.142  10.447
18876W        W85417   2.480  28.158   3.624
18877W        W85418  41.492  21.181   2.030
18878W        W85419  23.450  31.376  14.796
18879W        W85420  24.040  28.412   4.668
18880W        W85421  26.194  34.561   1.875
18881W        W85422   6.619  29.194   2.697
18882W        W85423  11.786   6.993   0.029
18883W        W85424  21.733  13.417  10.625
18884W        W85425  11.221  18.532  11.573
18885W        W85426   7.323   8.136   4.563
18886W        W85427   3.152  17.376   0.884
18887W        W85428  30.014  38.564  14.236
18888W        W85429   9.394  21.186  11.951
18889W        W85430  28.490  13.831  13.347
18890W        W85431  42.941  39.471   1.509
18891W        W85432  12.540  14.307   2.182
18892W        W85433  33.588  20.809   4.559
18893W        W85434  32.027  15.381   1.324
18894W        W85435  15.333  27.122   2.876
18895W        W85436   8.677  28.744   1.254
18896W        W85437  28.144  30.159   2.427
18897W        W85438  16.764   0.655  13.001
18898W        W85439  29.662  14.503  14.119
18899W        W85440  15.150  27.225  13.579
18900W        W85441  25.185  34.982   2.786
18901W        W85442   9.722  38.970   0.707
18902W        W85443  15.759  38.250   1.476
18903W        W85444  41.806  16.783   0.450
18904W        W85445  10.056   9.178  13.930
18905W        W85446   6.986  22.131   4.773
18906W        W85447  10.559   3.112  12.869
18907W        W85448  38.415  19.679   1.006
18908W        W85449  13.633  44.004  14.314
18909W        W85450  31.487  20.849  12.892
18910W        W85451  24.425  35.224  14.566
18911W        W85452  11.796  42.238  11.561
18912W        W85453  10.416  16.805   4.065
18913W        W85454  33.584   7.667  10.881
18914W        W85455  20.382  10.238  10.279
18915W        W85456  34.985   0.467  14.859
18916W        W85457  17.833  29.190   3.635
18917W        W85458  23.047   9.388  10.398
18918W        W85459  37.553  33.545   2.799
18919W        W85460  25.577  20.759  10.396
18920W        W85461  39.059  19.966  12.095
18921W        W85462   0.175  20.593  13.097
18922W        W85463  40.857  32.197  13.773
18923W        W85464  18.386   4.738  12.422
18924W        W85465  32.982  22.643  12.330
18925W        W85466  17.529  23.708  13.841
18926W        W85467  32.506  26.693   4.615
18927W        W85468  16.313  13.143  13.408
18928W        W85469   9.137  29.671  13.746
18929W        W85470  22.249   7.153  14.080
18930W        W85471  38.623  29.227  13.023
18931W        W85472  13.857  20.765   2.984
18932W        W85473  20.992  22.408   3.900
18933W        W85474   6.373  18.286  12.379
18934W        W85475  38.427  11.353   0.194
18935W        W85476  32.484   9.902  13.573
18936W        W85477  21.696  33.138  10.889
18937W        W85478  12.444   1.751   3.307
18938W        W85479  11.718  32.871   3.548
18939W        W85480  11.728   2.444   0.939
18940W        W85481   1.654  16.082   0.218
18941W        W85482   4.892  22.705  14.761
18942W        W85483   7.326  12.651   3.600
18943W        W85484  21.307  32.549   3.848
18944W        W85485  41.833  42.737  13.792
18945W        W85486  35.316   1.592  12.691
18946W        W85487  40.480   2.262  12.412
18947W        W85488  22.495  12.603  14.877
18948W        W85489   3.744  19.223  13.435
18949W        W85490  44.299   4.076  10.530
18950W        W85491  40.284  13.753  14.914
18951W        W85492   9.718   3.567   3.238
18952W        W85493  27.114  36.952  12.511
18953W        W85494  44.313  25.891   3.494
18954W        W85495  22.713  33.201   2.279
18955W        W85496   6.206  29.948   0.793
18956W        W85497   0.560  33.807   0.515
18957W        W85498  14.695  23.525   3.677
18958W        W85499   1.866   7.828   0.450
18959W        W85500  21.076  36.432  12.290
18960W        W85501   4.794  25.065   1.685
18961W        W85502  34.134   1.717   3.770
18962W        W85503  33.034  10.078  13.547
18963W        W85504   1.376   1.582  10.670
18964W        W85505  27.125   7.213   1.370
18965W        W85506  33.196  36.323   3.218
18966W        W85507  30.216  26.869   4.589
18967W        W85508   2.820  42.720   2.195
18968W        W85509   4.919  25.090  13.035
18969W        W85510  30.532  40.028  14.295
18970W        W85511  40.796  26.230  11.063
18971W        W85512   6.704  16.883  12.024
18972W        W85513  22.153  27.870  14.859
18973W        W85514  32.758  29.702  12.473
18974W        W85515  36.588  41.369   0.801
18975W        W85516  38.387   8.486   3.228
18976W        W85517  28.476   4.437   3.745
18977W        W85518  10.821  11.792  13.002
18978W        W85519  27.676  30.231   2.735
18979W        W85520  15.979   4.294  12.387
18980W        W85521  12.238  38.406   4.799
18981W        W85522  12.640  19.204   1.873
18982W        W85523  29.960  30.020  12.557
18983W        W85524  38.571   5.887   4.068
18984W        W85525  41.785  36.597   2.638
18985W        W85526  41.165  41.703  14.005
18986W        W85527  11.004  20.191   0.797
18987W        W85528  43.917  35.662   2.712
18988W        W85529  15.575  39.502   2.945
18989W        W85530  12.703   4.511  14.512
18990W        W85531  44.126   2.756  13.525
18991W        W85532  27.122   1.498  13.737
18992W        W85533  10.936  35.636  11.883
18993W        W85534  32.273  34.005  13.507
18994W        W85535  40.259  31.219  13.346
18995W        W85536  25.641  42.564   1.781
18996W        W85537  37.001  20.214  14.794
18997W        W85538  12.397   3.932  12.519
18998W        W85539  22.426  43.701   2.297
18999W        W85540   4.439  41.632   4.151
19000W        W85541  23.032   4.812   3.130
19001W        W85542  19.831  22.700   4.555
19002W        W85543  33.824  20.043   4.353
19003W        W85544   0.873  39.350  13.388
19004W        W85545  18.087  31.478  11.643
19005W        W85546  36.763  30.179   0.918
19006W        W85547  19.224  32.408  14.362
19007W        W85548   7.425  28.472  12.968
19008W        W85549  37.003  24.684  11.936
19009W        W85550   4.351  43.835  13.243
19010W        W85551   3.174   8.026  12.108
19011W        W85552   0.813   3.547  10.590
19012W        W85553   8.206   6.246  10.731
19013W        W85554  10.370  22.599   4.538
19014W        W85555  29.502  26.294  13.668
19015W        W85556  34.692   9.839   4.590
19016W        W85557  18.743   7.364   4.994
19017W        W85558  44.287  14.369   3.636
19018W        W85559  32.031  21.743  14.810
19019W        W85560   2.539  12.423   4.200
19020W        W85561   5.495   2.453  12.047
19021W        W85562  13.600  27.122   4.674
19022W        W85563  41.506   5.640   0.646
19023W        W85564  36.532  16.802  12.227
19024W        W85565  22.542  37.764  11.233
19025W        W85566   8.130   4.251   4.364
19026W        W85567  29.441  17.442  14.270
19027W        W85568  13.067  24.803  10.520
19028W        W85569   8.697  33.458   0.989
19029W        W85570   1.266  27.423   1.583
19030W        W85571  18.639   9.176   2.417
19031W        W85572  12.384  19.156   4.809
19032W        W85573  27.634  41.958  12.382
19033W        W85574  11.853  33.558  11.540
19034W        W85575  11.137  41.343   2.706
19035W        W85576  15.903   7.828  10.705
19036W        W85577  34.703   8.336  11.663
19037W        W85578  17.310  18.466  13.856
19038W        W85579   1.990  22.731   4.214
19039W        W85580   9.821  24.549   2.104
19040W        W85581   6.820   9.253   2.790
19041W        W85582  22.397  10.630  14.892
19042W        W85583  30.060  35.428   1.272
19043W        W85584  30.677  27.243   1.307
19044W        W85585  36.065  36.336   1.312
19045W        W85586  18.296  38.568  11.174
19046W        W85587   6.844   9.622   0.477
19047W        W85588  20.100  34.662  10.109
19048W        W85589  10.366  37.092  14.839
19049W        W85590   4.676  25.541   1.856
19050W        W85591  20.220   8.683  13.423
19051W        W85592  25.156   2.462  13.961
19052W        W85593   0.492  15.325   1.280
19053W        W85594  35.147  27.597   3.712
19054W        W85595  43.966   0.355  12.963
19055W        W85596   3.146  32.079  11.687
19056W        W85597  11.330  37.772  14.294
19057W        W85598  33.615  28.395  12.936
19058W        W85599  40.244  44.870  12.554
19059W        W85600  37.016   4.883  12.577
19060W        W85601  38.981  43.982   1.285
19061W        W85602   2.296  12.558   3.556
19062W        W85603  25.127  29.217   2.820
19063W        W85604  12.839  20.241   1.807
19064W        W85605  11.368  10.768   2.666
19065W        W85606  40.256  21.059   4.202
19066W        W85607  31.888   7.888  12.689
19067W        W85608   7.771  24.058  13.453
19068W        W85609   7.373  30.718   0.935
19069W        W85610  15.582  25.644  14.795
19070W        W85611   3.023   1.057  11.971
19071W        W85612  34.340  27.839  11.488
19072W        W85613  14.643   7.668   0.501
19073W        W85614  25.087  24.200  11.577
19074W        W85615  20.727  37.980   0.989
19075W        W85616  24.235  43.327  13.034
19076W        W85617  34.942  30.483  10.729
19077W        W85618  12.791  36.044  13.086
19078W        W85619  17.147  28.861  11.578
19079W        W85620   5.083  24.279   2.198
19080W        W85621  15.231  32.482   2.849
19081W        W85622   1.013  17.163   2.896
19082W        W85623  32.448  18.600  14.989
19083W        W85624  39.101  39.980   1.223
19084W        W85625  37.815  39.829   3.916
19085W        W85626  43.465   3.928  13.698
19086W        W85627  10.763  42.171  13.860
19087W        W85628  41.942  15.209   2.842
19088W        W85629  12.838   1.625  12.043
19089W        W85630  15.149  33.754   2.207
19090W        W85631  42.013  43.072  13.455
19091W        W85632   6.194  35.345   2.896
19092W        W85633  32.195  38.558   3.200
19093W        W85634  31.686   7.446  14.943
19094W        W85635  36.573  36.108   4.171
19095W        W85636  34.306   4.366  10.206
19096W        W85637  40.353  44.747   3.736
19097W        W85638   9.821  23.458   2.223
19098W        W85639   9.115   9.250   2.088
19099W        W85640  29.402  19.166  14.935
19100W        W85641  20.603  39.704   2.071
19101W        W85642   4.277  22.727   4.202
19102W        W85643  10.733   6.269   1.529
19103W        W85644   9.381   1.310  13.335
19104W        W85645  18.231  19.249  12.538
19105W        W85646  37.242   3.973   3.242
19106W        W85647   3.766  15.303   4.344
19107W        W85648  24.679  32.240   4.837
19108W        W85649  43.456  24.323   1.236
19109W        W85650   1.736  19.370   1.655
19110W        W85651  24.313  26.588  13.476
19111W        W85652  15.065   4.473   0.801
19112W        W85653   8.298   2.920   0.708
19113W        W85654  35.142  29.444  12.691
19114W        W85655   5.057  25.993  14.751
19115W        W85656  14.065  28.025  14.875
19116W        W85657   7.255  22.679   1.697
19117W        W85658   7.158   0.305  14.393
19118W        W85659  27.506   5.179  12.907
19119W        W85660   4.403  38.761   1.187
19120W        W85661  21.236   0.713   3.964
19121W        W85662  44.027  38.867   2.851
19122W        W85663  26.844  39.453   3.156
19123W        W85664   6.454  37.843  10.583
19124W        W85665  15.671  20.314  13.335
19125W        W85666  16.607  14.350  13.033
19126W        W85667  31.651  38.273  12.949
19127W        W85668  39.444  26.502  14.969
19128W        W85669  38.884  36.949  13.579
19129W        W85670  18.617  28.568   0.843
19130W        W85671   3.988  10.487   0.395
19131W        W85672  13.030  35.615  10.974
19132W        W85673  39.785   6.706  12.963
19133W        W85674   7.924  33.925  12.846
19134W        W85675  12.590  35.942   2.787
19135W        W85676  25.633   3.341   0.561
19136W        W85677  21.995  15.021  10.236
19137W        W85678   5.739  42.803   4.172
19138W        W85679  10.199  44.214  10.703
19139W        W85680  31.246   1.833   5.046
19140W        W85681  18.986  16.370  11.194
19141W        W85682  23.429  28.524   2.521
19142W        W85683  39.042  28.997  14.385
19143W        W85684  28.121  24.269  11.949
19144W        W85685   5.824  25.595   0.844
19145W        W85686  25.902  31.403   4.120
19146W        W85687  32.588   6.402   2.693
19147W        W85688   0.460  29.544  12.458
19148W        W85689  30.727   5.605  10.718
19149W        W85690  19.891   9.359  11.594
19150W        W85691  39.725  35.093  11.969
19151W        W85692  12.270  26.126  11.898
19152W        W85693  24.022   4.983  12.058
19153W        W85694  37.034  13.801  12.961
19154W        W85695  31.661   4.801   1.749
19155W        W85696  41.616  17.970   3.786
19156W        W85697   3.664   1.395  14.485
19157W        W85698  33.683  13.046   2.288
19158W        W85699  38.920  14.913  10.844
19159W        W85700   5.472  32.530   4.485
19160W        W85701  28.686   6.391   3.730
19161W        W85702  25.622  23.617  11.972
19162W        W85703   8.170  11.054  13.919
19163W        W85704  14.235  19.476  11.015
19164W        W85705  36.086  44.516   4.545
19165W        W85706  16.150   0.306  11.074
19166W        W85707  21.085   0.251  11.518
19167W        W85708  15.257  41.762   0.309
19168W        W85709  15.235  31.953  11.757
19169W        W85710   9.461   5.436   0.679
19170W        W85711  10.190   7.746  13.981
19171W        W85712  11.022  21.197  12.499
19172W        W85713  24.962  26.269   1.708
19173W        W85714  25.248  22.055   1.779
19174W        W85715  15.688  18.726   3.764
19175W        W85716  29.753  10.392   3.697
19176W        W85717  34.539  29.258   2.593
19177W        W85718   7.102   7.667  12.455
19178W        W85719  20.549  21.008   0.347
19179W        W85720  19.411   5.919  13.436
19180W        W85721  39.287  19.528   0.909
19181W        W85722  43.708  33.029  11.723
19182W        W85723  10.846  12.687   2.807
19183W        W85724  16.738  19.591  12.081
19184W        W85725  39.392   0.240  10.867
19185W        W85726  33.790  41.340  11.910
19186W        W85727  28.967   4.742   1.432
19187W        W85728  21.239  16.613   2.830
19188W        W85729  12.682  30.095   4.064
19189W        W85730  35.476  29.334   4.994
19190W        W85731  28.877   6.890  11.987
19191W        W85732   1.855  16.183  13.176
19192W        W85733  12.775  18.582  12.620
19193W        W85734  33.323  13.033  14.892
19194W        W85735  17.312  27.650   3.224
19195W        W85736  38.909  36.860  12.566
19196W        W85737  42.996  36.411  14.994
19197W        W85738   0.617   8.170  12.095
19198W        W85739  19.755  22.660  14.403
19199W        W85740  37.798  11.223  14.278
19200W        W85741  20.737  33.329   2.723
19201W        W85742  15.083  30.419   2.628
19202W        W85743  26.136  18.541   2.672
19203W        W85744  27.194   9.896   0.956
19204W        W85745   3.169  16.325  14.846
19205W        W85746  36.369  11.162   4.543
19206W        W85747  26.628  43.490  13.056
19207W        W85748  41.740  29.670   3.202
19208W        W85749  14.835  21.522  10.515
19209W        W85750  35.472  39.834  14.358
19210W        W85751  10.693  33.706   3.302
19211W        W85752  19.339  28.021  14.877
19212W        W85753  33.800   0.572  14.805
19213W        W85754  36.074  30.557   3.418
19214W        W85755  26.047   6.945   1.886
19215W        W85756  40.557   7.868   1.814
19216W        W85757  16.833   3.215   2.136
19217W        W85758  43.717  12.218   2.666
19218W        W85759  19.999  10.590   3.786
19219W        W85760  20.561   1.812  14.128
19220W        W85761   1.776  25.121  14.006
19221W        W85762  32.418  38.377  14.871
19222W        W85763  35.643  44.307   3.176
19223W        W85764  21.663  29.258  11.205
19224W        W85765  37.273  38.108   3.824
19225W        W85766   7.428   0.742  10.966
19226W        W85767  40.679  21.717   3.232
19227W        W85768  22.706  41.729   4.549
19228W        W85769  19.694  12.092   0.013
19229W        W85770  16.297  41.090  13.116
19230W        W85771  11.752  32.128  14.956
19231W        W85772  38.104   3.654  13.931
19232W        W85773  42.009  34.436   1.301
19233W        W85774  10.023  10.616   4.438
19234W        W85775   3.218  20.057   3.787
19235W        W85776  10.236  11.650   0.051
19236W        W85777  11.847   1.398  13.153
19237W        W85778   4.797  16.816   4.431
19238W        W85779  20.595  25.910  10.737
19239W        W85780  37.847  27.071  11.061
19240W        W85781  32.112  27.848   4.854
19241W        W85782  34.494  34.080   2.186
19242W        W85783  12.102  30.885  10.611
19243W        W85784  10.808   6.954   3.246
19244W        W85785  42.577  17.676  12.219
19245W        W85786  43.468  13.357   5.028
19246W        W85787  41.870  21.061  13.087
19247W        W85788   2.837   5.424  11.501
19248W        W85789  31.076  12.792   3.617
19249W        W85790   8.150   3.641  13.185
19250W        W85791   8.949  27.706   1.354
19251W        W85792  29.583  34.602  14.474
19252W        W85793  43.909  38.154  13.745
19253W        W85794  21.720  12.773  12.226
19254W        W85795  18.704  40.498   2.255
19255W        W85796  43.037  32.582  12.921
19256W        W85797  18.318  23.524  12.522
19257W        W85798   1.197  44.353   0.251
19258W        W85799   2.006   9.927   4.941
19259W        W85800  36.893  44.833   3.280
19260W        W85801   8.969  43.317   2.566
19261W        W85802  20.614  30.982  10.629
19262W        W85803  35.491  34.549  12.004
19263W        W85804  12.127  15.368   2.957
19264W        W85805  19.965  12.246  10.446
19265W        W85806  15.210  38.010  14.942
19266W        W85807   8.136  25.786   4.668
19267W        W85808   9.907   6.095  11.071
19268W        W85809  34.643  12.197   0.430
19269W        W85810  19.168  24.790   0.821
19270W        W85811  33.323   2.912  12.023
19271W        W85812  41.375   7.964  13.093
19272W        W85813   1.730  35.546  13.343
19273W        W85814  41.407  40.737  11.033
19274W        W85815  40.662  39.002   4.603
19275W        W85816  39.304   4.509  10.646
19276W        W85817   3.922   2.089   3.587
19277W        W85818  44.991  34.839  13.462
19278W        W85819  29.571  33.632   4.083
19279W        W85820  41.690  41.332   1.336
19280W        W85821   4.554  42.837  10.063
19281W        W85822  18.296   3.751  12.693
19282W        W85823  19.000   5.418   0.882
19283W        W85824  29.189   2.909  13.915
19284W        W85825   5.289  39.614   0.218
19285W        W85826  12.736  41.412  13.275
19286W        W85827  35.144  34.173   0.386
19287W        W85828   6.653  41.531  12.678
19288W        W85829   7.508  10.903  12.751
19289W        W85830  13.630  14.201  14.548
19290W        W85831  32.674  43.487  14.247
19291W        W85832   4.791  14.787  14.514
19292W        W85833   4.929  43.985  11.475
19293W        W85834  13.184   2.655   4.296
19294W        W85835   8.428  27.827  13.969
19295W        W85836  17.999  33.897  13.476
19296W        W85837   4.548  24.445  13.307
19297W        W85838  11.091   4.471  13.950
19298W        W85839  27.026  37.552   4.101
19299W        W85840  27.557  13.775   4.289
19300W        W85841   9.833  44.757  12.938
19301W        W85842  25.898  22.599  14.514
19302W        W85843  16.550  23.764  11.672
19303W        W85844  42.515   8.467   2.381
19304W        W85845  36.926   9.501   0.094
19305W        W85846  12.855  18.970  12.993
19306W        W85847  16.042  10.299   0.326
19307W        W85848   2.193  10.494  12.150
19308W        W85849  23.548  14.811  14.589
19309W        W85850   8.385   1.899  14.547
19310W        W85851  36.321  30.881   5.010
19311W        W85852  31.588  32.707  11.634
19312W        W85853  33.046  44.769  14.452
19313W        W85854   6.161  20.273   2.252
19314W        W85855   2.086   3.900  13.472
19315W        W85856  19.626  34.020  12.007
19316W        W85857  30.558  25.524   3.167
19317W        W85858  19.535   8.408  13.734
19318W        W85859  10.159  43.041   3.273
19319W        W85860   1.865   9.145  12.469
19320W        W85861  25.186   5.225  12.578
19321W        W85862  27.191   7.408  14.891
19322W        W85863  28.790   4.433   3.349
19323W        W85864  41.975  35.038  10.752
19324W        W85865  16.824  42.049   2.770
19325W        W85866  25.797  34.347  11.504
19326W        W85867  38.070   2.941  14.551
19327W        W85868  11.432  19.441   1.177
19328W        W85869  28.051  41.975   0.635
19329W        W85870  30.428  39.260  11.154
19330W        W85871  28.693   9.945  14.397
19331W        W85872  22.496   3.943   0.860
19332W        W85873  18.063   1.675   2.293
19333W        W85874   7.936   3.159   1.742
19334W        W85875   7.225  34.208   1.748
19335W        W85876  25.385  35.321  14.261
19336W        W85877  38.820  10.269   2.177
19337W        W85878  25.663  20.787  12.578
19338W        W85879  25.659  44.101  12.208
19339W        W85880  28.547  26.485  12.446
19340W        W85881   6.468   2.325   4.849
19341W        W85882   4.628  32.067   1.442
19342W        W85883   6.194  34.966  14.961
19343W        W85884  40.057  36.890   1.715
19344W        W85885  24.529   7.758  12.273
19345W        W85886   2.502  39.924   4.188
19346W        W85887  10.211   0.928   2.756
19347W        W85888  37.419  28.572   2.604
19348W        W85889  23.270   1.837  10.561
19349W        W85890   3.459  16.183   0.265
19350W        W85891  20.136  19.440   2.695
19351W        W85892   6.394  17.528  10.645
19352W        W85893  34.339  27.067  14.613
19353W        W85894  42.303  43.725  12.178
19354W        W85895  19.246  35.163   1.258
19355W        W85896  19.214  22.459  14.414
19356W        W85897   6.080  44.288  11.013
19357W        W85898  24.081  19.134  12.527
19358W        W85899   9.870  25.327  11.575
19359W        W85900  38.872   5.166  13.250
19360W        W85901  42.405  28.093  13.980
19361W        W85902  43.466  36.514  13.897
19362W        W85903  12.158  18.151  11.149
19363W        W85904  16.733  32.635   2.428
19364W        W85905  28.119   6.327   2.870
19365W        W85906  18.142  24.677   2.855
19366W        W85907  22.280  10.483   3.711
19367W        W85908  18.411  22.003   1.546
19368W        W85909  13.049  26.778  14.568
19369W        W85910  34.156  26.610  14.800
19370W        W85911   9.650   7.298   4.999
19371W        W85912  11.102   7.214  13.256
19372W        W85913   8.957   0.240   1.959
19373W        W85914  13.435  37.708  11.035
19374W        W85915  29.421   9.434   2.746
19375W        W85916  19.834  28.697  11.218
19376W        W85917  15.410  41.070   3.732
19377W        W85918  10.060  29.176  12.804
19378W        W85919   6.047   8.105   5.044
19379W        W85920   9.721  25.903  12.495
19380W        W85921   8.444   6.251   1.758
19381W        W85922  40.181  12.250  12.155
19382W        W85923  23.990  27.703   4.150
19383W        W85924  36.305  34.187  11.764
19384W        W85925   0.451  37.546   2.877
19385W        W85926   2.257   9.283  13.397
19386W        W85927  19.740  24.241   4.945
19387W        W85928   0.835  10.596   2.382
19388W        W85929  21.578  44.992  10.680
19389W        W85930  22.136  40.592   4.748
19390W        W85931  17.528  17.822   3.171
19391W        W85932  17.269  43.266  14.380
19392W        W85933  28.889  20.188  11.859
19393W        W85934  19.195   7.500   0.570
19394W        W85935   7.131  10.693   2.823
19395W        W85936   6.448  17.594   1.409
19396W        W85937   0.232  42.987   0.788
19397W        W85938   5.038  10.263   4.417
19398W        W85939  17.322  25.068   4.216
19399W        W85940  32.764  39.314  10.749
19400W        W85941  13.211  15.111  11.220
19401W        W85942   5.126  25.710  10.767
19402W        W85943  30.389  42.886   5.066
19403W        W85944  30.133  16.593  14.522
19404W        W85945  20.645  17.856  14.984
19405W        W85946  34.631  39.338   3.139
19406W        W85947   1.749  11.794   3.031
19407W        W85948  36.764  20.012   2.168
19408W        W85949  42.512  11.461  10.419
19409W        W85950   0.222  28.558  13.943
19410W        W85951  41.099  43.450   3.534
19411W        W85952  42.886   1.984   4.223
19412W        W85953  31.746  14.605   3.510
19413W        W85954  44.517  27.049  10.974
19414W        W85955  13.847  38.844  10.743
19415W        W85956   7.184   0.682   3.719
19416W        W85957  39.390  28.237  10.792
19417W        W85958  43.438  11.768   0.736
19418W        W85959  42.889  43.402   0.258
19419W        W85960  17.486  26.190   3.316
19420W        W85961   9.432  44.265   0.835
19421W        W85962  36.558  20.321  12.135
19422W        W85963  40.289  31.586   0.712
19423W        W85964   6.104  44.408   2.887
19424W        W85965   9.331  41.437   2.132
19425W        W85966  31.449   6.132   3.064
19426W        W85967   4.365  32.347   4.490
19427W        W85968   8.584  28.478   3.398
19428W        W85969  34.149  10.379  14.499
19429W        W85970  16.504  30.222  11.648
19430W        W85971  41.752  41.126  11.053
19431W        W85972  12.932   9.432   1.390
19432W        W85973  30.849   5.349  11.153
19433W        W85974  16.265  44.757   4.629
19434W        W85975  23.847  43.926  14.587
19435W        W85976  40.138   5.410  14.875
19436W        W85977  31.353  14.304   3.128
19437W        W85978   6.141  22.323  11.611
19438W        W85979  42.530  22.218   4.895
19439W        W85980  25.591  34.015   4.373
19440W        W85981  31.600  19.880  13.556
19441W        W85982  21.177  15.800   2.234
19442W        W85983  20.610  14.690  11.634
19443W        W85984  22.058   6.737   2.748
19444W        W85985   4.385   7.446   0.745
19445W        W85986  32.959   8.278   1.750
19446W        W85987  40.580  39.942   0.481
19447W        W85988  38.028  20.558  12.945
19448W        W85989  16.711   1.371  11.620
19449W        W85990  24.108   0.902  11.722
19450W        W85991  41.746  21.997  14.832
19451W        W85992  15.347  18.632  11.132
19452W        W85993  34.408  26.529  11.960
19453W        W85994  40.002  29.990   3.233
19454W        W85995  24.052  13.651  13.041
19455W        W85996  16.529  21.275   3.245
19456W        W85997   4.668   5.627  13.765
19457W        W85998  30.770   5.436  13.355
19458W        W85999  42.463  15.729  12.103
19459W        W86000  37.348  18.699   4.338
19460W        W86001  35.034  39.926  13.041
19461W        W86002  42.917  12.293  12.659
19462W        W86003  43.458  32.884   3.337
19463W        W86004  32.856   2.634  12.070
19464W        W86005  40.598  37.627   0.548
19465W        W86006  10.708  26.968  12.366
19466W        W86007  43.408   8.603  12.436
19467W        W86008   0.605  25.423   0.279
19468W        W86009  24.566  36.380   4.511
19469W        W86010  42.391  35.961   4.041
19470W        W86011   3.503  14.216  13.744
19471W        W86012  42.903  30.143   0.473
19472W        W86013  34.401  12.157  14.389
19473W        W86014  24.576  18.500  11.976
19474W        W86015  25.104  26.618   3.382
19475W        W86016  39.039  35.034  12.449
19476W        W86017   7.100  38.006   4.944
19477W        W86018  14.360  16.343   2.318
19478W        W86019   6.388  30.744   1.162
19479W        W86020  24.034   9.192  13.324
19480W        W86021   1.746  22.215   0.858
19481W        W86022   8.401  11.092   0.509
19482W        W86023   8.606  34.202   3.233
19483W        W86024   7.003  43.839  12.093
19484W        W86025  12.708  11.622   2.372
19485W        W86026  12.122  44.364  12.297
19486W        W86027  23.804  14.132   0.020
19487W        W86028  41.452  23.691  13.380
19488W        W86029  38.394  27.054  10.961
19489W        W86030  25.670  20.210   0.745
19490W        W86031   1.584  44.346   5.002
19491W        W86032  37.054   5.710  10.355
19492W        W86033  11.947  17.369   4.178
19493W        W86034  11.434  43.016  13.152
19494W        W86035  26.288  11.850  10.758
19495W        W86036  39.596  39.205   4.240
19496W        W86037  34.412  20.756   3.194
19497W        W86038  10.246  18.577   3.569
19498W        W86039  21.782  17.564   9.832
19499W        W86040  35.129  35.993  12.643
19500W        W86041   9.385  12.667  13.455
19501W        W86042  42.607   5.575  11.548
19502W        W86043  11.780  12.795   3.998
19503W        W86044  17.520  11.506   2.653
19504W        W86045  12.660  12.814   4.387
19505W        W86046  16.224  38.886  10.715
19506W        W86047  43.504  25.564  10.594
19507W        W86048  40.562  41.996   1.901
19508W        W86049  42.447  37.487   2.140
19509W        W86050   0.885  13.271   0.780
19510W        W86051   7.614  18.298   4.004
19511W        W86052   1.821  16.200  13.683
19512W        W86053  23.228   9.305   3.722
19513W        W86054  36.916  21.818   1.364
19514W        W86055  37.082  10.426  14.468
19515W        W86056  35.183  35.902   2.466
19516W        W86057  42.537  39.926  13.517
19517W        W86058   1.962  21.495  14.011
19518W        W86059  12.830   3.360   3.807
19519W        W86060  31.458   1.269  14.951
19520W        W86061   4.665  36.915   0.156
19521W        W86062  37.386  24.504   3.553
19522W        W86063  13.419  32.848   2.796
19523W        W86064  42.391  40.274  13.886
19524W        W86065  40.869  36.934  11.517
19525W        W86066  37.484  22.993   5.020
19526W        W86067  26.609  27.713   0.302
19527W        W86068  15.680  21.717  12.100
19528W        W86069  17.733  24.579  12.865
19529W        W86070  16.230  26.183   1.946
19530W        W86071  35.450  44.945   4.324
19531W        W86072  43.712   6.200   4.679
19532W        W86073   2.381  15.406  14.795
19533W        W86074  11.790  37.391  13.567
19534W        W86075  17.138  14.656   3.612
19535W        W86076   2.953  25.004  13.046
19536W        W86077   6.659  23.016   4.000
19537W        W86078   0.901  19.244  12.515
19538W        W86079  43.522  26.957  11.137
19539W        W86080   9.706  16.649   3.946
19540W        W86081  28.425  34.912  14.036
19541W        W86082   5.074   6.356   4.499
19542W        W86083  25.133  41.579  13.938
19543W        W86084  16.154  10.721   2.168
19544W        W86085  30.440  14.822   1.359
19545W        W86086  35.779  10.827   4.624
19546W        W86087   9.211  44.988   2.359
19547W        W86088  20.980  13.345  14.411
19548W        W86089   2.664  37.928  11.132
19549W        W86090  29.881   8.160   1.873
19550W        W86091  26.130  39.033  13.442
19551W        W86092  36.889  31.474   3.036
19552W        W86093   8.378   1.657   3.701
19553W        W86094   8.241  36.576  13.988
19554W        W86095  38.530  28.762  11.655
19555W        W86096  19.612  13.808  12.556
19556W        W86097  13.101  22.514  11.127
19557W        W86098  44.297   2.753   2.000
19558W        W86099   7.327   7.668  11.962
19559W        W86100  12.863   1.932  13.877
19560W        W86101   2.377  37.799   3.844
19561W        W86102   0.710   0.601  11.764
19562W        W86103  12.166  28.565   0.596
19563W        W86104  23.792   9.350  14.942
19564W        W86105   1.386  30.845  14.510
19565W        W86106   3.267   2.961  12.551
19566W        W86107   4.730  39.820   2.317
19567W        W86108   1.976  15.774  14.879
19568W        W86109  38.559  44.964   1.550
19569W        W86110  42.384  17.078  13.782
19570W        W86111  18.125  15.249  12.599
19571W        W86112   1.353  41.081   2.194
19572W        W86113  17.190  10.855  11.751
19573W        W86114   8.276   1.299  10.629
19574W        W86115  11.004  38.513   0.851
19575W        W86116  14.681  34.857   4.347
19576W        W86117  13.717  39.532  13.039
19577W        W86118  30.173   0.456   2.421
19578W        W86119  18.960  25.005   1.281
19579W        W86120  17.132  16.707   1.871
19580W        W86121  36.246  31.013   4.111
19581W        W86122  27.331  25.898  11.241
19582W        W86123  42.931  19.166  11.073
19583W        W86124  36.490  35.549   1.750
19584W        W86125  12.127   3.432  12.003
19585W        W86126  37.839  10.233   9.723
19586W        W86127   6.628  37.000   4.189
19587W        W86128  25.825   9.173   0.378
19588W        W86129   1.990  18.214  11.502
19589W        W86130  22.608  44.034  11.707
19590W        W86131   2.260  41.500  12.100
19591W        W86132  26.023   5.620   2.313
19592W        W86133  22.090  30.055   1.444
19593W        W86134  13.617  32.434   1.367
19594W        W86135  19.744   9.782  13.299
19595W        W86136  23.001  24.811   3.678
19596W        W86137  36.908   2.934   4.551
19597W        W86138  39.307  15.324   1.689
19598W        W86139   0.327   4.680   4.665
19599W        W86140  15.398  26.006   1.016
19600W        W86141   4.790  15.714   2.811
19601W        W86142  11.747   8.767  12.362
19602W        W86143  27.484  15.307  13.890
19603W        W86144  10.287   6.985  10.927
19604W        W86145  32.594  22.736   2.410
19605W        W86146   4.235  24.547   1.129
19606W        W86147  35.572  36.292   0.845
19607W        W86148  18.090  43.901  14.828
19608W        W86149  35.538  16.138   4.441
19609W        W86150  42.763  10.456   1.357
19610W        W86151  29.742  29.573  11.228
19611W        W86152   6.355  19.895   0.097
19612W        W86153  40.162  17.647  13.128
19613W        W86154   7.454  19.723  13.025
19614W        W86155  12.890  30.352   3.312
19615W        W86156  17.333   6.821   4.312
19616W        W86157  17.583   6.385  14.835
19617W        W86158  23.993   9.676  13.037
19618W        W86159  38.207  13.285   3.700
19619W        W86160  25.455  24.659  13.851
19620W        W86161   8.219  18.208   2.879
19621W        W86162  14.138  42.900  13.635
19622W        W86163   2.454  26.806   1.971
19623W        W86164  33.171  38.804   4.919
19624W        W86165   7.471   1.486   2.455
19625W        W86166  19.682   4.506  14.317
19626W        W86167   2.034  20.764   2.513
19627W        W86168   2.638  22.120   2.736
19628W        W86169   7.035  11.556  11.167
19629W        W86170  22.067  11.350  14.726
19630W        W86171  18.220  44.583   4.206
19631W        W86172   5.370  16.617   1.717
19632W        W86173  37.134  24.204   0.852
19633W        W86174   7.012  20.275  11.847
19634W        W86175   4.734  40.251  12.343
19635W        W86176  24.931  18.180   4.630
19636W        W86177   8.590  36.880  10.274
19637W        W86178  26.785  16.126   0.844
19638W        W86179  35.203  35.481  12.794
19639W        W86180  33.016  25.036   1.048
19640W        W86181  14.579  24.071  11.883
19641W        W86182  18.565   1.404  12.937
19642W        W86183  19.601  25.281  12.079
19643W        W86184  14.238  27.160   0.484
19644W        W86185  37.926  37.088   4.773
19645W        W86186  21.360  25.377  10.911
19646W        W86187  16.330   6.179   4.504
19647W        W86188  10.003  31.838  12.443
19648W        W86189  11.162   6.245   1.169
19649W        W86190  35.540  24.487   1.648
19650W        W86191  16.774  17.798  11.174
19651W        W86192  24.093  14.093  10.929
19652W        W86193  39.134  11.285   1.230
19653W        W86194  25.785   7.951  11.094
19654W        W86195  12.317  29.052  13.564
19655W        W86196  19.849  22.817   0.362
19656W        W86197  44.321  26.727  14.272
19657W        W86198   9.674   8.215  14.406
19658W        W86199  36.888  27.535  11.667
19659W        W86200  10.299  19.122  13.876
19660W        W86201   9.971  42.666  13.945
19661W        W86202  20.574  16.825   0.732
19662W        W86203  32.479  21.987  14.084
19663W        W86204  12.341  29.028   0.411
19664W        W86205  17.789  44.957  11.645
19665W        W86206  43.300  29.242   1.486
19666W        W86207  20.373   6.246   1.420
19667W        W86208  42.971  10.220  13.499
19668W        W86209   4.564   2.003  12.903
19669W        W86210  33.640   0.444   5.024
19670W        W86211   8.207  19.381   0.669
19671W        W86212   9.385   9.092  10.478
19672W        W86213  19.347  19.154   4.856
19673W        W86214   2.312  24.966  12.510
19674W        W86215  40.415  23.014   4.588
19675W        W86216  28.582  17.249  12.654
19676W        W86217   5.406  16.334   0.351
19677W        W86218   9.116   4.276  11.135
19678W        W86219  41.512   5.151  13.584
19679W        W86220  14.157  16.235   1.855
19680W        W86221  14.586  28.686   4.541
19681W        W86222  39.211   1.466   3.598
19682W        W86223  22.704  15.179  10.490
19683W        W86224  16.653  20.251   1.931
19684W        W86225  34.845  21.737   3.127
19685W        W86226  34.358   0.009   3.191
19686W        W86227  18.303  33.029  12.818
19687W        W86228  37.607   8.234   3.654
19688W        W86229   7.852  38.273  11.438
19689W        W86230  33.629   5.034   2.814
19690W        W86231  12.071  28.652  13.750
19691W        W86232  36.809  26.643   3.617
19692W        W86233  41.004  15.200  13.361
19693W        W86234  41.337   5.739  11.399
19694W        W86235   4.113  18.265  12.891
19695W        W86236  26.147  19.215   3.442
19696W        W86237   6.734   1.716   1.959
19697W        W86238  24.489  32.479  11.410
19698W        W86239  14.717  21.284   0.020
19699W        W86240   3.362  12.429   0.334
19700W        W86241   6.941  41.934   4.136
19701W        W86242  17.006   0.395   1.674
19702W        W86243  11.108  33.600   3.588
19703W        W86244   5.998  25.544   3.258
19704W        W86245  39.073  34.104   3.892
19705W        W86246  13.606  35.864  12.557
19706W        W86247  36.541  35.839   0.752
19707W        W86248  39.008  25.734   0.855
19708W        W86249  36.141  25.619  11.652
19709W        W86250  23.538  13.388  14.395
19710W        W86251  17.518  24.459  12.420
19711W        W86252  35.002  24.310   2.599
19712W        W86253  36.820  22.563  12.525
19713W        W86254  12.380  37.148   2.197
19714W        W86255   0.963   8.850   3.704
19715W        W86256  44.705  38.565  12.988
19716W        W86257  40.280   6.302   4.676
19717W        W86258  14.655  19.030  12.916
19718W        W86259  23.532   4.262   1.353
19719W        W86260   1.328  34.345   3.461
19720W        W86261  41.376   8.908  11.642
19721W        W86262  19.557  30.627  12.564
19722W        W86263   4.461  39.128  14.902
19723W        W86264   1.110   4.628   3.670
19724W        W86265  19.351  18.684   3.779
19725W        W86266  43.703   3.934  14.708
19726W        W86267  40.105  25.632  13.333
19727W        W86268  22.597  11.843  12.541
19728W        W86269  16.151  18.142   0.321
19729W        W86270  38.422  19.222  10.735
19730W        W86271  27.059  32.425  14.247
19731W        W86272  12.347  22.192   3.165
19732W        W86273  29.523  38.771   3.215
19733W        W86274  11.095  40.012  12.249
19734W        W86275   2.938  33.038   0.469
19735W        W86276  11.420  36.967  12.556
19736W        W86277  17.104  26.690  14.946
19737W        W86278  41.010  40.767   4.107
19738W        W86279   0.139  19.729  12.409
19739W        W86280  18.339  30.165   0.298
19740W        W86281  15.997  17.268   0.924
19741W        W86282   3.112  11.366  11.183
19742W        W86283  24.605   0.718  14.382
19743W        W86284   6.778  22.512   1.839
19744W        W86285   8.652   6.085   0.847
19745W        W86286   9.853  20.809  14.886
19746W        W86287  13.905  40.757  14.505
19747W        W86288  30.980  40.012  14.516
19748W        W86289  19.649  22.994   0.804
19749W        W86290  28.259  12.022   3.717
19750W        W86291  31.959  37.554  13.590
19751W        W86292  21.765  15.383  10.586
19752W        W86293  17.357  28.889  11.091
19753W        W86294   5.859  12.078  11.137
19754W        W86295  14.501  35.356   2.178
19755W        W86296   7.246  20.230  14.746
19756W        W86297   1.111  42.227   1.207
19757W        W86298   2.798   0.510   3.443
19758W        W86299  15.793  15.629   2.741
19759W        W86300  31.795  13.869   0.282
19760W        W86301   4.296  11.493  11.585
19761W        W86302  19.724  25.108   2.277
19762W        W86303  31.759  30.594   2.737
19763W        W86304  44.674   2.555  10.670
19764W        W86305  20.722  34.276  11.534
19765W        W86306  40.570  44.188  12.932
19766W        W86307   6.309   1.039  12.637
19767W        W86308  25.733  32.126   0.991
19768W        W86309  15.191  39.324   0.755
19769W        W86310  20.756  16.107  13.486
19770W        W86311  18.534  22.880   1.238
19771W        W86312   5.894  25.794  14.390
19772W        W86313  20.003   9.901  12.855
19773W        W86314  30.348  21.213   4.147
19774W        W86315  13.412  19.745  10.532
19775W        W86316  10.280  18.789   4.543
19776W        W86317  32.321  17.096   1.133
19777W        W86318  35.991  14.195  14.550
19778W        W86319  19.720   4.737  11.665
19779W        W86320  16.592  40.477  11.985
19780W        W86321   0.343  14.159  14.480
19781W        W86322  22.679  41.366  13.157
19782W        W86323   5.362  36.974   2.318
19783W        W86324   7.136  37.933   1.806
19784W        W86325   3.399  21.282   4.269
19785W        W86326  20.559   7.846   0.930
19786W        W86327  17.846  42.487  12.434
19787W        W86328  21.139   8.282  10.885
19788W        W86329  32.558  13.832  11.273
19789W        W86330  34.532  41.885   0.259
19790W        W86331  15.243  44.419  14.013
19791W        W86332   2.646  43.047   4.715
19792W        W86333   6.196  40.370   3.625
19793W        W86334  42.047   6.492   2.608
19794W        W86335  13.866  17.730   2.365
19795W        W86336  35.807   4.362   4.568
19796W        W86337  28.454  10.220   2.727
19797W        W86338  11.819   4.909   2.898
19798W        W86339   4.297  23.573   5.383
19799W        W86340  26.802  26.575  14.928
19800W        W86341   1.295  42.401  11.044
19801W        W86342  15.212  42.991  14.282
19802W        W86343   8.734  30.503   1.476
19803W        W86344   0.235  43.915  12.077
19804W        W86345  11.658  31.923   0.416
19805W        W86346  44.330  13.139   0.378
19806W        W86347  14.567   1.765   2.038
19807W        W86348  42.468  30.912  12.719
19808W        W86349  33.518  32.482  11.579
19809W        W86350   9.432  38.800  12.291
19810W        W86351  29.349  33.820  12.111
19811W        W86352   0.860   0.517   1.347
19812W        W86353   2.740  18.827  10.977
19813W        W86354  24.018  41.530   0.903
19814W        W86355  18.516  25.093  10.504
19815W        W86356  39.082   3.507   3.638
19816W        W86357  34.754  19.223   3.999
19817W        W86358  18.622  44.177   5.346
19818W        W86359  13.042  38.948   1.877
19819W        W86360  44.339  11.826   1.284
19820W        W86361  20.155  17.225  11.569
19821W        W86362  22.590  28.663  14.286
19822W        W86363  38.200  31.301  14.777
19823W        W86364   6.106   5.880   2.763
19824W        W86365  11.925  16.990  11.418
19825W        W86366  32.626  27.760   0.327
19826W        W86367   6.270   0.292   0.532
19827W        W86368   8.458  41.283   3.180
19828W        W86369  35.068  25.338   4.536
19829W        W86370   5.939  15.030   0.121
19830W        W86371   6.945  26.693   2.434
19831W        W86372  16.612  39.384  13.571
19832W        W86373  40.049  11.895   4.956
19833W        W86374  38.750   3.149  12.894
19834W        W86375   1.480   2.386  13.098
19835W        W86376  35.980  32.020   2.667
19836W        W86377  21.454  16.851   0.171
19837W        W86378  19.717  35.038   4.506
19838W        W86379  41.828  43.064   1.748
19839W        W86380   2.185  11.641  12.635
19840W        W86381  42.578   7.453   3.651
19841W        W86382  35.640   5.764   0.495
19842W        W86383  42.967  17.602  14.190
19843W        W86384  43.619  41.098   4.593
19844W        W86385   9.971   8.828  12.995
19845W        W86386   8.203  29.277   1.960
19846W        W86387  42.477  13.538  12.663
19847W        W86388  29.445  20.251  10.755
19848W        W86389   3.149  16.905  12.433
19849W        W86390  20.264  43.901  11.193
19850W        W86391  13.561  21.605   1.294
19851W        W86392  43.236  12.666   1.785
19852W        W86393  29.931   0.670   1.396
19853W        W86394   0.779   1.575  13.896
19854W        W86395  42.122  39.208   1.188
19855W        W86396  35.621  10.738   0.936
19856W        W86397  22.498  20.153   0.662
19857W        W86398  39.952   7.048  13.467
19858W        W86399   4.777   8.426   2.561
19859W        W86400   6.929   6.304  11.105
19860W        W86401   4.895  26.360   3.536
19861W        W86402  18.436   2.791   4.325
19862W        W86403  36.395   8.148   2.255
19863W        W86404  15.697  25.081   4.495
19864W        W86405   7.718  25.974   5.000
19865W        W86406  23.475  43.393  13.465
19866W        W86407  32.561  25.054   0.759
19867W        W86408  36.482  15.020  13.059
19868W        W86409  41.526  25.481  10.516
19869W        W86410  11.787  27.762  13.432
19870W        W86411  31.797  24.073   5.013
19871W        W86412  34.981  13.893   2.298
19872W        W86413  13.944   3.678   0.862
19873W        W86414   9.845  10.422   0.832
19874W        W86415  24.338  33.847   3.673
19875W        W86416   0.489   3.685  12.931
19876W        W86417  19.120  35.554   3.268
19877W        W86418  31.922  34.508  12.164
19878W        W86419  31.395  17.595  13.597
19879W        W86420   1.591   6.286  11.141
19880W        W86421  15.567  19.775  13.429
19881W        W86422   8.201  41.905   1.472
19882W        W86423   5.087  29.165   0.832
19883W        W86424  10.729  23.291   3.814
19884W        W86425   4.885  24.056  11.300
19885W        W86426  19.305  12.420   4.896
19886W        W86427  27.600  26.153  14.448
19887W        W86428  12.180  17.010   1.417
19888W        W86429  34.796  31.431  12.125
19889W        W86430  11.600  26.539  11.677
19890W        W86431  40.971   6.083  11.538
19891W        W86432   0.471  10.196   2.792
19892W        W86433  19.650   2.788   2.374
19893W        W86434   3.144  15.895   1.652
19894W        W86435  20.272   2.067  13.326
19895W        W86436   4.934   0.597   0.489
19896W        W86437  13.546   5.805   2.701
19897W        W86438  15.001  17.866  14.801
19898W        W86439  33.108  32.192   0.277
19899W        W86440   0.376  17.266   1.478
19900W        W86441   3.978  38.495  12.117
19901W        W86442  39.242  13.235   1.489
19902W        W86443  29.651  26.771   0.205
19903W        W86444  25.712   9.176  12.070
19904W        W86445  33.504   3.725  14.470
19905W        W86446  33.462   8.706   4.474
19906W        W86447   2.146  39.984   3.778
19907W        W86448   2.428  12.810  11.053
19908W        W86449  24.083  44.759   3.393
19909W        W86450  22.706  40.100   3.809
19910W        W86451   5.276  35.421  14.717
19911W        W86452   2.493  41.976  12.260
19912W        W86453  23.610  44.968   3.351
19913W        W86454  17.361  31.061  13.308
19914W        W86455   1.101  16.633   2.802
19915W        W86456  31.611  40.712   0.012
19916W        W86457  33.090  21.657   1.008
19917W        W86458  13.228   4.924   4.366
19918W        W86459  19.056   5.444   2.596
19919W        W86460  21.883  19.830   0.285
19920W        W86461  29.016  21.198  14.906
19921W        W86462  26.560  20.042  12.572
19922W        W86463  36.338  18.521   1.633
19923W        W86464  13.805   4.522   0.451
19924W        W86465  23.649  43.928   4.765
19925W        W86466  30.090  19.760   2.323
19926W        W86467  37.493  39.889  13.525
19927W        W86468  14.641  17.092   2.404
19928W        W86469  24.477   4.010   2.128
19929W        W86470  12.631   1.175   1.334
19930W        W86471  28.949  10.839  14.686
19931W        W86472  35.000  16.693  10.591
19932W        W86473  33.619  44.929  11.758
19933W        W86474   2.825  17.695   2.317
19934W        W86475   7.496   6.673  10.224
19935W        W86476  17.349   7.074  13.894
19936W        W86477   1.254  30.865  11.414
19937W        W86478   6.178  28.409  14.515
19938W        W86479   4.431  21.374  12.926
19939W        W86480   9.338   8.320  14.792
19940W        W86481  42.253  15.829   1.235
19941W        W86482  44.811   8.568   3.072
19942W        W86483  44.442  28.132  12.482
19943W        W86484  26.298  44.344   2.655
19944W        W86485  34.005  16.382   1.816
19945W        W86486  31.126  21.271   3.840
19946W        W86487  11.303  21.188   4.708
19947W        W86488  33.915   8.855  14.451
19948W        W86489  33.080  23.713  11.540
19949W        W86490   9.587  12.764   4.626
19950W        W86491  16.344  32.353  13.055
19951W        W86492  17.540  39.626  13.904
19952W        W86493  38.403  20.295   3.742
19953W        W86494   4.806  12.209   3.350
19954W        W86495  43.914  15.015   5.558
19955W        W86496   8.778  26.065   2.776
19956W        W86497  22.256  25.504   3.206
19957W        W86498   7.768  43.573  11.558
19958W        W86499   6.765  27.999   1.853
19959W        W86500  39.089  36.854   2.315
19960W        W86501  32.097  36.868   0.636
19961W        W86502  10.696  31.400   0.985
19962W        W86503  21.778  22.236   3.668
19963W        W86504  12.291  34.935  10.942
19964W        W86505   5.289  35.688  11.952
19965W        W86506  40.976  11.851   3.542
19966W        W86507  15.346   5.727   2.378
19967W        W86508  24.102  40.058   0.283
19968W        W86509  13.575  15.888  14.413
19969W        W86510  31.983  19.201  14.504
19970W        W86511  32.834  23.243   3.146
19971W        W86512  34.620   5.256  14.344
19972W        W86513  42.293  28.897   4.587
19973W        W86514  12.845   8.720   0.820
19974W        W86515  12.680  11.038  11.445
19975W        W86516   5.165  40.117   2.234
19976W        W86517  36.936  23.160  12.017
19977W        W86518  16.706  44.003  13.490
19978W        W86519  29.637  20.437   1.978
19979W        W86520  19.687  29.065   0.382
19980W        W86521  19.615   8.838  14.054
19981W        W86522   8.379  32.616   3.689
19982W        W86523  32.838  19.554   4.963
19983W        W86524  41.107  20.223   3.238
19984W        W86525  17.357  31.419   2.464
19985W        W86526  22.226  26.152   3.737
19986W        W86527  44.750  11.863  13.344
19987W        W86528   1.806  25.069   2.628
19988W        W86529   7.316  40.255   1.286
19989W        W86530   6.349   5.972  12.355
19990W        W86531  14.859  39.750   0.906
19991W        W86532  29.096  13.971   4.499
19992W        W86533  16.634  21.446  12.937
19993W        W86534  27.206   6.180  12.543
19994W        W86535  24.964  39.502  11.583
19995W        W86536   2.716   8.868  11.462
19996W        W86537  18.039  30.604   0.087
19997W        W86538   2.336  15.449   3.720
19998W        W86539   0.425  13.743   2.906
19999W        W86540  30.958   6.280   1.784
20000W        W86541  41.693   6.159   5.099
20001W        W86542  40.872  23.164  12.822
20002W        W86543   6.814  37.164  12.513
20003W        W86544  20.858   6.411  13.787
20004W        W86545  14.211  33.341   2.129
20005W        W86546  42.030  35.475  11.070
20006W        W86547  25.763  36.922   4.166
20007W        W86548  10.716  13.221  14.488
20008W        W86549  32.065  27.084  14.576
20009W        W86550  33.541  20.094   2.409
20010W        W86551  30.086  19.369   3.280
20011W        W86552  26.099  20.509  13.321
20012W        W86553  17.016  35.778   2.865
20013W        W86554  26.909  31.705   4.360
20014W        W86555  23.064  11.773  12.303
20015W        W86556  27.447   8.091  12.589
20016W        W86557  38.431   3.694  13.551
20017W        W86558  36.591  31.483  11.601
20018W        W86559  21.649  23.977   2.754
20019W        W86560   0.760  19.900   2.175
20020W        W86561  26.187   2.544  14.325
20021W        W86562  15.836  32.016  11.526
20022W        W86563  12.252  25.167  12.887
20023W        W86564  21.165  29.411  10.917
20024W        W86565  33.706   9.500   1.697
20025W        W86566  10.705  39.814  11.994
20026W        W86567  13.809  15.198  12.369
20027W        W86568   8.102   1.354  13.416
20028W        W86569  21.824  43.260   4.040
20029W        W86570  29.728  13.269   0.845
20030W        W86571  24.107  27.489   4.612
20031W        W86572  18.025  23.701   0.293
20032W        W86573  35.793  30.548  13.988
20033W        W86574  44.232  29.040   3.950
20034W        W86575   0.138  18.979   0.928
20035W        W86576  31.913  15.980   3.571
20036W        W86577  26.045  11.695   0.928
20037W        W86578  24.152   1.459   0.890
20038W        W86579  22.782  32.108   2.800
20039W        W86580  28.417  26.714   0.264
20040W        W86581   9.975  36.456  12.632
20041W        W86582  17.116   3.459  11.114
20042W        W86583   3.236  26.654   4.525
20043W        W86584   5.754  29.860  12.403
20044W        W86585  13.440  43.888   0.292
20045W        W86586  16.646   3.730  13.923
20046W        W86587   6.903  42.277   3.712
20047W        W86588  41.253  39.481   2.933
20048W        W86589  13.260  13.034   3.668
20049W        W86590   5.657  38.927   1.979
20050W        W86591   2.481  32.395   3.089
20051W        W86592  19.121   6.557   3.590
20052W        W86593   7.588  17.092   4.694
20053W        W86594   6.852   0.997   4.450
20054W        W86595  31.497  34.493   0.946
20055W        W86596  27.662   2.882  13.809
20056W        W86597  22.551  44.748  14.770
20057W        W86598  29.133  25.891   0.381
20058W        W86599   5.060  32.510  10.934
20059W        W86600  15.710   7.780   4.351
20060W        W86601  44.495  29.354  13.408
20061W        W86602  37.431  36.968   4.639
20062W        W86603  13.560  27.696   2.618
20063W        W86604  27.223  42.510  11.642
20064W        W86605   7.323  43.978   3.154
20065W        W86606   6.883  20.187  12.321
20066W        W86607  38.764   5.458   2.679
20067W        W86608  43.093   1.086   2.767
20068W        W86609  16.604  27.453  13.234
20069W        W86610  24.682  40.422  12.399
20070W        W86611  30.043  13.839  11.704
20071W        W86612  34.314  14.685   1.383
20072W        W86613  21.521  26.549  12.998
20073W        W86614  24.891   0.002  14.802
20074W        W86615  13.061  40.332   1.755
20075W        W86616  37.167  29.846   1.012
20076W        W86617   6.720  29.695   4.051
20077W        W86618  27.144  34.219  12.105
20078W        W86619  31.780  43.767  11.480
20079W        W86620  15.564  18.430  14.397
20080W        W86621  32.225   0.440  12.158
20081W        W86622  30.505  11.710   9.816
20082W        W86623  25.136  21.486  14.350
20083W        W86624  21.503  25.933   4.218
20084W        W86625  21.387   9.124  11.562
20085W        W86626  28.000  42.757   3.009
20086W        W86627  12.752   7.901  11.108
20087W        W86628  11.513  14.916  11.682
20088W        W86629  11.368  15.832  10.284
20089W        W86630  12.331  40.441  12.332
20090W        W86631  27.918  25.145   1.686
20091W        W86632  43.204  16.553  14.328
20092W        W86633  34.752  24.938  13.845
20093W        W86634  29.011  12.237   4.812
20094W        W86635  15.107   3.006  14.207
20095W        W86636  39.236  41.240  12.551
20096W        W86637  36.558  20.297   0.375
20097W        W86638  44.377  27.134   2.099
20098W        W86639   0.000  16.113  14.382
20099W        W86640   6.545  26.273   3.515
20100W        W86641  28.169   3.668  14.354
20101W        W86642  16.807  31.594   2.196
20102W        W86643   5.320  28.545   3.302
20103W        W86644  17.353   0.268   0.282
20104W        W86645  14.924  10.320   2.813
20105W        W86646  17.301  42.092  13.860
20106W        W86647  11.815  39.938  10.204
20107W        W86648  26.774  27.915  13.860
20108W        W86649  23.224  19.177   3.819
20109W        W86650  16.718  19.585  14.327
20110W        W86651  21.611  28.428  10.789
20111W        W86652  21.700   1.508  10.802
20112W        W86653  11.637  30.791  12.806
20113W        W86654  40.200  30.632  10.376
20114W        W86655   3.804  13.743   3.305
20115W        W86656  13.176  10.085   2.781
20116W        W86657  29.611  13.540  14.434
20117W        W86658  30.737  44.765   0.937
20118W        W86659  14.165  14.306  10.765
20119W        W86660  16.798  33.655  14.440
20120W        W86661   5.114  14.322   1.816
20121W        W86662  38.002  13.865   0.313
20122W        W86663  19.183  16.433   5.023
20123W        W86664   7.336  16.121  12.069
20124W        W86665  18.945  36.613   4.002
20125W        W86666  30.754  23.205   1.234
20126W        W86667  16.695  27.481   2.448
20127W        W86668  16.055  37.624   3.295
20128W        W86669  16.247  31.973   2.027
20129W        W86670  26.519   5.084   4.174
20130W        W86671  20.541   3.832  13.819
20131W        W86672   3.142  42.471   0.199
20132W        W86673  29.486  43.568  10.417
20133W        W86674  29.390   6.695   0.344
20134W        W86675   0.140  39.461   0.499
20135W        W86676  15.533  25.655   3.255
20136W        W86677   0.472   1.775  11.381
20137W        W86678  20.221  21.488   2.888
20138W        W86679   8.743  44.502   0.277
20139W        W86680  21.950   7.223   0.117
20140W        W86681  34.205  19.721  10.549
20141W        W86682   9.765   1.759   3.794
20142W        W86683  32.518   7.226   4.042
20143W        W86684  14.993   4.443   2.202
20144W        W86685  31.452  15.651   1.425
20145W        W86686  12.563  40.429   0.029
20146W        W86687  34.104  30.713   0.302
20147W        W86688  13.600  35.943   2.859
20148W        W86689  39.194   8.801  10.711
20149W        W86690  21.716  14.279   1.809
20150W        W86691   7.630  10.373   0.332
20151W        W86692   7.222  14.813   0.311
20152W        W86693  25.637  17.810   1.389
20153W        W86694  12.195  10.452   1.670
20154W        W86695  42.018  11.437  12.055
20155W        W86696   3.744   9.797  12.485
20156W        W86697  31.880  44.847   2.354
20157W        W86698  24.034  33.126   1.076
20158W        W86699  19.073  30.719  12.915
20159W        W86700  32.020  27.381   4.598
20160W        W86701  14.150  18.139  14.412
20161W        W86702   8.749  16.528   4.216
20162W        W86703   7.543  27.866   0.469
20163W        W86704  12.071  40.238   1.938
20164W        W86705   5.233  15.288  13.979
20165W        W86706  14.387  28.400  11.179
20166W        W86707  15.230   9.692  14.269
20167W        W86708  31.676  42.496   4.328
20168W        W86709  10.620  12.273  13.108
20169W        W86710  22.027  13.122  11.218
20170W        W86711   3.090  39.110  12.141
20171W        W86712   0.713  11.122  10.653
20172W        W86713  22.671  26.389   4.528
20173W        W86714  37.027  14.263   3.241
20174W        W86715  38.971   4.881   4.065
20175W        W86716   7.108   7.246  10.964
20176W        W86717  10.606  19.038   4.153
20177W        W86718  32.394   3.592   4.560
20178W        W86719  23.629  25.392   2.866
20179W        W86720  44.476  15.724  14.833
20180W        W86721  13.274  16.740  14.539
20181W        W86722  44.742  33.039  13.370
20182W        W86723  33.208  34.432   0.569
20183W        W86724   4.947   3.425  14.326
20184W        W86725  36.469  15.768   1.013
20185W        W86726   8.119  10.618  14.210
20186W        W86727   1.735   6.446   2.599
20187W        W86728  29.424  19.765  14.789
20188W        W86729  36.913  16.834  12.564
20189W        W86730   5.315  18.230   5.107
20190W        W86731  24.002   9.150  12.811
20191W        W86732  11.217   6.746   0.953
20192W        W86733  41.888  12.374  14.486
20193W        W86734   9.455   8.843  11.281
20194W        W86735  30.830  23.704   1.176
20195W        W86736  24.041  16.823   1.016
20196W        W86737   2.546  15.954  13.733
20197W        W86738  37.035   9.874   0.984
20198W        W86739  37.124  27.703  11.241
20199W        W86740  41.818  15.122  13.955
20200W        W86741  17.071   1.386  14.047
20201W        W86742   9.271  13.590  11.075
20202W        W86743   2.821  42.680   1.692
20203W        W86744  20.596   4.591  14.304
20204W        W86745  15.486  12.770   4.815
20205W        W86746   7.407   4.436  14.842
20206W        W86747  28.856   7.708   1.349
20207W        W86748   1.662  30.113  10.209
20208W        W86749  24.056  26.584  13.909
20209W        W86750  17.549  30.540  11.597
20210W        W86751  30.735   9.333   2.217
20211W        W86752   1.343  26.621   3.285
20212W        W86753  26.244  35.964  14.898
20213W        W86754  16.081  37.274   4.118
20214W        W86755  29.343   4.479   2.263
20215W        W86756  27.597  32.884   1.895
20216W        W86757   1.424  18.679   3.703
20217W        W86758  44.659   4.359   0.873
20218W        W86759  37.831  44.504   1.883
20219W        W86760  31.693  32.028   2.275
20220W        W86761  27.205   9.358   1.818
20221W        W86762  18.811  33.058   4.739
20222W        W86763  43.271   3.322  11.691
20223W        W86764  34.763   9.078  13.342
20224W        W86765  41.632   2.013   3.239
20225W        W86766  14.165  13.604  11.594
20226W        W86767   1.553  36.587  11.872
20227W        W86768  37.525  35.661   3.665
20228W        W86769  15.181   4.186   1.223
20229W        W86770  28.017   1.890   3.933
20230W        W86771   3.813  42.946   2.717
20231W        W86772  13.914  24.758   4.498
20232W        W86773  26.195  28.991  11.478
20233W        W86774  11.779  38.635   5.003
20234W        W86775   7.661  12.211  12.400
20235W        W86776  25.190   7.674   3.412
20236W        W86777  31.727  31.722   0.856
20237W        W86778  10.221  41.764   1.887
20238W        W86779   1.274  26.868  12.381
20239W        W86780  31.500  12.818   3.248
20240W        W86781  40.374   0.544  11.327
20241W        W86782   9.416   8.404   0.292
20242W        W86783  44.727  13.012  11.939
20243W        W86784  24.861  19.475  12.730
20244W        W86785  34.203   7.719  13.980
20245W        W86786  14.173  18.098   0.433
20246W        W86787  33.431  33.955   0.686
20247W        W86788   8.942  34.438   0.349
20248W        W86789  36.474  15.568  10.607
20249W        W86790   9.466   8.723   4.036
20250W        W86791  16.247  29.630   2.342
20251W        W86792  24.426  16.608   2.683
20252W        W86793  43.059   9.804   2.338
20253W        W86794   7.972  30.390  10.228
20254W        W86795  17.847   7.880   2.411
20255W        W86796  16.346   8.802  12.433
20256W        W86797   1.232   4.272   3.302
20257W        W86798  31.833  17.424   1.684
20258W        W86799  40.440   6.324  10.523
20259W        W86800  13.732  36.024   0.871
20260W        W86801   4.408  27.168  10.692
20261W        W86802  35.607  25.625   0.823
20262W        W86803  26.963   8.216   2.614
20263W        W86804  31.800   0.782   4.146
20264W        W86805  28.505  25.651  14.545
20265W        W86806  14.589  41.771  12.084
20266W        W86807  12.840  42.066   3.979
20267W        W86808  36.641  28.007  11.798
20268W        W86809  34.363  40.066   1.839
20269W        W86810   1.694   7.333   0.983
20270W        W86811  16.332  34.750   0.101
20271W        W86812  29.548  27.646  12.450
20272W        W86813  42.027  43.795   1.366
20273W        W86814  24.991  14.153   0.786
20274W        W86815  35.895  21.597  11.929
20275W        W86816  11.617  12.054  12.949
20276W        W86817  37.348  25.582  12.978
20277W        W86818  38.447   7.323  12.510
20278W        W86819   3.777   6.396   0.294
20279W        W86820  14.757  39.568   2.319
20280W        W86821  28.446  10.893  13.012
20281W        W86822  36.335  17.163   2.736
20282W        W86823  12.749  11.885  13.962
20283W        W86824  19.379  39.528   4.245
20284W        W86825  41.772   7.138   4.148
20285W        W86826  40.063  10.310  13.946
20286W        W86827   8.380  36.424   4.233
20287W        W86828  28.962  39.806   1.356
20288W        W86829  15.335  31.690  10.695
20289W        W86830  17.217  30.457   4.583
20290W        W86831  43.378  24.976  13.373
20291W        W86832  33.115   4.521  13.313
20292W        W86833   6.245  38.498  10.133
20293W        W86834  12.125   6.504   0.867
20294W        W86835  28.867  43.965   1.487
20295W        W86836   5.330   3.200   1.282
20296W        W86837  20.422   1.401  12.105
20297W        W86838  36.170  38.650   4.200
20298W        W86839   1.379  26.605   2.763
20299W        W86840  12.155  40.823  13.693
20300W        W86841  19.273   8.305  13.068
20301W        W86842   0.097  24.023   5.058
20302W        W86843  39.060  12.805   2.706
20303W        W86844  19.122  33.061   0.255
20304W        W86845  42.337  23.106   4.666
20305W        W86846  11.158  17.050  14.464
20306W        W86847  23.006  12.870  13.871
20307W        W86848   7.406  32.847  11.283
20308W        W86849   8.421  29.473  10.899
20309W        W86850  23.305  44.054  12.872
20310W        W86851  40.772  20.637   0.988
20311W        W86852   3.794  37.153  11.545
20312W        W86853  43.737  41.004   2.196
20313W        W86854  21.093  27.301  11.659
20314W        W86855   0.366  30.645   0.028
20315W        W86856   8.754  34.628   1.726
20316W        W86857  34.615  38.167   4.311
20317W        W86858  17.647   4.558   0.497
20318W        W86859   5.183   6.377  11.052
20319W        W86860  40.508  36.144  12.115
20320W        W86861  31.355  19.039  11.050
20321W        W86862   0.606  27.076   2.731
20322W        W86863  34.632   9.022   0.977
20323W        W86864   0.026  34.059  13.979
20324W        W86865   5.891   9.322   2.925
20325W        W86866   1.017  16.114  11.054
20326W        W86867  13.771   9.664  13.901
20327W        W86868  25.970  24.690   1.840
20328W        W86869   8.337  20.698   1.518
20329W        W86870  25.403  26.134   5.161
20330W        W86871   2.907   4.699  14.779
20331W        W86872   0.310  15.640   3.268
20332W        W86873  32.257   5.345  10.676
20333W        W86874  43.914  27.684   2.201
20334W        W86875  31.677   6.372  14.111
20335W        W86876  18.295  25.171   1.811
20336W        W86877  21.540  33.004  13.420
20337W        W86878  31.810  19.479   4.924
20338W        W86879  13.192  40.831   1.865
20339W        W86880  12.208  42.766   1.001
20340W        W86881  10.707  26.636  10.724
20341W        W86882  22.093   1.546   4.936
20342W        W86883   2.456  15.758  11.183
20343W        W86884  38.046  43.903   4.475
20344W        W86885  14.686  39.467  14.546
20345W        W86886  27.444   5.912  13.551
20346W        W86887  37.869   8.672   3.671
20347W        W86888  31.601  10.431   4.245
20348W        W86889  35.920   9.823   3.932
20349W        W86890  14.230  38.013  13.427
20350W        W86891   5.294   6.683  10.643
20351W        W86892   5.446  41.446  11.519
20352W        W86893  17.777  19.513  14.292
20353W        W86894  15.155   7.284  14.795
20354W        W86895  35.495  33.341  14.470
20355W        W86896  25.082  36.266  11.026
20356W        W86897  44.360  43.783  11.914
20357W        W86898  26.998  11.772   0.843
20358W        W86899   1.791  25.755   3.230
20359W        W86900   3.659  13.261   2.691
20360W        W86901  25.443  14.416  11.102
20361W        W86902  24.033  32.980  12.787
20362W        W86903  18.480  14.026  13.495
20363W        W86904  15.135  34.124  14.682
20364W        W86905  37.396  33.505  14.367
20365W        W86906  32.921  16.230  12.444
20366W        W86907  24.808  20.991  13.025
20367W        W86908  10.730  40.120  11.533
20368W        W86909  31.598  15.139   1.180
20369W        W86910  26.407  10.213  12.005
20370W        W86911  42.291  34.621   0.707
20371W        W86912   7.007  44.896   3.635
20372W        W86913  40.857  42.489   2.363
20373W        W86914  23.042  16.243   4.550
20374W        W86915  11.273  39.469   4.126
20375W        W86916  32.589  13.836  12.588
20376W        W86917   4.290  17.837   4.382
20377W        W86918  39.651  10.633   0.412
20378W        W86919  27.483  24.766  14.778
20379W        W86920  37.957  21.101  11.065
20380W        W86921  24.556  30.731   3.189
20381W        W86922   8.390  32.083   3.704
20382W        W86923  13.931  10.771  11.956
20383W        W86924  18.358  40.019   2.414
20384W        W86925  10.818  11.162   4.588
20385W        W86926  44.516   0.725  11.262
20386W        W86927  38.741  17.214  14.533
20387W        W86928  36.947  34.141  14.237
20388W        W86929  26.112  24.155  13.243
20389W        W86930  30.937  38.361  12.355
20390W        W86931  20.560   5.504  14.716
20391W        W86932  26.813  28.930  13.874
20392W        W86933   0.456   7.438   2.417
20393W        W86934  17.197   0.071   0.757
20394W        W86935  23.255  26.073  12.166
20395W        W86936  29.706  33.084  13.307
20396W        W86937  20.757   5.899   0.651
20397W        W86938   4.974  44.954  11.491
20398W        W86939   1.868  36.094   3.788
20399W        W86940  37.149   6.931  10.802
20400W        W86941   2.973   7.193  13.103
20401W        W86942  40.624  38.961  13.510
20402W        W86943   7.972  42.368   1.930
20403W        W86944   0.719  39.838  11.202
20404W        W86945  20.557  41.053  12.107
20405W        W86946   0.204   2.990  14.927
20406W        W86947  16.120  39.697   1.231
20407W        W86948   9.132  43.954   1.157
20408W        W86949  34.377   6.400  13.596
20409W        W86950   0.325   5.146   1.656
20410W        W86951  18.251  14.124   0.270
20411W        W86952   5.692  32.052   0.225
20412W        W86953   9.824  35.748  13.791
20413W        W86954  33.866  19.674  12.958
20414W        W86955  20.501  28.462   2.213
20415W        W86956   0.277  13.237   2.798
20416W        W86957  41.553  39.985  13.229
20417W        W86958  42.997  25.254  10.662
20418W        W86959   9.293  10.875   0.460
20419W        W86960  37.624  11.775  14.356
20420W        W86961  21.466  18.273  14.023
20421W        W86962  14.737  25.923   2.729
20422W        W86963  34.397  34.715  14.106
20423W        W86964  44.825  20.232  12.176
20424W        W86965   5.917  32.924   0.765
20425W        W86966  32.393  29.433   1.852
20426W        W86967  11.130  23.235  14.666
20427W        W86968  37.853  22.633  10.717
20428W        W86969  19.366  40.508   1.232
20429W        W86970  37.955  15.703   1.073
20430W        W86971  32.744  24.481  14.527
20431W        W86972   5.512   8.707  14.477
20432W        W86973  15.940   5.951  10.428
20433W        W86974  21.287  12.537  13.118
20434W        W86975  38.887  37.124  14.069
20435W        W86976  30.058  20.906   1.701
20436W        W86977  39.969  11.617   0.328
20437W        W86978  24.616  15.051   2.432
20438W        W86979   2.248  33.161   1.198
20439W        W86980  24.246  29.174   4.170
20440W        W86981  43.690   0.153   2.339
20441W        W86982  35.873  40.016  13.425
20442W        W86983  21.465  22.594   3.839
20443W        W86984   8.723  36.834   2.912
20444W        W86985  33.302   1.936   3.443
20445W        W86986  22.470  40.227   4.645
20446W        W86987  30.496   4.530  14.373
20447W        W86988   4.246  24.277  14.762
20448W        W86989  37.305  15.886  14.440
20449W        W86990  35.409  36.613   3.122
20450W        W86991  40.266  34.474   2.379
20451W        W86992   7.780  42.787   1.214
20452W        W86993  21.109  21.748  14.306
20453W        W86994  44.400   6.953   4.961
20454W        W86995  44.660   4.333  14.971
20455W        W86996  34.866  32.924  13.008
20456W        W86997   9.362  37.072  11.583
20457W        W86998  11.623   0.393   4.531
20458W        W86999   5.365   1.041  13.419
20459W        W87000  15.525  33.948  11.420
20460W        W87001  34.818  43.976   0.724
20461W        W87002  31.001   6.116   2.264
20462W        W87003  22.811  13.891   2.620
20463W        W87004  18.639   6.321   3.599
20464W        W87005  14.376  23.566  12.040
20465W        W87006  39.404   4.438  12.946
20466W        W87007  17.540   4.706  13.979
20467W        W87008  34.710   1.490  13.887
20468W        W87009  35.395   9.489  13.777
20469W        W87010  21.726   1.749   1.837
20470W        W87011  15.726  10.865  14.403
20471W        W87012  41.922  31.204  11.967
20472W        W87013  35.238   9.892   4.486
20473W        W87014  27.532  10.845  11.690
20474W        W87015  25.122  43.178   0.765
20475W        W87016  31.395   3.191  10.798
20476W        W87017  21.668   9.260   4.150
20477W        W87018  24.630   7.375  12.604
20478W        W87019  13.114   9.149  10.706
20479W        W87020   1.677  28.664  10.447
20480W        W87021  24.086  35.610  14.577
20481W        W87022  30.921  16.290  12.426
20482W        W87023   9.416  21.438   3.342
20483W        W87024  38.065  34.064   3.065
20484W        W87025  42.723  30.950   4.121
20485W        W87026   8.881  35.912  13.771
20486W        W87027   9.139  36.790   4.107
20487W        W87028  28.249  24.832   4.988
20488W        W87029   5.586  29.129   0.769
20489W        W87030  38.040  24.156   1.620
20490W        W87031  44.633   4.906  13.905
20491W        W87032  17.723  17.538   1.852
20492W        W87033   6.673   9.889   4.094
20493W        W87034  10.652  31.840  12.190
20494W        W87035  30.140  26.479   1.370
20495W        W87036  33.962  35.064  10.512
20496W        W87037  18.596  11.261   2.731
20497W        W87038  25.001  18.314   3.599
20498W        W87039  15.158  19.240  11.501
20499W        W87040  26.652   7.287  11.447
20500W        W87041  34.162  11.640  11.590
20501W        W87042  28.671   1.347  10.710
20502W        W87043  28.603  11.395  12.385
20503W        W87044  44.396  17.540  10.821
20504W        W87045  38.870  34.994   2.420
20505W        W87046   8.834  38.500   1.490
20506W        W87047  40.545   1.939   2.383
20507W        W87048   8.977  14.546   2.220
20508W        W87049  39.100  29.254  12.201
20509W        W87050  44.088   3.978  14.331
20510W        W87051  25.305  10.816  10.832
20511W        W87052  44.504  39.767  10.628
20512W        W87053  36.403  16.461  14.877
20513W        W87054  27.740  44.966  11.250
20514W        W87055  34.564  40.937   1.297
20515W        W87056  27.137  13.865   3.372
20516W        W87057   9.900   2.574   4.865
20517W        W87058  38.070   8.702  13.500
20518W        W87059  41.697   6.096  10.658
20519W        W87060  35.738  16.671  13.315
20520W        W87061  25.722  44.600  12.125
20521W        W87062  24.450  33.430   1.180
20522W        W87063   1.283  32.367   1.713
20523W        W87064  44.733  38.002  12.574
20524W        W87065  17.107   4.371   4.581
20525W        W87066  16.027  26.526  10.908
20526W        W87067  19.173  44.709   1.301
20527W        W87068   7.826  24.748  10.690
20528W        W87069  22.647   4.757   1.330
20529W        W87070  18.764  17.112  13.304
20530W        W87071  13.095  28.197   1.886
20531W        W87072  19.373  13.846  13.010
20532W        W87073  36.986  16.093  13.822
20533W        W87074   2.397  27.512   4.121
20534W        W87075  38.022  22.617  12.931
20535W        W87076  17.796  15.367  10.236
20536W        W87077  42.696  38.195   4.763
20537W        W87078  14.670  32.637  13.510
20538W        W87079   8.507  13.488   3.621
20539W        W87080  32.929  37.808   0.266
20540W        W87081  44.690  36.552  11.216
20541W        W87082  18.017  10.076   2.919
20542W        W87083  18.770  19.763  11.970
20543W        W87084  32.646  17.685  10.651
20544W        W87085  32.491   0.560   3.237
20545W        W87086  15.558   1.302  10.664
20546W        W87087   6.829  19.172   1.215
20547W        W87088  26.621   7.927  14.323
20548W        W87089   6.406  26.993  13.484
20549W        W87090   1.342   8.688   3.243
20550W        W87091   2.554  12.058   3.268
20551W        W87092   9.656  33.023  12.041
20552W        W87093  21.175  37.884  14.532
20553W        W87094  41.369  16.799   3.044
20554W        W87095  25.296  37.077  10.749
20555W        W87096  13.738  13.727  11.324
20556W        W87097  10.253  44.564   3.218
20557W        W87098   6.182  35.162  13.020
20558W        W87099  10.115  16.619  13.491
20559W        W87100   8.562  13.203   1.361
20560W        W87101   4.282   4.268   2.386
20561W        W87102  30.425  31.023  11.655
20562W        W87103  42.845  16.345  13.437
20563W        W87104   5.848  19.179   3.613
20564W        W87105  18.103  10.302   1.433
20565W        W87106   7.911  23.181   1.453
20566W        W87107   5.007  13.300  14.986
20567W        W87108  21.671  37.983  12.923
20568W        W87109  19.726  40.941   4.549
20569W        W87110  39.072  37.268  11.047
20570W        W87111  17.312  19.660   0.055
20571W        W87112  22.618  29.950  10.519
20572W        W87113  19.596  20.934  11.060
20573W        W87114  16.601  38.785  12.914
20574W        W87115   3.992  15.194  12.467
20575W        W87116  24.400  30.478   5.030
20576W        W87117   1.384  37.821   0.720
20577W        W87118  20.052  30.526  13.642
20578W        W87119  44.762   8.093   2.834
20579W        W87120   0.853   2.989   0.134
20580W        W87121  13.629  29.488  14.306
20581W        W87122  42.790  38.613   0.935
20582W        W87123  19.257   6.769  12.697
20583W        W87124  41.999  12.537  11.121
20584W        W87125  35.491  18.965  10.979
20585W        W87126  31.533   8.832   0.260
20586W        W87127  14.258  28.050   0.429
20587W        W87128   6.794   3.134  11.565
20588W        W87129  34.574  27.722   0.466
20589W        W87130   7.373  31.093   4.089
20590W        W87131   0.097  31.081   0.167
20591W        W87132  39.110  42.299   4.570
20592W        W87133  41.492  39.997   3.781
20593W        W87134  39.881  12.122   0.337
20594W        W87135  44.015   2.043  12.078
20595W        W87136  25.329   4.198   1.605
20596W        W87137  27.214  21.346  14.405
20597W        W87138  38.788  32.660   2.324
20598W        W87139  28.486  23.306  11.943
20599W        W87140  27.242  30.591  14.558
20600W        W87141  11.858   8.841  14.873
20601W        W87142  10.052  44.682   4.927
20602W        W87143  40.962  41.073  11.694
20603W        W87144   2.311   1.334  11.336
20604W        W87145  33.443  20.971   2.746
20605W        W87146  18.505  28.137  12.513
20606W        W87147  28.180  28.069  11.533
20607W        W87148  13.209   0.116   1.742
20608W        W87149  14.400  14.805   3.184
20609W        W87150  44.280  21.129  14.894
20610W        W87151  33.456  33.063   2.234
20611W        W87152  43.003  10.407   0.411
20612W        W87153  19.772  30.495   1.232
20613W        W87154  22.110  35.855  14.405
20614W        W87155  32.015  35.376   0.303
20615W        W87156  34.033  35.023  11.044
20616W        W87157  22.149   7.624  10.997
20617W        W87158  32.502  13.638   3.149
20618W        W87159  25.785   2.574   2.397
20619W        W87160  20.224  41.936  12.934
20620W        W87161  39.348  20.808   1.188
20621W        W87162  18.684  10.846  11.556
20622W        W87163  30.176  42.277   0.807
20623W        W87164   4.531  34.724  10.684
20624W        W87165  44.793   2.864  13.048
20625W        W87166  24.208  41.464   4.598
20626W        W87167   0.338  36.384  12.133
20627W        W87168  10.284  34.396   2.832
20628W        W87169  15.940   0.536   4.057
20629W        W87170  32.318  42.215  12.861
20630W        W87171  15.444  43.490  11.167
20631W        W87172  32.166   3.411   1.489
20632W        W87173  20.774   9.815   0.891
20633W        W87174  27.599   6.235  11.285
20634W        W87175  27.588  15.960   1.381
20635W        W87176  38.267  29.616   3.312
20636W        W87177  23.476  10.612  11.140
20637W        W87178   9.868  32.560  10.788
20638W        W87179  32.524   6.334  14.115
20639W        W87180  14.104  26.033  11.923
20640W        W87181  35.648  33.051  13.412
20641W        W87182  10.381  28.021  13.784
20642W        W87183  29.601  18.101   0.454
20643W        W87184  41.130  44.475  14.484
20644W        W87185   2.075   9.094  14.804
20645W        W87186  10.861  10.273  10.372
20646W        W87187  10.268   6.121  10.703
20647W        W87188  34.794  38.627   4.156
20648W        W87189  11.335  19.551  13.588
20649W        W87190  39.541  21.396  13.861
20650W        W87191  43.878  25.022  12.089
20651W        W87192  20.930  21.054  14.997
20652W        W87193  43.826  11.343  12.011
20653W        W87194  33.037   5.186   4.453
20654W        W87195  16.129   6.947  11.624
20655W        W87196  24.799  32.151   0.742
20656W        W87197   1.265   0.730  13.453
20657W        W87198  31.507  40.184   3.121
20658W        W87199   4.405  21.747   0.824
20659W        W87200  20.266  40.636   4.106
20660W        W87201   5.316  30.525  11.746
20661W        W87202  42.687  24.468   5.155
20662W        W87203  23.792  43.680   1.255
20663W        W87204  20.208  33.858   1.874
20664W        W87205  21.569  25.710   3.563
20665W        W87206  26.721  15.741  13.444
20666W        W87207  10.633  40.352   1.783
20667W        W87208  42.584  14.977   2.158
20668W        W87209   6.667  31.712  11.063
20669W        W87210   1.394   1.339  11.155
20670W        W87211  41.999   3.746   4.348
20671W        W87212  27.346  41.030   4.814
20672W        W87213   4.329  22.256   0.731
20673W        W87214  33.608  27.250   2.146
20674W        W87215  19.165  18.969  14.339
20675W        W87216  34.370  13.209  13.926
20676W        W87217   1.399   7.142   1.832
20677W        W87218  10.733  25.986  12.415
20678W        W87219  40.233  21.277   0.528
20679W        W87220  16.256  12.841  11.556
20680W        W87221  20.557  30.603   3.797
20681W        W87222   1.938  44.160  11.052
20682W        W87223  13.324  32.561  12.278
20683W        W87224  30.111  31.605  14.918
20684W        W87225  20.127   2.858  12.783
20685W        W87226   8.377  24.755  11.492
20686W        W87227  25.739  11.452   4.797
20687W        W87228  35.466   7.923  14.921
20688W        W87229  38.551  33.539  11.084
20689W        W87230  21.334  34.504   9.907
20690W        W87231  14.542   1.237  12.982
20691W        W87232   9.911  17.016   4.243
20692W        W87233   7.355  42.008   2.187
20693W        W87234  16.442  24.422   0.042
20694W        W87235   0.496   5.286   0.203
20695W        W87236  32.695  21.623  12.128
20696W        W87237  40.494  43.083  13.599
20697W        W87238  33.675   2.748  12.365
20698W        W87239   3.900  10.238  12.663
20699W        W87240  41.788  31.220  14.138
20700W        W87241  38.767   0.376   1.904
20701W        W87242  28.238  18.062   1.402
20702W        W87243  23.679  10.451   1.405
20703W        W87244  37.809  40.911  12.392
20704W        W87245  23.938  32.290   0.732
20705W        W87246  37.951   8.748   3.148
20706W        W87247  26.035  14.717   1.414
20707W        W87248  12.601   5.804  14.411
20708W        W87249   7.003  14.179   1.604
20709W        W87250  22.078  12.643   0.828
20710W        W87251   9.681  18.980   0.974
20711W        W87252  40.093  13.193  12.634
20712W        W87253  13.023  15.643   3.195
20713W        W87254   2.000  43.483  10.783
20714W        W87255  35.059  11.259   3.897
20715W        W87256  29.170   8.235   2.169
20716W        W87257  17.433  14.699  13.076
20717W        W87258   8.344  23.079  10.450
20718W        W87259  43.451  11.949   1.225
20719W        W87260  24.494  24.615   3.642
20720W        W87261  38.873  41.525  12.869
20721W        W87262   2.786  38.834  11.187
20722W        W87263  37.134  37.877  12.058
20723W        W87264  34.026  30.180   4.138
20724W        W87265  30.483  29.437   3.715
20725W        W87266  27.534  20.277  13.000
20726W        W87267  35.878   9.482   3.554
20727W        W87268  43.454   9.470   2.361
20728W        W87269  14.140  35.916   2.831
20729W        W87270  16.815  43.390   4.260
20730W        W87271  27.386  38.486  11.212
20731W        W87272  10.703  35.401   0.420
20732W        W87273  31.848   8.397   4.103
20733W        W87274  13.020  26.727  11.795
20734W        W87275   2.044   6.663  11.700
20735W        W87276  36.767  29.608  14.247
20736W        W87277  20.020   9.168   1.855
20737W        W87278   9.660  21.119   1.710
20738W        W87279  12.211  32.413  14.963
20739W        W87280   5.870  13.868  12.451
20740W        W87281  30.559  37.867  10.998
20741W        W87282  17.110  16.714   3.897
20742W        W87283  14.172  13.164  14.404
20743W        W87284  43.805  32.343  11.069
20744W        W87285  31.978  10.632   2.941
20745W        W87286  31.414  14.392   4.759
20746W        W87287  32.573   7.052   2.177
20747W        W87288   6.295  18.347  14.840
20748W        W87289  31.012  23.983  14.816
20749W        W87290  37.869  17.239   2.716
20750W        W87291  27.213   8.275  11.909
20751W        W87292  44.987  25.441   2.266
20752W        W87293  31.273  34.965   0.937
20753W        W87294  22.002  21.757  10.558
20754W        W87295  32.323  10.929  12.464
20755W        W87296  42.793  30.679   2.340
20756W        W87297  32.569  27.226  12.067
20757W        W87298  43.777  35.034  13.590
20758W        W87299  40.451  20.393  14.279
20759W        W87300  19.728  23.802  10.516
20760W        W87301  30.912   4.745   2.311
20761W        W87302  28.704  36.026  11.275
20762W        W87303   0.205  42.599   0.350
20763W        W87304  29.086  28.362  13.322
20764W        W87305  43.819  14.470   1.603
20765W        W87306  43.484  23.497  13.687
20766W        W87307  16.860  43.825   1.656
20767W        W87308  35.959   1.448  11.991
20768W        W87309  32.061   9.969   2.188
20769W        W87310  10.358   9.952   2.139
20770W        W87311  15.080  20.048  11.126
20771W        W87312  28.930  12.175  11.936
20772W        W87313   0.777  13.843   4.205
20773W        W87314  36.277  28.917  11.247
20774W        W87315  43.351  28.118  14.052
20775W        W87316  13.758  43.909   1.426
20776W        W87317  43.820   8.042   4.354
20777W        W87318  40.069   2.044  12.166
20778W        W87319   2.348  16.120  14.159
20779W        W87320  27.314  42.729  12.533
20780W        W87321  10.256  31.133   3.773
20781W        W87322  40.208   8.363  13.468
20782W        W87323  13.853   4.756  13.830
20783W        W87324  14.699  41.485  11.236
20784W        W87325   0.882  26.196  11.609
20785W        W87326  22.295  10.713  12.581
20786W        W87327  27.379  39.110  14.793
20787W        W87328  20.650  37.615  12.910
20788W        W87329  34.630  41.432   0.933
20789W        W87330   5.762   8.210   1.026
20790W        W87331  10.631  28.045  10.534
20791W        W87332  29.926   7.240  14.426
20792W        W87333  33.555  20.386  14.457
20793W        W87334  23.788   2.241  13.266
20794W        W87335   5.802  36.025   2.393
20795W        W87336  17.034   8.594  13.818
20796W        W87337  39.982  41.064   4.039
20797W        W87338  39.563  26.597  11.129
20798W        W87339  23.805   3.355   2.207
20799W        W87340  22.581  38.402  13.025
20800W        W87341  30.713  24.130   2.799
20801W        W87342  23.176   3.721   4.219
20802W        W87343  10.402  10.589   4.072
20803W        W87344   8.868  29.746   2.610
20804W        W87345   8.165   7.882   2.571
20805W        W87346  13.403  42.496   1.205
20806W        W87347  39.367  15.776   3.379
20807W        W87348  40.309   8.892   3.516
20808W        W87349  13.357   4.445   1.224
20809W        W87350  24.332   7.449  11.042
20810W        W87351  18.371  23.113   2.222
20811W        W87352  43.366  41.319  13.963
20812W        W87353  33.509  24.465  12.396
20813W        W87354  21.767   8.628  13.097
20814W        W87355  21.780   0.927  14.812
20815W        W87356  36.636  10.313   3.109
20816W        W87357  40.051  10.770   3.140
20817W        W87358  35.490  38.209   0.620
20818W        W87359  38.458  40.861   1.095
20819W        W87360  34.656  19.786  13.565
20820W        W87361  31.618  21.063   4.536
20821W        W87362   0.814  14.002  14.420
20822W        W87363  18.170   8.640  13.873
20823W        W87364  30.566  14.746  12.508
20824W        W87365  44.342  28.946  11.386
20825W        W87366   5.498  38.973   4.429
20826W        W87367  13.893  16.124  13.613
20827W        W87368  41.089   1.886   1.141
20828W        W87369  24.928  32.363   4.193
20829W        W87370  16.769  36.188  11.575
20830W        W87371  24.258  22.527  10.638
20831W        W87372  43.962  11.685  14.019
20832W        W87373  12.813  15.677   0.833
20833W        W87374   3.863   3.044  11.691
20834W        W87375  35.476  29.928   3.145
20835W        W87376  16.398  23.158  13.719
20836W        W87377  33.234  30.483   5.065
20837W        W87378  38.405  35.886   0.437
20838W        W87379  31.091  21.762   3.125
20839W        W87380  34.521  13.726  13.021
20840W        W87381  39.037  38.441   0.305
20841W        W87382  32.052  43.620   0.520
20842W        W87383  23.004  21.152  11.585
20843W        W87384  13.155   3.619   2.752
20844W        W87385   9.600  12.133   3.275
20845W        W87386  25.310   1.702   2.157
20846W        W87387  10.797  15.119  12.334
20847W        W87388  24.734  29.151   3.922
20848W        W87389   1.164  21.042  14.928
20849W        W87390  24.531   0.980   4.384
20850W        W87391  27.558  36.171   0.016
20851W        W87392   1.451  33.089   0.325
20852W        W87393   4.297  13.459   0.330
20853W        W87394  36.625  12.191  14.821
20854W        W87395  36.948  15.310  10.749
20855W        W87396   0.390  21.255   1.298
20856W        W87397   9.703   0.057  14.312
20857W        W87398  37.071   3.687   4.094
20858W        W87399  32.092   5.960   3.836
20859W        W87400   0.831   2.483   5.020
20860W        W87401   9.150  24.956   5.249
20861W        W87402  27.797  39.872   3.292
20862W        W87403  13.273  14.326   4.697
20863W        W87404  35.791  31.947   2.185
20864W        W87405  14.187   3.507  14.975
20865W        W87406  38.000  15.176  14.973
20866W        W87407  26.472  14.307  12.012
20867W        W87408   2.693  25.527  14.705
20868W        W87409  15.133  13.908   4.148
20869W        W87410  27.676   7.144  14.866
20870W        W87411  27.705   5.290  11.601
20871W        W87412  27.164  14.594   2.286
20872W        W87413   1.208   6.225   1.751
20873W        W87414  10.705  28.619  12.112
20874W        W87415  43.982  14.686   2.366
20875W        W87416  12.709   8.279   2.277
20876W        W87417  24.018   1.560  13.873
20877W        W87418  10.276  36.112   3.318
20878W        W87419  40.321  42.875   2.757
20879W        W87420  29.524  34.557  10.756
20880W        W87421  28.534  18.780   3.600
20881W        W87422  12.500  36.619   4.246
20882W        W87423   7.939  38.093   1.369
20883W        W87424  17.658  27.300   3.483
20884W        W87425  28.075  25.422   2.830
20885W        W87426   7.413  25.329   2.481
20886W        W87427  29.161  26.139  14.021
20887W        W87428  18.258   8.677   0.883
20888W        W87429  21.907  18.594  13.905
20889W        W87430  24.819  16.224  11.909
20890W        W87431  28.076  44.874  12.185
20891W        W87432  24.139   0.718  13.483
20892W        W87433   3.357   6.435  10.716
20893W        W87434  44.200  40.392   0.245
20894W        W87435  11.894  14.128  12.063
20895W        W87436  25.238  42.106   0.570
20896W        W87437   7.768  33.670  11.942
20897W        W87438  18.833   9.918  12.391
20898W        W87439   6.352  34.324  12.456
20899W        W87440  43.794   2.755   1.392
20900W        W87441  27.425  18.990   2.159
20901W        W87442  28.631  19.588  10.388
20902W        W87443  21.771  23.986  13.965
20903W        W87444   0.956   9.287   0.303
20904W        W87445  15.224  23.526   3.618
20905W        W87446   1.818  38.878  14.157
20906W        W87447  10.291  42.716   1.919
20907W        W87448   3.779  43.978   1.737
20908W        W87449  34.826  24.804   2.597
20909W        W87450  39.085  43.350  10.559
20910W        W87451  15.895   2.469   1.440
20911W        W87452  44.013  22.090  13.305
20912W        W87453  16.311  36.667   4.999
20913W        W87454  13.810  34.551  12.781
20914W        W87455   0.421   2.529  11.078
20915W        W87456  29.610  15.488   4.446
20916W        W87457  14.606  42.304   2.816
20917W        W87458   8.073  41.658  11.274
20918W        W87459  15.148  39.705   0.363
20919W        W87460  15.566  30.656  13.634
20920W        W87461  12.066   8.871  11.081
20921W        W87462   2.746  26.139   0.959
20922W        W87463  14.501  12.722  11.141
20923W        W87464  18.719   0.288  13.664
20924W        W87465   2.544   7.847  14.496
20925W        W87466  33.979  15.539   2.138
20926W        W87467  40.551  12.534   3.545
20927W        W87468   4.105  10.456  11.492
20928W        W87469  25.617  33.172   1.870
20929W        W87470  41.931  33.105  13.954
20930W        W87471  40.344  26.002   0.503
20931W        W87472  27.685  24.646   4.689
20932W        W87473  10.325  30.891   1.646
20933W        W87474   5.684  39.958  14.340
20934W        W87475  38.628   5.670  14.851
20935W        W87476  15.947  31.944   2.436
20936W        W87477  14.918  44.300  14.998
20937W        W87478  44.568   9.177   0.767
20938W        W87479  23.738  22.537  10.564
20939W        W87480  25.526  17.077   3.455
20940W        W87481  21.176   0.978   0.822
20941W        W87482  36.668  19.615   5.107
20942W        W87483   4.824  14.381  10.735
20943W        W87484   6.342  16.508  12.891
20944W        W87485  37.914   6.232  11.382
20945W        W87486  33.633  24.552  11.529
20946W        W87487  21.901  32.323  11.947
20947W        W87488  18.214  17.298   0.425
20948W        W87489   4.346  23.737  11.114
20949W        W87490  15.866  15.103   1.207
20950W        W87491  33.464  25.460   3.678
20951W        W87492  28.469   4.214   1.826
20952W        W87493  33.976  43.482  11.665
20953W        W87494  14.115  29.540   1.236
20954W        W87495  17.904  38.367   2.094
20955W        W87496   5.011   4.278   2.592
20956W        W87497   1.898   8.512   3.632
20957W        W87498  27.067   3.487   0.257
20958W        W87499  37.290  27.744   4.123
20959W        W87500   5.988  28.719  14.922
20960W        W87501  38.534  37.488   2.763
20961W        W87502  28.131   7.766   0.816
20962W        W87503   6.777   9.135   3.922
20963W        W87504  32.090  34.043   0.617
20964W        W87505  31.926  23.309  12.410
20965W        W87506   3.251  34.368  11.549
20966W        W87507  26.197   6.733  13.846
20967W        W87508  16.561   0.524   0.225
20968W        W87509  10.196  36.923   2.117
20969W        W87510  23.690  20.845   0.833
20970W        W87511  30.628  12.133   1.816
20971W        W87512  22.643  21.118   2.285
20972W        W87513   8.122  16.087  12.511
20973W        W87514  36.425  42.340   1.722
20974W        W87515   5.436  20.254   1.876
20975W        W87516  34.223  20.517   0.351
20976W        W87517  34.554  39.757   2.209
20977W        W87518  39.492  35.311   3.618
20978W        W87519  15.631  33.063  12.036
20979W        W87520  13.578  36.165   1.977
20980W        W87521  43.591  30.648  13.644
20981W        W87522  30.402   3.956  12.070
20982W        W87523  19.139  28.598   2.684
20983W        W87524  16.172  36.103   0.987
20984W        W87525  10.546  36.534  12.923
20985W        W87526  10.287  16.795   1.422
20986W        W87527  20.196   9.092   4.411
20987W        W87528  44.178  42.820   3.092
20988W        W87529  11.369   2.312  10.672
20989W        W87530  13.851  16.721  12.387
20990W        W87531   1.489  29.508  12.481
20991W        W87532  15.781  43.756  14.938
20992W        W87533  22.684  25.098  10.738
20993W        W87534  40.621  29.478  11.156
20994W        W87535  20.907  11.837   0.453
20995W        W87536   5.837   3.911  11.567
20996W        W87537  30.675  17.661   1.282
20997W        W87538  39.122  27.081   4.419
20998W        W87539  44.321  23.607  11.263
20999W        W87540  37.521  36.525  13.022
21000W        W87541   9.365  41.777  12.031
21001W        W87542  11.960  16.066  13.121
21002W        W87543  16.631  14.667  10.558
21003W        W87544  42.562  13.486   4.893
21004W        W87545   2.602   2.496   0.023
21005W        W87546  28.903  27.996   1.483
21006W        W87547  27.263  32.394   1.564
21007W        W87548  27.170  37.174   3.780
21008W        W87549   5.144  39.061   2.253
21009W        W87550   3.454   3.227   1.011
21010W        W87551   4.779   9.185   1.487
21011W        W87552  12.730  13.628  12.917
21012W        W87553  16.333   3.942  12.520
21013W        W87554  22.460  28.024   3.307
21014W        W87555  10.747  15.691   1.930
21015W        W87556   5.946  25.845  10.417
21016W        W87557  16.543  36.433  10.741
21017W        W87558  19.999  43.752   2.404
21018W        W87559  43.546   5.821  13.029
21019W        W87560  10.868  31.053   1.926
21020W        W87561  36.539  43.367  11.033
21021W        W87562   0.508  32.661   1.335
21022W        W87563  24.399  29.153   1.346
21023W        W87564   3.958   7.269  13.922
21024W        W87565   4.446   2.923  14.356
21025W        W87566   8.816  22.588  12.071
21026W        W87567  32.290  41.220   2.934
21027W        W87568  38.111  14.261  10.518
21028W        W87569   2.744  33.928  10.807
21029W        W87570  26.866  11.357   1.515
21030W        W87571  30.416  36.264   4.066
21031W        W87572  19.530  37.883  12.449
21032W        W87573   3.539   0.102   3.193
21033W        W87574  11.876  16.621   2.922
21034W        W87575  31.397  42.465  11.165
21035W        W87576  31.500  15.771  13.893
21036W        W87577   6.230  30.045  12.950
21037W        W87578  18.117  32.129  12.829
21038W        W87579   7.320  34.619   4.068
21039W        W87580  24.507  17.255   1.795
21040W        W87581  37.951   1.732   3.329
21041W        W87582  12.049  29.954  12.400
21042W        W87583  32.236  35.321  11.871
21043W        W87584  27.474  40.190   3.985
21044W        W87585  15.628  11.676  10.597
21045W        W87586  30.159  15.591  12.253
21046W        W87587   5.906  39.905   3.101
21047W        W87588   6.814  16.541  14.312
21048W        W87589  38.025  16.561   0.963
21049W        W87590   2.351  36.828   1.651
21050W        W87591  12.222   8.107  14.369
21051W        W87592   8.159  40.616  10.732
21052W        W87593   9.770  12.588  14.285
21053W        W87594  16.354  34.424  10.701
21054W        W87595  27.167  41.736   0.898
21055W        W87596  15.604  30.062  11.167
21056W        W87597  20.259  28.420  13.616
21057W        W87598   6.222  44.435  11.959
21058W        W87599  40.379  14.198  10.718
21059W        W87600  10.959  36.294  13.254
21060W        W87601  33.275   8.499  12.587
21061W        W87602  10.719   2.476  11.233
21062W        W87603   2.749  17.008  10.714
21063W        W87604  40.766  39.483   1.723
21064W        W87605  33.642   0.136   4.143
21065W        W87606   9.672   4.409  14.753
21066W        W87607  14.215  42.763  14.606
21067W        W87608  42.466  16.515  10.724
21068W        W87609   2.322  38.409   1.655
21069W        W87610  18.612   9.302   3.333
21070W        W87611   7.965   2.970  12.983
21071W        W87612  29.685  11.097   0.248
21072W        W87613  26.771  43.187  11.203
21073W        W87614  39.752  18.727  14.949
21074W        W87615  24.617  37.709   5.019
21075W        W87616  17.517   6.233  10.766
21076W        W87617  32.170   7.831  13.118
21077W        W87618  43.073   1.350  14.800
21078W        W87619   9.743   9.371   4.006
21079W        W87620  31.076  28.795   4.024
21080W        W87621  19.617  21.071  13.035
21081W        W87622  21.797  12.620   2.821
21082W        W87623  35.503   8.130   3.723
21083W        W87624  38.349   2.479  10.987
21084W        W87625   0.685  27.487   0.374
21085W        W87626  20.061   9.538  14.037
21086W        W87627  11.377  42.920   0.098
21087W        W87628  17.162  18.337  10.113
21088W        W87629  41.830  19.742   5.096
21089W        W87630  26.774  24.692   3.693
21090W        W87631   2.516  27.219   0.239
21091W        W87632   6.708   2.465  12.922
21092W        W87633  40.274  43.393  13.139
21093W        W87634  15.372  40.654   2.131
21094W        W87635  25.695  33.642  11.566
21095W        W87636  31.045   0.962  14.822
21096W        W87637  30.982  19.035   3.917
21097W        W87638  29.066  20.805  13.474
21098W        W87639  24.699   0.383  13.977
21099W        W87640  34.106  16.788  14.834
21100W        W87641  37.830  34.994  14.826
21101W        W87642  35.091  30.094  13.660
21102W        W87643  27.196  18.963   4.955
21103W        W87644  13.895  13.890   2.415
21104W        W87645  27.129  31.524  12.963
21105W        W87646  10.172  29.972   0.467
21106W        W87647  30.925  19.259  14.486
21107W        W87648   0.259  42.365   2.234
21108W        W87649  17.740  24.154   2.064
21109W        W87650  21.261  10.205  10.870
21110W        W87651  36.813  32.396   0.408
21111W        W87652  35.482  35.500   2.648
21112W        W87653  27.041  36.098   0.247
21113W        W87654  17.176  31.477   9.713
21114W        W87655  14.868  32.627  14.396
21115W        W87656  18.777  19.998   2.851
21116W        W87657  37.010  15.097  14.702
21117W        W87658   8.260  32.559   1.379
21118W        W87659   3.680  26.730   4.153
21119W        W87660  19.175  21.652  13.767
21120W        W87661  25.395  35.632   2.723
21121W        W87662   5.562   7.286   1.296
21122W        W87663  29.882  24.241   1.808
21123W        W87664  39.982  29.639   0.181
21124W        W87665  28.914  13.807   4.970
21125W        W87666   2.910   8.459   3.746
21126W        W87667   9.337  42.720   0.836
21127W        W87668  33.470  22.729   1.361
21128W        W87669  12.781  10.653  10.688
21129W        W87670   3.140  22.276  14.843
21130W        W87671   6.617  36.336   2.480
21131W        W87672  30.459  37.532  14.316
21132W        W87673  42.310   4.458   0.399
21133W        W87674   0.853  37.813   4.944
21134W        W87675  17.833  14.505  11.799
21135W        W87676  10.644   6.768   1.717
21136W        W87677  16.689  22.974   1.355
21137W        W87678  13.204  11.226   4.730
21138W        W87679   9.259  15.578  14.282
21139W        W87680  16.760   7.234  12.064
21140W        W87681  29.504  42.544   4.870
21141W        W87682  20.115  44.886   2.711
21142W        W87683   9.228  24.309  11.140
21143W        W87684  14.290  14.622   2.710
21144W        W87685  21.001  17.562   0.788
21145W        W87686  25.192  38.798  11.200
21146W        W87687  39.327  15.675  12.039
21147W        W87688  38.342  16.134  10.650
21148W        W87689  18.238  41.953  13.405
21149W        W87690  20.130  12.996   2.829
21150W        W87691  26.933  18.204  13.036
21151W        W87692   2.455  32.835   2.815
21152W        W87693  29.100  44.079   2.240
21153W        W87694  43.795  23.588  13.298
21154W        W87695  39.769   4.724   3.514
21155W        W87696   1.895  25.154  14.798
21156W        W87697   2.176  23.488   4.525
21157W        W87698  34.237  41.339  12.184
21158W        W87699  34.037  41.395   1.783
21159W        W87700  24.119  15.128  14.760
21160W        W87701  33.942   5.103   9.863
21161W        W87702  38.800  24.609   1.440
21162W        W87703  29.000  32.007   1.196
21163W        W87704  29.676  32.014   0.698
21164W        W87705  40.138  43.277   0.320
21165W        W87706  38.037   9.722  13.191
21166W        W87707   3.750  17.713  11.145
21167W        W87708  14.174  37.730  13.859
21168W        W87709  20.036  37.345  13.395
21169W        W87710  14.313  26.103   1.820
21170W        W87711  44.386  32.494  14.629
21171W        W87712  37.909  39.332  11.653
21172W        W87713  34.207  41.328   1.245
21173W        W87714   1.736  29.821   3.725
21174W        W87715  18.520  19.027  14.678
21175W        W87716  20.645  25.784   1.485
21176W        W87717  41.777  42.879   0.896
21177W        W87718  30.046   1.497   0.856
21178W        W87719  35.344  37.511  10.777
21179W        W87720  15.813  10.264   3.626
21180W        W87721  32.014   2.462   4.002
21181W        W87722  42.429   3.999   0.201
21182W        W87723  42.120  35.512  14.442
21183W        W87724  31.712  39.463  11.543
21184W        W87725  19.975  44.415  11.062
21185W        W87726  26.175   6.836   4.503
21186W        W87727  41.610  33.113  12.948
21187W        W87728  44.975  20.930   1.243
21188W        W87729  22.215  14.342   0.178
21189W        W87730   0.272   7.710   4.116
21190W        W87731  41.039  26.847  12.488
21191W        W87732  38.369  12.320   0.138
21192W        W87733  16.624  20.589  13.433
21193W        W87734   9.784  11.295  11.585
21194W        W87735  31.509  44.976   1.691
21195W        W87736  43.056   5.081  10.948
21196W        W87737  36.302  31.060  11.592
21197W        W87738  24.730  22.526  13.901
21198W        W87739   4.169  38.460  13.070
21199W        W87740   2.709  43.028  11.028
21200W        W87741  29.079  17.339  12.946
21201W        W87742  16.741  17.420   3.176
21202W        W87743  42.272  39.753  14.724
21203W        W87744  28.024   5.479   0.736
21204W        W87745   6.375  14.519   1.367
21205W        W87746  14.735   5.690  14.997
21206W        W87747  16.057  10.134   1.777
21207W        W87748   1.488  39.317  13.007
21208W        W87749  10.365  44.025  11.556
21209W        W87750  29.586   6.205  12.187
21210W        W87751  35.969   6.411   4.399
21211W        W87752  33.994  31.699  11.830
21212W        W87753  34.841  31.376  14.410
21213W        W87754  42.888  14.531   2.228
21214W        W87755  36.101  15.575  10.222
21215W        W87756   2.827  22.623   0.089
21216W        W87757   3.481  30.912  12.226
21217W        W87758   5.889   0.457   3.595
21218W        W87759  23.312  15.024   0.040
21219W        W87760  40.256  39.960  14.673
21220W        W87761  21.194  20.570   4.836
21221W        W87762   4.115   2.820  10.361
21222W        W87763  40.466  32.524   0.024
21223W        W87764  36.886  41.977   5.029
21224W        W87765  42.325   2.285   0.193
21225W        W87766   2.221  19.622  11.138
21226W        W87767  35.068  12.642  11.976
21227W        W87768  37.824  18.160  12.794
21228W        W87769  38.306  28.704   4.214
21229W        W87770   6.823  28.436   4.836
21230W        W87771  21.233  11.097   4.135
21231W        W87772  12.608  36.868  13.948
21232W        W87773  13.185  32.289   3.656
21233W        W87774  13.177  14.221  12.420
21234W        W87775   1.555   7.387   2.817
21235W        W87776  11.401  11.165  13.486
21236W        W87777   0.462   8.462   2.261
21237W        W87778  15.904   9.718   3.490
21238W        W87779  38.801   5.384   4.049
21239W        W87780  38.265  28.982   4.654
21240W        W87781  37.331   2.913   3.640
21241W        W87782  13.464  10.230  14.453
21242W        W87783  27.724  43.859  10.741
21243W        W87784  32.402  39.890   1.848
21244W        W87785  10.842  31.407  12.419
21245W        W87786  37.373  30.023  14.956
21246W        W87787  29.587  39.778  13.895
21247W        W87788   0.856  42.342  12.903
21248W        W87789  41.535  26.802  13.524
21249W        W87790   3.684  18.673   1.912
21250W        W87791  41.783  11.583   0.368
21251W        W87792   3.549  41.352  10.612
21252W        W87793  43.695   6.494  10.172
21253W        W87794  38.370   2.818   2.803
21254W        W87795   3.323  19.369   2.326
21255W        W87796  15.293  32.419   1.865
21256W        W87797  17.499  42.374  13.400
21257W        W87798  35.720  27.930  12.013
21258W        W87799  13.239  36.425   4.524
21259W        W87800   2.306  29.634   3.086
21260W        W87801  10.706  36.983  12.041
21261W        W87802  32.880  16.794  11.574
21262W        W87803  41.324  44.423   1.271
21263W        W87804  30.478  38.995  14.343
21264W        W87805  19.064  31.429  14.671
21265W        W87806  31.045   3.749   1.519
21266W        W87807  35.309  34.887   1.820
21267W        W87808   4.005   9.726  12.045
21268W        W87809   8.744  15.042  12.890
21269W        W87810  41.288  39.181  12.611
21270W        W87811  37.774  35.890  13.504
21271W        W87812  38.993  42.256  11.601
21272W        W87813  28.108  36.108  12.148
21273W        W87814  19.903  20.611   4.189
21274W        W87815  20.603  14.890   2.575
21275W        W87816  23.960   6.296  11.839
21276W        W87817  39.235  21.755  13.588
21277W        W87818  18.072  40.044  10.632
21278W        W87819   4.531  23.165  10.507
21279W        W87820  44.721  16.074  13.411
21280W        W87821   2.426  32.584  14.058
21281W        W87822  37.500  32.555  13.349
21282W        W87823   9.203   0.410  13.901
21283W        W87824  11.902  29.814  13.120
21284W        W87825   1.643   8.650   1.003
21285W        W87826  15.198  14.759   1.667
21286W        W87827  43.007  26.934  10.405
21287W        W87828  20.640   8.672   2.304
21288W        W87829   2.011  24.731   1.878
21289W        W87830  44.488  24.528  11.554
21290W        W87831  16.566   2.233  11.006
21291W        W87832  21.824   4.274   3.606
21292W        W87833  40.828  10.053   1.064
21293W        W87834   5.766   3.243  14.055
21294W        W87835  13.139  39.633   1.409
21295W        W87836  26.623  38.899   2.437
21296W        W87837  24.569   3.409  11.640
21297W        W87838  18.309  20.989   0.683
21298W        W87839  19.379  38.032  11.006
21299W        W87840  35.114  11.326  11.564
21300W        W87841  22.768  10.295   3.759
21301W        W87842  29.919  10.157   4.133
21302W        W87843   6.421  30.060  13.927
21303W        W87844  13.378  43.967   4.527
21304W        W87845  38.002  38.813   4.071
21305W        W87846  37.301  26.427  14.927
21306W        W87847  10.131  13.415  10.918
21307W        W87848  36.997  38.780  12.455
21308W        W87849  30.214  16.351   4.160
21309W        W87850  26.407  13.144  11.287
21310W        W87851  39.232   1.301  14.407
21311W        W87852  14.407  22.320   0.399
21312W        W87853  43.629  21.737   2.834
21313W        W87854  39.938   9.917   0.889
21314W        W87855  44.916  11.900   2.655
21315W        W87856  33.968  17.225   4.447
21316W        W87857   0.302  19.109   4.180
21317W        W87858  26.979  27.198   0.926
21318W        W87859  20.993  41.330   1.472
21319W        W87860  24.487  11.195  11.723
21320W        W87861  28.021   1.365   3.764
21321W        W87862  10.412  23.704  13.885
21322W        W87863  10.260  28.865   1.492
21323W        W87864  24.869  20.267   1.466
21324W        W87865  17.842  35.092   1.228
21325W        W87866  37.561  30.955   1.729
21326W        W87867  27.317   6.273   4.032
21327W        W87868  17.700  19.293  11.106
21328W        W87869  26.728  33.818   3.714
21329W        W87870  38.246  14.712  10.245
21330W        W87871  29.364  38.564  11.128
21331W        W87872  39.934  32.178  10.672
21332W        W87873  33.766   6.664   4.253
21333W        W87874  31.413  41.792   1.246
21334W        W87875  15.600  27.716   3.433
21335W        W87876   8.267   7.247   4.855
21336W        W87877  22.335  21.080  12.183
21337W        W87878  44.956  14.154  11.055
21338W        W87879  25.547  20.339  11.181
21339W        W87880  41.089   9.629  10.928
21340W        W87881  16.669  16.729   3.602
21341W        W87882   3.233  33.670  10.794
21342W        W87883  37.287  15.621  14.902
21343W        W87884  19.714  31.690  14.360
21344W        W87885  26.404   5.760  12.766
21345W        W87886  41.531  36.561  13.819
21346W        W87887  27.521  16.520   1.358
21347W        W87888  42.696   4.949   4.156
21348W        W87889   5.180   0.011  13.374
21349W        W87890  38.314  13.163  11.728
21350W        W87891  42.790  42.721   1.891
21351W        W87892  23.681  12.172  13.726
21352W        W87893  24.945  17.719  13.045
21353W        W87894  36.383  21.566   0.754
21354W        W87895  31.383  14.907  12.846
21355W        W87896  29.547  15.810  13.446
21356W        W87897  32.365  15.124  13.504
21357W        W87898  41.439  12.845   0.734
21358W        W87899   8.367  34.924   1.068
21359W        W87900  27.695  27.004   0.222
21360W        W87901   3.159  32.783   5.068
21361W        W87902   0.274  41.739   3.128
21362W        W87903  25.645  27.591  14.276
21363W        W87904  29.098   5.411   1.653
21364W        W87905  33.148  17.302   0.766
21365W        W87906  12.810  26.222  10.581
21366W        W87907  30.792  20.498  13.433
21367W        W87908  30.121  27.579  13.288
21368W        W87909  10.275  33.432  10.640
21369W        W87910  36.431   5.673   4.113
21370W        W87911  23.038   4.318  14.358
21371W        W87912  40.180  18.226   4.824
21372W        W87913  18.211  44.002   2.897
21373W        W87914  19.552   0.129  13.165
21374W        W87915  10.459  20.949   9.869
21375W        W87916  14.539   7.331   2.493
21376W        W87917  14.150   8.934   0.785
21377W        W87918  22.676  19.164  13.745
21378W        W87919   0.676  36.084  12.397
21379W        W87920   9.343  15.728  13.263
21380W        W87921  44.851   9.220  14.628
21381W        W87922  44.559  27.476  11.558
21382W        W87923  18.360  42.959   2.876
21383W        W87924  26.617  44.974  14.306
21384W        W87925   4.643   6.324   0.922
21385W        W87926  32.487  30.919   2.657
21386W        W87927  20.277  35.394   2.797
21387W        W87928  15.496  17.427  11.576
21388W        W87929  28.985   3.510  12.060
21389W        W87930  35.610  32.429   2.326
21390W        W87931  17.958  24.639   3.855
21391W        W87932  37.640   3.328  14.440
21392W        W87933  28.269  21.210  12.789
21393W        W87934  38.273  16.804  12.439
21394W        W87935  39.247  19.645  14.812
21395W        W87936  41.644  35.092  12.780
21396W        W87937  19.002  11.324   0.031
21397W        W87938   2.342  41.515  14.064
21398W        W87939  36.971  13.478  11.650
21399W        W87940  24.700  30.921  13.908
21400W        W87941  40.416   2.201  12.940
21401W        W87942  25.951  15.055  13.422
21402W        W87943  26.554  35.324   0.243
21403W        W87944  15.337   4.699  12.089
21404W        W87945  16.667  41.761  12.412
21405W        W87946  44.606  36.696   3.564
21406W        W87947  16.727   4.795  11.977
21407W        W87948  33.531  10.819  11.854
21408W        W87949  24.467  39.019   3.061
21409W        W87950   3.050  43.657  12.912
21410W        W87951   2.313  12.254  13.714
21411W        W87952  34.798  20.166  11.410
21412W        W87953   3.694   0.227  10.781
21413W        W87954  32.512  38.972  13.365
21414W        W87955  40.572  42.327  11.601
21415W        W87956  25.769  40.891   0.961
21416W        W87957  28.188  43.889  13.418
21417W        W87958   1.270  17.006   0.988
21418W        W87959   7.586  23.676   3.660
21419W        W87960  16.198  33.015   1.779
21420W        W87961  30.502  25.524  14.785
21421W        W87962  15.139  40.186   2.156
21422W        W87963  29.934  15.548  14.924
21423W        W87964   3.787  22.436   3.113
21424W        W87965  18.680  41.494   1.836
21425W        W87966  12.240  35.444  14.368
21426W        W87967   7.227  17.551   1.837
21427W        W87968  30.171   7.756  14.806
21428W        W87969  28.387  22.731   3.901
21429W        W87970   9.291  27.868   1.718
21430W        W87971  17.310  17.949  13.740
21431W        W87972  39.887  15.642   3.246
21432W        W87973   6.217  34.085   2.040
21433W        W87974  43.913  22.213  12.814
21434W        W87975  14.497  17.261   0.763
21435W        W87976  37.716  38.362  13.976
21436W        W87977  35.906  16.994  11.113
21437W        W87978   8.669  23.068  12.217
21438W        W87979  35.397   5.778   3.313
21439W        W87980  27.120   6.862   0.976
21440W        W87981  34.964  14.160  14.885
21441W        W87982  19.357  37.536  14.276
21442W        W87983  11.593  43.249  11.586
21443W        W87984  30.477   0.398  13.619
21444W        W87985   8.385  44.382   2.328
21445W        W87986   0.722  19.495   0.806
21446W        W87987  23.023  27.926  14.789
21447W        W87988  19.303  23.003  13.500
21448W        W87989  25.759   4.773   5.437
21449W        W87990  23.267   4.767  11.591
21450W        W87991   2.708   0.393  13.948
21451W        W87992   0.003  21.655  11.396
21452W        W87993  43.497  10.052   4.449
21453W        W87994   9.287   2.839  13.005
21454W        W87995   0.647  24.369   4.461
21455W        W87996  10.162  24.374   4.117
21456W        W87997  31.620   3.919   0.737
21457W        W87998  23.768  41.071   1.693
21458W        W87999  23.517  36.597   0.840
21459W        W88000  38.321  38.913  11.045
21460W        W88001  31.598  36.239  12.022
21461W        W88002  12.662  30.484  14.530
21462W        W88003   8.330  15.859   2.344
21463W        W88004  14.219  34.649   3.623
21464W        W88005  18.374  29.114  12.135
21465W        W88006  42.880  41.462  12.983
21466W        W88007  27.453  13.180  11.650
21467W        W88008   5.266  30.352   4.633
21468W        W88009  16.547  14.255  11.827
21469W        W88010  12.895   3.421  13.831
21470W        W88011  11.037  25.463  14.323
21471W        W88012   7.781  17.906   0.302
21472W        W88013  36.817   0.298  14.067
21473W        W88014  30.361   0.215  14.893
21474W        W88015  33.685  13.665   9.770
21475W        W88016  20.553  24.280  14.497
21476W        W88017  10.270  16.812  11.185
21477W        W88018  25.163  42.044  12.051
21478W        W88019  26.044  20.162  12.925
21479W        W88020   3.902  30.806   0.903
21480W        W88021  28.926  34.037  11.648
21481W        W88022  18.833  32.172  14.039
21482W        W88023  10.241  27.192   1.949
21483W        W88024  20.695  28.433  13.888
21484W        W88025  16.562  26.523  10.947
21485W        W88026  17.872   7.754   4.454
21486W        W88027   9.784  14.814   1.659
21487W        W88028   6.875  38.853   2.819
21488W        W88029  23.805   5.157  14.528
21489W        W88030  44.802   2.975   1.595
21490W        W88031   9.492  28.567   2.351
21491W        W88032   2.377  33.913   0.186
21492W        W88033  10.411  25.732  13.819
21493W        W88034  38.711   1.395  11.129
21494W        W88035  44.303   2.644  14.560
21495W        W88036  38.104  31.605   2.249
21496W        W88037  12.387  24.476  11.089
21497W        W88038   7.360   9.178   1.840
21498W        W88039  28.993  19.431  10.735
21499W        W88040  39.320  21.542   0.952
21500W        W88041   8.384  27.622  11.723
21501W        W88042  40.431   7.989   3.216
21502W        W88043  16.469   5.458  13.389
21503W        W88044  28.985  14.694  10.735
21504W        W88045  30.999  20.836   5.159
21505W        W88046  15.438  19.248  13.533
21506W        W88047  17.336  20.126  14.807
21507W        W88048  41.404  13.103   3.523
21508W        W88049   4.775  15.005   0.958
21509W        W88050  13.687   8.988   3.819
21510W        W88051  29.900  39.818  12.157
21511W        W88052   1.562  17.399   1.953
21512W        W88053  16.692   9.796  12.872
21513W        W88054  14.876  39.000   4.189
21514W        W88055   7.000  17.504  13.476
21515W        W88056  27.908   8.459   4.212
21516W        W88057   8.807  17.265  12.241
21517W        W88058  42.955  10.945  11.966
21518W        W88059  37.975  37.303  12.163
21519W        W88060   9.259   6.844   4.887
21520W        W88061  41.386  12.133   3.714
21521W        W88062  40.857  16.673   4.810
21522W        W88063  33.898  41.844  14.041
21523W        W88064  30.021  29.559   1.591
21524W        W88065   1.980  33.620   3.975
21525W        W88066  23.031   6.676  13.790
21526W        W88067  42.891  40.650  14.470
21527W        W88068  19.088  30.716  11.433
21528W        W88069  43.291   5.447  12.727
21529W        W88070  33.271  14.293   2.320
21530W        W88071  36.683  44.826  11.987
21531W        W88072   2.759  12.819   1.172
21532W        W88073  11.364  20.971   3.259
21533W        W88074  10.279   6.433   0.664
21534W        W88075  33.490   4.248   1.279
21535W        W88076   8.813  26.441   3.158
21536W        W88077  42.529   1.708   3.096
21537W        W88078   3.884   1.100   1.761
21538W        W88079  25.620   6.293  14.249
21539W        W88080  22.471  13.956   1.174
21540W        W88081  22.107  31.618  14.586
21541W        W88082  39.092  20.205   0.523
21542W        W88083  13.244   8.329   2.852
21543W        W88084  37.171   9.755  12.032
21544W        W88085  31.155  36.088   0.216
21545W        W88086  27.577   0.723  10.595
21546W        W88087  21.210  21.038   2.762
21547W        W88088   1.991  21.117   3.557
21548W        W88089  42.749  36.385  11.189
21549W        W88090   5.448  32.915   3.106
21550W        W88091  44.547  35.336  12.815
21551W        W88092  37.888  12.449  14.951
21552W        W88093   0.199  42.236   3.114
21553W        W88094   0.977  17.045   0.525
21554W        W88095  36.349  29.815   3.157
21555W        W88096  18.169  32.501  11.149
21556W        W88097  18.586  25.044   4.481
21557W        W88098  32.856  18.361   1.754
21558W        W88099  21.519  36.645   3.224
21559W        W88100   8.323   9.428  14.020
21560W        W88101   0.583  23.786   3.908
21561W        W88102  28.330  21.118   4.951
21562W        W88103   9.630  33.449  12.403
21563W        W88104  10.574  23.778   3.736
21564W        W88105  18.649   1.795  10.700
21565W        W88106  27.602   0.006  13.381
21566W        W88107  29.062  23.128   1.723
21567W        W88108  36.605  27.855   1.332
21568W        W88109  40.565   1.918  14.764
21569W        W88110  19.581  21.684  10.631
21570W        W88111  27.240  38.991   1.490
21571W        W88112  33.834  22.606  12.584
21572W        W88113   1.285   3.783  14.287
21573W        W88114  35.357  36.498   0.419
21574W        W88115   1.370  43.981  12.506
21575W        W88116  34.555  15.183  11.701
21576W        W88117  11.390  17.971   3.127
21577W        W88118  34.364   7.391  11.546
21578W        W88119  12.755  32.857   3.220
21579W        W88120  25.396  38.820   0.506
21580W        W88121   9.924   4.123  11.265
21581W        W88122  35.636  21.374   2.060
21582W        W88123  12.589   3.691  13.466
21583W        W88124  18.621   5.820   4.919
21584W        W88125  35.014  26.742  13.122
21585W        W88126   5.971  15.509  11.526
21586W        W88127  22.022  19.688   1.787
21587W        W88128  27.473  41.508   1.741
21588W        W88129  40.005  25.092   3.319
21589W        W88130  39.030  31.110   1.471
21590W        W88131  12.547  26.559   4.089
21591W        W88132  15.747  23.221  10.618
21592W        W88133  22.691  10.357  12.602
21593W        W88134  29.100  32.721  13.977
21594W        W88135  30.785  41.377   3.820
21595W        W88136  14.181   9.356  10.762
21596W        W88137   8.898  13.329   2.134
21597W        W88138  29.057  26.256   0.764
21598W        W88139  15.865  13.197   1.172
21599W        W88140   3.887  20.922  11.010
21600W        W88141  15.625  21.636  13.126
21601W        W88142  27.494   1.303  11.289
21602W        W88143  27.676   0.367   1.788
21603W        W88144   0.963  29.495  14.405
21604W        W88145   8.910  35.539   1.541
21605W        W88146  18.589  30.763  10.258
21606W        W88147   0.679  40.519  12.004
21607W        W88148   5.180  36.424   3.730
21608W        W88149  41.973  38.856   9.762
21609W        W88150  41.319  30.992   1.973
21610W        W88151  37.242  36.096   3.663
21611W        W88152  37.805  23.318  13.510
21612W        W88153  24.355  11.693  12.340
21613W        W88154   2.895   9.208   3.182
21614W        W88155   6.454  28.990  11.685
21615W        W88156  39.996  18.228   2.719
21616W        W88157  27.178  11.305  14.126
21617W        W88158  15.241  11.304  11.073
21618W        W88159   6.764   7.835   2.551
21619W        W88160  29.957  38.438   4.559
21620W        W88161  27.742  43.938  12.209
21621W        W88162  30.648  19.430   2.690
21622W        W88163   3.473   7.531   0.245
21623W        W88164  34.579   7.713  14.832
21624W        W88165  41.003  40.543   4.856
21625W        W88166  31.362  17.895   4.133
21626W        W88167  22.091  11.397  13.008
21627W        W88168  40.239   3.810   4.521
21628W        W88169  38.136   2.341   2.291
21629W        W88170   7.724  23.045  13.397
21630W        W88171   5.504  25.488   1.342
21631W        W88172  40.064  34.559   3.711
21632W        W88173  28.016  26.446  10.167
21633W        W88174  23.625  17.079   4.537
21634W        W88175  38.253  12.528   4.377
21635W        W88176  15.205   0.623   1.845
21636W        W88177   9.363  16.347  12.962
21637W        W88178  23.480  35.723  10.995
21638W        W88179  32.488  12.319   1.592
21639W        W88180  19.753  14.181   3.275
21640W        W88181  24.887  38.757  14.737
21641W        W88182  29.847   1.889  12.229
21642W        W88183  43.542  43.822   1.761
21643W        W88184  44.002  40.109   2.463
21644W        W88185   8.887  41.337   1.855
21645W        W88186  23.464  44.952  11.640
21646W        W88187  25.679  40.348  14.632
21647W        W88188   5.510   9.196  12.401
21648W        W88189  31.894  19.998   2.066
21649W        W88190  26.299   1.048  13.316
21650W        W88191  25.819  11.901  12.430
21651W        W88192  14.600  38.495  10.454
21652W        W88193  33.344   7.692  11.314
21653W        W88194  10.253  39.488   2.664
21654W        W88195  14.823  25.665  12.064
21655W        W88196   1.990  41.072   3.706
21656W        W88197  41.866   3.303   3.126
21657W        W88198  30.549   7.104   0.238
21658W        W88199   0.234  27.990   4.608
21659W        W88200  44.997  15.766  11.640
21660W        W88201  12.084   8.482   2.809
21661W        W88202  27.901  22.800   2.317
21662W        W88203   7.894   3.331   2.582
21663W        W88204   2.256  34.659   0.500
21664W        W88205  32.477  35.028  12.539
21665W        W88206  22.812   3.670  12.044
21666W        W88207  23.090  25.254   3.166
21667W        W88208  21.476  38.097   5.203
21668W        W88209  24.002  11.785   1.211
21669W        W88210   0.400  17.524  12.663
21670W        W88211  21.073  26.470   1.140
21671W        W88212  10.379  39.237  13.857
21672W        W88213  40.586  31.977  13.347
21673W        W88214  21.940  18.162  14.210
21674W        W88215  15.216  22.505  12.545
21675W        W88216  24.753  24.540  14.965
21676W        W88217   2.324  13.288   2.757
21677W        W88218  11.715  26.067   1.596
21678W        W88219   1.528   9.886  13.690
21679W        W88220  28.494  40.970  11.539
21680W        W88221   1.418  27.163   4.045
21681W        W88222  19.487   7.889  11.008
21682W        W88223  28.141  28.172   2.564
21683W        W88224  38.973  17.584   4.023
21684W        W88225   8.910  31.899  11.120
21685W        W88226  37.868  44.474  10.121
21686W        W88227  10.592  44.693   3.761
21687W        W88228  16.262  37.937   3.689
21688W        W88229  22.170  21.092   2.519
21689W        W88230   9.571   5.191  12.752
21690W        W88231  22.202  26.616  10.713
21691W        W88232  20.573  40.207  12.425
21692W        W88233  27.066  11.244   2.391
21693W        W88234   4.415  26.145  14.827
21694W        W88235  35.609   7.577  10.788
21695W        W88236  17.262  18.768  12.126
21696W        W88237  16.269  25.619   4.994
21697W        W88238  40.365  27.112   3.862
21698W        W88239  33.697  27.882  12.919
21699W        W88240  38.211   8.652  12.580
21700W        W88241  12.167  28.678   4.436
21701W        W88242  41.126  20.581   2.755
21702W        W88243   9.966   1.345   1.830
21703W        W88244  16.737  25.907  10.784
21704W        W88245  36.708  32.048  13.090
21705W        W88246  20.132  11.232   5.404
21706W        W88247  14.106  16.264  13.077
21707W        W88248  22.797  41.770  12.854
21708W        W88249  38.311  27.214  12.860
21709W        W88250  40.665  13.192   1.624
21710W        W88251  35.903   5.939   3.246
21711W        W88252  20.682   4.242   0.098
21712W        W88253  26.030  27.609   2.846
21713W        W88254  16.538   3.901  14.430
21714W        W88255  36.870  16.190  11.291
21715W        W88256  16.056  41.931   1.059
21716W        W88257  19.169  21.482  13.264
21717W        W88258   4.293   9.880   1.634
21718W        W88259  36.789  37.999   4.652
21719W        W88260   7.977  21.462   1.864
21720W        W88261  26.006  34.285   4.150
21721W        W88262   3.869  37.055   1.723
21722W        W88263   8.946  17.623   3.987
21723W        W88264  10.795  42.496   1.724
21724W        W88265  20.591  38.190  13.468
21725W        W88266  34.919  27.147  12.789
21726W        W88267  14.751  30.452  11.580
21727W        W88268  24.036  32.609   1.144
21728W        W88269  33.604  44.309   3.720
21729W        W88270  11.290  14.683   0.682
21730W        W88271   3.947   2.300   4.054
21731W        W88272  31.172   1.490   3.312
21732W        W88273   5.791  24.524   1.021
21733W        W88274  36.443   6.520  14.308
21734W        W88275  26.610  18.504  11.198
21735W        W88276   1.857  19.637  10.336
21736W        W88277  25.973  11.814  12.952
21737W        W88278  17.068  14.032  10.001
21738W        W88279  11.251  18.612   4.886
21739W        W88280   0.314  16.986   5.039
21740W        W88281  30.308  30.164  11.633
21741W        W88282  36.101  14.413   4.966
21742W        W88283   8.153   7.324  13.746
21743W        W88284  42.413  39.796   0.950
21744W        W88285  34.447  27.797   1.456
21745W        W88286  10.845  15.094   3.061
21746W        W88287  38.500  32.864  11.786
21747W        W88288  37.343   8.116  12.047
21748W        W88289  26.608  37.860  12.815
21749W        W88290  28.669  31.797   3.942
21750W        W88291  32.549   3.223  13.922
21751W        W88292   5.208  20.246   2.351
21752W        W88293  41.453  29.632   0.115
21753W        W88294  34.091  40.113   3.281
21754W        W88295  35.664   1.723  13.998
21755W        W88296  42.500   2.696  10.638
21756W        W88297   2.858  36.971  13.007
21757W        W88298  34.287  14.612  12.882
21758W        W88299  42.256  35.269  12.002
21759W        W88300  42.999   2.740   4.968
21760W        W88301  12.678  34.793  11.227
21761W        W88302  11.834   3.418  14.740
21762W        W88303  14.192  38.067   4.803
21763W        W88304  24.967   8.413   2.839
21764W        W88305   1.018  44.447   2.534
21765W        W88306  30.068   9.138  14.015
21766W        W88307   3.793  23.668   5.397
21767W        W88308  38.527  41.778   0.682
21768W        W88309   1.212   2.897   2.230
21769W        W88310  12.783  35.346  10.614
21770W        W88311   9.372  42.651  11.561
21771W        W88312  13.242  17.265   0.432
21772W        W88313   3.174   8.155  11.164
21773W        W88314  15.194  36.334  12.098
21774W        W88315  15.578  13.683   2.339
21775W        W88316  23.272   4.866  12.493
21776W        W88317  35.060  43.889  13.422
21777W        W88318  41.370  12.771  13.288
21778W        W88319  14.808   8.591   2.337
21779W        W88320  39.423  24.724  11.509
21780W        W88321  23.680  43.201  11.122
21781W        W88322  39.028  42.247  10.701
21782W        W88323  23.660  21.773  14.860
21783W        W88324  19.501   3.443   3.600
21784W        W88325  25.744  28.216   3.262
21785W        W88326  34.719  18.386  11.193
21786W        W88327  31.685  31.125   1.626
21787W        W88328  21.244  16.873  13.295
21788W        W88329  34.654  23.027  11.899
21789W        W88330   3.778   7.141   2.502
21790W        W88331   7.902  12.046   2.031
21791W        W88332  44.803   7.387   1.665
21792W        W88333  39.872  25.922   0.276
21793W        W88334  43.008  43.705  12.582
21794W        W88335   9.701  21.460   0.698
21795W        W88336  35.467  24.513  14.807
21796W        W88337  21.013  18.511   3.654
21797W        W88338  12.573   8.210  10.731
21798W        W88339  25.858  20.000  10.917
21799W        W88340  19.688   7.881   4.357
21800W        W88341  23.258  36.321   2.762
21801W        W88342   6.928  41.937  12.511
21802W        W88343  29.652   7.955  14.093
21803W        W88344  44.358  12.737   0.046
21804W        W88345  28.685   5.542   1.964
21805W        W88346  29.204  10.313   4.762
21806W        W88347  43.372  36.717  14.778
21807W        W88348  14.212  38.553  12.065
21808W        W88349  24.889  11.736   0.953
21809W        W88350  38.147   3.724  10.838
21810W        W88351  39.890   5.347  11.606
21811W        W88352  44.390  43.747   3.750
21812W        W88353   0.974  43.349  13.591
21813W        W88354  32.308  22.502  11.162
21814W        W88355   8.369  25.022   0.994
21815W        W88356   4.467  17.998   1.671
21816W        W88357  38.851  14.269  13.119
21817W        W88358   1.704   0.050  11.179
21818W        W88359  42.965   0.981  13.960
21819W        W88360   7.855  43.727  12.059
21820W        W88361  22.998  30.966  12.187
21821W        W88362   0.454   5.636   1.738
21822W        W88363   7.114  25.452   4.608
21823W        W88364  11.798  14.444  14.842
21824W        W88365   3.807  44.478   3.738
21825W        W88366   8.422  27.191   4.250
21826W        W88367  15.261   8.301  12.825
21827W        W88368  32.452  39.770  10.703
21828W        W88369   0.904  34.494  13.007
21829W        W88370  43.275   3.606   4.229
21830W        W88371  10.396  11.695   2.846
21831W        W88372  38.063  31.539  12.710
21832W        W88373   4.161  18.584  10.706
21833W        W88374  34.386  23.443   1.609
21834W        W88375  19.661  14.562  12.051
21835W        W88376  27.138  27.138  10.785
21836W        W88377  32.908  33.141   3.751
21837W        W88378  19.008  28.617  13.424
21838W        W88379  30.086  16.144   3.230
21839W        W88380   9.993   8.825   4.189
21840W        W88381   7.422   3.836   0.489
21841W        W88382  27.025   7.760  12.731
21842W        W88383  22.027  16.816  12.933
21843W        W88384  16.530  34.453  13.861
21844W        W88385  23.531  36.874   0.420
21845W        W88386   5.755  24.931  12.070
21846W        W88387   2.164  22.673  10.103
21847W        W88388   1.775  22.279  14.934
21848W        W88389   8.844  26.695   0.359
21849W        W88390  33.882  36.464   0.442
21850W        W88391  15.636  35.470  11.585
21851W        W88392   9.901  21.071  14.434
21852W        W88393  29.561  10.398   0.993
21853W        W88394  13.742   7.152   3.111
21854W        W88395   2.362   0.982  13.526
21855W        W88396  32.468  11.777  11.067
21856W        W88397   6.098  28.208  13.824
21857W        W88398   3.777  44.930   4.764
21858W        W88399  31.879  27.128  12.576
21859W        W88400   4.234  13.361   2.431
21860W        W88401  28.382  30.596  12.001
21861W        W88402  40.861   1.767  13.484
21862W        W88403  11.705  18.369   5.000
21863W        W88404  32.914  12.586   2.381
21864W        W88405  16.313  29.712   3.291
21865W        W88406  34.094   5.852  14.741
21866W        W88407  26.437   6.612   4.091
21867W        W88408  40.085   9.427   3.939
21868W        W88409  13.314  10.732   0.891
21869W        W88410   8.226  38.012   9.899
21870W        W88411  20.043  11.677   0.754
21871W        W88412  42.799  16.604   1.574
21872W        W88413  10.129  30.923  14.517
21873W        W88414  31.455  13.155   3.676
21874W        W88415  12.384  35.941  14.308
21875W        W88416  37.955   0.066   2.296
21876W        W88417  13.448  19.091   1.449
21877W        W88418  44.847  16.513   3.220
21878W        W88419  26.014  11.212   3.499
21879W        W88420   8.487  13.618   2.312
21880W        W88421  27.414  23.864   3.718
21881W        W88422  38.597   2.332   3.546
21882W        W88423  40.930  37.521   0.950
21883W        W88424   0.668  44.167  12.036
21884W        W88425  22.489  25.045   4.318
21885W        W88426  27.705  32.004   4.954
21886W        W88427  12.358  24.665   3.692
21887W        W88428  16.217  44.469   2.369
21888W        W88429  32.098   5.972  14.593
21889W        W88430   5.216  26.938   4.119
21890W        W88431  25.230  20.204   3.411
21891W        W88432  12.260   1.024   4.713
21892W        W88433  29.720  10.580   0.192
21893W        W88434  20.500  30.633   0.808
21894W        W88435  41.361  22.014   4.709
21895W        W88436  41.314  10.378   2.845
21896W        W88437   5.444  22.240  11.130
21897W        W88438   1.905  35.558   0.462
21898W        W88439   7.752   3.643   1.711
21899W        W88440   5.586  26.538   4.082
21900W        W88441  36.518   5.419   2.312
21901W        W88442   5.386  33.976  13.539
21902W        W88443  27.703   5.833   3.051
21903W        W88444  19.274  33.727  13.172
21904W        W88445   7.480   6.645   0.420
21905W        W88446  38.199  16.272   3.254
21906W        W88447  25.658   3.612  10.210
21907W        W88448  20.179  18.334  11.664
21908W        W88449   5.766  16.509  13.929
21909W        W88450  26.542  42.236   0.466
21910W        W88451  35.625  34.783  14.288
21911W        W88452  27.381  12.980   4.939
21912W        W88453  34.733  29.971  10.885
21913W        W88454  28.389  19.181  14.046
21914W        W88455  36.759   6.290  11.984
21915W        W88456  22.832  22.461  13.635
21916W        W88457  21.068   6.915  12.523
21917W        W88458  28.659  34.500   2.842
21918W        W88459   6.834  27.568  11.863
21919W        W88460  40.635   9.131   0.939
21920W        W88461  10.344   4.434   4.376
21921W        W88462   8.285  17.334   2.280
21922W        W88463  14.443  40.970   3.661
21923W        W88464   7.806  14.859   3.080
21924W        W88465  43.365   6.242  12.698
21925W        W88466  15.153  41.488   0.752
21926W        W88467   0.918  38.129   0.645
21927W        W88468  17.528  33.005  12.618
21928W        W88469  26.361  29.936   4.318
21929W        W88470  40.407  44.998   2.143
21930W        W88471  23.694   7.760   4.089
21931W        W88472   6.342   0.282   4.805
21932W        W88473  32.142  30.028  10.682
21933W        W88474  14.234  14.468  12.660
21934W        W88475  26.659  42.028  10.632
21935W        W88476  23.538   5.334   1.299
21936W        W88477  23.732   9.413  14.001
21937W        W88478  36.309   5.727  12.769
21938W        W88479  40.025  41.921  11.649
21939W        W88480  25.677  35.818   0.437
21940W        W88481  19.675  22.048   2.036
21941W        W88482  22.618  15.272   5.280
21942W        W88483  27.278  24.421  12.549
21943W        W88484  15.176  26.253  13.969
21944W        W88485   2.249  23.895   3.114
21945W        W88486   2.359  39.831  13.374
21946W        W88487  33.803  22.730   0.682
21947W        W88488  32.913  44.047  13.847
21948W        W88489  34.849   6.288   5.153
21949W        W88490  41.739  17.208   2.311
21950W        W88491  15.993  32.402   1.418
21951W        W88492  41.288  32.384  10.695
21952W        W88493  42.436   6.414  14.556
21953W        W88494  22.674  28.554   0.317
21954W        W88495   2.058  41.770  14.578
21955W        W88496  38.048  40.855  10.659
21956W        W88497   7.944  29.114   1.160
21957W        W88498  21.957  29.507  14.364
21958W        W88499  37.565  41.958  13.062
21959W        W88500  29.289  14.228  11.617
21960W        W88501  14.542   0.781  13.425
21961W        W88502  37.564  38.555   3.929
21962W        W88503  12.286  18.709   3.852
21963W        W88504   4.212  14.888   0.285
21964W        W88505  26.479   0.881  14.844
21965W        W88506  18.093  35.929  14.984
21966W        W88507   0.794  26.928  13.148
21967W        W88508  32.221  25.727  13.714
21968W        W88509  26.086  13.821   1.302
21969W        W88510   5.926  18.952   0.761
21970W        W88511   6.663  10.750   2.342
21971W        W88512   3.838  10.011  10.753
21972W        W88513  18.514   3.926   1.253
21973W        W88514  23.524  29.370   0.752
21974W        W88515  43.582  24.581   0.691
21975W        W88516  28.949  21.285  10.141
21976W        W88517  14.524  12.231  12.840
21977W        W88518  23.245  14.866   2.957
21978W        W88519  28.152  16.210  13.067
21979W        W88520  10.696  18.240   0.117
21980W        W88521   1.510  27.990  14.032
21981W        W88522  11.536  21.176   1.225
21982W        W88523  40.860  42.469   1.836
21983W        W88524  32.457  17.930  12.343
21984W        W88525   4.729  32.142  12.382
21985W        W88526  19.553   3.256   4.109
21986W        W88527  26.059  26.448  14.149
21987W        W88528  19.749  42.622  11.237
21988W        W88529  12.003  12.689  13.322
21989W        W88530  40.989  24.427  12.067
21990W        W88531  23.735  17.734   1.660
21991W        W88532  23.030  17.069   0.788
21992W        W88533  42.010  39.989   2.142
21993W        W88534  34.957   5.543  13.423
21994W        W88535  39.495  40.772   0.969
21995W        W88536  15.541   9.280   1.776
21996W        W88537   0.704  44.356   4.630
21997W        W88538  25.482  33.046   3.814
21998W        W88539   6.710  23.969  14.813
21999W        W88540   2.098  42.490   2.189
22000W        W88541  20.224  37.786   5.033
22001W        W88542   0.224  40.782   2.267
22002W        W88543  27.945  13.741   0.990
22003W        W88544  27.168  20.575   0.479
22004W        W88545  30.030   8.768  13.207
22005W        W88546  35.929  33.546  13.482
22006W        W88547   6.865  32.681   1.526
22007W        W88548  10.785   9.727  13.503
22008W        W88549  10.779  33.506  11.747
22009W        W88550  13.630  10.412  11.753
22010W        W88551  40.456  34.836   1.014
22011W        W88552   0.903  22.282   0.510
22012W        W88553  16.050   1.815   0.035
22013W        W88554  30.594  37.905   0.300
22014W        W88555   5.162  38.354  10.594
22015W        W88556  44.132  27.663  12.418
22016W        W88557  23.547  36.600  14.958
22017W        W88558  29.681   6.712  12.405
22018W        W88559  12.804  10.722   0.880
22019W        W88560  40.469  24.446  13.845
22020W        W88561   4.693  25.659   4.155
22021W        W88562  43.745  34.109  10.780
22022W        W88563   5.877  21.695   2.787
22023W        W88564  22.430  33.002  12.148
22024W        W88565  33.411  41.723  14.729
22025W        W88566  17.106   5.350  10.345
22026W        W88567  28.931   2.709   4.113
22027W        W88568  27.935  41.631  12.628
22028W        W88569  42.336  34.541   3.843
22029W        W88570  29.566  14.277   1.855
22030W        W88571  21.154  44.276  10.831
22031W        W88572  13.583   4.992   0.385
22032W        W88573   0.615  36.585  11.668
22033W        W88574   7.712   8.657   9.990
22034W        W88575  33.364   0.003   4.588
22035W        W88576  10.870  44.410   2.929
22036W        W88577  36.297  39.067   0.412
22037W        W88578   2.839  33.817   2.370
22038W        W88579   9.121  30.396   4.116
22039W        W88580   7.909   5.904  13.324
22040W        W88581  25.139  12.204   0.968
22041W        W88582  19.335  26.881   3.260
22042W        W88583   0.850  36.305  13.530
22043W        W88584  40.806  40.874   0.495
22044W        W88585   1.731   5.182  12.533
22045W        W88586  16.837  26.361  10.549
22046W        W88587  34.484  14.719   4.920
22047W        W88588  12.546   8.509   3.311
22048W        W88589  32.936   9.331  10.422
22049W        W88590  33.893  25.063  10.702
22050W        W88591  43.738  43.150   3.209
22051W        W88592  31.593  25.422  11.946
22052W        W88593  24.120  30.087   4.247
22053W        W88594  20.222  10.713  12.439
22054W        W88595  35.060  27.099   3.863
22055W        W88596  43.670  10.291   3.578
22056W        W88597   7.623  42.773  10.844
22057W        W88598  28.553   9.985   1.256
22058W        W88599  40.395  19.554   4.983
22059W        W88600  21.829  39.063  11.070
22060W        W88601   1.789  28.236  12.370
22061W        W88602  25.731   0.499   4.234
22062W        W88603  17.219   2.639  11.438
22063W        W88604   6.368  16.270   2.187
22064W        W88605  30.577  18.612   2.765
22065W        W88606  32.865  13.730  14.461
22066W        W88607  31.891  24.217  11.458
22067W        W88608   6.466   8.418   5.094
22068W        W88609  38.556  36.387   1.285
22069W        W88610  26.226   3.253   1.678
22070W        W88611  25.032   9.949   3.136
22071W        W88612  30.682   0.209   1.262
22072W        W88613  23.642  40.011   0.017
22073W        W88614  36.765   3.182   5.457
22074W        W88615  36.535  19.317   0.503
22075W        W88616   9.546  14.158   4.166
22076W        W88617  23.936  35.842  11.178
22077W        W88618  40.852   6.457  12.376
22078W        W88619  43.036  40.489  12.126
22079W        W88620  31.154  14.431  12.052
22080W        W88621  21.191  36.012  12.572
22081W        W88622   2.699  42.817  11.529
22082W        W88623  15.094   1.704  12.090
22083W        W88624   9.368  39.865  11.999
22084W        W88625  43.975  30.192   0.022
22085W        W88626  44.882  24.951   1.391
22086W        W88627  10.405  44.049  14.945
22087W        W88628  20.889  15.059  12.694
22088W        W88629  43.738  33.146   1.675
22089W        W88630  17.741  16.480   1.866
22090W        W88631  15.628  39.514  13.587
22091W        W88632  36.965  33.609  14.096
22092W        W88633  38.899  18.640   3.588
22093W        W88634   8.697  36.013  12.869
22094W        W88635  13.392  29.356  14.792
22095W        W88636  18.871  26.184  13.491
22096W        W88637  41.129   0.992   2.758
22097W        W88638  11.938  29.630  11.976
22098W        W88639  28.272  16.638  14.401
22099W        W88640  16.810  44.699  14.008
22100W        W88641  44.017   8.825  14.517
22101W        W88642   0.336  19.351   3.270
22102W        W88643   1.355   1.512   0.974
22103W        W88644   4.592   4.711  10.654
22104W        W88645  41.292  25.519   3.273
22105W        W88646  37.949  23.610  14.504
22106W        W88647  39.532  23.150   0.811
22107W        W88648  28.926  43.325  12.606
22108W        W88649   1.053  22.269  13.414
22109W        W88650  19.649   9.928  11.095
22110W        W88651  24.928  13.792   3.115
22111W        W88652   2.515  23.127  10.293
22112W        W88653  37.243   6.566  13.583
22113W        W88654  30.089  44.894   1.719
22114W        W88655  14.621  24.228   2.043
22115W        W88656   7.762  31.837   3.072
22116W        W88657   8.998  41.513  13.953
22117W        W88658  22.283  36.615  13.952
22118W        W88659  20.666  37.970   1.495
22119W        W88660  11.784   0.692  14.371
22120W        W88661   0.844   8.378  10.817
22121W        W88662  41.466   8.487   0.836
22122W        W88663  14.224  19.983  11.102
22123W        W88664  44.905  25.837  14.348
22124W        W88665   1.613   5.917   0.414
22125W        W88666  28.596  11.753   4.100
22126W        W88667   0.852  42.943  10.721
22127W        W88668  20.213  23.177   4.170
22128W        W88669  25.448   6.184   3.358
22129W        W88670  35.382  32.236   1.426
22130W        W88671   5.354  28.615  10.646
22131W        W88672  12.808  13.393  11.633
22132W        W88673  40.377  31.888  10.741
22133W        W88674  41.833  13.626  13.818
22134W        W88675  10.619   8.693   1.964
22135W        W88676   7.217  18.457   4.546
22136W        W88677  26.432  40.869   2.273
22137W        W88678  32.420  18.838  11.223
22138W        W88679  38.390  13.627  11.968
22139W        W88680  15.977  13.882   9.914
22140W        W88681   7.623  14.105  13.349
22141W        W88682   5.399  17.353  11.756
22142W        W88683  34.574   1.307  14.760
22143W        W88684   7.092   3.390   2.033
22144W        W88685  29.462  40.320  13.871
22145W        W88686  31.732   1.317   1.281
22146W        W88687   0.120  12.803   2.563
22147W        W88688  17.255   5.472   0.074
22148W        W88689  18.518  31.200   5.087
22149W        W88690  41.435   6.697  11.206
22150W        W88691  22.533  12.671  13.845
22151W        W88692  42.033   9.122  12.493
22152W        W88693  32.460  18.055  14.983
22153W        W88694  25.021  12.896  14.575
22154W        W88695  30.768  10.679   5.434
22155W        W88696   3.911  11.887  14.874
22156W        W88697  26.208  32.296   3.095
22157W        W88698  36.877   8.270   0.731
22158W        W88699  37.837  39.734   2.463
22159W        W88700  38.828  11.198  14.176
22160W        W88701  31.320  19.420  10.641
22161W        W88702  43.390   7.377  14.908
22162W        W88703   7.689  13.128  11.601
22163W        W88704  26.205   0.071  11.444
22164W        W88705  34.586   1.418   9.869
22165W        W88706  33.262  10.525  11.032
22166W        W88707  28.817  30.324  12.917
22167W        W88708  34.607  12.851   1.419
22168W        W88709  27.982  32.047   3.705
22169W        W88710  22.737  32.215   9.969
22170W        W88711   0.289  32.069  11.894
22171W        W88712  34.033  17.429   1.624
22172W        W88713   1.280   8.332  13.465
22173W        W88714  39.021  32.681   0.878
22174W        W88715  35.439   3.262   0.729
22175W        W88716  32.411  41.930   3.026
22176W        W88717   8.450  39.604   3.574
22177W        W88718  14.816  24.606  14.485
22178W        W88719  27.058  24.283  12.096
22179W        W88720  31.579  22.924   2.227
22180W        W88721  24.538  35.046  13.120
22181W        W88722  10.578  12.840   1.475
22182W        W88723  19.701  18.645   2.375
22183W        W88724  15.608  12.220   3.727
22184W        W88725  26.201   4.657   1.300
22185W        W88726  15.666  43.042   0.430
22186W        W88727  11.405  40.920   2.832
22187W        W88728  27.076  29.898  11.502
22188W        W88729  33.897   4.177  11.693
22189W        W88730  30.729  41.123   1.485
22190W        W88731  29.364   4.760  11.930
22191W        W88732  18.766   8.544  14.851
22192W        W88733   2.355  34.782   3.715
22193W        W88734   7.354  40.774  11.099
22194W        W88735  12.979  25.803   2.064
22195W        W88736  23.012  15.285   0.403
22196W        W88737   7.582   3.441  13.830
22197W        W88738  18.583  20.553  11.624
22198W        W88739  41.536  44.062  11.581
22199W        W88740  39.323  10.142   1.971
22200W        W88741  44.811  33.273  14.257
22201W        W88742   5.719  35.851  11.599
22202W        W88743   4.737  30.705  10.931
22203W        W88744   4.157  43.472  14.814
22204W        W88745   8.422  10.587  13.802
22205W        W88746  42.930  19.443   0.202
22206W        W88747  34.338   5.651   3.261
22207W        W88748  22.224   2.495   2.815
22208W        W88749   9.234  31.838   2.309
22209W        W88750  41.026  18.874   5.056
22210W        W88751   4.942  21.180   0.841
22211W        W88752  17.336  32.443  14.559
22212W        W88753   8.136   9.853  14.947
22213W        W88754  33.697  32.510   1.959
22214W        W88755  18.938  24.841  12.460
22215W        W88756  29.818  25.269  12.737
22216W        W88757  16.370  12.246   1.138
22217W        W88758  15.014  32.354   3.283
22218W        W88759  26.916  32.797  13.435
22219W        W88760  32.051   5.822  10.698
22220W        W88761   3.821  14.566  13.985
22221W        W88762  42.364  43.322   0.886
22222W        W88763   7.412  18.694   0.444
22223W        W88764  29.872  19.052   1.343
22224W        W88765  44.188  10.215   3.649
22225W        W88766  31.041  21.245  13.387
22226W        W88767  28.707  18.015   0.331
22227W        W88768   8.383  20.779   1.018
22228W        W88769   2.514  41.361  11.513
22229W        W88770  36.085  15.042   2.413
22230W        W88771  40.726  31.142  11.129
22231W        W88772  30.482   9.774   2.082
22232W        W88773  40.473  19.794  11.210
22233W        W88774  38.145  39.957   3.542
22234W        W88775  25.530  27.811  13.340
22235W        W88776  36.006  31.463   3.420
22236W        W88777   9.688  31.523  13.478
22237W        W88778  29.787  39.537   0.393
22238W        W88779   0.892  23.454  10.446
22239W        W88780  33.186  33.627  12.910
22240W        W88781  25.492  15.828  10.783
22241W        W88782  29.215  30.494   3.367
22242W        W88783  21.714   0.523   9.852
22243W        W88784  26.437  34.041  12.722
22244W        W88785   8.177  24.935   4.305
22245W        W88786  25.338  11.784   3.640
22246W        W88787   4.225  36.171   2.111
22247W        W88788  35.298  30.416  14.002
22248W        W88789  44.930   1.736  14.554
22249W        W88790  19.924  10.872   0.966
22250W        W88791  43.711   2.310  12.442
22251W        W88792  37.650  40.649  14.568
22252W        W88793  19.641   5.012  14.376
22253W        W88794  31.583   4.020  14.351
22254W        W88795  40.434  24.508  12.869
22255W        W88796  43.519  12.185  11.578
22256W        W88797   2.898  20.523  11.721
22257W        W88798  28.497  27.590  11.609
22258W        W88799  33.471  25.147   0.253
22259W        W88800  15.513   0.281  12.423
22260W        W88801  15.649  34.166   0.903
22261W        W88802   5.347  33.242  13.711
22262W        W88803  21.114  42.438  12.950
22263W        W88804  13.158  43.538   0.720
22264W        W88805  42.380   8.832  14.053
22265W        W88806   6.450  13.431   0.043
22266W        W88807  15.275   5.661  12.165
22267W        W88808   3.009   8.243   1.320
22268W        W88809  21.847   0.704  14.291
22269W        W88810  10.580  27.866   2.858
22270W        W88811  33.484  43.651  12.071
22271W        W88812  12.352  14.933   3.096
22272W        W88813   3.571  25.865   4.990
22273W        W88814  17.801  12.826   4.388
22274W        W88815  41.661   2.486  13.302
22275W        W88816  35.039  25.257   3.369
22276W        W88817  15.771  40.993  10.203
22277W        W88818   2.949  15.128   3.083
22278W        W88819  28.650  15.911  10.676
22279W        W88820  33.425  21.312  10.794
22280W        W88821   3.386  41.984  12.198
22281W        W88822  11.822   5.621   2.348
22282W        W88823   4.276   9.883  12.564
22283W        W88824  30.915  42.945  14.065
22284W        W88825  37.361  21.795  11.888
22285W        W88826  23.942  32.938   2.517
22286W        W88827  37.728  36.813  11.322
22287W        W88828  15.838  24.560  10.532
22288W        W88829   4.397  42.893   0.018
22289W        W88830  18.648  37.045  14.735
22290W        W88831  38.006  32.799   1.794
22291W        W88832  23.174  13.670   2.215
22292W        W88833  30.645   0.264  12.434
22293W        W88834   5.986  41.226  13.425
22294W        W88835   2.936   9.763   1.159
22295W        W88836   7.752  22.853   3.760
22296W        W88837   6.762  37.388   1.811
22297W        W88838  42.243  31.346   2.883
22298W        W88839  34.954  21.688  11.928
22299W        W88840  42.356  42.575  12.854
22300W        W88841  44.839  27.907   1.809
22301W        W88842  42.006  11.648   2.600
22302W        W88843  25.145   0.491  10.760
22303W        W88844  37.529  37.550  14.096
22304W        W88845   5.240  11.150  11.462
22305W        W88846  24.301   9.616  13.464
22306W        W88847  28.330  12.789   0.686
22307W        W88848  38.377  32.520   0.047
22308W        W88849  14.979   9.158   3.102
22309W        W88850  12.459  25.138   0.485
22310W        W88851  43.717  34.029  14.355
22311W        W88852  32.607  28.803  10.657
22312W        W88853  29.537  30.526   1.660
22313W        W88854  12.845  44.748  11.152
22314W        W88855   0.796  25.177   4.013
22315W        W88856  41.838  26.902  13.968
22316W        W88857   2.464  44.174  10.161
22317W        W88858  15.235  10.613   3.210
22318W        W88859   1.874  16.622  12.024
22319W        W88860  11.567  10.483   0.464
22320W        W88861  34.053  42.149   4.681
22321W        W88862  19.568  39.755   1.385
22322W        W88863  22.759   6.306   1.652
22323W        W88864  32.966   6.324  13.348
22324W        W88865  28.607  13.905   4.104
22325W        W88866  32.084  33.463   2.760
22326W        W88867  18.766   3.997  11.171
22327W        W88868  38.223  31.016  11.109
22328W        W88869  15.655  36.285  11.155
22329W        W88870  17.442  26.393  14.712
22330W        W88871  17.195   3.314  13.193
22331W        W88872  42.435   6.805  12.860
22332W        W88873  32.509  40.749  11.048
22333W        W88874  25.565   1.903  14.973
22334W        W88875  36.602  31.152   2.661
22335W        W88876  28.229  20.785  12.485
22336W        W88877  39.526  33.738  11.270
22337W        W88878  31.234  22.998  14.936
22338W        W88879  23.203  19.093  14.588
22339W        W88880  44.369  30.670  14.207
22340W        W88881  36.697  27.648  12.159
22341W        W88882  40.452  28.691  13.438
22342W        W88883  28.565  37.412  11.918
22343W        W88884  30.181  23.216   2.792
22344W        W88885  31.447  31.280   0.845
22345W        W88886  42.037   3.528   1.833
22346W        W88887  30.583  28.660  11.597
22347W        W88888   2.401  34.105   2.379
22348W        W88889  43.386  19.776   1.381
22349W        W88890  24.823   4.813  10.266
22350W        W88891  24.498  43.872   4.698
22351W        W88892  38.877  29.566   0.716
22352W        W88893  27.448  29.673   2.807
22353W        W88894  26.175  32.607  11.113
22354W        W88895  24.779  35.321  13.496
22355W        W88896   1.235   8.123   4.093
22356W        W88897  30.561   5.372   3.818
22357W        W88898   1.136  41.503   1.939
22358W        W88899   0.405   8.258   3.218
22359W        W88900  43.427  42.860   4.096
22360W        W88901  12.750  16.464   4.688
22361W        W88902  28.632  24.271   2.273
22362W        W88903   4.599  14.144   4.928
22363W        W88904   6.224  21.125   3.955
22364W        W88905  18.090  41.441   0.277
22365W        W88906   3.513  21.220  11.695
22366W        W88907   8.161   5.850  13.762
22367W        W88908  21.309  33.129  13.891
22368W        W88909  41.301  11.644  12.530
22369W        W88910  27.862  38.522  13.024
22370W        W88911   7.442  38.401  14.284
22371W        W88912  43.169  25.581   1.300
22372W        W88913  43.755  20.096  14.370
22373W        W88914  16.592   6.736  14.356
22374W        W88915  32.572  35.890  14.843
22375W        W88916  42.266  10.608  10.659
22376W        W88917   2.795  38.992   4.976
22377W        W88918   3.432   5.891   4.166
22378W        W88919   6.827  25.429  12.890
22379W        W88920  41.022  36.610   3.202
22380W        W88921  32.901   0.276   4.637
22381W        W88922   7.434  15.845  13.746
22382W        W88923  12.415  40.386  10.507
22383W        W88924  11.889   3.462  13.921
22384W        W88925  26.289  28.943  13.237
22385W        W88926  37.351   6.921   3.933
22386W        W88927  20.017  23.973   2.689
22387W        W88928  37.623  37.425  12.526
22388W        W88929  14.167  20.096  11.628
22389W        W88930  34.622  40.976  11.500
22390W        W88931  36.138  34.868   1.399
22391W        W88932  37.423   8.310   3.184
22392W        W88933  27.660  44.723   2.342
22393W        W88934  17.399  36.496  13.015
22394W        W88935  42.599  41.954   1.324
22395W        W88936  28.419   1.662  13.870
22396W        W88937  15.400  43.882  12.119
22397W        W88938   2.430  38.442  14.656
22398W        W88939  21.600   2.305  11.461
22399W        W88940  32.606  39.631  11.654
22400W        W88941  15.007   4.187  14.108
22401W        W88942   4.168  28.944   0.733
22402W        W88943   6.353   7.912   2.847
22403W        W88944   7.358   5.318   0.929
22404W        W88945  39.192  10.855   0.275
22405W        W88946  22.047   1.380  14.907
22406W        W88947  11.362  30.448  11.122
22407W        W88948  14.328  44.760  14.412
22408W        W88949  15.175  28.344   4.482
22409W        W88950  38.215  20.226  14.474
22410W        W88951   2.717   4.586   4.197
22411W        W88952   5.488   3.171   3.406
22412W        W88953   0.277  21.098  12.950
22413W        W88954  15.225  24.691   1.752
22414W        W88955  23.571   7.823   0.610
22415W        W88956  19.949  20.016   1.804
22416W        W88957  34.889  17.487  13.433
22417W        W88958  23.909  35.526   1.788
22418W        W88959   3.851   7.949   2.827
22419W        W88960  21.767  34.558   0.421
22420W        W88961  25.531  42.430   2.263
22421W        W88962   4.421  27.970  10.079
22422W        W88963  12.574  36.083   0.053
22423W        W88964   4.852  44.731   3.116
22424W        W88965  12.916   1.791   3.521
22425W        W88966  43.562  27.078  12.139
22426W        W88967  30.988  24.073   2.293
22427W        W88968   8.215  19.436   2.695
22428W        W88969  11.875  17.177   5.046
22429W        W88970  12.626   3.850   0.795
22430W        W88971   7.440   2.379  11.110
22431W        W88972  41.886  40.106  13.684
22432W        W88973   0.206   6.860   3.654
22433W        W88974  11.072  19.309  10.508
22434W        W88975  42.402   9.226   0.904
22435W        W88976   5.107  22.954   4.470
22436W        W88977  25.495  39.300   3.657
22437W        W88978  43.258  43.266  12.401
22438W        W88979  40.096   1.845  14.977
22439W        W88980  13.969  32.956   3.728
22440W        W88981  32.670   1.201   1.348
22441W        W88982  44.765  21.985  11.090
22442W        W88983  16.045  15.090  11.240
22443W        W88984  19.157  36.907  14.760
22444W        W88985   7.901  20.547  12.932
22445W        W88986  44.870  12.216   3.053
22446W        W88987  31.838  28.152   2.700
22447W        W88988  26.770  37.411  13.862
22448W        W88989  15.947   6.032   3.306
22449W        W88990  38.908  26.813  14.844
22450W        W88991  14.252  38.376   2.875
22451W        W88992  19.579   1.049  11.093
22452W        W88993   0.306   0.118   3.152
22453W        W88994  13.861  12.336  11.639
22454W        W88995  29.027   3.553   3.538
22455W        W88996  11.682  15.888  11.506
22456W        W88997  33.066  31.573  13.065
22457W        W88998   4.389  12.685   0.865
22458W        W88999  22.938  27.580   0.316
22459W        W89000   7.664   6.008  13.817
22460W        W89001  29.167  29.738  12.046
22461W        W89002  13.071   5.621   2.661
22462W        W89003  19.988  10.727  11.986
22463W        W89004  41.005   8.097  10.580
22464W        W89005   9.346  29.024   4.866
22465W        W89006  43.845  26.991   1.253
22466W        W89007  32.927  21.533  14.337
22467W        W89008  14.173  22.277   4.903
22468W        W89009  35.342  19.817  12.530
22469W        W89010  38.330  16.350  14.005
22470W        W89011  17.073   7.342  14.257
22471W        W89012  42.793  10.784   0.095
22472W        W89013  41.802  36.899  10.501
22473W        W89014  31.563  22.055  13.602
22474W        W89015   3.762  21.503   3.064
22475W        W89016   5.749  19.091  12.950
22476W        W89017   6.566  15.392  14.504
22477W        W89018  13.797  41.225  12.982
22478W        W89019  43.656  34.830  11.569
22479W        W89020  25.666  44.013   0.719
22480W        W89021  26.935  35.613   4.673
22481W        W89022   4.166  44.214  13.576
22482W        W89023   3.399  34.566  14.850
22483W        W89024  43.146  13.897  11.122
22484W        W89025  28.930  13.676  10.556
22485W        W89026  36.349   7.194   2.679
22486W        W89027  38.904  25.135   3.740
22487W        W89028  28.610  21.125  12.390
22488W        W89029  36.181  39.555  10.753
22489W        W89030  41.242  31.515  14.999
22490W        W89031  18.628  20.767   1.857
22491W        W89032  43.605  41.822   1.165
22492W        W89033  18.199  28.521   4.012
22493W        W89034  40.011   7.351  11.908
22494W        W89035  17.773   6.821  13.749
22495W        W89036  43.757  42.332   1.786
22496W        W89037  32.581  12.337   3.100
22497W        W89038  11.391  35.430   0.943
22498W        W89039  34.338  38.810  14.917
22499W        W89040   6.485  19.751  10.218
22500W        W89041  21.166  25.259  12.675
22501W        W89042  12.758   4.140   4.166
22502W        W89043  28.468  11.094  13.868
22503W        W89044  12.872  27.351  14.539
22504W        W89045  15.111   2.349   3.722
22505W        W89046   6.814  24.375   4.589
22506W        W89047  25.991  11.063   2.727
22507W        W89048  28.501  17.848   3.465
22508W        W89049  10.771  14.574  12.297
22509W        W89050   4.133   5.354  11.108
22510W        W89051  39.860  18.040  14.050
22511W        W89052  43.090  34.461   0.349
22512W        W89053  44.298  44.215  12.235
22513W        W89054  11.239  20.740  12.465
22514W        W89055   3.225  13.148  10.769
22515W        W89056  25.759  24.925   4.565
22516W        W89057  44.664   9.712   0.778
22517W        W89058  16.867  12.212   1.382
22518W        W89059  30.502  25.543   3.685
22519W        W89060  41.006  22.540   1.202
22520W        W89061   1.212  21.804  13.562
22521W        W89062  32.167  25.574   2.261
22522W        W89063  23.682   8.220   0.935
22523W        W89064  36.097   8.209  13.295
22524W        W89065  34.998  39.119   5.021
22525W        W89066  14.224  29.893  13.009
22526W        W89067  43.746  28.395  11.903
22527W        W89068  28.103   8.528  11.874
22528W        W89069  41.208   0.235   1.998
22529W        W89070  41.629  27.668  11.217
22530W        W89071  31.699  37.285  14.858
22531W        W89072   2.445  39.763   0.967
22532W        W89073  44.987  12.158  12.575
22533W        W89074  11.034   1.707   1.894
22534W        W89075  42.036  40.820  14.662
22535W        W89076  39.495  12.506   1.281
22536W        W89077   9.405  18.516   2.782
22537W        W89078  24.272  35.400  11.197
22538W        W89079  35.627  12.201  14.832
22539W        W89080  37.916  10.453   0.945
22540W        W89081   3.400   5.317  11.427
22541W        W89082  36.560   1.341  13.420
22542W        W89083  44.551   7.179  11.412
22543W        W89084  29.962  39.354  12.904
22544W        W89085  19.429  24.954  14.420
22545W        W89086  21.583  39.482   2.502
22546W        W89087  16.516  18.151  13.574
22547W        W89088  41.845  36.615  12.115
22548W        W89089  18.039   6.096  14.708
22549W        W89090  44.760  32.129  11.945
22550W        W89091  23.194   5.616   4.020
22551W        W89092  22.598  17.189  12.101
22552W        W89093  33.108  21.230   0.063
22553W        W89094  34.586  44.531   3.234
22554W        W89095   6.251   9.720   1.928
22555W        W89096   6.735  17.760   0.535
22556W        W89097  11.130  25.151   2.939
22557W        W89098  44.821  39.448   1.435
22558W        W89099  36.630  38.760   4.988
22559W        W89100  24.437  19.777  10.270
22560W        W89101  44.292  35.115  13.526
22561W        W89102  41.452  26.422  11.999
22562W        W89103  25.886  30.979   1.981
22563W        W89104  16.300  24.172  12.988
22564W        W89105   1.327  27.041  14.930
22565W        W89106  31.728  32.983  14.378
22566W        W89107  20.162   6.073   4.146
22567W        W89108  37.511  44.172   1.625
22568W        W89109  42.162  19.824  11.738
22569W        W89110  43.576  20.533  14.173
22570W        W89111  32.928  18.852  11.179
22571W        W89112  37.836  11.443  11.093
22572W        W89113  28.962   4.490   1.879
22573W        W89114  43.238  20.076   3.139
22574W        W89115  12.412  30.088   2.254
22575W        W89116  23.253  16.774   1.270
22576W        W89117  37.824   1.466  13.758
22577W        W89118  22.081  28.892  14.928
22578W        W89119  20.582  33.835   2.737
22579W        W89120  30.679   7.742   4.222
22580W        W89121  24.628  10.688   2.894
22581W        W89122   7.135  21.957  12.436
22582W        W89123  10.889  12.303  11.190
22583W        W89124  31.197  34.375  13.429
22584W        W89125   1.015  18.020  14.835
22585W        W89126  18.587  10.745  14.087
22586W        W89127  21.233  15.811  10.247
22587W        W89128  44.703  17.538  14.389
22588W        W89129  21.946   3.004  11.530
22589W        W89130  10.754  10.191   0.368
22590W        W89131  12.934   6.685   0.833
22591W        W89132  37.787   0.054   4.653
22592W        W89133   5.033  21.341  12.063
22593W        W89134  12.249  14.628  14.032
22594W        W89135  15.803   1.538  12.645
22595W        W89136   8.162  18.911   0.872
22596W        W89137  23.270  35.749   4.137
22597W        W89138  37.613   1.616  14.869
22598W        W89139  36.913  30.918   2.272
22599W        W89140  32.675  21.531   1.816
22600W        W89141  32.231  40.508   0.732
22601W        W89142  31.701  25.221   3.370
22602W        W89143  39.835  32.646   4.098
22603W        W89144   8.504  30.703   4.687
22604W        W89145  15.688   9.897  10.268
22605W        W89146  40.488  24.897  10.874
22606W        W89147  29.043  17.791  14.327
22607W        W89148  35.039   3.735  14.420
22608W        W89149  12.296  42.776  14.993
22609W        W89150  28.131  28.467   1.671
22610W        W89151  26.081  36.398   2.576
22611W        W89152  31.826  21.890   0.256
22612W        W89153  32.141  23.664   0.900
22613W        W89154   1.262  10.952   3.159
22614W        W89155   2.364  33.864   2.823
22615W        W89156  26.888   7.325   3.526
22616W        W89157   2.236  13.742  11.491
22617W        W89158   7.051  23.861   2.298
22618W        W89159  40.462   6.376  13.998
22619W        W89160  30.388  20.284  14.460
22620W        W89161  23.676   8.254  12.557
22621W        W89162   2.653  39.387   3.326
22622W        W89163  21.168  28.111   3.714
22623W        W89164  31.059   7.931   0.311
22624W        W89165  25.128  23.704  13.822
22625W        W89166  18.274   7.370   0.362
22626W        W89167  23.370  13.040   0.823
22627W        W89168  11.310   5.677  12.226
22628W        W89169  13.052   3.327  14.479
22629W        W89170  29.876  15.894   4.244
22630W        W89171  15.509  43.339   4.594
22631W        W89172  40.442  40.606  13.986
22632W        W89173  12.929  39.871   0.905
22633W        W89174  22.931  13.647  11.111
22634W        W89175  22.191   3.996   1.384
22635W        W89176  32.408   1.819   2.157
22636W        W89177  16.548  18.577   2.644
22637W        W89178  22.978  43.581  12.542
22638W        W89179  37.847  15.002   2.838
22639W        W89180   2.779  41.666   5.063
22640W        W89181  43.987   3.242   3.106
22641W        W89182  43.779  44.187  11.112
22642W        W89183  35.127   3.286  12.092
22643W        W89184  28.437   1.620   1.668
22644W        W89185  26.304  24.769   3.879
22645W        W89186  42.338  15.491   2.138
22646W        W89187   5.134  41.879  12.146
22647W        W89188  27.267   3.807   2.304
22648W        W89189  29.083  29.550   1.563
22649W        W89190   9.468   1.527   1.674
22650W        W89191  24.136  22.085   4.483
22651W        W89192   5.165  20.926   2.813
22652W        W89193  31.080  14.814   4.008
22653W        W89194  43.644  33.974  12.569
22654W        W89195  14.561  35.684   2.553
22655W        W89196  16.768   4.453  10.606
22656W        W89197  32.605  41.888  13.368
22657W        W89198   3.800  40.792  14.169
22658W        W89199  44.541  34.574  13.464
22659W        W89200  39.073  11.066   4.130
22660W        W89201  21.104  28.617   0.034
22661W        W89202  28.250  24.925   0.443
22662W        W89203  28.257  38.537   4.129
22663W        W89204   7.947  17.876   3.659
22664W        W89205   5.766  36.940  12.127
22665W        W89206  27.030  33.306  14.714
22666W        W89207  27.490  26.834   2.335
22667W        W89208   1.491   4.085  12.165
22668W        W89209  17.263  24.236   4.713
22669W        W89210  38.547  39.071   0.814
22670W        W89211  13.823  15.193   3.296
22671W        W89212  41.531  24.485  12.061
22672W        W89213  32.892  38.004   3.690
22673W        W89214   8.641  39.954   1.288
22674W        W89215   4.309  23.460  13.445
22675W        W89216  29.179  42.452  12.530
22676W        W89217  39.230  10.548  13.882
22677W        W89218   3.411  20.525   3.815
22678W        W89219  39.027   0.612   2.310
22679W        W89220  21.748  17.139   0.510
22680W        W89221   1.820  35.619   2.866
22681W        W89222  38.088  10.273  14.609
22682W        W89223  24.844   6.372  11.854
22683W        W89224  24.060   7.500  10.576
22684W        W89225  24.018   8.172  12.953
22685W        W89226  13.279  30.648  14.941
22686W        W89227  17.335   4.910   1.742
22687W        W89228  22.647  36.398   1.249
22688W        W89229  11.210  28.692  12.899
22689W        W89230  12.173  36.211   2.174
22690W        W89231  40.980   1.511  10.795
22691W        W89232  14.645  17.734  10.730
22692W        W89233  26.383  15.706  10.221
22693W        W89234   0.850  16.464   4.108
22694W        W89235  12.058  15.755   3.339
22695W        W89236   4.238  22.151  13.980
22696W        W89237  18.738  34.354   4.021
22697W        W89238   0.971   5.547  12.982
22698W        W89239  31.443  10.098  12.834
22699W        W89240   4.784  19.142  10.993
22700W        W89241  24.305   3.472  13.435
22701W        W89242  42.054  25.895  12.356
22702W        W89243   4.629   4.466   4.917
22703W        W89244  18.214  24.478  14.911
22704W        W89245   3.025  30.883  11.992
22705W        W89246  22.723  29.914   4.595
22706W        W89247   7.306  32.314  11.569
22707W        W89248  26.615  17.333   4.064
22708W        W89249  16.786   9.076  13.415
22709W        W89250   3.412  41.324  14.353
22710W        W89251  27.382  27.277  14.909
22711W        W89252  15.397   2.964  11.328
22712W        W89253  13.059  15.831  11.648
22713W        W89254  35.105   0.361  12.597
22714W        W89255  14.923  32.239  13.197
22715W        W89256  33.323  31.467  12.405
22716W        W89257  40.575  26.731   4.189
22717W        W89258  18.527  29.919  14.854
22718W        W89259  34.829  23.709   3.231
22719W        W89260   3.941  44.324  11.195
22720W        W89261  16.354   9.420  12.986
22721W        W89262  43.861   0.089  12.033
22722W        W89263  20.533  36.095  13.947
22723W        W89264  16.638  36.439   3.691
22724W        W89265  21.789   6.161  13.506
22725W        W89266  12.569  43.548   0.467
22726W        W89267  30.424  14.234   5.017
22727W        W89268  36.572  22.205   1.277
22728W        W89269  43.936   8.062  11.578
22729W        W89270  31.945   1.189   0.780
22730W        W89271  22.055   5.905   2.135
22731W        W89272  17.234  24.899  11.677
22732W        W89273  26.411  44.998  14.784
22733W        W89274  25.945  27.527  11.482
22734W        W89275  18.758  24.021   2.372
22735W        W89276  10.583  12.135   0.733
22736W        W89277  25.978  38.490   3.923
22737W        W89278  43.966  13.231   4.973
22738W        W89279  12.803   3.114  12.942
22739W        W89280  39.293  22.090   4.182
22740W        W89281   8.395   6.967   3.891
22741W        W89282  38.723  39.350  13.714
22742W        W89283  19.789  29.999   3.921
22743W        W89284  38.569  41.978  10.871
22744W        W89285  24.572  35.860   0.893
22745W        W89286   5.526  41.001  13.340
22746W        W89287  21.680  21.672   0.418
22747W        W89288  38.895  26.151  13.928
22748W        W89289  34.687  13.328  12.454
22749W        W89290  25.599  42.809  12.046
22750W        W89291  34.799  19.618   4.578
22751W        W89292  32.887   6.218   4.611
22752W        W89293   4.404  13.888   0.621
22753W        W89294  41.332  30.030   2.705
22754W        W89295  35.309  36.904   2.673
22755W        W89296  35.506  18.387   1.958
22756W        W89297  17.084  15.764  11.222
22757W        W89298  35.511  30.148  14.838
22758W        W89299   3.771  40.855  11.447
22759W        W89300   4.230  27.555  13.047
22760W        W89301  12.588   2.749  14.981
22761W        W89302  25.679  19.570  13.302
22762W        W89303  23.157  33.824  13.797
22763W        W89304  23.549  38.453  14.023
22764W        W89305  25.929  43.361  12.486
22765W        W89306   9.705  17.646   2.707
22766W        W89307  24.745  13.120   0.944
22767W        W89308  12.133   2.920   2.234
22768W        W89309  44.471   8.499   0.294
22769W        W89310   8.868  11.331   0.621
22770W        W89311  34.831  37.453   3.386
22771W        W89312  32.398   2.221  12.606
22772W        W89313   7.082  15.711   1.328
22773W        W89314   3.081  25.462   9.990
22774W        W89315  26.137  26.639  12.884
22775W        W89316  34.111  22.164   3.143
22776W        W89317  15.499  21.282  14.452
22777W        W89318  37.886  25.637   0.416
22778W        W89319  27.368  10.695  14.697
22779W        W89320  32.455   7.312  12.641
22780W        W89321  13.741  18.572   5.315
22781W        W89322  28.097  23.473   0.182
22782W        W89323  41.559  28.342  10.218
22783W        W89324  13.190  26.258  13.303
22784W        W89325  27.566  31.707  14.064
22785W        W89326  28.017  33.483   0.462
22786W        W89327  15.866  26.738  13.830
22787W        W89328  21.667  14.700   4.375
22788W        W89329   5.314   4.684   2.281
22789W        W89330  26.485  31.353  12.345
22790W        W89331  26.990  22.124   4.148
22791W        W89332  20.172   9.135   3.402
22792W        W89333  26.066   9.139  10.593
22793W        W89334  25.572  17.151  10.554
22794W        W89335  39.889  26.270   2.696
22795W        W89336  42.985  34.122  10.694
22796W        W89337  13.773   9.646   0.215
22797W        W89338  29.514  36.605   2.716
22798W        W89339  25.755  15.164  10.668
22799W        W89340  41.031   3.084   3.739
22800W        W89341  19.228   7.885   4.092
22801W        W89342  21.270  20.364  13.024
22802W        W89343  29.914  35.475  11.547
22803W        W89344  15.072  12.167   3.758
22804W        W89345  37.672  30.508   2.811
22805W        W89346  16.674  12.801  13.535
22806W        W89347  33.709  18.869   2.380
22807W        W89348  30.473  20.103   3.836
22808W        W89349  12.988   4.931   1.499
22809W        W89350  21.263  30.069   2.792
22810W        W89351  10.344   7.829   5.227
22811W        W89352  22.314  31.630  10.793
22812W        W89353  27.120   9.512   0.591
22813W        W89354  39.866  12.707  12.911
22814W        W89355  20.262  44.267   0.654
22815W        W89356  15.819  44.763   0.889
22816W        W89357  28.457  25.728  11.964
22817W        W89358  25.402  36.003   2.187
22818W        W89359  17.384   1.654  14.964
22819W        W89360  31.609  26.300   4.369
22820W        W89361   0.395  40.279   2.209
22821W        W89362  20.567  29.876   4.130
22822W        W89363  28.118  37.958   0.477
22823W        W89364  24.660  20.777  12.540
22824W        W89365  15.133   6.739  11.139
22825W        W89366  32.483  13.168   1.347
22826W        W89367   3.637  16.191   4.258
22827W        W89368  21.580  11.398  11.487
22828W        W89369  29.066  37.093   0.331
22829W        W89370  14.287  25.222   2.259
22830W        W89371  31.493   5.308  14.574
22831W        W89372  18.517  29.727   4.112
22832W        W89373  12.409  27.687   0.197
22833W        W89374   3.901   0.537   3.715
22834W        W89375  30.596   4.428  13.406
22835W        W89376   7.483   6.583   3.300
22836W        W89377  20.585  10.707   4.528
22837W        W89378  35.899  21.113  12.596
22838W        W89379   5.835  23.011  14.301
22839W        W89380  34.334  27.044  11.984
22840W        W89381   6.898  32.146  11.237
22841W        W89382  29.426  33.520  10.793
22842W        W89383  23.307  40.825  12.919
22843W        W89384   0.926  30.399   3.075
22844W        W89385  25.659  11.726  11.925
22845W        W89386  13.945  43.922   0.131
22846W        W89387  17.879  18.364   3.729
22847W        W89388  30.608  38.479   3.253
22848W        W89389  36.984  30.987   0.324
22849W        W89390  31.078   0.274   1.601
22850W        W89391  39.086   0.604  10.059
22851W        W89392   3.268   1.429   0.060
22852W        W89393  42.274  42.384  12.394
22853W        W89394  11.936   2.189  13.315
22854W        W89395  27.660   3.187   1.955
22855W        W89396  30.823  42.831   4.146
22856W        W89397  31.164  11.080  10.581
22857W        W89398   4.882   7.040  10.247
22858W        W89399  14.867  13.695  11.844
22859W        W89400   1.778  35.998  11.908
22860W        W89401   4.513  33.348   2.602
22861W        W89402  16.770  44.450  10.515
22862W        W89403  32.023  41.364   1.183
22863W        W89404  41.433  10.427  12.798
22864W        W89405  11.036  12.616   1.390
22865W        W89406  37.002   6.169  12.915
22866W        W89407  30.469  18.488  10.749
22867W        W89408  43.253  13.082  10.749
22868W        W89409  28.247  32.006   3.193
22869W        W89410  16.179   4.227   0.211
22870W        W89411   9.770  32.595  13.432
22871W        W89412  43.603  32.843  11.088
22872W        W89413   5.688   4.489  13.897
22873W        W89414  17.650  32.018   0.439
22874W        W89415  13.730  17.170   3.799
22875W        W89416   2.740  26.923   3.303
22876W        W89417   8.298  23.266  11.506
22877W        W89418  40.230  17.860   9.938
22878W        W89419  10.608  11.761   4.538
22879W        W89420  41.879  22.306  12.999
22880W        W89421  35.409  44.712   3.412
22881W        W89422   2.033  16.061  11.159
22882W        W89423  13.277  29.572  11.888
22883W        W89424   6.283   0.409   3.261
22884W        W89425  39.900   4.795   4.417
22885W        W89426  44.233  35.533   1.725
22886W        W89427  24.734  11.185  11.267
22887W        W89428  20.993   9.658   2.934
22888W        W89429  11.748   5.989  12.152
22889W        W89430  13.306  21.589   0.719
22890W        W89431  36.463  36.834   0.760
22891W        W89432   2.296  28.250  10.811
22892W        W89433  35.551  10.282   1.891
22893W        W89434  41.043  29.687  13.923
22894W        W89435  31.680  12.935   2.362
22895W        W89436  18.273  27.901  11.183
22896W        W89437   0.235   9.155  13.393
22897W        W89438  43.412  13.858   0.266
22898W        W89439   4.799  15.526   4.363
22899W        W89440   3.707  24.578  12.710
22900W        W89441  26.126   8.166   0.399
22901W        W89442  10.348   3.414   4.603
22902W        W89443  25.227   8.193  13.043
22903W        W89444  39.287  18.322  14.876
22904W        W89445  14.173   8.196   1.821
22905W        W89446  22.524  24.921  12.444
22906W        W89447  37.270  33.255   3.707
22907W        W89448  32.143  27.553   0.434
22908W        W89449  38.851  32.686   4.030
22909W        W89450  20.769  18.364  10.917
22910W        W89451  28.910  28.526   0.870
22911W        W89452  37.692  25.656  10.690
22912W        W89453  29.642  41.035   4.475
22913W        W89454  21.579  37.719  10.881
22914W        W89455   6.175  41.028  14.029
22915W        W89456  13.186  16.212  14.453
22916W        W89457   3.501   3.761  14.958
22917W        W89458  39.957  37.675   3.332
22918W        W89459  17.605  20.088   1.005
22919W        W89460  29.606  31.652   3.756
22920W        W89461   7.297   5.591   3.241
22921W        W89462  17.551  34.607   3.711
22922W        W89463   1.491  33.247   5.133
22923W        W89464  27.098  33.713   4.589
22924W        W89465  22.268  16.361   0.535
22925W        W89466   6.057  12.411   2.061
22926W        W89467   6.447  30.558  14.877
22927W        W89468  27.104  30.881   4.088
22928W        W89469  25.908  14.637  10.610
22929W        W89470  28.987  10.620  13.418
22930W        W89471  10.976  38.478   9.736
22931W        W89472  27.468   6.110   2.238
22932W        W89473   1.827  41.526  13.401
22933W        W89474   7.963   0.434   0.156
22934W        W89475  21.302  35.849  11.463
22935W        W89476   9.825  10.136   4.596
22936W        W89477  34.996  29.808  13.245
22937W        W89478  14.271  13.772  13.963
22938W        W89479   6.892  20.234   4.539
22939W        W89480  39.734  39.751  12.664
22940W        W89481  31.521  17.105  13.776
22941W        W89482  16.701   9.046   1.428
22942W        W89483   1.922  33.988   3.135
22943W        W89484   9.079  40.681   1.657
22944W        W89485   6.172   9.160   0.749
22945W        W89486  36.382  39.279  14.812
22946W        W89487   5.482  10.319   2.308
22947W        W89488   5.006  18.279   4.709
22948W        W89489  24.226  42.360   0.241
22949W        W89490  33.632   6.835  12.901
22950W        W89491  32.214  13.327  12.029
22951W        W89492  37.753  38.813   2.286
22952W        W89493  22.013  42.019   0.366
22953W        W89494   3.827   0.497  12.211
22954W        W89495  38.549  32.085   0.308
22955W        W89496  12.726   7.236   2.223
22956W        W89497   6.781  20.159  14.978
22957W        W89498  37.426   6.921  12.639
22958W        W89499  35.141   9.079  12.002
22959W        W89500  41.317  44.463  11.822
22960W        W89501  40.340  36.431  11.726
22961W        W89502   2.725   8.933  11.978
22962W        W89503  26.034  23.707  11.573
22963W        W89504  15.577  11.247   0.362
22964W        W89505   9.968   1.833  14.523
22965W        W89506  28.948  27.606   4.621
22966W        W89507  14.382  38.524   4.968
22967W        W89508  17.502  15.258   3.171
22968W        W89509  15.685  16.653  14.543
22969W        W89510  13.118  22.111   4.796
22970W        W89511  38.388   7.970   3.295
22971W        W89512  31.929  44.268   4.543
22972W        W89513  43.887  44.056   4.397
22973W        W89514  21.716  32.260  10.652
22974W        W89515  12.844   1.495   3.080
22975W        W89516  14.379  31.258   1.241
22976W        W89517  19.773  24.547  14.562
22977W        W89518  42.362  31.627   1.056
22978W        W89519  37.589  26.565   2.922
22979W        W89520  18.253  19.965   2.693
22980W        W89521  13.836  33.626  14.444
22981W        W89522  27.629   2.432  10.640
22982W        W89523  42.404  38.385   0.622
22983W        W89524  35.179  39.093  14.457
22984W        W89525  10.569  39.397   0.685
22985W        W89526  15.890  35.193   4.871
22986W        W89527   2.795  42.523  13.322
22987W        W89528  18.043  31.992   1.824
22988W        W89529  14.367  23.518   1.500
22989W        W89530   2.447  12.125   4.622
22990W        W89531  32.521   5.433   4.300
22991W        W89532   6.265  17.854  13.399
22992W        W89533  32.315  12.869  13.456
22993W        W89534   2.973   7.949  10.713
22994W        W89535  17.694  36.404   3.273
22995W        W89536  28.407  22.179   0.545
22996W        W89537  38.242  15.320   1.321
22997W        W89538  23.193  40.070  11.134
22998W        W89539  14.615  42.288   1.878
22999W        W89540  30.131  30.135  14.878
23000W        W89541  10.983  23.862  12.043
23001W        W89542   0.221  42.539  13.465
23002W        W89543  10.226  40.314  12.139
23003W        W89544   5.114  35.241  11.164
23004W        W89545  38.839  34.283   0.828
23005W        W89546  16.622  26.991   2.615
23006W        W89547   2.478  40.312   3.589
23007W        W89548   2.964  42.890  14.971
23008W        W89549  18.281  29.031   4.778
23009W        W89550   3.919  38.335   0.090
23010W        W89551   2.404  20.411  12.363
23011W        W89552  36.045  37.475  11.244
23012W        W89553  42.042  15.553   0.730
23013W        W89554  20.987  18.084  13.946
23014W        W89555  36.942  44.174  11.556
23015W        W89556  38.820  15.366   3.899
23016W        W89557  11.740  15.096   4.683
23017W        W89558  37.664   0.925   3.694
23018W        W89559   3.731  33.738   2.679
23019W        W89560  33.529   3.732   1.490
23020W        W89561   1.170  30.196   1.406
23021W        W89562   5.239  25.123   0.383
23022W        W89563  21.154  25.131  14.980
23023W        W89564   2.551  34.308   3.755
23024W        W89565  31.121  27.158   4.180
23025W        W89566  19.983  40.691  13.385
23026W        W89567   6.395   4.630   2.686
23027W        W89568  39.525  29.637  13.275
23028W        W89569  34.777  24.349  12.899
23029W        W89570  16.244  27.080  13.810
23030W        W89571  16.805   8.839  10.948
23031W        W89572  25.168   9.896   1.834
23032W        W89573  15.582   0.459   1.282
23033W        W89574   4.740   1.052   2.707
23034W        W89575  23.093  44.308   3.727
23035W        W89576  29.384  35.872   1.370
23036W        W89577  29.336  29.855   0.249
23037W        W89578  40.980  15.996   3.574
23038W        W89579   4.882  23.789   2.162
23039W        W89580  35.642  24.978   1.497
23040W        W89581  10.265  17.268   1.245
23041W        W89582   6.610  28.093  13.905
23042W        W89583   9.789  20.445   2.754
23043W        W89584  30.132  38.197  13.915
23044W        W89585  34.416  29.221   1.253
23045W        W89586   0.224  28.589   1.713
23046W        W89587  38.120  33.567   1.285
23047W        W89588  31.735   9.845  11.503
23048W        W89589  28.428  41.406  12.564
23049W        W89590  10.314  22.955   3.002
23050W        W89591   1.957  27.769   4.248
23051W        W89592  11.372  34.772  12.968
23052W        W89593   4.910  31.951   3.901
23053W        W89594   3.847  24.197   5.408
23054W        W89595  25.136  10.663   0.332
23055W        W89596  38.761  21.609  11.565
23056W        W89597  32.849  41.462  12.497
23057W        W89598  35.365   5.876  11.140
23058W        W89599  41.325  28.996   0.275
23059W        W89600  20.840  22.042  14.918
23060W        W89601  22.464  32.535  11.310
23061W        W89602  36.354   9.423   4.196
23062W        W89603   4.762  34.124   3.109
23063W        W89604  42.724  30.162  11.623
23064W        W89605  22.366  39.222  11.647
23065W        W89606  22.979  31.510  14.364
23066W        W89607  26.919  33.098  13.837
23067W        W89608   1.298  11.595  14.425
23068W        W89609  42.493   5.325  11.083
23069W        W89610  11.491  16.183  12.967
23070W        W89611  39.746  12.365  14.894
23071W        W89612  38.035  10.007   3.315
23072W        W89613   7.815  28.842  11.445
23073W        W89614  36.069   7.694  13.442
23074W        W89615  14.105  18.431   3.982
23075W        W89616  33.020   0.975   2.684
23076W        W89617  26.882  22.765  11.179
23077W        W89618   7.779  14.736   0.425
23078W        W89619  24.690  38.637   3.352
23079W        W89620  38.562  27.547  10.740
23080W        W89621  38.418  38.375  13.468
23081W        W89622  11.607  22.985  12.721
23082W        W89623  30.206   1.249  12.127
23083W        W89624  37.437  16.275  14.024
23084W        W89625  31.219  14.012   2.551
23085W        W89626  14.058  30.107   2.739
23086W        W89627  27.962  23.084   4.660
23087W        W89628  12.106  18.367   1.408
23088W        W89629  31.159   7.174  11.027
23089W        W89630  39.193  21.096  12.216
23090W        W89631  18.859  10.643   0.473
23091W        W89632  36.861  25.095   4.680
23092W        W89633   3.921  42.952  13.899
23093W        W89634  37.651  33.050  13.451
23094W        W89635  12.631  23.059   4.649
23095W        W89636  33.974   1.314  13.468
23096W        W89637  24.638  34.405  14.756
23097W        W89638   5.654  11.896   0.305
23098W        W89639  17.590   8.739  13.831
23099W        W89640  13.180  11.791   3.931
23100W        W89641  35.046  10.367   1.790
23101W        W89642  43.058  36.234   0.514
23102W        W89643  31.003  33.561  14.301
23103W        W89644  43.356   6.264   3.016
23104W        W89645  15.863  21.240  12.034
23105W        W89646  11.741  33.968   3.588
23106W        W89647  40.087   5.470   3.779
23107W        W89648   3.810  13.679   2.370
23108W        W89649   1.798  20.976  11.146
23109W        W89650  28.700  16.870   4.495
23110W        W89651  30.032  32.214   9.925
23111W        W89652  11.868  33.927   2.823
23112W        W89653  33.519  13.654  12.002
23113W        W89654  34.407  43.870   3.835
23114W        W89655   2.262  37.485   3.108
23115W        W89656  35.975  28.855  12.105
23116W        W89657  30.476  37.339   2.660
23117W        W89658  14.347  43.334  12.403
23118W        W89659   8.364  33.954  11.508
23119W        W89660  30.380  43.093   4.201
23120W        W89661  21.571   5.768   3.562
23121W        W89662   3.449  34.476   1.531
23122W        W89663  32.392  26.253   4.899
23123W        W89664   3.145  18.206   4.876
23124W        W89665   6.094  21.459  11.963
23125W        W89666  39.792   5.732  13.946
23126W        W89667  18.697  27.305  13.890
23127W        W89668  25.738  14.175  10.759
23128W        W89669  37.617  34.082  12.815
23129W        W89670  44.113  10.663  13.115
23130W        W89671  35.460   1.389   3.189
23131W        W89672  32.682  40.811  11.524
23132W        W89673  34.929  37.306   4.193
23133W        W89674  14.038  43.203  10.942
23134W        W89675   4.709  19.690   5.035
23135W        W89676  43.829  42.180  14.407
23136W        W89677  34.374  29.009   2.172
23137W        W89678  23.654  31.959   1.054
23138W        W89679  33.552  26.332   1.716
23139W        W89680   9.866   0.971   1.307
23140W        W89681  36.349  41.425  12.018
23141W        W89682  32.395  20.666   3.606
23142W        W89683  31.609  30.481   2.233
23143W        W89684  13.190  27.391   3.112
23144W        W89685   8.082   9.123  12.027
23145W        W89686  17.757   0.703   1.133
23146W        W89687  29.572  44.437  12.037
23147W        W89688  37.425  39.595  12.405
23148W        W89689  41.049  10.260  13.102
23149W        W89690  31.027  14.455  14.266
23150W        W89691  21.666  22.845  12.191
23151W        W89692  37.402  40.299   4.578
23152W        W89693   8.162  33.359   1.855
23153W        W89694  21.088  26.543   9.983
23154W        W89695  40.361  11.677   4.022
23155W        W89696   2.211  15.761  10.737
23156W        W89697   9.744  25.093  12.049
23157W        W89698  35.498  44.988  12.604
23158W        W89699  26.099  10.571  13.412
23159W        W89700  24.106  32.101  14.371
23160W        W89701  29.143  43.994  14.506
23161W        W89702  37.444   5.781   1.811
23162W        W89703   4.489  29.674   2.321
23163W        W89704  12.307  24.200  13.803
23164W        W89705  16.302  20.585  13.976
23165W        W89706  24.654  12.426  11.149
23166W        W89707  11.631   3.730   3.848
23167W        W89708  42.540  41.828   0.393
23168W        W89709  24.675  32.216   3.143
23169W        W89710   5.282  33.013   4.492
23170W        W89711   9.735  39.350   2.795
23171W        W89712   3.733   3.881   3.587
23172W        W89713  33.248   4.291   0.207
23173W        W89714  26.299  22.650   4.397
23174W        W89715  12.626  26.898  13.180
23175W        W89716  40.118  35.206  11.145
23176W        W89717  15.811  10.334   2.667
23177W        W89718  39.174  43.365   3.225
23178W        W89719  10.143  43.563  14.866
23179W        W89720  13.530  16.982  13.145
23180W        W89721   8.693  29.263   1.783
23181W        W89722   6.912  41.631  13.619
23182W        W89723  16.878  19.593  13.415
23183W        W89724  23.035  35.844   0.929
23184W        W89725  31.856  17.138  14.162
23185W        W89726   6.349  41.904  13.532
23186W        W89727  39.352  24.094  10.434
23187W        W89728   6.356  36.463   1.312
23188W        W89729  43.421  37.028   1.554
23189W        W89730  20.650  41.861  13.209
23190W        W89731  39.697  11.058   4.106
23191W        W89732  18.119  11.710  11.146
23192W        W89733  38.539  41.032  12.830
23193W        W89734  22.895  12.453   4.557
23194W        W89735  20.511   7.853   4.888
23195W        W89736  39.953  31.593  11.745
23196W        W89737  15.848  22.669   0.753
23197W        W89738  31.522  41.441   2.008
23198W        W89739   9.875  26.095  13.461
23199W        W89740  24.218  20.664  11.090
23200W        W89741  29.683  24.383  13.398
23201W        W89742  32.413  16.628  10.691
23202W        W89743  13.634  25.049   4.013
23203W        W89744  43.563   1.153  14.971
23204W        W89745   9.375   0.269   4.215
23205W        W89746  41.890   3.881  14.934
23206W        W89747  10.608  22.191   2.227
23207W        W89748   8.227  36.111   4.610
23208W        W89749  22.178  41.213  14.318
23209W        W89750  36.004  35.284   4.185
23210W        W89751  38.490  42.114  13.966
23211W        W89752  26.983   8.220  11.459
23212W        W89753  34.071  42.898  13.125
23213W        W89754  19.524  27.007  11.585
23214W        W89755  24.530  12.598  13.938
23215W        W89756  36.831   6.561  13.222
23216W        W89757   1.516  34.129  12.453
23217W        W89758  12.361   2.100  12.050
23218W        W89759  30.031  28.485   1.348
23219W        W89760  39.608  40.799  11.182
23220W        W89761  39.344  39.704   1.948
23221W        W89762  38.483  16.530  14.717
23222W        W89763  33.699  34.077   3.305
23223W        W89764  31.781  12.321  14.988
23224W        W89765   1.248  39.542  10.649
23225W        W89766   8.842   1.339   0.069
23226W        W89767  42.869  14.523  11.681
23227W        W89768   7.344  31.842   2.736
23228W        W89769  18.616   9.888   0.581
23229W        W89770  16.310  11.217   2.306
23230W        W89771  16.740  14.616   1.336
23231W        W89772   5.928  20.175  13.401
23232W        W89773  34.323  25.873   0.221
23233W        W89774  24.563  26.524  13.941
23234W        W89775  26.664  41.694  13.773
23235W        W89776  11.348  18.229   2.650
23236W        W89777   5.502   2.234  13.955
23237W        W89778  10.336  20.287  11.065
23238W        W89779  41.985  17.738   3.166
23239W        W89780  41.765  35.468  11.522
23240W        W89781  39.093   2.936   1.840
23241W        W89782   4.803   6.911  12.542
23242W        W89783  29.311   1.756  14.797
23243W        W89784   8.285  34.741  12.528
23244W        W89785   4.902  28.934   0.171
23245W        W89786  27.636  24.767  12.421
23246W        W89787  37.374  22.324   4.263
23247W        W89788  13.252   5.197  13.727
23248W        W89789  21.954   8.831   4.004
23249W        W89790   4.970  12.615  12.864
23250W        W89791  15.299  25.568  12.985
23251W        W89792   0.117  13.598  13.341
23252W        W89793  15.763  24.197   4.988
23253W        W89794  39.898   1.882  10.406
23254W        W89795  28.544  21.107   1.438
23255W        W89796  31.459  14.127  11.446
23256W        W89797  33.438  26.554   3.671
23257W        W89798   3.206  38.413   1.459
23258W        W89799  38.295   5.431   0.373
23259W        W89800  13.200  11.907   2.124
23260W        W89801  11.745   5.483  12.024
23261W        W89802  17.748  30.852  10.180
23262W        W89803  21.081  39.232   0.406
23263W        W89804  43.220  43.412  13.401
23264W        W89805   7.811  15.712  14.514
23265W        W89806  41.125   1.336  14.610
23266W        W89807  32.943  17.539  13.527
23267W        W89808  44.228  34.204   0.740
23268W        W89809  39.196  28.617   2.745
23269W        W89810  17.252  12.649  12.475
23270W        W89811  43.887   6.665  11.168
23271W        W89812  20.252  27.348  11.232
23272W        W89813   8.183  44.633  12.543
23273W        W89814  41.351  16.627   3.520
23274W        W89815   8.118   1.379   3.311
23275W        W89816  14.510  25.745   3.148
23276W        W89817   6.465  39.534  14.409
23277W        W89818  27.714  31.825   0.847
23278W        W89819  31.569  15.258   0.665
23279W        W89820  16.127  24.185  14.267
23280W        W89821  31.592  32.128   1.423
23281W        W89822  13.252   4.120   2.747
23282W        W89823  19.221  40.239   3.612
23283W        W89824  29.759  12.027  11.819
23284W        W89825  27.584  15.118   3.897
23285W        W89826  15.290  41.432  13.449
23286W        W89827  25.155  39.107  13.473
23287W        W89828  25.681   8.357  12.805
23288W        W89829  44.834  24.639   1.898
23289W        W89830  35.825  19.561   3.751
23290W        W89831  23.557  35.651   2.976
23291W        W89832  26.127  38.238   2.894
23292W        W89833  14.328  11.144  14.950
23293W        W89834  39.559  15.619  14.541
23294W        W89835  19.812   3.012   0.954
23295W        W89836  19.278  10.195   2.305
23296W        W89837  41.856  16.938   4.167
23297W        W89838  25.663  16.703   2.259
23298W        W89839  41.072  30.537  13.379
23299W        W89840  15.687  33.317   3.737
23300W        W89841  28.751   9.143   0.804
23301W        W89842   4.117  19.227  13.039
23302W        W89843   7.347  26.427   3.312
23303W        W89844   3.198  33.995   4.368
23304W        W89845  21.318  36.956  12.852
23305W        W89846  10.116   1.994  14.000
23306W        W89847  18.989   4.751   3.731
23307W        W89848  30.845  10.200   2.237
23308W        W89849  28.150  37.978  14.515
23309W        W89850  27.083   5.192   3.174
23310W        W89851  23.714  28.489  11.865
23311W        W89852   0.559  38.545  14.053
23312W        W89853  12.312  21.099   0.818
23313W        W89854   5.178  18.990  11.274
23314W        W89855  26.010   3.739  13.859
23315W        W89856  36.887  28.434   2.138
23316W        W89857  38.969  26.419   3.132
23317W        W89858  17.029  27.930  11.859
23318W        W89859  36.334   3.506  14.807
23319W        W89860  19.090  33.560  12.704
23320W        W89861  16.383  18.304   5.058
23321W        W89862   3.558  29.481   0.097
23322W        W89863  42.850  13.372  13.934
23323W        W89864  14.142  24.942   3.307
23324W        W89865  21.035   0.330  14.920
23325W        W89866  34.984   4.822   2.591
23326W        W89867  22.771   5.447   1.784
23327W        W89868  12.273  20.445  14.468
23328W        W89869  13.382  39.410   0.467
23329W        W89870  32.163  36.042  12.071
23330W        W89871   9.702   1.695   0.806
23331W        W89872  24.122  35.097   0.222
23332W        W89873  28.457  34.052  13.951
23333W        W89874  28.017  35.475   0.307
23334W        W89875  42.741  11.756   1.915
23335W        W89876  40.979  21.216   3.773
23336W        W89877  36.761  31.648   2.558
23337W        W89878  28.200  42.962  14.920
23338W        W89879  33.714   8.313   2.685
23339W        W89880  19.126  41.294   0.335
23340W        W89881   2.701  25.755  11.032
23341W        W89882  39.740  36.001  11.441
23342W        W89883  43.834  18.349   0.555
23343W        W89884  30.138  18.157  14.712
23344W        W89885  20.618  21.801  14.488
23345W        W89886  15.011  32.636  10.464
23346W        W89887  17.532   3.199  10.789
23347W        W89888  41.040  30.105  12.486
23348W        W89889  12.835  44.071   2.222
23349W        W89890   4.120   7.013   0.818
23350W        W89891  36.383  17.057   1.674
23351W        W89892  35.130  41.461   5.207
23352W        W89893  43.415  16.212  10.004
23353W        W89894   7.816  19.174   1.306
23354W        W89895   5.951  34.685  11.145
23355W        W89896  32.031  44.926   2.865
23356W        W89897  24.255  18.682   3.411
23357W        W89898  39.811  11.366  10.647
23358W        W89899   6.428   8.716   1.757
23359W        W89900  37.321  10.030  10.775
23360W        W89901  37.548  28.202   4.163
23361W        W89902  23.044  30.596   4.595
23362W        W89903  26.553  11.516   1.047
23363W        W89904  27.956  36.948   2.389
23364W        W89905  20.458  37.660  13.412
23365W        W89906  23.438  16.398   1.920
23366W        W89907  30.193   6.639   4.332
23367W        W89908  41.446  39.551  12.937
23368W        W89909  34.896   1.189   0.632
23369W        W89910   6.271  31.459   3.770
23370W        W89911  10.754  28.056   1.127
23371W        W89912  29.961  12.345   3.638
23372W        W89913  37.494   9.257   1.236
23373W        W89914  44.825   6.764  13.845
23374W        W89915  13.137  11.407  14.561
23375W        W89916  36.027   5.247  10.394
23376W        W89917  37.267  28.334   1.712
23377W        W89918  29.824  28.057   1.871
23378W        W89919   7.442  41.350  10.590
23379W        W89920  25.504   5.732   4.537
23380W        W89921  16.818  31.690  12.070
23381W        W89922  13.353  17.968   0.795
23382W        W89923   2.655   4.217  14.861
23383W        W89924  10.304  38.004  12.934
23384W        W89925  18.006  13.081   0.297
23385W        W89926  19.640  22.306  10.691
23386W        W89927   6.428  26.669  13.078
23387W        W89928  43.903   4.388   0.470
23388W        W89929  21.666   3.502   3.224
23389W        W89930  41.889   6.210   3.570
23390W        W89931  33.763  26.002  12.562
23391W        W89932  37.963  26.097  10.575
23392W        W89933   6.457   9.090  12.449
23393W        W89934  26.603   1.253  10.310
23394W        W89935  34.602  31.675   0.922
23395W        W89936  29.125  17.067  10.962
23396W        W89937  19.848  36.368   5.043
23397W        W89938  15.627  16.958   4.056
23398W        W89939   1.762  37.538  11.720
23399W        W89940  21.309  29.420  11.904
23400W        W89941  13.245   2.165   1.812
23401W        W89942   9.242  37.017   3.099
23402W        W89943  11.184  36.833   1.532
23403W        W89944  25.671  19.688  13.833
23404W        W89945  41.508  20.514   3.119
23405W        W89946   9.444  32.481  11.196
23406W        W89947  35.027  22.484  13.591
23407W        W89948  39.853  44.658  12.297
23408W        W89949  15.746  13.938   2.720
23409W        W89950  19.190   3.875  10.867
23410W        W89951   4.990  16.241   2.709
23411W        W89952   3.653  17.777   1.900
23412W        W89953  10.524  20.794   4.875
23413W        W89954  23.172  34.481   2.179
23414W        W89955  32.849  31.390   4.196
23415W        W89956  22.075  27.628  10.931
23416W        W89957  28.563  38.331   0.805
23417W        W89958   6.508  27.609   3.400
23418W        W89959   2.654  37.187   1.410
23419W        W89960   6.132  19.642   4.637
23420W        W89961   4.493  34.089  12.713
23421W        W89962   9.091  14.150  13.538
23422W        W89963  34.678  15.255  14.108
23423W        W89964  29.936   1.179  13.396
23424W        W89965   5.938   7.939  12.907
23425W        W89966  23.582  32.649   0.884
23426W        W89967  15.879   2.835  11.393
23427W        W89968  14.609  35.077   0.647
23428W        W89969  10.151   2.760   4.451
23429W        W89970  30.967   7.312   4.329
23430W        W89971   7.903  19.764  10.686
23431W        W89972  22.618  36.190   4.565
23432W        W89973  28.007  27.951  14.583
23433W        W89974   1.799  13.628  13.977
23434W        W89975  33.042   6.023   4.122
23435W        W89976  13.554  28.426   3.226
23436W        W89977  10.803  19.931  12.935
23437W        W89978   5.914   5.214   9.836
23438W        W89979  23.423   2.324   2.770
23439W        W89980   3.121  37.116   1.218
23440W        W89981  42.751  19.691   0.764
23441W        W89982  17.048  18.552   2.757
23442W        W89983  37.511  41.438  10.056
23443W        W89984  28.285  29.073  12.981
23444W        W89985  40.926  43.485  14.158
23445W        W89986  12.585  12.678   3.277
23446W        W89987   4.744  37.098  10.528
23447W        W89988  13.568  18.119   2.171
23448W        W89989  19.204  13.315   9.825
23449W        W89990  31.674   6.695  10.452
23450W        W89991  42.067  44.719   4.273
23451W        W89992  13.112  33.445  14.319
23452W        W89993  15.603  23.034  13.920
23453W        W89994  35.887   5.456  13.836
23454W        W89995   8.035   6.134  14.204
23455W        W89996  42.088  43.317   0.332
23456W        W89997  28.778   2.418  12.283
23457W        W89998   9.226  41.810  13.023
23458W        W89999  15.588  22.794  13.003
23459W        W90000   3.280   7.489  12.821
23460W        W90001  32.046  37.358   2.243
23461W        W90002  31.140  32.324  11.567
23462W        W90003  34.060  35.078   0.565
23463W        W90004  26.894  28.176  11.125
23464W        W90005  21.493  33.862  12.471
23465W        W90006   2.731   0.032   0.863
23466W        W90007  44.847  26.747  13.568
23467W        W90008  25.604   7.828   2.927
23468W        W90009  39.740  35.546  11.203
23469W        W90010  43.391  15.244   1.868
23470W        W90011  15.646  27.594   2.403
23471W        W90012  12.053   9.266  10.745
23472W        W90013   6.291  22.914  11.152
23473W        W90014  13.140  43.599   4.208
23474W        W90015  14.986  18.765  11.530
23475W        W90016  34.819  23.620   4.530
23476W        W90017  14.906  34.537   2.549
23477W        W90018  21.443  35.615   3.143
23478W        W90019  20.067  37.989  13.469
23479W        W90020   2.887  36.636   2.867
23480W        W90021  11.568  30.072  12.235
23481W        W90022  18.788   9.657   4.547
23482W        W90023  26.598  17.364   2.337
23483W        W90024  36.976  39.623   1.058
23484W        W90025  24.989  30.017   4.618
23485W        W90026   3.448  31.152   2.929
23486W        W90027   4.893   7.478   2.374
23487W        W90028  43.001  26.588  14.817
23488W        W90029  16.684  21.965  12.052
23489W        W90030  29.785  14.804  10.706
23490W        W90031   3.508  30.581   1.328
23491W        W90032   1.459   8.641   0.515
23492W        W90033   2.229  42.370   4.076
23493W        W90034  14.576  41.037  10.597
23494W        W90035  12.390  32.845   9.730
23495W        W90036  17.678   3.237   2.690
23496W        W90037  13.770  30.394   2.321
23497W        W90038  30.012  28.205  11.934
23498W        W90039   2.724   2.802  14.339
23499W        W90040  35.411  13.821   2.043
23500W        W90041  27.621   6.218  11.799
23501W        W90042  39.577  42.854  12.153
23502W        W90043  32.140  33.948   1.842
23503W        W90044  25.115  34.475  14.402
23504W        W90045   0.019   0.296  12.146
23505W        W90046  14.763  13.729   4.655
23506W        W90047  25.117  31.305   2.939
23507W        W90048  35.829  13.035  14.862
23508W        W90049   3.584   4.937  10.590
23509W        W90050  26.176  36.028  12.646
23510W        W90051  30.498   7.250  13.242
23511W        W90052   3.640  23.519  12.938
23512W        W90053   3.018  11.814  12.116
23513W        W90054  14.996  33.123   3.635
23514W        W90055  32.319   3.862   3.646
23515W        W90056   2.561  26.108  14.284
23516W        W90057  34.447  32.237  14.537
23517W        W90058  31.815   2.720   5.001
23518W        W90059   9.675  32.932  11.141
23519W        W90060   2.166  39.463   3.122
23520W        W90061  37.624  33.633  12.080
23521W        W90062  26.461  13.140   2.884
23522W        W90063   4.488   7.898   3.212
23523W        W90064  25.609  27.979   2.798
23524W        W90065   8.744  43.174  11.975
23525W        W90066  37.475  36.494   3.895
23526W        W90067  41.595   2.812   3.029
23527W        W90068  25.002  34.850  13.546
23528W        W90069  36.350  29.300   3.167
23529W        W90070   8.698   2.735  11.874
23530W        W90071  20.503   7.164   1.381
23531W        W90072  12.302   7.774   3.556
23532W        W90073  34.467   0.529  11.448
23533W        W90074  13.799  40.741  13.138
23534W        W90075   0.619  29.686  12.934
23535W        W90076  38.198  35.011   4.077
23536W        W90077  30.672   4.867  11.138
23537W        W90078  23.729  22.504  12.472
23538W        W90079  21.324  28.139   0.025
23539W        W90080  23.735   2.910  14.383
23540W        W90081  20.173  27.770  14.352
23541W        W90082   8.573   9.680   4.794
23542W        W90083  28.930  36.030   2.611
23543W        W90084  37.342  36.357  13.490
23544W        W90085  37.634   8.093   1.213
23545W        W90086  24.177  16.877   0.501
23546W        W90087  39.794   2.730  11.462
23547W        W90088  38.051  23.589  10.346
23548W        W90089   3.985  16.105   1.735
23549W        W90090   3.705   1.807  13.085
23550W        W90091  11.235  16.833   2.161
23551W        W90092  26.257  38.052  12.462
23552W        W90093  31.614   5.699   0.332
23553W        W90094   9.564  27.369   3.602
23554W        W90095  33.634  32.419  13.045
23555W        W90096  31.435  37.004  12.602
23556W        W90097  18.778  32.505   3.815
23557W        W90098  22.666  19.034   0.382
23558W        W90099  29.856  22.132  14.494
23559W        W90100  30.055  27.103   0.103
23560W        W90101  17.384  41.047  13.917
23561W        W90102  24.231  11.018  11.158
23562W        W90103   4.798  43.537   1.800
23563W        W90104  20.726  14.051   1.348
23564W        W90105  33.407  14.694   2.650
23565W        W90106  20.754  22.793  14.817
23566W        W90107   0.378  42.253  14.375
23567W        W90108  17.929  35.461  13.614
23568W        W90109  26.044  18.123   1.306
23569W        W90110  40.833  20.164  11.150
23570W        W90111  31.757  28.700   2.659
23571W        W90112  18.524   8.226  14.493
23572W        W90113  42.567  29.124   3.143
23573W        W90114   7.619  25.426  13.411
23574W        W90115  23.084  44.916   0.915
23575W        W90116  15.043  21.642   0.609
23576W        W90117   3.841  30.558  11.973
23577W        W90118  24.215  20.056   3.658
23578W        W90119   3.249  40.858  11.592
23579W        W90120   8.323  44.132   3.486
23580W        W90121  33.103  31.174   3.785
23581W        W90122  40.471  30.255  14.129
23582W        W90123  16.151  44.909   3.731
23583W        W90124   7.287  36.985   1.492
23584W        W90125  26.549  11.367  12.593
23585W        W90126  14.305  21.441  11.193
23586W        W90127  25.750   8.638  10.677
23587W        W90128  16.360  13.457   1.885
23588W        W90129  18.337  36.997  12.075
23589W        W90130  13.942  43.909  11.206
23590W        W90131   4.159  37.143   0.889
23591W        W90132  26.859  30.129  13.495
23592W        W90133   1.227  14.884  10.759
23593W        W90134  24.306  34.132  13.009
23594W        W90135  32.637  11.688  10.257
23595W        W90136  41.461  37.638   4.572
23596W        W90137  28.471  17.240   2.123
23597W        W90138  32.570  13.274   0.469
23598W        W90139  32.437  29.673   1.388
23599W        W90140  30.371  26.091   1.944
23600W        W90141  27.242  44.501  13.934
23601W        W90142  24.950   1.216   1.892
23602W        W90143   9.215  18.252  12.902
23603W        W90144  13.145   9.778  11.943
23604W        W90145  18.623  41.869   0.998
23605W        W90146  38.367  44.541  11.127
23606W        W90147  35.822  32.918  14.554
23607W        W90148  41.392   9.277   2.241
23608W        W90149  34.137  34.098   0.442
23609W        W90150  27.069   6.256   4.485
23610W        W90151   2.274  23.475   0.369
23611W        W90152  21.586  31.183   4.776
23612W        W90153  19.432  16.508   1.430
23613W        W90154  23.980  40.289   0.794
23614W        W90155  11.193   8.599   2.108
23615W        W90156   0.745  18.657  11.893
23616W        W90157   3.222  21.527   3.815
23617W        W90158  14.248  31.970  13.946
23618W        W90159  32.148   3.005   2.271
23619W        W90160  26.431  29.479   3.016
23620W        W90161  14.637  26.595   1.789
23621W        W90162   0.518  21.513  10.590
23622W        W90163  22.282  34.336  13.419
23623W        W90164   2.860  34.833  13.306
23624W        W90165  32.667  23.596  12.354
23625W        W90166   6.400  32.205  13.665
23626W        W90167  14.087   1.726   2.380
23627W        W90168  31.939  42.484   3.364
23628W        W90169  17.397  38.401   2.350
23629W        W90170  12.751   2.920   0.459
23630W        W90171  28.761  43.919   0.982
23631W        W90172   3.781  34.661  11.507
23632W        W90173  33.049   5.861   3.617
23633W        W90174  37.115   9.243  11.237
23634W        W90175  17.103  10.170  14.434
23635W        W90176  31.539  10.175   3.399
23636W        W90177  38.189  27.196   1.344
23637W        W90178   1.714  21.046  14.891
23638W        W90179  35.574   5.308   3.162
23639W        W90180  30.027   2.486  14.816
23640W        W90181   4.169  36.564   2.448
23641W        W90182  24.469  40.102  14.865
23642W        W90183  34.585  20.741  14.068
23643W        W90184  41.530  24.704  13.459
23644W        W90185  18.752  34.105  14.401
23645W        W90186  30.919   1.825  12.696
23646W        W90187  12.752  28.093   0.272
23647W        W90188  25.623  31.370  13.290
23648W        W90189  13.185  14.983  12.101
23649W        W90190  44.524  16.783  12.032
23650W        W90191  10.909  34.768  11.614
23651W        W90192  41.881  28.609  10.975
23652W        W90193   4.090  40.765   3.549
23653W        W90194   8.897  32.028  13.370
23654W        W90195  27.980  23.502  14.653
23655W        W90196  15.126   9.202  10.704
23656W        W90197  10.825  25.157  11.701
23657W        W90198  41.643   9.752   0.380
23658W        W90199  14.303  29.156  10.707
23659W        W90200  36.218  21.279  11.656
23660W        W90201  11.677  43.022  12.032
23661W        W90202  13.259  29.290  11.460
23662W        W90203  20.510  10.390  11.439
23663W        W90204  37.655   7.343  14.367
23664W        W90205  24.031  44.101  10.332
23665W        W90206   7.348  38.962  11.659
23666W        W90207  42.181   7.630  11.634
23667W        W90208  38.661  23.956   3.873
23668W        W90209  27.457  41.139   2.905
23669W        W90210   7.536  23.710  10.297
23670W        W90211   2.904  43.578   1.716
23671W        W90212  19.934  39.790   2.455
23672W        W90213   8.636  43.231   1.224
23673W        W90214   2.337   5.197  13.961
23674W        W90215  14.936  27.229   0.185
23675W        W90216  21.901  21.168   0.180
23676W        W90217  31.929  29.506   0.250
23677W        W90218  36.302  34.067  14.809
23678W        W90219  41.294   8.325  11.261
23679W        W90220  19.459  16.834   2.522
23680W        W90221  41.506  34.318  11.254
23681W        W90222  21.748  37.528   1.390
23682W        W90223  35.030  22.272   1.371
23683W        W90224   8.433   2.002   4.107
23684W        W90225   0.027  20.628   1.942
23685W        W90226  30.637  22.449  13.969
23686W        W90227  39.491  27.848  13.367
23687W        W90228   3.821   2.932   2.416
23688W        W90229   4.338  29.474  12.458
23689W        W90230  40.657  42.537   0.246
23690W        W90231  44.774  25.265   0.139
23691W        W90232   9.277  14.356  13.094
23692W        W90233  43.958  35.315   3.714
23693W        W90234  35.721   5.842   2.406
23694W        W90235  24.705  37.267   2.971
23695W        W90236  11.299  29.053  10.707
23696W        W90237  26.658  40.572   4.493
23697W        W90238   6.874   1.034   2.954
23698W        W90239  42.773  11.835  12.432
23699W        W90240  10.211  39.008  14.819
23700W        W90241  33.697  24.558   1.806
23701W        W90242   3.917   2.597   3.487
23702W        W90243   2.931  27.499   1.800
23703W        W90244  15.129   9.378   4.057
23704W        W90245   3.686  36.820  12.496
23705W        W90246   4.348  38.099  12.115
23706W        W90247  32.222   9.138  12.381
23707W        W90248   5.883   9.739   0.064
23708W        W90249   9.056  15.051   2.205
23709W        W90250   5.938   8.784  13.208
23710W        W90251  36.292  30.103   3.919
23711W        W90252  11.183  44.871   3.055
23712W        W90253  15.140  30.584  14.521
23713W        W90254  28.526   2.404   2.340
23714W        W90255   4.979   8.798  11.665
23715W        W90256  33.668  17.716  10.794
23716W        W90257  35.078   6.557   2.445
23717W        W90258  38.321  22.623  12.495
23718W        W90259  43.719   6.708  11.641
23719W        W90260  20.846  30.364  14.013
23720W        W90261  14.949  21.161  11.238
23721W        W90262  14.850   8.426  12.105
23722W        W90263  43.418   1.912   3.540
23723W        W90264  22.598  22.338  11.057
23724W        W90265  43.268   1.995   2.247
23725W        W90266  15.707  33.224   1.730
23726W        W90267   5.963  14.702   4.009
23727W        W90268  20.787  13.543   4.924
23728W        W90269  29.608  30.717   2.166
23729W        W90270  40.899   6.178   0.273
23730W        W90271  38.380  35.300  10.727
23731W        W90272  17.390  14.220   0.003
23732W        W90273   9.899  12.377   0.369
23733W        W90274  43.619   8.638  13.344
23734W        W90275  15.691   7.178  14.754
23735W        W90276  34.621  27.021   4.128
23736W        W90277  27.937  41.383  13.912
23737W        W90278  10.116  16.155   2.541
23738W        W90279   0.355  11.270  13.071
23739W        W90280  31.986  28.530  11.250
23740W        W90281  15.080  29.657   0.338
23741W        W90282  37.601   4.958  11.512
23742W        W90283  11.280  41.331   0.798
23743W        W90284  39.402  21.585  10.640
23744W        W90285  42.924  17.523  13.264
23745W        W90286   1.309   4.338   4.287
23746W        W90287  18.152  12.257   1.759
23747W        W90288   6.628  22.330   3.894
23748W        W90289   9.821   2.251  11.405
23749W        W90290  11.876  39.769   1.814
23750W        W90291  31.407  25.495   1.383
23751W        W90292  30.520  14.297  13.771
23752W        W90293  39.235  21.578  11.174
23753W        W90294  14.204   8.297   2.820
23754W        W90295  41.560  40.558   2.876
23755W        W90296  35.533  36.822   0.867
23756W        W90297   6.676   0.045   3.255
23757W        W90298   4.205  28.036  12.832
23758W        W90299  15.618  30.088   4.836
23759W        W90300  16.122  23.515  13.483
23760W        W90301  42.256  22.725  11.655
23761W        W90302  22.595  40.920   5.113
23762W        W90303   3.777  15.440  11.236
23763W        W90304  31.924  31.408  11.035
23764W        W90305  28.432   4.942  12.118
23765W        W90306  38.451  12.262   3.121
23766W        W90307   5.871  10.788   3.666
23767W        W90308  16.140  19.717  11.923
23768W        W90309   4.393   3.211  11.608
23769W        W90310   9.954   1.491   0.412
23770W        W90311  22.310  11.330  13.464
23771W        W90312  28.879  44.507  12.004
23772W        W90313  35.944  18.733   1.303
23773W        W90314  13.679   2.937  13.779
23774W        W90315  13.472  19.290   3.954
23775W        W90316   0.475  23.051  11.086
23776W        W90317  19.698   9.025   0.041
23777W        W90318  25.136  37.979  10.681
23778W        W90319  33.944  36.926   1.193
23779W        W90320  18.729  13.120  10.647
23780W        W90321   3.394  20.772   3.361
23781W        W90322  23.635  21.099  12.142
23782W        W90323   8.260  37.089  14.846
23783W        W90324  13.052  16.323   3.730
23784W        W90325  15.568  37.764  11.929
23785W        W90326  18.511  19.524   0.901
23786W        W90327  39.807   9.452  13.008
23787W        W90328   6.193  23.560   4.822
23788W        W90329  26.512  31.306  13.287
23789W        W90330  17.299  19.479  14.069
23790W        W90331  41.458   2.810   3.513
23791W        W90332  11.125  11.722  14.569
23792W        W90333  29.468  13.556   2.525
23793W        W90334   2.399  41.667   3.756
23794W        W90335  34.889  15.077   2.712
23795W        W90336  28.487  28.475  12.132
23796W        W90337  44.385  31.426   3.144
23797W        W90338   8.310  14.299  14.873
23798W        W90339  20.498  10.356   3.452
23799W        W90340  28.927  22.674   0.760
23800W        W90341   7.645  13.664   4.945
23801W        W90342  27.396  23.509   2.379
23802W        W90343  39.384  23.501   0.440
23803W        W90344  31.981  40.587  13.010
23804W        W90345  24.114  21.713   3.394
23805W        W90346   0.469  42.720   3.156
23806W        W90347  34.842   1.223  10.692
23807W        W90348  18.610   8.842   4.936
23808W        W90349  18.555  23.393  14.024
23809W        W90350  40.068  28.213  12.011
23810W        W90351  42.836  14.744  10.736
23811W        W90352  39.926   3.187  14.678
23812W        W90353   9.920  19.188   0.481
23813W        W90354   6.347  38.833  13.095
23814W        W90355  30.163  11.136   3.117
23815W        W90356  34.896  14.673  10.718
23816W        W90357   3.435  14.670   1.381
23817W        W90358  35.443  32.519  13.407
23818W        W90359   5.861  30.541  13.574
23819W        W90360  37.407  32.093  11.648
23820W        W90361  44.468   6.668   4.550
23821W        W90362   3.194  37.523  14.382
23822W        W90363   8.825  25.317  11.909
23823W        W90364  44.302  24.719  12.523
23824W        W90365  21.199  12.330   1.779
23825W        W90366   2.542  38.394  12.055
23826W        W90367  37.271  39.846  14.826
23827W        W90368   2.041  10.216   1.137
23828W        W90369  42.995   8.730   2.310
23829W        W90370  21.060  30.083   2.151
23830W        W90371  24.103  42.457  12.697
23831W        W90372  21.956  28.781   3.865
23832W        W90373  18.189  36.249   2.739
23833W        W90374  27.497   7.352   1.831
23834W        W90375  25.482  24.692  12.940
23835W        W90376  14.215   6.147   0.215
23836W        W90377   3.291   0.337  12.985
23837W        W90378  31.922   0.998   0.197
23838W        W90379  43.110  30.542  13.423
23839W        W90380  28.507  21.933  12.433
23840W        W90381  31.578  26.989   3.342
23841W        W90382  22.111   4.041  11.547
23842W        W90383  44.743  16.792  12.530
23843W        W90384   7.859  22.020   4.507
23844W        W90385   2.945  17.851  14.265
23845W        W90386  19.872  33.015  11.288
23846W        W90387  20.588  23.457   2.439
23847W        W90388  21.939   9.281   0.727
23848W        W90389  16.293  34.873  13.089
23849W        W90390  32.026  39.417   3.360
23850W        W90391   5.747  10.377   2.744
23851W        W90392  22.069  40.087  12.697
23852W        W90393  28.558  37.031   0.405
23853W        W90394  29.612  29.824   3.292
23854W        W90395  37.421  10.316   0.338
23855W        W90396  26.626   3.454   0.929
23856W        W90397  10.698  10.492  10.818
23857W        W90398   2.248  27.667  10.795
23858W        W90399  24.143   3.750  11.583
23859W        W90400  27.021  25.037  14.115
23860W        W90401  22.153  27.165   2.962
23861W        W90402  13.044  30.122   5.000
23862W        W90403  34.727  31.965  13.429
23863W        W90404  10.023  40.753   0.969
23864W        W90405  40.638   2.674  14.862
23865W        W90406  29.419   8.138  13.664
23866W        W90407  44.645  18.675   4.432
23867W        W90408  28.015  34.871   2.304
23868W        W90409  42.361  23.559  11.135
23869W        W90410  15.803  27.703   0.866
23870W        W90411  33.296  35.618   0.322
23871W        W90412  23.458  40.615   1.660
23872W        W90413   4.674  43.463   2.729
23873W        W90414  40.131  18.628   1.279
23874W        W90415  13.074  18.220   0.428
23875W        W90416  32.227  40.618  14.394
23876W        W90417  40.421  41.058  13.737
23877W        W90418   0.307  29.385  13.644
23878W        W90419  36.622  12.218   0.725
23879W        W90420  19.285  23.315   3.674
23880W        W90421  31.086   0.780  12.502
23881W        W90422  10.488   3.352   1.691
23882W        W90423  12.155  42.144   3.326
23883W        W90424   3.437  14.812  13.081
23884W        W90425   5.328   1.864   3.596
23885W        W90426   1.492   0.399   4.108
23886W        W90427  42.076  30.431   0.963
23887W        W90428  30.110  40.805  12.884
23888W        W90429  19.645  16.714   4.988
23889W        W90430   5.102  19.009  12.061
23890W        W90431  12.736   3.935   2.700
23891W        W90432  23.544  22.077  14.453
23892W        W90433  23.737  24.994  13.153
23893W        W90434  42.343  40.290   3.213
23894W        W90435  24.025   8.676   0.359
23895W        W90436  12.058  25.601   1.590
23896W        W90437  35.321   6.760  14.813
23897W        W90438  42.584  32.808  12.885
23898W        W90439  31.220   6.778  13.517
23899W        W90440  16.386  26.921   4.115
23900W        W90441   9.399  31.922  13.357
23901W        W90442  41.748  16.540  11.198
23902W        W90443  26.409  16.246  14.065
23903W        W90444   1.349  17.329   4.139
23904W        W90445  38.011  39.797  10.728
23905W        W90446  13.141  37.049  14.366
23906W        W90447  39.084  27.846  14.961
23907W        W90448  13.161   5.461   3.163
23908W        W90449  31.701  16.712   0.700
23909W        W90450  42.794  30.049  14.108
23910W        W90451  11.156   5.249  14.962
23911W        W90452  35.845  43.189  12.314
23912W        W90453  42.552  30.125   4.457
23913W        W90454  26.236   9.333   4.267
23914W        W90455   1.352  27.068   3.048
23915W        W90456  26.130  31.392  14.553
23916W        W90457  42.350  26.771   0.824
23917W        W90458  38.802  44.030   2.715
23918W        W90459  22.566  27.408   4.414
23919W        W90460  35.850  21.375   1.448
23920W        W90461   1.466  25.670  13.070
23921W        W90462  26.178  33.347   0.672
23922W        W90463  10.151   5.114  10.771
23923W        W90464  11.380  36.057   4.270
23924W        W90465  35.827  28.007  14.787
23925W        W90466  26.432  24.461  10.683
23926W        W90467  32.142  29.174   4.163
23927W        W90468  34.097  14.222  10.566
23928W        W90469   9.188  14.799   3.309
23929W        W90470  35.654  21.778   1.742
23930W        W90471   4.289  44.327   3.487
23931W        W90472  14.330  15.331   3.204
23932W        W90473  31.871  33.102  12.925
23933W        W90474   6.640  10.395  14.367
23934W        W90475  41.879  34.580   3.221
23935W        W90476   8.602  17.301   4.637
23936W        W90477  18.581  18.760  13.804
23937W        W90478  43.581  21.669  13.461
23938W        W90479   0.330  41.795   0.858
23939W        W90480  41.369  44.288   4.585
23940W        W90481   4.819   0.480  13.000
23941W        W90482   6.493   6.197  14.646
23942W        W90483  12.315  14.409  12.026
23943W        W90484  27.143  32.081   4.081
23944W        W90485  12.543  14.788  12.281
23945W        W90486  32.683  28.294  10.695
23946W        W90487  28.923  42.920   1.509
23947W        W90488  40.933  38.821  13.905
23948W        W90489  16.837   1.328  10.690
23949W        W90490  42.365  27.245  12.721
23950W        W90491  39.866  35.602   2.928
23951W        W90492   9.153  41.788   5.545
23952W        W90493  15.743  30.645   1.774
23953W        W90494   6.238  23.769   0.887
23954W        W90495   9.837  17.506  13.063
23955W        W90496  18.585  37.850  11.122
23956W        W90497  19.379   5.955  14.440
23957W        W90498  40.334  43.292   0.869
23958W        W90499   3.834  29.667   4.141
23959W        W90500  25.594  34.003  11.195
23960W        W90501  38.038  11.357   3.168
23961W        W90502  38.655   8.364  12.501
23962W        W90503  30.372   4.795   0.422
23963W        W90504  43.709  17.314  12.219
23964W        W90505   6.803  40.803  12.081
23965W        W90506  36.342  25.462  10.638
23966W        W90507   6.483   2.527  13.779
23967W        W90508  33.691  36.152   3.215
23968W        W90509  26.633  32.072   0.036
23969W        W90510  13.276  40.308   3.606
23970W        W90511   4.454   7.244  10.569
23971W        W90512  27.470  11.092  12.142
23972W        W90513  14.785  36.032   0.540
23973W        W90514   8.101  28.162   1.339
23974W        W90515   9.194  36.329   0.343
23975W        W90516   7.779  35.778   1.242
23976W        W90517   2.500  20.009   2.463
23977W        W90518  26.533  28.590   1.171
23978W        W90519  43.463  39.947  11.452
23979W        W90520  44.157  39.691  14.474
23980W        W90521   4.720  37.090  13.812
23981W        W90522   2.346  10.932   0.889
23982W        W90523  32.418  11.885   2.341
23983W        W90524  15.107  27.744  11.514
23984W        W90525   0.054  32.606  13.402
23985W        W90526  15.272  33.947  10.290
23986W        W90527  32.526  26.212   1.711
23987W        W90528   6.731  17.153   2.185
23988W        W90529  42.591  26.963   3.215
23989W        W90530   3.391  25.704   3.627
23990W        W90531  16.782  32.777   4.733
23991W        W90532   9.868  19.101   2.225
23992W        W90533  21.968  20.264  14.400
23993W        W90534  39.551  18.953   4.998
23994W        W90535  36.428   5.743  12.275
23995W        W90536  13.247  11.240  13.505
23996W        W90537  22.904   7.701  14.347
23997W        W90538   1.680  14.669   2.838
23998W        W90539  18.518  27.247   0.479
23999W        W90540  12.542  19.520   3.181
24000W        W90541  37.811  20.613  13.896
24001W        W90542  26.714  25.440  11.590
24002W        W90543  37.914  21.492  13.944
24003W        W90544  31.557   7.223  12.719
24004W        W90545  17.798  10.915  10.614
24005W        W90546   6.508   1.055   2.191
24006W        W90547  27.514  38.331  13.450
24007W        W90548  27.694  11.380  12.532
24008W        W90549  17.286   1.438   4.508
24009W        W90550  27.492  27.778  12.482
24010W        W90551  13.285   5.335   2.284
24011W        W90552  12.908   4.535   1.867
24012W        W90553   5.234  19.238   4.097
24013W        W90554  35.579   9.864  13.362
24014W        W90555  24.860  41.899   4.100
24015W        W90556   3.107  25.576   1.938
24016W        W90557  37.438  15.694   2.292
24017W        W90558  17.247  42.630  14.043
24018W        W90559  22.698   0.503  13.047
24019W        W90560  28.988   6.467  12.952
24020W        W90561  40.486   0.164  14.474
24021W        W90562  44.968  12.763  13.800
24022W        W90563  35.392  43.457   2.171
24023W        W90564  38.856  19.780   0.695
24024W        W90565  15.441   2.192   1.599
24025W        W90566  36.970  37.259   2.917
24026W        W90567  43.829  28.845  13.666
24027W        W90568   6.429  38.993  14.853
24028W        W90569  26.931   5.413   1.222
24029W        W90570  27.025  16.778  12.938
24030W        W90571  11.714  19.309  13.996
24031W        W90572  35.660  39.016  13.530
24032W        W90573  43.975  37.143  14.004
24033W        W90574   5.046  44.002  12.646
24034W        W90575  28.095  19.570  12.831
24035W        W90576   0.657   9.572   2.116
24036W        W90577   7.884  35.310  14.877
24037W        W90578  15.050  30.741  13.652
24038W        W90579  16.184   1.050  14.011
24039W        W90580  36.467  19.602  11.549
24040W        W90581  30.229  14.255   2.482
24041W        W90582  27.637  39.128   2.263
24042W        W90583  27.411  27.810  14.892
24043W        W90584   6.772  27.804  10.418
24044W        W90585  29.383  14.586  12.888
24045W        W90586  10.290  20.860   0.424
24046W        W90587   2.646  27.494   0.675
24047W        W90588  19.162  41.252  11.178
24048W        W90589   4.673  37.361  14.243
24049W        W90590  14.151   9.207   3.672
24050W        W90591  14.736  14.521   0.412
24051W        W90592  21.010  32.679  12.183
24052W        W90593  35.114  44.242  12.660
24053W        W90594  29.241   3.355  10.757
24054W        W90595  26.081  12.573  14.783
24055W        W90596  32.386  13.360  11.545
24056W        W90597  23.371   3.866   0.267
24057W        W90598   8.488  26.629  12.456
24058W        W90599   2.368  14.662   1.032
24059W        W90600  39.927  28.998  14.433
24060W        W90601  44.494  35.469   4.555
24061W        W90602  34.897  29.486  14.881
24062W        W90603  28.423  38.372   4.998
24063W        W90604   5.856  41.811  11.049
24064W        W90605  32.662  43.283   0.464
24065W        W90606  31.619  38.414   2.157
24066W        W90607  39.283  39.924  10.790
24067W        W90608   3.479  20.090  12.985
24068W        W90609   1.034  20.137   4.537
24069W        W90610  23.007  43.415   2.804
24070W        W90611  26.276  34.146   3.721
24071W        W90612  38.056   3.003   1.713
24072W        W90613  13.230   1.488  13.101
24073W        W90614  12.785  11.127  13.247
24074W        W90615   8.189  32.026   4.174
24075W        W90616  30.842  28.051   0.445
24076W        W90617  24.102  11.378  14.816
24077W        W90618  18.783  31.680  14.289
24078W        W90619  21.067  17.149  10.704
24079W        W90620  16.356  44.976  14.078
24080W        W90621  16.919   2.006  13.447
24081W        W90622  36.136  14.600  11.447
24082W        W90623  43.324  25.241  12.919
24083W        W90624  18.163  18.413   1.843
24084W        W90625  32.535  32.997   2.732
24085W        W90626  12.192   9.097  14.560
24086W        W90627  35.563  11.741   2.381
24087W        W90628  16.552  23.501   0.445
24088W        W90629  29.410  19.054   3.784
24089W        W90630  39.765   1.146   2.739
24090W        W90631  38.858   5.647  10.670
24091W        W90632  16.189  40.344  10.634
24092W        W90633  27.019   2.475   2.364
24093W        W90634  18.691   5.835   4.351
24094W        W90635  12.728  12.644  11.023
24095W        W90636  11.742  12.844  11.201
24096W        W90637  38.514  10.745   3.288
24097W        W90638   1.351  25.284  10.742
24098W        W90639  17.100  13.209  14.354
24099W        W90640  14.786  34.034   3.290
24100W        W90641  33.131  40.870  14.184
24101W        W90642  29.526  31.342   3.326
24102W        W90643  24.973  29.118  12.625
24103W        W90644  19.667  10.854   2.249
24104W        W90645   3.923   5.191   0.816
24105W        W90646  26.435  18.285   1.605
24106W        W90647  29.120  41.830   4.405
24107W        W90648  40.556  36.994   3.800
24108W        W90649  19.510   5.404   0.810
24109W        W90650  13.074  39.554  10.618
24110W        W90651  31.125  34.818  11.860
24111W        W90652  36.087  34.887  11.204
24112W        W90653   7.466  43.333   2.801
24113W        W90654  27.604  35.102   0.926
24114W        W90655  42.891  23.186   3.364
24115W        W90656   4.670   3.192  13.412
24116W        W90657  21.881  44.333   0.829
24117W        W90658  39.661  19.463  13.929
24118W        W90659   6.543  11.668  11.158
24119W        W90660  16.063  18.355  13.475
24120W        W90661   4.520  16.358  12.955
24121W        W90662  33.447  29.570   0.680
24122W        W90663  32.063   1.410   3.072
24123W        W90664  21.480   0.440   0.190
24124W        W90665  27.670  10.875   3.329
24125W        W90666  44.896  34.507  11.009
24126W        W90667  42.049  41.716   1.374
24127W        W90668  33.349   6.494   3.235
24128W        W90669   1.431  36.905   2.883
24129W        W90670  17.738  30.665  10.669
24130W        W90671  40.586  11.860   2.680
24131W        W90672  35.204  14.717   5.069
24132W        W90673   9.637   3.709  12.189
24133W        W90674  34.547  17.712   0.838
24134W        W90675  14.064  24.782  11.657
24135W        W90676  33.539  24.731   1.333
24136W        W90677  10.938  36.767  13.535
24137W        W90678   3.627   8.611   3.096
24138W        W90679  11.602  30.039   2.724
24139W        W90680  14.168  40.553   3.777
24140W        W90681  40.879   0.308  13.091
24141W        W90682  26.411  25.241  12.008
24142W        W90683  39.375  22.132  14.393
24143W        W90684  40.616  29.420  13.862
24144W        W90685  27.105  20.537  12.046
24145W        W90686  14.651  33.548  13.533
24146W        W90687  41.335  25.619  13.965
24147W        W90688  23.010  44.740  14.374
24148W        W90689  16.179  15.501   1.281
24149W        W90690  17.322  39.798  14.354
24150W        W90691   7.977  21.455  12.271
24151W        W90692  40.454   9.757   3.797
24152W        W90693  38.250  11.282   1.665
24153W        W90694  30.571  38.938  10.751
24154W        W90695   9.154  27.130  14.065
24155W        W90696  40.301  19.171  12.443
24156W        W90697  43.375  20.342  12.933
24157W        W90698  37.818  35.774  11.218
24158W        W90699  19.856  10.024   4.138
24159W        W90700   7.494   4.864   2.871
24160W        W90701  15.131   2.606   4.184
24161W        W90702  39.127   3.677  10.926
24162W        W90703  24.943  17.326   2.681
24163W        W90704  30.896  15.670   1.751
24164W        W90705  24.962  34.887  12.633
24165W        W90706  30.209  26.298  10.239
24166W        W90707  17.148   2.508   4.688
24167W        W90708  21.122  25.983   3.556
24168W        W90709  13.828   0.367  11.914
24169W        W90710  25.925  37.927  14.898
24170W        W90711  27.417  21.566   4.008
24171W        W90712   7.032  34.135  14.513
24172W        W90713  15.739  10.632  11.634
24173W        W90714  18.029  10.573   3.300
24174W        W90715  22.647  36.332   2.272
24175W        W90716   5.732  18.855   1.244
24176W        W90717   3.636   0.964   0.201
24177W        W90718  32.463  21.533   1.353
24178W        W90719   5.424  28.652  12.999
24179W        W90720   2.841  24.529  13.767
24180W        W90721  40.268   2.354  10.955
24181W        W90722   0.751   5.154   3.294
24182W        W90723  22.415  25.957  12.647
24183W        W90724  17.711  19.302  13.795
24184W        W90725  28.688  22.791   1.855
24185W        W90726  13.801  33.486   0.905
24186W        W90727  27.377  19.207  13.897
24187W        W90728  29.958   4.425  11.150
24188W        W90729  32.066  25.621   3.247
24189W        W90730  34.389  19.676  13.036
24190W        W90731  37.228  32.101  13.079
24191W        W90732  29.666  44.938   2.051
24192W        W90733  34.351  41.002   0.816
24193W        W90734   7.848  12.696   4.764
24194W        W90735  33.438  38.180  13.927
24195W        W90736  32.429  11.422  14.561
24196W        W90737  22.667  25.280   3.455
24197W        W90738   1.388  19.226   4.506
24198W        W90739  11.327  11.679  13.199
24199W        W90740  32.327   3.353  14.364
24200W        W90741  35.127  38.410  11.556
24201W        W90742  43.007   0.585   2.809
24202W        W90743   8.955   9.785  13.200
24203W        W90744  21.008  44.029  12.631
24204W        W90745  32.819   2.811   3.565
24205W        W90746   7.278  11.740  10.751
24206W        W90747  32.599  15.735   2.425
24207W        W90748  32.133  15.526   3.415
24208W        W90749  27.289  43.715  12.113
24209W        W90750  20.099  30.653  11.709
24210W        W90751  18.097  10.930   4.447
24211W        W90752   3.949  37.837  10.548
24212W        W90753  43.864  30.457  14.066
24213W        W90754  25.047  28.020   0.969
24214W        W90755   1.922   4.290   2.153
24215W        W90756   5.020  16.593   3.124
24216W        W90757  42.849  24.081   4.834
24217W        W90758  36.404  21.752  11.496
24218W        W90759  23.255  15.812  12.635
24219W        W90760  33.906  26.406  13.475
24220W        W90761  15.534  21.749   1.885
24221W        W90762  31.912  42.006   3.158
24222W        W90763  31.316   2.846  13.990
24223W        W90764   5.914  39.501  14.555
24224W        W90765  12.531  34.417  12.585
24225W        W90766  29.353   9.850   2.407
24226W        W90767  34.645  25.953   4.118
24227W        W90768  44.227  25.396  11.933
24228W        W90769  35.931  10.873   3.244
24229W        W90770  12.477  13.225  14.128
24230W        W90771  16.578  31.736   0.745
24231W        W90772  19.628   1.837   1.690
24232W        W90773  17.764  17.875   5.015
24233W        W90774  13.747  16.115   4.828
24234W        W90775   9.711  10.816  13.415
24235W        W90776  32.436  27.445  14.854
24236W        W90777  10.860  36.355   2.709
24237W        W90778   4.349  16.362   2.899
24238W        W90779   0.357   6.193  14.885
24239W        W90780  27.009  28.913   3.669
24240W        W90781  16.330   7.530  12.941
24241W        W90782  32.657  21.279   4.568
24242W        W90783  30.200   3.483   4.135
24243W        W90784  12.255  20.885   2.502
24244W        W90785   5.951  30.448  13.099
24245W        W90786   4.959  23.777  12.384
24246W        W90787  19.667  38.087   2.056
24247W        W90788  31.154  41.984   2.029
24248W        W90789  23.981  15.282  14.279
24249W        W90790   9.896  27.049   0.730
24250W        W90791  25.748  19.501   1.759
24251W        W90792  24.962  25.717   3.294
24252W        W90793  14.779  42.819  14.569
24253W        W90794  26.040  28.705  14.853
24254W        W90795   6.605  27.189  12.634
24255W        W90796   8.745  37.732   4.156
24256W        W90797  18.764  40.255   0.732
24257W        W90798  40.060   5.280   1.137
24258W        W90799   3.910  27.733   1.868
24259W        W90800  21.807  27.686  12.263
24260W        W90801   3.441  30.979  14.942
24261W        W90802  40.508  27.557   2.170
24262W        W90803  43.737   9.926  12.539
24263W        W90804  35.487  26.353  14.840
24264W        W90805  18.360  41.323   2.211
24265W        W90806   8.417   5.781  10.740
24266W        W90807  43.860  20.280  12.130
24267W        W90808  15.638   9.511  12.411
24268W        W90809  15.196  15.711   5.012
24269W        W90810  20.463  28.877  13.756
24270W        W90811  15.055  41.071  13.168
24271W        W90812  31.047  36.628   2.743
24272W        W90813   8.612  12.309  14.792
24273W        W90814  29.995  22.792  11.175
24274W        W90815  33.325  19.601   2.152
24275W        W90816   3.799   9.275  12.211
24276W        W90817   1.660  27.271   2.323
24277W        W90818   6.509  44.222  10.694
24278W        W90819  21.339  39.435  13.648
24279W        W90820  37.537  32.369   3.768
24280W        W90821  25.628   1.513   0.490
24281W        W90822  39.471  35.544  13.368
24282W        W90823  35.466  37.261  12.412
24283W        W90824  18.090   2.853  14.755
24284W        W90825  43.512   2.876  10.887
24285W        W90826  30.894   0.904  13.950
24286W        W90827  14.291   6.449  14.265
24287W        W90828  14.288  40.592  10.683
24288W        W90829  41.355  41.336   4.113
24289W        W90830  28.082   0.913   4.082
24290W        W90831   9.563  44.517   1.272
24291W        W90832  44.506   1.895  12.121
24292W        W90833  42.022  44.933   1.508
24293W        W90834  29.650  12.802  12.916
24294W        W90835  26.938  15.857  11.879
24295W        W90836   6.008  40.478   4.123
24296W        W90837  35.003  16.352   1.303
24297W        W90838  18.841  21.148   9.496
24298W        W90839  22.315   2.626   4.577
24299W        W90840  25.557  30.598   0.358
24300W        W90841  19.248  17.067   0.413
24301W        W90842  38.147  11.281   1.162
24302W        W90843  30.647  30.020  14.870
24303W        W90844  44.292  21.820  10.784
24304W        W90845   2.674   6.421   3.733
24305W        W90846  11.866  32.943  14.217
24306W        W90847  35.113  27.616  13.586
24307W        W90848  11.179   8.289   3.733
24308W        W90849  18.862  37.480   4.622
24309W        W90850  11.379   4.186  14.894
24310W        W90851  20.699  25.190  14.719
24311W        W90852  41.852   6.530  14.814
24312W        W90853   4.561  15.224   1.594
24313W        W90854  32.430  39.753  11.204
24314W        W90855  21.656  32.509  13.523
24315W        W90856  39.833  27.083   3.788
24316W        W90857   3.686   5.672  12.824
24317W        W90858  23.841  22.759   1.976
24318W        W90859   7.741  29.039  14.042
24319W        W90860  20.638   0.371   1.311
24320W        W90861   0.043   8.896   2.744
24321W        W90862  11.619  17.671   0.936
24322W        W90863  44.936  25.503  12.471
24323W        W90864  15.635  11.885   2.652
24324W        W90865   3.500  35.400   2.805
24325W        W90866  40.115  44.778  10.635
24326W        W90867  24.132  11.341   2.993
24327W        W90868  16.781  23.232   4.285
24328W        W90869  37.953   8.987  14.800
24329W        W90870  36.049   9.397   4.653
24330W        W90871   2.184  35.486   4.331
24331W        W90872   9.149  41.889  14.274
24332W        W90873  27.180   4.051  11.168
24333W        W90874   6.314  23.578   1.373
24334W        W90875  28.237  23.097   2.987
24335W        W90876  40.066  41.978   1.738
24336W        W90877   3.475  15.598  11.645
24337W        W90878  34.939  16.090  14.886
24338W        W90879   8.947  41.389   1.338
24339W        W90880  34.693  28.752   2.512
24340W        W90881  17.590  34.303  11.608
24341W        W90882  11.365  18.300  12.493
24342W        W90883   8.671   8.823  11.893
24343W        W90884  37.132  31.972   0.387
24344W        W90885  13.356  20.237  12.971
24345W        W90886  30.712   3.672   2.785
24346W        W90887  13.656  18.024   3.351
24347W        W90888  23.991  35.891   2.177
24348W        W90889  25.121  29.981   2.268
24349W        W90890  23.220   4.720  13.362
24350W        W90891  20.169  38.116   4.155
24351W        W90892  40.533  22.821   4.133
24352W        W90893   2.072  28.730   2.338
24353W        W90894   9.899  22.149  11.473
24354W        W90895  31.488  22.726  10.737
24355W        W90896   2.240  35.831  11.227
24356W        W90897  42.994  26.495  14.309
24357W        W90898  29.709  18.228  12.560
24358W        W90899  14.747  23.228  12.211
24359W        W90900  13.762  18.780  10.939
24360W        W90901   6.557  39.098  13.533
24361W        W90902  28.650  40.049  14.811
24362W        W90903  42.373  37.624  12.968
24363W        W90904  30.335  31.461   4.524
24364W        W90905  44.462  32.428   3.196
24365W        W90906  25.604  44.499  11.275
24366W        W90907  34.873   5.411  12.923
24367W        W90908  36.092  13.139   0.771
24368W        W90909  29.361  35.888   0.383
24369W        W90910  19.157  32.987  13.533
24370W        W90911  33.420  23.155   4.346
24371W        W90912   1.701  42.439  10.688
24372W        W90913  18.764  14.791   3.043
24373W        W90914  35.618  21.236  11.684
24374W        W90915  16.251  14.273  13.411
24375W        W90916  10.923  32.619   1.861
24376W        W90917  44.942  35.073  12.994
24377W        W90918  25.492   7.711   0.303
24378W        W90919  28.629  17.567  13.090
24379W        W90920  11.143   4.266   2.452
24380W        W90921  25.692  16.351   0.355
24381W        W90922   0.484  16.072  13.118
24382W        W90923   8.664   3.000   3.470
24383W        W90924   2.370  14.352  12.548
24384W        W90925  11.850  31.859  13.109
24385W        W90926  43.539  19.768   0.244
24386W        W90927  41.537   9.748  11.172
24387W        W90928   5.982  20.960   2.318
24388W        W90929  29.597  17.755  11.129
24389W        W90930  26.688  16.747  13.447
24390W        W90931  34.829  21.499  13.030
24391W        W90932  37.375  26.451  14.107
24392W        W90933   3.529   2.305  12.917
24393W        W90934   0.915  35.113  10.562
24394W        W90935  32.772  15.089  11.980
24395W        W90936  10.947  15.517  10.225
24396W        W90937   6.913  38.031   2.417
24397W        W90938   8.161  30.287  14.537
24398W        W90939   2.407  25.953  14.765
24399W        W90940  19.548   6.317  12.817
24400W        W90941  17.636   1.210   1.286
24401W        W90942  43.827  33.519   2.044
24402W        W90943   0.774  24.444   4.953
24403W        W90944  11.913  35.961   4.740
24404W        W90945  10.776  31.377  14.299
24405W        W90946  14.717  23.555  14.499
24406W        W90947  18.765   2.481  14.205
24407W        W90948   4.263  18.350  14.089
24408W        W90949   2.301  38.769   3.755
24409W        W90950  27.619   6.021  12.260
24410W        W90951  22.513  33.138   3.202
24411W        W90952  28.131  24.984   3.506
24412W        W90953   9.222  33.306  12.113
24413W        W90954  40.637  37.385  12.513
24414W        W90955  40.444  34.491  13.573
24415W        W90956  11.152  13.447   4.074
24416W        W90957  16.653  32.190  14.205
24417W        W90958  20.549  38.006  12.600
24418W        W90959   0.745  18.940   1.791
24419W        W90960  26.695  22.165  13.719
24420W        W90961   6.903  31.576  12.052
24421W        W90962  20.310  17.921  12.874
24422W        W90963  17.368  16.366  13.404
24423W        W90964   8.381  10.628  11.180
24424W        W90965  37.497  39.921  11.969
24425W        W90966  26.033   7.651   0.393
24426W        W90967   8.887   4.182   3.933
24427W        W90968  11.123  18.110  12.932
24428W        W90969  21.762  38.101   4.173
24429W        W90970  24.595  32.116  13.552
24430W        W90971  41.167  22.049  13.424
24431W        W90972  25.088  29.434  13.878
24432W        W90973  32.515  11.148   1.438
24433W        W90974   8.769  24.222  14.057
24434W        W90975  39.340   1.791   3.198
24435W        W90976  27.442  42.507  14.479
24436W        W90977  22.420  33.600   0.515
24437W        W90978  35.645  37.922  14.739
24438W        W90979  38.445  17.054   2.771
24439W        W90980   9.796  27.033   4.676
24440W        W90981  32.623   9.680   0.362
24441W        W90982  13.692  38.014  10.701
24442W        W90983  39.080   8.677  12.982
24443W        W90984   5.276  28.613  10.089
24444W        W90985  17.213  15.336   1.765
24445W        W90986  11.837  16.053  10.502
24446W        W90987  38.896  21.199   4.705
24447W        W90988   5.770  11.349  12.313
24448W        W90989  42.412   8.691   0.580
24449W        W90990   8.294  14.635   0.874
24450W        W90991   9.932   2.435  10.473
24451W        W90992   6.875  28.523   2.084
24452W        W90993  32.954  28.671   4.581
24453W        W90994   8.955   4.402   1.896
24454W        W90995  35.405  37.402  14.453
24455W        W90996  18.062  43.358  12.559
24456W        W90997  17.356  41.266   2.285
24457W        W90998  27.026  41.220  10.555
24458W        W90999  40.872   2.023  14.364
24459W        W91000  17.989  25.509   0.495
24460W        W91001  31.521  26.514   3.082
24461W        W91002   0.149  22.653  12.822
24462W        W91003   3.339  34.885  13.114
24463W        W91004  29.132  29.165   0.189
24464W        W91005  22.726  16.549   3.673
24465W        W91006   5.795  21.869  11.944
24466W        W91007   9.958   9.940  14.376
24467W        W91008  20.842  28.576  11.848
24468W        W91009  35.987  16.865  14.045
24469W        W91010  20.321  36.077  14.851
24470W        W91011  22.162  36.873   4.120
24471W        W91012  18.743   4.825   2.676
24472W        W91013  33.945  43.886   3.606
24473W        W91014   7.606   9.470  12.079
24474W        W91015  15.600  42.765   4.578
24475W        W91016   9.216  13.711   2.803
24476W        W91017   0.764  19.742  10.080
24477W        W91018  22.743  40.653   3.719
24478W        W91019   4.791   5.537  11.588
24479W        W91020  37.528  42.961  12.040
24480W        W91021   3.717  32.593   3.228
24481W        W91022  37.971   1.499   4.321
24482W        W91023  44.827  28.614   3.565
24483W        W91024   5.388  24.079   3.451
24484W        W91025  10.118  18.260  12.893
24485W        W91026  35.651  38.698   4.225
24486W        W91027  15.629  44.174   3.861
24487W        W91028   1.823   2.090   3.546
24488W        W91029  32.132  15.269  13.056
24489W        W91030  24.858  21.421   4.182
24490W        W91031  23.896  32.923   3.011
24491W        W91032  40.836   7.593  11.407
24492W        W91033  44.249  12.268   1.890
24493W        W91034  29.926  31.126   4.142
24494W        W91035   2.145  16.684   1.832
24495W        W91036  28.486  34.057   4.442
24496W        W91037  41.516  37.502  13.847
24497W        W91038  11.593  39.418  11.792
24498W        W91039  19.004  43.371   0.048
24499W        W91040  16.560   8.426   1.051
24500W        W91041  13.706   9.130  10.769
24501W        W91042  33.057  34.238   1.721
24502W        W91043  13.201  19.703   4.164
24503W        W91044  31.472  44.181   1.265
24504W        W91045  19.158   1.733   0.447
24505W        W91046   7.869   5.381  12.430
24506W        W91047  10.878   0.342  13.805
24507W        W91048  13.183  41.260  12.587
24508W        W91049  26.943   0.222  12.127
24509W        W91050   5.742  21.247  13.836
24510W        W91051  21.614   8.959  11.083
24511W        W91052  28.079  12.140   1.265
24512W        W91053   7.240  38.496   2.720
24513W        W91054  43.301  37.849   4.237
24514W        W91055  19.336  29.237   0.718
24515W        W91056  18.533   3.842   2.722
24516W        W91057  17.795  15.343  12.082
24517W        W91058   7.662  42.989   4.201
24518W        W91059  31.547  33.349  12.547
24519W        W91060   6.407   8.326  10.776
24520W        W91061  44.137  19.929  10.135
24521W        W91062  30.061  38.891  14.603
24522W        W91063  20.685  15.139   3.762
24523W        W91064  13.692  40.542   2.718
24524W        W91065  29.173  24.096   3.701
24525W        W91066  41.437  32.593   4.118
24526W        W91067   5.174  21.216   1.907
24527W        W91068  23.788  38.709  13.319
24528W        W91069  25.099   6.854  11.810
24529W        W91070  25.701   9.305  11.194
24530W        W91071   6.930  34.693  12.372
24531W        W91072  26.453  30.445  12.610
24532W        W91073  44.206   2.367   4.632
24533W        W91074   0.756  14.855  14.057
24534W        W91075  39.447   8.564  14.777
24535W        W91076  26.561  32.584   2.835
24536W        W91077  29.669   0.888   1.804
24537W        W91078  27.890  38.911   3.947
24538W        W91079  26.242  28.297  11.105
24539W        W91080  14.792  24.292   2.953
24540W        W91081  41.599   3.808  10.640
24541W        W91082  39.928  34.120   1.308
24542W        W91083  33.540  41.447  13.516
24543W        W91084  30.561  14.630  11.244
24544W        W91085  15.350  35.484  14.473
24545W        W91086  24.934  44.931   1.943
24546W        W91087  43.889  15.128  13.492
24547W        W91088   5.439  15.888  12.066
24548W        W91089  28.280  17.916   5.122
24549W        W91090  27.429  36.498  12.370
24550W        W91091  28.691   3.176   4.099
24551W        W91092  38.012  42.968  14.424
24552W        W91093  27.552  28.267   4.808
24553W        W91094   9.716  14.409   3.764
24554W        W91095  14.162  15.813  13.942
24555W        W91096   1.841  28.220   5.067
24556W        W91097  31.659  41.804  10.530
24557W        W91098   8.066  35.422   2.790
24558W        W91099  19.709  17.693   1.444
24559W        W91100  38.377  32.510  12.130
24560W        W91101  16.890  22.495   1.498
24561W        W91102  41.788   6.630   4.218
24562W        W91103  38.431  25.321   3.576
24563W        W91104  35.075  10.075  13.497
24564W        W91105  44.457  25.317  13.514
24565W        W91106  37.677  44.499  12.916
24566W        W91107  29.157  21.741  11.338
24567W        W91108  21.522  21.672   2.031
24568W        W91109  40.352  38.610   3.146
24569W        W91110  30.026  44.894   2.720
24570W        W91111   3.818   0.401   5.413
24571W        W91112   2.737  32.805   1.496
24572W        W91113  26.148  26.872  14.434
24573W        W91114   5.258  31.881   0.505
24574W        W91115  38.289  41.300   2.299
24575W        W91116   3.598  30.655   0.462
24576W        W91117   3.263  35.037  14.478
24577W        W91118  44.520  26.542  14.834
24578W        W91119  17.091  36.967  11.065
24579W        W91120  14.550  28.222   1.488
24580W        W91121   5.073  33.495   4.586
24581W        W91122  36.779  31.148  13.844
24582W        W91123  32.695  24.343   3.537
24583W        W91124   3.287  11.087  13.517
24584W        W91125  25.458  37.470  13.231
24585W        W91126  13.753  26.506   3.925
24586W        W91127  30.716   5.951   2.671
24587W        W91128  35.142  35.057   5.028
24588W        W91129   2.391  34.459  10.176
24589W        W91130   6.253   5.845  11.436
24590W        W91131   5.700   2.723  13.978
24591W        W91132  23.003  44.467  13.066
24592W        W91133  31.653  42.032  11.985
24593W        W91134  26.530  21.886   4.109
24594W        W91135   0.830   2.075  10.164
24595W        W91136  19.959  30.672  11.202
24596W        W91137   1.305  30.245  10.812
24597W        W91138  27.594  15.605  11.434
24598W        W91139   0.088  41.652  12.956
24599W        W91140  26.671   1.311   0.087
24600W        W91141  43.312  32.629   4.118
24601W        W91142  41.589  16.161   4.118
24602W        W91143  32.563  31.981   3.876
24603W        W91144  24.681  17.993  12.100
24604W        W91145  36.592   8.830   2.937
24605W        W91146  17.350  27.152  11.158
24606W        W91147  39.265  30.648   0.246
24607W        W91148   9.949  27.488  14.417
24608W        W91149  17.824  42.072  13.113
24609W        W91150  18.443  18.600   1.415
24610W        W91151  32.075  11.162  14.842
24611W        W91152   5.470   8.878   3.826
24612W        W91153  42.905  38.232  13.546
24613W        W91154   6.919  18.165  14.940
24614W        W91155  11.004  14.323   0.956
24615W        W91156  36.093  32.005   4.100
24616W        W91157  17.615  10.770   4.399
24617W        W91158  26.840  26.641  10.332
24618W        W91159  12.258  24.747   1.333
24619W        W91160  20.075  36.775   2.985
24620W        W91161  33.293  30.718   0.753
24621W        W91162  16.249   5.224   1.526
24622W        W91163  34.589  32.963  13.569
24623W        W91164  35.967   5.126   2.893
24624W        W91165  40.318  22.357   4.080
24625W        W91166   2.235  37.339   1.638
24626W        W91167  37.595  44.211   0.707
24627W        W91168   1.761  35.301   4.111
24628W        W91169   2.531  23.968  12.336
24629W        W91170  17.194   4.982  14.271
24630W        W91171  22.064  30.580   3.717
24631W        W91172  40.525  33.469   0.042
24632W        W91173  15.826   5.522  10.753
24633W        W91174   6.973  16.700  10.781
24634W        W91175  21.681   9.123  13.031
24635W        W91176  28.213   6.478   3.507
24636W        W91177  19.995  40.981   0.838
24637W        W91178  27.914   2.885   1.213
24638W        W91179  28.766   2.897   0.768
24639W        W91180   6.454  11.269   3.111
24640W        W91181  27.682  37.375   2.171
24641W        W91182  18.027   8.685   1.395
24642W        W91183  26.164  17.024   1.147
24643W        W91184  13.175  16.270  10.879
24644W        W91185  14.658   8.602  13.088
24645W        W91186   2.977   3.800  14.982
24646W        W91187   3.201  36.009  10.352
24647W        W91188  24.135  23.635   9.864
24648W        W91189   6.257  37.637   0.896
24649W        W91190  24.193  30.850  12.711
24650W        W91191   9.678  41.531  12.907
24651W        W91192  42.068  25.149   2.918
24652W        W91193   6.326  24.504   4.466
24653W        W91194  27.177  35.838  14.801
24654W        W91195  18.178   5.642   1.708
24655W        W91196  20.696  17.246   0.434
24656W        W91197   3.534  33.539   1.251
24657W        W91198  35.351  35.840   1.022
24658W        W91199   9.236  40.804   3.168
24659W        W91200  15.301   1.436  12.894
24660W        W91201  22.744   8.512  12.678
24661W        W91202  42.028  36.560  13.898
24662W        W91203  40.366  36.662  10.760
24663W        W91204  41.172  16.402  10.590
24664W        W91205  18.668  32.536  12.904
24665W        W91206   6.514  20.204   0.915
24666W        W91207  27.184  14.664  10.702
24667W        W91208  30.030  10.916   2.535
24668W        W91209  22.035  32.890   3.628
24669W        W91210   4.050  32.623  14.956
24670W        W91211  24.944  13.787  10.512
24671W        W91212  36.530   0.102  11.550
24672W        W91213  43.115  27.570   3.652
24673W        W91214  40.727  33.042   3.176
24674W        W91215  31.418  43.840  13.047
24675W        W91216  34.064  19.223  11.200
24676W        W91217  44.277  13.262  13.320
24677W        W91218  38.329  21.300   2.644
24678W        W91219  18.785  38.010   4.060
24679W        W91220  17.469  40.103   4.663
24680W        W91221   7.199  37.862   0.495
24681W        W91222   0.884  26.495   3.963
24682W        W91223  41.069  38.388  12.944
24683W        W91224  23.936   1.011   0.769
24684W        W91225  11.440   9.317   2.652
24685W        W91226  10.436  38.379  14.326
24686W        W91227  17.354   0.400  10.030
24687W        W91228  39.452  24.626  13.859
24688W        W91229  41.392  20.982   2.952
24689W        W91230  27.804  26.804   1.809
24690W        W91231  39.597  29.688   0.540
24691W        W91232  27.544   0.944   1.696
24692W        W91233  44.233  36.575   3.151
24693W        W91234  22.581   3.150  14.449
24694W        W91235  44.362  14.118  11.388
24695W        W91236  42.014  12.932   1.731
24696W        W91237  42.456  26.593  14.939
24697W        W91238   1.241  39.297   2.323
24698W        W91239   6.934  38.231   0.740
24699W        W91240  22.111  21.779   1.482
24700W        W91241   2.785  26.253  11.169
24701W        W91242  14.689   2.490  12.348
24702W        W91243  10.226   6.299   4.227
24703W        W91244  43.386  14.879   4.585
24704W        W91245  37.644  42.330   3.724
24705W        W91246  44.871  13.706   2.126
24706W        W91247  25.489  22.234   2.923
24707W        W91248  25.210  16.216  13.465
24708W        W91249  26.153  39.918   1.546
24709W        W91250  16.577   3.664   2.913
24710W        W91251  31.121  20.582  14.904
24711W        W91252  27.876  22.323   2.151
24712W        W91253  18.583   1.036  14.248
24713W        W91254   8.849  32.924   2.276
24714W        W91255  33.842  25.546   1.658
24715W        W91256   5.736  30.158   0.776
24716W        W91257  19.566   3.861  13.844
24717W        W91258  43.051  37.217  13.641
24718W        W91259  30.867  37.397   3.286
24719W        W91260  38.558   6.135  10.608
24720W        W91261  37.296   3.441   3.246
24721W        W91262   7.346  28.649   3.021
24722W        W91263  28.229  21.210  11.612
24723W        W91264  15.042  21.590   2.699
24724W        W91265  30.861   4.331  14.705
24725W        W91266  14.151  35.376  13.303
24726W        W91267  13.073   1.957   4.894
24727W        W91268   3.368  33.933  14.241
24728W        W91269   0.500  11.596  12.118
24729W        W91270  43.474  35.104   1.458
24730W        W91271  20.801  37.286  10.872
24731W        W91272  21.386  32.488  10.050
24732W        W91273  44.381   8.242   3.505
24733W        W91274  14.939  30.861   2.293
24734W        W91275  37.852  25.970  11.067
24735W        W91276  36.426   7.840   0.497
24736W        W91277  16.284  39.644  11.156
24737W        W91278  37.557  15.842   3.672
24738W        W91279  13.628   9.549  14.413
24739W        W91280  28.158   2.847  13.942
24740W        W91281  12.846  24.484  13.106
24741W        W91282  12.571  26.943  14.492
24742W        W91283  10.199  19.715  14.574
24743W        W91284  19.038  28.344   1.090
24744W        W91285  23.037  44.996  14.816
24745W        W91286  29.659  32.054  13.410
24746W        W91287  31.378  34.091   2.800
24747W        W91288  43.904   9.052   4.269
24748W        W91289   6.833   4.724  14.096
24749W        W91290  31.615   0.314   4.214
24750W        W91291  19.283  41.060  14.889
24751W        W91292  18.526  10.890   0.821
24752W        W91293   1.229  15.817   3.265
24753W        W91294  35.092   1.489  14.802
24754W        W91295  22.572  32.174   3.271
24755W        W91296  23.701  30.224   4.533
24756W        W91297  29.118  22.921   1.236
24757W        W91298  28.922  12.006   2.230
24758W        W91299  41.974  37.270  12.957
24759W        W91300  23.229  17.295  13.490
24760W        W91301  38.286   4.747   1.042
24761W        W91302  19.623  44.288   2.259
24762W        W91303   9.464   1.737   3.358
24763W        W91304  19.600  31.951  13.014
24764W        W91305  20.046   6.651   4.938
24765W        W91306   4.442   1.832   0.289
24766W        W91307  36.440  38.073  10.710
24767W        W91308  26.997  41.455   0.460
24768W        W91309  29.641   8.242  10.949
24769W        W91310  19.033  20.263   1.240
24770W        W91311  24.179  44.776  13.290
24771W        W91312   7.064  20.988   1.012
24772W        W91313  29.239  41.737  14.784
24773W        W91314  41.459   5.935   2.230
24774W        W91315  24.020  26.568  13.043
24775W        W91316  10.396  31.178  13.063
24776W        W91317  35.003  44.714   1.968
24777W        W91318  35.978  23.904  13.543
24778W        W91319  28.719  43.749   2.143
24779W        W91320  14.558  15.634  13.036
24780W        W91321   5.364  36.414   4.260
24781W        W91322   2.011  41.270  12.593
24782W        W91323  39.372   8.391   2.354
24783W        W91324  23.909  42.400   0.847
24784W        W91325   6.486  42.824  13.070
24785W        W91326  33.523   2.385  11.665
24786W        W91327  10.753  15.382  11.885
24787W        W91328  41.920   4.491   4.396
24788W        W91329  31.688  33.423   0.358
24789W        W91330  25.292  22.157  13.533
24790W        W91331  34.131  40.802  14.287
24791W        W91332  39.960  19.683   1.178
24792W        W91333  40.435   8.481   1.111
24793W        W91334  20.235  36.397   0.249
24794W        W91335  17.234  27.128  10.129
24795W        W91336  23.007  11.348   3.213
24796W        W91337   1.255  14.161   0.881
24797W        W91338  41.574  27.868  10.422
24798W        W91339  14.030  20.594   4.303
24799W        W91340  11.212  42.151   3.330
24800W        W91341  21.555   1.796   0.875
24801W        W91342  34.417   7.315   2.678
24802W        W91343  20.122  35.326   0.312
24803W        W91344  34.426  35.446  11.106
24804W        W91345  31.808  15.355  13.925
24805W        W91346  14.305   3.284   0.905
24806W        W91347  35.737  37.697  13.376
24807W        W91348  34.442  21.527   1.418
24808W        W91349  13.478  28.730   2.789
24809W        W91350  42.536  41.917  12.436
24810W        W91351   4.203  33.564  14.485
24811W        W91352  19.836  14.799   0.720
24812W        W91353   1.703  34.106   4.697
24813W        W91354  32.269  12.184  14.915
24814W        W91355  10.777  31.958   0.413
24815W        W91356  22.792  42.783  10.534
24816W        W91357   9.120  25.202   2.844
24817W        W91358  25.670  37.459  14.965
24818W        W91359  20.117  25.894   4.089
24819W        W91360  25.517  16.668   4.194
24820W        W91361  25.463  16.224   1.220
24821W        W91362  40.935  27.186   0.435
24822W        W91363  31.525  32.933   4.602
24823W        W91364   9.372  33.174   3.758
24824W        W91365  15.823   2.189   3.273
24825W        W91366  44.340  27.043  10.484
24826W        W91367  23.205  31.520   4.815
24827W        W91368   9.838  34.302   3.712
24828W        W91369   2.812  19.025  13.523
24829W        W91370  36.364  37.662   1.851
24830W        W91371  37.127  42.088   2.230
24831W        W91372  17.133  14.852  14.248
24832W        W91373   3.447  10.704  14.440
24833W        W91374  34.261  37.455  12.002
24834W        W91375  35.543  30.117  12.033
24835W        W91376  38.005  44.605  13.813
24836W        W91377   7.945  23.263  12.955
24837W        W91378  10.812  12.379   4.114
24838W        W91379  26.122   6.298   0.027
24839W        W91380  24.563   3.194  13.807
24840W        W91381  29.520  24.414  12.509
24841W        W91382  32.458  26.999   0.815
24842W        W91383  31.948  17.502   2.179
24843W        W91384  28.572  12.947  14.643
24844W        W91385  32.637  23.696   4.916
24845W        W91386   7.261  16.924   0.998
24846W        W91387  21.745  23.052  11.720
24847W        W91388  16.101  15.732   0.264
24848W        W91389  25.192  12.274  13.933
24849W        W91390  34.541  27.335  12.362
24850W        W91391  21.866   8.391  14.824
24851W        W91392   5.893  12.813  13.866
24852W        W91393  21.990  11.621  12.562
24853W        W91394  27.120  30.119   2.204
24854W        W91395   6.971  11.548  12.034
24855W        W91396  23.636  39.912  11.293
24856W        W91397  43.006   9.294  13.574
24857W        W91398  15.143  42.441  10.548
24858W        W91399  11.227  17.149   2.617
24859W        W91400  17.096  19.742  10.331
24860W        W91401   0.956  36.431   3.329
24861W        W91402  28.664  35.483  13.440
24862W        W91403  29.723  20.548  12.463
24863W        W91404  11.769  29.474  13.511
24864W        W91405  15.324  14.719   2.521
24865W        W91406  23.533  20.000   4.290
24866W        W91407  21.716  38.810  14.900
24867W        W91408  13.737  42.469   2.378
24868W        W91409  42.368  29.222   1.626
24869W        W91410  37.542  35.110  10.981
24870W        W91411  26.988  16.371  11.974
24871W        W91412  13.873  19.129   2.326
24872W        W91413  22.966  34.288   0.766
24873W        W91414  17.211  17.160   4.124
24874W        W91415  23.021   9.075   1.344
24875W        W91416  21.511  11.015   0.273
24876W        W91417   1.942   0.882   2.306
24877W        W91418  38.469  39.998  12.990
24878W        W91419   6.336  25.650  12.876
24879W        W91420  36.928   2.886  12.812
24880W        W91421  37.245  40.431   1.304
24881W        W91422  41.248  27.022   2.306
24882W        W91423   5.869  31.147   1.841
24883W        W91424   7.952  27.683   1.443
24884W        W91425  40.472  44.395  12.451
24885W        W91426  31.215  31.903   3.713
24886W        W91427   0.060  10.170   1.501
24887W        W91428  39.413  33.267  11.158
24888W        W91429  37.892  23.478  13.990
24889W        W91430  21.994  31.129  13.932
24890W        W91431  15.630  36.452   0.752
24891W        W91432  26.738  29.726   3.378
24892W        W91433   1.562  34.495   4.024
24893W        W91434  28.112  22.080   4.811
24894W        W91435  28.986  34.113  13.980
24895W        W91436  32.871  22.251   2.773
24896W        W91437  39.943  17.556   1.896
24897W        W91438   1.931  20.510  11.399
24898W        W91439  17.487   3.777  11.654
24899W        W91440   2.841  38.876  12.540
24900W        W91441  40.288   9.673  10.607
24901W        W91442  36.358  13.338  13.784
24902W        W91443   4.388  12.167   2.598
24903W        W91444  21.010  29.024  12.075
24904W        W91445  34.738  39.619  11.172
24905W        W91446  38.187   7.323  12.057
24906W        W91447  18.002  21.231   0.355
24907W        W91448  14.573  31.999  14.345
24908W        W91449  41.346  15.301   3.095
24909W        W91450  37.291   9.291   0.717
24910W        W91451  26.593  40.262  11.219
24911W        W91452  16.812  17.821  13.805
24912W        W91453  26.536  18.762   2.372
24913W        W91454   4.916  24.249   0.377
24914W        W91455  36.142  17.590   4.057
24915W        W91456  11.680  17.070   3.832
24916W        W91457  37.538  30.206   3.253
24917W        W91458  15.663  31.806   2.884
24918W        W91459   2.884   5.052   0.742
24919W        W91460  37.379  35.563  12.845
24920W        W91461  10.626   6.065   3.380
24921W        W91462   6.915   6.889   0.804
24922W        W91463  34.094  22.062   4.068
24923W        W91464   6.755   9.459   4.368
24924W        W91465  25.963  23.105  14.400
24925W        W91466  22.110  41.865   0.981
24926W        W91467  10.944  34.088   1.762
24927W        W91468  41.812  42.847  12.043
24928W        W91469  35.131  36.890   2.152
24929W        W91470   1.268  27.168  11.029
24930W        W91471  24.958   8.247  11.662
24931W        W91472  27.735  43.280  12.863
24932W        W91473  36.218   1.827   5.324
24933W        W91474  30.359  16.639  11.179
24934W        W91475   1.020   1.993  10.639
24935W        W91476  43.324  16.099  13.393
24936W        W91477  39.502  22.725   4.241
24937W        W91478  18.642  34.997   4.275
24938W        W91479   8.845  11.679  11.639
24939W        W91480   3.803  13.553  10.728
24940W        W91481  13.877  37.484  11.170
24941W        W91482  20.497  29.981  11.493
24942W        W91483   4.496   2.229   3.433
24943W        W91484  34.174  41.534   3.106
24944W        W91485  39.550  36.590  13.482
24945W        W91486  27.538  25.522  12.962
24946W        W91487   3.188   0.795   1.715
24947W        W91488  21.715  19.765  11.221
24948W        W91489  33.111   3.474  11.610
24949W        W91490  44.285   9.373   2.716
24950W        W91491  13.916  43.014   1.741
24951W        W91492  28.666   9.475   1.457
24952W        W91493   5.766  31.192  12.032
24953W        W91494  19.211  12.640  11.402
24954W        W91495  31.851  27.977  11.962
24955W        W91496   3.917   1.073   3.670
24956W        W91497  43.988  30.997   3.688
24957W        W91498  21.765   2.419  13.467
24958W        W91499  14.738  30.052   0.421
24959W        W91500   0.257   7.735  10.494
24960W        W91501  32.001  16.613  12.635
24961W        W91502  31.227  23.838  13.471
24962W        W91503  13.836  43.439   1.211
24963W        W91504  31.992  11.236  12.845
24964W        W91505  26.183  36.681   1.380
24965W        W91506  35.111  30.803   4.236
24966W        W91507  34.161  38.037   1.863
24967W        W91508  24.504  29.617   3.843
24968W        W91509  44.896  18.527   3.222
24969W        W91510  21.622  41.445   2.133
24970W        W91511  13.693  11.182  12.198
24971W        W91512  38.872  38.122  13.523
24972W        W91513  22.446   7.459   2.348
24973W        W91514  41.693  40.312   1.922
24974W        W91515  38.265  41.708   1.127
24975W        W91516  31.549  10.260  12.353
24976W        W91517  38.035   3.618   4.258
24977W        W91518  42.261  22.215   0.345
24978W        W91519  19.372   0.238   1.035
24979W        W91520  14.380  27.876  11.161
24980W        W91521   2.212  10.285   3.731
24981W        W91522  18.174  43.044  10.689
24982W        W91523  38.854   6.322   4.145
24983W        W91524  13.308  31.826   3.858
24984W        W91525  33.954   4.803  11.166
24985W        W91526  18.703  44.941   1.265
24986W        W91527  26.206  10.246   2.504
24987W        W91528  26.215  33.104  11.999
24988W        W91529  34.050  18.565   0.482
24989W        W91530  34.332   4.505   5.112
24990W        W91531   6.676  16.604  14.841
24991W        W91532  21.582   0.489  12.397
24992W        W91533   6.906  19.014   4.194
24993W        W91534  36.094  19.616   0.248
24994W        W91535   3.949  41.292   2.859
24995W        W91536  42.882  11.724   0.511
24996W        W91537  31.465  33.417  14.461
24997W        W91538  25.435  29.915   1.852
24998W        W91539  17.269  16.919   1.395
24999W        W91540  41.496   0.961   2.390
25000W        W91541  40.989   6.905   0.874
25001W        W91542  17.622  25.105  14.592
25002W        W91543  44.414   0.864   2.327
25003W        W91544  13.791  24.594  14.374
25004W        W91545  44.775  16.070   2.868
25005W        W91546  10.656  17.769   2.874
25006W        W91547  27.173  40.703   3.679
25007W        W91548  32.326  11.197  11.588
25008W        W91549  40.357  12.942  10.322
25009W        W91550  29.150  33.208   3.224
25010W        W91551  17.593  26.788   0.377
25011W        W91552  11.858   2.751  14.414
25012W        W91553  34.622  25.655  14.881
25013W        W91554  44.883  39.485  10.875
25014W        W91555  40.539   4.757  11.631
25015W        W91556   3.868   3.970   4.854
25016W        W91557  25.501  44.245  10.849
25017W        W91558  16.904   6.704   4.588
25018W        W91559  13.341  43.940  13.889
25019W        W91560  18.726  24.509  14.862
25020W        W91561   9.646   5.473  12.349
25021W        W91562  39.936  26.480   3.246
25022W        W91563  32.688   9.921   4.444
25023W        W91564  39.879  39.350   1.661
25024W        W91565  28.228  14.154  14.494
25025W        W91566  25.674   7.096   2.833
25026W        W91567  17.027   4.162   0.315
25027W        W91568  10.830   2.137  12.741
25028W        W91569  35.621  25.720   2.839
25029W        W91570  33.645  38.662  13.889
25030W        W91571  42.477  16.776  12.244
25031W        W91572  23.661   9.719   0.929
25032W        W91573  29.555  40.644  12.146
25033W        W91574  35.089  14.818   2.272
25034W        W91575  43.538   2.631  13.928
25035W        W91576   2.190   4.138  12.996
25036W        W91577  20.243  28.128   4.999
25037W        W91578   2.804  44.898  13.786
25038W        W91579  35.052  10.258   1.279
25039W        W91580  32.904  26.748  13.461
25040W        W91581  39.316  39.864   0.731
25041W        W91582  26.106   2.727  10.654
25042W        W91583  22.706  26.937   1.405
25043W        W91584  16.491  38.394  11.623
25044W        W91585  14.600   0.906  11.091
25045W        W91586   3.776  38.429   0.951
25046W        W91587  22.951   6.217  11.575
25047W        W91588  22.584  25.913   2.129
25048W        W91589  11.857  27.150   3.250
25049W        W91590  37.258  14.530   0.780
25050W        W91591   9.244  24.802   4.307
25051W        W91592   4.796  39.391  10.551
25052W        W91593  30.952  44.792   1.424
25053W        W91594  23.101  43.056   4.628
25054W        W91595  35.800  22.262   0.858
25055W        W91596  33.922  30.963  11.933
25056W        W91597   1.416  12.780  10.764
25057W        W91598  11.215  21.101  14.972
25058W        W91599  25.127  19.100   2.539
25059W        W91600  44.330   8.763  10.709
25060W        W91601  37.399  23.651   2.523
25061W        W91602  39.101   7.711  11.452
25062W        W91603  13.285  23.026   4.863
25063W        W91604  21.190  13.879  13.572
25064W        W91605  41.902  27.659  10.777
25065W        W91606  29.454  10.834   2.078
25066W        W91607   0.389   4.749   3.484
25067W        W91608  18.220   8.903  11.448
25068W        W91609  26.199   0.046  10.801
25069W        W91610  14.403  15.858  12.137
25070W        W91611  10.466  37.247  12.573
25071W        W91612  24.293  44.519   1.013
25072W        W91613   8.003  19.026  11.186
25073W        W91614  14.965  39.416  12.833
25074W        W91615  16.391  44.444  14.132
25075W        W91616  26.365  38.446   2.396
25076W        W91617  22.031  30.643   2.830
25077W        W91618  33.852  27.150  11.796
25078W        W91619  25.311  19.718  11.973
25079W        W91620  36.036  35.339  13.008
25080W        W91621  10.320  19.116   3.684
25081W        W91622  34.588  34.292   4.525
25082W        W91623  20.892  16.604   1.792
25083W        W91624  12.659   0.542  14.460
25084W        W91625  38.009   0.546  11.152
25085W        W91626  44.187  35.037   1.881
25086W        W91627  22.913   0.513  14.918
25087W        W91628  11.130   9.486  11.186
25088W        W91629  39.865  41.553  13.081
25089W        W91630  19.799  35.547  13.915
25090W        W91631  40.792   6.203   1.223
25091W        W91632   8.667   1.070  11.653
25092W        W91633  11.921  30.698   3.205
25093W        W91634  14.552   0.903  14.343
25094W        W91635  29.741  16.446  12.546
25095W        W91636  25.260   1.540   3.383
25096W        W91637  30.945  29.944   1.709
25097W        W91638  38.636  11.101   3.882
25098W        W91639  21.022  41.537  14.949
25099W        W91640  18.761  39.422   1.481
25100W        W91641  17.174  15.811   3.398
25101W        W91642  11.801  44.493   1.790
25102W        W91643  28.719  28.029  12.397
25103W        W91644  39.961  18.845  10.483
25104W        W91645   1.877  33.676  11.191
25105W        W91646  24.751  12.278  12.957
25106W        W91647  26.986  40.838  11.984
25107W        W91648  36.717  27.167  12.020
25108W        W91649   5.820  32.630  12.191
25109W        W91650  44.882  30.588  11.042
25110W        W91651   5.345   9.383  11.928
25111W        W91652   1.201  23.943   3.258
25112W        W91653  32.888  30.264  11.211
25113W        W91654  19.272  34.411  12.028
25114W        W91655  20.806   5.193   3.349
25115W        W91656  37.105  26.138  13.717
25116W        W91657  19.882  38.006  11.127
25117W        W91658  26.625  13.976  12.860
25118W        W91659  20.216  16.125  12.578
25119W        W91660  24.770  31.818   4.563
25120W        W91661  21.095   5.930  13.922
25121W        W91662   4.881   5.340  12.497
25122W        W91663  13.844  10.481   1.705
25123W        W91664  26.152  23.518  12.932
25124W        W91665  27.566  18.767  12.148
25125W        W91666   9.432   3.233   2.069
25126W        W91667   7.725  11.051   3.585
25127W        W91668  14.593  15.154  11.571
25128W        W91669  12.326  17.193   3.374
25129W        W91670   9.826   6.220   0.510
25130W        W91671  20.463  41.607  11.092
25131W        W91672  25.577  37.979  13.103
25132W        W91673  25.191  33.550  11.558
25133W        W91674  34.318  20.638   4.090
25134W        W91675   2.382  28.004  12.123
25135W        W91676  42.037  11.403   0.772
25136W        W91677  16.558   4.439   1.886
25137W        W91678  18.096  13.741   1.866
25138W        W91679   6.009  35.503   3.440
25139W        W91680   8.019  44.565   3.274
25140W        W91681   6.301  24.388  13.635
25141W        W91682  22.638   1.676   3.703
25142W        W91683   8.427  42.838   0.989
25143W        W91684  43.632  18.519   1.217
25144W        W91685  43.945   4.643  10.643
25145W        W91686  37.163  24.776  13.779
25146W        W91687  39.754  11.297   2.422
25147W        W91688  40.474  41.065  10.939
25148W        W91689  20.282  38.900  12.853
25149W        W91690   7.063  25.182   5.087
25150W        W91691  44.275  12.337  10.763
25151W        W91692   7.194   1.836   2.184
25152W        W91693   4.291  33.094  13.317
25153W        W91694  19.540  15.301  11.700
25154W        W91695  28.066  40.165  12.532
25155W        W91696  23.978  13.819  10.491
25156W        W91697  26.456  24.985  10.686
25157W        W91698   6.099  29.651  13.842
25158W        W91699  25.259  18.832  14.919
25159W        W91700   5.818  16.568   2.097
25160W        W91701   3.927  21.663  14.510
25161W        W91702   8.916   6.041   1.816
25162W        W91703   1.859  37.049  12.607
25163W        W91704   0.217  37.561  13.791
25164W        W91705  28.510  29.669   4.205
25165W        W91706  43.515  31.679   1.718
25166W        W91707  31.541  31.841   2.754
25167W        W91708  23.437  33.021  12.065
25168W        W91709  15.873  26.963  13.112
25169W        W91710  12.634   0.707   4.479
25170W        W91711  27.034  21.005  14.742
25171W        W91712  31.926   4.717   1.270
25172W        W91713  39.309   1.382  14.941
25173W        W91714  37.646   3.332   3.610
25174W        W91715  29.418  16.956   5.026
25175W        W91716  32.567  35.110   0.787
25176W        W91717   4.804  38.438   0.044
25177W        W91718  34.833  42.611   1.156
25178W        W91719  28.461  43.532   4.545
25179W        W91720  38.855   4.055   1.177
25180W        W91721  11.568  44.719  14.479
25181W        W91722   3.224  28.012   0.452
25182W        W91723  32.335  39.163  12.847
25183W        W91724   4.001  22.277  11.071
25184W        W91725   7.435  17.824   2.294
25185W        W91726  43.482  19.272  14.005
25186W        W91727  18.323   7.271  13.067
25187W        W91728  38.820  27.841   4.071
25188W        W91729  18.597  44.291  11.655
25189W        W91730  10.359  43.180  10.889
25190W        W91731  37.293  42.041  10.979
25191W        W91732  44.815  40.273   2.890
25192W        W91733  32.189  17.508   3.696
25193W        W91734  20.549  12.283  14.913
25194W        W91735   4.299  30.376  13.838
25195W        W91736  22.283  13.127  13.733
25196W        W91737   2.489  39.340   2.734
25197W        W91738  41.303   2.428   0.346
25198W        W91739   3.830  24.163   0.050
25199W        W91740  18.549  15.358  13.770
25200W        W91741   9.218  20.148   3.632
25201W        W91742   8.655  29.494   4.535
25202W        W91743  38.419  16.493   2.058
25203W        W91744  28.045  11.239  10.749
25204W        W91745   4.904   6.710   3.682
25205W        W91746  26.507   2.639   1.192
25206W        W91747  37.951  15.143   4.835
25207W        W91748  14.203  32.334   4.202
25208W        W91749  25.998  13.937  10.337
25209W        W91750   4.439  25.274   0.744
25210W        W91751  43.428  43.399   2.125
25211W        W91752  37.885  21.294  13.453
25212W        W91753  20.778  24.620  14.861
25213W        W91754  23.576  32.153  14.335
25214W        W91755  19.619   1.975   0.329
25215W        W91756  19.531  33.388   0.357
25216W        W91757  17.323  25.468   3.834
25217W        W91758  22.922  37.064  12.129
25218W        W91759  40.335   6.657   4.300
25219W        W91760  39.254  42.638   2.302
25220W        W91761  13.459  14.327  12.977
25221W        W91762  17.874  29.031  12.119
25222W        W91763   6.892  40.721  13.785
25223W        W91764  30.144  42.154   3.672
25224W        W91765  34.674  37.135  11.989
25225W        W91766  36.776  16.096   3.951
25226W        W91767  29.806  26.933  14.235
25227W        W91768  35.586   4.343  12.025
25228W        W91769  30.369  33.644  13.002
25229W        W91770  36.274  12.462   0.455
25230W        W91771   4.297  13.257   4.449
25231W        W91772  28.033  28.559   1.179
25232W        W91773  41.550   3.080  12.781
25233W        W91774  38.333   2.559   0.819
25234W        W91775  32.099  34.433  13.278
25235W        W91776  30.574  10.387   0.856
25236W        W91777  25.163  20.238  13.926
25237W        W91778  36.566  38.250  11.176
25238W        W91779   3.576   9.340  13.083
25239W        W91780  17.453  33.482  11.918
25240W        W91781  44.016  18.329  14.500
25241W        W91782  24.494   1.004   3.868
25242W        W91783  15.595  35.156   4.443
25243W        W91784  30.636  17.563  11.001
25244W        W91785   6.760   3.022   5.372
25245W        W91786  14.555   2.060   4.971
25246W        W91787   5.331  32.409   5.421
25247W        W91788  39.421  37.346  11.447
25248W        W91789  31.516   3.935   3.263
25249W        W91790  38.893  30.265   1.461
25250W        W91791  39.909   7.252   3.707
25251W        W91792  27.880   4.750  13.992
25252W        W91793  19.964  27.319   3.654
25253W        W91794  37.016  12.624  12.813
25254W        W91795  24.294  26.501   2.813
25255W        W91796  17.384  25.542  12.892
25256W        W91797  39.773  36.545  12.974
25257W        W91798  25.135  25.510   3.757
25258W        W91799  35.400  40.048   3.748
25259W        W91800  15.960   2.456  14.299
25260W        W91801  31.530   9.092  13.046
25261W        W91802  17.175   8.106   4.586
25262W        W91803  16.724  27.578   1.929
25263W        W91804  12.905  28.234  13.409
25264W        W91805  38.349   4.865  11.087
25265W        W91806  12.826  18.833   4.233
25266W        W91807   4.359  24.773  14.670
25267W        W91808  16.792  43.645  13.929
25268W        W91809   7.799  34.402  14.088
25269W        W91810  39.600  39.552  11.963
25270W        W91811  13.413  40.529   3.149
25271W        W91812   0.672  11.609  13.356
25272W        W91813  38.972  13.878  13.965
25273W        W91814   4.935  10.316  11.248
25274W        W91815  33.023  30.437   4.586
25275W        W91816  27.134  11.711  10.549
25276W        W91817  13.356   6.249  10.889
25277W        W91818  36.945  29.760  11.637
25278W        W91819  13.362   9.068   5.101
25279W        W91820  26.125  14.495  11.065
25280W        W91821  37.894  18.096  14.227
25281W        W91822  13.079   9.236  14.919
25282W        W91823   8.680  23.450   3.379
25283W        W91824  36.352  37.706   5.029
25284W        W91825  21.653  40.023   4.377
25285W        W91826  39.303  30.419  12.517
25286W        W91827  37.470  13.149  10.667
25287W        W91828  37.412  12.197   4.826
25288W        W91829   1.798   6.757  13.440
25289W        W91830  20.201   5.563  12.156
25290W        W91831  18.191  13.832  13.006
25291W        W91832  14.570  19.717  11.935
25292W        W91833   4.936  44.534   1.681
25293W        W91834  42.701  32.262  11.828
25294W        W91835   0.589  13.616   4.655
25295W        W91836  36.453  35.866  11.539
25296W        W91837  27.248  13.775   0.494
25297W        W91838  42.508  32.409  10.393
25298W        W91839  24.676  12.306   3.176
25299W        W91840  40.755   9.641   1.914
25300W        W91841  27.500   8.704   2.129
25301W        W91842  39.216  14.273  13.512
25302W        W91843   5.778  16.798  13.500
25303W        W91844   4.116  12.077   1.301
25304W        W91845   6.158   3.622   1.740
25305W        W91846  22.485   4.450  11.467
25306W        W91847  32.367  10.415   2.163
25307W        W91848  27.699  16.271  10.053
25308W        W91849   0.370  31.598   1.369
25309W        W91850   8.442  14.602  12.831
25310W        W91851  38.600  18.256   3.733
25311W        W91852  11.824  43.549  13.965
25312W        W91853  29.523  43.917  11.588
25313W        W91854  14.305   3.255  13.986
25314W        W91855  12.030  10.364   0.667
25315W        W91856  41.562  43.328   2.193
25316W        W91857  42.617  35.281   2.248
25317W        W91858  37.568  31.546   2.256
25318W        W91859  14.624  14.565   4.327
25319W        W91860   9.254   2.244   3.169
25320W        W91861  21.204  40.271   0.416
25321W        W91862   3.425  44.251   3.511
25322W        W91863   5.411  41.491  13.487
25323W        W91864   2.606   9.119  14.812
25324W        W91865  11.742  28.766   1.270
25325W        W91866  38.137  33.862  11.120
25326W        W91867  18.311  37.555  12.151
25327W        W91868  41.733  13.376  14.365
25328W        W91869  23.167   3.625   3.717
25329W        W91870  17.277   8.744   2.167
25330W        W91871  27.664  42.002   4.002
25331W        W91872  18.168  31.857   3.728
25332W        W91873  43.548  19.328  13.042
25333W        W91874  20.202  19.335   4.351
25334W        W91875   2.827   6.635   3.283
25335W        W91876  37.844  20.593  14.408
25336W        W91877  30.367  18.998  10.691
25337W        W91878  43.399  17.525   1.425
25338W        W91879  43.449   9.221   4.423
25339W        W91880  22.305  17.323   1.386
25340W        W91881  24.194  10.087   0.268
25341W        W91882  23.036   9.815   4.041
25342W        W91883  25.517  13.364   1.793
25343W        W91884  16.234  10.078  11.102
25344W        W91885   4.916   7.219   3.635
25345W        W91886  34.193  14.387   9.872
25346W        W91887  24.905  35.428   2.701
25347W        W91888  34.171   4.323  13.563
25348W        W91889  23.638  19.840   3.220
25349W        W91890  42.290  16.984  11.517
25350W        W91891   7.426  27.230   4.325
25351W        W91892   9.233  21.803  12.637
25352W        W91893  26.698  10.189  12.850
25353W        W91894   8.278  34.424  11.735
25354W        W91895  11.983  10.979   1.368
25355W        W91896   8.949   0.425   1.478
25356W        W91897   1.294  26.422  11.251
25357W        W91898  44.022   8.956  12.486
25358W        W91899   9.876  25.811   0.982
25359W        W91900  14.217  25.392   0.634
25360W        W91901  25.704  30.390  13.111
25361W        W91902  19.948  25.656   3.650
25362W        W91903  12.414  10.840  12.933
25363W        W91904  15.122  17.764  11.423
25364W        W91905  10.866  38.601   1.360
25365W        W91906  10.862  41.662  13.813
25366W        W91907  16.659  16.352  13.106
25367W        W91908   4.480  35.588   2.625
25368W        W91909  26.451  26.881  13.880
25369W        W91910  15.794  32.360   3.682
25370W        W91911  39.249  12.764  14.814
25371W        W91912   6.530   5.770   3.631
25372W        W91913  26.416  13.654  10.535
25373W        W91914  23.165  25.044   0.653
25374W        W91915  34.720  14.689  14.840
25375W        W91916  24.840  15.224  11.225
25376W        W91917  27.258  24.468   1.509
25377W        W91918   3.817  18.740   1.427
25378W        W91919  39.599  24.123  13.838
25379W        W91920  22.774  31.773   4.110
25380W        W91921  11.472  27.072  12.523
25381W        W91922   9.205   1.277   0.450
25382W        W91923  18.511  42.782  13.937
25383W        W91924  43.822   7.754   2.940
25384W        W91925  23.057  25.296  11.711
25385W        W91926  40.820  37.429  10.591
25386W        W91927  23.032   8.483  11.436
25387W        W91928  42.325   6.453   3.809
25388W        W91929  31.433  17.183   1.444
25389W        W91930  34.834  32.727  11.498
25390W        W91931  16.068  13.666   0.981
25391W        W91932  13.836  18.278   1.699
25392W        W91933  36.876  42.832   3.723
25393W        W91934  27.136  11.398   3.355
25394W        W91935  21.192  17.424  14.570
25395W        W91936  31.170  13.470  10.736
25396W        W91937  16.804   3.290  14.568
25397W        W91938  29.417   4.188   1.834
25398W        W91939  18.173  13.725  14.955
25399W        W91940  13.009  27.366  11.180
25400W        W91941  24.031  43.258   1.743
25401W        W91942  14.795  23.009   2.307
25402W        W91943  10.091  43.725   4.580
25403W        W91944  44.728  15.571  12.039
25404W        W91945  17.996  17.060  11.096
25405W        W91946  43.956  28.962   1.585
25406W        W91947  28.161  37.563   1.213
25407W        W91948   3.894  29.692   1.509
25408W        W91949   0.314   4.185  12.983
25409W        W91950  33.457  25.658   0.268
25410W        W91951  14.009   6.365   1.121
25411W        W91952  27.458  36.407   3.335
25412W        W91953   1.149  33.258   4.485
25413W        W91954  18.565  14.081  11.612
25414W        W91955  40.372  33.838  12.609
25415W        W91956  14.499  19.247  13.511
25416W        W91957   2.446  18.015  14.347
25417W        W91958  16.652  13.110  12.504
25418W        W91959  10.020   5.722  14.011
25419W        W91960  28.098  15.444   9.875
25420W        W91961  37.600  28.217   3.302
25421W        W91962  41.889  37.067  11.338
25422W        W91963   6.355   9.921  14.772
25423W        W91964  16.265  36.434   4.539
25424W        W91965  33.056  39.532  14.153
25425W        W91966  40.055  40.455  11.127
25426W        W91967  40.549  28.629   4.282
25427W        W91968  44.911   6.892   4.777
25428W        W91969  16.489  27.132  11.727
25429W        W91970  16.143  38.508  13.760
25430W        W91971  32.646  22.262   2.205
25431W        W91972  35.184   2.786   2.151
25432W        W91973  42.526   7.205  13.959
25433W        W91974  24.576  23.532  11.960
25434W        W91975  25.713  10.938  11.526
25435W        W91976  16.133  35.907   2.903
25436W        W91977   8.727  13.810  13.339
25437W        W91978  33.922  37.275   1.552
25438W        W91979  14.915  36.241   1.861
25439W        W91980  11.238   2.909  14.346
25440W        W91981  11.113   2.665   0.657
25441W        W91982  23.958  34.556   2.711
25442W        W91983   6.454  16.333   0.270
25443W        W91984  28.117  27.139   0.480
25444W        W91985  34.489  11.319   5.008
25445W        W91986   3.113  10.500  10.915
25446W        W91987  26.198   8.687   2.396
25447W        W91988  16.189   5.581  12.015
25448W        W91989  34.628  37.353  14.950
25449W        W91990  15.353  34.908  13.060
25450W        W91991  37.623  22.282   3.198
25451W        W91992  20.655  28.388   4.167
25452W        W91993  22.969   2.989  12.994
25453W        W91994  39.294  43.092   3.656
25454W        W91995   4.433  36.660   0.910
25455W        W91996  38.588  18.802   4.548
25456W        W91997  11.966   3.785   2.181
25457W        W91998  23.958  37.062   5.009
25458W        W91999  32.506   2.117   3.211
25459W        W92000  39.073   0.111   2.270
25460W        W92001  39.683   7.301  10.930
25461W        W92002  30.477  18.820  11.250
25462W        W92003  38.085  19.620  12.823
25463W        W92004  41.332  41.796   4.401
25464W        W92005   2.402   1.802   0.255
25465W        W92006  33.164  26.614   2.007
25466W        W92007  14.152  18.113   3.584
25467W        W92008  10.408  12.380  11.060
25468W        W92009  18.066  40.973  12.474
25469W        W92010  39.501  36.429  14.307
25470W        W92011  39.743  38.017  13.304
25471W        W92012  16.472  35.051   3.318
25472W        W92013  20.612   5.337   5.001
25473W        W92014  12.387   9.933   2.262
25474W        W92015  12.098  31.969  12.220
25475W        W92016  14.078  24.108  12.002
25476W        W92017  27.633  28.735   4.401
25477W        W92018  36.699  15.263   0.579
25478W        W92019   2.291  42.023   0.884
25479W        W92020  30.579  35.971   0.879
25480W        W92021  13.798  17.499   3.328
25481W        W92022  36.886  34.259   0.730
25482W        W92023  12.293  14.644  14.853
25483W        W92024  32.071  38.011   0.034
25484W        W92025  35.367   6.300   5.087
25485W        W92026  31.777  40.361  11.581
25486W        W92027  30.125  37.581  10.995
25487W        W92028  35.211   7.413  13.302
25488W        W92029  44.718  15.563   2.185
25489W        W92030  25.468  23.308   2.126
25490W        W92031  34.692   3.712   2.372
25491W        W92032   0.001  31.962   1.419
25492W        W92033  25.879  44.723   2.725
25493W        W92034  40.220  44.861  13.064
25494W        W92035   6.845   7.991   1.485
25495W        W92036  24.184  38.405   3.375
25496W        W92037  11.307  33.037  12.531
25497W        W92038  39.754  12.877  14.943
25498W        W92039  19.771  34.494   2.733
25499W        W92040  39.094  24.104   3.527
25500W        W92041  15.708  14.623  13.775
25501W        W92042  43.113  24.957  11.080
25502W        W92043  42.957   2.503   1.812
25503W        W92044  27.026   2.808  14.457
25504W        W92045  37.781  24.217   3.829
25505W        W92046  23.680   2.011   0.439
25506W        W92047  36.623  43.884  10.839
25507W        W92048  34.522  28.843  12.132
25508W        W92049  15.563  24.357  11.515
25509W        W92050  15.504  33.424  14.043
25510W        W92051  36.598  20.542  11.529
25511W        W92052  13.896   0.381  13.270
25512W        W92053  15.800  38.294  12.420
25513W        W92054  35.465   3.230   3.522
25514W        W92055  10.857  19.278   3.718
25515W        W92056  41.789  19.195  14.268
25516W        W92057   6.913  26.042   5.396
25517W        W92058  41.882   6.716   3.666
25518W        W92059  31.399  19.058   0.417
25519W        W92060  24.238  34.406  13.456
25520W        W92061  29.604   5.724   0.858
25521W        W92062  31.926  14.289  13.190
25522W        W92063  41.449  31.224  12.957
25523W        W92064   0.303  32.147   2.226
25524W        W92065  12.389  37.399   2.697
25525W        W92066  40.077  40.814  14.930
25526W        W92067  30.413   4.566   1.320
25527W        W92068   7.905  37.946   5.363
25528W        W92069   9.649  14.617   1.199
25529W        W92070  38.558  25.000  13.430
25530W        W92071  41.069   5.574   4.480
25531W        W92072  10.245  43.522  11.315
25532W        W92073  27.651  23.751  14.960
25533W        W92074  17.511  36.875  12.615
25534W        W92075  38.451  24.163   0.191
25535W        W92076  32.548  17.014   2.835
25536W        W92077  26.303   3.706   2.174
25537W        W92078   1.305  41.928  12.944
25538W        W92079  25.061  16.304   2.880
25539W        W92080  41.809  33.863  13.440
25540W        W92081  31.505   0.478   1.862
25541W        W92082  17.778  25.536  13.274
25542W        W92083   1.110  22.716   0.286
25543W        W92084  26.482   8.864   1.159
25544W        W92085  14.713  33.115  14.481
25545W        W92086  11.772  34.349  12.015
25546W        W92087  13.126  35.406  13.277
25547W        W92088  42.306  40.365  13.391
25548W        W92089  19.308  12.587  10.919
25549W        W92090  38.780   5.941   0.289
25550W        W92091  41.242  20.726  11.642
25551W        W92092  23.565   2.648   3.223
25552W        W92093  10.162  21.525  14.460
25553W        W92094   9.510  31.929   0.031
25554W        W92095  41.977  10.149   0.304
25555W        W92096  25.446   6.764  10.579
25556W        W92097  34.081  21.917   1.344
25557W        W92098  20.523  20.221  11.088
25558W        W92099  38.963  34.585  13.116
25559W        W92100   8.586  10.631  12.912
25560W        W92101  36.972  24.009   0.381
25561W        W92102  18.992  20.009  11.462
25562W        W92103   1.679  10.419  12.028
25563W        W92104  11.712   1.296  10.782
25564W        W92105   7.222  36.926  11.202
25565W        W92106  18.707  39.087  11.681
25566W        W92107  24.277   7.435   1.744
25567W        W92108  24.716  20.582  11.150
25568W        W92109  12.357  14.097   2.636
25569W        W92110   9.395  35.181   1.740
25570W        W92111  42.412   7.728  11.179
25571W        W92112  39.801  30.938  14.398
25572W        W92113   7.715  27.157   2.297
25573W        W92114  42.257   6.688   4.682
25574W        W92115  40.391  32.004  13.916
25575W        W92116  40.486   1.332  10.677
25576W        W92117  12.780  25.336  12.936
25577W        W92118  30.151  36.297   1.086
25578W        W92119   1.340   9.633   0.071
25579W        W92120  12.040  26.101  14.712
25580W        W92121  19.611  21.085  14.085
25581W        W92122  19.845  39.917  12.197
25582W        W92123  20.104  23.454  11.896
25583W        W92124  40.431  39.558  12.174
25584W        W92125  31.971   4.231   0.356
25585W        W92126  27.211  23.083   0.327
25586W        W92127  17.122  24.717   1.307
25587W        W92128   6.401  37.208  13.580
25588W        W92129  17.539  34.102  13.377
25589W        W92130  17.141  32.080  12.469
25590W        W92131  27.500  19.107   3.078
25591W        W92132  28.437  42.955  13.504
25592W        W92133  37.413  41.540  11.014
25593W        W92134  39.546  10.969  14.354
25594W        W92135  22.335  31.682   0.058
25595W        W92136  12.408  33.379   4.451
25596W        W92137  11.206  31.376  11.449
25597W        W92138  32.586  23.253  14.475
25598W        W92139  16.365  19.774  14.845
25599W        W92140   6.927   1.003  12.968
25600W        W92141  40.869   0.246   0.858
25601W        W92142  34.570  20.629  12.591
25602W        W92143  34.841  26.445  14.407
25603W        W92144  13.018  16.581   1.193
25604W        W92145  11.824  33.492  10.190
25605W        W92146  12.368  12.866  10.718
25606W        W92147  31.973  13.669  13.888
25607W        W92148  14.745  25.251  10.389
25608W        W92149  41.054  33.394   2.265
25609W        W92150  36.332  31.640   1.752
25610W        W92151  13.855   8.681  12.418
25611W        W92152  36.628   2.747   0.022
25612W        W92153  39.492  41.326  14.267
25613W        W92154  17.349  19.729  13.646
25614W        W92155  10.861   9.512  11.652
25615W        W92156  19.489  44.707   0.890
25616W        W92157  17.157  40.795   2.323
25617W        W92158  12.871  12.698   3.702
25618W        W92159   6.478  14.664   2.855
25619W        W92160   6.450  26.632  10.686
25620W        W92161  33.841   0.780  10.218
25621W        W92162  34.856  26.662   0.456
25622W        W92163  16.871  18.287  14.023
25623W        W92164  39.369  36.647   0.847
25624W        W92165  28.534   8.133   4.549
25625W        W92166  27.835   5.040   4.270
25626W        W92167  28.868  18.423  12.945
25627W        W92168  43.013  23.650  13.577
25628W        W92169  18.054  41.379  13.014
25629W        W92170  10.067  36.163  11.996
25630W        W92171   2.533  14.718  13.387
25631W        W92172  22.182  24.934  13.189
25632W        W92173   7.735  24.889  10.200
25633W        W92174  14.172  10.186  14.648
25634W        W92175   6.160  30.963   4.574
25635W        W92176   1.470  33.411  13.449
25636W        W92177  43.776  15.690   0.202
25637W        W92178  21.548  15.161  11.888
25638W        W92179  40.716  22.247  14.712
25639W        W92180  11.777  22.672   1.353
25640W        W92181  14.667   3.266  14.347
25641W        W92182  37.023   9.159   3.760
25642W        W92183  19.014  42.586  14.263
25643W        W92184  39.023  44.275  13.613
25644W        W92185  21.011   1.169   5.172
25645W        W92186  36.632  34.056   1.724
25646W        W92187  14.608  22.798   0.436
25647W        W92188   1.026  28.572   0.758
25648W        W92189  14.146  28.167  11.633
25649W        W92190   4.253  16.114   0.874
25650W        W92191  41.417  17.003  13.458
25651W        W92192   5.140  10.156   3.584
25652W        W92193  35.834  18.422  11.105
25653W        W92194   9.316   9.242  13.788
25654W        W92195   6.706  23.255   2.234
25655W        W92196   4.765  14.784   3.330
25656W        W92197  24.473  14.779   1.348
25657W        W92198  41.024  38.409  11.201
25658W        W92199  26.979   9.087   3.788
25659W        W92200  26.493   5.019   3.234
25660W        W92201  35.378  38.313  11.104
25661W        W92202  29.006  23.792   2.863
25662W        W92203  15.702  44.788  12.451
25663W        W92204  33.889   5.898  10.936
25664W        W92205  40.978  19.663  11.180
25665W        W92206  43.846   7.774   2.431
25666W        W92207  18.219  30.180  12.917
25667W        W92208  43.741  16.743  11.521
25668W        W92209  17.178  28.538   4.248
25669W        W92210  43.334  12.449   4.658
25670W        W92211  12.906  11.249  12.760
25671W        W92212  23.711  41.430   3.305
25672W        W92213  32.216  28.594  14.429
25673W        W92214   6.308  38.395  13.969
25674W        W92215  14.342  41.547   2.354
25675W        W92216  32.031  39.484  14.930
25676W        W92217  19.595  10.187   0.971
25677W        W92218  22.190  42.282   2.289
25678W        W92219  43.854  15.565  12.388
25679W        W92220  33.938  30.844  10.855
25680W        W92221  21.276  12.759   1.266
25681W        W92222   1.047   4.764   0.854
25682W        W92223  11.423  35.967  14.529
25683W        W92224  38.195  35.834   2.138
25684W        W92225   1.331  23.723  10.558
25685W        W92226  44.227  43.175  14.775
25686W        W92227  36.985  13.866   1.337
25687W        W92228  26.185  25.182   4.747
25688W        W92229  33.852  33.222  11.639
25689W        W92230   5.234  34.447   3.781
25690W        W92231  21.363  23.458   1.361
25691W        W92232  22.988   8.808   2.679
25692W        W92233  14.078   0.874   3.988
25693W        W92234   2.767  41.912  12.802
25694W        W92235  20.910  30.065   1.633
25695W        W92236   6.082  38.470   5.389
25696W        W92237  13.869  20.639  10.803
25697W        W92238  16.151   2.378  11.743
25698W        W92239  17.032   3.216  12.374
25699W        W92240  19.193   4.077  13.543
25700W        W92241   7.284  27.516  11.634
25701W        W92242  21.721  25.105   2.449
25702W        W92243   0.804   6.898  12.422
25703W        W92244  33.354  18.817  13.664
25704W        W92245  24.985  35.169   0.000
25705W        W92246   3.946  42.694  14.373
25706W        W92247  38.914  31.661  13.532
25707W        W92248   8.177  24.001   2.835
25708W        W92249  36.901   4.663   1.301
25709W        W92250  12.840  40.823   0.263
25710W        W92251  24.816   9.231  13.902
25711W        W92252   1.944  34.155   2.644
25712W        W92253   8.473  27.050   2.644
25713W        W92254  24.021   4.108  10.775
25714W        W92255  39.559  38.447  13.065
25715W        W92256   9.348  32.671   4.671
25716W        W92257  23.186  28.247   3.742
25717W        W92258  21.620  40.900  12.095
25718W        W92259  11.766  24.993  14.101
25719W        W92260  19.640  30.519   3.530
25720W        W92261  39.877  16.978   0.073
25721W        W92262   3.601  21.113   0.940
25722W        W92263  43.353  17.336  13.950
25723W        W92264  29.103  26.081  11.469
25724W        W92265   2.304  42.563  11.066
25725W        W92266   4.884   3.461   1.178
25726W        W92267   8.823   7.077   4.169
25727W        W92268  11.601  31.912   3.838
25728W        W92269  33.731   9.813  11.610
25729W        W92270  35.386   6.276   0.687
25730W        W92271  40.368   7.718   3.886
25731W        W92272  36.541  28.376   0.448
25732W        W92273   9.089  27.483   0.879
25733W        W92274  31.885  40.968  13.386
25734W        W92275  17.460  31.728   3.282
25735W        W92276  20.483   9.780   2.811
25736W        W92277  34.128  19.123   2.910
25737W        W92278  33.892  16.310   2.734
25738W        W92279   2.035  41.140   2.821
25739W        W92280  30.915  23.054  12.925
25740W        W92281   6.874  13.715   3.255
25741W        W92282  35.562  39.737   3.191
25742W        W92283   6.730   1.504  13.876
25743W        W92284   8.640  17.228  14.045
25744W        W92285  26.603  19.974   3.576
25745W        W92286   7.461  21.516  12.404
25746W        W92287  23.424  20.462   4.053
25747W        W92288  26.777  12.933   1.935
25748W        W92289  11.241  21.304   3.682
25749W        W92290  17.504  14.422   1.893
25750W        W92291  17.051  22.012   1.750
25751W        W92292  23.593   2.338  13.759
25752W        W92293  23.718  23.270  13.975
25753W        W92294  43.925  41.435   1.287
25754W        W92295  38.665  24.377  12.451
25755W        W92296  25.744  29.551   3.574
25756W        W92297  13.809  43.536  14.357
25757W        W92298  31.302  40.600   2.163
25758W        W92299   0.507  12.199   4.767
25759W        W92300   9.757  38.501  12.546
25760W        W92301  26.527  13.838   4.144
25761W        W92302  16.135  16.808   1.673
25762W        W92303  16.564  10.440  10.189
25763W        W92304   9.190  38.326  14.158
25764W        W92305  18.569   0.372   2.763
25765W        W92306  37.148   9.597  12.557
25766W        W92307   6.187  17.641   1.852
25767W        W92308  28.981  37.022  14.036
25768W        W92309  37.592   0.442  14.569
25769W        W92310  21.376  39.988  11.549
25770W        W92311   6.348  20.141   4.714
25771W        W92312   6.773  36.881  10.764
25772W        W92313  24.140  16.065  13.316
25773W        W92314  15.811   3.372  12.952
25774W        W92315  20.102  16.461   5.003
25775W        W92316   2.887   4.432   1.235
25776W        W92317  21.999  33.957   4.158
25777W        W92318   1.685  22.979   5.047
25778W        W92319  42.352   1.400   3.884
25779W        W92320  37.322  33.977  11.618
25780W        W92321   9.681  19.318  10.413
25781W        W92322   0.372   2.415   2.131
25782W        W92323   2.812  25.866  13.821
25783W        W92324  24.186   6.074  10.302
25784W        W92325   4.523  14.203  14.760
25785W        W92326  40.283  10.337  14.724
25786W        W92327  13.757   7.157   1.655
25787W        W92328  31.546   8.849  12.570
25788W        W92329  36.223   7.659   0.945
25789W        W92330  35.559   3.977  11.069
25790W        W92331  30.416   3.080  11.927
25791W        W92332  35.784  18.538   3.780
25792W        W92333  24.299  34.935   1.964
25793W        W92334  22.709  25.290  12.122
25794W        W92335  19.541  42.342   1.403
25795W        W92336  44.337   1.787  14.340
25796W        W92337  27.214  24.519  13.560
25797W        W92338   4.710  21.273   1.300
25798W        W92339  11.318  15.149   3.801
25799W        W92340  44.974  31.603  13.452
25800W        W92341   8.856   9.360   4.535
25801W        W92342  38.412  34.858  13.964
25802W        W92343  42.865  33.465   0.356
25803W        W92344  24.789  15.251   3.931
25804W        W92345   2.321  12.379  14.211
25805W        W92346  21.169  27.183  10.015
25806W        W92347   3.179  20.119  11.672
25807W        W92348  32.362   8.249  12.716
25808W        W92349  22.553  25.427   3.963
25809W        W92350  25.072  19.551  10.701
25810W        W92351   8.089   1.772  10.741
25811W        W92352  38.056   5.271  12.065
25812W        W92353  12.903  30.901   2.410
25813W        W92354  24.482  36.983   0.213
25814W        W92355   5.773  13.793   1.931
25815W        W92356  14.616   4.148   2.426
25816W        W92357   8.344  30.198   4.547
25817W        W92358   9.413  37.242   0.226
25818W        W92359  30.288   6.330  11.384
25819W        W92360  43.531  22.054   3.677
25820W        W92361  38.431  41.447   3.163
25821W        W92362  29.469  14.069  12.865
25822W        W92363   6.943  40.775   3.913
25823W        W92364  43.490  22.544   0.841
25824W        W92365  12.545  32.445   4.138
25825W        W92366  37.805  38.629   3.183
25826W        W92367  35.844  36.362   0.396
25827W        W92368  19.231  12.417  13.971
25828W        W92369  23.054  36.961   4.510
25829W        W92370  26.609  19.453  13.389
25830W        W92371  16.898  36.823   3.453
25831W        W92372  19.764  27.123  13.985
25832W        W92373   3.721  10.273   1.230
25833W        W92374   6.807   2.273  14.327
25834W        W92375  24.693   5.582   2.276
25835W        W92376  32.584  19.532  12.496
25836W        W92377   1.527   5.650   0.887
25837W        W92378  32.387   2.455   3.590
25838W        W92379  33.158  24.101  12.469
25839W        W92380  43.723   0.607  14.762
25840W        W92381  35.342  18.704   3.604
25841W        W92382  43.442   4.067   2.454
25842W        W92383  42.404  30.940   1.660
25843W        W92384  44.838  10.666  10.864
25844W        W92385  34.104  42.576   1.784
25845W        W92386  19.688   4.161   2.920
25846W        W92387  44.812  19.739   0.512
25847W        W92388   1.162  14.482  13.025
25848W        W92389  29.958  29.893   4.377
25849W        W92390  17.387   8.142  11.974
25850W        W92391  34.998  26.455   5.040
25851W        W92392   3.677  11.075  13.179
25852W        W92393  21.166  22.926  13.366
25853W        W92394  32.695  21.928  11.150
25854W        W92395  23.892  24.456   1.400
25855W        W92396  34.966  40.541   2.552
25856W        W92397  15.812  18.535  13.904
25857W        W92398  22.665  19.568  11.508
25858W        W92399  41.542  10.608   2.280
25859W        W92400  36.773  33.680  10.858
25860W        W92401  24.465  42.172  12.443
25861W        W92402  26.569  43.803   0.462
25862W        W92403   5.677  11.770  13.989
25863W        W92404  15.826  14.090   2.126
25864W        W92405   1.978   8.493   2.661
25865W        W92406   3.204  44.786   0.905
25866W        W92407  14.771  19.522   1.441
25867W        W92408  18.747  12.389  13.015
25868W        W92409  12.561  28.040  12.076
25869W        W92410  42.982   1.828   3.288
25870W        W92411  31.909  23.090  11.935
25871W        W92412  32.815  36.380   2.004
25872W        W92413   0.892  44.495  14.509
25873W        W92414  23.078  24.562   0.516
25874W        W92415  32.678  33.933   1.899
25875W        W92416   4.795  14.628   2.263
25876W        W92417  37.319  38.456   2.947
25877W        W92418  21.526   3.930  14.937
25878W        W92419  19.151  28.456  11.187
25879W        W92420  13.819  12.717   3.153
25880W        W92421  22.246  13.195   9.728
25881W        W92422  28.253   4.249   4.189
25882W        W92423  40.470  15.169  13.370
25883W        W92424  37.527  34.950  10.495
25884W        W92425   5.367   0.193   1.195
25885W        W92426  40.075  44.822  14.399
25886W        W92427   7.042  36.519  11.482
25887W        W92428  14.861  32.661   4.449
25888W        W92429   3.965  25.518   0.850
25889W        W92430  15.897   1.533  13.173
25890W        W92431   7.765  22.565   4.591
25891W        W92432   2.352   5.180  13.013
25892W        W92433  32.458  21.021  11.422
25893W        W92434  33.476  39.421  13.792
25894W        W92435   7.473  42.857   0.013
25895W        W92436   2.351  36.461  14.925
25896W        W92437   6.875   5.306  13.400
25897W        W92438  43.071  41.227   1.731
25898W        W92439   2.744  14.547  13.957
25899W        W92440  42.978   7.647   0.083
25900W        W92441  27.073  43.630  11.162
25901W        W92442  35.050  36.096   1.433
25902W        W92443   5.109   7.446   1.454
25903W        W92444  39.973  26.019   4.725
25904W        W92445  40.092  34.935  14.917
25905W        W92446  22.644  16.614   1.286
25906W        W92447  13.889  17.856  14.751
25907W        W92448  25.626  12.166   0.789
25908W        W92449  34.882  33.078   3.026
25909W        W92450  19.248  39.776  11.154
25910W        W92451   8.578  41.162  13.930
25911W        W92452  24.798  18.672  13.358
25912W        W92453   7.739  19.283   3.177
25913W        W92454   7.737  37.820   0.061
25914W        W92455   9.891  14.287   1.522
25915W        W92456  20.633  21.993  10.544
25916W        W92457  32.657   0.396  13.110
25917W        W92458   0.317  20.143  12.864
25918W        W92459   3.840  30.188   1.325
25919W        W92460   0.525  18.717  13.132
25920W        W92461  14.371  18.301  11.921
25921W        W92462  30.978   9.271  10.466
25922W        W92463  37.717  12.924  14.869
25923W        W92464  24.537  27.176  10.754
25924W        W92465  12.072  30.839  12.415
25925W        W92466  12.678   7.372  12.394
25926W        W92467   1.419  21.906   3.149
25927W        W92468   3.393  41.253  11.091
25928W        W92469   6.441  44.192   3.627
25929W        W92470   5.447  25.619   0.449
25930W        W92471   7.024  29.509  10.652
25931W        W92472  22.176  16.867  12.090
25932W        W92473  40.831  23.700   4.639
25933W        W92474  19.305  42.561  11.017
25934W        W92475  34.603  29.054   1.707
25935W        W92476  28.879   4.680  11.743
25936W        W92477  21.535  31.477   3.838
25937W        W92478   1.475  33.882   0.683
25938W        W92479  43.883   9.628  10.676
25939W        W92480  13.216  36.463   3.618
25940W        W92481  14.538   4.839  11.727
25941W        W92482  30.393  11.751  14.724
25942W        W92483   5.321  39.885   1.803
25943W        W92484  40.222  15.823  11.522
25944W        W92485   1.888  11.054  13.795
25945W        W92486  23.990  10.414   4.057
25946W        W92487  25.715  41.837  13.857
25947W        W92488  31.386  36.441  13.908
25948W        W92489   5.767  33.555   1.509
25949W        W92490  12.638   0.252   0.942
25950W        W92491  21.648  17.804  12.809
25951W        W92492   9.438   3.762   2.801
25952W        W92493   6.229  16.706  11.989
25953W        W92494  32.455  18.682  14.081
25954W        W92495  34.930   8.902   4.545
25955W        W92496  19.315  17.597  12.669
25956W        W92497   6.897  39.994   1.458
25957W        W92498   5.852  42.334  10.971
25958W        W92499  18.271  18.019  12.100
25959W        W92500  17.533  30.955   2.884
25960W        W92501  18.842  43.394  12.069
25961W        W92502   5.170  14.193   0.970
25962W        W92503  29.855   1.332   3.819
25963W        W92504  44.719   2.191   3.356
25964W        W92505  21.289  43.771   2.991
25965W        W92506   6.184  36.633   0.834
25966W        W92507  28.108  14.454   4.541
25967W        W92508  19.309  29.219  11.863
25968W        W92509  31.316  31.568   4.151
25969W        W92510  26.564   6.484   4.562
25970W        W92511  16.529   8.664   4.570
25971W        W92512  20.084  15.940  13.051
25972W        W92513  42.241  40.478   2.297
25973W        W92514  32.355   9.997  10.223
25974W        W92515   6.148  37.574   3.619
25975W        W92516  41.201  31.149   4.256
25976W        W92517   3.753  23.032  10.517
25977W        W92518  33.144   6.519   4.271
25978W        W92519  26.978   6.918  13.037
25979W        W92520  37.475  36.905   0.620
25980W        W92521  36.001   5.942  13.729
25981W        W92522  15.360   0.392   2.287
25982W        W92523  44.338   2.881  11.920
25983W        W92524  20.060   0.513   4.584
25984W        W92525  43.599   2.811   0.613
25985W        W92526  18.272  40.502   1.948
25986W        W92527  19.266  18.995   2.293
25987W        W92528  36.454  30.957   0.405
25988W        W92529  37.862  37.921  14.230
25989W        W92530  20.654  41.723  12.714
25990W        W92531  38.764  38.745   4.166
25991W        W92532   8.841  37.803   2.630
25992W        W92533  44.374  40.525   0.711
25993W        W92534  34.222   5.656   1.851
25994W        W92535  35.306  17.251   2.458
25995W        W92536  34.476  23.499  12.026
25996W        W92537  29.129  25.261   0.946
25997W        W92538  18.121  28.414  13.551
25998W        W92539  15.675  17.473  13.860
25999W        W92540  21.303  40.590  12.368
26000W        W92541   7.800  26.977  13.328
26001W        W92542  21.591   7.914  13.810
26002W        W92543  39.712   9.606  14.555
26003W        W92544  24.144  28.272   0.152
26004W        W92545   5.865  28.974  13.536
26005W        W92546  10.651   9.514  13.062
26006W        W92547  34.868  24.631  14.231
26007W        W92548   5.785  32.075   2.826
26008W        W92549  42.403   8.479   4.767
26009W        W92550  17.728  31.440  14.265
26010W        W92551   9.636  22.062   1.303
26011W        W92552  33.954   1.252   3.627
26012W        W92553   6.764  25.102   9.621
26013W        W92554  16.791  41.244  13.290
26014W        W92555  34.890  31.953  14.646
26015W        W92556  28.063  15.313   4.101
26016W        W92557  42.352  35.496   4.231
26017W        W92558  25.572  39.046  13.122
26018W        W92559  11.236  39.345   1.249
26019W        W92560  14.075  12.541  14.077
26020W        W92561  25.903  43.960  13.052
26021W        W92562  29.829  30.037   3.881
26022W        W92563   1.799  42.014   4.563
26023W        W92564  26.579  23.165   1.356
26024W        W92565  12.806  37.454   4.824
26025W        W92566  11.604  31.398   3.795
26026W        W92567   1.761  12.671   4.409
26027W        W92568   2.038  24.036  14.506
26028W        W92569  40.969   0.709   2.180
26029W        W92570   7.121  25.412  13.512
26030W        W92571  30.497   0.881  11.871
26031W        W92572  42.220   4.253  11.909
26032W        W92573  39.233   2.737  13.948
26033W        W92574  16.164  34.050   4.664
26034W        W92575  13.322  42.957   3.006
26035W        W92576   3.409  11.419   2.014
26036W        W92577  25.531   6.137   2.842
26037W        W92578  14.820  39.452  13.359
26038W        W92579  30.573  22.496  10.675
26039W        W92580   3.137  18.647  12.649
26040W        W92581  11.320  34.433  13.983
26041W        W92582  28.612  27.918  13.779
26042W        W92583  20.625  43.811   0.827
26043W        W92584  27.155  20.682   2.725
26044W        W92585  39.552  21.627  14.471
26045W        W92586   9.139  17.636  12.413
26046W        W92587  24.560   4.546   2.187
26047W        W92588  31.954  21.435  12.511
26048W        W92589  43.507  39.296   3.933
26049W        W92590  34.667   9.261  11.913
26050W        W92591  16.709  36.178  14.212
26051W        W92592   5.319  37.592  12.951
26052W        W92593   6.684  18.288  14.502
26053W        W92594  13.738   9.251   0.798
26054W        W92595  29.747  21.226   2.465
26055W        W92596  15.677   1.852  11.613
26056W        W92597  33.490  25.750  11.129
26057W        W92598  40.269  24.644  14.790
26058W        W92599  30.801  13.130   2.879
26059W        W92600   3.770   7.293   3.445
26060W        W92601  36.080  37.979  11.985
26061W        W92602  12.677   9.274  14.564
26062W        W92603  17.104  31.530  14.989
26063W        W92604  16.560   9.233  14.287
26064W        W92605  16.164   8.591  11.098
26065W        W92606  14.901  42.329  12.594
26066W        W92607  23.981  38.957  10.539
26067W        W92608   9.476  20.275  13.524
26068W        W92609  41.042  14.777  12.185
26069W        W92610  29.367  42.850   1.201
26070W        W92611  30.385  35.416  13.879
26071W        W92612   7.820  23.681   1.332
26072W        W92613  17.018  34.953  14.948
26073W        W92614  19.815  38.457   3.347
26074W        W92615  37.533  35.385   0.215
26075W        W92616   4.687  41.172   4.183
26076W        W92617   6.982  24.233  11.633
26077W        W92618  22.561   6.743   1.212
26078W        W92619  29.765  20.505  11.095
26079W        W92620   4.238  38.314  12.567
26080W        W92621  28.350  37.912   4.771
26081W        W92622   7.082   5.123  14.454
26082W        W92623   8.329  33.988   4.026
26083W        W92624   8.917  43.225   2.077
26084W        W92625  26.203   0.910   4.908
26085W        W92626   5.393  36.182  13.983
26086W        W92627  37.032  23.256  13.991
26087W        W92628  30.175  38.275   3.708
26088W        W92629  35.455  30.940   3.841
26089W        W92630   5.394  34.572   0.778
26090W        W92631   1.910  15.798  13.970
26091W        W92632  40.357  33.392  10.962
26092W        W92633  24.736  42.078   0.730
26093W        W92634   8.936  10.025  10.705
26094W        W92635  11.735  13.646  11.954
26095W        W92636  16.738  33.173   3.147
26096W        W92637  38.564  28.730  11.147
26097W        W92638   2.931   1.233   1.790
26098W        W92639  25.060  26.920  13.255
26099W        W92640  19.773   6.146  12.363
26100W        W92641  36.977  37.062   2.134
26101W        W92642  22.766  17.511  11.690
26102W        W92643  19.730   8.866  13.538
26103W        W92644  32.461  33.773  12.565
26104W        W92645  31.055  19.129  12.546
26105W        W92646   8.949  24.746  12.401
26106W        W92647  29.527  16.071   4.677
26107W        W92648  16.523  11.822   0.871
26108W        W92649  22.473  19.663  10.848
26109W        W92650  23.537   0.668  11.156
26110W        W92651  44.305  40.258  11.383
26111W        W92652  33.394  16.561  11.639
26112W        W92653  35.608  25.175   2.788
26113W        W92654  26.522  27.723   2.844
26114W        W92655  32.401  20.076  10.745
26115W        W92656  25.857   4.212  10.704
26116W        W92657  10.172  22.617   2.650
26117W        W92658  25.947  31.915   0.566
26118W        W92659   2.934  25.556  12.331
26119W        W92660  37.803  38.949  14.992
26120W        W92661  44.291   3.350  14.843
26121W        W92662  13.686  15.196   4.331
26122W        W92663  42.463   0.231  12.179
26123W        W92664  10.700  41.425  12.444
26124W        W92665  11.260  18.638  14.080
26125W        W92666  17.093  15.768   1.457
26126W        W92667  26.218  22.200  11.638
26127W        W92668  38.065   5.297  14.409
26128W        W92669  10.427  24.264   3.675
26129W        W92670  26.785  17.821   4.034
26130W        W92671   2.926  19.221   1.940
26131W        W92672   0.139  42.924  13.809
26132W        W92673  44.981   5.558   3.104
26133W        W92674  37.436  27.520  11.637
26134W        W92675   7.304  34.818  11.587
26135W        W92676  18.733   8.616  12.077
26136W        W92677  27.196  32.076   2.229
26137W        W92678  28.156  30.132   5.010
26138W        W92679  27.603  16.209  12.922
26139W        W92680  35.811   8.794   4.191
26140W        W92681  25.202  18.583   4.420
26141W        W92682  36.136  27.503   1.918
26142W        W92683  13.719  35.487   0.910
26143W        W92684  19.656  18.728   4.190
26144W        W92685   7.991   3.322  12.056
26145W        W92686  15.871  34.582  10.634
26146W        W92687  15.743   5.303   1.422
26147W        W92688  22.167   2.953   0.795
26148W        W92689  34.976  37.674   3.829
26149W        W92690  32.869  32.959  13.011
26150W        W92691   2.237  11.463  12.130
26151W        W92692   3.937  27.193   0.241
26152W        W92693   7.875  24.786   4.710
26153W        W92694  13.772  29.733  11.146
26154W        W92695   6.865   8.166  12.400
26155W        W92696  34.728   8.313   2.747
26156W        W92697   7.748  17.142   0.978
26157W        W92698  37.699  40.335   3.014
26158W        W92699   3.419  32.821  11.564
26159W        W92700  31.085   6.305   2.745
26160W        W92701   5.411  20.207  13.381
26161W        W92702  25.910   3.310   4.554
26162W        W92703   2.289  28.571   4.196
26163W        W92704  11.807  23.734  14.943
26164W        W92705  34.478   8.396   4.312
26165W        W92706  25.917  32.476  14.931
26166W        W92707  36.867   6.397  13.885
26167W        W92708  35.474  26.200  10.233
26168W        W92709  17.540  17.990   4.066
26169W        W92710   8.740  11.484  10.703
26170W        W92711  32.984  27.102  11.268
26171W        W92712  23.031  34.796   0.920
26172W        W92713  38.039  33.301  12.158
26173W        W92714   7.119  36.885   4.368
26174W        W92715  38.086  13.081   2.830
26175W        W92716  34.402   3.082  12.606
26176W        W92717  11.142  16.921   0.834
26177W        W92718  33.530  43.027   2.377
26178W        W92719  16.643  44.507  11.000
26179W        W92720   1.052  36.833  11.876
26180W        W92721   2.248  43.328  13.087
26181W        W92722  32.515  37.042   0.383
26182W        W92723  28.029  18.344   1.024
26183W        W92724  11.081  19.743   3.040
26184W        W92725  36.526  12.305   2.714
26185W        W92726  27.013   2.994   0.364
26186W        W92727  27.514  31.475  13.584
26187W        W92728   7.161  23.437   0.948
26188W        W92729  22.609  40.964  14.563
26189W        W92730   5.759   3.281  13.516
26190W        W92731   9.586   1.673  14.848
26191W        W92732  17.015  37.875  11.104
26192W        W92733  10.109  12.579  10.692
26193W        W92734   7.918  14.103   0.321
26194W        W92735  29.512   2.909   2.878
26195W        W92736  40.368  16.483  14.808
26196W        W92737  44.398  14.306  11.864
26197W        W92738  18.622  38.970   2.170
26198W        W92739  11.143  23.370   1.747
26199W        W92740  23.452  30.201  12.448
26200W        W92741  35.739  18.377  14.136
26201W        W92742  20.975  10.295  14.337
26202W        W92743  28.529   7.341  14.979
26203W        W92744  40.605  27.022  14.462
26204W        W92745   6.469  43.070  13.986
26205W        W92746  26.223  22.068  13.135
26206W        W92747   5.413  42.015  13.546
26207W        W92748  25.518  29.110  12.168
26208W        W92749  24.113   1.435  10.431
26209W        W92750  34.472   4.959  11.368
26210W        W92751  16.461  43.377   3.830
26211W        W92752  10.888   5.672  14.358
26212W        W92753  22.056   3.826   2.313
26213W        W92754  19.568  13.240   3.264
26214W        W92755  13.670  22.949   4.502
26215W        W92756  11.911  21.714   2.259
26216W        W92757  36.013  42.578  10.754
26217W        W92758  32.268  42.096   0.443
26218W        W92759  34.957  25.947  14.284
26219W        W92760  14.628   4.708   4.555
26220W        W92761  30.710  32.519   3.614
26221W        W92762  44.752   7.368   4.927
26222W        W92763   0.271  19.756   2.437
26223W        W92764  21.099  13.225   1.369
26224W        W92765  44.328  33.048  12.093
26225W        W92766  23.262  42.375  13.434
26226W        W92767  43.986  36.613  13.911
26227W        W92768  42.818  27.462   4.568
26228W        W92769  30.498  39.897   0.272
26229W        W92770  12.852   7.519  14.126
26230W        W92771   1.475  18.429  14.244
26231W        W92772  27.898   3.884   3.497
26232W        W92773   9.987  44.630   2.698
26233W        W92774  24.216  13.456   1.455
26234W        W92775   8.315  11.668  14.829
26235W        W92776  30.490  11.796   4.442
26236W        W92777   8.125  30.646   4.276
26237W        W92778  25.949  19.518   2.265
26238W        W92779  24.726  14.312   1.231
26239W        W92780  19.006  17.970  14.331
26240W        W92781  41.299  37.925  12.981
26241W        W92782  30.775   8.229   4.503
26242W        W92783  34.843  10.794  14.786
26243W        W92784  33.569  29.620  13.991
26244W        W92785  41.471   7.946  10.869
26245W        W92786   8.279   6.238   2.739
26246W        W92787  12.834  30.628  14.016
26247W        W92788  41.366  15.981   1.842
26248W        W92789   4.291   4.329   1.865
26249W        W92790  27.793   0.634  10.110
26250W        W92791  22.329  43.412   4.021
26251W        W92792   5.426  10.696   0.032
26252W        W92793   6.866  34.479   3.854
26253W        W92794  16.330  32.429  14.590
26254W        W92795  25.884  38.665   0.473
26255W        W92796  35.511  23.478   2.216
26256W        W92797  44.813  23.200  13.949
26257W        W92798  32.131  20.948   0.487
26258W        W92799  15.526   1.978   3.668
26259W        W92800   0.683  37.270  13.261
26260W        W92801  10.798  13.192  12.151
26261W        W92802  34.638  22.156  12.000
26262W        W92803  17.320  37.918   4.168
26263W        W92804  23.570  13.150  11.856
26264W        W92805  20.728  13.078  11.535
26265W        W92806  44.737  16.963   2.302
26266W        W92807  10.534  39.208   9.776
26267W        W92808  23.839  27.621  11.196
26268W        W92809  16.413   0.495   2.259
26269W        W92810   8.459  31.403   1.793
26270W        W92811  38.526  39.474   1.473
26271W        W92812   2.825   3.388  14.709
26272W        W92813   0.057  31.919   2.863
26273W        W92814  44.745  25.325  11.993
26274W        W92815  14.388   6.521   2.881
26275W        W92816  22.538  24.570  14.285
26276W        W92817  18.988  20.314  12.783
26277W        W92818  33.692  21.052  12.133
26278W        W92819  33.870  26.368  14.421
26279W        W92820  21.779  20.876  10.573
26280W        W92821  24.491   3.209  14.428
26281W        W92822  23.004  30.088  12.701
26282W        W92823   8.319  40.048   1.857
26283W        W92824   1.249  26.379  12.573
26284W        W92825   3.183  37.583  12.428
26285W        W92826  32.934  26.509   1.557
26286W        W92827  25.016  40.367   2.550
26287W        W92828  22.726   3.230   5.037
26288W        W92829  32.468   8.256  13.478
26289W        W92830  44.566  25.294  10.080
26290W        W92831  21.497  16.074   4.777
26291W        W92832  17.667  24.577   3.084
26292W        W92833  33.149  17.069  13.350
26293W        W92834  36.584  34.120  11.060
26294W        W92835  10.619   8.471   0.809
26295W        W92836   2.285   5.523  11.133
26296W        W92837  40.347   1.442  14.790
26297W        W92838  28.748  44.405  13.836
26298W        W92839  17.669  41.310   2.688
26299W        W92840   3.164  22.549   0.463
26300W        W92841  13.711  35.260  11.411
26301W        W92842  16.428  38.833   4.654
26302W        W92843  29.145  42.770   4.573
26303W        W92844  43.939  35.716  12.414
26304W        W92845  34.608  20.214  13.972
26305W        W92846  17.634  25.871   3.708
26306W        W92847  32.892  39.072   3.246
26307W        W92848   0.677  22.730   1.254
26308W        W92849  21.480  41.458  12.965
26309W        W92850  24.630   3.816   4.107
26310W        W92851  32.517   8.957   4.647
26311W        W92852  27.393  17.502   0.361
26312W        W92853  33.424   1.585  14.422
26313W        W92854  34.504  21.273  14.769
26314W        W92855  15.275  44.357   2.525
26315W        W92856  39.160  41.799   4.798
26316W        W92857   5.882  21.609   1.880
26317W        W92858  37.573  16.040  14.884
26318W        W92859  18.774   3.783   2.255
26319W        W92860   1.883  29.566  11.200
26320W        W92861  20.246  16.254  13.458
26321W        W92862  29.183  16.292   0.948
26322W        W92863  34.202  17.132  12.523
26323W        W92864  25.623  43.281   4.504
26324W        W92865  18.012  33.411   2.885
26325W        W92866  10.099  19.041   2.700
26326W        W92867  13.834  39.220  14.780
26327W        W92868  18.769  37.110  11.552
26328W        W92869  21.955  17.758   0.874
26329W        W92870  21.682  40.301   0.927
26330W        W92871  33.136  10.823   0.090
26331W        W92872  33.432  26.263   4.110
26332W        W92873  42.561   7.722  14.246
26333W        W92874  37.701  22.723   2.928
26334W        W92875  43.299  37.243  14.712
26335W        W92876  20.060  36.314   3.215
26336W        W92877  14.260   1.545  14.828
26337W        W92878  18.286  38.419  12.158
26338W        W92879  39.995  12.804  13.394
26339W        W92880  43.273  15.987  10.539
26340W        W92881  36.453  10.162  14.731
26341W        W92882  31.344  10.619   1.838
26342W        W92883  27.194  19.590   4.161
26343W        W92884  21.115  26.299   3.123
26344W        W92885   9.881  37.551  14.308
26345W        W92886  17.580  39.254  12.658
26346W        W92887   9.564   2.341   1.115
26347W        W92888  32.890  28.289  11.605
26348W        W92889  36.884  30.707   2.760
26349W        W92890  40.347  30.483   0.041
26350W        W92891  42.032  17.368  14.460
26351W        W92892  39.143  14.413   0.715
26352W        W92893   9.377  17.367   0.126
26353W        W92894  10.696  26.576  10.217
26354W        W92895  11.350   7.805   3.664
26355W        W92896  24.308  18.521  13.353
26356W        W92897  43.964  43.618   4.667
26357W        W92898  28.975  16.598   2.770
26358W        W92899   5.318  41.485   4.465
26359W        W92900   9.365  27.078   4.369
26360W        W92901  27.778   0.950  13.419
26361W        W92902  24.744  18.053   0.798
26362W        W92903  25.153  40.314  10.546
26363W        W92904  20.575  26.990   4.259
26364W        W92905   6.636   7.324   0.717
26365W        W92906  17.803  23.243  11.524
26366W        W92907   9.206  29.670   1.253
26367W        W92908  25.889  32.146   3.745
26368W        W92909  44.833  20.098  12.666
26369W        W92910  25.692  42.365  14.030
26370W        W92911  43.999  44.209  14.350
26371W        W92912  21.307   3.525  14.172
26372W        W92913  20.463  17.176  12.090
26373W        W92914  29.850  32.888  11.119
26374W        W92915  25.314   9.239   0.307
26375W        W92916  13.701   4.310   4.871
26376W        W92917   3.382   0.813  13.380
26377W        W92918  43.950   9.528   4.094
26378W        W92919  43.591   4.800  13.877
26379W        W92920  22.342   7.693  13.501
26380W        W92921   2.457  18.833  11.775
26381W        W92922  27.697   3.732   1.367
26382W        W92923  27.749  13.744  11.014
26383W        W92924   3.559  38.368   0.481
26384W        W92925  32.189  34.984  14.799
26385W        W92926  26.131   3.326   0.752
26386W        W92927   1.769  26.501  14.345
26387W        W92928  15.691   0.195   3.613
26388W        W92929  26.638  31.015   4.293
26389W        W92930   5.620  22.079   1.752
26390W        W92931  23.592  30.933  10.893
26391W        W92932   6.729  28.108  12.978
26392W        W92933  33.175  18.520   1.328
26393W        W92934  24.281  20.911   3.826
26394W        W92935  12.852  34.855  10.741
26395W        W92936  36.881  18.376  13.488
26396W        W92937   4.298  31.459  12.584
26397W        W92938   2.016   4.880   0.836
26398W        W92939  28.059  21.920  13.533
26399W        W92940  18.652  19.975  13.557
26400W        W92941  35.358   2.410  13.050
26401W        W92942  22.022  30.599   4.695
26402W        W92943  40.895  37.596   1.458
26403W        W92944  35.523  33.538  12.818
26404W        W92945  27.068   1.339  12.847
26405W        W92946  20.473  36.057  11.159
26406W        W92947  37.307  29.860   5.056
26407W        W92948  43.421  17.486  10.719
26408W        W92949  29.725  28.565   1.860
26409W        W92950  38.473  19.708   2.368
26410W        W92951   0.296  38.423  12.166
26411W        W92952  29.728  19.257  12.231
26412W        W92953   4.443  18.078   0.343
26413W        W92954  26.046  30.705  12.834
26414W        W92955  39.789   0.504  11.054
26415W        W92956  14.012  41.444   1.982
26416W        W92957  40.432  38.507   2.120
26417W        W92958  44.828  37.811   1.290
26418W        W92959  13.886  29.019   0.545
26419W        W92960  39.615  11.136   5.382
26420W        W92961  12.515   0.276   3.547
26421W        W92962  40.074  30.816   3.888
26422W        W92963  24.090   4.187   4.969
26423W        W92964   9.432  16.651  14.416
26424W        W92965  42.433  23.348  11.947
26425W        W92966  33.193  36.887  14.427
26426W        W92967  11.758  17.165  13.729
26427W        W92968  32.196  25.972   2.877
26428W        W92969   6.739   7.317   2.740
26429W        W92970   3.856  38.309   2.851
26430W        W92971  13.859  10.771  12.456
26431W        W92972  29.878  34.112   3.000
26432W        W92973  11.822  15.797   1.656
26433W        W92974  12.399  44.020   4.588
26434W        W92975  40.703   3.817   4.271
26435W        W92976  15.312  18.836   3.144
26436W        W92977  24.992  25.800   5.052
26437W        W92978  10.105  40.410   2.703
26438W        W92979  19.164   5.652   3.380
26439W        W92980  12.855  14.746   2.228
26440W        W92981  13.854   0.695   0.748
26441W        W92982  13.627  26.570  11.212
26442W        W92983   5.018   9.479   0.531
26443W        W92984  12.271   8.112   3.142
26444W        W92985  18.512  36.902  12.595
26445W        W92986  10.586  15.230  14.247
26446W        W92987  41.891  29.167   1.834
26447W        W92988  43.523  42.437  13.279
26448W        W92989  34.184  34.609  11.332
26449W        W92990  16.657  10.553  11.133
26450W        W92991  37.824  25.426  11.150
26451W        W92992   1.973  31.135  12.426
26452W        W92993  22.910  16.130  11.434
26453W        W92994  23.969  17.226   2.729
26454W        W92995  30.495  31.963   1.320
26455W        W92996  44.323  23.056   4.741
26456W        W92997  23.340  27.370  12.653
26457W        W92998  25.742   8.359  14.306
26458W        W92999   3.053   8.679  13.557
26459W        W93000  30.920  30.904   0.819
26460W        W93001  30.941  16.295  11.523
26461W        W93002  39.732   3.585  13.197
26462W        W93003  37.227  26.950   3.804
26463W        W93004  27.702  26.138   4.701
26464W        W93005  41.764  20.827  11.662
26465W        W93006  15.738  38.741  13.994
26466W        W93007  40.300   4.494  14.918
26467W        W93008   4.972   8.964  14.750
26468W        W93009  37.348  41.411   1.290
26469W        W93010  37.425  21.943  12.423
26470W        W93011   0.717   0.194   0.961
26471W        W93012  42.744  28.651   0.279
26472W        W93013  11.843   1.999  13.980
26473W        W93014  39.074  28.715   3.578
26474W        W93015  12.676  28.698  13.754
26475W        W93016  26.954  36.645   2.671
26476W        W93017  10.220  27.654  14.905
26477W        W93018  44.451  14.625  12.866
26478W        W93019  18.270  43.952  11.062
26479W        W93020   1.202   2.960  14.759
26480W        W93021   7.374  37.808   4.058
26481W        W93022  10.168  19.607  13.513
26482W        W93023  44.939   9.669   1.411
26483W        W93024  19.535   1.254   1.750
26484W        W93025  17.106  41.582  13.034
26485W        W93026  41.554  36.210   1.374
26486W        W93027  40.985  44.843   0.403
26487W        W93028   8.301  17.017  11.039
26488W        W93029  30.627  30.457   4.566
26489W        W93030  25.111  11.377   1.857
26490W        W93031  17.810  41.467  11.601
26491W        W93032  37.951  19.283   3.331
26492W        W93033  37.546  24.941   1.985
26493W        W93034  28.482  22.787  11.953
26494W        W93035  16.660  29.862   2.111
26495W        W93036  34.195   1.455   0.383
26496W        W93037  12.634  35.179  12.947
26497W        W93038  15.004  41.342   2.848
26498W        W93039  20.643  26.542   5.291
26499W        W93040  44.361  31.338   3.644
26500W        W93041  43.830  20.699   0.517
26501W        W93042  25.584  25.305   3.582
26502W        W93043   8.806  24.952   1.260
26503W        W93044  35.656  22.219   2.218
26504W        W93045  39.407   9.715   2.918
26505W        W93046   9.986  16.251  10.564
26506W        W93047  16.504  20.040   0.299
26507W        W93048  41.376   6.115  14.384
26508W        W93049  33.010  25.031   4.590
26509W        W93050  12.743  33.976   1.326
26510W        W93051  15.542  15.280  10.636
26511W        W93052  27.550  43.074   4.829
26512W        W93053   7.183   9.622  10.660
26513W        W93054  12.689  23.768   2.931
26514W        W93055  17.569  44.106  10.615
26515W        W93056   7.807  38.084   3.982
26516W        W93057   3.848  30.634  13.010
26517W        W93058  39.290  27.588   0.413
26518W        W93059  28.433  38.007   3.402
26519W        W93060  43.304  20.143   2.183
26520W        W93061   9.206  15.717  14.796
26521W        W93062  33.137   7.353   3.418
26522W        W93063  30.433  43.380   3.324
26523W        W93064  20.869  26.392  13.903
26524W        W93065   3.382  40.676  11.146
26525W        W93066   8.963  21.828   1.958
26526W        W93067  10.323  33.999  13.062
26527W        W93068  40.554  36.200  12.987
26528W        W93069  14.654  35.669   3.047
26529W        W93070  24.307  18.284  12.491
26530W        W93071  13.905  37.375   2.771
26531W        W93072   0.943  30.945   3.696
26532W        W93073  21.193   6.009  13.015
26533W        W93074  32.820  43.022  14.004
26534W        W93075  18.777  31.506  13.359
26535W        W93076   3.027  32.653   0.794
26536W        W93077   3.225   8.018  12.927
26537W        W93078   3.933   4.697   3.634
26538W        W93079  26.668   3.391   1.943
26539W        W93080  21.503   8.735   1.034
26540W        W93081  23.968   3.496   3.120
26541W        W93082  22.657  39.057  12.056
26542W        W93083   2.452  41.948  13.789
26543W        W93084  13.676  19.287   3.467
26544W        W93085  39.813  39.741  14.825
26545W        W93086  38.912  14.760   1.991
26546W        W93087  11.260  10.058   0.260
26547W        W93088  19.324  32.821   4.859
26548W        W93089  41.410  29.412  12.845
26549W        W93090  33.460   5.703  13.031
26550W        W93091   7.137  30.121   2.042
26551W        W93092   1.506  20.917   4.233
26552W        W93093   4.769  24.519  14.849
26553W        W93094   8.015  42.159   0.360
26554W        W93095   3.728  34.420  13.319
26555W        W93096  21.153   8.837  13.269
26556W        W93097   7.633  20.059  11.184
26557W        W93098  28.675  16.473   4.172
26558W        W93099  25.546  15.746  11.884
26559W        W93100   2.077   0.541  13.410
26560W        W93101  43.540  37.635  11.127
26561W        W93102  25.761  12.707  10.847
26562W        W93103  15.976  43.314   4.836
26563W        W93104  25.500  41.082   0.067
26564W        W93105   2.212  19.227  14.969
26565W        W93106  33.872  15.761  12.291
26566W        W93107  10.343  41.927  14.065
26567W        W93108  41.957   8.390   0.702
26568W        W93109   2.979  31.166   0.776
26569W        W93110  21.227   9.325  11.128
26570W        W93111  31.494  27.495   4.036
26571W        W93112  34.689  15.044   1.838
26572W        W93113  17.553  22.472   3.714
26573W        W93114  34.116  11.157   2.850
26574W        W93115  16.146   8.830  11.948
26575W        W93116  44.782  38.992   3.300
26576W        W93117   6.134  37.904  14.016
26577W        W93118  15.572  28.951  14.837
26578W        W93119  27.471  13.134   3.121
26579W        W93120  25.030  43.404  12.515
26580W        W93121  16.232  26.888  14.858
26581W        W93122  30.447  23.098   1.620
26582W        W93123  43.183  34.496   2.719
26583W        W93124   2.527   1.236   9.942
26584W        W93125  39.728  34.195  11.145
26585W        W93126   7.612  14.407   3.256
26586W        W93127  12.518  16.947  14.295
26587W        W93128   9.699   9.912   2.294
26588W        W93129   7.625  35.826   5.026
26589W        W93130   9.706  44.831   2.226
26590W        W93131  25.606   0.248  10.793
26591W        W93132  21.308  30.012  11.996
26592W        W93133  19.810   5.528   5.408
26593W        W93134  43.754   6.765  13.417
26594W        W93135   9.762   2.716  14.786
26595W        W93136  32.375  30.471  11.534
26596W        W93137  28.148  14.542   2.284
26597W        W93138   9.788  10.922  11.190
26598W        W93139  24.581  23.249   4.099
26599W        W93140  33.616   0.273   9.481
26600W        W93141  16.734  40.831   0.937
26601W        W93142  23.030  39.201   2.714
26602W        W93143  18.011  27.062  14.594
26603W        W93144  28.393  10.875   2.915
26604W        W93145  32.772  39.337  13.102
26605W        W93146  30.282  16.879  14.969
26606W        W93147   6.612  39.590  12.639
26607W        W93148  15.824  16.286   2.222
26608W        W93149  13.655   7.245   4.494
26609W        W93150   9.938   4.491  11.616
26610W        W93151  20.846  18.711  14.733
26611W        W93152  26.025  39.639   2.842
26612W        W93153  34.926  25.090   0.948
26613W        W93154  17.590  41.860   3.273
26614W        W93155  15.375  42.528  12.366
26615W        W93156  16.166  39.622   4.390
26616W        W93157  18.273  13.219   0.930
26617W        W93158  34.889  22.726  12.275
26618W        W93159  28.152   2.433  10.704
26619W        W93160  23.627  32.326   4.078
26620W        W93161  22.583  11.614  13.040
26621W        W93162   5.383  32.857  12.367
26622W        W93163  31.960   4.210   1.327
26623W        W93164   3.399   7.320   1.135
26624W        W93165  21.707  36.587   0.947
26625W        W93166  14.828  15.599  11.598
26626W        W93167  36.142  14.241   2.589
26627W        W93168   6.497  15.806   9.823
26628W        W93169  24.136  40.568   0.357
26629W        W93170  37.910  26.148  14.198
26630W        W93171  29.438  17.304  13.357
26631W        W93172   3.146  36.007  14.791
26632W        W93173  25.184  16.145  12.636
26633W        W93174  41.516  13.244  11.526
26634W        W93175   7.573  24.532  14.789
26635W        W93176   5.159  13.218   0.477
26636W        W93177  34.704  39.019  14.611
26637W        W93178  16.176  19.166   4.546
26638W        W93179   3.034  11.178   3.345
26639W        W93180  40.060  23.628  12.518
26640W        W93181  10.350  21.959  11.621
26641W        W93182  20.272  44.572  14.246
26642W        W93183  35.794  29.444  12.915
26643W        W93184  22.985  28.924   0.093
26644W        W93185  18.113  13.088   3.227
26645W        W93186  42.982  12.274   3.341
26646W        W93187  18.872   4.464  14.262
26647W        W93188  36.680  13.595  14.942
26648W        W93189  38.398  16.829  13.831
26649W        W93190  44.915  41.248   2.287
26650W        W93191   3.283  18.819  13.599
26651W        W93192  43.527  21.231   1.134
26652W        W93193  20.099   1.754   1.257
26653W        W93194  12.333  22.725   1.341
26654W        W93195   6.887   0.795  14.289
26655W        W93196   3.994  32.908   4.857
26656W        W93197  14.699  33.599   2.967
26657W        W93198   5.349   3.615  13.962
26658W        W93199  22.659  36.719   4.021
26659W        W93200   9.100  36.447  13.644
26660W        W93201   0.488  37.426  12.800
26661W        W93202   2.775  32.792   2.414
26662W        W93203  33.182  11.623   4.274
26663W        W93204  20.473  21.327  13.596
26664W        W93205  16.228  30.548   1.099
26665W        W93206   9.656  41.744  10.570
26666W        W93207  12.178  15.054  13.096
26667W        W93208   2.412   5.750   0.476
26668W        W93209  39.456  39.563  14.366
26669W        W93210   2.535  13.812  13.038
26670W        W93211  38.334  37.132   1.802
26671W        W93212  38.217  24.107  12.527
26672W        W93213   6.446  38.722   3.079
26673W        W93214  33.097  10.327   1.828
26674W        W93215  10.716   7.919  13.931
26675W        W93216  38.577  26.891  12.052
26676W        W93217  15.332  43.559   1.012
26677W        W93218  33.174  15.791  14.566
26678W        W93219   6.946  22.205  10.742
26679W        W93220   8.674  43.857   4.276
26680W        W93221  20.835  38.539   2.852
26681W        W93222  28.673   4.496  12.183
26682W        W93223  33.557  43.970  13.366
26683W        W93224  21.208   2.890   2.696
26684W        W93225  25.897  31.901   1.876
26685W        W93226  29.432  39.247   1.751
26686W        W93227  27.506  10.375   3.246
26687W        W93228  24.138   6.913   0.854
26688W        W93229  26.608  25.286   2.741
26689W        W93230  17.212   1.504   2.539
26690W        W93231  39.964  25.257  12.454
26691W        W93232   4.941   6.002  11.735
26692W        W93233  35.819  41.508   2.238
26693W        W93234   7.788  27.245  12.871
26694W        W93235   9.940  28.852  12.420
26695W        W93236   3.835  16.448  11.447
26696W        W93237   0.871  13.767   2.235
26697W        W93238  19.451   7.375   1.348
26698W        W93239   1.084  42.591  14.096
26699W        W93240   9.314   8.751   1.323
26700W        W93241  24.216  35.177  12.067
26701W        W93242  39.302  19.225   3.683
26702W        W93243  19.599  11.303   3.706
26703W        W93244  26.899  38.804  12.941
26704W        W93245  13.246  32.031  14.931
26705W        W93246  30.590  41.105   2.820
26706W        W93247  26.166  29.866   2.205
26707W        W93248   4.768  20.565  11.169
26708W        W93249  29.811  42.930   0.251
26709W        W93250  31.736   5.239   0.572
26710W        W93251   3.449   3.992  11.646
26711W        W93252  10.587   3.032   4.342
26712W        W93253  30.432  19.641  10.697
26713W        W93254  11.683  38.974   3.271
26714W        W93255  28.189  39.255   3.716
26715W        W93256  31.351  24.228   4.795
26716W        W93257  11.020  33.338  13.462
26717W        W93258  32.863  36.180  12.890
26718W        W93259  37.789  39.236  13.609
26719W        W93260  29.459  20.511   0.499
26720W        W93261  26.546   2.702   4.090
26721W        W93262   9.312   4.033  13.735
26722W        W93263  21.045  38.379   4.376
26723W        W93264   3.973  29.097  13.463
26724W        W93265   1.784  44.983  13.938
26725W        W93266  35.124  36.929   0.573
26726W        W93267   5.703   6.613   3.924
26727W        W93268  24.968  12.757   4.241
26728W        W93269  35.153  13.160  10.613
26729W        W93270  27.339  33.980   0.801
26730W        W93271  39.497  14.219   3.155
26731W        W93272   8.859   2.416   4.518
26732W        W93273  20.255  19.758  10.682
26733W        W93274   8.737  15.363   0.375
26734W        W93275   8.688  17.398  14.540
26735W        W93276   8.176  43.040   1.444
26736W        W93277   8.257   5.022  11.223
26737W        W93278  26.487  40.042  11.895
26738W        W93279  27.277   4.000  12.036
26739W        W93280  11.725  32.057   2.681
26740W        W93281   8.767   9.120   0.347
26741W        W93282   6.722  44.046   0.974
26742W        W93283  19.733  17.726  10.223
26743W        W93284  39.266  27.594   9.773
26744W        W93285   9.390  22.095   1.861
26745W        W93286  10.703  42.275   4.134
26746W        W93287   5.395  15.225   3.665
26747W        W93288  26.507  17.601  12.358
26748W        W93289  33.393   1.473   0.773
26749W        W93290  12.896  22.638   2.070
26750W        W93291  22.043   8.854   4.493
26751W        W93292  35.632   3.759  13.615
26752W        W93293  21.760  41.881  12.862
26753W        W93294  21.168   8.335  13.106
26754W        W93295  38.032   3.684  12.832
26755W        W93296  39.138  41.659  10.254
26756W        W93297  24.515  38.924   4.330
26757W        W93298  14.597  28.848  14.468
26758W        W93299   3.963  24.470   2.847
26759W        W93300  42.391  22.007  12.418
26760W        W93301  26.119  40.350   4.577
26761W        W93302   7.639  34.853  14.848
26762W        W93303  18.693  38.004   2.653
26763W        W93304  21.715  29.579  11.637
26764W        W93305  23.051  40.973   2.305
26765W        W93306  44.803  32.551   4.979
26766W        W93307  33.631  22.453  11.696
26767W        W93308  20.125  16.755  13.392
26768W        W93309  41.751  34.477   2.306
26769W        W93310  44.966  36.096  11.221
26770W        W93311  23.998  18.367   0.500
26771W        W93312  22.546  37.734   4.200
26772W        W93313  34.402  38.813   1.001
26773W        W93314  19.212  40.505  10.618
26774W        W93315   1.448  34.875   0.883
26775W        W93316   9.138   8.903  14.248
26776W        W93317  35.125   3.974   0.340
26777W        W93318  38.868  32.812  14.960
26778W        W93319  34.691   6.973   3.165
26779W        W93320  28.713   3.678   1.382
26780W        W93321  42.846   2.891  14.853
26781W        W93322  30.698  36.405   1.126
26782W        W93323   1.193  38.615  12.100
26783W        W93324   5.780  29.074  10.491
26784W        W93325  39.427  12.382  14.480
26785W        W93326  40.361  36.656   0.922
26786W        W93327   9.952  23.552  11.958
26787W        W93328   0.293  12.270   3.352
26788W        W93329  27.392  26.988  12.009
26789W        W93330  23.998  10.859   0.722
26790W        W93331  20.144  31.524   2.800
26791W        W93332  41.037  26.112  10.618
26792W        W93333  34.009   5.753   4.589
26793W        W93334   4.009  20.024  13.809
26794W        W93335   2.650  15.358  12.496
26795W        W93336  35.983  37.820   2.731
26796W        W93337   2.758  24.620  14.551
26797W        W93338  10.515  35.845   4.301
26798W        W93339  32.950  10.849   3.739
26799W        W93340   0.085  28.120   3.632
26800W        W93341  36.465   2.993   2.029
26801W        W93342   6.331  38.710  11.097
26802W        W93343  29.218   5.513   2.686
26803W        W93344  26.968   4.700  13.875
26804W        W93345  32.302  44.481   3.035
26805W        W93346  33.474  26.963   3.168
26806W        W93347  23.404  38.957   3.240
26807W        W93348   8.860   3.870   3.134
26808W        W93349  43.766  26.744  13.130
26809W        W93350  43.603  38.158  11.126
26810W        W93351  42.022  14.123  13.835
26811W        W93352  42.534  24.539  13.271
26812W        W93353   9.249   7.293  14.240
26813W        W93354  22.754  42.473   4.903
26814W        W93355  41.979   5.769   1.881
26815W        W93356   6.808   3.675   2.382
26816W        W93357  32.544  35.468  11.468
26817W        W93358  36.490   6.404  10.608
26818W        W93359  42.940  24.483  11.134
26819W        W93360  36.812   5.019  11.119
26820W        W93361   2.174  32.964  11.526
26821W        W93362  32.639   1.657  11.794
26822W        W93363  29.552  11.653   2.645
26823W        W93364  27.129  16.995  13.410
26824W        W93365  34.561  19.677   3.092
26825W        W93366  10.331  20.133  14.218
26826W        W93367  27.451  44.269   0.317
26827W        W93368  15.333  29.670   9.848
26828W        W93369  42.061   9.947  13.477
26829W        W93370  16.077   8.046  11.142
26830W        W93371   5.332  22.986  12.533
26831W        W93372  23.910   7.285   4.149
26832W        W93373  34.114   8.329  12.222
26833W        W93374  35.070  36.319   3.340
26834W        W93375   7.370  26.249   3.800
26835W        W93376   1.946   1.943   0.430
26836W        W93377   4.431  40.948  12.939
26837W        W93378   0.649  44.407  11.177
26838W        W93379  12.602  42.089  11.503
26839W        W93380  38.013  23.957   0.393
26840W        W93381   7.768  37.777   0.974
26841W        W93382  40.297  41.516  11.108
26842W        W93383   3.131  19.701   2.661
26843W        W93384  11.801  33.518   0.060
26844W        W93385   1.917   5.640  10.788
26845W        W93386  28.781  40.122  13.306
26846W        W93387   5.568   3.714   0.384
26847W        W93388  13.489  41.623  11.433
26848W        W93389  13.831  33.568   2.434
26849W        W93390   5.741   1.215   3.132
26850W        W93391   1.155  15.368   2.249
26851W        W93392  16.897   0.961   0.190
26852W        W93393  25.227  13.594  11.430
26853W        W93394  21.643  31.025  11.972
26854W        W93395  19.963  24.539   4.245
26855W        W93396  29.362  25.090  14.004
26856W        W93397  29.418   6.555  13.979
26857W        W93398   3.217  18.701  14.442
26858W        W93399   4.473  28.994  14.182
26859W        W93400  28.599  38.836  12.496
26860W        W93401  15.486  34.885   3.592
26861W        W93402  12.193   0.899  10.566
26862W        W93403   5.043  25.729  13.007
26863W        W93404  43.491  15.717   0.614
26864W        W93405  44.419  11.804   3.734
26865W        W93406  36.291  32.982   2.709
26866W        W93407  32.592  31.025  10.710
26867W        W93408   7.315  17.450   0.962
26868W        W93409  41.544  23.432   2.228
26869W        W93410  22.730  13.356   0.008
26870W        W93411   4.765  33.112   3.376
26871W        W93412  29.446  32.524   0.769
26872W        W93413  40.099   7.418   0.372
26873W        W93414  30.093  34.058   1.435
26874W        W93415  21.522  12.032   3.512
26875W        W93416   3.792  14.309   4.541
26876W        W93417   4.904  30.482   1.943
26877W        W93418  34.085   7.721   3.392
26878W        W93419  32.789  28.115   2.199
26879W        W93420  26.590   7.105  10.962
26880W        W93421  38.898  40.322   3.841
26881W        W93422  42.112  29.081   0.733
26882W        W93423  40.079  15.753   2.033
26883W        W93424  19.801  32.407   0.175
26884W        W93425  20.019  42.658   3.774
26885W        W93426  37.829  25.546   0.928
26886W        W93427  16.626   2.242  13.080
26887W        W93428  16.696   0.302   0.865
26888W        W93429  11.657   8.342   1.940
26889W        W93430  13.288   9.010   0.765
26890W        W93431  35.374  19.216   2.873
26891W        W93432  30.789  30.759  12.905
26892W        W93433  13.294   0.144   0.208
26893W        W93434  24.757  10.341   3.743
26894W        W93435   6.667   2.820  11.069
26895W        W93436  20.099   8.639   4.678
26896W        W93437  39.485  40.966   1.454
26897W        W93438  14.339   4.327  12.891
26898W        W93439   0.961  11.098  13.653
26899W        W93440  20.722  43.698   4.745
26900W        W93441   1.432  25.910  12.575
26901W        W93442  23.102  29.916  13.713
26902W        W93443  28.162  10.799   0.268
26903W        W93444  35.792  43.677  13.839
26904W        W93445  18.072   6.418  12.547
26905W        W93446   6.174  31.095  12.373
26906W        W93447  33.323  32.994   4.068
26907W        W93448  25.270  18.244  14.340
26908W        W93449  12.644  39.831  14.315
26909W        W93450   3.923  30.299   3.318
26910W        W93451   4.632  23.133  14.947
26911W        W93452  42.391  43.063   5.010
26912W        W93453   3.071  41.069   3.678
26913W        W93454   0.878  17.580  10.464
26914W        W93455  41.143  40.663   3.140
26915W        W93456  35.522   8.426   0.964
26916W        W93457   8.135   5.223  13.022
26917W        W93458   6.972  44.244  11.283
26918W        W93459  35.496  32.636   0.748
26919W        W93460  21.831  28.250  10.330
26920W        W93461  14.641   1.842   2.562
26921W        W93462  28.763  26.627  13.053
26922W        W93463  37.000  19.585   1.952
26923W        W93464  15.235  39.771  13.363
26924W        W93465  25.906  39.274  11.729
26925W        W93466  27.123  18.704   0.246
26926W        W93467  37.087  30.202   1.416
26927W        W93468  18.675  25.106   2.695
26928W        W93469  32.508  12.382  14.258
26929W        W93470  21.500  22.946   1.171
26930W        W93471   7.746  43.850  12.562
26931W        W93472  27.973  38.281   2.090
26932W        W93473  21.734  33.609  11.625
26933W        W93474  30.603  35.062   4.123
26934W        W93475  18.914  42.569  12.454
26935W        W93476  42.874  33.665  14.373
26936W        W93477  35.201  44.757   2.436
26937W        W93478  15.214   2.533  11.550
26938W        W93479  20.147  10.766  14.983
26939W        W93480   9.650   2.231  13.874
26940W        W93481  33.673  30.109   1.862
26941W        W93482  17.282   8.245   1.273
26942W        W93483  25.604  42.284  12.017
26943W        W93484   5.911  18.286  12.656
26944W        W93485  33.480   1.720  11.379
26945W        W93486   0.954  25.083   3.164
26946W        W93487  43.435   2.204   2.704
26947W        W93488   9.158  35.326   3.385
26948W        W93489  36.807  32.895   1.248
26949W        W93490  29.031   2.206   4.854
26950W        W93491   3.779   3.246   0.218
26951W        W93492  35.544  41.885   1.920
26952W        W93493  16.842  37.980  11.595
26953W        W93494  39.277   4.033   4.196
26954W        W93495  13.207  38.540  14.482
26955W        W93496  13.000  42.909   9.909
26956W        W93497  16.457  14.120   3.292
26957W        W93498  20.647  15.518   1.287
26958W        W93499  10.934  39.521   4.888
26959W        W93500  34.902  41.045  13.529
26960W        W93501  32.315   0.012  11.881
26961W        W93502  24.996  23.062  14.513
26962W        W93503  10.808  41.098   0.599
26963W        W93504  37.114  30.510   1.903
26964W        W93505  26.985  42.491   2.245
26965W        W93506  18.899  26.604   3.284
26966W        W93507  32.102  18.727  13.469
26967W        W93508  40.273  28.508  12.404
26968W        W93509   5.125  16.640  12.470
26969W        W93510  13.732  20.680  14.981
26970W        W93511  24.589   6.925   0.450
26971W        W93512  16.169   8.806   3.672
26972W        W93513   2.271  22.275  10.471
26973W        W93514  40.401   0.735   2.973
26974W        W93515   9.173  16.206  12.482
26975W        W93516  12.902   3.813   3.182
26976W        W93517  43.069  41.931   0.365
26977W        W93518   8.644   6.000  12.471
26978W        W93519  29.941  44.477  10.541
26979W        W93520  20.747   2.400  12.468
26980W        W93521   4.559  25.785  13.993
26981W        W93522  21.994  17.632   2.775
26982W        W93523  14.736  11.401  11.696
26983W        W93524  40.170  44.969  12.019
26984W        W93525  15.866   9.710  10.736
26985W        W93526  36.347  31.023  14.752
26986W        W93527  12.513  13.187  11.091
26987W        W93528   1.914   7.789   0.971
26988W        W93529  21.998  31.954   4.030
26989W        W93530  25.168  23.006   4.485
26990W        W93531   5.461   7.796   2.971
26991W        W93532   1.974  21.189  13.315
26992W        W93533  11.800  23.581   4.484
26993W        W93534  40.567  33.999   0.724
26994W        W93535  39.694  25.901   4.291
26995W        W93536  21.334  30.677   0.480
26996W        W93537  29.021  13.569   4.148
26997W        W93538  28.020  35.168  10.351
26998W        W93539   3.955  37.323  11.084
26999W        W93540  31.936   9.012   1.437
27000W        W93541  29.530  10.783   2.578
27001W        W93542  29.397   1.284  14.056
27002W        W93543   8.767  35.539   2.072
27003W        W93544   5.211  40.000  11.641
27004W        W93545  10.715  20.054   0.103
27005W        W93546  43.004  27.060   3.740
27006W        W93547  10.148   5.863  10.270
27007W        W93548  44.939   8.232  12.903
27008W        W93549  34.670  25.556   0.958
27009W        W93550  18.812  23.568  12.373
27010W        W93551   6.089   3.466   4.154
27011W        W93552  41.830  38.448  11.613
27012W        W93553  37.428  44.504   0.293
27013W        W93554  40.892  24.089   4.290
27014W        W93555   2.382  21.663   0.814
27015W        W93556  11.067   6.014  13.987
27016W        W93557  38.251  23.734  14.975
27017W        W93558  15.348   7.017  11.498
27018W        W93559  17.532  33.438  12.902
27019W        W93560   5.212  44.280   2.436
27020W        W93561  42.184  36.517   4.217
27021W        W93562  27.572  21.787  12.916
27022W        W93563  16.812  36.526  11.188
27023W        W93564  40.897   2.981   4.626
27024W        W93565  11.278  33.649   2.165
27025W        W93566  25.925  35.534   2.761
27026W        W93567   7.009  15.246   1.617
27027W        W93568  34.034   7.966   2.447
27028W        W93569  35.620  10.459   3.192
27029W        W93570   0.509  44.954   1.364
27030W        W93571  24.798  12.272   4.153
27031W        W93572  31.119  39.023   2.718
27032W        W93573  31.131  10.633   2.301
27033W        W93574  42.576  13.495   9.663
27034W        W93575   0.783  25.216  11.540
27035W        W93576  18.846   4.957  12.370
27036W        W93577  28.645  30.017  13.285
27037W        W93578   1.339   6.381  14.553
27038W        W93579  11.337  32.591   4.547
27039W        W93580  16.087  33.853  11.485
27040W        W93581  44.241   4.365  11.997
27041W        W93582  16.075   8.304   1.183
27042W        W93583   1.282  17.425  12.916
27043W        W93584  22.960   8.393   3.362
27044W        W93585  44.289  20.389   1.133
27045W        W93586  32.761  10.845   3.264
27046W        W93587  32.480  29.885   2.627
27047W        W93588  36.590  21.240  13.897
27048W        W93589  35.493  14.806  13.006
27049W        W93590  13.957  37.528  12.165
27050W        W93591   9.352  25.586   0.847
27051W        W93592  28.199  23.189   0.809
27052W        W93593  21.175  29.422   4.566
27053W        W93594  22.705  38.010  14.386
27054W        W93595   6.681  18.785  11.120
27055W        W93596  28.940  35.582   3.444
27056W        W93597  20.954  20.852   3.929
27057W        W93598   5.604   8.963   4.326
27058W        W93599   4.316  36.126  14.690
27059W        W93600  31.998  10.844   3.804
27060W        W93601   4.914  30.461  14.919
27061W        W93602   1.420  15.624   2.817
27062W        W93603  16.772  10.253  12.395
27063W        W93604  38.945   9.734  14.563
27064W        W93605  15.371  21.824   2.369
27065W        W93606  17.521  35.964  12.416
27066W        W93607   6.218  24.730   2.246
27067W        W93608  42.083  40.406  11.619
27068W        W93609  24.253   4.434  13.793
27069W        W93610  36.043  44.923  10.700
27070W        W93611  44.020   8.075  14.895
27071W        W93612   5.475  17.819  12.006
27072W        W93613  12.734  32.283  11.568
27073W        W93614   6.235  21.600  14.240
27074W        W93615  27.939  42.861   2.452
27075W        W93616  33.672   3.801   3.259
27076W        W93617  20.326  16.721  14.284
27077W        W93618   2.820  36.177   1.434
27078W        W93619  11.580  41.323   4.111
27079W        W93620   5.278  33.975  10.570
27080W        W93621  37.422  36.062   1.846
27081W        W93622  36.379  20.352   4.374
27082W        W93623  17.257  41.543  14.004
27083W        W93624  35.501  22.571   2.584
27084W        W93625  27.942  31.721  13.405
27085W        W93626  24.541   7.873  10.812
27086W        W93627  27.131  23.927  12.516
27087W        W93628  34.536  44.351   3.735
27088W        W93629  11.813  14.600   4.512
27089W        W93630  43.831  12.657   3.399
27090W        W93631  38.842   0.873   1.737
27091W        W93632   4.622  20.646  12.611
27092W        W93633  19.524  26.023  14.543
27093W        W93634   7.170  23.601  12.061
27094W        W93635  11.365   3.943  10.930
27095W        W93636  42.043  34.118  13.852
27096W        W93637  15.622   3.686  11.150
27097W        W93638  33.882   8.682   3.647
27098W        W93639  42.997  33.351  13.983
27099W        W93640  21.290  33.550   5.089
27100W        W93641  22.617   8.433  11.111
27101W        W93642  30.481   2.221  14.021
27102W        W93643  14.909  15.879  12.039
27103W        W93644  18.248  20.665  13.826
27104W        W93645  12.847  42.370  12.576
27105W        W93646  31.038  11.444   0.213
27106W        W93647  20.526  41.030   0.734
27107W        W93648   3.281  20.212  14.447
27108W        W93649   5.114  40.611   2.022
27109W        W93650   3.979  18.710  13.845
27110W        W93651  40.806  10.473   1.331
27111W        W93652  22.813  26.357  10.725
27112W        W93653  27.409  38.389  11.705
27113W        W93654  39.437  41.673  12.362
27114W        W93655  41.873  21.584   0.113
27115W        W93656  24.638  25.111   0.453
27116W        W93657  30.989   4.245   0.691
27117W        W93658   4.904  44.428  12.927
27118W        W93659  10.840  11.146  14.200
27119W        W93660   4.814  10.822   2.436
27120W        W93661   8.742  32.440   2.435
27121W        W93662   5.937  17.811  14.419
27122W        W93663  32.016  10.219  13.593
27123W        W93664  20.017   3.541  11.570
27124W        W93665  10.164  37.263  10.953
27125W        W93666  32.106   0.336  13.163
27126W        W93667  16.737  22.504  13.384
27127W        W93668  44.420   5.647   3.204
27128W        W93669   3.485  28.760   4.671
27129W        W93670  22.970  16.666   4.894
27130W        W93671  43.119   9.291   1.602
27131W        W93672   0.779  35.126   4.927
27132W        W93673   7.192  23.369   2.375
27133W        W93674  13.658   8.638   4.209
27134W        W93675  33.064   9.500   4.525
27135W        W93676  34.977  44.702   5.009
27136W        W93677  22.935   6.989   1.467
27137W        W93678  27.756  30.926  10.817
27138W        W93679  22.266  27.778  13.893
27139W        W93680   0.483   0.678  12.895
27140W        W93681  41.878   9.633   4.839
27141W        W93682  13.491  15.615   4.059
27142W        W93683  29.452  17.336   4.214
27143W        W93684  29.681  23.685  14.204
27144W        W93685  25.984   5.975   0.898
27145W        W93686  29.366  22.110   3.123
27146W        W93687  19.133  31.247   2.323
27147W        W93688  39.794   3.915  13.636
27148W        W93689  41.222  43.655  12.558
27149W        W93690  29.915  38.323   1.652
27150W        W93691   4.418  22.032  12.095
27151W        W93692   8.338  35.467   3.780
27152W        W93693   5.590  39.763   5.038
27153W        W93694  21.171  32.354  13.417
27154W        W93695  26.397   3.816  14.767
27155W        W93696  37.330  41.906   3.786
27156W        W93697  31.463   3.064   4.411
27157W        W93698  15.222  23.694  14.579
27158W        W93699  43.940  40.964  11.392
27159W        W93700  12.838  35.659  14.897
27160W        W93701  27.907  24.038   1.966
27161W        W93702   9.131  37.405  13.595
27162W        W93703  25.446  18.915  12.321
27163W        W93704  14.241  14.782  11.578
27164W        W93705  24.986   0.739   4.581
27165W        W93706  27.901   8.731  12.387
27166W        W93707  41.411  28.487  10.716
27167W        W93708   1.423  34.554  12.155
27168W        W93709  26.730  23.129   2.697
27169W        W93710  28.506  39.811  14.333
27170W        W93711   4.708  29.624  14.154
27171W        W93712  27.952   4.971   1.974
27172W        W93713  35.853  29.731   4.461
27173W        W93714  38.454   5.901   2.664
27174W        W93715  16.225  22.292  12.598
27175W        W93716  21.620  34.637   2.244
27176W        W93717  30.469  18.049  11.047
27177W        W93718  12.110  25.693  11.635
27178W        W93719  23.411  18.025  12.825
27179W        W93720  14.039  21.378   1.290
27180W        W93721  40.701  28.979  11.309
27181W        W93722  13.184  41.101   4.052
27182W        W93723   7.366  38.005   3.582
27183W        W93724   9.795  15.527  12.019
27184W        W93725   6.254  42.070   2.813
27185W        W93726  15.644  37.381   5.051
27186W        W93727  30.865   5.846  12.001
27187W        W93728  27.075   4.179   1.825
27188W        W93729  38.374  36.167   3.282
27189W        W93730   9.427   1.369   3.754
27190W        W93731   1.508  36.867   3.835
27191W        W93732  15.560  36.949   3.365
27192W        W93733  28.714  27.140   4.492
27193W        W93734  42.493   7.961   4.791
27194W        W93735  25.467   8.862  10.296
27195W        W93736  22.586  32.606  12.675
27196W        W93737  34.793  20.091   4.343
27197W        W93738  43.639   2.853   4.205
27198W        W93739  10.593  43.899  12.037
27199W        W93740  23.724  34.785   4.173
27200W        W93741  25.938  25.626   0.443
27201W        W93742  38.355  23.019   3.828
27202W        W93743  14.316  25.147   9.966
27203W        W93744   7.357   5.228  13.575
27204W        W93745  41.299   7.624   1.054
27205W        W93746  32.088  40.807   4.547
27206W        W93747  40.422   2.206   0.565
27207W        W93748  43.454  44.191  12.390
27208W        W93749   2.957  35.188   1.255
27209W        W93750  32.174  32.297   1.581
27210W        W93751  22.298   9.816  10.676
27211W        W93752  30.094  43.051  13.553
27212W        W93753  35.444  35.836   4.562
27213W        W93754  43.410   4.957   0.865
27214W        W93755  19.704   9.210   3.572
27215W        W93756   6.885   9.852  12.316
27216W        W93757  22.954  25.764   3.927
27217W        W93758  14.786  42.758  10.765
27218W        W93759  41.521   4.307   2.787
27219W        W93760  43.432  24.601  11.288
27220W        W93761  18.118  23.732  14.441
27221W        W93762  25.080  29.875   0.199
27222W        W93763  31.192  17.807  11.671
27223W        W93764   9.234   4.760  10.847
27224W        W93765  25.674  37.479  10.686
27225W        W93766   2.430  43.657   0.025
27226W        W93767  37.381  21.171   4.488
27227W        W93768  16.596   7.936  13.229
27228W        W93769  13.224  41.426  14.083
27229W        W93770   6.929  36.001  10.254
27230W        W93771  44.088  29.254   5.219
27231W        W93772  28.002  38.083   1.508
27232W        W93773  36.675  29.101  12.967
27233W        W93774  38.567   4.417   0.421
27234W        W93775  44.017  36.546  12.332
27235W        W93776  38.364  21.097  13.424
27236W        W93777  40.955  36.662  11.093
27237W        W93778  43.440  40.929   2.628
27238W        W93779  24.855  26.516  13.513
27239W        W93780   3.160  42.822   4.696
27240W        W93781  39.933  12.167  14.463
27241W        W93782  11.016   7.591   1.924
27242W        W93783  31.526   7.289   2.971
27243W        W93784  41.979  41.888  10.661
27244W        W93785  42.849  22.505  14.133
27245W        W93786  37.917   1.444  12.359
27246W        W93787  15.300  12.807  11.629
27247W        W93788  35.625  15.446  10.427
27248W        W93789  18.681  20.759  13.109
27249W        W93790  25.976   1.320  12.929
27250W        W93791   1.426  30.474  11.726
27251W        W93792  41.084   0.779  13.102
27252W        W93793  31.189  12.825   2.176
27253W        W93794  24.920  13.342  12.645
27254W        W93795  11.441  25.775  13.922
27255W        W93796  22.547  31.405   2.665
27256W        W93797  11.855  14.798  13.520
27257W        W93798   9.254  44.506  10.098
27258W        W93799   8.073  10.771   2.674
27259W        W93800  42.427  41.336   3.081
27260W        W93801  42.710  11.624   4.042
27261W        W93802   6.665  29.858  13.438
27262W        W93803  25.464   4.893   2.253
27263W        W93804  10.733  11.374   1.704
27264W        W93805  10.099  33.500   0.247
27265W        W93806  37.793   4.948   4.537
27266W        W93807  29.550   2.401  11.664
27267W        W93808  33.450  22.999   4.888
27268W        W93809  16.239  34.434   3.101
27269W        W93810  10.016  20.243  11.486
27270W        W93811   1.324   3.796   0.322
27271W        W93812  24.620  29.586  13.514
27272W        W93813  33.181  40.597  13.365
27273W        W93814   5.277  40.153   5.091
27274W        W93815  44.069  31.139   1.250
27275W        W93816  36.807  24.658  12.413
27276W        W93817  13.084  25.059   1.738
27277W        W93818  29.564  25.411  10.469
27278W        W93819  29.521  44.331   4.421
27279W        W93820  26.613   1.306   2.309
27280W        W93821  21.024  22.933   3.768
27281W        W93822  18.041  38.101  12.477
27282W        W93823  42.918  39.727   2.254
27283W        W93824  37.672  29.925   0.866
27284W        W93825   6.944   7.194   1.557
27285W        W93826  22.488  23.438   2.898
27286W        W93827   7.427  12.766  12.528
27287W        W93828  26.156  28.121   2.761
27288W        W93829   6.109  41.061   0.043
27289W        W93830  43.452  40.204   0.890
27290W        W93831  39.705  17.804  12.941
27291W        W93832   0.961  19.879  11.126
27292W        W93833  10.339  14.611  11.557
27293W        W93834  44.935  12.482   0.316
27294W        W93835   9.853   6.659  13.178
27295W        W93836   6.365  20.837  11.607
27296W        W93837  37.572  25.073   0.956
27297W        W93838  13.429  36.659   4.027
27298W        W93839  14.620  43.932   2.107
27299W        W93840  32.483  36.307   3.557
27300W        W93841  10.945  22.182   4.123
27301W        W93842   6.396   0.417  11.585
27302W        W93843  19.159   4.271   1.175
27303W        W93844   6.980  27.502  12.805
27304W        W93845  34.176  17.041   0.281
27305W        W93846  36.849  10.779   2.114
27306W        W93847  30.434  36.716   2.090
27307W        W93848  22.626  18.032  11.725
27308W        W93849  13.847  27.671  12.007
27309W        W93850  16.545   5.020   0.300
27310W        W93851   7.259  35.870  13.957
27311W        W93852   4.903  32.915  12.534
27312W        W93853  23.443   0.294   2.952
27313W        W93854   4.801  27.215   5.237
27314W        W93855  26.896  44.806   1.530
27315W        W93856  33.127  31.738   2.397
27316W        W93857   2.697  14.467  14.771
27317W        W93858  33.657  26.511  14.868
27318W        W93859   7.737  18.244  13.184
27319W        W93860  17.732  28.522  12.290
27320W        W93861  24.302  25.567  11.284
27321W        W93862  35.945  34.520   4.712
27322W        W93863   9.012  26.733   2.241
27323W        W93864  29.027  21.038   1.646
27324W        W93865   5.440  15.209   1.759
27325W        W93866  12.487  31.167   1.478
27326W        W93867  39.586  32.847   0.351
27327W        W93868   1.496  43.241  11.946
27328W        W93869  13.374  38.221  11.265
27329W        W93870  21.971  14.361  13.468
27330W        W93871  35.050   2.525  11.666
27331W        W93872  17.068  14.576   0.738
27332W        W93873  25.474   0.351   4.646
27333W        W93874  30.237   7.357  12.806
27334W        W93875  34.427  17.125  14.593
27335W        W93876  30.484  24.245   0.550
27336W        W93877   1.947   3.462   2.728
27337W        W93878  20.370  44.252  10.153
27338W        W93879  10.378  18.049  11.749
27339W        W93880   0.117  23.525   1.697
27340W        W93881   9.135  13.156   4.076
27341W        W93882  29.132  39.589   3.109
27342W        W93883  15.657  21.658  13.663
27343W        W93884   4.921  18.616   0.841
27344W        W93885   0.253  25.619   4.803
27345W        W93886  35.346  31.417  11.644
27346W        W93887  42.821  18.485   0.368
27347W        W93888  22.513  14.630  13.348
27348W        W93889  34.362  30.929  11.139
27349W        W93890  39.507  19.186  14.739
27350W        W93891  29.076  35.392  14.686
27351W        W93892  43.965  30.463   1.896
27352W        W93893   9.365   7.844   0.863
27353W        W93894  20.786  15.827  12.092
27354W        W93895  15.136   9.636  12.345
27355W        W93896   4.450   6.753  10.372
27356W        W93897  12.849   7.854  14.902
27357W        W93898  28.690  11.734   3.600
27358W        W93899  27.037  18.641   2.241
27359W        W93900  33.091  41.847   0.455
27360W        W93901   9.987  10.409   5.047
27361W        W93902  25.434  22.801  14.351
27362W        W93903  22.011  13.559  12.102
27363W        W93904  35.430  16.225  11.065
27364W        W93905  41.770  20.674   4.985
27365W        W93906  34.506   7.450   3.162
27366W        W93907   9.888  11.453   0.816
27367W        W93908   9.236  27.635  11.471
27368W        W93909  33.384   1.779  12.921
27369W        W93910  35.171   8.173  12.440
27370W        W93911   9.622  14.443   0.719
27371W        W93912  24.736  10.818  12.534
27372W        W93913   2.247  16.855   0.207
27373W        W93914  15.262  11.893  12.828
27374W        W93915  18.451  33.374   3.626
27375W        W93916   0.799   0.778   2.754
27376W        W93917  34.372  25.596   3.806
27377W        W93918  12.453  40.301   2.337
27378W        W93919  26.102  31.846  11.551
27379W        W93920  24.061  27.236  11.470
27380W        W93921  24.638  27.526   4.642
27381W        W93922   3.389  40.291   0.235
27382W        W93923  24.366  11.539  14.423
27383W        W93924  24.681  23.609   0.248
27384W        W93925  14.098  10.945  14.457
27385W        W93926  42.132  21.749  13.044
27386W        W93927   6.707  33.582   3.519
27387W        W93928  13.637   2.484   1.710
27388W        W93929   4.924  24.278   3.604
27389W        W93930   5.328  31.494  10.556
27390W        W93931   8.326  21.603   0.765
27391W        W93932  29.100   5.854  12.986
27392W        W93933   5.881  10.559   0.295
27393W        W93934   5.517  35.490  12.405
27394W        W93935  38.512  14.236  14.910
27395W        W93936  19.405  32.330   4.621
27396W        W93937  26.205  39.867  11.149
27397W        W93938   4.253  26.867   0.514
27398W        W93939  26.379  10.891  12.642
27399W        W93940  20.283  21.976   2.715
27400W        W93941  26.930  36.370  11.623
27401W        W93942  15.875  32.535  12.942
27402W        W93943  16.227  14.599   3.292
27403W        W93944  43.262  40.816  14.094
27404W        W93945  10.291  41.903   4.230
27405W        W93946  39.435  14.557   0.299
27406W        W93947  34.884  37.448   2.877
27407W        W93948   1.282   0.998   0.948
27408W        W93949  42.154  17.002   9.993
27409W        W93950  17.208  28.556  14.481
27410W        W93951   8.373   4.346  11.506
27411W        W93952   7.949  44.837  10.503
27412W        W93953  22.098  22.037   1.029
27413W        W93954  32.397  42.802  13.726
27414W        W93955  44.743  12.577  12.807
27415W        W93956  15.435  39.022   2.821
27416W        W93957  20.588  11.856   2.273
27417W        W93958   6.302  18.338   4.072
27418W        W93959   1.753  26.520  13.427
27419W        W93960   7.327   8.191  10.641
27420W        W93961  15.815  30.935  14.021
27421W        W93962  25.102  38.542  12.605
27422W        W93963  18.212  39.411   4.141
27423W        W93964   9.874  13.320   0.538
27424W        W93965  32.365  19.475  11.602
27425W        W93966  14.171  13.835   1.720
27426W        W93967  17.238  12.029  13.493
27427W        W93968  40.562  28.118   0.544
27428W        W93969   2.981   9.730  11.001
27429W        W93970  35.899  44.891  14.853
27430W        W93971  16.518  10.961  10.868
27431W        W93972  33.527  39.837  13.504
27432W        W93973  39.726  22.189  12.794
27433W        W93974  31.063   7.865   1.692
27434W        W93975  36.295  44.734   0.753
27435W        W93976   9.137  44.808   4.177
27436W        W93977  36.631  13.366  14.453
27437W        W93978  41.712   7.271  11.170
27438W        W93979  34.433  35.632  14.590
27439W        W93980   5.784  21.202  12.675
27440W        W93981  38.932  25.254   2.795
27441W        W93982  21.895   0.516   3.999
27442W        W93983  20.295   4.283   0.485
27443W        W93984  13.447  23.175  13.106
27444W        W93985  16.237   7.473  11.543
27445W        W93986  27.690   3.447  14.506
27446W        W93987  13.813  44.035  10.708
27447W        W93988  35.899  32.045   0.750
27448W        W93989  32.459  37.789   0.889
27449W        W93990  26.606   5.657   4.053
27450W        W93991   0.041  11.596  11.825
27451W        W93992   3.035  33.022  12.889
27452W        W93993  18.349  35.447   1.851
27453W        W93994   2.186  26.957  12.103
27454W        W93995  43.096  36.480  13.019
27455W        W93996  21.021  22.623  10.638
27456W        W93997  23.181   6.614   1.798
27457W        W93998  34.533   0.394   4.446
27458W        W93999  29.110  37.177  12.405
27459W        W94000  13.212  20.788   1.303
27460W        W94001  40.344  43.996   2.083
27461W        W94002   7.871  28.645   2.859
27462W        W94003  20.416  15.100   2.147
27463W        W94004   4.819  30.051   4.598
27464W        W94005  38.758  25.549   0.443
27465W        W94006  29.417  31.496   1.974
27466W        W94007   6.415  29.618  14.676
27467W        W94008  31.185  28.590   2.020
27468W        W94009  37.244  40.914  13.815
27469W        W94010  29.448  40.063  12.129
27470W        W94011  41.391   0.801  13.565
27471W        W94012  36.861   8.677  12.543
27472W        W94013  17.557   0.759   4.617
27473W        W94014  15.108   8.115  14.293
27474W        W94015  18.125  36.313   3.629
27475W        W94016  15.150   0.342  13.736
27476W        W94017  35.452   0.833   4.362
27477W        W94018   9.366  36.767   1.141
27478W        W94019  19.088  15.935  10.080
27479W        W94020  26.343  13.711  11.055
27480W        W94021  35.376  10.560  10.705
27481W        W94022  24.917   8.866   0.319
27482W        W94023  42.690  14.799   2.642
27483W        W94024  33.709  14.346  12.860
27484W        W94025  14.849  26.951  14.737
27485W        W94026   0.820   2.238   3.741
27486W        W94027  15.717  29.170  13.467
27487W        W94028   3.916   0.324  11.725
27488W        W94029  29.876   8.196  11.934
27489W        W94030  12.241   2.995   1.252
27490W        W94031  21.546   6.220   0.898
27491W        W94032   4.736  30.160   0.991
27492W        W94033   0.993  32.976   0.533
27493W        W94034   1.993   9.454   2.191
27494W        W94035  37.375  12.544   0.012
27495W        W94036  20.131  28.683   0.918
27496W        W94037  30.999  24.817   3.459
27497W        W94038  30.047  16.675  13.324
27498W        W94039  11.032  42.412  11.903
27499W        W94040  29.963  15.940  10.684
27500W        W94041  20.235   1.489   0.837
27501W        W94042   9.655  20.594  14.455
27502W        W94043  14.802  17.024  13.037
27503W        W94044   6.345  15.155  12.338
27504W        W94045  36.511  39.543  13.924
27505W        W94046  30.906  19.628  14.881
27506W        W94047  22.811  18.231  14.024
27507W        W94048  13.936  29.996  10.696
27508W        W94049  44.314  29.118  12.950
27509W        W94050  24.517  17.909  13.981
27510W        W94051  29.674  10.897   1.073
27511W        W94052  11.167  14.928  12.616
27512W        W94053  15.246  40.604  13.351
27513W        W94054   7.796  27.794   3.187
27514W        W94055  22.322   6.340   1.958
27515W        W94056  12.082  31.631   0.322
27516W        W94057   9.493  12.195   4.215
27517W        W94058  18.213  28.945  13.510
27518W        W94059  32.660  24.466  13.984
27519W        W94060   4.719   6.555  12.098
27520W        W94061   8.841  44.956   3.284
27521W        W94062  26.045  36.390   3.083
27522W        W94063   4.824  27.065  10.976
27523W        W94064  13.765   0.804   1.573
27524W        W94065  18.103   6.278   4.129
27525W        W94066  33.712   6.845   3.377
27526W        W94067  43.497   1.346  12.162
27527W        W94068  29.373   5.123   0.717
27528W        W94069   4.251  11.662   3.382
27529W        W94070   3.481  23.633  13.594
27530W        W94071  32.912  32.359   1.061
27531W        W94072  27.992  26.992   4.811
27532W        W94073  11.233  38.046   3.071
27533W        W94074  14.849   4.835  12.170
27534W        W94075  27.187   2.710  13.950
27535W        W94076   3.654  14.179  14.286
27536W        W94077  18.022   9.080  10.550
27537W        W94078  29.323  40.995   4.073
27538W        W94079  23.694  13.485  13.851
27539W        W94080  39.259  12.866  11.153
27540W        W94081  10.639  15.780   4.688
27541W        W94082  40.623  20.463   2.700
27542W        W94083  41.444  22.233   1.316
27543W        W94084  35.348  36.378  12.990
27544W        W94085   6.313  34.572   0.917
27545W        W94086   9.171  14.096  14.896
27546W        W94087  33.529   7.482   4.065
27547W        W94088  36.483  33.828   0.285
27548W        W94089   8.155  37.031   3.197
27549W        W94090  35.459  38.986  10.705
27550W        W94091  31.945  32.452  14.376
27551W        W94092  33.732   5.779   1.580
27552W        W94093  35.359   1.694   1.218
27553W        W94094  29.238   6.233   1.221
27554W        W94095  28.689  34.614   0.262
27555W        W94096   8.202  26.977  10.346
27556W        W94097  40.930  41.976  11.769
27557W        W94098  38.550   4.408   4.618
27558W        W94099  15.713  33.359   2.622
27559W        W94100  31.503  25.574  11.477
27560W        W94101  33.008  30.244  12.522
27561W        W94102  15.068  17.605  12.547
27562W        W94103  16.382  22.008   0.416
27563W        W94104  19.443  25.268   4.541
27564W        W94105  20.545  15.235   3.276
27565W        W94106   8.699  16.685  11.080
27566W        W94107  40.222   1.804  11.741
27567W        W94108  31.662  30.501  14.451
27568W        W94109   6.181  19.832  12.490
27569W        W94110   0.713  29.553   4.259
27570W        W94111   3.702  41.442  13.865
27571W        W94112   2.217  21.610  13.510
27572W        W94113  19.064  37.384   1.904
27573W        W94114  30.448  26.087  12.335
27574W        W94115  27.521  16.748   0.874
27575W        W94116  44.320  33.437   4.722
27576W        W94117   2.981  13.069  12.546
27577W        W94118  32.655   2.601   3.113
27578W        W94119   8.963  24.287   2.360
27579W        W94120   4.699  25.519   3.262
27580W        W94121  28.639  21.351   4.595
27581W        W94122   1.520  38.003   1.972
27582W        W94123  27.947   8.340   2.682
27583W        W94124  18.687  29.603   0.833
27584W        W94125  36.842   2.279  14.374
27585W        W94126   5.369  11.210  10.980
27586W        W94127  43.755  15.510  11.887
27587W        W94128  41.521  25.076   0.062
27588W        W94129   9.390  22.016   2.768
27589W        W94130  36.858  11.724  12.630
27590W        W94131  30.780   3.762  13.021
27591W        W94132   0.498  43.510   0.720
27592W        W94133   6.157  14.750   0.504
27593W        W94134  21.592  20.959  12.415
27594W        W94135  31.881  37.191  13.228
27595W        W94136  42.752  30.939  13.562
27596W        W94137  43.908  26.963   4.870
27597W        W94138  38.257  44.343   4.800
27598W        W94139   6.961  17.277   0.417
27599W        W94140  11.197  30.916   1.531
27600W        W94141  24.750  14.133  12.099
27601W        W94142  29.094  44.744   3.994
27602W        W94143  42.149  22.748   2.431
27603W        W94144  16.902  24.043   3.696
27604W        W94145  27.026  21.590   4.840
27605W        W94146  44.908  22.227  13.000
27606W        W94147   3.079   8.776  12.430
27607W        W94148  44.193  29.611  13.029
27608W        W94149   3.707  27.734  13.832
27609W        W94150  32.305  35.294   3.309
27610W        W94151   5.186  17.632   0.383
27611W        W94152   8.855  43.860  12.513
27612W        W94153  13.511  34.440  10.361
27613W        W94154  10.224  23.694   0.264
27614W        W94155  33.317  44.732  12.674
27615W        W94156  24.728  13.188   3.672
27616W        W94157   6.239  13.692  12.970
27617W        W94158  26.116  26.081   3.622
27618W        W94159  15.820  29.419   1.688
27619W        W94160  39.269  38.476  11.525
27620W        W94161  32.088  20.535  13.100
27621W        W94162  40.476  31.052   3.617
27622W        W94163   1.554  20.234   3.661
27623W        W94164  22.789  31.917   0.054
27624W        W94165   8.755  15.274  12.413
27625W        W94166  39.118  13.842  12.991
27626W        W94167  20.803  24.651  10.931
27627W        W94168  19.777  10.356  13.358
27628W        W94169   6.570   3.408  14.062
27629W        W94170  29.504  11.433  12.615
27630W        W94171  25.607   5.935   0.231
27631W        W94172  16.881  31.901  13.203
27632W        W94173   1.167  29.587   0.007
27633W        W94174   5.713  20.934   2.775
27634W        W94175  41.428  41.281  13.945
27635W        W94176  25.405  24.737   1.739
27636W        W94177   3.684   5.677  11.985
27637W        W94178  28.897  29.620  10.796
27638W        W94179  22.697  36.885  13.802
27639W        W94180  14.677  23.095   1.521
27640W        W94181  24.745  33.868  13.015
27641W        W94182  24.032  19.648   4.407
27642W        W94183  36.845  15.096   5.136
27643W        W94184   1.544   0.825   3.293
27644W        W94185  39.637   5.456   2.359
27645W        W94186  15.724  36.305  13.373
27646W        W94187   4.856  14.831  13.404
27647W        W94188  41.272  37.955  11.280
27648W        W94189  23.725  31.966  11.594
27649W        W94190  26.235  12.597  12.072
27650W        W94191  23.459  27.417   3.299
27651W        W94192  44.513   5.076   0.457
27652W        W94193  22.691   2.278  10.695
27653W        W94194  20.257   5.990   0.871
27654W        W94195  23.632  36.441  14.024
27655W        W94196  30.156  42.258  11.663
27656W        W94197  11.839  11.853   4.053
27657W        W94198  31.138  19.980  12.590
27658W        W94199  16.127  25.588   3.100
27659W        W94200   3.229  42.330  13.537
27660W        W94201   4.060  21.036   4.959
27661W        W94202  43.941   9.931  12.059
27662W        W94203   5.892  13.786  10.596
27663W        W94204  43.497  17.913  12.145
27664W        W94205  12.363   3.792   4.128
27665W        W94206  43.859  13.560   2.408
27666W        W94207  19.288  17.131  13.737
27667W        W94208  35.303  24.271  13.080
27668W        W94209   8.418  32.756   4.715
27669W        W94210   9.652  23.963  14.524
27670W        W94211  37.547  16.771   2.660
27671W        W94212  27.679  15.184  10.124
27672W        W94213  37.439  24.280  10.753
27673W        W94214   8.198  13.620  12.619
27674W        W94215  31.554  28.202   1.006
27675W        W94216  32.516   5.752  10.497
27676W        W94217  14.116  34.540  13.527
27677W        W94218  43.908  40.496  12.637
27678W        W94219  34.887  35.400  12.356
27679W        W94220  43.688  30.748   2.813
27680W        W94221  15.508  34.933  10.191
27681W        W94222   3.934   7.977  14.467
27682W        W94223  16.076  35.575   0.883
27683W        W94224   1.489   7.894   2.820
27684W        W94225   6.901  15.227   0.448
27685W        W94226  29.926  11.740   1.261
27686W        W94227   7.168   1.893   3.826
27687W        W94228  11.253  39.329  12.966
27688W        W94229  31.871  38.956   3.127
27689W        W94230  20.080   5.844  11.141
27690W        W94231  30.114  15.298  14.416
27691W        W94232  38.000  32.722  14.183
27692W        W94233   4.375   1.376  14.875
27693W        W94234  17.954  22.263  12.818
27694W        W94235  32.922   9.560  13.604
27695W        W94236  27.112  31.075   2.126
27696W        W94237  36.519  33.395  10.512
27697W        W94238   6.898   6.446   2.048
27698W        W94239  15.094  39.047   3.728
27699W        W94240  17.057  34.843   1.685
27700W        W94241  28.105   2.245   5.080
27701W        W94242  25.607  31.997   4.865
27702W        W94243  13.720  36.720   0.302
27703W        W94244  20.543  28.985   3.234
27704W        W94245  26.553  29.966   3.810
27705W        W94246  11.607  24.068  13.136
27706W        W94247  25.601  15.367   0.545
27707W        W94248  23.616  13.589   4.243
27708W        W94249  41.161  37.128   2.355
27709W        W94250  26.376  28.876  12.736
27710W        W94251  36.560  13.093   0.050
27711W        W94252  14.220  31.710  13.512
27712W        W94253  40.508   4.656  13.838
27713W        W94254   4.625  11.844   9.999
27714W        W94255  13.376  31.369   1.078
27715W        W94256  13.459  42.594   3.377
27716W        W94257  20.621  20.747   4.963
27717W        W94258  13.668  22.250   1.904
27718W        W94259   0.803  22.269   1.007
27719W        W94260  36.967  21.752  13.959
27720W        W94261  29.000   0.857   2.624
27721W        W94262  12.070  24.491  12.510
27722W        W94263  22.138   6.154   2.726
27723W        W94264  28.693  26.788   1.613
27724W        W94265  43.209  36.027   4.714
27725W        W94266  37.141  14.955  10.389
27726W        W94267   2.675  29.639  14.958
27727W        W94268   0.214  13.483   4.330
27728W        W94269  39.770  44.232   0.235
27729W        W94270  25.797   8.403  13.795
27730W        W94271  30.044  37.088   2.233
27731W        W94272  26.052   1.794   2.876
27732W        W94273  39.384   1.992   4.130
27733W        W94274  30.000  16.226   4.620
27734W        W94275  32.663  23.643  12.885
27735W        W94276  15.832  28.368   4.035
27736W        W94277   6.201  27.044  14.266
27737W        W94278  23.020  19.064   3.358
27738W        W94279  37.832  15.366  10.975
27739W        W94280  14.329  19.004  14.443
27740W        W94281  10.097  25.425  12.462
27741W        W94282  34.912   4.062  14.035
27742W        W94283   4.856  26.648   0.915
27743W        W94284  31.635   7.389  12.235
27744W        W94285  39.954  32.524  12.006
27745W        W94286  29.922   2.296  10.878
27746W        W94287   0.871   8.750   1.447
27747W        W94288  19.500  37.102  11.154
27748W        W94289  40.763   6.272   2.897
27749W        W94290  32.586  35.141   4.307
27750W        W94291  36.076  41.010   3.125
27751W        W94292   6.395  18.821  12.389
27752W        W94293   9.314  30.468  12.592
27753W        W94294  22.727  29.939   2.725
27754W        W94295  26.628  19.683  10.695
27755W        W94296  42.455  20.787  12.860
27756W        W94297  20.482   1.689  13.005
27757W        W94298   0.390   1.980  11.868
27758W        W94299  38.001  15.198  10.479
27759W        W94300  42.974   7.863   1.397
27760W        W94301  29.790  36.595   5.000
27761W        W94302   1.737  20.739   3.786
27762W        W94303  16.349  25.534  14.883
27763W        W94304   0.763  42.447  11.952
27764W        W94305   3.941  29.208   0.333
27765W        W94306  27.969  10.332   1.474
27766W        W94307  16.607  33.689  13.410
27767W        W94308  44.687  42.405   0.493
27768W        W94309  32.101  33.626  13.900
27769W        W94310  18.072  37.132   4.813
27770W        W94311   6.860  10.495  12.264
27771W        W94312  12.592  43.237  12.030
27772W        W94313  22.680  21.155   0.856
27773W        W94314  26.192  10.959   2.253
27774W        W94315  25.908   0.025  13.817
27775W        W94316   7.952  17.148   0.472
27776W        W94317  34.215  13.711   9.733
27777W        W94318  34.659  42.010  14.422
27778W        W94319  21.599   8.804  13.532
27779W        W94320  10.248  34.951   4.236
27780W        W94321  16.477  36.040   4.802
27781W        W94322  35.205   0.874   0.960
27782W        W94323   9.748  34.870   4.965
27783W        W94324  41.834  30.447   9.912
27784W        W94325  36.221   8.452   2.734
27785W        W94326   7.925  35.079  10.895
27786W        W94327  38.387  29.121   3.319
27787W        W94328  31.347  30.091   1.418
27788W        W94329  44.288  20.822   1.434
27789W        W94330  17.549  36.784   1.757
27790W        W94331  31.463  41.589   0.340
27791W        W94332  26.602  35.028   1.315
27792W        W94333  40.798  36.565   3.664
27793W        W94334   6.369  12.734  13.093
27794W        W94335   3.376  22.580   3.395
27795W        W94336  33.628  12.569   2.546
27796W        W94337  12.638  21.363   3.013
27797W        W94338  41.037  23.171  11.893
27798W        W94339  43.926  26.675   2.233
27799W        W94340  28.118  33.105  11.273
27800W        W94341  37.918  44.700   1.412
27801W        W94342   0.741  20.114   3.109
27802W        W94343  37.756  34.905   4.309
27803W        W94344  42.470  21.066   2.686
27804W        W94345  24.109  41.561  13.619
27805W        W94346  44.762  36.426   2.300
27806W        W94347  29.792   7.361  14.924
27807W        W94348   7.148  22.099   0.894
27808W        W94349   6.209  10.322   0.670
27809W        W94350  34.049  17.524   0.345
27810W        W94351  34.165   1.947  11.290
27811W        W94352  37.692  24.122   2.402
27812W        W94353   7.257   1.335   0.818
27813W        W94354   6.957  15.335  10.667
27814W        W94355  32.021  32.125  14.000
27815W        W94356  33.966  19.347  12.499
27816W        W94357  41.402  24.761  14.461
27817W        W94358  11.059  25.666  10.702
27818W        W94359   4.709  13.867  10.756
27819W        W94360  30.594   0.002   1.734
27820W        W94361  11.668  33.361   2.382
27821W        W94362   9.876  13.250  12.986
27822W        W94363  21.121  13.310   4.271
27823W        W94364  17.695  32.160   4.622
27824W        W94365  23.791   0.429  11.526
27825W        W94366  11.793  36.699  12.019
27826W        W94367  32.364  29.480  13.413
27827W        W94368  20.514   6.673  11.256
27828W        W94369   8.391  36.951   3.637
27829W        W94370   4.721  44.460   2.674
27830W        W94371  21.576  39.038   0.342
27831W        W94372   2.930   5.805  10.717
27832W        W94373   1.222   3.306   3.195
27833W        W94374  30.466  43.701   2.486
27834W        W94375  35.002   5.435   5.351
27835W        W94376  37.164  13.170   4.740
27836W        W94377  36.058   4.868  12.206
27837W        W94378  27.204  35.082   4.689
27838W        W94379   6.242  10.712   1.600
27839W        W94380  20.655  24.768  11.800
27840W        W94381  42.964  31.038  12.106
27841W        W94382  12.644   5.267  10.478
27842W        W94383  26.426   1.818   4.536
27843W        W94384  26.952  17.337   0.598
27844W        W94385  34.202  13.667   1.901
27845W        W94386  10.720  27.267   4.225
27846W        W94387   8.809  20.269   1.720
27847W        W94388  33.627  29.890   4.307
27848W        W94389  39.203   2.393   3.312
27849W        W94390  10.165  37.564  11.926
27850W        W94391  16.573  13.917   3.760
27851W        W94392  41.787  40.319   2.485
27852W        W94393  29.976   0.850   3.682
27853W        W94394  27.613  40.412  12.301
27854W        W94395  29.976  11.490  11.519
27855W        W94396  12.792  41.539  12.783
27856W        W94397   2.065  22.835  14.043
27857W        W94398  27.306  29.026   4.091
27858W        W94399  35.731  15.946  10.288
27859W        W94400   3.660   2.843  12.192
27860W        W94401  20.287   2.910   0.187
27861W        W94402   1.465  23.789   9.716
27862W        W94403  10.248   2.560  11.480
27863W        W94404  34.459  15.787   3.883
27864W        W94405   2.434  30.040   3.628
27865W        W94406  38.880  12.494  11.106
27866W        W94407   3.816  19.639  14.841
27867W        W94408  13.832  41.059  11.111
27868W        W94409  27.639  25.280  12.503
27869W        W94410  30.172   1.437  11.009
27870W        W94411   0.510   8.167   0.391
27871W        W94412  25.744  39.940   2.510
27872W        W94413  31.690  11.136   4.553
27873W        W94414  10.707   5.191   4.135
27874W        W94415  13.257   5.265  11.089
27875W        W94416  11.260  18.242   4.074
27876W        W94417  27.528   6.276  13.937
27877W        W94418  18.821  16.739   9.995
27878W        W94419  28.682   8.894  13.007
27879W        W94420  34.634  41.775   4.494
27880W        W94421  26.010  35.287   4.903
27881W        W94422   1.700  44.268   0.371
27882W        W94423   1.835  41.501   0.402
27883W        W94424   2.866  20.154   0.904
27884W        W94425   7.412  23.065   2.726
27885W        W94426  19.824  21.718   4.685
27886W        W94427  38.433  16.527   2.560
27887W        W94428  39.973  39.342  12.897
27888W        W94429  31.819  16.731  11.785
27889W        W94430  33.082  18.166   2.201
27890W        W94431   8.374  29.439  10.394
27891W        W94432   9.722  22.135  14.935
27892W        W94433  26.584  28.946   2.421
27893W        W94434   2.008   2.403   3.173
27894W        W94435  31.629  35.618   4.911
27895W        W94436  33.226  25.145   1.966
27896W        W94437  35.078  42.667  10.339
27897W        W94438  14.186  12.391  14.908
27898W        W94439  43.169  28.535   4.879
27899W        W94440  34.628  24.148   1.345
27900W        W94441  22.456  41.825   2.355
27901W        W94442  22.625   1.056   1.023
27902W        W94443  36.869  42.354  13.253
27903W        W94444  23.938  37.775   3.750
27904W        W94445  22.131  44.219  13.432
27905W        W94446  18.150  19.169   0.028
27906W        W94447  31.986  37.801  10.735
27907W        W94448  26.055  29.931   0.168
27908W        W94449  23.869  20.717  13.407
27909W        W94450  16.378  25.687   3.553
27910W        W94451  15.582  41.001  12.560
27911W        W94452  31.094   1.933  10.750
27912W        W94453   6.214  36.974  14.009
27913W        W94454   5.228  22.320  13.333
27914W        W94455  41.890  20.080   2.374
27915W        W94456  42.963   9.453  11.159
27916W        W94457  21.094  41.005   4.612
27917W        W94458  36.664  25.112  12.604
27918W        W94459  24.614  35.951  12.372
27919W        W94460  37.525  13.683  12.359
27920W        W94461  36.945   5.113   2.329
27921W        W94462  35.922   0.754   2.695
27922W        W94463  33.089  43.304  14.486
27923W        W94464  24.680  38.481  11.962
27924W        W94465  14.722  24.069  13.818
27925W        W94466  39.995   2.420   0.806
27926W        W94467  42.495  24.439   3.355
27927W        W94468  21.660  26.493   2.423
27928W        W94469  11.531  13.301  13.860
27929W        W94470  25.460  16.586  14.951
27930W        W94471  11.101  19.436  11.376
27931W        W94472  20.267  17.679   1.707
27932W        W94473  15.642  19.256   3.691
27933W        W94474  13.779  28.178   0.262
27934W        W94475  25.715  43.027   3.215
27935W        W94476  18.205  40.503   2.474
27936W        W94477  10.379  10.051  13.588
27937W        W94478  39.587   1.788  13.874
27938W        W94479  42.890   6.486  11.959
27939W        W94480  15.771  19.543   1.342
27940W        W94481   1.564  36.355  10.612
27941W        W94482   4.890  15.328  13.362
27942W        W94483  25.965  37.965   4.551
27943W        W94484  25.617  26.613   0.468
27944W        W94485  40.496  43.003   0.045
27945W        W94486  19.749   8.723  14.544
27946W        W94487  39.032  39.825   9.934
27947W        W94488  20.307  37.689   1.214
27948W        W94489   4.592  26.626  13.471
27949W        W94490   0.087  40.442  11.058
27950W        W94491   6.484  34.485   2.928
27951W        W94492  32.884   6.851   3.982
27952W        W94493   4.739  40.126   9.964
27953W        W94494  32.114  33.520  12.163
27954W        W94495  36.522  11.248  10.630
27955W        W94496   4.431  40.233  10.597
27956W        W94497   1.563   9.689   4.254
27957W        W94498   4.871  22.691  11.392
27958W        W94499  28.553  15.377  12.478
27959W        W94500   3.720  23.986   0.527
27960W        W94501  36.749  31.013   1.381
27961W        W94502   3.506  36.243   4.276
27962W        W94503  10.073  34.853  12.904
27963W        W94504  12.769   9.722  13.290
27964W        W94505  18.740   6.659   1.346
27965W        W94506  12.127   0.926  13.155
27966W        W94507  29.990  24.998   0.461
27967W        W94508  37.845  37.331  11.402
27968W        W94509  21.453  20.234   3.172
27969W        W94510  11.493   0.024  12.518
27970W        W94511  25.556  27.961   0.835
27971W        W94512  22.526  11.227   4.805
27972W        W94513   1.335  33.918   1.624
27973W        W94514   3.397  26.342  10.697
27974W        W94515  39.374   7.238   3.669
27975W        W94516   0.092  14.128   3.647
27976W        W94517  15.254  11.806  14.193
27977W        W94518  17.292  31.230   3.286
27978W        W94519  39.830  15.317  11.008
27979W        W94520  27.026  42.852  10.835
27980W        W94521  29.372  35.347  13.860
27981W        W94522  31.586  18.545  13.681
27982W        W94523  20.747  39.488   1.468
27983W        W94524  29.861  30.932   0.662
27984W        W94525  44.201  16.019  11.238
27985W        W94526  28.579  37.051  12.280
27986W        W94527   9.113  41.415  14.506
27987W        W94528   6.690  29.917   4.551
27988W        W94529  16.796   5.835  10.957
27989W        W94530  12.854  16.118   3.270
27990W        W94531  27.912  24.008   0.370
27991W        W94532  21.107   4.507  14.374
27992W        W94533  43.034   7.278  10.613
27993W        W94534  22.321  11.733  11.206
27994W        W94535  17.577  32.176  12.178
27995W        W94536  14.283  19.643   1.161
27996W        W94537  31.369  33.028  13.025
27997W        W94538  41.202  39.731  10.934
27998W        W94539  33.376  12.731   0.351
27999W        W94540  15.359   5.291  11.399
28000W        W94541  42.057  38.001  13.969
28001W        W94542  24.280  18.790  11.524
28002W        W94543   3.789   6.878   4.197
28003W        W94544  13.260  33.955   3.756
28004W        W94545  23.046   6.887  14.516
28005W        W94546  13.310   9.081   2.615
28006W        W94547  17.159  37.562  11.542
28007W        W94548  31.511   3.293  13.785
28008W        W94549  17.856   7.271  14.005
28009W        W94550  27.787   8.979   1.235
28010W        W94551  27.634  22.981  13.992
28011W        W94552  24.135  38.885  11.596
28012W        W94553  35.866  16.200  10.729
28013W        W94554   7.829   3.429   3.121
28014W        W94555  11.654  24.786  10.338
28015W        W94556  21.637   8.361   1.353
28016W        W94557  39.774  17.137   4.109
28017W        W94558  19.958  19.297   1.284
28018W        W94559  42.747  36.231  13.378
28019W        W94560   1.246  17.269   2.412
28020W        W94561  32.145   4.056   2.178
28021W        W94562  23.032  42.463  10.873
28022W        W94563  34.031   5.736   1.160
28023W        W94564  41.448   2.254   1.877
28024W        W94565  43.762  36.371   2.293
28025W        W94566  26.520  22.448  13.318
28026W        W94567  41.450  19.392  13.870
28027W        W94568   0.505  31.200   2.323
28028W        W94569  30.959  43.359   3.015
28029W        W94570  24.124  42.834   4.670
28030W        W94571  21.538  17.764   2.582
28031W        W94572  25.237  36.184   4.241
28032W        W94573  43.618  43.248   2.591
28033W        W94574  43.994   7.383  12.774
28034W        W94575   8.279  18.217   1.878
28035W        W94576  11.844  19.512  12.842
28036W        W94577  40.607  27.225  13.799
28037W        W94578  37.659  37.361  10.575
28038W        W94579  31.406  19.778   0.813
28039W        W94580   6.670   6.422   0.883
28040W        W94581   1.729  14.667   3.791
28041W        W94582  24.071   8.118   4.100
28042W        W94583  37.506  24.384  13.796
28043W        W94584  10.612   6.355   2.959
28044W        W94585  23.988  39.906   2.118
28045W        W94586   1.100  36.359  11.701
28046W        W94587  14.173  11.648  13.354
28047W        W94588  17.366  27.366  12.539
28048W        W94589  23.995  21.644  12.477
28049W        W94590  26.491   3.325   3.744
28050W        W94591  13.382   7.781  14.844
28051W        W94592  16.357  42.968  12.069
28052W        W94593  19.409  43.638  14.793
28053W        W94594   0.798  17.657  10.966
28054W        W94595   0.256  22.820   3.508
28055W        W94596  32.414  37.261   1.768
28056W        W94597  21.037   0.679   1.245
28057W        W94598  39.900   2.202  14.284
28058W        W94599  11.598  26.566   0.308
28059W        W94600   3.268  12.814  14.304
28060W        W94601   2.194  15.163  12.710
28061W        W94602  29.889  18.285   4.068
28062W        W94603  41.802  17.075   0.906
28063W        W94604  15.298  27.893  11.976
28064W        W94605  10.712   3.907   3.291
28065W        W94606  25.617  44.770   2.287
28066W        W94607  29.439  27.526   4.487
28067W        W94608  34.574  33.660  11.688
28068W        W94609  10.122  25.309  11.080
28069W        W94610  42.821  34.010   0.363
28070W        W94611  28.702  18.716   1.697
28071W        W94612  16.145  30.582  14.345
28072W        W94613  31.121  30.369  12.192
28073W        W94614  44.300  38.166  14.512
28074W        W94615   9.847  17.115  14.893
28075W        W94616  20.016  21.173   2.237
28076W        W94617   6.719   5.465   1.975
28077W        W94618  39.812  40.709   2.840
28078W        W94619  31.941   3.580  10.222
28079W        W94620  21.961  42.786   3.835
28080W        W94621  16.634  25.257   4.780
28081W        W94622  23.607   5.827  14.000
28082W        W94623   8.656  29.054   4.100
28083W        W94624  36.683  21.547   2.829
28084W        W94625  23.570  28.341   4.965
28085W        W94626  25.284  12.167   1.465
28086W        W94627   6.002  21.100  13.420
28087W        W94628   5.925  31.828  13.332
28088W        W94629   3.502  15.607   1.405
28089W        W94630  21.595  18.800   4.723
28090W        W94631  27.643  36.817   1.457
28091W        W94632  30.147  27.858  11.574
28092W        W94633  20.727  39.341   3.981
28093W        W94634   1.855  15.822  11.586
28094W        W94635   4.951  26.251  12.989
28095W        W94636   7.844  44.921   3.894
28096W        W94637  20.514  38.886  12.194
28097W        W94638  33.651  37.352   9.996
28098W        W94639  10.941  13.886   1.300
28099W        W94640  37.031  10.969   0.641
28100W        W94641  41.868  16.768   1.798
28101W        W94642   1.771  40.580   4.556
28102W        W94643  25.496  10.118   0.396
28103W        W94644  34.997   5.485   1.339
28104W        W94645  14.251  31.514  12.173
28105W        W94646  11.615  32.906   1.314
28106W        W94647  15.229  12.583   4.082
28107W        W94648  41.331  20.112   0.536
28108W        W94649  20.330   2.437  14.333
28109W        W94650  26.228  39.402   4.153
28110W        W94651   7.220  16.245  14.031
28111W        W94652   2.248  39.285  11.956
28112W        W94653   0.550  36.911   0.493
28113W        W94654  23.143  13.788  12.431
28114W        W94655  41.031  31.986   1.784
28115W        W94656  25.032  21.122  14.810
28116W        W94657  22.196  43.238   2.139
28117W        W94658  44.268   7.413   4.135
28118W        W94659  35.890  41.439  14.353
28119W        W94660  24.497  22.113   0.385
28120W        W94661  44.914  16.302  12.473
28121W        W94662  30.599   8.885  12.538
28122W        W94663  16.239  27.445   1.943
28123W        W94664  20.572  13.839   0.853
28124W        W94665  24.300  36.505   4.079
28125W        W94666  41.578  23.963  10.779
28126W        W94667  40.442   7.577   0.763
28127W        W94668  27.702  10.162   0.954
28128W        W94669  33.814  14.658   1.714
28129W        W94670  44.719   1.708   4.717
28130W        W94671  36.077  42.831  13.582
28131W        W94672   1.961  24.327   4.310
28132W        W94673  26.025  32.153   4.611
28133W        W94674  35.049  15.601  14.757
28134W        W94675  10.034  21.174  12.714
28135W        W94676  21.289  15.133  14.857
28136W        W94677  14.106  29.650   3.551
28137W        W94678  44.667  36.616   1.821
28138W        W94679   0.413   6.294  11.718
28139W        W94680  14.977  22.728   1.754
28140W        W94681  35.168  23.014  11.923
28141W        W94682   3.485   4.812   3.360
28142W        W94683  44.288   1.930   0.265
28143W        W94684   4.309   0.538   5.432
28144W        W94685  29.116   5.341   0.203
28145W        W94686   7.416  19.975   0.870
28146W        W94687   1.430  14.555   2.390
28147W        W94688  27.911  43.401   0.041
28148W        W94689  21.471   7.953   3.256
28149W        W94690  21.604  17.035   2.143
28150W        W94691  34.706  17.976  10.891
28151W        W94692   6.654  25.769   4.255
28152W        W94693   2.438  16.530  13.051
28153W        W94694   5.736  39.322   5.234
28154W        W94695  28.572  17.891  13.496
28155W        W94696  32.891  34.118  14.777
28156W        W94697  17.589  33.576  13.391
28157W        W94698   6.447  20.596  11.162
28158W        W94699  17.321  24.579   0.837
28159W        W94700  29.629   4.003  12.473
28160W        W94701  21.548   7.405  13.853
28161W        W94702  38.744  23.711   5.082
28162W        W94703  15.386  27.138   2.361
28163W        W94704  41.035  37.212  11.020
28164W        W94705  22.878  15.609  11.437
28165W        W94706  14.844  23.013  14.575
28166W        W94707  28.941   0.465   0.122
28167W        W94708   1.445  11.190   2.199
28168W        W94709  20.450  19.239   0.430
28169W        W94710  27.927  18.275   4.203
28170W        W94711  31.168  31.736  12.970
28171W        W94712  27.930   1.451   1.861
28172W        W94713  11.221   8.689  11.598
28173W        W94714  28.700  11.120   0.769
28174W        W94715  36.906   4.852  14.341
28175W        W94716   7.319   0.623   2.347
28176W        W94717  17.237  28.661  12.256
28177W        W94718  15.226  21.914  10.863
28178W        W94719  43.732  12.323   1.912
28179W        W94720  26.013  35.494   1.916
28180W        W94721  32.531  26.686   3.150
28181W        W94722   7.628  21.729  11.964
28182W        W94723  40.937  24.254  10.650
28183W        W94724   2.202  14.138   1.720
28184W        W94725  29.469  43.391  10.922
28185W        W94726   1.801  29.606   0.527
28186W        W94727  22.713   7.805  10.271
28187W        W94728  15.482   1.440   3.563
28188W        W94729  32.994  42.269  14.434
28189W        W94730  36.120  19.077   0.311
28190W        W94731  40.859   4.411   0.765
28191W        W94732   7.202   6.786  14.970
28192W        W94733  29.881  40.430   2.846
28193W        W94734   2.726  43.733  11.467
28194W        W94735  19.642   6.746   3.615
28195W        W94736   4.496  39.569   1.927
28196W        W94737  34.871  17.792   1.796
28197W        W94738  36.872  14.749   4.304
28198W        W94739  31.416   9.584  11.168
28199W        W94740  43.999  34.814  12.892
28200W        W94741  17.013  19.391  12.459
28201W        W94742  33.037  26.440   0.307
28202W        W94743  23.566  36.971  11.571
28203W        W94744  29.847   4.717   4.620
28204W        W94745   0.718  20.602  12.243
28205W        W94746  34.138   0.236  12.726
28206W        W94747  23.662   9.264   5.030
28207W        W94748   7.512   1.999   4.194
28208W        W94749  14.311   6.174   0.742
28209W        W94750  41.513  20.382   2.188
28210W        W94751  24.794  18.128  13.354
28211W        W94752  15.622  13.182   3.129
28212W        W94753  23.714  38.520  10.753
28213W        W94754  13.229  41.912  13.224
28214W        W94755  38.237  34.559   3.209
28215W        W94756  30.893  16.901   0.846
28216W        W94757  43.256  32.107   0.358
28217W        W94758   8.832  24.264  10.791
28218W        W94759   1.134  42.971  14.958
28219W        W94760  23.941  16.138  11.626
28220W        W94761  41.789  44.817  10.859
28221W        W94762  13.367  33.595  14.740
28222W        W94763  23.197  20.015  11.967
28223W        W94764   5.143  16.447  11.566
28224W        W94765  31.499  26.156   4.862
28225W        W94766  22.686  16.833  12.519
28226W        W94767   4.680  40.490  13.680
28227W        W94768  22.723  42.955   2.786
28228W        W94769  17.988  30.306   0.946
28229W        W94770  35.174   9.874  13.020
28230W        W94771  39.812  11.328  12.548
28231W        W94772   1.242  43.910   2.164
28232W        W94773  38.442  17.742   4.625
28233W        W94774  37.373  43.265  11.663
28234W        W94775  38.654  13.324   2.237
28235W        W94776  21.726  23.741  14.965
28236W        W94777   0.591   9.707   2.781
28237W        W94778  16.676   4.113   3.744
28238W        W94779  17.154  29.497   1.334
28239W        W94780   4.157  10.203   4.977
28240W        W94781  39.078  15.770   1.764
28241W        W94782  25.033  38.419   1.169
28242W        W94783   4.617  37.627   5.085
28243W        W94784   4.887  21.621  14.108
28244W        W94785   0.410  37.332   1.565
28245W        W94786   0.806  40.021   0.289
28246W        W94787   0.688  25.167   1.120
28247W        W94788  13.156  11.201  12.146
28248W        W94789  16.610   2.246  13.814
28249W        W94790  12.620  21.601   1.716
28250W        W94791  37.150  34.704   0.774
28251W        W94792  16.027  35.614  14.980
28252W        W94793  27.973  35.413   4.609
28253W        W94794  14.774  33.419  12.485
28254W        W94795  22.006  32.058  14.327
28255W        W94796  30.957  26.251  10.701
28256W        W94797  16.570   6.702   2.133
28257W        W94798  41.397   5.982   0.249
28258W        W94799  16.841  16.828  13.049
28259W        W94800   2.939  34.038   1.909
28260W        W94801   4.812  39.460  13.255
28261W        W94802  44.887  17.573   4.589
28262W        W94803  28.322  35.476   2.832
28263W        W94804  34.692  30.520  14.370
28264W        W94805   7.330  32.588   3.331
28265W        W94806  32.763  13.037   5.751
28266W        W94807  36.903  33.755   0.936
28267W        W94808  29.860  38.409  11.127
28268W        W94809  32.182  33.597   0.370
28269W        W94810  23.643  40.300  10.941
28270W        W94811  39.055  20.970   3.888
28271W        W94812   2.767  20.305   3.874
28272W        W94813  44.520  12.042   2.313
28273W        W94814  37.467   6.290   1.180
28274W        W94815   7.343  22.024  13.346
28275W        W94816  36.314  18.098  14.494
28276W        W94817  33.587   7.175   4.634
28277W        W94818  44.998  14.325   4.110
28278W        W94819  18.244  32.693  14.438
28279W        W94820  38.962   4.975   2.679
28280W        W94821  28.084   3.382   1.194
28281W        W94822  17.724  14.777   0.701
28282W        W94823  27.380  11.123   1.388
28283W        W94824  40.279  19.824  11.958
28284W        W94825  12.123  41.229   1.681
28285W        W94826  11.383  13.178   1.368
28286W        W94827  18.010  25.720   2.701
28287W        W94828  33.916  21.809  10.573
28288W        W94829  34.444  16.108  11.483
28289W        W94830   0.504  30.910  14.281
28290W        W94831  23.024  25.513  12.916
28291W        W94832   5.949  15.542  14.963
28292W        W94833  23.566   4.777  14.274
28293W        W94834  23.329  32.091   2.985
28294W        W94835  12.657   3.351   3.325
28295W        W94836   7.785   3.934   3.205
28296W        W94837  29.031  44.396   3.102
28297W        W94838   5.925   8.351  14.533
28298W        W94839  22.221  43.020   2.640
28299W        W94840  13.189  29.574  13.910
28300W        W94841  14.671  23.054  10.658
28301W        W94842   0.917  19.628  10.686
28302W        W94843   5.752  15.730   1.757
28303W        W94844  42.282   1.693   1.774
28304W        W94845  22.585   2.503   3.211
28305W        W94846   2.232   1.809  11.179
28306W        W94847   5.858  36.047  10.751
28307W        W94848  30.545  17.034   0.451
28308W        W94849   1.678  17.787  10.647
28309W        W94850  41.087  16.138  13.523
28310W        W94851   4.464   3.421   3.814
28311W        W94852  21.735  35.137   4.473
28312W        W94853   8.976  21.519   4.094
28313W        W94854  23.930  23.950  14.466
28314W        W94855   6.912   8.311   2.363
28315W        W94856   5.774  30.756   4.244
28316W        W94857  42.457  30.525   4.912
28317W        W94858  26.658  23.315  13.931
28318W        W94859   0.978  18.199  11.664
28319W        W94860  32.423  13.231  14.857
28320W        W94861  40.920  27.515  13.460
28321W        W94862  39.938  30.598  14.752
28322W        W94863  15.808  28.294   2.644
28323W        W94864  34.945  37.896   3.138
28324W        W94865  34.322  20.770   2.216
28325W        W94866   1.904  24.737   3.209
28326W        W94867   8.388  22.497   3.184
28327W        W94868  40.949  35.156  11.062
28328W        W94869  31.538  22.472  11.999
28329W        W94870   4.166  35.124  10.791
28330W        W94871  28.821  19.713  11.658
28331W        W94872  20.339  26.847  11.128
28332W        W94873  22.502  43.443   2.743
28333W        W94874  36.972  17.610  12.063
28334W        W94875  23.021   3.771  11.446
28335W        W94876  10.848  13.762  11.626
28336W        W94877  13.400  15.306  13.939
28337W        W94878  14.879  27.051   4.101
28338W        W94879  32.131  23.584  14.997
28339W        W94880   0.840  38.813   4.266
28340W        W94881  31.188  35.479   2.363
28341W        W94882  22.701  40.320   0.207
28342W        W94883  21.551   6.838   2.868
28343W        W94884  22.941  32.472  14.381
28344W        W94885  20.748  41.500   1.024
28345W        W94886  35.399  29.468   2.846
28346W        W94887   4.661  27.476   2.355
28347W        W94888  18.720  13.668   3.506
28348W        W94889  17.595  17.610  14.047
28349W        W94890  37.020  36.524   2.209
28350W        W94891  25.190  18.912  13.584
28351W        W94892  35.138  40.175   4.175
28352W        W94893   6.911  12.891  12.471
28353W        W94894  41.478  30.665   4.301
28354W        W94895  24.841  25.444  11.269
28355W        W94896   1.636  42.074   4.055
28356W        W94897  40.946  15.849   1.554
28357W        W94898  18.803  30.108   4.338
28358W        W94899   1.912  30.642  12.560
28359W        W94900  35.778  33.472   0.814
28360W        W94901  11.785   8.902   2.767
28361W        W94902  22.351  22.598  12.601
28362W        W94903  14.331  17.810   4.511
28363W        W94904  11.621   3.923   1.831
28364W        W94905  19.184  44.359  10.655
28365W        W94906  44.659  19.625  10.988
28366W        W94907  25.745   5.538   2.767
28367W        W94908  17.656  16.877   3.163
28368W        W94909   7.759  44.877   2.916
28369W        W94910  14.177  42.807   4.521
28370W        W94911  23.758  38.628   1.747
28371W        W94912  38.427  12.722  12.006
28372W        W94913   9.669  10.552  12.116
28373W        W94914  25.100   5.924  14.032
28374W        W94915  15.318  37.152  11.145
28375W        W94916  41.016  22.130  12.924
28376W        W94917  20.092  41.582   3.151
28377W        W94918  11.816  11.015  13.775
28378W        W94919  14.562   4.298   0.775
28379W        W94920  14.648  27.625   0.859
28380W        W94921   6.880  17.286  11.697
28381W        W94922  41.422  16.094   0.319
28382W        W94923   0.432   4.696   2.970
28383W        W94924  13.618  36.831   1.370
28384W        W94925  14.501  13.862   5.089
28385W        W94926   5.497  38.548  11.971
28386W        W94927  22.237  39.628  13.503
28387W        W94928  15.922  22.262  14.465
28388W        W94929  21.621  35.960   4.975
28389W        W94930  40.970  44.548   2.808
28390W        W94931  44.875  42.255   1.889
28391W        W94932  25.027  16.521   3.874
28392W        W94933  39.362  44.965  13.710
28393W        W94934  20.136  33.603  12.736
28394W        W94935  12.932  22.754  14.513
28395W        W94936  25.327  30.508  14.382
28396W        W94937  11.171  17.077  12.101
28397W        W94938  39.468  32.879   2.766
28398W        W94939  30.062  13.747  13.728
28399W        W94940  15.248  27.837   4.579
28400W        W94941  43.379  26.999   4.958
28401W        W94942  18.589  38.771  14.792
28402W        W94943  12.254   0.780  11.453
28403W        W94944  16.642  41.826   3.575
28404W        W94945  25.590  15.566  14.940
28405W        W94946  24.272  23.754  11.375
28406W        W94947  34.869   4.398  12.093
28407W        W94948  11.396   6.141  14.938
28408W        W94949  29.769  43.893   4.304
28409W        W94950  24.945  44.952  12.970
28410W        W94951  10.655  35.087   2.217
28411W        W94952  38.040  43.020  12.000
28412W        W94953  37.301  42.416  11.622
28413W        W94954  31.027   7.643  11.225
28414W        W94955  18.802  13.601   1.661
28415W        W94956   0.664  11.140  11.178
28416W        W94957  24.967   4.655  13.553
28417W        W94958   3.774  15.402  12.048
28418W        W94959  33.824  35.663   2.401
28419W        W94960  43.533  30.409  13.166
28420W        W94961  19.948  42.128   3.882
28421W        W94962  23.265  32.634  11.016
28422W        W94963  26.423  22.520  11.165
28423W        W94964  31.442   5.824   2.623
28424W        W94965  39.408  16.786   2.701
28425W        W94966  19.731   7.924   0.474
28426W        W94967  40.383  40.313  12.581
28427W        W94968  43.871  33.059  10.565
28428W        W94969  30.539  31.666  10.905
28429W        W94970  38.749  20.899  10.855
28430W        W94971  10.235  32.139  12.806
28431W        W94972  25.672  23.369  11.523
28432W        W94973  39.823   0.332  10.579
28433W        W94974  16.660  28.709  13.452
28434W        W94975  25.116   2.457  12.987
28435W        W94976  29.069  34.579   1.663
28436W        W94977   9.645  36.646  14.411
28437W        W94978  29.694  28.129  10.696
28438W        W94979  34.063  29.871   4.589
28439W        W94980  35.295  31.907  12.677
28440W        W94981  21.146  43.003   1.044
28441W        W94982  26.696  35.916   3.088
28442W        W94983  24.390   3.755   0.440
28443W        W94984  31.962  40.273  13.928
28444W        W94985  37.432  26.970  10.745
28445W        W94986  32.285   2.663   5.263
28446W        W94987  38.507  32.983  14.327
28447W        W94988  22.332  41.832   3.208
28448W        W94989  39.345  20.302   3.768
28449W        W94990  22.438  22.991   0.775
28450W        W94991   6.979   1.728   0.540
28451W        W94992   6.687  11.417   2.668
28452W        W94993   9.614   4.814   1.348
28453W        W94994   7.894  37.735   2.723
28454W        W94995  20.233   3.361  12.874
28455W        W94996  34.630  34.546  12.618
28456W        W94997   6.157  38.824   9.753
28457W        W94998  34.833  21.083  12.652
28458W        W94999  13.717  34.123  13.026
28459W        W95000  36.010  31.901   0.243
28460W        W95001  15.789   8.356   2.050
28461W        W95002  27.277   0.026   1.885
28462W        W95003  31.321  17.377   2.820
28463W        W95004  12.794   4.888   4.642
28464W        W95005  15.729   2.007  10.246
28465W        W95006   7.412  42.131  12.755
28466W        W95007  27.255  27.067   4.245
28467W        W95008  25.151  15.425  12.073
28468W        W95009  27.137  19.166   4.472
28469W        W95010  39.050   3.817   1.587
28470W        W95011  39.058  41.720  10.756
28471W        W95012  31.072  28.286  10.248
28472W        W95013  23.081  33.900  14.295
28473W        W95014   1.946  38.493  11.240
28474W        W95015  43.890  34.378   2.357
28475W        W95016  25.588   5.964  13.821
28476W        W95017  27.416  23.983   1.631
28477W        W95018  36.418   3.656   0.334
28478W        W95019  30.073  36.200  11.025
28479W        W95020  22.210  12.697  14.360
28480W        W95021   5.226  13.633   5.070
28481W        W95022  16.566  19.710  11.605
28482W        W95023  36.047  13.442   1.226
28483W        W95024  13.460  42.851   2.006
28484W        W95025  10.651  13.690  14.814
28485W        W95026   1.810  41.346   3.282
28486W        W95027  24.511   7.187   3.405
28487W        W95028  24.393   4.356   1.748
28488W        W95029   8.924  32.861   3.651
28489W        W95030  41.513  13.763   0.743
28490W        W95031  28.546  10.780   3.393
28491W        W95032  44.866  40.802  13.055
28492W        W95033  43.519  38.884  10.689
28493W        W95034   3.959   9.360  12.700
28494W        W95035  37.543  26.089   1.513
28495W        W95036   7.785  33.993  12.353
28496W        W95037  34.032  15.663   4.601
28497W        W95038  44.266   6.937  12.507
28498W        W95039  13.766  29.631  12.087
28499W        W95040  12.920  19.016   1.465
28500W        W95041  27.059  42.451   3.265
28501W        W95042  35.425  23.994  14.877
28502W        W95043  34.848  21.009   3.533
28503W        W95044  26.967  35.785   3.528
28504W        W95045  32.253   6.836   2.570
28505W        W95046   1.265  29.519  13.367
28506W        W95047   1.857   7.222  10.746
28507W        W95048  22.019   9.070  13.654
28508W        W95049  29.970  21.262   4.561
28509W        W95050  30.486   4.373  11.395
28510W        W95051  30.672   6.869   0.695
28511W        W95052   5.425  41.096   1.653
28512W        W95053   4.842  40.180  11.332
28513W        W95054   8.869  41.101  12.630
28514W        W95055  32.294   8.842   0.961
28515W        W95056  17.119  16.894  10.838
28516W        W95057  24.018  10.066  13.414
28517W        W95058  44.881   5.452  13.019
28518W        W95059  22.656  35.998  11.963
28519W        W95060  19.150  17.804   0.825
28520W        W95061   6.090   2.464  11.528
28521W        W95062  26.563  13.580   1.415
28522W        W95063   4.954  17.726  10.848
28523W        W95064  36.972  26.425   2.254
28524W        W95065  12.960  35.848  13.511
28525W        W95066  28.699  36.267  14.990
28526W        W95067  37.611  41.524  13.808
28527W        W95068  19.097  12.164   2.884
28528W        W95069   1.816  10.789   0.014
28529W        W95070  35.667  19.306   0.207
28530W        W95071   4.268   1.153  12.978
28531W        W95072  28.124  42.342  10.646
28532W        W95073  11.217  10.220  10.761
28533W        W95074  16.328  11.855   4.207
28534W        W95075   5.932   3.220  12.044
28535W        W95076  29.977  22.180   0.527
28536W        W95077  33.523  25.438  14.795
28537W        W95078  14.229   9.337   2.130
28538W        W95079   7.163  14.232   4.167
28539W        W95080  31.681   3.057   5.393
28540W        W95081  33.460  39.898   0.041
28541W        W95082  24.185  38.909  12.576
28542W        W95083   4.743  26.112   2.142
28543W        W95084  37.782  11.188   1.877
28544W        W95085  13.128  19.312  11.488
28545W        W95086  11.968  19.238   4.515
28546W        W95087  24.412  19.290  11.508
28547W        W95088  26.773  34.456  11.293
28548W        W95089  36.360   5.920   1.418
28549W        W95090  15.769  36.788   2.047
28550W        W95091  28.120  35.412   2.352
28551W        W95092   1.643  13.312  12.098
28552W        W95093  32.893  39.095   0.904
28553W        W95094  16.110  33.508   1.557
28554W        W95095  21.008   1.241   1.248
28555W        W95096  40.467  42.581   4.329
28556W        W95097  18.029  43.396   0.965
28557W        W95098  36.526  33.101   2.233
28558W        W95099  25.751  36.985   1.392
28559W        W95100  26.304   6.245  12.618
28560W        W95101  31.975  17.719   3.278
28561W        W95102  31.879  35.045   3.128
28562W        W95103  34.448  15.781  13.972
28563W        W95104  20.164  40.984   1.716
28564W        W95105  11.924   9.367   2.900
28565W        W95106  31.253  31.432   1.700
28566W        W95107  17.009  11.419   3.300
28567W        W95108  34.200  23.355  12.474
28568W        W95109  17.304  11.593   0.508
28569W        W95110  11.671  39.060   0.523
28570W        W95111  43.378  44.085   1.244
28571W        W95112  29.217   2.939   0.435
28572W        W95113   1.448  35.512   0.081
28573W        W95114  39.110  40.870  14.994
28574W        W95115  25.871  22.461   4.626
28575W        W95116  32.410   8.091   1.606
28576W        W95117  19.565  16.764  10.733
28577W        W95118  14.717  19.778   1.919
28578W        W95119  19.199  16.947   5.121
28579W        W95120  12.381  30.108  10.189
28580W        W95121   7.108  13.107   3.642
28581W        W95122   8.840  27.953   0.868
28582W        W95123  38.820  34.011  14.041
28583W        W95124  39.489  11.573  13.798
28584W        W95125  14.333  31.431  13.091
28585W        W95126   6.458  35.369   2.046
28586W        W95127  17.059  31.172   2.818
28587W        W95128  39.382  39.346  10.645
28588W        W95129  19.030  44.867   4.713
28589W        W95130   1.775  25.700   2.311
28590W        W95131   9.160  15.456  12.015
28591W        W95132  42.035  36.155   2.811
28592W        W95133  11.625  24.471  12.288
28593W        W95134  36.271  26.563  10.235
28594W        W95135  38.141  12.755   4.927
28595W        W95136   8.304  27.108   3.348
28596W        W95137  33.709   1.438  14.001
28597W        W95138  32.416  38.489   4.367
28598W        W95139  27.670  18.361   4.688
28599W        W95140  41.569   8.812   2.342
28600W        W95141   1.288   9.270   3.579
28601W        W95142  22.624  44.406  14.397
28602W        W95143  17.120  11.092   0.434
28603W        W95144   5.104   5.218   3.687
28604W        W95145  20.552  21.500  10.399
28605W        W95146  31.120  27.213   3.251
28606W        W95147  27.272   9.828   2.728
28607W        W95148  41.849   4.319   0.729
28608W        W95149   3.778   1.294  13.971
28609W        W95150  35.055  23.508  12.686
28610W        W95151   9.869   4.256  12.909
28611W        W95152  38.874  17.500   4.513
28612W        W95153   0.793  27.165   0.794
28613W        W95154  19.222  43.656  13.343
28614W        W95155   6.208   2.788  11.911
28615W        W95156   8.786  29.551  11.601
28616W        W95157  39.326   7.400   1.300
28617W        W95158  18.982  17.166  14.734
28618W        W95159   0.692   1.135  13.033
28619W        W95160  31.609  36.744   0.509
28620W        W95161   9.389   0.832   3.203
28621W        W95162  21.096  31.291  13.218
28622W        W95163  10.374   7.606  12.526
28623W        W95164  21.029  21.835   4.583
28624W        W95165  30.232   3.895   0.335
28625W        W95166  25.007  22.037   2.245
28626W        W95167  23.766  28.995  13.357
28627W        W95168   0.688  35.265   0.992
28628W        W95169  27.980  23.931  13.276
28629W        W95170  41.895  30.855  12.387
28630W        W95171  33.570  43.266   1.620
28631W        W95172  28.439  24.991  11.542
28632W        W95173  43.346   7.316  11.968
28633W        W95174  30.895  32.657   2.021
28634W        W95175   8.319  22.729   2.232
28635W        W95176  34.873  43.529   0.962
28636W        W95177  30.573  10.597   0.320
28637W        W95178  18.702  37.967   4.620
28638W        W95179  18.120  30.857   1.761
28639W        W95180  39.035  42.323  13.925
28640W        W95181  11.378   5.171   0.934
28641W        W95182  25.753  39.988  11.646
28642W        W95183  15.660   8.410   3.579
28643W        W95184  22.677  10.086  12.129
28644W        W95185   2.726  15.515   1.682
28645W        W95186   1.924  32.353   2.148
28646W        W95187  18.831  25.373   2.292
28647W        W95188   0.314  20.225  12.353
28648W        W95189  42.568  16.171  11.176
28649W        W95190   3.525  16.404  13.819
28650W        W95191   0.334   9.934  12.152
28651W        W95192  34.333  33.077  10.713
28652W        W95193  35.581  26.202  11.518
28653W        W95194   3.214  35.499   0.453
28654W        W95195  23.747  43.562   2.065
28655W        W95196  14.609  41.997  14.476
28656W        W95197  12.345  23.230   1.399
28657W        W95198  29.202  12.076   1.810
28658W        W95199  44.483   1.222  14.868
28659W        W95200  38.564  38.660   2.548
28660W        W95201  24.051  33.615  11.567
28661W        W95202  31.671  26.678  11.110
28662W        W95203   4.961   9.813   0.967
28663W        W95204  32.637   5.895  13.400
28664W        W95205  16.162  23.778  13.927
28665W        W95206   4.867   7.086  14.014
28666W        W95207   9.837  41.913   3.861
28667W        W95208  12.483  38.379  11.488
28668W        W95209  30.092  32.395  12.830
28669W        W95210   7.654   1.644   2.924
28670W        W95211  21.947  15.733   4.164
28671W        W95212  20.305  17.669  12.425
28672W        W95213  36.390  18.899   1.992
28673W        W95214   6.280  29.969   4.209
28674W        W95215  21.126  11.582  12.086
28675W        W95216  39.025  29.087   0.811
28676W        W95217  22.957  10.197   0.481
28677W        W95218  24.625  22.167  12.602
28678W        W95219  39.806  15.253   4.883
28679W        W95220  29.187  41.734  14.258
28680W        W95221  24.659  41.428   4.288
28681W        W95222  43.175  22.469  10.329
28682W        W95223  28.161  33.289   0.919
28683W        W95224  35.456  10.197  11.103
28684W        W95225  13.852  24.166   3.692
28685W        W95226  36.889  28.312   0.820
28686W        W95227  35.125  33.167   4.940
28687W        W95228  40.401  26.482   1.433
28688W        W95229  18.748  22.757   4.061
28689W        W95230  23.114  10.149  13.330
28690W        W95231  38.035  34.321   2.625
28691W        W95232  42.528  38.030  13.219
28692W        W95233   1.861  39.036   3.777
28693W        W95234   2.223  15.373   1.534
28694W        W95235  12.686  27.023   4.298
28695W        W95236   7.549  28.490  11.168
28696W        W95237  10.100  31.949   2.389
28697W        W95238  29.663   7.763   0.936
28698W        W95239  12.688  27.618  10.824
28699W        W95240  35.396   1.039  12.684
28700W        W95241  40.963  33.290   1.425
28701W        W95242  33.639   0.921  10.670
28702W        W95243  31.139  19.057  13.557
28703W        W95244  24.068  19.731   1.836
28704W        W95245  24.539  40.299  10.795
28705W        W95246  14.230  14.821  14.858
28706W        W95247  38.128  26.028   1.789
28707W        W95248  35.247  30.026  10.782
28708W        W95249   8.544  11.528   5.006
28709W        W95250   5.977  34.505   0.089
28710W        W95251  37.422  14.322  14.255
28711W        W95252  15.736  42.777   2.426
28712W        W95253  30.444  43.417  12.851
28713W        W95254  44.503  35.011  13.998
28714W        W95255  14.902  23.173   2.803
28715W        W95256  27.001  29.529  14.328
28716W        W95257  25.637   1.062  11.179
28717W        W95258  38.575  11.732   0.950
28718W        W95259  24.992  30.416   3.233
28719W        W95260  32.685  40.883   2.788
28720W        W95261   6.170  38.539   0.771
28721W        W95262  16.024  17.870  12.586
28722W        W95263  14.046  21.231  13.410
28723W        W95264  15.019  28.490  12.504
28724W        W95265   4.918  34.015  13.315
28725W        W95266   8.814  32.478   0.054
28726W        W95267  28.170  42.365  13.855
28727W        W95268   1.291  35.348   2.807
28728W        W95269  18.714  15.389   1.928
28729W        W95270  29.136  36.586   3.723
28730W        W95271  19.174  13.574   3.301
28731W        W95272  39.839  27.057  13.922
28732W        W95273   7.805  32.047  13.581
28733W        W95274  27.978  28.889   3.624
28734W        W95275  32.742   5.595   1.362
28735W        W95276  33.811  44.767   4.713
28736W        W95277  38.183  23.392  11.276
28737W        W95278  34.064  33.958  14.332
28738W        W95279  34.263  28.540   0.866
28739W        W95280   0.367  27.672   1.711
28740W        W95281  20.537  26.890   2.925
28741W        W95282  10.832  19.475  10.940
28742W        W95283  33.402  43.709   4.337
28743W        W95284  27.042  32.330  10.719
28744W        W95285  27.974  13.591  11.524
28745W        W95286   0.894  36.608  14.760
28746W        W95287  10.777  38.412   1.837
28747W        W95288  30.125  15.034  11.008
28748W        W95289  14.255  30.410  13.055
28749W        W95290  43.893  16.174   2.377
28750W        W95291  12.366  16.202  14.857
28751W        W95292  23.064  12.906  11.848
28752W        W95293  27.283   9.931   1.833
28753W        W95294  26.946  36.488  12.643
28754W        W95295  38.567  28.561   1.231
28755W        W95296  18.611  11.635   5.489
28756W        W95297  14.154   2.246  14.139
28757W        W95298  33.872  13.560   0.292
28758W        W95299  30.057  30.977   1.370
28759W        W95300  14.820  39.970  14.573
28760W        W95301  12.256  33.539  12.982
28761W        W95302  43.955  43.691   1.379
28762W        W95303   3.499  20.269  10.299
28763W        W95304   7.954  17.980   1.551
28764W        W95305  19.195   6.520   4.249
28765W        W95306   6.545  35.672  12.450
28766W        W95307  18.196  25.696  11.964
28767W        W95308   8.706   0.842  12.112
28768W        W95309  42.878  33.596  11.619
28769W        W95310   7.791  41.110   2.257
28770W        W95311   9.011   8.046  12.510
28771W        W95312  29.712  37.470   1.259
28772W        W95313  34.802  22.768   0.792
28773W        W95314  13.559  14.254   4.270
28774W        W95315  12.296  18.815   4.375
28775W        W95316  26.039  18.084   2.366
28776W        W95317  40.950  27.242   4.642
28777W        W95318   8.791  16.598   2.075
28778W        W95319  29.228  29.483  12.881
28779W        W95320  24.253   2.137  13.003
28780W        W95321   7.232   4.636  14.412
28781W        W95322  30.439  43.068   1.240
28782W        W95323  32.359  25.378   1.236
28783W        W95324  34.091   4.226  14.065
28784W        W95325  28.473  10.272   3.254
28785W        W95326  38.577   2.742  13.489
28786W        W95327  44.897  36.114   1.863
28787W        W95328  15.557  44.389  13.462
28788W        W95329  28.642  35.129   3.090
28789W        W95330  27.634  35.285   3.830
28790W        W95331  35.797  31.501   0.503
28791W        W95332   1.403  15.229  11.091
28792W        W95333   9.192  29.899   3.925
28793W        W95334  17.237  28.163  14.895
28794W        W95335  10.799  27.053   3.762
28795W        W95336  24.163  40.981  11.166
28796W        W95337  18.243  10.893   2.679
28797W        W95338   9.218  21.294  12.473
28798W        W95339   5.203  10.173  12.576
28799W        W95340  19.833  27.379  14.420
28800W        W95341   3.928  39.823   2.737
28801W        W95342  43.454   7.031   0.891
28802W        W95343  12.713   6.734   2.328
28803W        W95344  10.177  34.093   2.127
28804W        W95345   9.853   5.181   1.654
28805W        W95346  43.223  19.628   2.778
28806W        W95347  12.813  19.238  12.070
28807W        W95348   6.818  11.875  11.544
28808W        W95349   8.473  17.817   2.177
28809W        W95350  25.543  15.177   2.006
28810W        W95351  17.739  32.672   4.766
28811W        W95352  15.006  26.412   2.232
28812W        W95353   3.087  21.861  10.845
28813W        W95354   4.374   8.448   1.800
28814W        W95355  25.437  25.719  12.056
28815W        W95356  27.868   7.854  12.392
28816W        W95357  13.272   2.466   4.791
28817W        W95358  30.426  34.549  14.873
28818W        W95359  20.972  26.150   1.763
28819W        W95360  13.255   4.973   4.921
28820W        W95361  23.585   0.142  12.103
28821W        W95362  36.544   0.164   0.453
28822W        W95363  31.100   0.175  14.361
28823W        W95364  17.386  37.350  12.374
28824W        W95365  12.770  23.694  11.178
28825W        W95366  37.921   7.935  13.916
28826W        W95367  14.562  34.279   1.807
28827W        W95368  28.884   3.332   0.298
28828W        W95369  23.832  42.851  10.145
28829W        W95370  39.780  23.163   4.136
28830W        W95371   6.796  38.740  12.263
28831W        W95372   8.814  24.462  14.526
28832W        W95373  32.838  17.205  12.394
28833W        W95374   4.850  35.549   0.476
28834W        W95375  29.443   3.777  14.984
28835W        W95376  43.880  40.026  11.857
28836W        W95377  17.609  23.376   3.751
28837W        W95378   5.369  21.529  14.040
28838W        W95379  39.459  18.528   0.948
28839W        W95380  11.175  40.642  13.887
28840W        W95381  32.202  39.982   2.730
28841W        W95382  31.049   0.363   2.614
28842W        W95383  10.264  24.027  14.765
28843W        W95384  34.663  21.548  12.549
28844W        W95385  26.636  37.134  11.064
28845W        W95386  20.575  37.154  12.170
28846W        W95387  38.364  19.489   0.000
28847W        W95388  44.435  15.864   3.728
28848W        W95389  23.749  34.391  12.559
28849W        W95390  23.116  18.570   0.937
28850W        W95391  15.619  20.149  13.806
28851W        W95392  34.208  30.220   0.358
28852W        W95393  43.205  10.705  11.560
28853W        W95394  12.308  26.414  10.361
28854W        W95395  21.120  37.644  10.164
28855W        W95396   0.299  32.654  11.242
28856W        W95397   0.903   0.299  10.814
28857W        W95398   7.153  41.057  13.022
28858W        W95399   2.261  42.384  14.587
28859W        W95400  44.097   2.675   0.503
28860W        W95401   0.721  28.088  11.250
28861W        W95402  15.618  21.515  11.625
28862W        W95403  24.542  44.504   2.856
28863W        W95404  24.218  39.931   3.970
28864W        W95405   8.840   5.461   1.454
28865W        W95406  42.943  28.743   3.143
28866W        W95407  20.585  15.723  13.153
28867W        W95408  44.499  37.507  12.542
28868W        W95409  15.050   1.036  12.642
28869W        W95410  19.727  35.189   1.429
28870W        W95411  42.789  33.379  14.826
28871W        W95412  42.367  17.660   0.506
28872W        W95413   2.260   1.325   0.426
28873W        W95414  36.541  39.023  12.475
28874W        W95415  26.441  26.543  11.641
28875W        W95416   8.436  19.623  13.005
28876W        W95417  43.350   6.000   4.355
28877W        W95418  40.890  20.147   0.821
28878W        W95419  20.043  39.304  14.454
28879W        W95420   9.577  14.434   9.727
28880W        W95421   7.248  33.398   3.744
28881W        W95422  19.645  35.312  11.728
28882W        W95423  13.495   1.229   0.278
28883W        W95424   2.344   8.670  14.877
28884W        W95425   9.888  13.775   1.394
28885W        W95426  15.603  33.902   2.811
28886W        W95427  42.796  44.384   0.203
28887W        W95428   1.974  19.071   1.292
28888W        W95429   6.695  15.255  14.028
28889W        W95430  31.540  28.136  14.007
28890W        W95431  16.074  28.546  10.541
28891W        W95432   6.088  12.820   4.262
28892W        W95433  27.536  22.397   3.539
28893W        W95434  38.238  19.633   4.318
28894W        W95435  35.793  35.990  14.701
28895W        W95436  23.625  41.109   2.577
28896W        W95437  22.514  16.124   0.087
28897W        W95438  12.243  21.542   2.638
28898W        W95439  43.192  14.264  13.840
28899W        W95440  15.171  10.211   4.161
28900W        W95441  15.619  36.962  11.538
28901W        W95442  24.784  24.099   3.269
28902W        W95443  24.367   4.371   3.157
28903W        W95444  35.294  11.115  14.367
28904W        W95445  42.476  26.477  12.894
28905W        W95446  41.615  35.793   0.829
28906W        W95447   4.078   5.307  12.079
28907W        W95448  41.611  41.531  10.742
28908W        W95449  36.938  10.321   9.898
28909W        W95450  19.844  36.210   0.538
28910W        W95451   1.808  31.872   3.490
28911W        W95452  29.646   8.845  14.697
28912W        W95453  18.528  20.189  12.536
28913W        W95454  14.560   0.815  12.031
28914W        W95455   1.974  12.425  12.924
28915W        W95456  26.124  11.674   2.629
28916W        W95457  15.256  30.463  14.027
28917W        W95458   0.014   2.910  10.874
28918W        W95459  33.168  40.983   0.086
28919W        W95460  20.036  13.631  14.414
28920W        W95461  20.637  33.037  12.171
28921W        W95462   5.616   8.251   2.739
28922W        W95463  29.996  22.780  11.991
28923W        W95464  27.142  24.492   0.964
28924W        W95465  42.674  13.244   3.322
28925W        W95466  43.466  12.320  14.392
28926W        W95467   2.729  39.315  10.498
28927W        W95468  34.382   6.868  14.415
28928W        W95469  23.489   3.743   2.296
28929W        W95470  26.106  41.300   4.214
28930W        W95471  29.875  42.034   2.265
28931W        W95472  32.768   4.353   3.557
28932W        W95473   8.749   6.395   1.251
28933W        W95474   8.040   0.301  10.688
28934W        W95475   4.698  41.518   1.703
28935W        W95476  34.759  23.209   4.185
28936W        W95477  34.314   8.716  12.513
28937W        W95478   9.487  42.097  13.378
28938W        W95479   5.499  37.496  14.663
28939W        W95480  44.935  34.635   2.822
28940W        W95481  25.199  43.404  11.591
28941W        W95482   7.261  12.879  13.542
28942W        W95483   5.360  38.815  10.556
28943W        W95484  37.179  43.760   1.487
28944W        W95485  27.668  35.930  14.542
28945W        W95486   7.800  26.652   1.397
28946W        W95487  12.808  13.281  12.513
28947W        W95488  33.011   6.888  11.110
28948W        W95489   5.369   6.519   3.081
28949W        W95490   6.250  14.583   0.016
28950W        W95491  19.654  30.574   2.580
28951W        W95492  43.427  44.291   4.387
28952W        W95493  29.069  19.824   1.521
28953W        W95494   3.722  37.994  14.750
28954W        W95495  17.040  16.247   3.164
28955W        W95496  24.223  35.553   1.325
28956W        W95497   8.263  25.044  10.650
28957W        W95498  22.779  26.877   2.191
28958W        W95499  13.645  43.517  10.679
28959W        W95500  16.206  18.358  12.078
28960W        W95501  24.323  25.776  14.427
28961W        W95502  28.373  15.411  14.592
28962W        W95503  36.999  17.106  13.807
28963W        W95504  13.576  11.202   0.869
28964W        W95505  23.584  25.441   4.711
28965W        W95506  19.162  22.692  13.944
28966W        W95507  19.105  18.078  13.411
28967W        W95508  22.383  37.868  13.376
28968W        W95509  35.560  10.879  12.028
28969W        W95510   5.295  38.048   0.433
28970W        W95511   9.350  33.359  10.320
28971W        W95512  42.731  43.002  13.997
28972W        W95513   0.392  22.489  12.388
28973W        W95514  13.861  20.163   3.615
28974W        W95515  32.019   1.616   9.924
28975W        W95516  38.332  24.918  12.108
28976W        W95517  38.721  21.244   4.153
28977W        W95518  29.059   7.690   3.950
28978W        W95519  18.045  29.694  14.036
28979W        W95520  14.659  15.429  10.113
28980W        W95521  44.739  18.613  11.185
28981W        W95522  26.122  19.894  13.992
28982W        W95523  27.676  29.043   0.388
28983W        W95524  33.469  30.121   4.754
28984W        W95525   4.878  31.886  10.195
28985W        W95526  12.328  12.353  10.906
28986W        W95527  16.354  36.732   4.138
28987W        W95528  22.764  33.628  11.423
28988W        W95529  23.170  32.587   4.225
28989W        W95530  37.766  10.802   2.854
28990W        W95531  34.641  23.022   1.907
28991W        W95532  30.420  17.015   1.804
28992W        W95533   1.193   0.180  11.219
28993W        W95534  31.428  16.157  12.479
28994W        W95535  26.712  14.354  12.466
28995W        W95536  15.307  10.910  12.969
28996W        W95537  44.697  21.660   4.779
28997W        W95538  38.000  44.830   3.760
28998W        W95539  36.515  34.796   2.356
28999W        W95540   1.306   3.722  13.370
29000W        W95541  10.646  25.120   1.142
29001W        W95542  18.897  35.853   3.770
29002W        W95543  38.396  36.948  10.657
29003W        W95544  39.053  31.929  12.572
29004W        W95545  25.106  40.590  14.358
29005W        W95546   4.445  43.080  10.509
29006W        W95547  10.217  28.933   0.438
29007W        W95548  29.664  35.200   4.840
29008W        W95549  28.037   1.493   1.342
29009W        W95550  40.692  44.393   1.818
29010W        W95551  22.269  12.493  11.454
29011W        W95552   2.975   6.823  12.151
29012W        W95553  42.661  21.102   1.163
29013W        W95554  24.659  37.838  13.478
29014W        W95555  39.273  44.502   1.291
29015W        W95556   6.330  22.070   3.597
29016W        W95557  40.145   2.765   1.881
29017W        W95558   5.254  41.559   5.314
29018W        W95559  21.544  11.548   1.159
29019W        W95560  41.698  40.903   1.659
29020W        W95561  42.745  33.482  13.536
29021W        W95562   6.184  26.986  12.449
29022W        W95563  21.012  23.998  13.408
29023W        W95564  31.016   9.751  10.244
29024W        W95565   3.528  19.528  11.214
29025W        W95566  35.565  38.584   0.214
29026W        W95567  33.265  42.853   3.578
29027W        W95568   7.942  39.460   1.386
29028W        W95569  40.936  15.029   1.949
29029W        W95570   4.435  31.166  11.481
29030W        W95571  26.678  33.033  11.713
29031W        W95572  18.237  40.265  12.848
29032W        W95573   8.677  27.970   3.200
29033W        W95574  12.897  30.055  13.323
29034W        W95575   2.184  14.671  10.482
29035W        W95576   6.103   6.829  12.536
29036W        W95577  14.758  43.304  14.809
29037W        W95578   4.043  26.406  11.210
29038W        W95579  40.207  27.573   1.151
29039W        W95580  37.789  28.461   1.892
29040W        W95581   9.908  34.613  14.525
29041W        W95582  33.207  15.197   1.944
29042W        W95583  28.931  43.955  11.863
29043W        W95584   4.268   8.195   0.365
29044W        W95585   7.320   4.644   3.309
29045W        W95586   7.390  19.809  10.704
29046W        W95587  24.116  11.629  13.180
29047W        W95588   0.968  37.466   9.969
29048W        W95589  28.156  37.904  13.634
29049W        W95590  17.010  23.782   4.761
29050W        W95591  26.567  42.755   0.460
29051W        W95592  12.162  23.673   2.284
29052W        W95593   4.399  43.728   5.073
29053W        W95594  10.057   0.454   0.596
29054W        W95595  34.922   1.287  14.341
29055W        W95596   4.299   3.989  13.334
29056W        W95597  10.768   2.949  12.086
29057W        W95598  35.939  21.771   2.299
29058W        W95599   1.348  11.883  12.584
29059W        W95600   0.724  27.046   2.228
29060W        W95601  44.646  40.913   4.182
29061W        W95602  12.122  32.470  11.040
29062W        W95603  10.547  21.257   4.109
29063W        W95604  35.446  37.119  13.494
29064W        W95605  29.562  43.375   0.347
29065W        W95606  30.090  15.403   4.240
29066W        W95607  28.803  17.383  11.685
29067W        W95608  15.769   9.739   1.959
29068W        W95609   5.447  22.648   0.490
29069W        W95610  31.067  32.699   0.379
29070W        W95611  33.509  37.828  14.796
29071W        W95612  42.647  31.539   2.635
29072W        W95613  29.209  38.024   2.769
29073W        W95614  14.248  23.073   1.201
29074W        W95615  12.807  41.409  13.784
29075W        W95616   8.806  14.684   1.741
29076W        W95617   7.314   1.322  11.639
29077W        W95618  35.594  18.119   0.030
29078W        W95619  27.997   8.892  13.936
29079W        W95620  13.861   9.386  12.320
29080W        W95621  35.602  27.204  11.574
29081W        W95622  44.878  44.217  14.350
29082W        W95623   8.829  19.127   4.144
29083W        W95624  19.429  29.001   1.771
29084W        W95625  34.631   3.655   5.443
29085W        W95626  36.354  26.870   4.408
29086W        W95627  24.909  16.202   2.277
29087W        W95628  24.961  35.910   2.463
29088W        W95629   0.255  39.947  12.018
29089W        W95630  34.006   0.216   4.554
29090W        W95631   0.933  39.900  12.598
29091W        W95632  23.667   3.796   3.625
29092W        W95633  22.171  16.539  14.333
29093W        W95634  43.349  17.457  11.901
29094W        W95635   2.337  34.508   1.479
29095W        W95636  28.121  18.224  12.465
29096W        W95637  42.913  29.272   1.108
29097W        W95638   5.176   9.093   0.855
29098W        W95639  19.610  38.863  11.286
29099W        W95640   4.221   0.836  11.113
29100W        W95641  43.256  42.032  11.207
29101W        W95642  35.094  34.937  11.124
29102W        W95643  27.347   7.832  11.564
29103W        W95644  42.629   0.347   0.448
29104W        W95645   8.191  20.224   3.902
29105W        W95646  13.105   4.060  11.091
29106W        W95647  35.789   2.688   2.751
29107W        W95648   8.624  30.488   4.236
29108W        W95649   7.832   9.671  12.485
29109W        W95650   4.841  31.083   4.362
29110W        W95651  13.594  26.141   2.385
29111W        W95652  17.503  37.878  10.033
29112W        W95653   8.759  27.736   3.975
29113W        W95654  13.160  24.344   2.299
29114W        W95655   8.649  40.012  13.020
29115W        W95656   5.514  37.513  11.062
29116W        W95657  43.794   2.248   0.532
29117W        W95658  32.671   9.061   1.922
29118W        W95659  37.838   4.788  11.972
29119W        W95660  28.252  10.201   3.725
29120W        W95661  40.681  39.905   5.003
29121W        W95662  36.816  43.411  12.855
29122W        W95663   7.395  15.154   0.732
29123W        W95664   9.811   9.660  11.695
29124W        W95665  12.173  37.005  14.319
29125W        W95666  32.448  22.463   0.272
29126W        W95667  44.414  38.591   4.625
29127W        W95668   4.367  43.435  10.886
29128W        W95669  41.588   8.271  14.773
29129W        W95670  42.787  26.665  12.135
29130W        W95671  31.448  17.028   3.172
29131W        W95672  14.649  18.355   4.637
29132W        W95673  17.755  33.995  12.497
29133W        W95674  43.882   9.695  13.990
29134W        W95675  36.474  17.964  14.968
29135W        W95676  13.159  40.219  11.895
29136W        W95677  15.830  44.290  14.851
29137W        W95678  17.100  10.610   3.202
29138W        W95679   0.380  37.831   1.490
29139W        W95680  33.658  23.505   0.574
29140W        W95681   2.893  31.445   0.351
29141W        W95682   8.866  25.166   0.239
29142W        W95683  42.082  26.386  12.553
29143W        W95684  12.838  43.074  10.685
29144W        W95685  30.373  32.467  12.376
29145W        W95686  21.253  26.967   1.295
29146W        W95687  18.351  32.329  14.805
29147W        W95688   6.195  27.482   2.283
29148W        W95689  33.506  36.292  14.784
29149W        W95690  34.616   8.311   1.417
29150W        W95691  33.341  30.050  13.307
29151W        W95692  39.636   3.747  14.949
29152W        W95693  29.960  25.863   4.708
29153W        W95694  10.787  41.842  14.306
29154W        W95695  14.801  33.068   1.463
29155W        W95696  28.932  23.714  13.669
29156W        W95697  29.088  26.198  13.004
29157W        W95698   6.750  43.380  12.784
29158W        W95699  27.476  43.232   0.284
29159W        W95700   2.505  40.030   5.275
29160W        W95701  36.306  13.940  14.900
29161W        W95702   8.190  11.163   3.875
29162W        W95703   7.651  37.389   9.769
29163W        W95704  16.040   9.282   3.242
29164W        W95705  16.702  42.144   4.555
29165W        W95706  44.437  35.367  14.740
29166W        W95707   8.185  19.254  10.729
29167W        W95708  20.529  15.866   4.816
29168W        W95709  37.274  11.810   3.997
29169W        W95710  18.543  11.919   0.732
29170W        W95711   3.718  35.141  12.919
29171W        W95712  20.516  18.357  14.916
29172W        W95713  21.680   7.608  12.477
29173W        W95714  35.655  38.527  13.680
29174W        W95715  19.248  35.622   4.084
29175W        W95716  37.689  11.930  11.168
29176W        W95717  18.582   0.347   3.688
29177W        W95718  34.639  23.689   4.038
29178W        W95719  28.715  37.450  13.928
29179W        W95720  24.690  32.691   3.366
29180W        W95721  30.667  28.545   2.008
29181W        W95722   3.140  17.784   1.908
29182W        W95723  31.078  30.560   2.399
29183W        W95724  31.988  29.080   1.934
29184W        W95725  21.049  12.102   2.278
29185W        W95726   3.492  21.939   2.344
29186W        W95727   3.841   6.656   2.668
29187W        W95728   2.273   8.430  12.981
29188W        W95729  38.074  10.979  11.138
29189W        W95730  38.441   0.321  10.498
29190W        W95731   7.916  41.499  10.365
29191W        W95732  28.638  26.681   3.733
29192W        W95733  12.595  39.266  14.275
29193W        W95734  10.855  38.388   4.669
29194W        W95735   0.761  33.124  13.084
29195W        W95736  44.937  14.619   1.882
29196W        W95737  44.990  23.985  12.767
29197W        W95738   2.314  30.185  13.301
29198W        W95739   6.631  24.526  11.406
29199W        W95740  28.420   4.451  13.892
29200W        W95741  12.892  24.799   0.589
29201W        W95742   7.451  26.700   2.307
29202W        W95743  33.100  38.999   3.718
29203W        W95744  26.241  26.151  11.876
29204W        W95745  28.858  40.399   2.786
29205W        W95746  27.408  14.710   3.224
29206W        W95747  11.531  13.316   3.082
29207W        W95748   0.339  12.213   2.784
29208W        W95749  27.246  24.596   2.246
29209W        W95750   8.206  24.929  14.080
29210W        W95751   3.955  37.697   5.161
29211W        W95752  39.291  34.862   3.249
29212W        W95753  16.740  27.001   0.215
29213W        W95754  37.211  29.838  12.061
29214W        W95755  25.967   6.670  12.966
29215W        W95756  33.023  15.863  12.086
29216W        W95757  24.398  23.125   3.295
29217W        W95758  23.065  36.909   1.927
29218W        W95759   2.162  27.987   2.703
29219W        W95760   0.370  14.836   4.230
29220W        W95761  15.770  28.904   0.341
29221W        W95762  40.972  43.446   4.025
29222W        W95763   5.332   9.178   1.703
29223W        W95764  30.072  41.904   4.504
29224W        W95765  17.103   0.378  12.397
29225W        W95766  32.019   2.087  10.660
29226W        W95767   0.329   6.648   1.873
29227W        W95768  18.466  40.373   4.617
29228W        W95769  43.900  36.324   1.511
29229W        W95770  10.235  23.452  11.534
29230W        W95771  17.033  25.063  14.126
29231W        W95772  20.965   6.932  11.240
29232W        W95773  23.700  39.567  11.667
29233W        W95774   4.528  39.499   4.215
29234W        W95775  16.911   6.817  10.659
29235W        W95776  35.313   4.474   4.786
29236W        W95777   1.624  13.412  14.848
29237W        W95778  42.859  13.878  13.882
29238W        W95779   1.841  22.194  12.015
29239W        W95780  19.984  17.252  10.279
29240W        W95781  37.864  44.382  14.464
29241W        W95782  24.940  30.200  13.518
29242W        W95783  11.693   1.753  13.506
29243W        W95784  12.301  17.240  11.713
29244W        W95785  38.991  37.583   2.327
29245W        W95786  20.184   9.570   4.652
29246W        W95787  13.210  15.640   4.522
29247W        W95788  17.535  16.187   0.941
29248W        W95789  43.463  36.493   0.277
29249W        W95790  30.592   0.160   2.447
29250W        W95791  15.067   5.877  14.069
29251W        W95792  11.679  12.572  14.390
29252W        W95793  27.523   5.337  14.382
29253W        W95794  33.622  15.088  10.637
29254W        W95795  43.381  39.419  13.984
29255W        W95796  40.716  43.503  12.372
29256W        W95797  25.029  22.587   3.620
29257W        W95798  24.476   8.334  11.042
29258W        W95799  15.281   5.094  12.397
29259W        W95800  21.517   4.424   4.442
29260W        W95801   9.344   6.873   1.730
29261W        W95802  23.588  24.718  12.224
29262W        W95803  32.310  32.640   2.374
29263W        W95804   7.482  17.744  12.006
29264W        W95805  31.165  26.715  10.267
29265W        W95806  16.119  24.583   1.891
29266W        W95807   4.163  37.834  13.809
29267W        W95808  41.850  33.936  14.351
29268W        W95809  20.394   3.685   4.125
29269W        W95810  10.739   6.819  10.704
29270W        W95811  38.244  13.783  14.853
29271W        W95812   8.770  36.919  14.837
29272W        W95813  27.868  27.873  11.176
29273W        W95814  35.652  36.568  11.688
29274W        W95815   0.107  36.644   2.636
29275W        W95816  26.516  13.807   2.269
29276W        W95817  27.672  23.567   0.467
29277W        W95818  36.228  14.641  14.231
29278W        W95819  17.786  28.072  11.188
29279W        W95820  18.057  14.561   1.042
29280W        W95821  11.820  23.962   4.084
29281W        W95822  40.155  11.049   2.221
29282W        W95823  30.521  33.521   0.009
29283W        W95824   2.796   1.914  12.706
29284W        W95825  10.525   7.735  14.378
29285W        W95826  36.328  11.066  12.407
29286W        W95827   4.460  43.353   0.262
29287W        W95828  32.217  34.079   2.333
29288W        W95829  12.185  31.870   2.817
29289W        W95830   2.513  26.686  14.108
29290W        W95831  36.425  11.583   3.440
29291W        W95832  17.130   0.895  13.329
29292W        W95833   2.863   0.130   0.002
29293W        W95834   2.408  15.135   1.947
29294W        W95835  21.726  21.334  10.258
29295W        W95836  11.717   1.854   4.963
29296W        W95837   2.470  44.221   3.186
29297W        W95838  20.582   9.243   4.738
29298W        W95839  27.142  25.200  13.097
29299W        W95840  27.944  22.749   4.228
29300W        W95841  16.171  28.375  11.536
29301W        W95842  38.929  17.816   1.363
29302W        W95843  10.346  37.425  10.486
29303W        W95844  24.104  21.154  12.322
29304W        W95845  42.808   8.891   0.281
29305W        W95846  34.134  31.850  14.744
29306W        W95847  21.041   7.778  12.992
29307W        W95848   5.758  34.127  14.792
29308W        W95849  23.002  39.447  12.105
29309W        W95850  40.266  25.261  14.035
29310W        W95851   7.262  38.769   2.291
29311W        W95852  27.837  33.107   1.370
29312W        W95853   5.347  32.367  13.052
29313W        W95854  42.777  44.022  12.243
29314W        W95855  38.146  18.604  12.395
29315W        W95856  23.058  44.240   2.440
29316W        W95857  12.116   4.383  10.628
29317W        W95858   1.045  16.576   0.742
29318W        W95859  26.974  20.519  12.906
29319W        W95860  11.793  34.966  11.669
29320W        W95861   7.765   8.391  10.445
29321W        W95862  14.702  21.210   0.917
29322W        W95863  39.268   5.479   1.804
29323W        W95864   6.874  16.162   1.932
29324W        W95865  13.376   1.535   5.019
29325W        W95866   0.855  27.052   1.718
29326W        W95867  37.829  27.965   0.909
29327W        W95868  24.898  12.646   0.848
29328W        W95869  14.839  37.068   2.803
29329W        W95870   7.233  43.639  14.436
29330W        W95871   9.890   4.228   4.492
29331W        W95872  25.117  24.259  13.829
29332W        W95873  28.290  40.774  12.988
29333W        W95874   3.831  35.803   1.939
29334W        W95875   9.695  31.938  14.040
29335W        W95876   8.209  43.951  14.927
29336W        W95877   3.484  27.094  11.184
29337W        W95878  11.205  20.183   2.814
29338W        W95879  11.751   4.583   2.137
29339W        W95880  32.120   3.423  11.551
29340W        W95881  37.658  37.915   0.117
29341W        W95882  38.958  41.478  14.357
29342W        W95883  13.499  32.064  12.175
29343W        W95884  10.866  29.968  10.600
29344W        W95885  29.553   6.351   3.779
29345W        W95886  23.989  37.118  12.832
29346W        W95887  41.971  12.591   0.421
29347W        W95888  42.280  21.075   0.376
29348W        W95889  38.884   8.418  13.827
29349W        W95890  44.399  20.034   2.709
29350W        W95891   7.687  33.285   4.022
29351W        W95892  27.500  20.594  11.188
29352W        W95893  33.460   7.702  12.291
29353W        W95894  13.929  25.596   4.070
29354W        W95895  43.006  35.631  10.679
29355W        W95896  14.062  16.117   3.619
29356W        W95897  11.374  17.851  14.856
29357W        W95898  26.379  12.188  11.150
29358W        W95899  37.456  25.079   3.942
29359W        W95900  32.972  38.838   0.458
29360W        W95901  39.106  33.616  13.300
29361W        W95902  31.920  44.489   1.348
29362W        W95903  41.757  35.777  10.217
29363W        W95904  34.861   8.164   4.067
29364W        W95905  44.220  36.387  10.965
29365W        W95906  20.748  29.640   3.665
29366W        W95907   0.343  34.794   1.743
29367W        W95908  35.435   8.109  14.383
29368W        W95909   1.948  17.739   1.804
29369W        W95910  11.784  26.908   2.791
29370W        W95911  29.036  28.579  12.851
29371W        W95912  25.125  38.216  12.079
29372W        W95913   8.056   2.485   0.843
29373W        W95914   4.900   6.877  11.727
29374W        W95915  32.487  11.460   2.811
29375W        W95916  36.943  19.674   4.681
29376W        W95917  31.535   1.259  12.196
29377W        W95918  10.296  31.513   0.215
29378W        W95919  30.015  22.101  12.412
29379W        W95920   5.388  43.395  12.547
29380W        W95921  20.687  13.654   0.363
29381W        W95922   9.619  34.883  12.020
29382W        W95923  13.258   0.093  12.026
29383W        W95924   6.327  32.293   1.274
29384W        W95925  24.082  20.966  14.915
29385W        W95926  12.575  16.659  13.438
29386W        W95927  27.472  41.972  14.401
29387W        W95928  30.805   1.801  12.201
29388W        W95929  18.024  36.853  13.451
29389W        W95930  14.060  16.077  14.461
29390W        W95931   1.863  33.534  13.743
29391W        W95932  35.985  29.022  10.848
29392W        W95933   6.300  31.869   4.132
29393W        W95934  39.235  34.492   3.583
29394W        W95935  23.978  41.047   0.299
29395W        W95936  30.986  34.899  14.131
29396W        W95937  19.653  17.083   3.540
29397W        W95938  11.209  31.555   4.649
29398W        W95939  17.731  19.866  12.899
29399W        W95940  31.060   3.826   0.994
29400W        W95941  32.666   2.358  13.996
29401W        W95942   7.297   3.802  13.001
29402W        W95943  20.616   2.198   4.183
29403W        W95944  12.901  27.571  13.951
29404W        W95945   7.946  10.207  10.742
29405W        W95946  23.167  12.292  13.616
29406W        W95947  14.370  16.536   3.691
29407W        W95948  10.060   7.446  12.912
29408W        W95949  16.927  34.889   5.070
29409W        W95950  19.812   9.408   2.705
29410W        W95951  23.576   2.222  12.294
29411W        W95952  26.440  20.000   1.905
29412W        W95953   5.712  34.249   3.943
29413W        W95954  37.863  18.166  13.718
29414W        W95955   8.797   3.253   2.846
29415W        W95956  12.144  30.556   2.311
29416W        W95957  26.866  12.892   4.273
29417W        W95958  19.515  11.346   4.496
29418W        W95959  18.689  12.146   2.609
29419W        W95960  39.568  22.173  13.559
29420W        W95961  34.238  15.745   1.021
29421W        W95962  20.579   9.936  12.111
29422W        W95963  28.158  23.495   1.686
29423W        W95964  35.579  12.545  11.974
29424W        W95965  12.670   4.165  12.109
29425W        W95966  21.606  12.871  10.342
29426W        W95967  42.310  40.574   1.320
29427W        W95968   3.583  19.743   3.641
29428W        W95969   4.674  11.635   0.427
29429W        W95970   9.437  13.173   0.281
29430W        W95971  18.720   5.935   0.879
29431W        W95972   8.551  42.480  13.983
29432W        W95973   8.673   5.301  11.591
29433W        W95974  37.827  13.180  11.589
29434W        W95975  38.632  39.087  13.245
29435W        W95976  11.722  11.155  14.805
29436W        W95977  29.654   7.861   2.701
29437W        W95978   3.538  12.514  10.082
29438W        W95979   0.955  11.538  11.354
29439W        W95980  41.540  31.365   1.698
29440W        W95981   2.467  37.663   1.310
29441W        W95982  14.008  10.431   1.189
29442W        W95983  17.176  42.545  12.552
29443W        W95984  21.910  34.723  12.731
29444W        W95985   9.511   8.247  10.563
29445W        W95986  24.724  29.251  14.532
29446W        W95987   8.545   9.880  11.865
29447W        W95988  12.033   3.367   4.152
29448W        W95989  41.448  19.776   4.091
29449W        W95990  23.508  35.897  11.527
29450W        W95991  31.611  17.227   0.526
29451W        W95992  19.665   8.348   4.602
29452W        W95993  28.575  27.156   3.983
29453W        W95994   5.722  30.900  13.013
29454W        W95995  43.842  39.595   1.593
29455W        W95996  16.751  10.871   2.261
29456W        W95997  10.750   9.980  10.820
29457W        W95998   2.607  16.756  11.146
29458W        W95999  39.420  41.972   1.780
29459W        W96000   3.077  41.862   2.903
29460W        W96001   3.210  10.854  13.022
29461W        W96002  26.613  31.699  14.193
29462W        W96003  41.789  24.517  12.503
29463W        W96004  43.840  44.470   2.800
29464W        W96005   6.228  18.556   0.402
29465W        W96006  20.487   0.897  11.063
29466W        W96007  21.633  21.984  14.278
29467W        W96008  35.053  34.816   3.942
29468W        W96009   5.510  11.359   3.270
29469W        W96010   0.827  40.490  12.986
29470W        W96011  20.763  10.030  12.600
29471W        W96012  30.308  44.070   3.251
29472W        W96013  22.479   3.180  12.931
29473W        W96014  36.958  23.272  12.558
29474W        W96015  21.948  26.240   4.190
29475W        W96016   8.725  13.701  10.886
29476W        W96017  11.818  12.247  12.507
29477W        W96018  21.598  23.074   1.666
29478W        W96019  16.356  35.459  14.627
29479W        W96020  35.336  35.677  14.095
29480W        W96021  12.909  14.919   1.252
29481W        W96022  22.973  33.007   3.442
29482W        W96023   9.718  37.759   1.715
29483W        W96024   3.724  44.914   1.779
29484W        W96025  16.168  18.273   1.197
29485W        W96026  38.878  30.882   3.334
29486W        W96027  36.819  35.834  13.899
29487W        W96028   4.619  18.781   3.117
29488W        W96029  27.963  29.781   2.751
29489W        W96030  16.492  15.230  11.033
29490W        W96031  39.077  27.029  12.231
29491W        W96032  44.813   9.364   2.826
29492W        W96033   0.041  22.334   3.703
29493W        W96034  15.737  15.836   0.914
29494W        W96035  28.414   5.994   2.042
29495W        W96036  29.382  14.139   4.115
29496W        W96037  32.982  29.619  11.996
29497W        W96038  36.796   7.771   0.894
29498W        W96039  41.789   6.010  14.902
29499W        W96040   5.691  35.677  11.109
29500W        W96041   6.068  10.562  13.994
29501W        W96042  22.494   6.000  12.504
29502W        W96043  43.284  21.668   4.072
29503W        W96044  36.111  26.157  11.568
29504W        W96045  43.415  13.407   2.761
29505W        W96046  16.806  39.223   0.917
29506W        W96047  21.202  28.050  13.407
29507W        W96048  14.460  33.170   3.713
29508W        W96049  40.109  19.494   3.381
29509W        W96050   6.862  16.750   3.403
29510W        W96051  43.866  36.501  11.328
29511W        W96052   5.258  31.010  11.936
29512W        W96053  28.016   9.049   1.895
29513W        W96054   4.544   4.296   2.867
29514W        W96055   8.380  39.968   2.742
29515W        W96056  27.478   7.920  10.337
29516W        W96057  22.074  29.465  13.396
29517W        W96058  35.330  19.321  10.618
29518W        W96059  30.658  16.119   1.953
29519W        W96060  27.896  31.167   2.557
29520W        W96061  18.268  21.576   1.794
29521W        W96062  17.806  10.338  13.300
29522W        W96063  31.125  21.266   4.878
29523W        W96064  33.953   5.864   3.588
29524W        W96065  38.204  22.497   2.306
29525W        W96066   1.408  15.960  14.354
29526W        W96067   7.671  30.944   4.510
29527W        W96068  14.188  26.702   0.739
29528W        W96069   9.342  24.019  10.723
29529W        W96070  35.128   6.678   2.941
29530W        W96071  23.527   8.229  13.557
29531W        W96072   3.731  38.387  10.682
29532W        W96073  25.753   4.423   1.409
29533W        W96074  36.091  39.416   0.954
29534W        W96075  31.629  11.402  14.850
29535W        W96076   4.234   1.574  13.988
29536W        W96077  44.254  12.867   2.656
29537W        W96078  10.297  35.499  11.742
29538W        W96079  10.790   8.656  11.238
29539W        W96080  33.397   0.002   3.248
29540W        W96081   6.900  34.447   2.124
29541W        W96082  25.637  16.737  13.934
29542W        W96083  35.141  19.874  13.408
29543W        W96084  11.301  27.269  12.079
29544W        W96085  22.046  31.483   3.750
29545W        W96086   0.758  29.201  12.891
29546W        W96087  32.185  39.324   2.244
29547W        W96088  42.316  24.417   0.216
29548W        W96089   4.731  33.925   2.152
29549W        W96090  40.422   0.237   3.119
29550W        W96091   0.083   3.916   4.887
29551W        W96092  32.854   1.097  14.742
29552W        W96093   8.547  33.978  14.429
29553W        W96094  39.051  15.204  14.905
29554W        W96095  15.810  40.256   0.795
29555W        W96096  42.791  41.932  13.313
29556W        W96097  17.192  36.378  14.282
29557W        W96098  33.100  43.300  11.331
29558W        W96099  34.121  16.333  12.628
29559W        W96100  29.449  42.527  11.211
29560W        W96101   0.782  41.690   3.247
29561W        W96102  28.917   2.192   2.022
29562W        W96103   9.245  20.030   3.112
29563W        W96104  23.898   0.610   5.087
29564W        W96105  22.283  34.037   1.647
29565W        W96106  33.425  40.407   2.705
29566W        W96107   3.695  42.887  11.962
29567W        W96108  26.778  19.589   1.947
29568W        W96109  19.684  42.528   1.898
29569W        W96110  25.512  11.123  13.002
29570W        W96111  25.726  43.564   0.953
29571W        W96112  44.697   5.903   1.247
29572W        W96113  15.153   1.678   0.332
29573W        W96114   8.209   3.531   1.510
29574W        W96115  20.376  44.373   1.830
29575W        W96116  34.068   0.412   4.082
29576W        W96117   3.402   6.530  12.259
29577W        W96118  25.221  43.387   1.733
29578W        W96119  33.128  41.827  10.402
29579W        W96120  26.599   1.787   1.545
29580W        W96121  22.125  12.259  10.627
29581W        W96122   0.146  27.601   4.227
29582W        W96123   3.951   9.798  12.964
29583W        W96124  34.410  17.092   1.463
29584W        W96125  11.945   1.588   1.885
29585W        W96126  25.996  13.894   2.406
29586W        W96127   4.389   5.966   3.744
29587W        W96128  26.511   0.797  12.924
29588W        W96129  25.110  26.413   0.441
29589W        W96130  33.577  29.001   1.139
29590W        W96131  10.114  19.403   0.053
29591W        W96132  16.082  36.882   1.627
29592W        W96133  12.002  14.199  12.969
29593W        W96134  37.850  19.639  14.781
29594W        W96135  19.040  15.186   3.222
29595W        W96136  10.953   6.423  14.889
29596W        W96137  24.684   6.319   3.419
29597W        W96138  11.703  21.851  11.425
29598W        W96139  33.557   0.623   1.117
29599W        W96140  25.436  20.884   1.767
29600W        W96141  23.950  26.558  11.221
29601W        W96142  27.921  28.865  12.023
29602W        W96143  14.339  31.133   2.573
29603W        W96144  16.102  24.947  13.658
29604W        W96145  17.460  12.900   0.489
29605W        W96146  42.411  17.448  11.385
29606W        W96147   2.725  19.339   0.761
29607W        W96148  23.531  13.751  14.787
29608W        W96149  15.633  37.569  13.054
29609W        W96150  44.542  25.158   4.175
29610W        W96151  19.145   2.780   2.331
29611W        W96152  24.048  38.731   4.454
29612W        W96153  12.211  34.110  13.506
29613W        W96154   0.355  19.754   2.946
29614W        W96155   8.391  30.001  11.696
29615W        W96156  21.019  23.081  12.454
29616W        W96157  10.388  29.095  13.450
29617W        W96158  23.268   9.640  13.380
29618W        W96159   9.388  16.917   4.289
29619W        W96160  14.448  38.296  13.010
29620W        W96161  35.944  21.598  14.991
29621W        W96162  32.974  15.501   2.703
29622W        W96163  24.227  15.387   1.698
29623W        W96164  43.038  42.642  14.225
29624W        W96165  42.818  34.005  13.402
29625W        W96166  35.431  11.656   3.861
29626W        W96167  44.227   2.255  13.371
29627W        W96168  26.154  12.678  13.136
29628W        W96169  29.957  29.373  14.291
29629W        W96170  16.486  23.622  14.646
29630W        W96171   2.859  40.495   4.285
29631W        W96172  36.021  35.617  13.439
29632W        W96173  11.816  35.457   4.667
29633W        W96174  24.651  39.128  13.798
29634W        W96175   7.109   6.697  12.630
29635W        W96176  39.128  16.617  13.373
29636W        W96177  43.821  12.130  13.432
29637W        W96178   5.466   2.256  14.836
29638W        W96179  31.643  16.114   1.695
29639W        W96180  21.749  21.129  13.423
29640W        W96181   1.234  23.141   3.782
29641W        W96182   3.722  19.991   3.113
29642W        W96183  11.716  16.751   1.508
29643W        W96184  16.169  26.679   1.801
29644W        W96185   1.159   4.713  13.925
29645W        W96186  13.420  33.893  14.323
29646W        W96187  20.707  17.813   1.944
29647W        W96188  11.852   5.925   2.781
29648W        W96189   1.479   5.422   1.353
29649W        W96190  29.609  11.678   5.018
29650W        W96191   5.437  42.364   0.426
29651W        W96192  27.087   8.136   3.545
29652W        W96193  29.116   2.528  11.072
29653W        W96194   5.382  28.997  13.374
29654W        W96195  28.023  32.283   1.068
29655W        W96196  16.158  10.938   4.050
29656W        W96197  44.692   3.181  10.030
29657W        W96198   5.003  11.258   3.253
29658W        W96199  25.576   8.067   4.169
29659W        W96200  13.134  36.568   2.169
29660W        W96201  16.390  24.033   2.233
29661W        W96202  19.252   3.786   1.348
29662W        W96203  28.109   9.450   4.200
29663W        W96204   9.705   7.197   1.522
29664W        W96205  20.683  10.329   1.966
29665W        W96206  40.077  43.634   3.121
29666W        W96207  12.542  41.474  10.680
29667W        W96208   5.651   6.643  11.112
29668W        W96209   7.439  41.335   0.387
29669W        W96210  10.726  22.658  12.387
29670W        W96211   3.302   7.436   3.204
29671W        W96212  28.792  14.373  11.596
29672W        W96213  41.887   2.250   2.243
29673W        W96214   7.115  30.864   3.605
29674W        W96215  28.105  12.033   2.839
29675W        W96216   1.284  40.597  13.532
29676W        W96217   9.570  33.427   0.290
29677W        W96218  20.818  12.765   1.524
29678W        W96219   3.220   3.653   4.118
29679W        W96220  37.424  44.441   2.628
29680W        W96221  22.638  28.381   2.893
29681W        W96222  22.786  14.091  10.821
29682W        W96223  18.125  35.401   3.803
29683W        W96224   5.370  11.734   2.442
29684W        W96225  23.175  11.677   2.809
29685W        W96226   4.214  16.710   3.680
29686W        W96227  31.050  11.456   5.014
29687W        W96228  32.121  28.926  11.574
29688W        W96229  16.540   0.910  10.656
29689W        W96230  17.578  40.826   2.046
29690W        W96231  23.872  38.046  12.676
29691W        W96232  34.064  39.946   3.991
29692W        W96233  27.928  42.654  11.874
29693W        W96234   6.489  33.067   1.762
29694W        W96235  17.591  40.238  10.768
29695W        W96236   1.642   8.416  11.905
29696W        W96237  41.428  32.875   3.655
29697W        W96238  40.539   6.710  13.447
29698W        W96239  43.381  21.503  11.514
29699W        W96240  11.687  15.383   4.242
29700W        W96241  24.233  29.439  14.538
29701W        W96242  36.008   4.735  10.799
29702W        W96243   7.115   0.570   2.848
29703W        W96244  41.951  13.372   1.978
29704W        W96245  17.601  40.916   4.279
29705W        W96246  10.338  19.978  13.181
29706W        W96247  11.287  17.006   1.672
29707W        W96248  29.489  20.277  14.960
29708W        W96249  38.759  14.732   0.717
29709W        W96250  12.340  19.659  14.992
29710W        W96251   5.888   0.317   2.199
29711W        W96252  28.267  19.269   2.228
29712W        W96253   5.722  29.485   0.422
29713W        W96254  20.674  29.254  14.806
29714W        W96255  10.798  32.347   2.310
29715W        W96256  40.872  42.909  10.928
29716W        W96257  15.155  40.175   3.242
29717W        W96258  11.425  43.889   4.277
29718W        W96259  30.971  31.560   2.126
29719W        W96260   4.200   2.885   0.795
29720W        W96261   6.304  37.923  13.031
29721W        W96262  30.222   5.295   0.359
29722W        W96263  32.812  25.289  11.817
29723W        W96264  17.774  37.862  12.877
29724W        W96265  20.748  19.661   0.385
29725W        W96266  22.297   9.957   2.913
29726W        W96267  17.550  14.395  13.611
29727W        W96268  33.595  17.701  13.815
29728W        W96269   2.694  36.037   4.895
29729W        W96270  35.596  41.056   3.850
29730W        W96271  36.583  31.922  12.170
29731W        W96272  15.278   0.864  13.066
29732W        W96273  14.017  20.699   2.493
29733W        W96274  12.696  40.340   4.208
29734W        W96275   6.053  34.427  12.006
29735W        W96276  31.489  24.242   4.297
29736W        W96277  36.077  33.306  12.159
29737W        W96278  33.043  10.263  12.475
29738W        W96279  25.262  21.029   4.987
29739W        W96280  11.558  20.291   1.446
29740W        W96281  38.139  24.022   3.154
29741W        W96282  22.106  22.405   3.310
29742W        W96283  10.272  44.929   4.117
29743W        W96284  12.220  31.597  10.908
29744W        W96285  20.900  23.631  11.606
29745W        W96286   2.486   9.527   3.055
29746W        W96287  42.785  36.602  12.481
29747W        W96288  35.476  17.207   1.055
29748W        W96289  32.958  21.005  11.571
29749W        W96290  14.104  20.593  12.299
29750W        W96291  42.029  33.564  12.063
29751W        W96292  39.820   3.387  13.680
29752W        W96293  43.853   9.622  14.966
29753W        W96294  30.639  25.187  13.852
29754W        W96295  31.991  15.921   0.384
29755W        W96296  33.554   6.581  14.863
29756W        W96297   1.824  11.682   1.311
29757W        W96298  37.911  42.594  11.133
29758W        W96299  20.049  27.489  12.182
29759W        W96300  39.643  21.861  11.412
29760W        W96301  13.820  33.865  13.981
29761W        W96302   6.181  22.304   2.395
29762W        W96303   2.234  35.048  13.844
29763W        W96304   8.202  16.514   1.242
29764W        W96305  21.825  21.191   1.143
29765W        W96306  36.333  38.235  12.767
29766W        W96307  38.294  26.537   1.355
29767W        W96308  14.531  33.062   4.566
29768W        W96309  10.961   3.146  13.981
29769W        W96310  22.635  40.115   2.725
29770W        W96311   9.884  14.170   4.539
29771W        W96312   0.827   9.879   3.642
29772W        W96313  35.080  41.294  14.006
29773W        W96314  37.113  24.092   3.203
29774W        W96315  44.776  11.623   2.196
29775W        W96316  38.150  17.073   4.220
29776W        W96317  33.960  13.839   2.348
29777W        W96318  29.903  22.971   3.196
29778W        W96319  28.892  18.210   2.216
29779W        W96320  41.311  37.143   4.552
29780W        W96321  25.046  40.538   0.370
29781W        W96322  26.135  44.233  14.302
29782W        W96323   0.750  23.910  14.117
29783W        W96324   0.157  26.735  11.567
29784W        W96325  24.980  27.305   0.447
29785W        W96326  13.205   1.356   3.421
29786W        W96327  29.059   9.927   4.061
29787W        W96328  15.606  11.616  13.150
29788W        W96329  12.480   3.899   2.210
29789W        W96330  25.727   5.421   0.281
29790W        W96331  11.643  15.799  13.413
29791W        W96332  15.930  31.195   0.559
29792W        W96333  38.489  11.469  11.934
29793W        W96334   3.945   6.458  12.503
29794W        W96335  35.522  13.115   2.340
29795W        W96336  33.374  34.003  12.161
29796W        W96337   5.678  11.791  12.084
29797W        W96338  14.879   9.687   3.127
29798W        W96339  38.253  10.775   3.779
29799W        W96340  16.255  12.166   4.697
29800W        W96341  35.924   3.274   0.925
29801W        W96342  19.641  43.000   1.713
29802W        W96343  16.931  23.515  12.967
29803W        W96344  19.544  23.765   3.744
29804W        W96345  36.635  22.986   0.068
29805W        W96346  39.649  10.269  12.557
29806W        W96347   1.326  30.377   5.444
29807W        W96348  42.236   7.766   0.118
29808W        W96349  17.703  11.883  12.229
29809W        W96350   7.543  20.806   0.962
29810W        W96351  12.700  42.623   2.656
29811W        W96352   9.775   7.994  14.904
29812W        W96353   7.354  33.436  14.686
29813W        W96354  23.458  27.873  14.080
29814W        W96355   8.242   0.548   0.870
29815W        W96356   1.363  11.905   1.410
29816W        W96357   7.849  29.645   3.268
29817W        W96358  24.253  38.364  12.476
29818W        W96359   3.422  44.103  13.636
29819W        W96360  10.879  42.446  10.632
29820W        W96361  21.699  25.561   4.536
29821W        W96362  13.904  39.954   1.790
29822W        W96363  18.693   8.905  12.504
29823W        W96364  11.842  38.931   4.133
29824W        W96365  32.580  11.571  14.053
29825W        W96366  31.388  13.807   3.223
29826W        W96367  29.930  20.916   4.165
29827W        W96368  16.281  15.057   0.795
29828W        W96369   5.958  14.261   0.511
29829W        W96370  22.690   1.034  11.649
29830W        W96371  14.228  42.884   4.009
29831W        W96372  18.233  20.213  14.763
29832W        W96373  20.575  16.556   3.048
29833W        W96374  29.569  33.478   3.140
29834W        W96375  28.933  28.209   3.692
29835W        W96376  14.287  38.463   3.877
29836W        W96377  22.892  12.599  11.061
29837W        W96378  21.528  27.158   4.090
29838W        W96379  33.244  18.211  12.994
29839W        W96380  31.199  21.633  13.979
29840W        W96381  36.464  25.354  11.962
29841W        W96382   9.092  31.163  13.018
29842W        W96383   4.947  21.734   0.855
29843W        W96384  38.942  16.693   3.847
29844W        W96385  26.644  24.926   3.227
29845W        W96386  27.770  30.862   0.782
29846W        W96387   7.979   1.322   3.785
29847W        W96388  15.552  38.829   3.674
29848W        W96389  34.796  34.601   0.417
29849W        W96390  17.783  23.548   0.727
29850W        W96391  24.957  19.991   1.896
29851W        W96392   4.974  25.545   1.407
29852W        W96393   3.617  35.473  11.073
29853W        W96394  32.672  35.624  10.434
29854W        W96395  43.454   0.724   1.460
29855W        W96396  12.405  43.238  14.755
29856W        W96397  32.912  25.978  14.434
29857W        W96398  24.520  38.526  12.920
29858W        W96399  10.438  14.297   3.172
29859W        W96400  38.076  43.728   2.297
29860W        W96401  17.476  10.435  11.905
29861W        W96402  37.548  14.719  12.149
29862W        W96403   8.371  19.802   3.615
29863W        W96404  37.340  15.126  12.585
29864W        W96405  33.944  21.974   2.247
29865W        W96406  35.093   8.076   4.922
29866W        W96407  34.811  18.547  14.923
29867W        W96408  30.446  12.085   3.557
29868W        W96409  20.794   4.985  12.461
29869W        W96410  23.924  44.494  14.092
29870W        W96411   2.523  23.706   2.697
29871W        W96412  21.962  33.698  11.080
29872W        W96413  40.563   7.637  14.436
29873W        W96414  24.852  27.125  11.937
29874W        W96415  22.653  37.549   5.225
29875W        W96416  24.675   7.220   1.433
29876W        W96417  22.388   3.003   4.211
29877W        W96418  31.504   3.148   2.851
29878W        W96419  41.495  10.733  11.113
29879W        W96420  22.715  13.756  14.205
29880W        W96421   4.227  34.821  11.203
29881W        W96422  35.029  20.131   3.474
29882W        W96423  13.051  41.024  13.417
29883W        W96424  22.397   2.214   3.682
29884W        W96425   3.218  37.888  11.093
29885W        W96426  14.795  32.461   0.725
29886W        W96427  26.988  35.605   2.755
29887W        W96428  28.120   6.939   2.237
29888W        W96429   3.391   7.326  14.674
29889W        W96430   8.101  31.110  11.162
29890W        W96431  33.561  40.132   4.144
29891W        W96432  38.486  41.603  13.607
29892W        W96433  10.935   5.204  12.960
29893W        W96434  30.962  31.040   4.070
29894W        W96435  31.262  37.953  14.448
29895W        W96436   9.719  31.149   2.440
29896W        W96437  20.498  15.729   3.031
29897W        W96438  33.451  41.222   0.699
29898W        W96439   3.557   4.206  11.150
29899W        W96440  38.384   3.815   1.819
29900W        W96441  25.297  43.550  11.087
29901W        W96442  40.805  36.399  10.660
29902W        W96443  27.482  33.632  10.990
29903W        W96444  27.501  39.329  13.376
29904W        W96445  39.474  31.924  14.931
29905W        W96446   5.172  27.390  11.177
29906W        W96447  13.876   9.978  14.282
29907W        W96448  35.596   9.834   0.689
29908W        W96449  29.617   0.332  10.663
29909W        W96450   5.228  30.703   3.798
29910W        W96451  32.148   5.439  13.508
29911W        W96452  36.993   7.872   4.845
29912W        W96453  18.785  13.410   3.032
29913W        W96454  42.190   3.895   0.993
29914W        W96455  39.995  36.959   3.773
29915W        W96456  17.111  33.513  12.581
29916W        W96457  30.663  28.576  14.749
29917W        W96458  17.609  10.652  11.460
29918W        W96459  14.599  22.696  13.467
29919W        W96460  11.204  31.103   3.650
29920W        W96461  35.305  18.157   2.883
29921W        W96462   8.076  40.369  14.517
29922W        W96463  13.696  42.028  13.412
29923W        W96464  33.213  36.970  10.351
29924W        W96465  31.477  17.775   1.850
29925W        W96466  24.488  20.502  12.084
29926W        W96467  34.014  13.810   0.772
29927W        W96468  13.326   4.630   2.839
29928W        W96469  32.878  36.967   4.032
29929W        W96470  21.012  26.170  13.079
29930W        W96471  13.381  13.752   4.278
29931W        W96472  20.543   8.022  10.514
29932W        W96473  20.751  26.979   0.382
29933W        W96474  18.591  15.789   3.368
29934W        W96475  25.082  32.675   3.730
29935W        W96476  22.941  36.867   1.049
29936W        W96477  34.435  21.649  14.424
29937W        W96478  42.476  30.891   2.696
29938W        W96479  14.256  38.545  11.168
29939W        W96480  16.345  36.780  12.175
29940W        W96481  26.390  36.664  10.996
29941W        W96482  17.635  18.635  10.381
29942W        W96483  42.326  26.960  11.129
29943W        W96484  32.424  27.398  11.603
29944W        W96485  27.197  40.741  10.634
29945W        W96486   2.357  42.923   2.323
29946W        W96487  23.268   0.520   4.448
29947W        W96488  18.612  44.483   3.882
29948W        W96489   0.482   1.849   3.702
29949W        W96490  42.186   2.497  13.402
29950W        W96491   6.038  20.630  11.951
29951W        W96492  17.589  38.028  11.007
29952W        W96493  33.904  35.497   1.859
29953W        W96494  22.690  42.771   4.486
29954W        W96495  27.225   5.921  11.118
29955W        W96496  18.609  18.985  12.302
29956W        W96497  39.044   0.902  12.429
29957W        W96498  31.019  11.310  11.043
29958W        W96499  30.719  30.580  12.435
29959W        W96500   3.485  39.351  11.905
29960W        W96501  43.922   1.401   4.180
29961W        W96502  40.612   0.023  10.639
29962W        W96503   0.824  42.496   1.533
29963W        W96504  19.103  38.933  11.995
29964W        W96505   7.518  23.750   4.193
29965W        W96506  41.884   3.041   2.680
29966W        W96507   1.795  37.836  12.168
29967W        W96508  29.181  11.179   0.412
29968W        W96509  28.343   7.289  13.515
29969W        W96510   5.210  22.206  10.675
29970W        W96511   0.883  10.493   3.638
29971W        W96512   6.210   5.320   4.686
29972W        W96513  26.771  23.559   0.493
29973W        W96514  30.319  14.351  11.597
29974W        W96515   0.452  41.827   4.495
29975W        W96516  44.537  30.413   4.023
29976W        W96517  42.637  10.308   4.890
29977W        W96518   1.826  30.848   4.447
29978W        W96519  38.639  41.200   4.606
29979W        W96520  27.974  10.751  14.261
29980W        W96521  21.778  40.004   4.926
29981W        W96522  15.775  39.077  11.731
29982W        W96523  40.309   7.687   2.267
29983W        W96524   1.694  40.032   4.548
29984W        W96525  32.576   3.229  13.413
29985W        W96526  20.966  13.377  10.363
29986W        W96527  35.279  44.137   1.302
29987W        W96528  19.707   2.702  13.024
29988W        W96529  16.722  18.204   0.471
29989W        W96530  17.243  23.985   1.983
29990W        W96531  18.347   3.376  13.030
29991W        W96532  34.023  23.431  14.364
29992W        W96533   4.328  35.979  11.143
29993W        W96534  18.986   2.839  14.510
29994W        W96535   3.729  25.058  13.422
29995W        W96536  36.140  43.015   3.459
29996W        W96537  37.148  44.389   3.394
29997W        W96538   3.888   0.808   4.142
29998W        W96539  25.903  14.919   3.199
29999W        W96540  22.027  24.026   1.739
30000W        W96541  22.752  30.284   3.229
30001W        W96542   2.441  23.164   2.621
30002W        W96543  13.393  13.772   2.438
30003W        W96544  10.243   8.790   2.819
30004W        W96545  14.007  22.074  13.746
30005W        W96546   0.224  19.055  10.690
30006W        W96547  38.044  20.322   4.862
30007W        W96548  10.522  38.189   3.180
30008W        W96549  17.231  22.078   4.585
30009W        W96550   5.104  44.325  10.207
30010W        W96551  28.449  37.484  13.464
30011W        W96552   5.184  24.215  14.016
30012W        W96553  15.186   2.878   2.162
30013W        W96554  37.912  17.731   3.368
30014W        W96555  24.971  26.758  12.284
30015W        W96556  19.673  10.858  14.143
30016W        W96557  40.463  24.216   0.008
30017W        W96558  32.514  31.511   4.646
30018W        W96559  34.387  32.447  11.479
30019W        W96560  25.525  39.015   1.557
30020W        W96561  23.029   3.428   5.424
30021W        W96562   2.011   3.390   4.829
30022W        W96563   3.671  27.158   2.735
30023W        W96564  31.131  22.217   2.830
30024W        W96565  30.154  41.507   0.210
30025W        W96566   3.591  33.539  14.978
30026W        W96567  21.410  20.212  11.255
30027W        W96568  28.507  33.642   0.401
30028W        W96569  38.818   4.672  10.803
30029W        W96570   0.932  26.015  14.378
30030W        W96571  40.413  30.727  14.565
30031W        W96572  29.482  44.433   4.937
30032W        W96573  31.933  24.258   4.034
30033W        W96574  34.993  12.871   0.175
30034W        W96575  43.762  37.542   2.952
30035W        W96576  25.579  39.750  11.217
30036W        W96577  31.488  18.335  14.657
30037W        W96578  16.619  43.753  14.758
30038W        W96579  15.085  13.349  14.325
30039W        W96580  38.510  29.501   3.780
30040W        W96581   2.412   9.152   2.232
30041W        W96582  28.716  17.137   0.554
30042W        W96583   1.337   6.151  12.455
30043W        W96584  10.281  16.741   3.155
30044W        W96585  32.939  36.773   2.325
30045W        W96586   2.920   6.312  13.329
30046W        W96587  44.078  28.280   0.992
30047W        W96588   4.906   7.917  13.891
30048W        W96589   0.291  41.921  13.957
30049W        W96590  25.395  20.652   0.869
30050W        W96591  33.492  22.741   2.393
30051W        W96592  28.736  41.079  12.874
30052W        W96593   8.930  10.867  12.561
30053W        W96594  21.905  19.246   3.307
30054W        W96595  44.993  38.489  12.567
30055W        W96596  40.560  33.015   0.336
30056W        W96597  19.170  12.605  14.834
30057W        W96598  42.000   5.301  14.258
30058W        W96599  37.314  30.119  11.602
30059W        W96600  12.030  20.062   4.091
30060W        W96601  37.865  30.022   1.945
30061W        W96602   3.507   1.831  11.924
30062W        W96603  23.118  19.559  11.732
30063W        W96604  38.064  28.209   4.191
30064W        W96605   6.265  30.252   2.678
30065W        W96606  43.444  17.025  14.383
30066W        W96607  43.415   7.416   2.453
30067W        W96608  20.776  37.135   1.853
30068W        W96609  31.837  41.332   4.490
30069W        W96610  28.650  44.471   0.280
30070W        W96611  40.505   9.859  14.784
30071W        W96612  21.086  29.459  14.015
30072W        W96613  19.852  13.030  12.125
30073W        W96614  33.120  33.616   9.864
30074W        W96615  23.484   4.372  12.542
30075W        W96616  15.705  42.036   0.348
30076W        W96617   2.938   2.564  13.906
30077W        W96618  26.062   5.809   0.416
30078W        W96619  30.511  23.658   2.887
30079W        W96620  29.675  16.046  13.890
30080W        W96621  42.094   0.885  13.048
30081W        W96622  43.607  21.310  11.102
30082W        W96623   1.293  26.965   0.792
30083W        W96624   1.447  17.476  12.041
30084W        W96625  36.386  40.562   3.067
30085W        W96626  12.203  13.402  12.030
30086W        W96627   3.747   8.914   4.092
30087W        W96628   6.895   5.559  11.891
30088W        W96629  18.983  36.650  13.044
30089W        W96630  23.486  34.609  13.802
30090W        W96631  22.120  36.453  10.708
30091W        W96632  20.753   7.901  11.475
30092W        W96633  14.400  30.837   1.603
30093W        W96634  25.182  44.953  10.623
30094W        W96635  19.505   7.218   2.737
30095W        W96636  38.234  14.713  14.866
30096W        W96637  21.093  43.544  12.511
30097W        W96638  12.877  25.203   1.263
30098W        W96639  20.713  22.558   3.244
30099W        W96640  35.330  17.030  12.193
30100W        W96641  28.390  15.602  12.930
30101W        W96642   8.529  25.196  12.427
30102W        W96643   3.894  12.055  12.961
30103W        W96644  27.111  26.263  14.649
30104W        W96645  23.983  38.307   4.728
30105W        W96646   3.758  18.013  12.575
30106W        W96647  41.515  38.813  13.536
30107W        W96648  25.357  38.051   0.917
30108W        W96649  33.863  19.688  13.935
30109W        W96650   4.666  11.378   0.935
30110W        W96651  20.911   9.319   1.636
30111W        W96652  23.992  24.734   0.738
30112W        W96653  10.102  14.148   3.549
30113W        W96654  28.441   8.404   0.010
30114W        W96655  20.792  41.079   0.259
30115W        W96656  44.498   0.261   1.855
30116W        W96657  41.460   0.365  14.500
30117W        W96658   9.945   0.320   3.412
30118W        W96659  20.232  14.420  12.830
30119W        W96660   6.475  31.224  13.331
30120W        W96661  43.476  31.562  13.367
30121W        W96662  18.252  43.927  14.248
30122W        W96663  44.117   4.879  13.943
30123W        W96664  21.851  22.833   0.633
30124W        W96665  44.054  27.011  13.489
30125W        W96666  42.371  31.055  12.233
30126W        W96667   5.925  38.409  11.065
30127W        W96668  25.979   3.901  11.638
30128W        W96669  14.376   0.492  14.662
30129W        W96670  23.692  35.631  12.011
30130W        W96671  10.168   4.613  12.063
30131W        W96672  20.249   0.409   2.738
30132W        W96673  15.294  36.545   4.251
30133W        W96674  41.282   9.856  11.595
30134W        W96675   6.486  32.305  11.525
30135W        W96676  36.803   9.411  13.527
30136W        W96677  23.274  11.187   2.773
30137W        W96678   1.942  24.461  12.867
30138W        W96679  33.501  19.262   0.241
30139W        W96680  41.883  31.672   3.088
30140W        W96681   9.967  38.550   1.510
30141W        W96682  32.660   4.613   2.693
30142W        W96683  43.725  27.264  14.019
30143W        W96684  12.866  44.465   3.191
30144W        W96685   9.408  25.514  12.915
30145W        W96686  33.284  22.709   4.126
30146W        W96687  28.476  33.432   2.040
30147W        W96688  34.032  26.578  11.154
30148W        W96689  30.462   0.379   3.390
30149W        W96690  19.857  23.660   4.242
30150W        W96691  37.625   9.744   3.151
30151W        W96692  23.538  13.074  11.355
30152W        W96693  31.960  31.525   3.217
30153W        W96694  25.279   9.125   1.334
30154W        W96695  11.322   5.935  14.426
30155W        W96696  10.936  18.586  13.054
30156W        W96697  34.648  26.429   0.943
30157W        W96698  15.637   3.381   2.622
30158W        W96699  38.319  16.993  11.606
30159W        W96700  31.982  36.004  14.944
30160W        W96701  25.403   6.926   0.109
30161W        W96702  38.747  32.188   2.735
30162W        W96703  32.933  16.269   4.539
30163W        W96704  33.127  33.207   1.845
30164W        W96705  31.462  26.056   2.822
30165W        W96706  11.625  30.488  11.591
30166W        W96707  32.425  33.498  10.770
30167W        W96708  22.067  12.227  13.468
30168W        W96709  27.068  13.116  14.045
30169W        W96710   5.420  35.206  13.849
30170W        W96711  24.971  19.770   1.329
30171W        W96712   8.406   8.651   1.357
30172W        W96713  23.078  42.311  14.388
30173W        W96714  24.010   9.912   4.100
30174W        W96715  19.566  27.944  11.632
30175W        W96716  42.282  11.221   3.336
30176W        W96717  31.425  38.184  14.934
30177W        W96718   1.374  12.275  12.194
30178W        W96719  21.077  14.053   0.960
30179W        W96720  12.711   1.094  14.440
30180W        W96721  36.821  18.944  12.443
30181W        W96722  15.265   9.331   0.247
30182W        W96723  39.436  35.190  11.522
30183W        W96724  15.338  43.030   2.702
30184W        W96725  23.133  29.902   2.368
30185W        W96726  33.063  30.895   3.305
30186W        W96727  14.029  22.218  10.854
30187W        W96728  25.782  13.838   1.797
30188W        W96729  30.163  23.645  10.769
30189W        W96730  20.096  32.603   3.774
30190W        W96731   4.984  44.549   0.341
30191W        W96732   7.282   0.623  13.954
30192W        W96733  18.079  14.336  12.949
30193W        W96734  11.970  32.651  12.538
30194W        W96735  21.180   2.854  10.779
30195W        W96736  16.391  12.724  11.065
30196W        W96737  42.926  18.142   4.160
30197W        W96738   9.908   5.858  14.517
30198W        W96739  34.316  16.921   4.219
30199W        W96740  16.813  43.895   2.570
30200W        W96741  33.071   1.714   5.482
30201W        W96742  12.280  24.201  13.298
30202W        W96743  41.871  44.308  13.031
30203W        W96744   4.293  24.459   2.420
30204W        W96745  16.512   4.822  11.524
30205W        W96746  12.747  36.540  12.194
30206W        W96747  33.034  28.683  13.369
30207W        W96748  18.138  27.405  13.860
30208W        W96749  11.795  21.287   0.787
30209W        W96750  17.335  38.061  11.448
30210W        W96751  39.637   7.128  14.945
30211W        W96752  17.816   4.466   4.102
30212W        W96753   4.493  38.750  14.059
30213W        W96754  37.860  28.116  13.058
30214W        W96755   0.790  10.236  12.144
30215W        W96756  24.953  13.833   1.373
30216W        W96757   0.996   6.433   2.771
30217W        W96758  42.028  38.016   1.772
30218W        W96759  34.238  44.434  13.815
30219W        W96760  42.051   9.336  11.655
30220W        W96761   3.817  22.994   2.708
30221W        W96762  39.385   1.360  12.490
30222W        W96763  41.244   5.298  12.128
30223W        W96764  15.158  42.334  11.055
30224W        W96765   9.896   2.399  12.377
30225W        W96766   0.803  22.046   1.470
30226W        W96767   2.708   8.154  12.912
30227W        W96768  16.369  41.062  14.841
30228W        W96769   9.221  41.323   2.958
30229W        W96770  35.512  16.405  14.871
30230W        W96771  11.103  17.607  11.423
30231W        W96772  12.093  22.426  14.052
30232W        W96773  25.681   3.795  11.211
30233W        W96774  42.509  33.484  12.202
30234W        W96775  37.388  13.131   3.357
30235W        W96776  28.982  33.646  13.746
30236W        W96777  14.363  24.648   4.286
30237W        W96778  14.194  26.715   2.571
30238W        W96779  33.803  11.324   0.279
30239W        W96780  29.458  41.430   3.546
30240W        W96781  34.725  25.544   1.858
30241W        W96782  13.126  23.118  12.627
30242W        W96783  14.210  38.536  14.326
30243W        W96784  34.382  35.820   0.869
30244W        W96785   9.900  44.258  13.884
30245W        W96786  34.923   3.832   1.261
30246W        W96787  22.989  19.318  13.363
30247W        W96788   6.389  40.063  14.993
30248W        W96789  31.129  27.381  11.422
30249W        W96790  18.740  33.519  14.391
30250W        W96791  19.355  38.002  12.932
30251W        W96792   9.134  38.044   4.041
30252W        W96793  25.502  37.805   0.425
30253W        W96794  13.703  32.519   1.871
30254W        W96795   5.116   6.117  12.329
30255W        W96796  21.205  11.051   0.882
30256W        W96797  14.932  22.454   5.046
30257W        W96798  33.010  29.709  14.264
30258W        W96799  44.231   0.159  12.414
30259W        W96800   5.387  30.353  11.222
30260W        W96801  19.927  42.830   0.180
30261W        W96802  37.082  24.652  14.942
30262W        W96803   8.879   8.032   4.169
30263W        W96804   6.441  26.016  11.564
30264W        W96805  14.853  36.079   2.369
30265W        W96806  28.551  24.504   2.921
30266W        W96807   4.814  40.004   1.817
30267W        W96808  13.804  12.073   4.851
30268W        W96809   7.153  42.610   0.889
30269W        W96810  11.796  15.469   0.762
30270W        W96811  31.911  11.408  14.417
30271W        W96812   5.848  22.213   2.784
30272W        W96813  34.055  12.301  14.970
30273W        W96814   0.856  40.809  14.633
30274W        W96815  31.418   3.970  11.592
30275W        W96816  30.899  37.400  10.825
30276W        W96817   8.912  28.984  13.338
30277W        W96818  43.899  40.485  12.129
30278W        W96819  38.346  34.113  13.310
30279W        W96820  43.986  36.575   4.294
30280W        W96821  18.740  27.675  11.248
30281W        W96822   9.715  12.635   3.327
30282W        W96823  25.385  23.687   0.231
30283W        W96824   6.979  16.459  11.951
30284W        W96825  30.005  40.590  10.568
30285W        W96826   9.565   6.900  12.161
30286W        W96827   2.851  29.434   2.941
30287W        W96828  18.700   9.684   2.427
30288W        W96829  30.913  41.822   4.084
30289W        W96830  22.586  42.280   0.256
30290W        W96831  32.616   2.935  12.970
30291W        W96832  35.931   5.901  14.715
30292W        W96833  41.194   7.156  11.202
30293W        W96834  35.925  10.422  11.134
30294W        W96835   7.751  33.088   4.838
30295W        W96836  29.430  34.063  10.775
30296W        W96837   3.350   4.713  11.049
30297W        W96838  18.261  41.945  10.589
30298W        W96839   8.886  14.639  13.811
30299W        W96840  21.313  24.187  12.137
30300W        W96841  41.837  12.168   3.938
30301W        W96842  26.118  42.329   3.279
30302W        W96843  14.225  23.527  11.148
30303W        W96844  29.488   2.837   2.376
30304W        W96845  44.213  17.478  11.581
30305W        W96846   1.471  26.018   4.547
30306W        W96847  26.444  34.021  13.233
30307W        W96848  18.639  19.764   1.903
30308W        W96849   3.949  21.170  11.997
30309W        W96850   2.786  15.040  10.749
30310W        W96851  40.959  24.320   1.873
30311W        W96852  12.413  28.261  13.614
30312W        W96853   1.975  43.859   3.758
30313W        W96854   3.336  16.383   3.262
30314W        W96855  23.134   2.359   2.322
30315W        W96856  36.596  17.913   2.493
30316W        W96857   6.172  38.494  10.628
30317W        W96858   9.529  39.421   0.507
30318W        W96859  19.918  42.134  12.181
30319W        W96860  25.061  37.276   0.763
30320W        W96861  32.151  16.228  12.935
30321W        W96862  40.149  27.441  13.808
30322W        W96863   8.936   5.192  12.030
30323W        W96864   4.855  22.455  10.937
30324W        W96865   2.806  19.617   1.646
30325W        W96866  44.478  32.033   1.404
30326W        W96867  13.275  24.848   2.184
30327W        W96868  21.216  27.319   3.116
30328W        W96869   1.184   8.803   0.094
30329W        W96870  42.481  17.860   4.929
30330W        W96871  15.751  40.826  10.711
30331W        W96872  43.033  11.477   3.652
30332W        W96873  12.066  10.485   1.165
30333W        W96874  23.972   3.528   0.776
30334W        W96875   7.725  37.361   3.258
30335W        W96876  21.989  38.655  13.579
30336W        W96877   8.754  37.079  12.456
30337W        W96878  23.868  31.262  12.659
30338W        W96879   1.672  14.513  12.123
30339W        W96880  26.673  20.264   0.682
30340W        W96881  14.173  29.592  14.306
30341W        W96882  15.610  44.612   5.131
30342W        W96883  43.192   5.273   1.898
30343W        W96884  29.186  11.216  14.405
30344W        W96885  33.849   3.773   4.083
30345W        W96886   2.319  11.874  11.464
30346W        W96887  35.155  29.544   0.332
30347W        W96888  11.028  26.936  12.795
30348W        W96889  39.996  20.160   0.495
30349W        W96890  20.651  11.718   3.885
30350W        W96891  24.270  43.634   3.975
30351W        W96892  17.479  21.197   1.262
30352W        W96893  23.744   3.976  12.021
30353W        W96894  22.550  14.343  10.416
30354W        W96895   6.178  10.720   2.634
30355W        W96896  19.116  19.689   1.688
30356W        W96897   9.436  20.029   4.634
30357W        W96898  20.604   4.873   2.518
30358W        W96899  13.335  26.473   4.573
30359W        W96900  32.629  36.089   1.213
30360W        W96901  19.918   2.211   4.881
30361W        W96902  21.598   1.428  13.515
30362W        W96903  32.558   6.713   0.884
30363W        W96904   4.910  21.168  10.679
30364W        W96905  30.443  30.641   1.577
30365W        W96906  29.890  18.769  12.035
30366W        W96907   5.812  33.796   4.858
30367W        W96908  21.212  10.888  13.521
30368W        W96909  35.505  26.412   4.311
30369W        W96910  30.499  16.150   0.854
30370W        W96911  19.591   8.383   2.838
30371W        W96912  14.043   9.187   4.611
30372W        W96913  29.438  31.568  13.458
30373W        W96914  42.311  42.230   3.630
30374W        W96915  40.902  25.586   1.393
30375W        W96916  41.099  27.446   1.348
30376W        W96917  13.860  23.284  14.299
30377W        W96918   1.090  18.046  11.199
30378W        W96919  43.835  25.967  13.486
30379W        W96920  41.278  41.721  11.087
30380W        W96921  20.273  22.650   2.928
30381W        W96922  22.547  17.220   0.919
30382W        W96923  33.413  23.628   1.366
30383W        W96924   0.792   2.439  12.431
30384W        W96925  40.874  43.004   3.706
30385W        W96926  36.505  43.876  13.709
30386W        W96927  20.019   5.651  10.611
30387W        W96928  14.548  23.598  12.526
30388W        W96929  30.237  37.464  11.486
30389W        W96930  42.707  12.704   1.989
30390W        W96931   5.338   1.790  11.394
30391W        W96932  40.824   1.238  13.138
30392W        W96933  23.975  15.928   5.219
30393W        W96934  23.947  23.221   0.034
30394W        W96935  28.079  29.141  14.543
30395W        W96936  24.651  31.687   5.050
30396W        W96937  24.908  39.266  14.845
30397W        W96938  38.572  28.552   4.629
30398W        W96939  17.363  29.059  14.438
30399W        W96940   1.310  21.053   3.083
30400W        W96941  44.996  17.988   2.261
30401W        W96942  15.525   6.755  14.437
30402W        W96943  19.346  43.466  12.018
30403W        W96944  42.555  14.728   4.206
30404W        W96945  29.252   8.774  11.754
30405W        W96946  15.642  11.079   3.211
30406W        W96947  44.930  41.286  13.288
30407W        W96948   1.243   3.748  11.396
30408W        W96949  14.149  15.256  11.323
30409W        W96950  23.211  32.881  12.942
30410W        W96951  26.655   1.403  14.054
30411W        W96952  43.730  33.905  14.860
30412W        W96953  28.982  21.114  13.997
30413W        W96954  17.257   3.128   2.987
30414W        W96955   1.430  10.814   1.211
30415W        W96956  38.452  42.652   3.639
30416W        W96957  38.899   9.865  12.607
30417W        W96958  36.052  43.983   4.499
30418W        W96959   2.523  25.381   5.170
30419W        W96960  19.301  21.200  14.522
30420W        W96961   0.361  23.055  13.719
30421W        W96962  26.727  16.515  14.520
30422W        W96963  29.421  17.198  10.563
30423W        W96964   0.148  36.597   4.773
30424W        W96965  18.330  39.953  14.521
30425W        W96966  19.460  20.183   0.299
30426W        W96967  25.091  23.186   4.018
30427W        W96968  20.164  29.760   4.675
30428W        W96969  41.969  23.910  11.284
30429W        W96970  40.445  33.356  13.524
30430W        W96971  30.339  40.651  14.825
30431W        W96972   3.654  37.353  12.454
30432W        W96973  24.165  17.814   3.957
30433W        W96974  33.388   3.683   0.006
30434W        W96975  13.277  39.143   1.442
30435W        W96976  27.999  15.747   0.403
30436W        W96977  37.380  13.959  10.052
30437W        W96978  18.722  19.198   2.577
30438W        W96979  27.269   9.982  10.160
30439W        W96980  21.340  34.031   3.290
30440W        W96981  10.661  36.327  11.481
30441W        W96982  25.892  20.019  13.491
30442W        W96983   7.059  32.359  12.962
30443W        W96984  33.555  13.559   0.787
30444W        W96985   1.375   7.670   0.189
30445W        W96986  17.507  36.782  14.334
30446W        W96987   7.308   4.262   4.729
30447W        W96988   2.829  14.247  13.505
30448W        W96989   2.265  43.759  11.786
30449W        W96990  17.938  36.399  13.139
30450W        W96991   1.217   4.804   2.345
30451W        W96992  23.652  20.014   3.768
30452W        W96993  37.849   7.412  10.419
30453W        W96994  39.153  15.177   1.221
30454W        W96995   0.813  41.446   0.443
30455W        W96996  16.314  10.370   3.914
30456W        W96997  39.981  28.536  13.561
30457W        W96998  41.740  21.367   3.039
30458W        W96999  21.094  12.834   4.482
30459W        W97000  22.194   1.759  12.422
30460W        W97001  33.699   1.695   1.126
30461W        W97002  31.856  30.637  12.921
30462W        W97003   7.291  28.509  10.717
30463W        W97004  14.279  10.189   2.629
30464W        W97005   8.130  20.858  13.699
30465W        W97006   0.660  18.073  13.966
30466W        W97007  23.460   0.320   4.923
30467W        W97008  12.799  44.250   1.153
30468W        W97009  11.530   5.291   1.415
30469W        W97010  39.911   6.008  13.497
30470W        W97011  40.205  26.144  12.508
30471W        W97012  29.391  21.648  12.200
30472W        W97013  15.485   0.753   4.712
30473W        W97014  12.123  23.176   4.549
30474W        W97015  30.128  32.271  13.321
30475W        W97016  31.371  17.034   0.941
30476W        W97017   1.339  29.926   9.859
30477W        W97018   5.154  21.300   0.370
30478W        W97019  31.466  27.623  13.879
30479W        W97020  41.839  11.159   4.341
30480W        W97021  30.381  36.761  14.310
30481W        W97022  27.418  14.621   0.964
30482W        W97023  12.326  23.725  14.995
30483W        W97024  39.571   4.791   4.019
30484W        W97025  15.795  19.665   4.640
30485W        W97026  39.580  40.893   3.251
30486W        W97027  20.517  42.768  13.540
30487W        W97028  36.117  38.816  14.971
30488W        W97029  36.403  13.391   0.449
30489W        W97030  20.720  29.244   0.627
30490W        W97031  12.238   1.023  12.660
30491W        W97032  14.089  11.968   3.884
30492W        W97033  13.689   5.291  14.936
30493W        W97034  11.400  20.480  14.457
30494W        W97035  13.391  31.049   1.815
30495W        W97036  28.132  12.331  14.836
30496W        W97037  24.442  43.745  13.301
30497W        W97038   0.015  38.999  12.348
30498W        W97039  38.899  22.758  12.530
30499W        W97040  21.598  24.575  12.492
30500W        W97041  44.906  34.795  10.583
30501W        W97042   5.768  17.965   0.852
30502W        W97043  12.855   6.378  10.742
30503W        W97044   0.510  44.949   0.524
30504W        W97045   6.208  14.330   3.139
30505W        W97046   8.714   7.922  11.096
30506W        W97047  10.381  44.283   2.807
30507W        W97048   4.839   6.934  13.494
30508W        W97049   4.889   8.221   3.678
30509W        W97050   2.591  21.785   1.269
30510W        W97051  34.322  43.243   0.819
30511W        W97052  42.804   6.856  11.594
30512W        W97053   6.389  28.126   4.536
30513W        W97054  11.923  25.020   3.596
30514W        W97055  14.962   4.951  14.480
30515W        W97056   5.851  25.850  13.112
30516W        W97057  42.889   8.800  11.553
30517W        W97058  20.373  37.265  14.491
30518W        W97059  23.116  16.113  12.249
30519W        W97060  19.136  41.942  10.415
30520W        W97061  36.026  24.985   0.502
30521W        W97062  18.829  38.496   2.226
30522W        W97063  28.939   3.975   1.808
30523W        W97064  23.373  32.917  13.949
30524W        W97065  43.831  40.640   4.479
30525W        W97066  28.875  28.711   0.359
30526W        W97067  15.834  34.109   3.252
30527W        W97068  19.565   5.728   2.613
30528W        W97069  37.286  38.550  14.168
30529W        W97070  43.604   1.703   1.268
30530W        W97071  44.255   4.840   3.815
30531W        W97072  10.915  33.016   2.905
30532W        W97073  24.603  12.228   0.850
30533W        W97074  12.202  35.180   2.247
30534W        W97075  19.944  30.603  13.122
30535W        W97076  15.804  27.151   2.659
30536W        W97077  42.824  17.194   4.140
30537W        W97078  41.054  13.783   2.385
30538W        W97079  32.901  34.526   3.150
30539W        W97080   9.685   4.385  12.445
30540W        W97081  22.429  11.858  13.473
30541W        W97082  15.126   4.877   4.349
30542W        W97083  42.051  25.675   3.678
30543W        W97084   1.600  17.301   0.696
30544W        W97085  30.015   7.665  11.554
30545W        W97086   1.871   6.678  10.770
30546W        W97087   0.499  26.200   1.211
30547W        W97088  11.210   0.765  11.542
30548W        W97089  16.190  23.131   0.524
30549W        W97090  25.610  26.251   3.726
30550W        W97091  11.911  28.253  13.455
30551W        W97092  15.366  30.563   3.564
30552W        W97093  38.138  25.290  14.215
30553W        W97094  22.234  42.301  13.499
30554W        W97095  18.791  12.321   0.497
30555W        W97096   6.611  23.628  14.384
30556W        W97097  27.707  17.084   0.357
30557W        W97098  43.481  21.548   0.733
30558W        W97099  13.343  18.741  10.621
30559W        W97100  31.436  43.416   2.641
30560W        W97101  33.902  15.568  12.762
30561W        W97102   0.457   1.612   0.226
30562W        W97103  44.495   0.468   4.523
30563W        W97104  37.343  12.879   2.772
30564W        W97105   5.249  10.761   2.174
30565W        W97106  25.994  31.930   2.732
30566W        W97107  14.898   0.573   3.403
30567W        W97108  14.553  26.530  12.546
30568W        W97109  28.997   9.434   4.165
30569W        W97110   7.794  30.868   2.221
30570W        W97111  29.998  21.972  11.595
30571W        W97112  39.898  15.583  13.818
30572W        W97113  23.257   1.519   1.267
30573W        W97114  24.116  20.684   1.992
30574W        W97115   8.627  23.103   0.806
30575W        W97116  40.730  44.875  12.408
30576W        W97117  20.702  34.276   1.294
30577W        W97118  15.642  33.195   4.775
30578W        W97119   5.515  25.679  13.998
30579W        W97120  34.105  20.497   1.779
30580W        W97121  23.736  41.795  13.984
30581W        W97122   3.250  25.996   3.143
30582W        W97123  28.582  38.709   1.721
30583W        W97124  34.678  36.621  12.011
30584W        W97125   3.259  44.789   2.687
30585W        W97126  17.795  42.341   4.125
30586W        W97127   2.615  18.023  13.065
30587W        W97128  29.526  23.686   1.418
30588W        W97129   2.745  18.574  14.900
30589W        W97130   2.988  15.766  12.434
30590W        W97131  38.023  18.833   2.402
30591W        W97132  41.492  21.778   2.828
30592W        W97133   7.912  33.604   2.770
30593W        W97134  34.406  28.236   3.709
30594W        W97135  12.562  30.955   4.625
30595W        W97136  13.281   9.137   1.675
30596W        W97137  29.600  10.050   4.965
30597W        W97138   0.324   4.451   4.213
30598W        W97139  40.388   3.549   3.281
30599W        W97140  32.699  21.224  14.730
30600W        W97141  43.868   9.335   0.466
30601W        W97142  14.335  21.141  12.991
30602W        W97143  13.662  11.759   2.340
30603W        W97144  26.925  38.284  12.911
30604W        W97145  15.175  25.868   4.760
30605W        W97146   3.754  25.082   0.201
30606W        W97147  11.392  33.927  12.063
30607W        W97148  31.131  21.714   2.637
30608W        W97149  40.141  37.198  13.955
30609W        W97150  44.491   6.731   4.054
30610W        W97151   4.764  18.778   1.361
30611W        W97152   6.635  27.873   0.487
30612W        W97153  29.093  43.974  10.854
30613W        W97154  25.176  29.942   1.398
30614W        W97155  20.925  30.647  10.991
30615W        W97156  21.001  10.382   3.347
30616W        W97157   0.976   5.244  13.871
30617W        W97158   8.032  26.404  14.872
30618W        W97159  27.228  10.361  12.802
30619W        W97160  21.214   6.602   2.569
30620W        W97161  28.629  39.915   2.656
30621W        W97162   2.006  11.210   3.278
30622W        W97163  13.918  22.999  12.917
30623W        W97164  25.915  22.106  10.876
30624W        W97165   7.602  12.522   0.488
30625W        W97166  12.061   2.255  14.973
30626W        W97167  35.136   4.987   0.306
30627W        W97168  30.893  40.883   0.587
30628W        W97169  38.505  14.048   1.415
30629W        W97170  40.973  12.560  14.034
30630W        W97171   9.096  13.241   1.126
30631W        W97172   3.800   4.063  10.721
30632W        W97173   6.759  28.147  14.427
30633W        W97174  31.411   6.287  10.620
30634W        W97175  40.858  20.627  14.011
30635W        W97176  43.106  31.643  14.403
30636W        W97177   2.509  35.448   1.422
30637W        W97178  33.247  19.747  10.810
30638W        W97179  22.658   1.292  14.255
30639W        W97180  20.259  28.814   1.839
30640W        W97181  13.118  14.368  14.360
30641W        W97182  32.917   2.955   0.741
30642W        W97183   7.197  27.993  11.891
30643W        W97184  11.368  24.836  12.510
30644W        W97185  25.048  35.839  10.066
30645W        W97186  32.141  30.308  14.263
30646W        W97187  12.182  37.912  10.677
30647W        W97188   1.396  17.528   2.834
30648W        W97189  33.497  43.512  11.556
30649W        W97190  38.582  33.868   1.181
30650W        W97191   9.444  42.314   4.462
30651W        W97192  38.701  36.540  10.758
30652W        W97193  14.200  22.564  14.962
30653W        W97194  25.171  12.775  13.577
30654W        W97195  27.073  40.698  12.487
30655W        W97196  18.303   8.296   1.612
30656W        W97197   7.229  16.834   0.162
30657W        W97198  33.018   7.464   1.928
30658W        W97199   0.967   3.882   2.720
30659W        W97200   3.413   4.753  13.644
30660W        W97201  40.406   6.712  12.463
30661W        W97202  10.907  33.382  12.606
30662W        W97203   4.977  20.301   1.167
30663W        W97204   4.919  32.008  14.363
30664W        W97205   0.049   6.701  12.919
30665W        W97206  15.727  10.317   0.744
30666W        W97207   3.891  22.497   0.882
30667W        W97208  24.452   4.877  13.991
30668W        W97209   9.449   6.622  14.564
30669W        W97210  24.967  23.205   3.209
30670W        W97211  37.938  41.712  14.989
30671W        W97212   7.704   9.750  10.707
30672W        W97213  12.280  23.416  14.023
30673W        W97214  29.973   5.231  14.528
30674W        W97215  28.800  23.948  11.479
30675W        W97216  38.540  35.435  13.860
30676W        W97217  26.998  16.865   0.842
30677W        W97218  18.516  29.735   9.991
30678W        W97219  32.404  26.538  11.592
30679W        W97220   3.947   0.325  10.331
30680W        W97221  13.556  16.212   0.956
30681W        W97222  32.448   3.148  14.803
30682W        W97223  41.794   6.265   4.591
30683W        W97224  22.882   0.795  10.581
30684W        W97225  13.889  27.202  13.630
30685W        W97226  44.592  29.091   3.491
30686W        W97227  21.058  38.751  14.491
30687W        W97228  18.194  35.596   0.504
30688W        W97229  34.510  35.095   1.392
30689W        W97230   8.336  29.765  14.719
30690W        W97231   4.955  33.390   0.863
30691W        W97232   1.403  35.713   5.232
30692W        W97233  19.113  32.307  10.485
30693W        W97234  21.496  43.298  10.311
30694W        W97235  15.288  22.907  10.670
30695W        W97236  33.055  25.188  14.919
30696W        W97237   0.996   3.141   3.848
30697W        W97238  11.272  33.108   2.115
30698W        W97239  34.760  35.214  12.832
30699W        W97240  40.325  18.064  14.927
30700W        W97241  36.067  25.621  12.160
30701W        W97242   3.924  29.176   4.045
30702W        W97243   8.466  17.127   3.665
30703W        W97244  12.396  24.063   1.762
30704W        W97245   9.603  16.547  13.392
30705W        W97246  39.227  27.435   3.160
30706W        W97247  13.815  22.222  13.303
30707W        W97248   6.220  29.476   4.089
30708W        W97249  11.183  35.089   2.251
30709W        W97250  42.885  35.862  11.106
30710W        W97251   6.888  33.413  14.458
30711W        W97252  15.386  24.058  14.948
30712W        W97253  10.752  23.459  13.005
30713W        W97254  37.222  32.588  12.888
30714W        W97255   1.326  29.378   1.715
30715W        W97256  33.440  27.661   2.417
30716W        W97257   9.591  21.259  14.874
30717W        W97258  29.602  13.794   1.643
30718W        W97259  38.438   2.638  11.483
30719W        W97260   6.631  33.062   0.235
30720W        W97261  37.438  42.035  13.969
30721W        W97262   5.089  19.586   0.871
30722W        W97263  40.328  31.088   0.900
30723W        W97264  14.819  20.311   0.942
30724W        W97265  35.683  24.924  11.028
30725W        W97266   1.351  21.723  10.737
30726W        W97267  40.084  32.984  13.923
30727W        W97268  22.224   7.849  10.512
30728W        W97269  38.771  18.604   4.095
30729W        W97270  23.239  21.377  12.003
30730W        W97271  43.063  23.609   1.435
30731W        W97272  15.596   4.468   4.937
30732W        W97273  24.882  10.849   3.785
30733W        W97274  18.727   0.467   0.360
30734W        W97275  30.018   8.641  14.251
30735W        W97276   7.897  25.507   2.564
30736W        W97277  37.362  42.949  12.951
30737W        W97278  40.998  22.808   3.663
30738W        W97279  38.507  21.227   1.221
30739W        W97280  15.181  44.934  14.051
30740W        W97281   4.757  32.015  11.031
30741W        W97282  35.580  35.860  12.279
30742W        W97283  14.762   7.699  13.875
30743W        W97284  11.572  44.830  10.597
30744W        W97285   8.917  31.154   0.297
30745W        W97286  29.899  44.491   0.820
30746W        W97287  29.851  41.550  10.997
30747W        W97288  19.521  12.312  11.658
30748W        W97289  12.221  10.401  13.266
30749W        W97290  10.289  25.712   4.599
30750W        W97291   1.131  33.109   3.929
30751W        W97292  21.034  16.156  13.936
30752W        W97293   9.654   7.705  13.078
30753W        W97294   6.818  30.907  13.531
30754W        W97295  14.060  40.368  13.854
30755W        W97296  44.993  22.260   2.460
30756W        W97297   6.405  31.961   3.627
30757W        W97298  13.407  11.405   3.684
30758W        W97299  11.925  14.070   4.580
30759W        W97300   7.805  28.005   3.642
30760W        W97301  27.431  20.208   2.640
30761W        W97302  25.928  39.414   2.398
30762W        W97303  22.461  10.347  11.764
30763W        W97304  20.757  28.979   1.737
30764W        W97305  44.733  20.575   1.521
30765W        W97306  26.016  38.805  11.929
30766W        W97307  12.806   8.852  13.935
30767W        W97308   2.291  31.892   4.051
30768W        W97309  20.720   7.365  10.815
30769W        W97310  27.123  25.701  10.769
30770W        W97311  31.353  21.632  13.463
30771W        W97312  13.879   8.260  11.109
30772W        W97313   2.243  27.773  12.999
30773W        W97314  44.948  27.128  11.264
30774W        W97315   9.996  25.221  13.437
30775W        W97316  20.111   0.341  14.016
30776W        W97317  23.069   6.630  11.293
30777W        W97318  13.066  12.230   0.359
30778W        W97319  20.696  13.612  11.425
30779W        W97320   1.812  10.659  12.469
30780W        W97321  32.639   3.456  12.952
30781W        W97322  32.955  11.356   3.686
30782W        W97323  28.788  13.871   3.299
30783W        W97324  20.341  13.520   1.659
30784W        W97325   0.905  34.847   1.196
30785W        W97326  26.559  34.930  13.862
30786W        W97327  39.376  37.494   2.711
30787W        W97328  39.099  21.362  14.708
30788W        W97329  27.999   4.834   4.885
30789W        W97330   0.946   8.083   3.186
30790W        W97331  20.047  25.212  12.961
30791W        W97332  29.601   8.489  13.978
30792W        W97333  25.019   5.377   3.273
30793W        W97334  38.385  41.424  13.122
30794W        W97335   0.446   5.206   2.678
30795W        W97336  21.198  28.642   3.657
30796W        W97337  18.674   2.297   4.896
30797W        W97338  27.852   7.229  13.566
30798W        W97339   0.173  10.835  13.950
30799W        W97340  11.665  17.848   4.870
30800W        W97341  32.629  18.584   4.098
30801W        W97342  34.393  30.977   4.118
30802W        W97343  43.431  24.124  14.872
30803W        W97344  22.656  39.215  13.474
30804W        W97345   3.907  26.327  13.125
30805W        W97346  24.836   4.604   5.027
30806W        W97347   3.742  16.156  13.326
30807W        W97348  15.422  22.651  11.623
30808W        W97349  13.696  44.381   0.278
30809W        W97350  17.295  24.499  14.853
30810W        W97351   5.854  11.272  10.813
30811W        W97352  25.706   8.872   4.576
30812W        W97353  21.849  37.531  12.628
30813W        W97354  40.190  25.700  11.044
30814W        W97355  22.210  21.490   3.378
30815W        W97356  29.436  18.641  14.883
30816W        W97357  20.024  26.613  14.724
30817W        W97358  36.987  35.572   0.801
30818W        W97359  38.969   9.161   4.569
30819W        W97360  21.806  38.154   0.818
30820W        W97361  20.676  43.948   3.653
30821W        W97362  19.745  41.977  12.769
30822W        W97363  43.057   0.682  11.272
30823W        W97364  18.001   9.132  14.021
30824W        W97365  36.072  20.003   0.600
30825W        W97366  28.114   9.901  11.089
30826W        W97367  29.686  31.018  12.032
30827W        W97368   3.785   2.302   0.576
30828W        W97369  42.499  27.388   0.241
30829W        W97370   5.724  19.240   2.153
30830W        W97371   6.200   8.622  12.447
30831W        W97372  17.119  41.359   0.483
30832W        W97373  15.901  28.061  11.196
30833W        W97374  19.743  42.378   3.435
30834W        W97375  42.790  13.601  12.031
30835W        W97376  15.337  12.184   3.299
30836W        W97377   6.830  20.642  11.559
30837W        W97378   3.355  35.480   1.455
30838W        W97379  16.197   4.839  14.531
30839W        W97380  10.864  37.593  12.607
30840W        W97381  11.462  19.044   1.504
30841W        W97382  23.022  43.755  14.226
30842W        W97383  36.747  19.433  12.574
30843W        W97384   0.661  18.447   0.695
30844W        W97385  13.840  36.070   2.409
30845W        W97386  17.612   9.626   1.323
30846W        W97387  26.982  25.009   2.490
30847W        W97388   5.668  43.039   4.631
30848W        W97389  11.872  23.232   2.265
30849W        W97390   0.369  33.838  12.062
30850W        W97391  18.098  44.492   3.165
30851W        W97392   0.529  42.919   3.685
30852W        W97393  30.703  23.508   4.046
30853W        W97394  34.970  26.642  10.734
30854W        W97395  23.090  26.418  14.892
30855W        W97396   5.613   2.710   1.064
30856W        W97397   0.278  12.337   1.817
30857W        W97398  31.614  29.733  13.049
30858W        W97399  27.750  39.292   4.383
30859W        W97400  29.415  24.022   4.666
30860W        W97401  21.319  14.129  12.075
30861W        W97402  38.569  11.413  12.836
30862W        W97403  10.807  43.505   1.908
30863W        W97404  22.149  23.686  11.055
30864W        W97405  11.099  39.847  11.246
30865W        W97406  25.230  42.418  10.795
30866W        W97407   8.778   6.577   0.752
30867W        W97408  37.323   8.334   0.263
30868W        W97409  23.093  22.132   4.003
30869W        W97410   9.383  39.922   0.336
30870W        W97411  15.539   5.628  13.894
30871W        W97412  22.487   4.472   2.741
30872W        W97413   9.286  18.550   0.780
30873W        W97414   8.113   9.207   2.227
30874W        W97415  17.517   2.778   4.407
30875W        W97416  26.466  21.418  12.405
30876W        W97417  12.358  12.359  12.509
30877W        W97418  12.391  20.087   4.537
30878W        W97419  16.329   6.237   2.324
30879W        W97420  22.719  33.321   1.351
30880W        W97421  35.425  29.834  12.869
30881W        W97422  10.807  32.647  11.723
30882W        W97423  35.808  42.930   0.963
30883W        W97424  28.046  19.544  11.930
30884W        W97425  13.281  41.475  13.565
30885W        W97426  13.860  18.145  11.989
30886W        W97427  18.199  12.798   3.691
30887W        W97428  28.724  34.696   3.743
30888W        W97429  10.352  28.501   2.389
30889W        W97430  23.128  26.570   2.395
30890W        W97431   9.897  21.143  11.818
30891W        W97432  33.444  34.421   0.079
30892W        W97433  12.851   4.164  12.886
30893W        W97434  33.189  16.145   2.308
30894W        W97435  36.171  13.802   1.861
30895W        W97436  34.793  13.307  14.961
30896W        W97437  15.326  42.419   2.258
30897W        W97438  15.673  28.666  14.408
30898W        W97439   4.350  10.429  14.566
30899W        W97440  27.974   9.459   0.022
30900W        W97441   0.767   3.733  11.615
30901W        W97442  36.268  34.369   1.476
30902W        W97443  16.651  40.293   2.885
30903W        W97444   0.079  44.678   1.289
30904W        W97445  14.776  14.623  10.592
30905W        W97446  35.106   6.766   0.519
30906W        W97447  11.168  20.604   3.590
30907W        W97448  43.281  23.770   5.103
30908W        W97449  37.874   5.829   4.525
30909W        W97450  23.507  37.660   3.070
30910W        W97451  30.102  17.478   3.318
30911W        W97452  33.277  43.451  10.720
30912W        W97453  17.538  35.010   1.718
30913W        W97454  15.390   0.754   0.383
30914W        W97455  31.146  30.567  13.704
30915W        W97456   3.990  41.323  10.210
30916W        W97457  33.125  39.883   0.490
30917W        W97458  22.268   6.690  11.948
30918W        W97459   5.234  31.859  14.989
30919W        W97460  21.113  39.895  13.560
30920W        W97461   7.274  20.774  14.699
30921W        W97462   5.720  41.200  12.004
30922W        W97463  14.110  20.529   1.437
30923W        W97464  40.964   4.417  10.753
30924W        W97465  15.709   8.128  12.969
30925W        W97466  24.766   2.795  11.104
30926W        W97467  20.420  41.383  13.048
30927W        W97468  32.899  29.629  13.361
30928W        W97469  22.499   1.186   3.603
30929W        W97470  14.362  24.539   4.805
30930W        W97471  21.813   5.979   3.158
30931W        W97472  40.883  44.713   1.304
30932W        W97473  39.720  12.483   4.077
30933W        W97474  14.439  10.669  11.916
30934W        W97475  20.346  18.422  12.851
30935W        W97476  29.100  17.218   3.738
30936W        W97477  24.726  29.566  10.910
30937W        W97478  10.227  23.538  10.185
30938W        W97479  36.959   9.313  14.599
30939W        W97480   6.303  27.913   0.916
30940W        W97481  44.971  14.576  10.723
30941W        W97482  22.301  17.686  14.510
30942W        W97483  16.882  44.909  13.138
30943W        W97484   3.270  22.102   0.729
30944W        W97485  18.718  22.352  14.111
30945W        W97486  23.549   6.919   0.699
30946W        W97487  26.421  20.286  14.303
30947W        W97488  41.723  41.448   0.417
30948W        W97489   2.524   3.437  13.566
30949W        W97490  44.902  17.622   0.956
30950W        W97491  21.147  37.843  11.143
30951W        W97492  38.986  41.795   2.451
30952W        W97493  42.218  43.420   1.751
30953W        W97494  36.416   6.385   2.975
30954W        W97495  31.737   6.883  13.608
30955W        W97496  20.182  39.354  11.571
30956W        W97497  11.802  44.678   2.629
30957W        W97498  24.571  16.496  12.658
30958W        W97499  30.652  34.467  12.549
30959W        W97500   4.798  29.649  12.628
30960W        W97501  20.735  10.484   2.471
30961W        W97502  26.731  15.677  12.481
30962W        W97503  14.957  22.515  14.421
30963W        W97504  28.472  43.854  11.617
30964W        W97505  32.674   6.570   3.484
30965W        W97506  32.026  21.395   0.221
30966W        W97507  20.457   6.467  10.590
30967W        W97508  19.510  41.858  14.359
30968W        W97509  27.014  43.318  14.396
30969W        W97510  24.230  16.160  10.764
30970W        W97511   3.549   1.701   2.645
30971W        W97512  36.398   6.158   4.329
30972W        W97513  29.433   7.121  10.685
30973W        W97514  18.725  16.614  13.112
30974W        W97515   1.199  25.273   1.375
30975W        W97516   0.676  21.154   2.254
30976W        W97517  10.935  40.007   3.584
30977W        W97518  22.258  44.050  14.409
30978W        W97519  35.095   0.729   0.467
30979W        W97520  13.705   5.938  11.621
30980W        W97521  33.741   1.099   9.834
30981W        W97522  37.283  28.676   4.163
30982W        W97523   5.596  23.769  14.462
30983W        W97524  23.025  28.576  13.542
30984W        W97525  37.044  16.643   2.600
30985W        W97526  20.785   1.003  10.652
30986W        W97527  32.982  36.908  13.974
30987W        W97528   4.428  40.782   1.361
30988W        W97529  11.836  13.214  11.678
30989W        W97530  14.107  23.055   1.677
30990W        W97531  44.447  44.056   2.846
30991W        W97532  26.615  31.602   3.671
30992W        W97533  29.681  29.647   0.705
30993W        W97534  25.464  38.980   1.038
30994W        W97535  27.161   2.234  10.733
30995W        W97536  35.572   5.743  11.976
30996W        W97537  11.335  38.523  10.585
30997W        W97538  30.400  13.330  14.980
30998W        W97539  43.930  20.501  12.603
30999W        W97540  41.585  32.635   1.420
31000W        W97541  32.432   5.283  14.478
31001W        W97542  17.506  34.039   2.835
31002W        W97543  24.955  40.262   4.075
31003W        W97544  13.375   3.883   1.443
31004W        W97545  17.092  14.082   1.911
31005W        W97546  41.569  42.469  11.430
31006W        W97547  40.247   7.259  14.319
31007W        W97548  36.553  31.639  13.973
31008W        W97549  19.091  18.611  13.931
31009W        W97550   0.707  11.222  14.091
31010W        W97551   5.282  37.074  13.005
31011W        W97552  21.699   1.029   2.353
31012W        W97553  35.380  21.531   1.341
31013W        W97554  31.474   2.528   0.924
31014W        W97555  19.382  14.439   1.928
31015W        W97556  13.866   3.289   3.808
31016W        W97557  16.264  22.712  13.435
31017W        W97558  23.865  26.356   0.239
31018W        W97559  25.122  28.003   1.494
31019W        W97560  20.974  19.826   3.227
31020W        W97561  34.832  30.517  13.803
31021W        W97562  33.804  10.911   1.795
31022W        W97563   4.394  33.498  10.931
31023W        W97564   7.594  37.891  11.682
31024W        W97565  36.091  20.538   0.504
31025W        W97566  20.810  14.298   3.235
31026W        W97567  38.260  15.273   0.406
31027W        W97568  11.767  32.405  12.154
31028W        W97569  29.117  27.827  11.478
31029W        W97570   6.950  32.205   0.702
31030W        W97571  14.645  14.522  12.371
31031W        W97572  26.761   1.435   4.489
31032W        W97573  43.850   8.443  12.631
31033W        W97574  18.190  41.495   2.673
31034W        W97575  14.006  10.803  13.339
31035W        W97576  25.891  20.008   2.811
31036W        W97577   4.740  42.088   4.115
31037W        W97578  25.141  30.643   1.596
31038W        W97579  16.774  44.479   2.360
31039W        W97580  43.751  27.265  13.090
31040W        W97581  25.956   5.291  14.829
31041W        W97582  32.778  11.110  13.849
31042W        W97583  34.634  38.465   3.080
31043W        W97584  18.303   9.837   2.108
31044W        W97585  38.369  35.093   1.817
31045W        W97586   7.605  42.448   2.293
31046W        W97587  13.133  31.503   2.616
31047W        W97588   2.729  10.256   4.926
31048W        W97589  26.054  42.026  11.172
31049W        W97590   4.100   0.050   3.806
31050W        W97591  36.953  12.663  12.303
31051W        W97592   6.599  18.529   1.495
31052W        W97593  22.548  29.011   4.734
31053W        W97594  21.914  26.195  10.608
31054W        W97595  13.706  26.536   1.927
31055W        W97596   6.662  34.142   4.773
31056W        W97597  25.524  27.667   0.379
31057W        W97598   5.585  22.049   3.206
31058W        W97599  42.989  36.220  10.755
31059W        W97600   9.021  10.319  13.010
31060W        W97601  42.793  21.167   3.276
31061W        W97602  40.351  10.844  14.757
31062W        W97603   9.142  31.130   3.695
31063W        W97604   4.828  40.906   2.839
31064W        W97605  33.763  34.887  12.780
31065W        W97606   3.448  23.340   0.042
31066W        W97607  22.708   6.214   2.355
31067W        W97608  43.483  31.624   0.332
31068W        W97609  41.529  43.773   3.512
31069W        W97610  36.114  41.916   2.101
31070W        W97611  15.205  22.516   3.065
31071W        W97612  22.964  23.141  14.900
31072W        W97613  31.039  37.092  11.614
31073W        W97614  38.875  43.036   2.746
31074W        W97615  38.686   9.139  11.614
31075W        W97616  38.168  42.831   0.870
31076W        W97617  27.361  37.425  11.243
31077W        W97618  26.526  15.743   1.681
31078W        W97619  30.596  12.118  12.130
31079W        W97620  13.523  14.759  12.448
31080W        W97621  28.928  26.648   4.571
31081W        W97622   4.976  25.041  14.906
31082W        W97623  26.703   5.282  11.575
31083W        W97624  32.459  15.646  12.902
31084W        W97625   8.369  27.916   2.763
31085W        W97626  22.880  32.922   4.953
31086W        W97627   0.547  41.758  14.414
31087W        W97628  21.315  12.608  10.018
31088W        W97629  30.667  39.675  12.435
31089W        W97630   1.034  22.874   4.193
31090W        W97631  38.712  22.119   0.990
31091W        W97632   1.544  25.965   1.825
31092W        W97633  15.752  29.559  11.566
31093W        W97634  26.178  15.151   4.656
31094W        W97635  17.359   2.279  13.567
31095W        W97636  39.907  43.315  14.413
31096W        W97637  10.370  30.991  11.709
31097W        W97638  21.671  39.035   2.202
31098W        W97639   2.750  11.582   3.148
31099W        W97640   6.440  33.177   2.340
31100W        W97641  21.633  40.550   3.971
31101W        W97642  34.075   8.699   3.146
31102W        W97643   2.056  34.103  12.507
31103W        W97644  39.282  28.305  12.412
31104W        W97645  30.081  34.335   0.216
31105W        W97646   3.441  17.238  12.096
31106W        W97647  15.347  35.172  14.061
31107W        W97648  40.057  33.620  12.268
31108W        W97649  36.057  28.467  14.827
31109W        W97650  36.900  33.202   3.335
31110W        W97651  20.653  21.227  14.530
31111W        W97652  44.956  28.783   3.091
31112W        W97653  34.599  39.359  10.716
31113W        W97654  30.396  16.168  10.519
31114W        W97655  23.734  36.831  13.351
31115W        W97656  10.213  14.177   4.919
31116W        W97657   9.264  29.201  11.192
31117W        W97658   4.833  15.579  11.993
31118W        W97659  17.621  22.258  11.588
31119W        W97660   4.942  10.639   1.357
31120W        W97661  19.237  19.177   1.772
31121W        W97662  21.104   5.380   0.252
31122W        W97663  39.766   0.797   4.342
31123W        W97664  13.653  15.283  12.915
31124W        W97665  14.349  37.428   3.677
31125W        W97666  27.977  19.249   0.392
31126W        W97667  38.537  24.935  14.320
31127W        W97668   0.519  21.122   3.645
31128W        W97669  20.908   6.345   2.267
31129W        W97670  33.355  16.325  14.300
31130W        W97671  42.584  39.507   4.154
31131W        W97672  25.005  31.958  13.871
31132W        W97673   6.183  16.757   0.420
31133W        W97674  11.089  29.943  12.356
31134W        W97675  22.029  31.116   0.789
31135W        W97676   6.883   9.312  12.631
31136W        W97677  41.773  44.306   0.279
31137W        W97678  12.329  29.873  10.654
31138W        W97679   7.234  13.296  12.495
31139W        W97680  26.643  36.907  11.949
31140W        W97681   6.529   8.386   1.258
31141W        W97682  42.712  33.300   4.953
31142W        W97683  16.137  10.169   2.293
31143W        W97684   0.699   1.683  10.916
31144W        W97685   3.253  42.986   2.338
31145W        W97686  37.463   6.421   4.032
31146W        W97687  22.070  44.825   1.640
31147W        W97688  25.964  34.204  14.499
31148W        W97689  11.336  15.724   4.459
31149W        W97690  10.858   2.903   1.272
31150W        W97691   7.721  10.824   4.543
31151W        W97692  10.950  38.480  13.469
31152W        W97693  36.495   6.812  12.855
31153W        W97694   8.447  15.687  12.470
31154W        W97695  13.969  36.542  11.481
31155W        W97696  32.846  28.076   2.729
31156W        W97697  40.632  25.033  10.414
31157W        W97698  27.635  40.786   0.347
31158W        W97699   5.340   8.236  10.532
31159W        W97700  26.694  41.459  13.286
31160W        W97701  28.664  23.182   3.892
31161W        W97702   1.560   6.425  13.757
31162W        W97703   0.427  31.099  14.752
31163W        W97704  14.721  25.305  13.946
31164W        W97705   7.764  25.728  14.346
31165W        W97706   8.342  26.677   0.243
31166W        W97707  26.037  18.508   4.221
31167W        W97708   2.727  30.809   1.038
31168W        W97709  23.492   9.193  14.448
31169W        W97710  39.274  20.071  13.377
31170W        W97711  43.447  42.879  12.066
31171W        W97712  40.310  29.129   1.261
31172W        W97713   1.027  33.651   2.757
31173W        W97714   9.503  16.778   2.665
31174W        W97715   8.735  18.021  14.686
31175W        W97716  38.302  15.185  12.953
31176W        W97717  14.221   2.523  12.579
31177W        W97718  13.791  37.215   0.412
31178W        W97719   7.451  37.002   2.029
31179W        W97720  36.472  23.765   0.379
31180W        W97721   0.123   2.175  14.259
31181W        W97722  26.529  24.245   2.722
31182W        W97723  27.962  18.284   2.326
31183W        W97724  44.362  21.313   5.209
31184W        W97725  16.228  16.062  14.866
31185W        W97726  19.983  28.778   3.225
31186W        W97727  13.079  38.894   3.747
31187W        W97728  14.069  15.768  13.178
31188W        W97729  10.721  38.836  14.245
31189W        W97730  34.095  24.253   1.758
31190W        W97731   6.856   5.043   0.976
31191W        W97732   8.711  26.707   1.306
31192W        W97733  25.468  39.559  11.706
31193W        W97734  43.491   7.776   4.681
31194W        W97735  31.467  11.869  12.621
31195W        W97736  28.940  29.488  12.445
31196W        W97737  21.836  22.516   0.174
31197W        W97738   4.269  11.433  12.317
31198W        W97739  15.012  13.944   5.052
31199W        W97740  28.974   4.469  13.917
31200W        W97741  31.432  30.940  10.573
31201W        W97742   7.032  37.279  14.557
31202W        W97743  42.630  22.567   0.546
31203W        W97744  36.591  30.451   4.284
31204W        W97745  27.326   7.478   5.070
31205W        W97746  13.497  44.727  12.645
31206W        W97747  29.666  21.820  14.870
31207W        W97748   7.221   2.936  14.665
31208W        W97749  17.600  37.112  11.075
31209W        W97750  21.559  34.040  10.993
31210W        W97751  11.177  24.979   4.735
31211W        W97752  17.827  19.123   2.584
31212W        W97753   6.818   7.820  12.019
31213W        W97754  10.271  12.910  13.011
31214W        W97755   3.924  31.564   0.325
31215W        W97756  16.076  41.214   2.638
31216W        W97757  29.722  34.532  11.646
31217W        W97758  15.891  42.251  11.608
31218W        W97759  28.537   7.692   2.313
31219W        W97760  28.885  24.822   2.646
31220W        W97761   4.309  33.143   3.844
31221W        W97762  23.316  43.817   2.666
31222W        W97763  27.675  20.035  12.579
31223W        W97764  33.107  16.324   0.853
31224W        W97765   5.919   5.392   2.972
31225W        W97766  24.783  10.779  11.631
31226W        W97767  37.603  29.001   1.737
31227W        W97768   2.268   6.319   0.629
31228W        W97769   6.384  25.867   0.597
31229W        W97770  19.034   3.454  10.601
31230W        W97771  34.443  25.097   3.650
31231W        W97772  28.495  14.704   1.236
31232W        W97773   3.294  16.817  12.929
31233W        W97774  22.781  37.616   1.913
31234W        W97775   7.856  24.011  12.543
31235W        W97776  10.352  31.796   0.648
31236W        W97777  23.986   4.306  12.449
31237W        W97778   7.694  41.880   1.334
31238W        W97779   2.650  25.131   1.284
31239W        W97780  16.109  26.528  13.351
31240W        W97781  11.780   6.195  10.699
31241W        W97782   2.425  37.957  10.653
31242W        W97783  23.210  11.678  13.706
31243W        W97784   9.277  13.369  11.944
31244W        W97785  42.380  27.923   3.355
31245W        W97786  34.090  21.192   3.434
31246W        W97787  20.046  12.488   2.668
31247W        W97788  18.263  36.018   1.356
31248W        W97789  17.791  27.905  13.980
31249W        W97790   3.058  15.348  14.466
31250W        W97791  36.137  28.656   0.292
31251W        W97792  10.626  19.627  13.748
31252W        W97793  16.132  21.050  13.816
31253W        W97794  35.472  14.351   4.340
31254W        W97795  19.881  16.729   1.626
31255W        W97796  16.668  21.545  14.279
31256W        W97797   3.717  21.517   1.262
31257W        W97798  26.442  16.652  11.227
31258W        W97799   5.765  17.330  14.403
31259W        W97800  39.052  19.767  11.058
31260W        W97801  23.472  39.873   2.244
31261W        W97802  21.287   3.845   4.605
31262W        W97803  39.467  13.296  14.940
31263W        W97804   9.339  42.345   1.191
31264W        W97805   8.769   2.200  14.711
31265W        W97806  42.925   7.718   2.375
31266W        W97807  37.479  22.816   4.085
31267W        W97808  24.560  30.682  14.409
31268W        W97809  28.467  19.074   0.391
31269W        W97810  21.154  44.326   4.196
31270W        W97811   7.427  29.842   3.615
31271W        W97812  18.723  33.048  10.552
31272W        W97813  17.832  33.568  10.618
31273W        W97814  36.075  11.780  12.162
31274W        W97815  17.280  44.014   4.849
31275W        W97816  35.722  39.492   4.707
31276W        W97817  42.018  10.240  13.928
31277W        W97818  28.347  24.213   1.756
31278W        W97819  14.501  22.828   1.925
31279W        W97820  23.587  19.848  14.459
31280W        W97821  12.116  19.427  10.530
31281W        W97822  37.409  24.554   1.691
31282W        W97823  30.486  29.703  11.787
31283W        W97824  30.094  41.844  14.355
31284W        W97825  10.640  19.014  12.560
31285W        W97826  26.222  44.538  11.978
31286W        W97827  36.667  37.496  13.811
31287W        W97828  21.146  34.171   1.897
31288W        W97829   6.614   5.105   0.367
31289W        W97830   2.379  20.221   0.789
31290W        W97831  26.641   2.426  11.309
31291W        W97832  37.863  44.641  11.631
31292W        W97833  14.138  44.325   3.873
31293W        W97834  17.471  44.964   4.121
31294W        W97835  15.736   6.227   0.828
31295W        W97836   6.107  27.424   3.147
31296W        W97837  29.229  20.323   2.401
31297W        W97838  17.693   1.807  14.119
31298W        W97839   4.291  32.470   1.277
31299W        W97840  26.545  43.050   1.774
31300W        W97841   9.377   0.708   1.396
31301W        W97842  11.981  38.442  11.544
31302W        W97843  21.309  14.316   0.322
31303W        W97844  25.521  30.358  11.056
31304W        W97845   9.070  30.791  10.281
31305W        W97846  38.795   9.382  10.251
31306W        W97847  20.062  18.022   5.039
31307W        W97848  13.275  33.781  12.940
31308W        W97849   9.137  28.213   3.180
31309W        W97850   5.802  27.582   2.641
31310W        W97851   8.276  39.398  11.686
31311W        W97852   0.951  21.728  10.422
31312W        W97853   1.938   3.163  12.941
31313W        W97854  32.498  37.129  11.436
31314W        W97855  29.530  44.272   1.259
31315W        W97856  42.984  35.313   0.703
31316W        W97857   4.583  37.349  12.524
31317W        W97858  20.557  10.346  12.953
31318W        W97859  11.351   6.835   3.970
31319W        W97860  34.125   6.662   1.351
31320W        W97861  21.121   2.395   4.559
31321W        W97862  43.265  22.230  12.208
31322W        W97863  22.735  10.526   2.133
31323W        W97864  19.346   0.364  12.045
31324W        W97865  18.971  38.213  12.169
31325W        W97866  36.061  17.434  12.466
31326W        W97867  39.949  42.971   0.706
31327W        W97868  11.672  13.268   4.202
31328W        W97869  10.731  43.367   3.351
31329W        W97870  15.557   1.624  14.999
31330W        W97871  18.910  10.864   3.921
31331W        W97872  16.583  24.764   4.631
31332W        W97873  21.528  26.536   2.919
31333W        W97874  32.936  13.364  14.824
31334W        W97875   3.281  40.291   3.128
31335W        W97876  25.454  14.909   0.777
31336W        W97877  17.688  40.875   3.042
31337W        W97878  20.075  11.098   3.782
31338W        W97879  43.019  20.523   1.965
31339W        W97880  40.821  27.546  10.700
31340W        W97881  40.238  14.519   1.637
31341W        W97882  17.138  14.911   2.320
31342W        W97883  22.166  42.998   4.903
31343W        W97884  10.338   0.880  12.546
31344W        W97885  26.224  21.335  12.854
31345W        W97886  13.462  39.830   3.766
31346W        W97887  17.950  30.725   1.306
31347W        W97888  21.496   0.996  12.472
31348W        W97889  11.365  40.414   3.280
31349W        W97890  23.128   2.796  13.434
31350W        W97891  24.238  39.929   3.036
31351W        W97892  35.534  22.337  13.742
31352W        W97893   9.241  35.825   0.416
31353W        W97894  34.684  10.271  14.762
31354W        W97895  38.972   1.718   3.998
31355W        W97896  25.426  32.097  12.021
31356W        W97897  39.520  16.862   4.465
31357W        W97898   3.817   8.953   0.458
31358W        W97899  27.556  25.211   3.715
31359W        W97900  30.450  32.031  11.940
31360W        W97901  37.348   9.199   4.170
31361W        W97902   0.590  35.354  10.887
31362W        W97903  33.934  42.672   2.332
31363W        W97904  27.872  37.544  11.132
31364W        W97905  29.928  33.145   4.316
31365W        W97906  40.768  25.276   0.989
31366W        W97907  19.561  33.637   0.841
31367W        W97908  11.774  27.067  12.070
31368W        W97909   7.462   3.922  12.496
31369W        W97910  29.697  39.433  11.575
31370W        W97911  38.959   8.349  14.751
31371W        W97912   0.396  23.006  14.245
31372W        W97913  34.913  36.528   2.459
31373W        W97914  30.660  41.144  11.006
31374W        W97915  21.751  13.696   1.883
31375W        W97916   6.182  30.192   2.117
31376W        W97917   5.863   6.925  10.747
31377W        W97918   2.236  32.440   2.580
31378W        W97919  35.026  31.366   0.925
31379W        W97920  34.075  24.063   3.678
31380W        W97921  16.844  25.483   3.639
31381W        W97922  31.559   0.927  11.259
31382W        W97923  44.983  12.276   4.953
31383W        W97924  22.199  19.145   3.721
31384W        W97925  12.833  27.059  14.065
31385W        W97926  25.699   3.395   4.058
31386W        W97927  30.081  44.995   0.827
31387W        W97928  44.000   3.684  10.323
31388W        W97929  34.755  28.968  14.936
31389W        W97930  19.569  26.991   0.771
31390W        W97931  26.738  41.705   3.248
31391W        W97932  44.238  31.092   2.336
31392W        W97933  12.375  42.710   4.228
31393W        W97934  34.128  20.127  13.059
31394W        W97935  34.612   5.922  13.521
31395W        W97936  36.634  34.043   3.483
31396W        W97937  21.578  15.212  11.021
31397W        W97938   4.687  30.156  10.589
31398W        W97939  26.605  32.110  14.497
31399W        W97940  29.839  13.930   2.575
31400W        W97941   6.172  34.224  10.094
31401W        W97942  26.947  27.701  11.354
31402W        W97943   4.278  36.786  14.521
31403W        W97944   9.438  44.885   4.586
31404W        W97945   1.930  44.683   0.587
31405W        W97946  23.788  40.821  13.073
31406W        W97947  17.879  28.419   1.885
31407W        W97948  33.928  21.714  14.295
31408W        W97949  36.862  16.643   4.503
31409W        W97950  33.793  27.935   2.746
31410W        W97951  23.051  41.881   4.166
31411W        W97952   7.097   3.153   5.015
31412W        W97953   0.984  18.174   3.304
31413W        W97954  11.058  41.804  12.573
31414W        W97955  12.891  36.934   0.381
31415W        W97956  16.777   3.228   3.138
31416W        W97957  37.591  19.641   1.369
31417W        W97958  22.204  41.944   1.907
31418W        W97959  42.731   2.270   3.185
31419W        W97960  33.451  37.631  13.008
31420W        W97961  27.508  29.543  10.856
31421W        W97962  28.759  18.488  14.568
31422W        W97963  18.499  10.620  12.002
31423W        W97964  32.021  29.587   0.753
31424W        W97965  12.756  25.581  14.400
31425W        W97966   7.789  28.060  14.630
31426W        W97967  18.769  22.430  13.171
31427W        W97968  34.012  15.144  14.746
31428W        W97969   2.196  42.584   3.597
31429W        W97970  13.126   5.931  10.555
31430W        W97971  13.919  34.164   2.726
31431W        W97972   1.156  43.485   4.229
31432W        W97973  12.631  25.786  11.631
31433W        W97974   7.671   7.547  14.402
31434W        W97975  14.653  35.353  13.251
31435W        W97976  35.328  18.971  13.412
31436W        W97977  39.456   9.090  14.831
31437W        W97978   0.146   2.006   2.382
31438W        W97979  32.686   7.123   3.569
31439W        W97980  43.073  11.180   1.838
31440W        W97981   6.189   4.970  12.823
31441W        W97982  33.237  39.944   2.865
31442W        W97983   7.036  24.668  11.129
31443W        W97984   9.299  34.589   2.611
31444W        W97985  36.644  32.915  13.532
31445W        W97986   2.237   6.562  12.703
31446W        W97987  36.900  10.665  11.661
31447W        W97988  39.590   2.553  13.488
31448W        W97989  28.323  36.115  13.394
31449W        W97990  44.277  15.399   3.503
31450W        W97991  14.345   3.496   1.373
31451W        W97992  10.297  41.530  14.369
31452W        W97993  32.187  34.891   3.623
31453W        W97994   5.869  35.049   3.181
31454W        W97995  44.215  31.679  12.508
31455W        W97996  17.255  25.495   3.223
31456W        W97997   2.787  37.231  10.413
31457W        W97998  36.362  13.051   3.223
31458W        W97999  40.952  12.360  13.418
31459W        W98000   0.643  34.468   4.339
31460W        W98001  10.581  15.576  10.616
31461W        W98002  14.368  43.993  12.595
31462W        W98003  16.640   6.141   1.464
31463W        W98004  11.535   3.276   4.106
31464W        W98005  22.146   7.782  12.749
31465W        W98006   8.711  13.733   1.872
31466W        W98007   1.348  36.145   4.919
31467W        W98008  43.842  24.239   3.288
31468W        W98009   3.177   5.117  14.639
31469W        W98010   9.932  16.445  11.747
31470W        W98011  31.586  21.034   2.576
31471W        W98012  29.689  42.935   3.022
31472W        W98013   6.823  17.000  13.454
31473W        W98014  39.705   0.773   4.877
31474W        W98015  38.247   9.856   3.765
31475W        W98016  40.066  26.859   4.212
31476W        W98017  29.013  35.481   0.387
31477W        W98018  29.671   4.623  13.481
31478W        W98019  27.861  12.662  12.344
31479W        W98020  18.162  12.387  13.278
31480W        W98021  14.280   7.755  12.899
31481W        W98022  29.528  37.562   3.709
31482W        W98023   3.277   6.373   3.336
31483W        W98024   8.458  10.325   3.572
31484W        W98025  33.949  40.525  13.050
31485W        W98026  19.217   0.804  12.327
31486W        W98027  42.749  29.195  14.401
31487W        W98028  20.234  10.135  13.298
31488W        W98029  13.188  27.948   4.746
31489W        W98030  14.539  42.852   1.088
31490W        W98031  36.352   9.669   3.727
31491W        W98032  19.970  38.800   2.742
31492W        W98033  28.114  33.459   2.394
31493W        W98034  26.144  34.721   3.916
31494W        W98035  29.001  10.509   3.349
31495W        W98036  10.434  43.001   3.703
31496W        W98037  16.540  42.001  14.315
31497W        W98038  35.529  19.815  13.773
31498W        W98039  37.183   2.920  10.263
31499W        W98040  41.406   5.804  12.347
31500W        W98041  19.649  11.919  12.420
31501W        W98042  22.449   2.905   2.284
31502W        W98043  12.274  22.649  13.108
31503W        W98044   1.799   0.402  11.884
31504W        W98045   6.291  36.879  10.503
31505W        W98046  42.981  17.457  12.749
31506W        W98047  10.382  35.124  12.593
31507W        W98048  26.034  28.290   2.266
31508W        W98049  20.048  44.355   2.764
31509W        W98050  36.423  28.885  13.413
31510W        W98051  24.173  23.001   4.310
31511W        W98052  25.652  22.115  11.835
31512W        W98053   6.853  39.840  14.932
31513W        W98054   4.997  23.195   1.389
31514W        W98055  26.900   5.718   4.644
31515W        W98056  20.913  14.146  14.057
31516W        W98057   5.859  38.931  11.830
31517W        W98058  17.834   9.226  11.569
31518W        W98059  36.067   5.943   0.747
31519W        W98060  43.246   4.634   1.238
31520W        W98061  33.966  41.418   0.799
31521W        W98062  29.636  12.683   2.865
31522W        W98063  24.016  26.158  13.424
31523W        W98064  38.825  33.488  13.956
31524W        W98065   3.533   2.803  14.818
31525W        W98066  30.919  26.368  12.442
31526W        W98067  38.509  27.781  11.639
31527W        W98068  44.053  37.459  13.079
31528W        W98069   1.997  26.732   0.019
31529W        W98070  38.028  34.042  14.790
31530W        W98071  41.596  39.065   1.283
31531W        W98072  19.846  34.918  13.938
31532W        W98073  28.406  26.102   3.373
31533W        W98074   6.981   0.938  10.772
31534W        W98075  40.727  11.350   4.186
31535W        W98076  26.552  21.028  14.922
31536W        W98077  39.541  33.458   2.279
31537W        W98078  15.067  38.435   1.747
31538W        W98079  22.528  13.622  12.865
31539W        W98080  34.890  37.607  14.491
31540W        W98081   4.133  32.666  13.566
31541W        W98082  36.946   2.504   0.381
31542W        W98083   7.679   8.602  12.826
31543W        W98084  28.956  15.571   3.235
31544W        W98085  17.367  19.270   3.328
31545W        W98086  19.089  35.650   1.425
31546W        W98087  28.512  28.972   2.918
31547W        W98088   4.453   4.809   4.542
31548W        W98089  22.515  35.159  14.949
31549W        W98090  38.370   7.631   0.959
31550W        W98091  14.118  14.021  13.498
31551W        W98092  22.115  34.859   0.705
31552W        W98093  40.382  43.775   0.701
31553W        W98094  29.567  37.318  10.402
31554W        W98095   9.777  31.870   3.679
31555W        W98096  41.385  26.923  12.042
31556W        W98097  42.798  16.881  11.576
31557W        W98098   6.729  33.976   2.276
31558W        W98099  22.520  35.431  12.650
31559W        W98100   6.417  24.396   5.298
31560W        W98101  17.610  30.693   2.043
31561W        W98102  19.513   6.759  13.154
31562W        W98103   3.879   7.487   0.974
31563W        W98104   6.889  25.077  10.169
31564W        W98105  31.687  22.757  11.583
31565W        W98106  13.114   1.713   2.699
31566W        W98107  16.362  41.001   3.043
31567W        W98108  17.850  32.091   3.361
31568W        W98109   0.390  35.982   3.028
31569W        W98110  28.527  35.202  10.781
31570W        W98111  42.915  41.725  11.491
31571W        W98112  31.851  32.632  11.178
31572W        W98113   5.864  15.738   4.182
31573W        W98114  20.580  34.545   0.882
31574W        W98115   5.744  12.563  11.042
31575W        W98116  14.516  23.510   4.528
31576W        W98117  36.876  13.126   1.846
31577W        W98118  12.522  15.406  12.882
31578W        W98119  11.306  13.751   3.281
31579W        W98120   9.264  28.660  13.656
31580W        W98121  21.420  44.124  14.098
31581W        W98122  21.522  23.080  14.393
31582W        W98123  41.748  39.443   2.831
31583W        W98124  19.701  19.545   4.928
31584W        W98125   1.436  31.113  13.425
31585W        W98126   8.588  34.973   3.924
31586W        W98127  34.648  39.085  11.165
31587W        W98128   5.270  42.831   0.406
31588W        W98129   7.391  21.135  10.434
31589W        W98130  36.595  18.577  14.285
31590W        W98131   8.724  37.897   0.868
31591W        W98132   3.780  22.467   4.126
31592W        W98133  24.433  28.034  12.081
31593W        W98134  37.599   2.336   2.263
31594W        W98135  39.390   9.876   4.511
31595W        W98136  13.129   8.899   1.245
31596W        W98137   8.719  42.427  12.936
31597W        W98138   4.967   3.343  13.034
31598W        W98139  26.630   2.414  12.326
31599W        W98140  19.616  38.645   0.487
31600W        W98141  26.038  23.220   1.229
31601W        W98142  23.587  15.317  14.701
31602W        W98143  26.428  21.433  11.193
31603W        W98144  29.671   0.878   3.151
31604W        W98145  41.978  18.163   1.467
31605W        W98146  29.829  39.893   4.755
31606W        W98147  35.487  36.355   4.471
31607W        W98148  43.801  20.179  11.622
31608W        W98149   5.339   3.770  11.683
31609W        W98150  30.638   6.311  14.082
31610W        W98151  44.588  13.198  14.925
31611W        W98152   0.224  36.051  14.347
31612W        W98153  42.732  15.079  12.897
31613W        W98154  38.034  37.617  14.919
31614W        W98155  24.442  20.286  13.379
31615W        W98156  36.051   1.812  12.869
31616W        W98157  38.332  40.772  12.406
31617W        W98158  21.710  28.128  13.353
31618W        W98159  37.369  36.508   4.398
31619W        W98160  30.930  12.227   4.431
31620W        W98161  35.598  38.339  14.238
31621W        W98162  17.809  42.293   2.351
31622W        W98163  40.295  19.854  12.934
31623W        W98164   8.939  21.165   4.513
31624W        W98165   4.999   4.923   4.509
31625W        W98166  21.646  27.697   0.875
31626W        W98167   3.449  29.025   0.294
31627W        W98168  30.045   1.714   1.373
31628W        W98169  43.955  36.175   2.752
31629W        W98170  19.503  11.052   2.748
31630W        W98171   5.216  43.848   1.862
31631W        W98172  28.206   6.194   1.353
31632W        W98173   1.303  41.518   3.262
31633W        W98174  11.647  29.077  13.844
31634W        W98175  41.007   6.821  14.497
31635W        W98176   6.162  33.815  10.643
31636W        W98177  40.805  26.588  12.882
31637W        W98178  26.589  15.228   1.266
31638W        W98179  25.655  39.278  13.579
31639W        W98180  26.670   7.277  11.969
31640W        W98181  11.735  17.102   2.762
31641W        W98182   1.688  12.837   1.882
31642W        W98183   9.822  36.827  11.650
31643W        W98184  17.784  34.136   3.802
31644W        W98185  24.270   8.343  14.020
31645W        W98186   1.277  42.051  14.813
31646W        W98187   7.676  16.714   0.701
31647W        W98188  11.052  13.971   2.367
31648W        W98189  16.742  11.152  12.356
31649W        W98190   8.468  22.567  14.311
31650W        W98191  10.536  28.467   1.344
31651W        W98192  25.417  28.894   1.863
31652W        W98193  43.692  15.448   9.778
31653W        W98194   3.298   7.860   2.219
31654W        W98195  25.716  21.368   4.345
31655W        W98196   6.636  16.625  13.835
31656W        W98197  21.666  40.531   0.466
31657W        W98198  26.696   1.786   0.328
31658W        W98199  30.823  17.097  14.303
31659W        W98200  38.610  40.807  10.066
31660W        W98201  28.437  20.708   0.958
31661W        W98202  42.589  34.452   2.047
31662W        W98203  34.104  15.979  12.999
31663W        W98204  41.208  25.820  12.491
31664W        W98205  30.440  11.474  10.261
31665W        W98206  36.632   4.675   0.456
31666W        W98207  22.213  40.261  11.582
31667W        W98208  29.576  30.939  13.822
31668W        W98209  37.371  40.238   2.638
31669W        W98210  30.640  41.457   1.866
31670W        W98211  16.929  19.749  11.206
31671W        W98212  37.742   1.855   4.608
31672W        W98213  14.127  34.225  12.506
31673W        W98214   7.216  44.851   3.148
31674W        W98215  36.167  11.949   3.657
31675W        W98216  29.924  29.206   0.600
31676W        W98217  36.656   2.325   5.030
31677W        W98218  36.601   1.554   4.087
31678W        W98219   2.482  27.659  12.530
31679W        W98220  10.536  21.889   0.337
31680W        W98221  13.308  16.595   2.674
31681W        W98222   9.367  36.140  11.204
31682W        W98223  23.778   2.716   3.703
31683W        W98224   5.903   3.776  13.421
31684W        W98225  29.084  33.424   1.345
31685W        W98226  32.414  26.120  12.897
31686W        W98227  41.798  26.094   3.898
31687W        W98228  22.145  26.718   0.180
31688W        W98229  40.957   4.440  11.645
31689W        W98230   1.284   7.261  11.279
31690W        W98231  37.054  16.580  11.571
31691W        W98232   7.220  24.550   3.187
31692W        W98233  33.865   6.223   1.230
31693W        W98234  27.719  28.234  12.354
31694W        W98235  11.835  17.170   1.785
31695W        W98236  38.247   9.600   0.420
31696W        W98237   4.690  18.118   0.836
31697W        W98238  35.538   8.796   5.170
31698W        W98239  30.240  37.782   2.789
31699W        W98240  19.481  39.569  13.067
31700W        W98241  18.700  23.551   9.687
31701W        W98242  30.478  27.167   1.928
31702W        W98243  31.341  18.982   1.195
31703W        W98244  16.175   9.647   4.405
31704W        W98245   7.704  41.481  14.709
31705W        W98246  31.020   4.322  11.539
31706W        W98247  16.535  43.327  10.668
31707W        W98248  44.199  21.160  11.476
31708W        W98249  23.245  16.107  11.031
31709W        W98250  25.018  23.694   0.629
31710W        W98251  36.065   7.256   2.161
31711W        W98252  21.253  39.008  10.809
31712W        W98253  37.684  30.827   3.656
31713W        W98254  34.864   9.882   1.841
31714W        W98255  39.052  10.182  14.245
31715W        W98256  13.829  14.690  12.854
31716W        W98257  36.855  41.976   0.976
31717W        W98258   3.179   9.642  13.414
31718W        W98259  37.699  29.168   0.394
31719W        W98260  27.143   0.720   4.157
31720W        W98261  34.866   9.274   2.324
31721W        W98262  19.155  41.065  10.659
31722W        W98263  20.688  37.491  10.415
31723W        W98264  25.511  25.202  14.679
31724W        W98265  37.156   6.861   2.029
31725W        W98266  19.051   5.404  12.559
31726W        W98267  10.955   6.955  12.096
31727W        W98268  20.089   2.928  13.776
31728W        W98269  16.201  34.815   5.744
31729W        W98270  37.180   4.831  13.544
31730W        W98271  40.283  29.893   4.229
31731W        W98272  13.308  15.726   1.701
31732W        W98273  27.455  43.738   0.205
31733W        W98274  38.815  22.876  11.563
31734W        W98275  25.018  14.851   4.206
31735W        W98276  30.363  26.134  11.303
31736W        W98277  23.530  14.983  11.095
31737W        W98278  38.099  17.623   1.538
31738W        W98279   5.541  17.129   1.473
31739W        W98280   3.832  16.520  10.887
31740W        W98281  34.911   3.021  11.700
31741W        W98282  36.510  36.946  14.361
31742W        W98283   3.264  28.068  12.148
31743W        W98284   4.843  37.923  12.064
31744W        W98285  16.595  20.201  13.785
31745W        W98286   5.268  29.429  12.534
31746W        W98287  17.114  15.358  14.289
31747W        W98288  17.253  43.049  11.626
31748W        W98289  38.385  29.611   2.397
31749W        W98290  40.899  16.851   0.390
31750W        W98291  38.374   7.695  13.828
31751W        W98292  28.116  33.389  14.968
31752W        W98293  36.044   0.773  12.850
31753W        W98294  16.044  20.882  10.548
31754W        W98295  25.581  24.968  11.608
31755W        W98296  22.475  19.586   3.586
31756W        W98297   8.832  29.571   0.494
31757W        W98298   9.284  32.684  14.730
31758W        W98299  15.224   3.352  11.060
31759W        W98300  19.907  21.169  11.390
31760W        W98301  33.428  26.010  12.180
31761W        W98302   6.868   2.752   0.558
31762W        W98303   8.631  37.274   3.240
31763W        W98304  36.247  24.502  13.929
31764W        W98305  33.470  23.116  14.793
31765W        W98306  20.306  30.596   4.262
31766W        W98307  21.693  37.490  13.990
31767W        W98308  31.008  24.258  12.015
31768W        W98309  26.110  16.084   2.828
31769W        W98310  13.565  12.353  13.040
31770W        W98311  16.694  40.980   3.882
31771W        W98312  38.501   8.068   1.231
31772W        W98313  27.456   1.195  10.781
31773W        W98314  11.833  40.498  11.114
31774W        W98315  29.563  31.778   4.507
31775W        W98316   5.368   3.529   4.316
31776W        W98317  32.663  27.985   1.695
31777W        W98318   8.328   9.677  14.497
31778W        W98319  35.527  39.400  11.611
31779W        W98320  18.005  19.105  14.522
31780W        W98321   8.893  35.014   4.358
31781W        W98322  26.048  38.524  13.436
31782W        W98323  40.413   9.858  11.496
31783W        W98324  32.050  32.408  10.743
31784W        W98325  21.139  34.035   2.785
31785W        W98326   7.402   5.172   1.879
31786W        W98327  26.395  30.343   0.111
31787W        W98328  25.057  41.693   0.821
31788W        W98329  15.728  13.613  12.941
31789W        W98330  20.730   0.718   0.826
31790W        W98331  33.994  10.559   0.852
31791W        W98332  43.875  25.994   4.316
31792W        W98333   8.152   0.852   4.771
31793W        W98334   0.949   5.207  12.063
31794W        W98335  20.644  42.902   0.978
31795W        W98336  16.826  39.905   3.372
31796W        W98337  27.591  37.811   1.355
31797W        W98338   2.567  17.148   4.044
31798W        W98339   2.200   5.353   3.198
31799W        W98340   6.736  40.440   3.581
31800W        W98341  19.524  43.268   4.929
31801W        W98342  29.105  19.710  14.375
31802W        W98343  39.753  21.695  13.463
31803W        W98344  27.187  34.640  13.428
31804W        W98345  39.799  35.935  13.510
31805W        W98346   4.013  42.549   3.697
31806W        W98347  27.113  26.939  12.609
31807W        W98348  26.906  32.185   4.581
31808W        W98349  34.145  34.684  12.478
31809W        W98350   3.839  30.570  13.928
31810W        W98351   1.850  37.652   2.815
31811W        W98352   0.767  23.088   2.267
31812W        W98353  24.202  12.048  11.266
31813W        W98354  39.532  38.447  11.098
31814W        W98355  17.306  42.316   3.305
31815W        W98356  44.300   5.844  10.981
31816W        W98357  10.848  17.409  11.851
31817W        W98358  37.549  39.549   4.304
31818W        W98359  40.288  11.517  12.710
31819W        W98360  10.755   3.117  14.467
31820W        W98361  43.027  31.099   3.540
31821W        W98362  24.483  41.645  11.645
31822W        W98363  40.736  30.146   1.882
31823W        W98364   5.699  41.953  11.518
31824W        W98365  39.998  20.225  11.728
31825W        W98366  38.333  40.838  13.293
31826W        W98367  37.558  41.781   2.965
31827W        W98368  33.040  33.622   2.676
31828W        W98369  42.318  38.964  14.374
31829W        W98370  20.624  25.727  14.437
31830W        W98371  31.390  13.676  11.785
31831W        W98372  41.670   6.983   1.795
31832W        W98373  32.186  35.948   0.972
31833W        W98374  22.109  23.083  13.537
31834W        W98375  22.083  42.094   2.758
31835W        W98376  28.540  18.847  12.124
31836W        W98377  41.625  42.487   1.205
31837W        W98378  12.628  22.509  14.888
31838W        W98379  29.446  31.155   0.853
31839W        W98380  27.667  12.554  13.594
31840W        W98381  36.340  30.654  12.537
31841W        W98382  20.547  32.033   4.011
31842W        W98383   0.844  43.547   2.664
31843W        W98384  20.266   9.144   1.387
31844W        W98385  25.525  32.448  13.289
31845W        W98386  34.155  12.180   9.539
31846W        W98387  39.361  21.616   2.396
31847W        W98388  18.042  20.638   3.839
31848W        W98389  31.895  35.588   1.296
31849W        W98390  42.198  25.990  11.173
31850W        W98391   9.850  28.495   2.744
31851W        W98392  10.458  13.790   3.671
31852W        W98393  34.282  36.853   4.171
31853W        W98394  20.723   9.417  11.132
31854W        W98395  41.553  28.230   3.155
31855W        W98396  40.964  17.966   2.904
31856W        W98397  30.381   2.007  13.041
31857W        W98398  19.883   5.181   9.802
31858W        W98399  43.283   2.864   3.228
31859W        W98400   0.492  38.072   1.963
31860W        W98401   9.716  37.468   4.626
31861W        W98402  29.727  20.603   4.989
31862W        W98403  14.237   1.693   2.892
31863W        W98404  26.596  13.154  10.414
31864W        W98405   0.959  18.526   2.648
31865W        W98406  40.082  30.831   4.877
31866W        W98407  18.425  38.593   1.869
31867W        W98408   3.762   5.288   1.700
31868W        W98409   9.448   2.314  12.122
31869W        W98410  43.509  40.833  11.647
31870W        W98411   6.130  34.848   2.729
31871W        W98412  34.554  14.274  14.593
31872W        W98413  10.255  15.038   1.801
31873W        W98414  37.931  43.414   4.342
31874W        W98415  33.514   8.238  13.527
31875W        W98416  30.978  24.734  11.290
31876W        W98417  34.914  10.101  12.175
31877W        W98418  35.117  20.217   3.968
31878W        W98419  21.558  34.341   0.935
31879W        W98420   9.374  17.788  13.399
31880W        W98421  31.591  26.163   3.873
31881W        W98422  21.099  32.916   0.390
31882W        W98423  11.627   1.815   0.377
31883W        W98424   0.830  10.364  11.661
31884W        W98425  34.372  15.611  11.491
31885W        W98426  27.081  10.883  13.833
31886W        W98427  14.767   5.780   3.275
31887W        W98428  32.787  21.081  10.038
31888W        W98429  13.902  22.632  11.158
31889W        W98430  11.289   1.354  14.375
31890W        W98431   8.980  43.005  11.544
31891W        W98432  27.029  17.195   4.389
31892W        W98433   6.889  31.242   4.234
31893W        W98434   3.380  11.402  12.148
31894W        W98435  44.585   7.880   4.794
31895W        W98436  14.808   3.721  10.587
31896W        W98437  36.076  28.544  13.995
31897W        W98438  31.944   1.607   3.532
31898W        W98439  21.275  29.164  10.480
31899W        W98440  33.474  34.392  10.379
31900W        W98441  23.564  17.073  11.761
31901W        W98442   4.201  40.897   0.437
31902W        W98443  30.161   3.394   2.327
31903W        W98444  28.951  37.066   3.899
31904W        W98445  17.867   6.123   0.218
31905W        W98446  18.252  41.884  12.875
31906W        W98447   7.732  23.133   0.006
31907W        W98448   2.482  12.725  13.839
31908W        W98449  31.482  17.186  10.155
31909W        W98450  38.757  13.782  14.840
31910W        W98451  38.583   6.663   0.699
31911W        W98452  37.868  40.530   1.912
31912W        W98453   5.735   8.044   1.735
31913W        W98454   5.785  21.440   2.358
31914W        W98455  15.209   1.991   0.748
31915W        W98456  37.331  20.994  14.576
31916W        W98457  21.555  19.576  14.982
31917W        W98458  34.076  38.482   1.243
31918W        W98459  26.355  35.332  13.366
31919W        W98460  16.883  39.023   2.639
31920W        W98461  10.073  31.203   2.831
31921W        W98462  24.970  28.124   2.476
31922W        W98463  16.783   9.871   0.665
31923W        W98464  19.790  22.737  11.191
31924W        W98465  20.810  37.371   3.383
31925W        W98466  28.092   8.283  10.525
31926W        W98467  40.360  22.396   9.749
31927W        W98468  26.435  30.705   3.181
31928W        W98469  12.186  31.976   3.670
31929W        W98470  40.370   5.446  13.036
31930W        W98471  10.403  37.017   4.590
31931W        W98472  18.591  34.389   3.503
31932W        W98473  35.446  39.021  14.014
31933W        W98474  29.473  36.882  13.879
31934W        W98475  20.793  14.516   2.282
31935W        W98476  24.677  16.583   3.123
31936W        W98477  38.557   5.680  11.678
31937W        W98478  24.438   0.633  14.973
31938W        W98479  20.031  26.600  10.805
31939W        W98480  10.393   2.764  14.581
31940W        W98481   6.726  32.555   2.866
31941W        W98482  20.473  23.696  13.591
31942W        W98483   0.262  16.673  12.548
31943W        W98484  36.553  30.530  14.854
31944W        W98485   9.789  11.336  13.423
31945W        W98486  38.177  20.520   3.344
31946W        W98487  22.500  30.143  10.979
31947W        W98488  42.514  27.637  12.436
31948W        W98489   9.371  34.561  12.432
31949W        W98490  11.062  40.366  10.180
31950W        W98491  42.539  38.456  12.920
31951W        W98492  37.409  41.047   0.448
31952W        W98493   9.802  44.683   0.813
31953W        W98494  35.943  32.469  12.534
31954W        W98495   2.347  37.155   0.686
31955W        W98496   5.796  11.360   1.366
31956W        W98497  34.199   9.032  11.832
31957W        W98498  44.269   9.899  14.843
31958W        W98499  38.582  38.590  10.671
31959W        W98500  17.223   8.190  14.828
31960W        W98501  30.228  26.593   2.006
31961W        W98502   6.630   3.461   1.815
31962W        W98503   2.258  37.434   2.559
31963W        W98504  30.098   2.448  12.934
31964W        W98505   6.760  39.072   3.286
31965W        W98506  43.979  31.099  11.130
31966W        W98507   7.031  19.695   3.722
31967W        W98508  27.654  13.362   0.755
31968W        W98509   8.601  11.690   1.091
31969W        W98510  11.076  34.421  10.843
31970W        W98511  33.672   9.703  13.092
31971W        W98512   7.672   2.891   1.386
31972W        W98513  21.685  14.636   3.851
31973W        W98514  21.993  15.761  12.992
31974W        W98515   6.577  30.440   4.609
31975W        W98516   7.920  20.595   1.229
31976W        W98517  19.641  29.549  12.033
31977W        W98518  41.172  16.376   9.872
31978W        W98519  22.171  21.539   4.413
31979W        W98520  18.798  23.446  14.878
31980W        W98521  26.014  25.527   2.745
31981W        W98522   4.473  11.240   3.054
31982W        W98523   1.943   9.762   0.388
31983W        W98524  27.298  21.149   4.872
31984W        W98525   8.941  42.264  10.446
31985W        W98526   4.243  18.026  12.449
31986W        W98527   5.280  35.982   2.405
31987W        W98528  36.453  43.525   1.215
31988W        W98529  21.193  10.745   1.489
31989W        W98530   3.706   6.213   4.927
31990W        W98531  12.561  17.129   0.618
31991W        W98532  33.490   7.918   4.962
31992W        W98533  14.991  43.914  14.310
31993W        W98534  12.273  35.877   3.197
31994W        W98535  24.992  26.219   0.936
31995W        W98536  27.011   4.793  10.702
31996W        W98537  39.454  20.125  12.391
31997W        W98538  27.522  23.721  13.457
31998W        W98539  35.066   9.413   4.563
31999W        W98540   5.144   0.800  14.690
32000W        W98541  24.579  41.977   2.412
32001W        W98542  43.014  44.351   4.075
32002W        W98543   5.149  17.003   4.098
32003W        W98544  40.252  12.363  13.022
32004W        W98545  10.593  17.111   4.595
32005W        W98546  16.791  29.529  13.754
32006W        W98547  19.658  27.298   3.241
32007W        W98548  20.155  22.761   2.027
32008W        W98549  26.794  38.970  11.412
32009W        W98550   4.013  43.648   4.709
32010W        W98551   2.050  12.153   3.254
32011W        W98552  29.501  22.912   1.897
32012W        W98553  26.695   5.108   1.982
32013W        W98554  42.950  22.116   1.241
32014W        W98555  37.508  36.548   2.411
32015W        W98556  44.757  13.207  10.618
32016W        W98557  22.185  11.695   2.764
32017W        W98558  21.529  26.910  10.566
32018W        W98559  22.664  38.808  11.592
32019W        W98560   6.341   9.261   3.657
32020W        W98561  33.636  33.105   3.203
32021W        W98562  25.670  20.199  13.932
32022W        W98563  16.810  27.286  14.363
32023W        W98564  24.736   2.468   1.403
32024W        W98565  30.091  43.375   0.981
32025W        W98566  26.709  22.126   3.628
32026W        W98567  26.958   1.760  10.739
32027W        W98568   9.702   1.322  10.728
32028W        W98569  14.637   1.561   3.413
32029W        W98570   7.375  29.706   0.656
32030W        W98571  33.861  28.869   3.719
32031W        W98572   5.328  27.783   0.694
32032W        W98573   7.254   1.503  12.113
32033W        W98574  24.210  24.801   2.269
32034W        W98575  29.870   4.832  12.037
32035W        W98576   8.760   0.721  11.172
32036W        W98577   4.855  12.132   0.380
32037W        W98578  22.137  13.867  12.635
32038W        W98579  44.093  13.771  13.964
32039W        W98580  35.964  38.931   0.770
32040W        W98581   9.842  13.080  10.651
32041W        W98582  41.557  41.762  13.617
32042W        W98583   1.269  31.027  13.922
32043W        W98584  41.866  19.338  13.453
32044W        W98585  21.239  29.695  10.471
32045W        W98586  28.909  14.762   3.284
32046W        W98587   9.764   4.789  13.468
32047W        W98588  30.587   6.742  10.488
32048W        W98589  44.351  38.039   4.104
32049W        W98590  31.539  28.597   0.240
32050W        W98591  23.693  27.263   4.232
32051W        W98592   2.290  14.167   4.478
32052W        W98593   0.304  28.374  11.178
32053W        W98594  40.777  23.834  14.511
32054W        W98595   3.252  40.062  11.973
32055W        W98596  31.915  13.163  14.811
32056W        W98597   9.709  12.648  10.381
32057W        W98598  41.396  35.965  13.017
32058W        W98599  17.767  41.876  12.653
32059W        W98600  39.610  44.030   2.302
32060W        W98601  32.077  25.333  10.265
32061W        W98602  10.734  14.370   2.381
32062W        W98603  41.320   7.953  13.965
32063W        W98604  43.704  26.906   2.717
32064W        W98605  34.691   7.797  11.601
32065W        W98606  37.856  21.663   3.356
32066W        W98607  31.577   5.077  10.026
32067W        W98608  42.444   3.874  10.921
32068W        W98609  17.134  14.815  11.984
32069W        W98610  21.485  28.801  13.851
32070W        W98611  31.524  12.131  12.168
32071W        W98612  11.751  26.031   3.293
32072W        W98613  21.065   1.367  14.791
32073W        W98614  36.557  34.511   4.386
32074W        W98615  11.671  28.262  14.853
32075W        W98616  30.108  40.893   2.821
32076W        W98617  22.369  35.235   0.446
32077W        W98618  12.217  17.328  13.533
32078W        W98619  23.286   4.325   0.850
32079W        W98620  43.930  35.429  14.909
32080W        W98621   1.926  18.260  14.408
32081W        W98622  14.326  34.120  12.031
32082W        W98623  32.591  10.002   3.113
32083W        W98624  12.415  44.065   0.432
32084W        W98625  12.831  23.365  11.559
32085W        W98626  33.820  26.081  13.059
32086W        W98627  40.620  23.555   2.176
32087W        W98628  23.016  40.984   1.333
32088W        W98629  19.428   6.769  10.645
32089W        W98630   0.648  40.620   5.084
32090W        W98631  37.645  27.019  11.538
32091W        W98632  22.283  15.310  14.923
32092W        W98633   5.365  13.567   2.902
32093W        W98634  25.571  27.447   2.702
32094W        W98635  30.164  17.144   0.814
32095W        W98636   5.310  19.446   5.059
32096W        W98637  35.625  13.322  10.748
32097W        W98638   2.233  38.203  14.263
32098W        W98639  35.803   1.312  11.529
32099W        W98640  18.999  37.999  10.668
32100W        W98641  24.720  42.936   1.822
32101W        W98642  34.989  22.412   4.586
32102W        W98643  26.654  20.671   1.383
32103W        W98644  16.720  21.770   0.802
32104W        W98645   8.342  10.695   0.860
32105W        W98646  16.705  10.959   0.798
32106W        W98647  38.381  44.707  11.605
32107W        W98648   1.669  25.049   1.630
32108W        W98649  10.732  27.569   0.690
32109W        W98650  44.032  23.680   0.441
32110W        W98651   7.741  44.873   1.433
32111W        W98652  33.734  43.097   4.925
32112W        W98653   7.792  22.627  10.269
32113W        W98654  16.287  27.982  13.900
32114W        W98655  24.480  32.537   1.808
32115W        W98656  34.494  44.456  14.554
32116W        W98657   1.389  14.048   2.419
32117W        W98658  25.004  18.786  12.054
32118W        W98659   3.872  15.749   0.013
32119W        W98660  40.493  42.588   4.873
32120W        W98661  35.301  10.842   2.700
32121W        W98662  23.494  27.505   4.650
32122W        W98663  43.336  15.146   2.725
32123W        W98664  12.829  30.598  12.460
32124W        W98665  23.405  31.872  11.986
32125W        W98666   4.862  38.874  10.663
32126W        W98667  30.902  34.127   3.421
32127W        W98668  43.600  13.885   2.684
32128W        W98669   5.281  42.007  14.521
32129W        W98670  20.075  42.611   1.567
32130W        W98671  23.790   5.614   3.191
32131W        W98672  38.834  44.903   0.653
32132W        W98673  39.452  30.117  12.098
32133W        W98674  42.829  44.080  12.888
32134W        W98675  42.764  38.169   1.204
32135W        W98676  28.073  13.061  12.526
32136W        W98677  18.095  32.660   4.098
32137W        W98678  14.021  20.191  14.949
32138W        W98679  31.493  29.100   0.467
32139W        W98680  29.673   3.208  11.265
32140W        W98681  19.319  12.153  11.201
32141W        W98682   8.915  43.442   1.597
32142W        W98683   1.436  42.957   5.073
32143W        W98684   0.199  29.987  11.623
32144W        W98685   3.663  13.763   0.931
32145W        W98686  42.893  38.022   2.701
32146W        W98687  27.670  35.315   1.427
32147W        W98688  40.823  34.181  11.938
32148W        W98689  36.314   4.647   0.877
32149W        W98690  12.800  43.880  11.513
32150W        W98691  10.483  11.798   1.930
32151W        W98692  15.824  42.981  14.520
32152W        W98693  20.134  35.102   1.129
32153W        W98694   8.417  19.128   4.931
32154W        W98695  29.351  25.282   4.155
32155W        W98696  28.111  16.292  11.257
32156W        W98697  13.679  28.702   4.529
32157W        W98698  28.499  13.033  10.251
32158W        W98699  33.577  29.050   0.639
32159W        W98700  32.843  29.307  14.572
32160W        W98701   5.449  35.343   1.721
32161W        W98702  12.342   0.687   3.238
32162W        W98703   4.275  23.617   2.791
32163W        W98704  42.115  39.553  12.036
32164W        W98705  20.755  44.005  11.063
32165W        W98706  36.046  42.018  10.699
32166W        W98707  13.222   4.258   0.213
32167W        W98708  19.591  10.049   1.469
32168W        W98709  42.840  18.131   3.210
32169W        W98710  28.667   9.413  12.956
32170W        W98711  28.711  27.359  11.197
32171W        W98712  17.737  15.441   1.878
32172W        W98713  38.685  21.071  12.128
32173W        W98714  44.749  34.113   4.563
32174W        W98715  41.496   9.607  14.903
32175W        W98716  35.339  19.714   0.149
32176W        W98717  20.492   2.858  14.093
32177W        W98718  34.100  27.875  14.460
32178W        W98719  21.038   3.314   1.296
32179W        W98720  31.924  17.726  11.192
32180W        W98721   4.929   9.221   2.371
32181W        W98722  14.651  19.608   3.910
32182W        W98723   7.832  12.336   0.917
32183W        W98724  15.239  34.942   2.631
32184W        W98725  14.426   3.474  11.593
32185W        W98726  21.743  42.344  14.961
32186W        W98727  15.275  41.409   2.066
32187W        W98728  24.997  18.114   1.627
32188W        W98729   6.759  37.740  14.730
32189W        W98730  22.594  36.608   0.790
32190W        W98731  14.543  12.745   4.404
32191W        W98732   1.741  44.270  12.832
32192W        W98733  11.341  12.821   2.873
32193W        W98734   6.935  38.272   3.712
32194W        W98735  15.783   2.475   0.422
32195W        W98736  31.456  23.171   3.229
32196W        W98737  13.858   1.339  12.240
32197W        W98738  17.744  43.351  10.697
32198W        W98739  42.470   1.832   0.460
32199W        W98740   6.273  42.819  14.422
32200W        W98741  12.300  36.618  11.604
32201W        W98742   8.721  19.717   4.780
32202W        W98743  20.054  13.333  13.534
32203W        W98744  12.295   0.405  13.184
32204W        W98745  11.225  22.308  14.882
32205W        W98746  28.602  12.071  11.536
32206W        W98747  11.618   0.212   3.832
32207W        W98748  25.082  26.956  13.755
32208W        W98749  41.504  35.531   0.359
32209W        W98750  15.778  22.717  10.741
32210W        W98751  34.078   4.560  10.715
32211W        W98752   1.518  34.154   2.358
32212W        W98753   7.378  40.103   0.010
32213W        W98754  42.567  28.500  12.627
32214W        W98755  28.571   0.821  11.652
32215W        W98756   5.317  16.235   3.763
32216W        W98757  30.479  26.989   3.984
32217W        W98758  22.637  11.532  10.716
32218W        W98759  18.160  10.553  13.832
32219W        W98760  32.212  14.190   0.463
32220W        W98761  23.739  40.336   2.276
32221W        W98762  44.504  37.427   1.390
32222W        W98763  14.690   1.442   2.902
32223W        W98764  12.055  32.244   4.117
32224W        W98765  32.882  15.681  10.772
32225W        W98766   3.823   7.634  10.681
32226W        W98767  15.803  30.761   2.889
32227W        W98768  10.344  17.565   0.373
32228W        W98769  36.498  11.851   2.479
32229W        W98770   3.012  20.234  11.198
32230W        W98771  21.248   1.148  14.312
32231W        W98772  14.713   7.294   1.415
32232W        W98773  22.452  14.139  13.492
32233W        W98774  29.641   4.186  13.205
32234W        W98775  20.213   8.787   0.184
32235W        W98776  29.878  44.702   4.534
32236W        W98777  12.314  41.174  11.034
32237W        W98778  21.529  42.747  13.763
32238W        W98779  28.996  37.617   0.239
32239W        W98780  12.197  29.159  12.556
32240W        W98781  36.469   0.548   4.099
32241W        W98782  19.249  26.964  12.220
32242W        W98783  32.595   7.675   4.266
32243W        W98784  38.882  35.508  12.058
32244W        W98785   3.324  12.262  13.114
32245W        W98786  22.054  31.704   1.785
32246W        W98787  24.300  34.380   3.757
32247W        W98788  17.556  44.786  12.061
32248W        W98789  33.928  18.643   3.748
32249W        W98790  29.538  22.913   0.930
32250W        W98791  29.094   4.853   4.294
32251W        W98792  43.899  41.034  12.389
32252W        W98793  44.849  11.186  12.140
32253W        W98794  43.577  17.045   3.601
32254W        W98795  24.013   4.237  11.669
32255W        W98796  37.562  33.435   4.119
32256W        W98797  16.641  17.668   0.478
32257W        W98798  32.993   9.337   1.179
32258W        W98799  16.799   7.077   2.398
32259W        W98800   0.256  43.410   4.262
32260W        W98801  42.580  26.900   0.384
32261W        W98802  11.809  40.633   0.349
32262W        W98803   0.807  40.508   4.611
32263W        W98804  11.665  13.452  13.180
32264W        W98805  43.332  42.209   0.894
32265W        W98806   1.664   8.414   4.073
32266W        W98807   1.022  25.641   0.062
32267W        W98808  30.387   4.532  10.898
32268W        W98809  43.252  26.172   3.677
32269W        W98810  25.621  20.761   2.939
32270W        W98811  12.891  35.107   3.199
32271W        W98812  13.132  14.205  13.365
32272W        W98813  19.473  37.011  14.316
32273W        W98814  40.095  38.428  11.956
32274W        W98815  25.560  26.627  14.109
32275W        W98816  41.379  36.911  12.188
32276W        W98817  43.170  16.322   1.794
32277W        W98818  11.419  39.835   4.503
32278W        W98819  32.736  23.998   0.449
32279W        W98820  29.053  40.082   0.920
32280W        W98821  38.729  38.984   1.326
32281W        W98822  17.093  18.477  11.538
32282W        W98823  29.224  33.397  12.432
32283W        W98824   8.257   0.770  10.611
32284W        W98825  28.043   3.228   2.299
32285W        W98826  41.427   4.326   4.207
32286W        W98827  35.641   4.996  12.497
32287W        W98828  39.841   5.695  10.780
32288W        W98829  36.890  11.665   3.213
32289W        W98830  11.585  39.855  12.144
32290W        W98831  18.179  22.287   2.866
32291W        W98832   9.761  29.331  11.010
32292W        W98833  28.100  16.800  12.331
32293W        W98834  32.484  16.308   0.186
32294W        W98835  19.685  26.711   2.465
32295W        W98836  13.420  22.147  11.890
32296W        W98837  29.688   3.248  14.167
32297W        W98838  34.414  10.346   1.057
32298W        W98839  33.562  25.134  12.875
32299W        W98840  16.761  21.932  13.354
32300W        W98841   6.400  34.459  14.816
32301W        W98842  39.478  43.995  13.898
32302W        W98843  27.926  42.309  14.336
32303W        W98844  22.965  17.243   2.778
32304W        W98845  41.490  38.977   2.827
32305W        W98846   7.656  17.349  13.193
32306W        W98847  11.993  27.399   0.123
32307W        W98848   2.011  22.534  14.527
32308W        W98849  19.733  43.846   0.208
32309W        W98850  33.053  44.309   4.891
32310W        W98851  26.409  31.981   1.821
32311W        W98852  44.473  42.747   2.632
32312W        W98853  20.102   0.594  14.495
32313W        W98854  27.921  26.988  11.294
32314W        W98855  16.569  40.204  12.424
32315W        W98856  19.852  43.825   3.342
32316W        W98857   1.796  24.945  12.987
32317W        W98858  25.889  42.843  12.472
32318W        W98859  11.691  28.955   4.356
32319W        W98860  40.021   4.497   1.177
32320W        W98861  22.286  17.192   4.581
32321W        W98862   2.302  31.762  11.449
32322W        W98863  25.792  26.536  14.593
32323W        W98864  27.604  39.424  14.410
32324W        W98865  28.986  14.789  14.803
32325W        W98866  21.363  33.935  11.470
32326W        W98867   5.658   3.308  11.031
32327W        W98868  34.483   6.361  14.512
32328W        W98869  41.792  11.757  11.717
32329W        W98870  11.742   9.642   3.293
32330W        W98871  33.858   4.915   1.297
32331W        W98872  27.806   7.429  11.184
32332W        W98873  34.340  25.728  13.410
32333W        W98874  31.157  35.669  12.481
32334W        W98875   4.836   4.247  10.660
32335W        W98876  36.645  30.685   1.798
32336W        W98877   3.707   0.957   0.772
32337W        W98878  35.629   3.938   4.222
32338W        W98879  19.775  33.586  13.288
32339W        W98880  16.344   6.971   4.134
32340W        W98881  16.472  40.546  12.850
32341W        W98882   3.784  11.168   2.303
32342W        W98883  43.226   9.354   2.805
32343W        W98884  13.634  21.077   1.174
32344W        W98885   7.753  22.008  11.545
32345W        W98886  37.992  39.365   4.075
32346W        W98887  17.447  14.639   1.112
32347W        W98888   5.375   3.164   2.191
32348W        W98889   6.586  14.239  13.504
32349W        W98890   7.014   2.973  10.258
32350W        W98891  33.076  18.573  12.418
32351W        W98892  33.423  26.482  11.900
32352W        W98893  33.722  23.587   4.321
32353W        W98894  26.268  13.094  12.163
32354W        W98895   9.945  16.431  14.049
32355W        W98896  21.992  42.860  14.825
32356W        W98897   0.713  30.062   3.853
32357W        W98898  18.010  39.000  11.193
32358W        W98899  36.405  41.295   1.769
32359W        W98900  37.508  25.935   1.031
32360W        W98901   6.411  22.420  11.174
32361W        W98902  22.341  22.559   1.791
32362W        W98903  32.808  43.518  13.012
32363W        W98904  29.454  25.519  10.950
32364W        W98905  29.022  27.105  12.929
32365W        W98906  22.707   7.306  10.265
32366W        W98907  40.088  12.603   0.298
32367W        W98908  30.488   5.094   2.314
32368W        W98909   4.259  26.492   5.420
32369W        W98910  44.311  31.134  13.956
32370W        W98911  26.588  23.513  11.636
32371W        W98912  43.750   3.244   2.653
32372W        W98913  24.724   7.301  10.649
32373W        W98914   6.174  11.899   2.158
32374W        W98915  32.389   5.443   2.307
32375W        W98916  33.208  35.550  13.493
32376W        W98917  34.069  21.309   0.069
32377W        W98918  29.118  16.409  14.335
32378W        W98919   5.881  12.302  12.484
32379W        W98920   7.747  13.800   1.669
32380W        W98921   9.762  10.276  11.122
32381W        W98922  39.674   8.770   0.815
32382W        W98923  44.808  10.880   3.322
32383W        W98924  16.210  40.099   4.587
32384W        W98925  39.303  31.580   3.036
32385W        W98926  19.127  40.901  12.023
32386W        W98927  42.780  27.161   5.025
32387W        W98928  10.214  35.274   3.809
32388W        W98929  20.499  20.241  13.522
32389W        W98930  13.571  19.224  10.636
32390W        W98931   3.218  22.194  12.423
32391W        W98932  40.500  18.649   3.618
32392W        W98933  25.906   8.182   3.182
32393W        W98934  32.593  38.982  12.450
32394W        W98935  15.706  19.464  11.562
32395W        W98936   4.250  14.849  12.838
32396W        W98937  11.403  24.432   2.770
32397W        W98938  43.291  20.904  11.181
32398W        W98939  27.633  12.695   3.947
32399W        W98940   7.669  13.953   2.158
32400W        W98941  41.765   7.715   3.683
32401W        W98942  38.035  20.161  13.995
32402W        W98943  34.211  19.437  11.660
32403W        W98944  10.751  23.242   2.951
32404W        W98945  32.026  41.130   2.050
32405W        W98946  28.155  30.918  11.134
32406W        W98947   6.858  18.276   4.878
32407W        W98948   0.331  31.987  13.620
32408W        W98949  33.127  20.525  11.605
32409W        W98950  27.685  11.653   4.421
32410W        W98951   1.763  17.395   3.682
32411W        W98952   3.715   0.907  14.676
32412W        W98953  42.958  10.001  12.040
32413W        W98954  26.419   4.310   4.603
32414W        W98955  35.434  33.526   4.687
32415W        W98956   1.895   0.412  12.902
32416W        W98957  13.349   1.793   1.251
32417W        W98958  19.759  31.126   1.840
32418W        W98959  13.555   5.838  12.477
32419W        W98960  36.571  15.091   3.249
32420W        W98961  10.817   7.913   3.665
32421W        W98962  13.875  17.349  14.493
32422W        W98963   9.876   4.856  14.924
32423W        W98964  16.196   8.404   0.666
32424W        W98965  24.423  44.257  12.580
32425W        W98966  23.187  42.773   5.044
32426W        W98967  28.054  32.783   1.000
32427W        W98968  11.379  26.074  11.677
32428W        W98969  33.632  35.430   4.595
32429W        W98970   2.858  13.119  14.342
32430W        W98971  27.331  12.372  11.120
32431W        W98972   6.534   4.323  14.308
32432W        W98973   1.575  25.598   2.792
32433W        W98974  32.126  36.467   3.203
32434W        W98975  39.316  41.442  13.797
32435W        W98976  41.457  44.037  10.517
32436W        W98977  39.743  36.243  12.552
32437W        W98978  31.906  26.190   0.953
32438W        W98979  31.169  30.837  12.540
32439W        W98980   8.723  35.938  11.887
32440W        W98981   2.933  37.977  10.685
32441W        W98982  19.022  25.117  10.651
32442W        W98983   7.668  16.815  13.064
32443W        W98984  34.572  31.477  13.008
32444W        W98985  37.609  31.351   3.637
32445W        W98986  34.637  25.510  11.647
32446W        W98987  34.404  23.102  10.969
32447W        W98988   8.850   4.821   0.433
32448W        W98989   2.736   1.496  14.896
32449W        W98990   1.221   5.153   3.739
32450W        W98991   8.062  24.600   3.627
32451W        W98992   0.603  26.289  12.921
32452W        W98993  25.382  29.845   4.327
32453W        W98994   4.736  21.760   3.636
32454W        W98995  21.292   7.928   1.380
32455W        W98996  18.874   5.368   4.324
32456W        W98997  35.630  16.077  14.473
32457W        W98998  41.998  38.797   3.145
32458W        W98999  44.726  28.176  14.198
32459W        W99000   0.962  43.828   4.572
32460W        W99001  30.824   6.253   3.709
32461W        W99002  41.640  18.796   0.382
32462W        W99003  24.162   3.440  11.981
32463W        W99004  24.382  43.812  14.451
32464W        W99005  18.061  16.414  14.793
32465W        W99006  33.198  17.120   4.899
32466W        W99007   4.369  23.112   5.111
32467W        W99008  30.358  21.951  13.733
32468W        W99009  25.672  34.857   3.319
32469W        W99010  42.293  18.760   1.007
32470W        W99011  23.203  18.208   2.308
32471W        W99012  31.031   5.138   3.762
32472W        W99013   5.427   5.042   0.702
32473W        W99014  18.168   6.851  14.082
32474W        W99015  32.919  23.122   4.334
32475W        W99016  34.216  32.486   1.791
32476W        W99017  42.417  20.804  14.860
32477W        W99018  13.165  14.936   2.652
32478W        W99019   3.044  41.336   2.807
32479W        W99020  22.910   8.432   4.260
32480W        W99021  44.071  14.309  13.863
32481W        W99022   4.949  33.581   2.699
32482W        W99023  43.042  34.338  12.062
32483W        W99024  35.031  39.019  10.065
32484W        W99025  44.767  10.419   2.855
32485W        W99026   1.348  36.051  14.896
32486W        W99027   5.973  17.941  14.921
32487W        W99028  27.983  44.845   0.757
32488W        W99029  41.948  11.995  13.420
32489W        W99030  40.202  29.240   4.987
32490W        W99031  24.483  33.079   3.670
32491W        W99032  22.684  16.211   1.901
32492W        W99033   8.142  15.141  13.976
32493W        W99034  42.794   5.420  12.883
32494W        W99035  23.192   4.627   2.279
32495W        W99036  40.756  25.431   3.329
32496W        W99037  20.273  18.093  10.162
32497W        W99038  31.482  42.319   4.782
32498W        W99039  10.174   7.188  10.469
32499W        W99040  13.058  15.504  12.121
32500W        W99041  11.898  43.684   3.471
32501W        W99042  13.789   6.799   1.305
32502W        W99043  27.008  21.230  11.234
32503W        W99044  31.273  36.861   4.054
32504W        W99045  41.777  18.625   1.834
32505W        W99046  33.165  13.899  13.492
32506W        W99047  13.845  33.060  11.065
32507W        W99048   4.887   5.264   4.139
32508W        W99049   2.867  27.207  11.202
32509W        W99050  29.230  21.774   1.076
32510W        W99051  18.886  17.726  13.102
32511W        W99052  26.659   8.163  13.783
32512W        W99053   3.841  31.167  12.580
32513W        W99054  43.216  38.418   3.759
32514W        W99055  12.648  11.273  14.743
32515W        W99056  10.782  23.457   2.477
32516W        W99057  40.370  14.761  13.725
32517W        W99058  32.801  39.054  14.103
32518W        W99059  40.150  41.822   3.366
32519W        W99060  33.371  23.273  12.006
32520W        W99061   7.789   6.727   4.463
32521W        W99062   8.591  23.711   2.018
32522W        W99063  20.518   2.392  10.672
32523W        W99064   6.797  33.933  12.969
32524W        W99065  29.030   1.007  11.849
32525W        W99066  29.009  20.575  13.006
32526W        W99067  28.163  14.280  12.055
32527W        W99068  27.658  33.085   0.864
32528W        W99069  43.429   8.826  13.790
32529W        W99070  16.309   7.135   0.437
32530W        W99071  14.759   0.753  12.939
32531W        W99072  27.357  32.472   4.578
32532W        W99073   9.661  36.719   4.171
32533W        W99074   4.791  24.705   1.299
32534W        W99075  42.225   0.971  14.933
32535W        W99076  43.545   6.291  14.015
32536W        W99077  12.045  15.763   0.392
32537W        W99078  11.811  20.754   1.274
32538W        W99079   1.617   7.244  13.413
32539W        W99080  14.012  28.308   2.422
32540W        W99081  33.338  11.383  10.739
32541W        W99082  43.481  24.496   2.413
32542W        W99083   4.663  11.229   2.178
32543W        W99084  29.476  19.970   4.189
32544W        W99085  43.318  28.024  12.597
32545W        W99086   5.807   0.493   0.437
32546W        W99087  10.398  12.109   3.608
32547W        W99088   8.769  36.434   0.046
32548W        W99089  29.512  37.174  11.679
32549W        W99090  38.073   9.885  13.666
32550W        W99091  32.147  44.000   2.838
32551W        W99092   3.724  34.228   0.154
32552W        W99093   4.382  27.088  13.633
32553W        W99094  15.635  42.227   4.573
32554W        W99095  43.256  42.723   1.019
32555W        W99096   1.165   2.489  14.531
32556W        W99097  21.739  20.843   3.767
32557W        W99098  18.299   8.762   3.906
32558W        W99099  43.326  29.626   4.133
32559W        W99100  19.282  13.392   2.828
32560W        W99101  42.476   7.702   4.346
32561W        W99102   2.944  31.394   3.335
32562W        W99103  22.216   3.994   9.795
32563W        W99104  20.846  14.133   0.530
32564W        W99105  15.169  20.237  14.048
32565W        W99106  40.946  41.978  12.266
32566W        W99107  10.713  17.226  12.909
32567W        W99108  10.883  43.140   2.295
32568W        W99109  27.306  21.456   3.498
32569W        W99110  11.684  30.039  11.229
32570W        W99111  33.281  35.404   4.192
32571W        W99112   6.855  40.599  11.146
32572W        W99113  43.024  26.883   1.920
32573W        W99114  23.971   5.477  12.205
32574W        W99115   0.863  38.918  10.095
32575W        W99116  14.391  44.492  10.514
32576W        W99117  42.528  40.581  12.869
32577W        W99118  43.178   4.229  14.889
32578W        W99119   5.205  25.617  13.496
32579W        W99120  18.143  41.732  13.872
32580W        W99121  12.568  24.847   4.574
32581W        W99122  22.024   8.868  11.406
32582W        W99123  29.143  13.559   1.710
32583W        W99124  11.217   6.688   2.506
32584W        W99125  34.016   0.580   5.364
32585W        W99126  35.839  26.304   1.024
32586W        W99127  35.873  15.823   1.867
32587W        W99128   8.064  31.884   5.051
32588W        W99129  41.711  29.696  13.156
32589W        W99130  30.807   8.765   1.467
32590W        W99131   4.963  42.864  10.905
32591W        W99132  25.503  17.477  12.195
32592W        W99133  12.794  36.339  13.556
32593W        W99134  22.287  20.745  10.524
32594W        W99135  26.750  25.426   3.215
32595W        W99136  29.020  36.496   2.850
32596W        W99137  38.964  20.073   3.011
32597W        W99138  10.368  33.871   0.529
32598W        W99139   4.126   8.931  12.486
32599W        W99140  10.347  40.882   2.816
32600W        W99141  38.906  10.156  12.167
32601W        W99142  17.684  34.904  12.491
32602W        W99143   7.562   4.569  11.105
32603W        W99144  34.839  14.294  11.055
32604W        W99145  13.828  27.946   4.064
32605W        W99146  31.142  15.086   0.951
32606W        W99147  31.498  25.607   4.615
32607W        W99148   0.846  24.401  14.264
32608W        W99149  35.017   4.864   3.115
32609W        W99150  10.385   7.605  11.718
32610W        W99151  12.213  21.065  10.994
32611W        W99152  38.518  25.943   2.312
32612W        W99153  43.548  11.884  13.776
32613W        W99154   9.392  25.481   2.450
32614W        W99155   0.775  38.945  12.176
32615W        W99156  24.746   0.352   3.200
32616W        W99157  42.403   5.174  12.354
32617W        W99158  13.278  21.919   1.860
32618W        W99159  20.241  31.013   2.696
32619W        W99160  32.634  43.301   1.811
32620W        W99161   8.216   8.632  12.141
32621W        W99162  44.083   1.814  13.026
32622W        W99163   1.069  28.592   1.297
32623W        W99164  10.687   0.708   4.578
32624W        W99165  15.497  41.304  14.887
32625W        W99166  16.286  35.908  12.979
32626W        W99167  37.599  20.559  12.583
32627W        W99168  19.551  25.979  14.018
32628W        W99169  38.061  18.603   1.915
32629W        W99170   9.300  11.123   1.814
32630W        W99171  33.445  39.125   4.088
32631W        W99172  40.826   0.424   3.703
32632W        W99173  22.263   8.386   0.739
32633W        W99174  21.633   7.937  12.009
32634W        W99175  32.927  20.880  12.965
32635W        W99176   9.048   1.004   3.770
32636W        W99177  24.804   4.576   0.881
32637W        W99178  16.171  19.638   2.290
32638W        W99179  18.055  39.736   0.987
32639W        W99180  14.834  24.751   0.690
32640W        W99181  20.399  29.473  11.540
32641W        W99182  28.845   5.803   0.258
32642W        W99183  30.569   0.492  11.507
32643W        W99184  20.413   7.540  13.125
32644W        W99185   1.650  22.613  11.123
32645W        W99186  44.672  29.227   4.287
32646W        W99187  14.783  11.416  14.951
32647W        W99188  41.334  14.216   0.370
32648W        W99189   8.113  10.700   3.627
32649W        W99190  15.033  28.994  12.421
32650W        W99191  27.629   0.821   0.829
32651W        W99192  42.228  33.111   1.028
32652W        W99193  37.277  20.169  12.613
32653W        W99194  30.919  15.155  12.535
32654W        W99195  33.938  43.576   1.719
32655W        W99196   2.686   8.303  14.817
32656W        W99197  37.983   5.099  10.684
32657W        W99198  21.787  20.686   0.448
32658W        W99199  25.237  15.029   3.736
32659W        W99200   2.149   9.753   1.786
32660W        W99201   8.165  31.141   4.505
32661W        W99202  37.297  23.475  12.232
32662W        W99203  10.767   7.145   1.362
32663W        W99204  29.013  28.970   1.722
32664W        W99205  33.882  38.615  14.778
32665W        W99206  22.170  15.629   4.608
32666W        W99207  39.869  23.257   3.149
32667W        W99208  19.534  18.616   1.901
32668W        W99209  24.502   1.282  12.449
32669W        W99210  29.350  43.527  14.456
32670W        W99211  39.094  14.768   2.478
32671W        W99212  22.705  21.691   0.920
32672W        W99213  13.851  10.776   2.762
32673W        W99214   6.538  24.702  13.292
32674W        W99215  34.878  20.054  14.847
32675W        W99216  36.861   8.809  14.494
32676W        W99217  35.436  23.932  12.719
32677W        W99218   2.887  19.079   4.588
32678W        W99219  26.246  33.533   4.855
32679W        W99220  41.099  14.447   3.208
32680W        W99221  18.150  18.416  13.880
32681W        W99222   8.215   7.929  12.110
32682W        W99223  15.329  41.444   4.938
32683W        W99224  39.002  33.876  10.657
32684W        W99225  17.208  19.448   0.506
32685W        W99226   4.860   4.482   2.136
32686W        W99227  41.467  34.096   2.573
32687W        W99228   7.847  32.717  11.044
32688W        W99229  12.312  42.455  12.486
32689W        W99230   8.742   6.486   2.703
32690W        W99231  36.002  31.133   0.198
32691W        W99232  23.674   0.812   4.659
32692W        W99233  27.508  13.905   2.960
32693W        W99234  35.033  13.215  14.509
32694W        W99235  42.226  29.204   3.524
32695W        W99236  33.008  35.215  12.564
32696W        W99237   1.290  26.036   4.066
32697W        W99238  35.310   1.707   0.275
32698W        W99239  25.688  41.291   2.272
32699W        W99240  40.700  25.034   5.140
32700W        W99241  21.995   9.793   1.934
32701W        W99242   6.394  13.256  12.053
32702W        W99243   5.733  44.159  13.448
32703W        W99244  28.192  23.679   3.214
32704W        W99245  35.923  31.969  12.696
32705W        W99246  23.063  44.200  12.451
32706W        W99247   3.407  21.583  14.353
32707W        W99248  17.616  16.640   4.103
32708W        W99249  29.863   8.304   4.120
32709W        W99250  10.473  27.654  11.647
32710W        W99251  36.702  22.865   1.816
32711W        W99252  13.193   8.701   4.428
32712W        W99253  17.568  13.215  11.370
32713W        W99254   9.379  15.078   1.272
32714W        W99255  20.053   6.176  12.934
32715W        W99256  14.806  16.827  12.124
32716W        W99257  16.684  32.538  13.821
32717W        W99258   2.384   3.272  12.672
32718W        W99259   6.314  42.431  13.829
32719W        W99260  24.798  21.273  12.583
32720W        W99261   7.899   8.858  10.649
32721W        W99262  44.891   5.042  14.349
32722W        W99263   2.504  10.238  13.081
32723W        W99264  42.111  12.050   3.252
32724W        W99265  22.596  22.920  13.786
32725W        W99266   9.391  22.710   1.135
32726W        W99267   8.169  40.851   1.386
32727W        W99268  19.568  33.453  11.346
32728W        W99269  23.687  34.537   2.219
32729W        W99270  15.927  27.501  13.854
32730W        W99271  37.062  40.637  11.133
32731W        W99272  19.629   5.803  12.975
32732W        W99273   4.315  16.254   2.389
32733W        W99274  35.376  30.911  11.661
32734W        W99275  18.260  14.130   0.780
32735W        W99276  18.752  10.208   2.369
32736W        W99277  25.003   6.268  10.678
32737W        W99278  43.284  12.245  12.042
32738W        W99279  15.107   4.398   3.146
32739W        W99280   2.134  28.502   3.727
32740W        W99281   3.840  23.642   9.962
32741W        W99282   1.060  37.485  12.906
32742W        W99283  18.238  29.404  10.305
32743W        W99284   8.512  41.857  10.264
32744W        W99285  26.871  20.091  13.363
32745W        W99286   5.234  39.725  13.042
32746W        W99287  32.378   5.798  11.550
32747W        W99288   0.297  39.233   1.362
32748W        W99289  33.568   7.208  11.210
32749W        W99290  44.429  10.818   0.022
32750W        W99291  33.818  26.751  10.283
32751W        W99292  12.765  17.281  11.102
32752W        W99293  18.062  18.922   1.709
32753W        W99294  27.278  11.771  14.361
32754W        W99295   8.288  19.842   0.882
32755W        W99296  35.444  43.698   3.663
32756W        W99297  41.365  34.683   3.220
32757W        W99298  28.144  30.856   1.360
32758W        W99299  35.984  37.246  13.090
32759W        W99300   3.260  13.853  14.396
32760W        W99301  15.576  41.469  10.116
32761W        W99302  43.552  21.432  14.830
32762W        W99303   5.278  13.347  14.173
32763W        W99304  43.004  37.172  10.621
32764W        W99305   6.175  34.938   1.812
32765W        W99306  41.546   2.209  13.882
32766W        W99307  14.259  37.284  10.825
32767W        W99308  29.662  14.195   3.190
32768W        W99309  31.866  15.099  13.486
32769W        W99310   7.344  12.606  13.067
32770W        W99311  31.638  11.108  11.045
32771W        W99312  16.700  34.079  14.163
32772W        W99313  41.203  21.688  12.688
32773W        W99314  24.117  40.446  11.097
32774W        W99315  38.819   1.572   0.220
32775W        W99316   6.844   9.090   4.741
32776W        W99317   7.447  42.385   1.250
32777W        W99318  44.600  38.788   3.723
32778W        W99319  40.448  24.062   2.739
32779W        W99320  25.885  12.208  12.014
32780W        W99321  28.102  32.487  14.173
32781W        W99322  29.218  30.184  10.915
32782W        W99323  26.658  28.738  11.920
32783W        W99324  19.538  28.215   3.132
32784W        W99325  33.473  10.359   2.162
32785W        W99326   4.709  20.514  13.132
32786W        W99327  41.919   7.537   4.466
32787W        W99328   9.035  30.757   4.512
32788W        W99329  44.222  39.442  13.901
32789W        W99330  25.625  27.960   3.696
32790W        W99331  20.666  44.310   4.049
32791W        W99332  12.153  40.685   1.696
32792W        W99333  12.471  24.126   4.889
32793W        W99334   3.498  44.419   1.782
32794W        W99335  37.685  21.554   4.693
32795W        W99336  33.139  43.380  12.377
32796W        W99337  23.937  29.149  10.696
32797W        W99338  43.841   4.151   4.678
32798W        W99339  36.016   2.230  12.541
32799W        W99340  37.559   0.831  14.920
32800W        W99341  15.335   8.389  11.935
32801W        W99342  19.545  21.098   3.180
32802W        W99343  21.991  34.460  14.971
32803W        W99344  42.308  12.888   3.187
32804W        W99345  25.650  24.113   2.776
32805W        W99346  43.950  12.914   1.144
32806W        W99347  43.750   2.412   3.074
32807W        W99348  23.516  34.948   0.075
32808W        W99349  30.642  11.273   1.153
32809W        W99350  14.815  18.732   3.383
32810W        W99351  41.847  30.016   2.665
32811W        W99352  40.293  41.650  13.903
32812W        W99353  13.003   1.418   0.387
32813W        W99354  40.932  40.029   0.897
32814W        W99355   7.289   9.179  13.877
32815W        W99356   6.147   0.772  13.047
32816W        W99357  40.565  11.046  14.329
32817W        W99358  26.324  17.565   2.739
32818W        W99359  33.959  35.395  11.387
32819W        W99360   2.414   2.520  11.984
32820W        W99361  42.058  32.616  13.796
32821W        W99362  41.942   4.978  14.692
32822W        W99363  41.240   6.464   1.234
32823W        W99364  30.144  13.179  14.521
32824W        W99365  11.743  29.046   3.142
32825W        W99366   1.444  12.367  11.680
32826W        W99367  25.682  43.977  14.326
32827W        W99368  37.836  26.483   1.629
32828W        W99369  16.721   8.387  11.618
32829W        W99370  18.566  12.213  13.573
32830W        W99371  28.604  18.561   0.411
32831W        W99372  30.250   7.117  10.708
32832W        W99373  15.075  16.050  11.573
32833W        W99374  21.228  29.520   0.046
32834W        W99375   2.503  20.466   1.229
32835W        W99376  16.533  21.029  14.288
32836W        W99377   6.352  15.855  11.580
32837W        W99378  11.142  30.004  14.509
32838W        W99379  35.572  43.846   0.243
32839W        W99380  38.119  13.619   3.134
32840W        W99381   3.818  19.580   4.389
32841W        W99382  23.448   7.783  14.287
32842W        W99383  20.021  10.408   0.743
32843W        W99384   5.846  35.275   4.431
32844W        W99385   5.785  17.086  13.942
32845W        W99386   4.680  21.795   1.301
32846W        W99387  40.860  20.710   3.721
32847W        W99388  22.203  24.006   3.454
32848W        W99389  18.865  24.544   4.192
32849W        W99390  21.540   2.046   2.218
32850W        W99391  42.122   3.921  12.380
32851W        W99392  14.823  42.762   1.963
32852W        W99393  33.335  14.649  11.637
32853W        W99394  17.866   8.154  12.103
32854W        W99395  29.163  26.594   3.742
32855W        W99396   5.856  44.306  12.408
32856W        W99397   1.412  22.733  12.352
32857W        W99398  18.475  11.413  10.259
32858W        W99399  18.741  31.449   0.178
32859W        W99400  16.218   0.502   0.660
32860W        W99401  38.787   2.943   4.990
32861W        W99402  29.830  25.654   2.927
32862W        W99403  21.146  34.498  14.433
32863W        W99404  28.274  28.289  13.631
32864W        W99405   7.833  40.330  11.901
32865W        W99406   9.768  31.456   0.318
32866W        W99407  23.731  17.180   2.271
32867W        W99408   0.061   3.423  14.668
32868W        W99409   1.675   7.958  13.484
32869W        W99410  42.781  33.892  12.081
32870W        W99411  28.114   2.544  14.808
32871W        W99412  20.845   6.228  11.947
32872W        W99413  24.923  17.641   3.093
32873W        W99414  21.256  17.987  11.208
32874W        W99415   9.135   1.853  12.161
32875W        W99416  44.560  41.544   0.868
32876W        W99417  32.998  22.677   3.682
32877W        W99418  23.608  14.644  14.073
32878W        W99419   1.032   6.131  14.944
32879W        W99420  31.521  43.374   4.112
32880W        W99421  21.226  33.874  14.062
32881W        W99422   1.064  28.350  14.815
32882W        W99423  10.243  41.427   0.538
32883W        W99424  32.001   5.517  12.615
32884W        W99425  14.277   5.235   0.568
32885W        W99426   3.278  37.178   3.242
32886W        W99427  18.313   8.165   1.119
32887W        W99428  35.175  10.193  14.930
32888W        W99429  31.652  32.803  10.724
32889W        W99430  33.299  42.840   1.585
32890W        W99431  23.096  37.136   1.452
32891W        W99432  27.941   5.760  13.366
32892W        W99433  28.583  15.259   4.490
32893W        W99434  35.830   1.085  13.210
32894W        W99435  37.895  36.915  14.669
32895W        W99436  29.219  35.586  12.570
32896W        W99437  30.604  12.624  12.022
32897W        W99438  37.057  31.021   1.797
32898W        W99439  15.226  10.644  11.672
32899W        W99440   9.229   6.807   0.849
32900W        W99441  22.561  37.423  12.104
32901W        W99442  28.015  21.582  11.917
32902W        W99443  19.685  40.447  11.178
32903W        W99444  20.630  32.867  10.488
32904W        W99445  39.513   1.800   2.244
32905W        W99446  25.370  33.959  14.729
32906W        W99447  28.054  14.835  11.355
32907W        W99448  26.149  23.414   2.646
32908W        W99449  28.878  19.492  13.926
32909W        W99450  26.951  29.639  10.084
32910W        W99451  22.733  25.476  14.039
32911W        W99452  10.411  16.236  14.812
32912W        W99453  28.682  13.664   4.545
32913W        W99454   7.127  31.295   1.900
32914W        W99455  31.824   9.843   5.090
32915W        W99456  14.767  38.026   1.271
32916W        W99457  27.001   8.029  12.302
32917W        W99458  32.486  10.634   3.661
32918W        W99459   9.808  30.575   0.769
32919W        W99460  18.518  11.464  12.139
32920W        W99461  22.226  29.504  13.903
32921W        W99462   7.912  11.412  11.453
32922W        W99463  12.646   0.217   4.633
32923W        W99464  40.432  20.154  13.364
32924W        W99465  41.208  35.950   0.506
32925W        W99466  23.775  20.203   4.979
32926W        W99467   0.818  30.414  10.652
32927W        W99468  34.734  39.538   4.877
32928W        W99469  22.688  16.236   3.255
32929W        W99470  30.177   6.505   1.322
32930W        W99471  26.604   5.356  13.856
32931W        W99472  30.970  40.671  13.811
32932W        W99473  36.657  42.503  10.253
32933W        W99474  25.578  15.304   3.434
32934W        W99475   7.816  18.033   4.968
32935W        W99476  23.028  15.121   4.682
32936W        W99477  28.053  30.184  12.071
32937W        W99478   3.829  26.000  14.679
32938W        W99479  35.361  40.503  12.014
32939W        W99480  42.488  11.136  14.834
32940W        W99481  42.120   9.738  10.769
32941W        W99482  20.866  40.113  14.255
32942W        W99483   1.275  17.590   3.678
32943W        W99484  41.498  23.724  11.267
32944W        W99485  16.399  16.329   4.522
32945W        W99486  40.952  41.997  14.415
32946W        W99487  15.822   9.607  11.597
32947W        W99488  37.903  10.423   3.602
32948W        W99489  39.765  41.495  11.960
32949W        W99490   1.162  22.572   2.901
32950W        W99491  29.956   0.710  14.304
32951W        W99492   1.541   6.949  13.022
32952W        W99493  34.573   6.135  13.999
32953W        W99494  39.458   7.962  14.496
32954W        W99495  18.737  19.220  11.077
32955W        W99496  14.652  19.723  10.134
32956W        W99497  18.233  23.942  13.301
32957W        W99498  30.993  35.980   2.131
32958W        W99499  26.988  10.929  10.971
32959W        W99500   1.132  34.438  14.495
32960W        W99501  10.392   5.321  11.164
32961W        W99502  19.028  42.001   2.342
32962W        W99503  18.088   5.351  11.451
32963W        W99504   4.710  39.435   3.728
32964W        W99505   9.461   5.600  14.446
32965W        W99506  30.146  15.256   3.266
32966W        W99507  10.831  25.821   3.332
32967W        W99508  11.073  27.921   2.972
32968W        W99509  42.510  12.368  12.955
32969W        W99510  18.629  26.151   0.992
32970W        W99511  13.228  23.003   0.377
32971W        W99512  21.598  33.527  13.997
32972W        W99513  43.528  42.317  12.773
32973W        W99514  18.659  44.259  14.103
32974W        W99515  13.264  44.035  11.635
32975W        W99516  39.859  30.434   3.597
32976W        W99517  11.616  22.055  10.481
32977W        W99518  23.482  41.122   4.732
32978W        W99519   8.784  43.806   2.752
32979W        W99520   0.422  27.721  12.850
32980W        W99521  14.600  29.145  10.273
32981W        W99522  37.122  34.944  11.228
32982W        W99523  29.524  12.670   0.489
32983W        W99524  32.244   8.795  14.085
32984W        W99525   0.526  41.892   0.351
32985W        W99526  11.330  44.642  12.866
32986W        W99527  29.439  41.994   2.592
32987W        W99528  18.254  42.190  14.993
32988W        W99529  43.898  17.544   4.677
32989W        W99530  25.836  19.364   0.568
32990W        W99531  10.267  34.076  14.467
32991W        W99532  44.247  25.370   0.241
32992W        W99533   8.894  33.444   1.521
32993W        W99534  30.612  20.222   0.725
32994W        W99535  20.783  18.115  12.801
32995W        W99536  37.530  27.519   4.520
32996W        W99537  33.624  13.413   4.206
32997W        W99538  15.051  33.666  11.441
32998W        W99539   3.710  35.846  13.492
32999W        W99540  29.392  19.820  13.025
33000W        W99541  34.577  13.418  14.457
33001W        W99542  33.281  14.683  10.561
33002W        W99543  22.020   0.337   3.511
33003W        W99544   7.196  21.538  14.317
33004W        W99545   0.454   0.147  11.878
33005W        W99546   3.282  29.285  11.675
33006W        W99547  33.399  38.434   4.613
33007W        W99548  38.451  33.975   0.692
33008W        W99549  22.642  44.032   3.194
33009W        W99550   3.565   6.347   2.299
33010W        W99551  25.559   5.976  10.278
33011W        W99552   5.248  18.212   0.864
33012W        W99553  34.032  44.752  13.478
33013W        W99554   8.683  42.507   4.108
33014W        W99555  13.308  26.148  10.723
33015W        W99556  40.810  28.567   0.905
33016W        W99557  39.325  21.888  14.853
33017W        W99558  27.528  12.419   4.383
33018W        W99559   6.988   3.739   1.423
33019W        W99560  33.519  15.728   2.352
33020W        W99561  37.808  23.022   4.632
33021W        W99562  35.037  30.141   4.923
33022W        W99563  25.356  27.680  13.800
33023W        W99564  30.441  17.248  10.215
33024W        W99565  22.224   0.374  14.044
33025W        W99566  24.679  19.300   2.719
33026W        W99567  15.802  14.374   0.295
33027W        W99568   5.906   5.896  12.097
33028W        W99569   4.345  40.426  14.509
33029W        W99570  16.587  39.495   1.327
33030W        W99571  30.991  12.344   0.517
33031W        W99572   7.977  21.021   4.619
33032W        W99573  26.989  30.614   0.014
33033W        W99574  31.223  37.751  10.633
33034W        W99575  34.693  19.764  10.440
33035W        W99576  42.351  16.786   4.105
33036W        W99577  29.161  31.624  10.738
33037W        W99578  29.056  27.147  12.359
33038W        W99579  34.549  44.656   4.169
33039W        W99580  18.313  17.319  11.438
33040W        W99581  10.386  41.782  11.985
33041W        W99582  39.638   7.581   3.348
33042W        W99583  39.829  17.385  13.402
33043W        W99584   1.576  40.935   2.665
33044W        W99585  35.415  10.348  11.593
33045W        W99586  31.441  35.974  13.010
33046W        W99587  40.843  43.942  13.336
33047W        W99588  41.317  26.288   0.276
33048W        W99589   4.621  16.783  12.501
33049W        W99590  36.432  42.847  10.581
33050W        W99591  43.695  40.318   1.727
33051W        W99592  27.120  29.042  10.929
33052W        W99593  31.582   1.234   4.196
33053W        W99594  42.016  18.784  10.768
33054W        W99595  41.411  44.374  13.382
33055W        W99596  27.688   6.197   0.006
33056W        W99597  17.594  38.325  12.752
33057W        W99598  35.871   5.322  12.049
33058W        W99599  11.304  17.270   1.192
33059W        W99600  17.221  14.281  14.205
33060W        W99601  11.053  37.418  11.053
33061W        W99602   1.284  19.748  11.481
33062W        W99603  17.309  17.058  13.525
33063W        W99604  18.257  14.542   2.414
33064W        W99605  31.565  39.619  10.623
33065W        W99606  15.539  35.441   0.816
33066W        W99607  41.901   4.568  10.404
33067W        W99608  21.122  17.303   2.273
33068W        W99609  36.917  21.479  11.616
33069W        W99610  35.124  31.547   3.733
33070W        W99611   1.069   0.334   1.788
33071W        W99612  25.258   1.402  11.322
33072W        W99613   1.721   0.906  11.178
33073W        W99614  26.080  43.223  14.309
33074W        W99615  32.819  37.010  13.057
33075W        W99616  20.050  37.918   0.207
33076W        W99617  44.428  27.877   0.111
33077W        W99618  34.432  25.132   1.196
33078W        W99619  44.917  38.783   2.148
33079W        W99620  12.850  38.198   3.220
33080W        W99621  26.726   1.311  11.633
33081W        W99622  38.481  37.442   0.155
33082W        W99623  22.298  22.278   2.272
33083W        W99624  36.053  35.353  13.868
33084W        W99625  28.968  29.238   2.812
33085W        W99626  36.877   6.998   0.598
33086W        W99627  21.473  40.549   1.870
33087W        W99628  18.714  44.415   0.406
33088W        W99629   9.124   7.434  11.821
33089W        W99630  31.648  30.533   0.317
33090W        W99631  43.688  26.559   4.538
33091W        W99632   4.682  27.668  13.861
33092W        W99633  18.705  27.732  12.147
33093W        W99634  34.035  42.972  11.648
33094W        W99635   5.427  18.088   4.130
33095W        W99636  15.800  36.510   4.724
33096W        W99637  44.781  21.827  10.581
33097W        W99638   0.447   0.410   2.733
33098W        W99639  26.518  34.570   3.564
33099W        W99640   9.885  16.897  14.369
33100W        W99641  21.474  31.462  12.257
33101W        W99642  30.054  28.971   2.397
33102W        W99643  34.900   0.062   2.725
33103W        W99644  11.769   2.398   4.205
33104W        W99645   4.218  37.679   0.958
33105W        W99646  24.393  22.232   1.592
33106W        W99647  44.364  28.865  13.536
33107W        W99648  10.666  34.295  12.452
33108W        W99649  42.325   2.649  12.484
33109W        W99650   9.936  10.743   3.922
33110W        W99651   1.573  20.145   4.628
33111W        W99652  22.175  29.940  12.568
33112W        W99653   9.432  32.020   0.523
33113W        W99654   6.543   1.847  14.350
33114W        W99655   5.336  15.301  14.490
33115W        W99656  39.900  18.831   0.875
33116W        W99657  23.186  18.754  10.664
33117W        W99658  29.570   6.468  14.888
33118W        W99659  41.256  12.966  11.151
33119W        W99660  18.739  23.501   1.019
33120W        W99661   9.308  32.326  14.258
33121W        W99662  39.535  35.471  14.237
33122W        W99663   8.384  37.494   2.778
33123W        W99664  32.671  29.221  11.929
33124W        W99665  28.175  31.353   1.269
33125W        W99666  42.771  35.306  12.026
33126W        W99667  25.001   8.340   0.463
33127W        W99668  36.117  38.435  10.955
33128W        W99669   1.403  23.762   4.794
33129W        W99670  17.360  11.914  11.014
33130W        W99671  18.245  19.514   2.398
33131W        W99672  37.237  22.650  11.609
33132W        W99673  33.464   1.423   3.478
33133W        W99674   2.979  42.953  14.458
33134W        W99675  24.026  44.534  12.807
33135W        W99676  42.081  27.107  13.580
33136W        W99677  34.051  16.237  10.697
33137W        W99678  43.805  19.462  13.611
33138W        W99679  11.351  23.849   1.768
33139W        W99680  13.226  41.423  13.065
33140W        W99681  43.218  11.686   3.203
33141W        W99682  25.226   5.376  13.068
33142W        W99683  16.660  27.346   4.210
33143W        W99684  40.987  27.846   3.815
33144W        W99685   0.358  42.773  14.287
33145W        W99686   1.695  25.743   4.972
33146W        W99687   7.166  12.813  12.039
33147W        W99688  37.106  22.243   3.375
33148W        W99689  11.582  15.666  12.910
33149W        W99690  17.135  34.404  13.448
33150W        W99691  38.075   7.472   1.802
33151W        W99692  19.521   4.840   3.701
33152W        W99693  40.872  15.179  14.928
33153W        W99694  22.466  15.582  12.857
33154W        W99695  37.190   1.719  12.119
33155W        W99696  37.404  29.964  13.469
33156W        W99697  40.367  10.798   2.695
33157W        W99698  43.483  26.293   4.115
33158W        W99699  41.293   1.948  11.190
33159W        W99700  11.172  31.366  14.829
33160W        W99701  22.065  15.722   1.863
33161W        W99702   3.360  11.089   4.073
33162W        W99703  24.192   0.017   1.115
33163W        W99704   4.309  11.676   2.819
33164W        W99705  12.876  19.468  12.808
33165W        W99706  14.369   2.566  11.626
33166W        W99707  24.290  15.441   0.160
33167W        W99708  16.848  35.391   3.236
33168W        W99709   4.665  23.240   4.503
33169W        W99710   5.952  43.984   4.907
33170W        W99711  10.084  32.252   4.329
33171W        W99712  21.043  42.432   1.927
33172W        W99713  35.456  26.405   3.212
33173W        W99714  41.766   5.525  13.868
33174W        W99715  42.917  14.325  10.430
33175W        W99716  31.331  25.094  11.525
33176W        W99717  41.829  25.088   2.439
33177W        W99718  22.683  18.628  13.001
33178W        W99719  17.496  19.073   1.796
33179W        W99720  37.090  18.852   2.480
33180W        W99721  44.339  21.678  11.303
33181W        W99722  31.025  23.244  10.342
33182W        W99723  26.292   7.865  11.186
33183W        W99724  44.378  41.019  13.147
33184W        W99725  23.700   5.172   0.410
33185W        W99726  38.493  26.378   0.363
33186W        W99727  40.242  24.568   2.657
33187W        W99728  13.677  39.298   1.749
33188W        W99729  25.830  17.492   1.822
33189W        W99730  22.016  22.307  10.514
33190W        W99731  32.049  30.543   4.145
33191W        W99732  10.283  31.139   1.185
33192W        W99733  21.776  43.087   2.410
33193W        W99734  21.192  31.716  11.015
33194W        W99735  33.467  36.142  13.858
33195W        W99736   4.788   5.959  11.251
33196W        W99737  32.579  44.838  13.290
33197W        W99738  26.494  43.929   4.389
33198W        W99739  16.154   7.043  12.966
33199W        W99740  15.206  10.626  12.570
33200W        W99741  17.115   4.420  12.986
33201W        W99742   7.144  43.958   0.676
33202W        W99743   1.221  32.948  13.696
33203W        W99744   9.205  11.282  12.431
33204W        W99745  15.664  41.939   3.654
33205W        W99746  39.839  13.141  14.009
33206W        W99747  40.250  34.170  11.117
33207W        W99748  34.357  41.934   4.109
33208W        W99749  37.099  27.922   3.246
33209W        W99750  21.625  32.661  14.399
33210W        W99751  36.944   3.286  13.134
33211W        W99752   7.475  26.738   3.727
33212W        W99753  37.884  38.429   1.477
33213W        W99754  31.494  11.097  14.379
33214W        W99755  27.949   0.062  14.020
33215W        W99756   1.591  42.641  10.167
33216W        W99757  27.066   2.256  14.182
33217W        W99758   5.302  15.564  13.559
33218W        W99759   1.176  33.061  11.490
33219W        W99760   2.046   1.348  13.298
33220W        W99761  21.519  43.377   4.631
33221W        W99762  38.023   4.427   4.691
33222W        W99763   4.960  12.548  10.312
33223W        W99764  25.570  34.518   0.713
33224W        W99765  36.565  38.619   0.454
33225W        W99766  20.948   3.328   2.719
33226W        W99767   6.401  44.837   0.323
33227W        W99768  23.367   7.342   4.231
33228W        W99769   7.867  40.606  11.159
33229W        W99770  27.998  40.443  11.179
33230W        W99771  29.531   5.727   1.798
33231W        W99772  39.354  24.020   2.186
33232W        W99773  22.401  14.891   4.988
33233W        W99774   4.146  10.146   3.855
33234W        W99775  19.231   4.957   2.739
33235W        W99776  21.312  12.297  11.622
33236W        W99777  25.968   8.794  12.313
33237W        W99778   1.469  33.376   2.592
33238W        W99779  38.412  33.423   0.857
33239W        W99780   1.426   4.209  11.546
33240W        W99781  24.698  19.435  14.255
33241W        W99782  27.471  14.435   5.175
33242W        W99783  19.904   2.931   2.799
33243W        W99784  19.023  13.092  11.637
33244W        W99785   5.908  17.699  10.602
33245W        W99786  19.084  31.210  12.032
33246W        W99787  22.944  41.028   0.377
33247W        W99788   2.854   1.015   0.098
33248W        W99789  40.872   9.216   2.255
33249W        W99790   9.395  16.211  14.707
33250W        W99791  31.002  42.913   1.264
33251W        W99792  19.703  19.098   2.615
33252W        W99793  33.029  32.159   3.735
33253W        W99794  31.684   3.776   2.267
33254W        W99795  29.631  19.922  13.465
33255W        W99796  33.546  43.056  14.453
33256W        W99797  20.710   9.322   2.676
33257W        W99798  10.255   7.114  12.582
33258W        W99799   6.976  36.693  14.400
33259W        W99800   7.669  19.601  13.630
33260W        W99801   0.668  31.178  13.869
33261W        W99802  43.071   1.689  12.057
33262W        W99803  42.796  14.812  11.237
33263W        W99804  43.982  10.833  12.129
33264W        W99805  18.500   4.945   3.129
33265W        W99806  26.845  29.948   0.924
33266W        W99807  34.366  40.579   1.715
33267W        W99808  36.524   8.405  10.681
33268W        W99809  43.167   0.285   4.867
33269W        W99810   6.651  24.613  12.466
33270W        W99811  36.782   4.407   4.499
33271W        W99812  31.446  28.516  11.910
33272W        W99813  39.726  21.430   0.626
33273W        W99814  28.383  21.210   4.129
33274W        W99815  29.992  23.926   1.271
33275W        W99816  43.018   1.192  11.313
33276W        W99817  20.946  36.189   0.730
33277W        W99818  26.977  28.498   0.738
33278W        W99819  36.469  35.082  13.022
33279W        W99820  14.061  32.894   2.372
33280W        W99821  28.083  23.942  12.347
33281W        W99822  43.032  37.046  13.157
33282W        W99823  24.216   7.180  12.867
33283W        W99824  31.376  31.673   1.241
33284W        W99825  29.042  35.388  11.700
33285W        W99826   9.620  19.175   0.052
33286W        W99827   4.779  11.347   2.661
33287W        W99828  35.922  17.170   1.390
33288W        W99829  10.369  31.984   0.023
33289W        W99830  26.863  20.970  12.234
33290W        W99831  37.651  30.403   0.203
33291W        W99832  44.527  22.099  10.203
33292W        W99833  37.377  39.420  13.367
33293W        W99834  10.826  32.790   4.370
33294W        W99835  35.150  19.701   3.213
33295W        W99836   7.941  12.837   0.733
33296W        W99837  15.938  16.611  11.540
33297W        W99838   9.228  10.911  14.927
33298W        W99839   2.765  43.377   0.739
33299W        W99840   1.649  12.302  10.668
33300W        W99841  24.069  20.123   0.344
33301W        W99842   4.686  17.067   1.844
33302W        W99843   0.547  22.644  11.911
33303W        W99844  41.415  11.298  13.990
33304W        W99845   5.752   8.366  10.839
33305W        W99846  21.236  37.131   1.629
33306W        W99847   6.474  32.575   4.556
33307W        W99848  32.167  39.852   1.391
33308W        W99849  10.007   6.746   3.433
33309W        W99850  33.639  16.718   2.035
33310W        W99851  27.380  38.326   0.136
33311W        W99852  26.005  40.343   5.166
33312W        W99853  40.907  37.720  11.031
33313W        W99854  14.685  25.124  12.361
33314W        W99855  14.142  37.834  11.493
33315W        W99856   1.790  15.563  12.056
33316W        W99857  31.672  14.976  11.108
33317W        W99858  41.653   0.289  13.846
33318W        W99859  18.589  43.852   2.097
33319W        W99860  17.959   0.525  11.261
33320W        W99861  11.857  35.632   0.845
33321W        W99862  44.163  40.029   3.341
33322W        W99863  25.231  18.586  11.587
33323W        W99864  21.510  24.083   1.825
33324W        W99865  27.243   4.896   0.377
33325W        W99866  18.621  27.883   2.853
33326W        W99867  14.711  24.198   0.663
33327W        W99868  10.885  37.491  14.098
33328W        W99869  35.907  21.767   3.313
33329W        W99870  24.219  37.439   2.414
33330W        W99871  42.896  33.297   2.765
33331W        W99872  27.088  29.485   0.989
33332W        W99873  31.201  39.481  11.583
33333W        W99874  37.136  29.172   1.959
33334W        W99875  36.825  31.140  12.874
33335W        W99876  15.547  40.451   3.035
33336W        W99877  26.898  36.758   1.804
33337W        W99878   6.868  13.969  11.356
33338W        W99879  11.450   1.396   1.788
33339W        W99880   5.444  13.766   4.172
33340W        W99881  30.506  41.567  13.035
33341W        W99882   3.931  19.797  11.373
33342W        W99883  27.270  10.244  14.415
33343W        W99884  29.393  29.000   2.986
33344W        W99885  33.990  34.857  13.757
33345W        W99886  27.525  15.133   4.866
33346W        W99887   2.474  26.697   1.058
33347W        W99888  11.108  44.099   3.281
33348W        W99889  14.832  20.783   0.016
33349W        W99890  37.267  18.468  11.983
33350W        W99891   0.189  15.577  14.345
33351W        W99892  13.805  19.677   3.794
33352W        W99893  10.529  28.654  13.956
33353W        W99894  20.057   9.206   0.434
33354W        W99895  44.148  12.185  13.929
33355W        W99896  41.319  15.514  12.019
33356W        W99897   4.765  40.949   0.549
33357W        W99898   5.616  10.368  10.888
33358W        W99899  24.046  28.040  12.450
33359W        W99900  33.534  31.107  11.122
33360W        W99901  34.549   0.360   3.919
33361W        W99902  42.399   0.991   2.281
33362W        W99903  24.881  27.583  11.577
33363W        W99904  11.298  22.099  13.411
33364W        W99905   4.637  26.683   3.223
33365W        W99906  25.843   8.145  10.602
33366W        W99907  39.504  30.547  14.255
33367W        W99908  42.084  14.672  14.521
33368W        W99909  15.161   2.036  11.701
33369W        W99910  30.132  36.650  11.285
33370W        W99911  26.441  42.298   2.244
33371W        W99912  21.733  32.918   2.114
33372W        W99913  34.166  22.453   1.335
33373W        W99914  12.813  18.639  10.711
33374W        W99915  10.646  30.885  10.753
33375W        W99916   7.951  20.323  14.266
33376W        W99917  12.863  41.041  12.935
33377W        W99918  38.427  30.559  12.902
33378W        W99919  44.523  24.431  12.129
33379W        W99920  18.684  43.250  14.086
33380W        W99921  26.032  43.310   4.086
33381W        W99922  17.262   6.497   3.785
33382W        W99923   2.151  42.638  10.557
33383W        W99924  30.756   1.012   1.423
33384W        W99925  24.258  42.408   2.302
33385W        W99926   6.443   4.482  10.768
33386W        W99927  11.198   2.210   1.895
33387W        W99928  30.012  16.710   4.461
33388W        W99929   2.303  34.203  10.975
33389W        W99930  44.050  18.579   2.444
33390W        W99931  36.963  42.856  10.478
33391W        W99932  33.503  10.107   0.664
33392W        W99933  26.740  44.243   2.241
33393W        W99934  24.586  10.533   2.351
33394W        W99935  35.143  23.586   4.133
33395W        W99936  22.663  41.909  14.871
33396W        W99937   1.020  43.231  12.156
33397W        W99938  16.277  44.528   0.900
33398W        W99939  41.783   8.388   4.283
33399W        W99940  42.105  27.177  10.703
33400W        W99941  32.163  10.673  13.446
33401W        W99942  30.571  33.651  13.505
33402W        W99943  44.765  29.139   2.777
33403W        W99944  29.708   3.573   4.244
33404W        W99945  19.199  37.312   3.700
33405W        W99946  12.359  44.915   4.938
33406W        W99947  38.133  34.090   1.300
33407W        W99948  26.669  13.619   3.216
33408W        W99949  31.160  17.575  10.887
33409W        W99950   1.486   4.493   1.407
33410W        W99951  37.364   7.300   2.752
33411W        W99952  12.842   9.846   4.159
33412W        W99953  15.575  36.908   1.579
33413W        W99954   0.456   6.798   3.201
33414W        W99955  15.606   0.793  10.739
33415W        W99956  35.717   4.462  11.152
33416W        W99957  38.083  41.794   2.387
33417W        W99958  37.885  21.775   1.364
33418W        W99959   4.425  34.115  12.182
33419W        W99960  40.086  32.087   4.154
33420W        W99961  33.824  15.233  13.667
33421W        W99962  36.595  33.352  12.200
33422W        W99963  22.724  23.413  13.945
33423W        W99964  42.546  11.851  12.901
33424W        W99965  29.172   6.914   1.867
33425W        W99966  22.834  20.196   2.218
33426W        W99967   2.360  22.783  11.500
33427W        W99968   6.268   9.097  13.478
33428W        W99969  26.131  23.443  11.139
33429W        W99970  14.283  34.379  10.212
33430W        W99971  31.467  25.330  13.757
33431W        W99972   8.277   9.225  13.005
33432W        W99973   5.883   9.644  14.073
33433W        W99974  16.542  20.749   4.545
33434W        W99975  32.010  41.975  14.315
33435W        W99976  11.334  37.591  13.811
33436W        W99977  14.741   9.564   2.166
33437W        W99978  40.264  15.280  12.908
33438W        W99979  25.532   9.668  13.952
33439W        W99980  27.955   8.003  10.111
33440W        W99981  31.980  11.269   2.619
33441W        W99982   1.627   4.618   3.622
33442W        W99983   4.826  20.202   4.963
33443W        W99984  29.952   1.272   2.906
33444W        W99985  38.055  37.144   0.659
33445W        W99986   7.862  17.828  14.080
33446W        W99987   6.779  29.680  11.075
33447W        W99988   5.750  16.274  13.337
33448W        W99989  14.250  22.689   2.359
33449W        W99990  19.116  10.621  14.009
33450W        W99991  14.292  18.134  12.830
33451W        W99992  36.396  14.803   4.544
33452W        W99993  24.979  27.385  10.573
33453W        W99994   8.620  41.498   3.625
33454W        W99995   3.923  37.875  13.353
33455W        W99996  16.335  30.673   3.128
33456W        W99997  36.536  16.571   3.140
33457W        W99998  13.220  10.264  12.132
33458W        W99999   1.880  19.596  13.298
33459W        W    0  24.938   1.525  13.922
33460W        W    1  22.865  13.224   3.246
33461W        W    2  14.808  42.925   0.625
33462W        W    3   4.442  18.600  11.568
33463W        W    4  31.023  12.369  11.903
33464W        W    5  28.893   2.713  11.502
33465W        W    6   5.350  20.560  13.788
33466W        W    7   7.456  27.624  12.683
33467W        W    8  34.129  25.950   4.095
33468W        W    9   9.090   1.717  13.459
33469W        W   10   4.738  18.702   0.268
33470W        W   11  18.496  15.850  10.737
33471W        W   12  28.156  38.770  11.620
33472W        W   13  30.011   3.874   2.502
33473W        W   14   6.471  10.434  14.845
33474W        W   15   8.067  16.699   1.730
33475W        W   16  35.865  30.838  14.807
33476W        W   17  41.436  24.195   1.043
33477W        W   18   5.667   8.558   4.656
33478W        W   19  14.426  42.435  12.399
33479W        W   20  23.532   3.425   0.503
33480W        W   21   2.900  36.504  11.668
33481W        W   22  44.494   3.321   1.334
33482W        W   23   0.770  23.245  14.995
33483W        W   24  11.124  40.612   0.883
33484W        W   25  23.476  12.251   0.074
33485W        W   26  43.528  31.944  14.915
33486W        W   27  39.371  36.616  12.601
33487W        W   28  21.157  36.046  13.082
33488W        W   29  19.604  43.898   1.209
33489W        W   30  28.667   2.942   3.211
33490W        W   31  24.939  12.170   2.344
33491W        W   32   7.115  19.725  14.490
33492W        W   33  27.601   3.728   4.569
33493W        W   34   1.305  28.646  12.554
33494W        W   35  16.081  33.323   2.191
33495W        W   36  21.510  24.182  14.837
33496W        W   37  36.202  42.307   2.837
33497W        W   38  36.096  28.688  11.664
33498W        W   39  31.462   9.738  12.455
33499W        W   40  39.460  12.411   5.087
33500W        W   41  26.997   7.487   1.791
33501W        W   42  14.284  10.653  14.829
33502W        W   43   1.752   0.947  13.464
33503W        W   44  29.498  14.558  11.975
33504W        W   45  22.283  43.997  10.293
33505W        W   46  15.772   3.170  11.009
33506W        W   47  10.128  28.030  11.575
33507W        W   48  18.565  12.747   0.730
33508W        W   49  19.389   8.092   2.415
33509W        W   50   5.473  28.690   0.021
33510W        W   51   1.915   0.705   4.089
33511W        W   52  12.977  20.504   4.116
33512W        W   53  16.251   7.851  14.533
33513W        W   54  20.708  11.639   3.379
33514W        W   55  24.125  18.728   3.890
33515W        W   56  18.839  16.320   3.776
33516W        W   57  16.318  17.079   3.260
33517W        W   58  19.835   2.467  12.540
33518W        W   59  24.086   9.343  12.351
33519W        W   60  24.601  23.292   2.861
33520W        W   61   2.138  44.320   3.597
33521W        W   62  33.103  40.315   4.313
33522W        W   63  38.247  40.908   1.944
33523W        W   64  38.834  44.364   0.973
33524W        W   65   3.204  38.821   4.155
33525W        W   66  17.323  22.695   4.128
33526W        W   67  39.702  33.577   3.680
33527W        W   68  10.392  13.841  12.545
33528W        W   69  28.194   4.279  12.096
33529W        W   70  23.339  28.717   0.895
33530W        W   71  20.268  21.090  10.481
33531W        W   72  15.400   3.299   3.477
33532W        W   73  22.139  39.228   0.469
33533W        W   74  21.750  41.445  13.433
33534W        W   75  12.422   3.490   1.314
33535W        W   76  18.202  14.918   3.590
33536W        W   77   1.960  25.870   0.296
33537W        W   78  11.828   8.753   5.012
33538W        W   79  38.143  20.793  11.637
33539W        W   80  18.561  25.248   3.593
33540W        W   81  38.289  38.618   0.693
33541W        W   82  35.419   4.252   3.227
33542W        W   83   0.019  24.971  14.355
33543W        W   84   7.174  16.846   3.808
33544W        W   85  21.130  26.147  12.582
33545W        W   86  44.694  28.590  13.856
33546W        W   87  41.891  16.779  13.564
33547W        W   88  40.337  20.038   2.588
33548W        W   89  21.131  23.558   3.215
33549W        W   90  40.465  21.760   0.435
33550W        W   91  43.865  26.747  14.008
33551W        W   92  22.945  22.670  12.389
33552W        W   93  16.629  40.498  11.075
33553W        W   94  10.977  20.434   4.067
33554W        W   95  34.497  18.557  11.614
33555W        W   96  17.996  19.277   0.945
33556W        W   97  30.147  36.317   1.624
33557W        W   98  15.769  18.642  12.063
33558W        W   99  14.262  18.273  13.892
33559W        W  100   0.827  31.589  11.631
33560W        W  101  33.913  24.610   4.627
33561W        W  102  37.457  28.553  14.760
33562W        W  103   3.823  19.491   2.216
33563W        W  104  27.932  38.776  10.512
33564W        W  105  10.563  31.738  13.973
33565W        W  106   2.933  35.129  12.883
33566W        W  107   5.672   7.158  13.413
33567W        W  108  16.532  36.118   0.231
33568W        W  109  38.476  16.007   2.275
33569W        W  110  26.509   4.230   0.045
33570W        W  111  37.387  31.487   4.607
33571W        W  112   9.965  11.925   0.618
33572W        W  113  30.524  24.308   2.360
33573W        W  114  36.715   4.109   4.069
33574W        W  115   1.465  21.116   4.710
33575W        W  116  17.391   1.232  13.657
33576W        W  117  18.150   7.209   0.859
33577W        W  118  19.513  14.259   2.789
33578W        W  119  10.852  40.121   0.394
33579W        W  120  25.770  32.656  11.477
33580W        W  121  44.969  31.074  13.426
33581W        W  122   4.061  10.888   4.528
33582W        W  123  22.292  23.418   4.650
33583W        W  124  28.570  25.721   3.700
33584W        W  125  34.489  31.109  11.584
33585W        W  126  13.167   5.968   3.047
33586W        W  127   7.443  14.130  12.472
33587W        W  128  38.913   1.245   2.719
33588W        W  129  33.614  15.129  11.830
33589W        W  130   4.789   9.338  13.921
33590W        W  131  21.223  37.372   0.366
33591W        W  132  32.548  35.475   2.522
33592W        W  133  30.488   6.611   3.346
33593W        W  134  15.804  37.332   1.409
33594W        W  135  40.167  16.294   3.813
33595W        W  136  14.830  38.833  12.030
33596W        W  137  26.186  10.170   4.609
33597W        W  138  25.773  23.279   1.696
33598W        W  139  39.312  21.125  10.374
33599W        W  140  24.710   5.205  11.956
33600W        W  141   0.541  30.920   2.765
33601W        W  142  25.927  20.196  14.366
33602W        W  143  29.437  37.428   0.466
33603W        W  144  41.355  26.661  13.974
33604W        W  145  26.229   6.470  13.391
33605W        W  146  41.430  25.020  10.786
33606W        W  147   2.369  24.711   1.457
33607W        W  148   4.607  24.013   0.050
33608W        W  149  23.121  34.985   4.127
33609W        W  150  11.301   0.329  14.108
33610W        W  151   6.830  12.581  12.870
33611W        W  152  29.513  32.726  14.305
33612W        W  153   3.483  23.822   4.226
33613W        W  154  36.509  18.934   3.349
33614W        W  155  35.143  15.854   1.426
33615W        W  156  17.732  32.805  14.368
33616W        W  157  24.224  21.218   3.365
33617W        W  158  34.270  31.874   3.704
33618W        W  159   5.723  19.268  10.746
33619W        W  160  36.073   3.525  13.169
33620W        W  161   1.270  14.241  14.347
33621W        W  162  36.074  29.652  12.514
33622W        W  163  32.887   3.385  14.978
33623W        W  164  41.719  13.285   0.825
33624W        W  165  40.164  14.659  11.081
33625W        W  166  12.227  24.885  14.364
33626W        W  167  38.560  32.003  13.322
33627W        W  168  26.104  17.557   1.359
33628W        W  169  27.262   9.307  13.599
33629W        W  170  33.164  26.125  11.223
33630W        W  171  35.099  36.747  11.119
33631W        W  172  22.563  23.291  13.420
33632W        W  173  33.438  40.288   1.216
33633W        W  174  19.688   8.169  10.624
33634W        W  175  14.283  27.588   3.659
33635W        W  176  41.077  16.743  10.216
33636W        W  177  42.522  25.935  13.639
33637W        W  178  18.716  29.568  10.443
33638W        W  179  26.166  17.836  11.996
33639W        W  180  37.310  32.201   3.306
33640W        W  181  13.205  12.159  13.886
33641W        W  182  27.382   1.976  14.511
33642W        W  183  43.588  37.390  14.275
33643W        W  184  14.097   4.887   0.224
33644W        W  185  18.314   5.237   1.409
33645W        W  186  26.822  29.290   2.125
33646W        W  187  16.327   2.321   3.210
33647W        W  188  21.009   0.924   2.821
33648W        W  189  17.880   3.679   4.419
33649W        W  190  13.123  29.713  12.359
33650W        W  191  12.527  38.965   1.886
33651W        W  192  43.641   5.169   2.745
33652W        W  193  33.712  40.461  14.282
33653W        W  194  44.425  16.023   4.655
33654W        W  195   7.665  38.812  12.887
33655W        W  196  29.892  39.255   2.727
33656W        W  197  25.395  34.027  11.683
33657W        W  198   9.260  17.038  11.590
33658W        W  199   4.130  10.350  10.982
33659W        W  200  41.383  19.465  14.398
33660W        W  201  29.729  36.142  13.352
33661W        W  202  32.771  33.885   4.227
33662W        W  203  30.731  41.942   1.736
33663W        W  204  43.006  37.706  13.473
33664W        W  205  36.508  11.859  11.872
33665W        W  206  36.117  26.970   2.110
33666W        W  207  32.631  27.020  10.375
33667W        W  208  35.609  25.917   3.300
33668W        W  209   1.887  14.795   2.333
33669W        W  210  28.511   8.212   4.009
33670W        W  211  33.372  13.859  14.500
33671W        W  212   3.747  24.100  12.927
33672W        W  213  23.547  34.735   3.334
33673W        W  214   1.770   4.257   0.190
33674W        W  215  40.239  22.662   2.355
33675W        W  216  22.126   8.643  10.974
33676W        W  217  16.586  33.157   2.141
33677W        W  218  41.492   8.231  12.642
33678W        W  219  11.670  36.470  14.723
33679W        W  220  20.986  31.065   1.314
33680W        W  221   1.713  38.029  11.312
33681W        W  222  12.168   6.219  12.413
33682W        W  223  16.674  34.010   4.530
33683W        W  224  11.825  14.652  10.444
33684W        W  225  10.645  19.398   0.898
33685W        W  226  44.920  18.649   1.920
33686W        W  227  42.480  39.879   2.842
33687W        W  228  31.950   2.953  10.359
33688W        W  229   8.994  42.834  10.608
33689W        W  230   3.793  44.514   0.824
33690W        W  231   9.673   9.596  13.988
33691W        W  232  37.602  28.954  13.080
33692W        W  233  34.100  18.824   1.455
33693W        W  234  35.400  27.432   1.474
33694W        W  235  43.054  12.292   1.242
33695W        W  236  15.625   2.255  10.692
33696W        W  237  42.736  12.609  13.384
33697W        W  238  18.009  11.283  14.705
33698W        W  239  24.925  41.897  13.528
33699W        W  240   5.963  23.200   1.246
33700W        W  241  30.516   2.160   0.471
33701W        W  242  30.140  28.717   0.523
33702W        W  243  19.295  16.740  14.648
33703W        W  244  42.299   0.543   2.547
33704W        W  245   0.058  32.079  12.365
33705W        W  246   2.327  40.389   2.097
33706W        W  247   0.908  14.268  12.609
33707W        W  248  14.824  14.668   2.649
33708W        W  249  34.972   4.429   3.395
33709W        W  250  22.701  41.373   0.057
33710W        W  251  18.453  39.008   3.645
33711W        W  252  40.887   7.600  10.722
33712W        W  253   7.007  21.018  14.328
33713W        W  254  28.329  40.355   2.770
33714W        W  255  16.792   9.115   4.497
33715W        W  256  19.608  24.645   4.582
33716W        W  257  31.578  25.711   0.042
33717W        W  258  23.278  25.618   4.303
33718W        W  259  21.483  38.688  11.185
33719W        W  260   2.381  26.055   1.400
33720W        W  261  25.586   0.754  10.784
33721W        W  262  20.750   4.663  14.782
33722W        W  263  31.550   9.666   3.723
33723W        W  264  34.602  25.460   4.262
33724W        W  265  19.796  28.089  10.745
33725W        W  266  33.497  33.549   0.015
33726W        W  267  34.674  16.699  11.132
33727W        W  268  43.506  13.306   1.813
33728W        W  269  22.139  19.469  11.183
33729W        W  270  38.011  14.381  12.579
33730W        W  271  36.222   7.653  14.380
33731W        W  272  25.955  18.340   4.747
33732W        W  273  42.069   1.465  14.917
33733W        W  274  20.114   6.783  11.545
33734W        W  275  34.231  29.316  11.577
33735W        W  276   7.384  36.759   5.006
33736W        W  277  23.020  34.975  13.323
33737W        W  278  32.518   6.280  10.648
33738W        W  279  28.149  21.908   3.974
33739W        W  280  17.350  28.060   4.109
33740W        W  281  21.724  42.186   1.024
33741W        W  282  17.047  36.350  10.704
33742W        W  283  31.094  13.050  13.937
33743W        W  284  11.458   6.412  12.021
33744W        W  285   2.583  43.169   1.895
33745W        W  286  12.343  42.712   0.498
33746W        W  287  19.970   3.378   0.502
33747W        W  288  26.717  38.992   2.937
33748W        W  289   3.773   7.821   4.420
33749W        W  290  17.221  23.645  11.928
33750W        W  291  27.712  26.482  10.599
33751W        W  292   5.451   3.587   4.852
33752W        W  293  24.316  19.914  14.931
33753W        W  294  23.105   5.661  13.120
33754W        W  295  11.439   8.701  13.022
33755W        W  296  19.819   6.928  13.995
33756W        W  297  15.621  36.368   2.313
33757W        W  298   5.053   7.659   1.920
33758W        W  299  16.835  26.927  12.046
33759W        W  300  30.616  18.754   4.329
33760W        W  301  34.030  42.117  11.539
33761W        W  302  31.060  13.433   4.493
33762W        W  303   5.604  26.648   1.888
33763W        W  304  18.198  32.592  11.635
33764W        W  305  15.116  20.251  12.419
33765W        W  306  42.254  35.156   2.808
33766W        W  307  40.496  36.847   1.978
33767W        W  308  13.286  13.331  10.659
33768W        W  309  21.522   1.337   0.080
33769W        W  310  25.728  30.618   1.580
33770W        W  311  27.231  32.662  13.826
33771W        W  312  13.780  44.226   4.731
33772W        W  313  29.735  37.458   4.552
33773W        W  314   5.526   9.036  13.470
33774W        W  315  24.534  27.919   0.843
33775W        W  316  19.513   9.344  14.115
33776W        W  317  32.978  25.405   0.382
33777W        W  318  21.205  26.505  11.772
33778W        W  319   0.268  33.280   4.407
33779W        W  320   4.431  42.621   5.023
33780W        W  321  11.361  13.841  11.148
33781W        W  322  37.411   1.329  14.084
33782W        W  323  26.536   8.041  13.269
33783W        W  324  23.158  10.099  12.313
33784W        W  325  37.571  24.065   5.388
33785W        W  326  27.212   9.300  12.579
33786W        W  327   6.974  20.245   2.667
33787W        W  328  15.241  41.962   4.815
33788W        W  329  27.131  14.779   4.980
33789W        W  330  32.945  30.868   4.258
33790W        W  331  42.927  24.185   3.460
33791W        W  332  21.561  38.153  11.159
33792W        W  333  43.890  28.429   4.509
33793W        W  334   1.520  37.510   0.310
33794W        W  335   6.721  21.685  13.773
33795W        W  336  28.206   6.055   0.177
33796W        W  337  41.493  27.981  14.508
33797W        W  338  23.640  16.723   4.020
33798W        W  339  17.564  26.517   4.407
33799W        W  340   8.251  22.116  13.270
33800W        W  341  13.273  22.797   2.376
33801W        W  342  16.114   7.356  14.425
33802W        W  343  38.505  44.417  13.724
33803W        W  344  11.385  21.028  11.579
33804W        W  345  30.435   7.764  12.506
33805W        W  346   8.356  13.987  14.472
33806W        W  347  31.462   2.425  11.497
33807W        W  348  15.268  17.316   4.174
33808W        W  349  31.649  34.512   2.871
33809W        W  350  34.492  15.466  10.753
33810W        W  351  35.948  30.088  14.301
33811W        W  352  12.283  34.453   1.830
33812W        W  353  28.107  31.528  11.569
33813W        W  354  42.884   4.858   1.993
33814W        W  355  29.692  10.247  13.014
33815W        W  356  32.967   6.179  14.324
33816W        W  357  12.089  14.525   1.758
33817W        W  358  42.252   3.679  12.836
33818W        W  359  26.085  35.214   2.370
33819W        W  360  21.331  21.202  14.700
33820W        W  361  19.595  25.791   4.086
33821W        W  362   7.073  27.002  11.232
33822W        W  363  21.177  16.979   3.715
33823W        W  364  38.344  12.279   1.726
33824W        W  365   7.927  26.061   1.865
33825W        W  366  26.015  12.251  11.520
33826W        W  367   7.887  21.276  14.530
33827W        W  368  24.876   2.746   2.512
33828W        W  369  25.149  37.842   2.402
33829W        W  370  29.920  17.231  13.748
33830W        W  371  29.059  44.703   5.097
33831W        W  372   9.157  44.538   3.338
33832W        W  373   0.371  39.575  14.511
33833W        W  374   0.455  38.800   2.279
33834W        W  375  11.817  44.559   0.900
33835W        W  376  22.713  31.032   3.612
33836W        W  377  26.611   1.666   9.992
33837W        W  378   3.580  20.536  11.164
33838W        W  379  27.669  13.257   4.161
33839W        W  380   9.938  17.344  10.550
33840W        W  381  19.184  35.216  10.743
33841W        W  382   0.040  39.861  14.837
33842W        W  383   3.922  37.636  11.495
33843W        W  384   6.094  13.280  13.676
33844W        W  385   9.761   8.734  12.504
33845W        W  386  42.833  16.633   4.924
33846W        W  387  39.878  18.337   4.425
33847W        W  388  33.810  24.652   0.859
33848W        W  389   7.281  27.084  12.820
33849W        W  390   4.347  18.253   2.578
33850W        W  391  40.887  35.028  12.393
33851W        W  392  14.168  22.273   3.485
33852W        W  393  43.038  11.686   1.499
33853W        W  394  31.281  29.640   4.533
33854W        W  395  30.673  36.535  12.804
33855W        W  396  41.210   8.399   0.398
33856W        W  397  40.645  33.453   3.678
33857W        W  398  14.795   3.893   1.456
33858W        W  399  37.107  21.790  13.025
33859W        W  400  23.464  41.910   1.213
33860W        W  401  35.991  27.903   2.248
33861W        W  402  26.323  34.833  13.416
33862W        W  403  23.114  37.031   4.008
33863W        W  404  38.876  34.541   3.195
33864W        W  405  44.443   8.192  10.678
33865W        W  406  23.686   6.715  12.537
33866W        W  407  42.597  27.053  10.706
33867W        W  408  33.374  27.985  14.846
33868W        W  409   6.766  35.876  13.240
33869W        W  410   7.875  21.547  11.311
33870W        W  411  26.127   1.836  11.177
33871W        W  412  42.505  13.102   1.704
33872W        W  413   5.816  21.462  10.978
33873W        W  414   7.172   3.261  11.063
33874W        W  415  35.029  23.597   1.332
33875W        W  416  15.461   1.190  14.680
33876W        W  417  44.533  11.429  14.767
33877W        W  418  18.203   3.146   1.487
33878W        W  419  36.626  39.381   0.758
33879W        W  420  29.824  18.741   0.914
33880W        W  421   2.695  12.216  12.178
33881W        W  422   5.854  20.616  14.770
33882W        W  423  18.119  17.540  11.905
33883W        W  424   8.779  20.696  13.244
33884W        W  425   9.172  17.598  14.557
33885W        W  426  20.153  38.056   3.262
33886W        W  427  35.067  20.740  13.518
33887W        W  428   1.001  37.972   2.085
33888W        W  429  16.711  32.055  11.671
33889W        W  430   2.347  44.116  14.338
33890W        W  431  23.505   3.392   2.682
33891W        W  432  29.699   0.325   1.091
33892W        W  433  15.036   9.859   3.808
33893W        W  434  15.586  44.497   1.264
33894W        W  435  33.639  21.774  11.008
33895W        W  436  17.603   7.989   1.982
33896W        W  437  14.933  21.134  13.624
33897W        W  438  17.574  13.634  10.667
33898W        W  439  30.347   7.914  13.258
33899W        W  440  19.086  15.705   3.243
33900W        W  441   4.315  20.380   2.423
33901W        W  442  12.137  42.950   2.018
33902W        W  443  27.910  40.392   3.125
33903W        W  444  16.917  44.409  11.427
33904W        W  445  15.390   1.335  12.385
33905W        W  446  24.464   6.947  13.432
33906W        W  447  25.756  37.302   4.546
33907W        W  448  33.482  31.554   0.754
33908W        W  449  29.846  37.008   0.930
33909W        W  450   7.488  38.971  13.898
33910W        W  451  12.730  30.424   5.296
33911W        W  452  39.929  44.291   4.699
33912W        W  453  15.566  43.217   1.829
33913W        W  454  22.036  31.358  12.085
33914W        W  455  44.025  29.561   2.180
33915W        W  456  26.892  27.579  13.361
33916W        W  457  11.965  38.520   3.185
33917W        W  458  34.597  28.225   2.340
33918W        W  459  39.829   1.146  13.609
33919W        W  460  30.661  29.699  13.074
33920W        W  461  20.014  15.161   2.448
33921W        W  462  27.863   1.364   2.376
33922W        W  463  33.839  24.842  12.487
33923W        W  464  23.049  37.408   2.903
33924W        W  465  22.695  23.937   3.774
33925W        W  466  29.514  23.538   9.934
33926W        W  467   3.929  10.813   1.394
33927W        W  468  36.225  40.810   1.841
33928W        W  469  33.450  12.085   2.709
33929W        W  470  24.474  27.555   3.269
33930W        W  471  10.811   5.407   1.569
33931W        W  472   2.199  40.332  11.072
33932W        W  473  12.283  33.283   3.962
33933W        W  474   2.060  33.448  11.622
33934W        W  475  24.735   1.960   1.271
33935W        W  476  24.924  24.203   2.257
33936W        W  477  32.856  16.679  13.097
33937W        W  478  22.542  23.028  12.377
33938W        W  479  24.373   3.999  14.075
33939W        W  480   8.264   1.571   0.809
33940W        W  481  33.656  41.856  11.086
33941W        W  482  44.083  12.389  14.778
33942W        W  483  33.960  15.279  13.171
33943W        W  484  10.064   3.435  13.617
33944W        W  485  37.417   6.900   3.427
33945W        W  486  28.986   3.004   2.724
33946W        W  487  30.704  35.908   0.381
33947W        W  488   1.808   3.857   0.567
33948W        W  489   6.589   6.747  11.127
33949W        W  490  22.096  35.958   2.473
33950W        W  491  35.172  44.703  12.900
33951W        W  492  27.319  39.356   0.447
33952W        W  493  22.090  39.315   1.364
33953W        W  494  10.231   1.507  13.891
33954W        W  495  44.343  22.776   0.304
33955W        W  496   2.759  10.284   0.423
33956W        W  497  10.394  39.876   0.492
33957W        W  498   8.851  35.109   1.801
33958W        W  499  35.084   0.997  13.937
33959W        W  500  42.541  29.571   3.703
33960W        W  501  40.511  18.472  11.820
33961W        W  502  21.287  10.688  14.436
33962W        W  503   8.496  21.384   4.226
33963W        W  504   7.390  12.870   1.648
33964W        W  505  28.192  42.414   3.868
33965W        W  506  12.743  41.870  14.968
33966W        W  507  14.174  41.497  12.764
33967W        W  508  10.885  37.412  10.544
33968W        W  509   9.978   8.345  10.364
33969W        W  510   6.092  33.700  10.148
33970W        W  511   9.358  18.239  10.687
33971W        W  512  35.400   0.227  12.166
33972W        W  513  15.101   0.611  12.340
33973W        W  514  34.945  36.128   2.874
33974W        W  515   8.128   1.723   2.056
33975W        W  516  40.964  31.176   3.764
33976W        W  517  25.996  27.577  13.269
33977W        W  518  44.021   5.617   1.936
33978W        W  519  13.156   9.163  11.565
33979W        W  520  40.016  35.990   1.648
33980W        W  521  17.745  29.016   0.770
33981W        W  522  33.808  31.685   0.365
33982W        W  523  42.339  27.631   4.360
33983W        W  524  11.899   7.181  13.014
33984W        W  525  32.110  16.762  14.413
33985W        W  526  36.911  18.479   4.172
33986W        W  527  40.796  10.101  14.044
33987W        W  528  24.559   7.202   4.699
33988W        W  529  31.439   4.397   1.534
33989W        W  530  30.083  33.069   2.502
33990W        W  531  25.659  30.018   3.369
33991W        W  532  12.854  10.319   4.911
33992W        W  533  42.884  42.234   1.748
33993W        W  534  28.004  37.810   4.311
33994W        W  535  28.690   0.945   0.918
33995W        W  536   6.814   3.177  10.678
33996W        W  537   5.161  22.019  12.576
33997W        W  538   4.285  16.619  11.649
33998W        W  539  34.504  38.531  12.921
33999W        W  540   6.449   7.257   2.240
34000W        W  541  38.668   4.385  11.973
34001W        W  542   5.136   5.248  11.259
34002W        W  543  11.373   4.490  12.195
34003W        W  544   6.368  21.336  11.538
34004W        W  545   2.851  15.202  11.608
34005W        W  546   7.512  24.535   9.869
34006W        W  547  41.255   4.402   2.309
34007W        W  548  12.250  26.531  13.227
34008W        W  549  39.464  29.025   1.673
34009W        W  550  10.616  33.435   2.850
34010W        W  551   5.596   6.237  12.445
34011W        W  552  23.460  17.274  12.245
34012W        W  553  24.948  13.733  13.013
34013W        W  554  11.229  37.534  11.538
34014W        W  555   0.053  32.458   1.337
34015W        W  556  18.076  38.441   4.332
34016W        W  557  25.185  40.033  13.572
34017W        W  558  21.589   4.149   4.031
34018W        W  559  18.338  44.323   4.638
34019W        W  560  14.625  10.160  13.846
34020W        W  561  31.963  13.070   1.860
34021W        W  562  12.268  36.563  10.913
34022W        W  563  11.830  30.993   2.168
34023W        W  564  17.263  43.914  13.935
34024W        W  565   7.379  35.679   1.689
34025W        W  566  23.677  37.498   0.799
34026W        W  567  18.106  36.739   0.731
34027W        W  568  21.576  27.457  11.577
34028W        W  569   4.392   8.835   1.469
34029W        W  570  44.050  39.417  14.900
34030W        W  571  10.433  15.176   0.331
34031W        W  572  24.407  14.645   2.187
34032W        W  573  20.619  15.827  14.850
34033W        W  574  37.971  40.494   3.421
34034W        W  575   1.267  10.320  12.358
34035W        W  576   4.705  38.365   5.039
34036W        W  577  31.478  12.116   3.703
34037W        W  578  28.426   5.431  10.931
34038W        W  579  17.397  19.174   2.328
34039W        W  580  33.673   2.412   2.221
34040W        W  581   0.917   5.115   0.484
34041W        W  582  41.298  37.320  14.284
34042W        W  583  33.426  17.207   3.136
34043W        W  584  33.924  21.292  10.483
34044W        W  585  24.769  42.438   3.132
34045W        W  586  18.295   0.449  12.170
34046W        W  587  29.104   0.899   4.032
34047W        W  588  39.275  40.311  10.445
34048W        W  589  23.861  23.463   4.469
34049W        W  590  37.469  13.524   2.438
34050W        W  591  35.070  42.252  10.659
34051W        W  592  17.520  41.776  14.589
34052W        W  593   3.096  43.128   1.860
34053W        W  594   6.222  14.224  10.712
34054W        W  595  44.928  17.633  13.439
34055W        W  596   4.301   7.355   3.259
34056W        W  597   1.122   1.943   0.770
34057W        W  598  21.177  21.945  12.041
34058W        W  599  34.875   0.586  11.163
34059W        W  600  20.585  19.706  14.722
34060W        W  601  17.744  12.690   3.913
34061W        W  602  27.731   9.495  11.247
34062W        W  603  36.119   7.290  11.529
34063W        W  604   3.029  27.136  12.462
34064W        W  605   2.881  19.637   4.561
34065W        W  606  38.086  30.101   3.303
34066W        W  607  31.108  28.204   3.237
34067W        W  608  23.786   0.286   1.291
34068W        W  609  24.724  39.459   3.224
34069W        W  610  11.744  22.494   0.513
34070W        W  611  39.582  14.707  11.955
34071W        W  612  15.652   6.303  13.044
34072W        W  613   4.697  33.377  12.540
34073W        W  614  16.767  44.258   3.394
34074W        W  615  30.681   1.288   3.238
34075W        W  616  35.869  24.135  13.986
34076W        W  617  26.460   5.980   4.539
34077W        W  618  15.307  41.834  10.877
34078W        W  619   8.367  33.498   3.674
34079W        W  620  25.691  38.954  11.091
34080W        W  621  40.649  11.856   3.172
34081W        W  622  39.803   1.105   0.483
34082W        W  623  12.126   4.657   0.417
34083W        W  624  25.526   5.275  11.973
34084W        W  625  27.964  17.359   4.023
34085W        W  626   6.349   8.384   3.089
34086W        W  627  26.613  10.530   1.377
34087W        W  628  23.326   9.216  11.184
34088W        W  629   0.957  16.617  12.034
34089W        W  630  12.840  30.539   0.573
34090W        W  631  43.368  18.966   1.043
34091W        W  632  11.678   7.274  11.633
34092W        W  633  42.267  37.015  12.467
34093W        W  634   3.698  36.026  10.518
34094W        W  635  26.342   2.812  11.109
34095W        W  636  28.060   9.357   2.760
34096W        W  637   0.075  15.251  11.600
34097W        W  638   6.518  19.736   3.743
34098W        W  639  14.096  19.023   0.738
34099W        W  640  32.974   6.718   2.210
34100W        W  641   9.254  23.912   0.457
34101W        W  642  35.005   3.124   3.804
34102W        W  643  15.183  32.654  13.384
34103W        W  644  38.059  29.165   4.187
34104W        W  645  29.624  31.205   2.364
34105W        W  646  21.731  42.604   1.322
34106W        W  647   1.321  11.402   1.300
34107W        W  648  36.096  18.394  12.681
34108W        W  649   1.032  15.381  11.431
34109W        W  650  43.865  21.862  11.088
34110W        W  651  27.002   7.787  10.549
34111W        W  652  18.522  34.974  14.913
34112W        W  653  26.556  34.323  14.466
34113W        W  654  41.870  36.385  10.742
34114W        W  655  30.721  28.756   2.478
34115W        W  656  41.638  27.983   4.609
34116W        W  657  36.988  38.486   1.653
34117W        W  658  27.107   5.318  10.742
34118W        W  659  23.972  36.586   1.283
34119W        W  660  12.589  34.992   3.594
34120W        W  661  41.561   3.897  14.249
34121W        W  662  18.307   3.919  13.553
34122W        W  663  41.735  19.753   0.907
34123W        W  664   6.263  33.679   2.350
34124W        W  665  21.352  30.992  13.546
34125W        W  666  17.972  18.258   4.732
34126W        W  667  37.827  12.205   2.465
34127W        W  668  32.673   1.293   2.263
34128W        W  669  44.945  36.116  13.919
34129W        W  670  20.701   6.157  10.200
34130W        W  671  29.454  18.693   1.319
34131W        W  672  12.073   6.353   3.718
34132W        W  673  22.630   2.146  13.069
34133W        W  674   4.941  15.106  10.259
34134W        W  675  28.522   3.675   4.082
34135W        W  676  42.853  43.455   3.142
34136W        W  677   0.177  18.655  12.609
34137W        W  678  35.073  22.486  13.072
34138W        W  679  18.670  31.376   2.145
34139W        W  680  27.609  11.677   3.770
34140W        W  681  19.676  36.901  14.789
34141W        W  682  21.062   9.903  14.783
34142W        W  683  24.604  28.378  13.056
34143W        W  684  26.156  36.592   4.194
34144W        W  685  44.289  21.680   1.253
34145W        W  686  11.712  30.963   1.652
34146W        W  687   5.229   9.785  10.565
34147W        W  688   6.226  31.774   2.738
34148W        W  689   5.243   2.063   3.120
34149W        W  690  14.432   7.051   9.873
34150W        W  691  21.316   7.354  11.567
34151W        W  692  14.365  39.878   4.302
34152W        W  693  32.709  16.784   1.956
34153W        W  694  29.581  15.868  10.297
34154W        W  695  35.983  14.848   4.074
34155W        W  696  25.967  34.466  10.729
34156W        W  697   1.222  42.309  13.293
34157W        W  698  44.085  33.015  12.557
34158W        W  699   6.689  27.141  14.413
34159W        W  700   6.317   7.907   3.349
34160W        W  701   8.642  38.224  13.471
34161W        W  702  40.942  31.131  14.831
34162W        W  703  38.917  11.106   3.237
34163W        W  704  18.614  31.699  12.342
34164W        W  705  43.542  29.383   3.579
34165W        W  706  10.720   3.707  12.081
34166W        W  707  33.149  25.438   4.074
34167W        W  708  24.751  11.708  14.773
34168W        W  709  15.014   7.748   3.241
34169W        W  710  36.529  40.735   4.874
34170W        W  711  13.589  12.769   1.415
34171W        W  712  30.887  19.117   0.399
34172W        W  713  32.524  33.542   3.037
34173W        W  714  30.915   8.202   2.679
34174W        W  715  33.860  31.434  13.569
34175W        W  716  43.982  19.728   3.315
34176W        W  717  41.479   5.669   3.294
34177W        W  718   2.778  43.731   2.487
34178W        W  719   4.501  18.250   4.645
34179W        W  720  29.624  15.268  10.954
34180W        W  721  38.451  35.606   0.875
34181W        W  722  35.520   8.858   0.239
34182W        W  723  11.627  15.151  13.110
34183W        W  724  16.638  27.084   3.698
34184W        W  725   4.673  22.032   0.415
34185W        W  726  17.532  12.056   0.363
34186W        W  727  40.249  16.953   2.254
34187W        W  728  31.013  28.121   1.021
34188W        W  729  21.218   0.487  14.067
34189W        W  730  32.127   0.939   3.325
34190W        W  731  11.739  37.474  11.649
34191W        W  732  31.315  25.364  10.255
34192W        W  733  44.645   7.658  12.605
34193W        W  734  39.492  11.165   2.840
34194W        W  735  31.665  27.341  14.305
34195W        W  736   9.752  16.519   3.188
34196W        W  737   5.953  28.946  11.633
34197W        W  738   9.323  44.699  14.577
34198W        W  739  19.920  33.446  14.985
34199W        W  740   7.313  35.903   4.615
34200W        W  741  44.840  29.824  14.618
34201W        W  742   0.712  44.939  11.161
34202W        W  743  35.144  43.627   1.414
34203W        W  744  19.430  43.410   0.885
34204W        W  745   7.915   2.655  11.118
34205W        W  746  36.951  37.604   3.719
34206W        W  747  40.556  31.551  14.187
34207W        W  748   7.295  29.578   2.135
34208W        W  749  17.829  13.712   3.410
34209W        W  750  34.715  14.619  13.836
34210W        W  751   3.985   9.010   1.201
34211W        W  752   7.443   2.944  13.147
34212W        W  753  11.506  16.519   0.777
34213W        W  754  19.580  17.543  13.580
34214W        W  755  24.820   9.336   3.602
34215W        W  756  12.523  18.017   0.481
34216W        W  757  13.353   8.274  12.890
34217W        W  758  10.098  19.622  11.535
34218W        W  759  38.427   1.050   2.803
34219W        W  760  36.927  11.957   2.776
34220W        W  761  36.441  38.413   4.608
34221W        W  762  23.592   5.465  13.596
34222W        W  763  35.340  39.467  13.461
34223W        W  764  26.247  41.346  14.518
34224W        W  765   0.829  32.123  11.619
34225W        W  766   6.754   1.733  13.420
34226W        W  767  33.365  28.221   2.672
34227W        W  768   4.810  23.609  14.793
34228W        W  769  39.889  37.409  11.242
34229W        W  770   4.751  24.464  11.859
34230W        W  771   8.726  33.981   0.461
34231W        W  772   5.277  19.828  10.980
34232W        W  773   8.914   9.895  12.706
34233W        W  774  40.769  37.480   3.721
34234W        W  775  29.435   2.754   4.320
34235W        W  776  22.974  24.158  12.559
34236W        W  777  33.098   5.366  13.290
34237W        W  778   0.563   0.483  10.471
34238W        W  779  27.673   8.893  13.540
34239W        W  780  11.029  16.617   2.609
34240W        W  781  12.927  21.006   4.412
34241W        W  782  36.160  17.995  11.088
34242W        W  783   7.358  31.310  11.979
34243W        W  784  43.594  20.552   2.395
34244W        W  785  15.208  23.513  11.799
34245W        W  786  15.712   5.457   0.443
34246W        W  787  31.656   7.134  14.078
34247W        W  788  13.598  26.416  12.525
34248W        W  789  28.277  35.138   1.924
34249W        W  790   0.878  41.838  10.759
34250W        W  791  39.950  12.143   5.404
34251W        W  792  18.953  33.350  13.947
34252W        W  793   1.265  22.056   0.912
34253W        W  794  20.080   4.749   1.159
34254W        W  795  36.636  14.071  13.171
34255W        W  796  19.840  12.070  11.963
34256W        W  797  11.978   0.803  11.013
34257W        W  798  11.572  37.947  11.499
34258W        W  799  23.644  35.359   1.377
34259W        W  800   8.974  37.467   0.442
34260W        W  801  11.489   0.896   2.114
34261W        W  802  15.006  14.294   0.806
34262W        W  803  34.141  15.745   0.489
34263W        W  804  25.985  26.096   0.751
34264W        W  805   1.249  23.200   0.224
34265W        W  806  44.325   8.054  14.420
34266W        W  807  14.949  22.756  10.310
34267W        W  808  10.794  25.931   1.727
34268W        W  809  24.150  17.371   0.269
34269W        W  810   3.986   5.852  10.765
34270W        W  811   9.232  24.626  11.577
34271W        W  812  33.970  32.623   1.359
34272W        W  813  16.177  13.749   2.931
34273W        W  814  22.699  31.525   4.560
34274W        W  815  33.848   6.838  10.883
34275W        W  816  35.840  21.112  13.506
34276W        W  817  44.487  19.802  14.774
34277W        W  818  31.149  40.989  12.813
34278W        W  819  29.213  28.167   1.106
34279W        W  820   0.538   7.736   3.645
34280W        W  821  29.794  21.619  12.529
34281W        W  822   4.311   0.484  14.737
34282W        W  823   7.730   6.814  14.982
34283W        W  824  17.216   8.454  11.607
34284W        W  825  35.458  40.987  14.246
34285W        W  826  27.125  37.573   1.313
34286W        W  827  22.682  39.897   4.296
34287W        W  828  41.023  42.019   1.634
34288W        W  829  27.608  20.691  14.564
34289W        W  830  43.323  16.450   2.266
34290W        W  831   5.992  37.801   1.375
34291W        W  832  38.644  30.004  12.871
34292W        W  833  28.450  13.316   1.446
34293W        W  834  21.474  34.784  12.453
34294W        W  835  25.512  28.670  13.631
34295W        W  836  15.672  38.289  10.552
34296W        W  837   6.070   2.760  14.338
34297W        W  838  21.499  19.337   2.343
34298W        W  839  19.771   9.657  14.457
34299W        W  840  17.136  25.882   3.527
34300W        W  841   5.060  40.273  13.346
34301W        W  842  39.396  14.642   2.879
34302W        W  843   2.703   3.332  13.083
34303W        W  844  12.171  35.689  13.893
34304W        W  845   5.921  26.510   1.302
34305W        W  846  17.319  27.162   3.089
34306W        W  847  44.848  35.396   4.129
34307W        W  848  12.283  43.105  12.536
34308W        W  849  41.054  17.040   3.392
34309W        W  850  35.794   5.843  12.869
34310W        W  851  11.164  23.154  10.933
34311W        W  852  39.073  42.592  14.781
34312W        W  853   0.249  32.381   2.671
34313W        W  854   1.243  14.510  13.777
34314W        W  855   3.232  18.536   4.430
34315W        W  856  33.273  20.100   1.953
34316W        W  857   8.932  41.188   3.342
34317W        W  858  21.242  12.750   0.349
34318W        W  859  12.491  42.998   2.967
34319W        W  860  34.583  42.057  13.029
34320W        W  861  41.420   7.390   1.971
34321W        W  862  27.981  40.666  12.574
34322W        W  863  39.995  15.358  11.502
34323W        W  864  22.109  13.679   9.536
34324W        W  865  23.611  17.963   4.636
34325W        W  866  42.850  18.447   3.761
34326W        W  867  34.962  29.418   4.207
34327W        W  868  42.470  33.806  14.750
34328W        W  869  14.113  25.324  13.720
34329W        W  870  19.123   9.618   2.716
34330W        W  871  10.942  27.728   1.917
34331W        W  872  43.310  25.435   2.308
34332W        W  873  35.690  12.058  13.073
34333W        W  874  23.737   7.010  12.966
34334W        W  875  13.382  37.421   1.886
34335W        W  876  25.750  21.818  13.590
34336W        W  877  27.139  28.047   0.982
34337W        W  878  20.476  41.290   1.410
34338W        W  879  10.815  10.060  13.902
34339W        W  880   7.697  41.035   1.227
34340W        W  881  20.785  37.649   0.331
34341W        W  882  19.129   8.781  10.530
34342W        W  883   1.490  36.992   0.276
34343W        W  884  31.886  10.327  11.453
34344W        W  885  19.577  32.431  10.679
34345W        W  886  24.797  44.543  11.739
34346W        W  887  39.420   8.290   0.973
34347W        W  888  12.151  25.997   1.909
34348W        W  889  44.548   9.823  11.594
34349W        W  890  32.483  22.248   0.740
34350W        W  891  32.227   7.274  10.782
34351W        W  892  34.485  32.584   2.420
34352W        W  893  18.074  11.438   4.573
34353W        W  894  43.276  39.063   4.372
34354W        W  895  25.911  19.618   3.200
34355W        W  896  43.844  36.338  14.353
34356W        W  897  35.810  37.494   3.153
34357W        W  898   9.691  20.240  11.904
34358W        W  899  18.772   3.649   5.036
34359W        W  900  38.803  30.799  12.036
34360W        W  901  11.641  29.851  14.524
34361W        W  902  44.023  28.314  10.026
34362W        W  903  38.545  21.333  13.000
34363W        W  904  17.793  40.206  12.560
34364W        W  905  41.949  30.134   3.177
34365W        W  906   0.383   6.788   4.571
34366W        W  907  38.970  35.983   4.528
34367W        W  908  39.049  20.255  14.028
34368W        W  909  39.429   0.822  13.739
34369W        W  910  12.311  15.716   2.612
34370W        W  911  14.664  20.089  11.449
34371W        W  912  20.088  36.942  11.494
34372W        W  913   4.436  25.074   4.476
34373W        W  914  33.085  38.328   1.372
34374W        W  915  11.605  19.067  13.017
34375W        W  916   6.957  17.199   2.657
34376W        W  917  15.082  35.003  14.470
34377W        W  918  21.674  11.943  10.713
34378W        W  919  44.258  41.954  12.801
34379W        W  920  34.116  31.443  11.409
34380W        W  921  41.802  17.044  13.114
34381W        W  922  13.099  23.059   1.817
34382W        W  923  15.114  42.394  11.956
34383W        W  924  31.009  34.985   4.469
34384W        W  925   2.653  12.607   3.176
34385W        W  926  27.872  35.968   0.395
34386W        W  927   7.752  19.571   2.095
34387W        W  928  20.784  38.311  14.459
34388W        W  929  28.727  16.888   2.410
34389W        W  930  41.589   3.866  13.726
34390W        W  931  33.594  26.512  12.936
34391W        W  932  22.139  12.159  11.803
34392W        W  933  24.458  27.073   4.929
34393W        W  934  34.841  30.919  10.978
34394W        W  935  11.854   8.606  10.505
34395W        W  936  31.402  17.633   0.267
34396W        W  937  18.226  28.087  12.053
34397W        W  938  16.891  18.701  12.492
34398W        W  939  27.505  21.145  10.448
34399W        W  940   6.901  12.056  11.073
34400W        W  941  32.814  15.273  14.278
34401W        W  942   6.923  44.394  13.048
34402W        W  943  25.768   6.442  13.642
34403W        W  944  29.141  16.190  11.331
34404W        W  945  28.049  33.981   0.307
34405W        W  946  34.840   5.724   4.127
34406W        W  947   7.874  38.364  13.067
34407W        W  948   1.914  32.038   2.605
34408W        W  949   5.114  18.782  12.527
34409W        W  950   0.085   1.385  12.605
34410W        W  951  32.121  31.263   0.082
34411W        W  952  19.263  16.239  13.453
34412W        W  953  18.426   4.753   1.649
34413W        W  954  10.098   6.473   1.163
34414W        W  955   9.908  30.179   1.294
34415W        W  956  20.644   9.187  14.725
34416W        W  957   2.535  13.669  11.067
34417W        W  958  18.847  44.576  14.482
34418W        W  959  18.994  37.574  10.278
34419W        W  960  19.761  23.818  12.039
34420W        W  961  38.279  10.883   2.820
34421W        W  962   2.760  26.071  11.662
34422W        W  963  16.024  20.076  13.028
34423W        W  964  42.526   4.754  13.073
34424W        W  965  31.562  12.996   0.657
34425W        W  966  25.666  23.797  14.342
34426W        W  967   5.258  33.472  10.717
34427W        W  968  29.856  22.113   4.201
34428W        W  969  39.385  12.099   1.012
34429W        W  970   4.681  15.388  10.677
34430W        W  971  35.151  35.060  13.617
34431W        W  972  19.279  41.414  11.654
34432W        W  973  26.020  35.808   4.822
34433W        W  974   0.421  10.156   1.869
34434W        W  975  20.806  15.608   2.635
34435W        W  976   7.748  27.516   4.029
34436W        W  977  16.192   4.165   2.721
34437W        W  978  41.266  13.868  12.545
34438W        W  979  31.141   9.928  13.209
34439W        W  980   6.324  26.290  14.043
34440W        W  981   3.906   1.628   1.748
34441W        W  982  12.098  29.148   4.637
34442W        W  983  26.665  42.743   3.101
34443W        W  984  27.716  36.560   2.169
34444W        W  985  24.713   9.720   4.789
34445W        W  986   1.728  27.968  12.807
34446W        W  987   0.756  32.522   2.658
34447W        W  988  30.453  35.198   1.879
34448W        W  989  10.695  24.090  12.397
34449W        W  990  19.825  37.084  13.011
34450W        W  991  13.577  16.222   3.814
34451W        W  992  37.427  35.804   2.324
34452W        W  993  31.962   8.352   3.591
34453W        W  994   2.508   5.723   3.444
34454W        W  995  20.222  26.780  12.857
34455W        W  996   9.674  21.663  13.542
34456W        W  997   6.780  31.320   3.343
34457W        W  998  19.253  36.915  10.678
34458W        W  999   5.788  25.315   2.659
34459W        W 1000  26.913  39.965  13.775
34460W        W 1001   0.454  13.618  13.719
34461W        W 1002   5.893  32.489   1.747
34462W        W 1003  31.484  34.846  12.261
34463W        W 1004  29.545  24.607  13.872
34464W        W 1005  41.842  24.519  13.861
34465W        W 1006  25.202   6.888   2.867
34466W        W 1007   8.450  15.141  13.529
34467W        W 1008  17.594   0.539  14.427
34468W        W 1009  24.787  23.115   0.470
34469W        W 1010  34.924   5.997   1.303
34470W        W 1011  12.404   6.328  12.855
34471W        W 1012  35.754  34.951  13.813
34472W        W 1013  15.093   0.811   2.421
34473W        W 1014  34.982  42.210  14.012
34474W        W 1015   3.514   7.187   0.648
34475W        W 1016  13.255  23.811  14.766
34476W        W 1017  15.185  34.918   3.156
34477W        W 1018  13.973  11.348  11.566
34478W        W 1019  37.476   6.279   0.129
34479W        W 1020  37.342  44.732   4.973
34480W        W 1021   2.040  40.039   2.877
34481W        W 1022  14.675  23.969   3.324
34482W        W 1023   7.784   1.445  10.474
34483W        W 1024  20.273   4.347  10.447
34484W        W 1025  27.015   9.919  11.865
34485W        W 1026  31.421  32.174  12.899
34486W        W 1027  39.806  37.584   1.957
34487W        W 1028  17.745   6.486  13.360
34488W        W 1029  36.224   4.417   2.284
34489W        W 1030  27.877   8.258   4.680
34490W        W 1031  22.925  18.153   1.828
34491W        W 1032  44.664  21.503  10.966
34492W        W 1033  40.332  38.938   2.389
34493W        W 1034  20.911   6.224   1.406
34494W        W 1035  11.669  41.426   2.712
34495W        W 1036  13.053  15.713  14.574
34496W        W 1037  36.025  42.912  14.524
34497W        W 1038   0.243  36.889   1.371
34498W        W 1039  16.552  24.554   0.514
34499W        W 1040  29.167  36.989   2.683
34500W        W 1041  23.470  37.565  14.921
34501W        W 1042  14.588   3.356   0.316
34502W        W 1043  10.905  21.650   0.641
34503W        W 1044   6.646   4.599   4.456
34504W        W 1045  43.686   5.888   2.299
34505W        W 1046   0.609   5.890  14.502
34506W        W 1047   9.204  35.477   4.416
34507W        W 1048  16.474  18.384  12.532
34508W        W 1049  43.746  29.927   0.964
34509W        W 1050  28.469  39.959   1.233
34510W        W 1051  19.041  27.693   4.473
34511W        W 1052  37.482  17.750  11.464
34512W        W 1053  18.716   8.330  13.829
34513W        W 1054  42.431   9.474   1.370
34514W        W 1055   8.852  29.321   0.028
34515W        W 1056  44.820   2.425  13.912
34516W        W 1057   7.435  11.818  12.654
34517W        W 1058  43.895  35.750  10.702
34518W        W 1059  23.044  26.562  12.035
34519W        W 1060   0.382   5.061   5.007
34520W        W 1061  43.204   4.401   2.154
34521W        W 1062  10.301  44.020   2.334
34522W        W 1063  15.621  23.264  11.571
34523W        W 1064   3.973  29.751   0.062
34524W        W 1065   4.479  36.388   4.415
34525W        W 1066  31.685   8.302  11.413
34526W        W 1067   6.418   3.213   2.742
34527W        W 1068  27.465  17.549   1.284
34528W        W 1069   3.738  41.675  11.028
34529W        W 1070  30.935   7.916  12.472
34530W        W 1071  17.823  35.522   0.128
34531W        W 1072   4.103  13.883  10.429
34532W        W 1073  27.161  34.226   4.707
34533W        W 1074   2.848  24.389  12.312
34534W        W 1075   2.883   3.192   1.799
34535W        W 1076  33.507  14.809  14.022
34536W        W 1077   7.866   0.875  11.228
34537W        W 1078   6.305  26.152  12.997
34538W        W 1079  27.933  19.774   1.176
34539W        W 1080  25.742   6.945  12.543
34540W        W 1081   1.140  40.205  11.995
34541W        W 1082  17.698  22.471   2.848
34542W        W 1083  11.161   8.905  13.410
34543W        W 1084   8.762  26.140   3.763
34544W        W 1085  32.898  23.152   0.806
34545W        W 1086  40.982   3.244   2.144
34546W        W 1087   5.940  16.763   3.385
34547W        W 1088  33.603  17.230   0.236
34548W        W 1089  35.590  31.759   4.150
34549W        W 1090  26.498  40.548  13.103
34550W        W 1091  32.656  27.782  14.435
34551W        W 1092  38.596  19.214  13.032
34552W        W 1093  29.144  42.288   2.914
34553W        W 1094  24.935   4.419   2.812
34554W        W 1095  34.603  13.088  11.184
34555W        W 1096  29.872  20.566   3.137
34556W        W 1097  10.530  12.338  12.201
34557W        W 1098   5.413  33.732   4.113
34558W        W 1099  10.734  25.426   4.601
34559W        W 1100   9.372  41.384   0.324
34560W        W 1101  14.449  41.937   4.064
34561W        W 1102  31.634  33.813  14.156
34562W        W 1103  19.062  32.245   2.319
34563W        W 1104   3.330  19.212   2.821
34564W        W 1105   9.416   7.638   3.679
34565W        W 1106   5.738  31.837  14.740
34566W        W 1107  35.941  24.730  13.429
34567W        W 1108  14.054   5.403   1.456
34568W        W 1109  29.696  32.181  14.831
34569W        W 1110  21.519  10.396   2.899
34570W        W 1111  23.498   2.926   1.260
34571W        W 1112   3.793  39.295   0.896
34572W        W 1113  36.375  15.943  13.269
34573W        W 1114  28.640   0.698  14.004
34574W        W 1115  44.929  23.898   0.084
34575W        W 1116  29.437  10.340  14.846
34576W        W 1117  15.522   7.915   3.345
34577W        W 1118  14.803  38.544   1.271
34578W        W 1119  28.965  35.516  14.178
34579W        W 1120  25.985  30.340   0.469
34580W        W 1121  34.615  12.690   1.920
34581W        W 1122  17.496   1.142   2.781
34582W        W 1123  10.189  36.918   2.644
34583W        W 1124  40.773  24.886  11.293
34584W        W 1125  22.071   6.105  14.119
34585W        W 1126  37.090  40.302   3.842
34586W        W 1127   7.911  37.421   5.404
34587W        W 1128  12.631  31.895   2.295
34588W        W 1129  19.834  25.746  12.034
34589W        W 1130  14.898  40.741   4.459
34590W        W 1131   2.501  39.452  13.013
34591W        W 1132  30.117  34.074  12.459
34592W        W 1133  27.150  43.839  14.340
34593W        W 1134  42.801   8.454  11.149
34594W        W 1135  44.004  14.340  12.971
34595W        W 1136  36.881  41.386   1.538
34596W        W 1137  13.016  31.146   1.429
34597W        W 1138   8.975  33.129  14.648
34598W        W 1139  31.343   2.065   4.588
34599W        W 1140  16.992  32.963   0.699
34600W        W 1141  40.731  17.458  11.189
34601W        W 1142  20.723   7.796  11.979
34602W        W 1143  10.154  34.131  12.588
34603W        W 1144  32.586  10.724   4.149
34604W        W 1145   2.232  35.689   4.817
34605W        W 1146  38.484   5.917  12.128
34606W        W 1147  44.505  40.469   3.298
34607W        W 1148   7.037   8.754   2.669
34608W        W 1149  44.998  19.531   4.198
34609W        W 1150  13.222  12.804  11.256
34610W        W 1151  22.969  43.546  13.486
34611W        W 1152  26.071  26.484   2.403
34612W        W 1153  32.817  23.459  11.169
34613W        W 1154  23.050  35.396   4.430
34614W        W 1155  19.196   6.997   0.460
34615W        W 1156   4.222   4.459   0.004
34616W        W 1157   8.235   0.416  13.758
34617W        W 1158  31.517   1.335  10.403
34618W        W 1159  42.638  15.003  10.331
34619W        W 1160  23.724  28.694   2.995
34620W        W 1161  39.541  34.326  12.093
34621W        W 1162  15.241  43.705  13.439
34622W        W 1163   8.345  36.590  14.803
34623W        W 1164   5.165  36.475  11.223
34624W        W 1165  44.174  13.209  13.827
34625W        W 1166  32.057  33.532  11.145
34626W        W 1167  17.110  34.442  12.916
34627W        W 1168  19.712  15.226  13.600
34628W        W 1169  16.360  36.514  14.965
34629W        W 1170  25.000  17.291  11.881
34630W        W 1171   9.434   3.075   4.098
34631W        W 1172  23.034  43.378   1.894
34632W        W 1173  15.040  14.856  14.402
34633W        W 1174   6.154   1.440   3.383
34634W        W 1175  22.246  31.190  12.608
34635W        W 1176  34.250  33.446   0.697
34636W        W 1177  25.153  39.457  10.573
34637W        W 1178  16.516  29.396   1.340
34638W        W 1179  40.802  37.969  11.552
34639W        W 1180  13.663  31.338  14.826
34640W        W 1181  44.697  39.428   1.939
34641W        W 1182  22.680  29.508  13.038
34642W        W 1183  20.483   5.890   2.673
34643W        W 1184  24.321  16.671  10.877
34644W        W 1185  19.113  22.227  12.851
34645W        W 1186   5.301  25.147   2.654
34646W        W 1187  40.236  36.084  11.324
34647W        W 1188  43.462   9.150  13.352
34648W        W 1189   2.022  38.098   1.925
34649W        W 1190  11.085   1.320   0.753
34650W        W 1191  12.297  24.186   2.254
34651W        W 1192   3.270  37.727   3.076
34652W        W 1193  23.411  27.112   0.913
34653W        W 1194  44.966  13.822   4.745
34654W        W 1195  24.153   7.234   1.268
34655W        W 1196  30.307  10.290   9.827
34656W        W 1197  39.526  16.143  11.040
34657W        W 1198  26.389  41.058  11.931
34658W        W 1199  40.477  44.304   2.787
34659W        W 1200  16.593  35.827   3.152
34660W        W 1201  13.910  35.153   1.800
34661W        W 1202   1.064  36.605   3.795
34662W        W 1203   4.336  30.925   0.224
34663W        W 1204   6.785  24.528   0.988
34664W        W 1205   1.952   4.969  13.657
34665W        W 1206   8.434  31.110   3.131
34666W        W 1207  28.474  31.602  14.519
34667W        W 1208  19.636  23.369  10.755
34668W        W 1209  26.263  27.152   1.734
34669W        W 1210  43.481  40.329  12.913
34670W        W 1211   0.700   2.819  14.673
34671W        W 1212  21.522  19.699   3.269
34672W        W 1213  29.321   3.483  11.569
34673W        W 1214  20.660  28.659  13.344
34674W        W 1215   1.191   0.538   0.101
34675W        W 1216  28.175  26.698  10.607
34676W        W 1217   9.702   9.518  12.191
34677W        W 1218  25.067  10.175   0.115
34678W        W 1219  21.731  10.094  12.560
34679W        W 1220   6.188  17.220   3.326
34680W        W 1221  21.661  25.361   1.149
34681W        W 1222  34.582  31.457  11.176
34682W        W 1223  31.387   6.756   3.693
34683W        W 1224  15.561   1.490   1.327
34684W        W 1225  12.236   0.898  14.531
34685W        W 1226  11.865   3.903  11.097
34686W        W 1227  14.379  35.515   3.926
34687W        W 1228  24.454  39.076  14.652
34688W        W 1229  16.743   5.267  12.170
34689W        W 1230  42.272  28.862   0.284
34690W        W 1231  28.103   5.520   0.167
34691W        W 1232  32.116  15.744   2.599
34692W        W 1233  38.578  22.112   2.286
34693W        W 1234   5.732  36.970  11.595
34694W        W 1235  42.170   0.434  13.807
34695W        W 1236  28.056   1.331  13.082
34696W        W 1237  13.302  13.854   1.907
34697W        W 1238  10.697  37.416   1.952
34698W        W 1239  21.601  21.191  12.919
34699W        W 1240  32.891  21.654   0.339
34700W        W 1241   0.333  37.274   0.146
34701W        W 1242   1.286  34.724  13.947
34702W        W 1243  20.471  20.159  12.624
34703W        W 1244  17.178  39.440   3.882
34704W        W 1245  43.948  27.716   3.242
34705W        W 1246  40.895  17.030   2.902
34706W        W 1247  27.898  38.574  10.987
34707W        W 1248  22.286  41.499  13.520
34708W        W 1249   8.325  31.792  12.596
34709W        W 1250   2.870  19.835   4.090
34710W        W 1251  21.291  30.409   3.243
34711W        W 1252  14.753   4.022   1.954
34712W        W 1253  15.359  18.254  14.865
34713W        W 1254   6.567  24.677   3.977
34714W        W 1255  11.181  25.478   1.052
34715W        W 1256   0.773  10.782  14.400
34716W        W 1257  31.499   2.606   4.170
34717W        W 1258  38.014  38.081  12.002
34718W        W 1259  28.511  23.983   2.855
34719W        W 1260  17.223  26.003  10.552
34720W        W 1261  43.716  34.554  13.803
34721W        W 1262   8.491  43.307  11.137
34722W        W 1263  24.707  39.893  14.446
34723W        W 1264  18.055  26.952  14.101
34724W        W 1265  38.084  22.676   1.429
34725W        W 1266  31.934  27.134  11.152
34726W        W 1267  21.036  37.997   0.017
34727W        W 1268  25.303  20.482   3.853
34728W        W 1269  42.870   3.321  12.042
34729W        W 1270  29.608  23.545  12.970
34730W        W 1271  10.707  30.421   2.160
34731W        W 1272  33.334  30.015   1.455
34732W        W 1273  15.665  36.685  11.989
34733W        W 1274  15.712   1.749   1.839
34734W        W 1275  23.275  22.968  13.096
34735W        W 1276  20.375  13.914   2.752
34736W        W 1277  15.811  32.233   0.950
34737W        W 1278  22.586  42.750   0.468
34738W        W 1279  33.217  15.230  13.917
34739W        W 1280  31.174  42.572   0.911
34740W        W 1281  24.556  33.504   3.368
34741W        W 1282  10.833  42.786   5.036
34742W        W 1283  14.692  12.967   3.249
34743W        W 1284  30.972  24.771  10.748
34744W        W 1285  26.763  13.200   3.845
34745W        W 1286  10.443  24.504   1.040
34746W        W 1287   5.638  40.232   4.733
34747W        W 1288   4.334  24.293  13.819
34748W        W 1289  33.632  41.262  14.802
34749W        W 1290  12.686  23.608   2.431
34750W        W 1291  37.659  43.966  11.104
34751W        W 1292  37.403  30.733   3.212
34752W        W 1293  39.849   0.171   1.337
34753W        W 1294  24.452  24.496   2.657
34754W        W 1295  15.224  27.930   3.684
34755W        W 1296  24.277  26.094  13.906
34756W        W 1297  35.378  22.083  12.487
34757W        W 1298  35.324  13.580  14.318
34758W        W 1299  21.572  29.754   0.887
34759W        W 1300  14.608  23.591  13.982
34760W        W 1301  19.130  12.587   5.358
34761W        W 1302  31.035  11.374  14.335
34762W        W 1303  26.388  29.658   0.472
34763W        W 1304  38.157  30.153  11.073
34764W        W 1305  27.541  18.810   4.495
34765W        W 1306   3.306  41.827   1.914
34766W        W 1307  23.179  20.506  14.970
34767W        W 1308  34.226   4.677   9.792
34768W        W 1309  19.228  19.738   1.181
34769W        W 1310  39.791  10.763   2.701
34770W        W 1311  24.556  33.489   0.661
34771W        W 1312   3.043  40.452  10.805
34772W        W 1313  13.758  38.339   1.164
34773W        W 1314  42.894  42.511   0.747
34774W        W 1315   4.543   7.628   2.024
34775W        W 1316  23.000  13.989   1.853
34776W        W 1317  14.805   8.390   1.564
34777W        W 1318   5.689  26.074  12.203
34778W        W 1319   2.768  32.418   1.166
34779W        W 1320   4.645  16.863  14.343
34780W        W 1321  41.989  16.732   2.363
34781W        W 1322   6.477   2.348  11.893
34782W        W 1323  33.016  12.356  11.489
34783W        W 1324   4.575  31.707  12.171
34784W        W 1325  41.710  24.971  12.103
34785W        W 1326  12.361  26.394   2.670
34786W        W 1327  40.035  30.656  10.862
34787W        W 1328  33.542  39.551   0.428
34788W        W 1329  23.737  28.635  10.986
34789W        W 1330  42.568   6.085  12.611
34790W        W 1331   4.907  34.060  14.196
34791W        W 1332  30.518   8.293   3.629
34792W        W 1333  18.606  43.833   4.569
34793W        W 1334  17.589   4.231  14.784
34794W        W 1335  30.135  43.823   1.697
34795W        W 1336  21.348  28.312   3.252
34796W        W 1337   3.785  10.651   2.358
34797W        W 1338  29.907   7.991  10.573
34798W        W 1339  35.065  24.717  10.722
34799W        W 1340  11.335  37.546  13.310
34800W        W 1341  35.503   8.198   4.554
34801W        W 1342   3.302   8.797   4.437
34802W        W 1343   4.245  18.309   3.088
34803W        W 1344  43.367  42.031   3.741
34804W        W 1345  32.515  42.727  14.980
34805W        W 1346  18.470  16.201  11.129
34806W        W 1347  35.150  18.873   4.060
34807W        W 1348   5.389  44.422  12.063
34808W        W 1349  14.306   2.040  11.668
34809W        W 1350   2.776  28.796   0.953
34810W        W 1351  24.510  16.719   0.138
34811W        W 1352  28.484  19.783  14.864
34812W        W 1353  31.009  23.822   3.744
34813W        W 1354  24.644  27.574  14.934
34814W        W 1355  38.409  36.351   3.789
34815W        W 1356  13.670  30.446   1.233
34816W        W 1357  38.954  28.911   1.319
34817W        W 1358  33.636  20.154  12.219
34818W        W 1359  11.731   2.925  12.102
34819W        W 1360   0.701  37.686  13.671
34820W        W 1361  39.404  31.628  11.448
34821W        W 1362   8.576  19.274  11.497
34822W        W 1363  41.047  12.840  14.519
34823W        W 1364  34.186  33.460  11.938
34824W        W 1365   7.786  27.735  13.065
34825W        W 1366  13.903   4.558   3.666
34826W        W 1367  29.011  17.575  13.443
34827W        W 1368  40.447  38.259   3.628
34828W        W 1369  39.902   2.520  13.057
34829W        W 1370  15.654   1.715  13.599
34830W        W 1371   1.202  28.713  10.252
34831W        W 1372  38.915  16.286   2.338
34832W        W 1373  14.576  29.536   0.294
34833W        W 1374  12.695   5.915   2.848
34834W        W 1375  39.302  36.185   3.546
34835W        W 1376  20.515  10.356  13.942
34836W        W 1377  35.037  29.858   4.471
34837W        W 1378  36.045  40.513   4.522
34838W        W 1379  43.720  12.227   0.545
34839W        W 1380  26.625  11.798   2.811
34840W        W 1381  40.021   9.183  11.716
34841W        W 1382  37.056  39.977  14.388
34842W        W 1383  28.521  10.376   0.326
34843W        W 1384  26.930  22.680   4.205
34844W        W 1385   5.203  27.198   1.461
34845W        W 1386  12.227   1.406   2.299
34846W        W 1387  10.294  15.654  11.057
34847W        W 1388   6.295  15.837   1.405
34848W        W 1389  22.439   0.228  14.915
34849W        W 1390  41.875   8.843  11.497
34850W        W 1391  11.825  19.817  10.712
34851W        W 1392   9.102   2.830  10.693
34852W        W 1393  15.572  17.419  11.058
34853W        W 1394  32.486  19.817   4.613
34854W        W 1395  10.184  38.057  10.408
34855W        W 1396   4.592  16.537  11.234
34856W        W 1397  14.193  27.093  14.033
34857W        W 1398  36.471  27.022   2.960
34858W        W 1399  14.334  32.382   1.721
34859W        W 1400  16.414  27.258  10.821
34860W        W 1401   3.670  40.893  11.962
34861W        W 1402   7.041   0.455  10.236
34862W        W 1403  10.802  26.152   2.193
34863W        W 1404  28.210  19.773  10.109
34864W        W 1405  35.555  40.451   2.391
34865W        W 1406  34.692  40.224  12.458
34866W        W 1407  44.127   8.784   4.679
34867W        W 1408  38.736   4.734  13.558
34868W        W 1409  17.345  23.812   3.842
34869W        W 1410  25.186  18.634  10.721
34870W        W 1411  38.987  11.464  13.761
34871W        W 1412  33.396  23.810  11.959
34872W        W 1413   2.680  14.422   0.662
34873W        W 1414  43.914   4.799   0.802
34874W        W 1415  41.011  23.397   0.915
34875W        W 1416  12.626  15.853   4.087
34876W        W 1417   7.344  44.004  10.804
34877W        W 1418  30.683  33.151   3.632
34878W        W 1419  16.754  12.225  14.379
34879W        W 1420  12.611   8.337  14.712
34880W        W 1421  24.229  19.309   4.780
34881W        W 1422   1.581  41.433   2.828
34882W        W 1423  20.494  37.458  14.958
34883W        W 1424   0.197  15.084  14.924
34884W        W 1425  42.447  19.629   3.264
34885W        W 1426   1.479  42.237   1.589
34886W        W 1427  43.295   2.398  12.151
34887W        W 1428  26.958   3.127  14.879
34888W        W 1429  17.659  17.001   1.836
34889W        W 1430  14.831   4.810  14.993
34890W        W 1431  25.780  31.616  12.849
34891W        W 1432  33.770  43.178   0.711
34892W        W 1433  10.439  22.516  14.481
34893W        W 1434  17.633  32.555  13.322
34894W        W 1435  10.268  21.694  10.555
34895W        W 1436  32.685  17.103   2.354
34896W        W 1437   3.260  31.885   2.183
34897W        W 1438  38.763   3.551   1.230
34898W        W 1439  38.531  31.624  12.513
34899W        W 1440  35.102  37.841  11.089
34900W        W 1441  38.076  38.125   3.295
34901W        W 1442  32.970  29.158  10.576
34902W        W 1443  13.403  11.683   4.897
34903W        W 1444   8.133  15.268   3.572
34904W        W 1445  34.537  35.006  12.392
34905W        W 1446  12.407  12.712   0.962
34906W        W 1447  16.574  29.530  12.866
34907W        W 1448  30.939  21.690   4.557
34908W        W 1449  14.181  17.026  13.358
34909W        W 1450  26.480  20.998  11.483
34910W        W 1451  21.966  38.499  11.105
34911W        W 1452  41.627  25.099   1.944
34912W        W 1453  25.682  18.729   4.554
34913W        W 1454  30.915  26.213   3.219
34914W        W 1455   5.889   0.566  10.693
34915W        W 1456  18.299  32.084  11.460
34916W        W 1457  14.185  41.863   1.373
34917W        W 1458  31.915  10.904   0.259
34918W        W 1459   8.238   9.465   3.433
34919W        W 1460   5.224  37.839  14.971
34920W        W 1461  27.152  10.171   4.517
34921W        W 1462  38.354  25.132   4.227
34922W        W 1463  15.206  20.262   3.320
34923W        W 1464  16.611  33.515   1.461
34924W        W 1465   0.782  29.855   1.295
34925W        W 1466  36.942   1.014  12.511
34926W        W 1467  42.426  37.234  14.751
34927W        W 1468  18.880   2.960   2.745
34928W        W 1469   6.234   4.156   2.801
34929W        W 1470  24.123  30.592   3.913
34930W        W 1471  26.540  25.836  13.037
34931W        W 1472  19.783   9.871  11.592
34932W        W 1473  22.172  42.000   3.701
34933W        W 1474   0.968   5.285   4.200
34934W        W 1475  23.281  19.463   3.124
34935W        W 1476   9.719  28.120   1.296
34936W        W 1477  27.539   3.784  11.380
34937W        W 1478  34.102  14.328  14.309
34938W        W 1479  36.590   3.742   1.991
34939W        W 1480  39.609  30.421  11.027
34940W        W 1481  13.815  27.618  12.867
34941W        W 1482  24.041  39.364  14.989
34942W        W 1483  40.595  33.997   1.238
34943W        W 1484  13.035  24.531  12.614
34944W        W 1485  12.916  25.554  14.879
34945W        W 1486  42.145  25.476   4.673
34946W        W 1487   8.082  39.493   0.388
34947W        W 1488  38.079   3.959  14.813
34948W        W 1489  22.986   6.423  14.268
34949W        W 1490  38.380  28.059   3.758
34950W        W 1491   5.439   9.967   4.595
34951W        W 1492  40.563  28.676   1.336
34952W        W 1493   5.634  13.307   0.633
34953W        W 1494  18.966  21.149  12.351
34954W        W 1495  25.652  40.489   1.837
34955W        W 1496  44.357  24.217   5.143
34956W        W 1497  28.990  13.042   1.676
34957W        W 1498  10.292  25.269   0.527
34958W        W 1499  38.320  37.749   0.539
34959W        W 1500  17.332  44.503   1.645
34960W        W 1501  13.485  19.250   4.802
34961W        W 1502  41.248  14.648   1.767
34962W        W 1503  24.120  23.901  10.499
34963W        W 1504  18.727  26.836   4.323
34964W        W 1505  29.540  21.494   2.900
34965W        W 1506  42.504  24.696  11.330
34966W        W 1507  29.937  43.558   2.458
34967W        W 1508  44.325   7.499   2.833
34968W        W 1509   8.211  34.211  12.538
34969W        W 1510  39.053  10.746  14.348
34970W        W 1511  36.390  22.165  14.474
34971W        W 1512  37.100   2.447   3.599
34972W        W 1513  28.748  12.578   2.359
34973W        W 1514   4.464  44.893  11.440
34974W        W 1515  35.523  14.357  13.759
34975W        W 1516   1.660  22.768   0.027
34976W        W 1517  26.181  33.423  13.257
34977W        W 1518  42.839  37.572   2.455
34978W        W 1519   7.744  39.818   3.682
34979W        W 1520  21.284  43.234   2.379
34980W        W 1521  14.161  34.038   1.566
34981W        W 1522  19.255  32.628   4.076
34982W        W 1523  29.200  31.041  14.335
34983W        W 1524  15.985   8.396  14.658
34984W        W 1525  30.544  15.245   5.404
34985W        W 1526  29.545  24.296  14.289
34986W        W 1527  27.400   1.803  11.454
34987W        W 1528  37.104  23.144   3.154
34988W        W 1529  35.162  34.909  12.618
34989W        W 1530   5.812  20.233  13.907
34990W        W 1531  26.684  10.749   4.156
34991W        W 1532   1.392  28.045  10.669
34992W        W 1533  30.848   4.241  12.853
34993W        W 1534  15.693  11.366  14.543
34994W        W 1535  15.385  21.672   1.012
34995W        W 1536  23.259  34.619  12.488
34996W        W 1537  44.563  19.540   3.931
34997W        W 1538  20.208  32.878  14.400
34998W        W 1539  33.109  27.838   1.464
34999W        W 1540  20.121  12.990   4.087
35000W        W 1541  27.355  22.950   0.832
35001W        W 1542  11.388  26.721  12.135
35002W        W 1543  11.088  16.135   2.813
35003W        W 1544  33.139  27.416  10.908
35004W        W 1545  28.214  39.568  10.144
35005W        W 1546  10.387  34.596  14.324
35006W        W 1547  37.834   4.355   3.166
35007W        W 1548  41.273   6.368   4.837
35008W        W 1549  18.673  44.402   1.284
35009W        W 1550  18.623   8.004   0.744
35010W        W 1551  15.683   5.512   2.795
35011W        W 1552   2.414  44.401   2.692
35012W        W 1553  31.809  17.323   1.045
35013W        W 1554   9.165   0.995  12.313
35014W        W 1555  14.806  28.727   0.730
35015W        W 1556  29.488  29.135  14.420
35016W        W 1557   5.815  24.575   2.907
35017W        W 1558  23.702  31.394  10.629
35018W        W 1559  27.415  37.322   0.743
35019W        W 1560  20.142   5.469   1.766
35020W        W 1561  27.735  11.344   1.702
35021W        W 1562  15.882  40.539   2.224
35022W        W 1563  37.708  41.873  14.380
35023W        W 1564   9.787  32.927  13.862
35024W        W 1565  33.485   8.891  14.899
35025W        W 1566  36.727  30.437   2.255
35026W        W 1567  25.919   6.590   4.134
35027W        W 1568  27.455  22.766  11.886
35028W        W 1569   6.770   9.395  14.516
35029W        W 1570  31.982  37.280  10.715
35030W        W 1571  38.385  18.740   3.650
35031W        W 1572  35.811  40.530  14.864
35032W        W 1573  24.741  35.577   1.368
35033W        W 1574   8.728  32.074   3.288
35034W        W 1575  22.094  18.556   3.595
35035W        W 1576   6.682  42.464   5.006
35036W        W 1577  16.457  43.341   4.643
35037W        W 1578  21.164  14.618  12.815
35038W        W 1579  16.700   1.910  11.714
35039W        W 1580  39.868  26.208  12.998
35040W        W 1581  14.611  16.823   4.547
35041W        W 1582   5.109  23.455   4.677
35042W        W 1583  29.698  42.975  11.175
35043W        W 1584  35.316  25.523  13.859
35044W        W 1585  12.665  40.803  11.011
35045W        W 1586  31.630  34.042  10.637
35046W        W 1587   2.202  13.548  14.771
35047W        W 1588  18.248  35.779   4.187
35048W        W 1589  42.971  41.573  12.453
35049W        W 1590  16.406  36.411  12.894
35050W        W 1591   0.911  14.014  11.113
35051W        W 1592   6.770  10.899  14.513
35052W        W 1593   2.870  43.013  13.532
35053W        W 1594  40.957  33.053   3.634
35054W        W 1595   4.794   4.341  14.878
35055W        W 1596   9.668  13.628   3.310
35056W        W 1597   8.627   8.399   3.864
35057W        W 1598  21.052   7.657   3.177
35058W        W 1599   9.279  20.569   1.066
35059W        W 1600  20.224  20.222  13.083
35060W        W 1601  35.556  40.426   4.379
35061W        W 1602  39.901   9.740  14.025
35062W        W 1603  44.740   5.372   4.566
35063W        W 1604  30.586   9.575   5.013
35064W        W 1605  22.996  36.392  13.269
35065W        W 1606  19.549  26.016   1.890
35066W        W 1607  42.070  29.954   1.326
35067W        W 1608  31.181  34.067  11.144
35068W        W 1609  37.373  43.757   1.958
35069W        W 1610   2.913  27.641   0.253
35070W        W 1611  11.153  22.231   2.286
35071W        W 1612  27.424  13.720  14.393
35072W        W 1613   5.016  44.874   3.676
35073W        W 1614  33.499   9.185   2.560
35074W        W 1615  21.019  20.833  14.514
35075W        W 1616   9.869  42.403  10.603
35076W        W 1617  28.065   6.925   3.723
35077W        W 1618  14.770  31.202  12.880
35078W        W 1619  25.234  27.947   3.366
35079W        W 1620  12.253   2.335   4.508
35080W        W 1621  12.458  33.532   4.935
35081W        W 1622   9.836  44.021  14.343
35082W        W 1623  14.292  19.891   3.665
35083W        W 1624  10.164  36.463  11.553
35084W        W 1625  38.319   9.232   1.830
35085W        W 1626  40.378  38.079   0.394
35086W        W 1627   5.948   1.317   5.042
35087W        W 1628  13.272  18.531  12.428
35088W        W 1629  22.722   2.956   4.608
35089W        W 1630  36.049  11.083   2.654
35090W        W 1631   9.157  44.992   3.693
35091W        W 1632   4.335  32.599  13.088
35092W        W 1633  35.964  14.962  12.799
35093W        W 1634  36.537   6.756  14.783
35094W        W 1635  24.251  11.786  11.742
35095W        W 1636  35.542   8.798   1.866
35096W        W 1637  12.872   0.248  10.896
35097W        W 1638  38.828   6.821   0.231
35098W        W 1639  22.293   7.093   5.002
35099W        W 1640   5.155  41.349  14.769
35100W        W 1641  20.067  41.961  13.857
35101W        W 1642  25.708  25.234  10.326
35102W        W 1643  21.259   2.532   1.730
35103W        W 1644  20.589   6.601  14.261
35104W        W 1645   3.406  41.539  12.481
35105W        W 1646  34.941  40.087  11.150
35106W        W 1647  35.897  24.255  14.856
35107W        W 1648  10.942  15.930   2.358
35108W        W 1649  20.106  11.439  10.721
35109W        W 1650   2.707  23.267   3.225
35110W        W 1651   4.142   6.386   1.899
35111W        W 1652  21.167   2.728   0.403
35112W        W 1653  21.059  38.473  13.390
35113W        W 1654  11.281  36.575   0.158
35114W        W 1655  26.684  43.424   3.673
35115W        W 1656  11.366   7.688  11.566
35116W        W 1657  14.992  21.418  14.397
35117W        W 1658  16.604  28.633   2.792
35118W        W 1659  33.619  18.382   2.197
35119W        W 1660   4.914  42.455   0.379
35120W        W 1661  27.450  15.682   3.244
35121W        W 1662  21.505  19.657   1.902
35122W        W 1663  42.784  20.171   3.396
35123W        W 1664  44.719  31.028   3.274
35124W        W 1665  44.277  31.628  13.827
35125W        W 1666  27.265  25.515   3.216
35126W        W 1667  29.507  35.897  10.946
35127W        W 1668  35.993   8.310   3.641
35128W        W 1669   2.355  28.408   5.063
35129W        W 1670  32.763  38.922  11.984
35130W        W 1671   4.550  20.812   4.900
35131W        W 1672  14.293  33.818   3.441
35132W        W 1673  43.991  10.717  11.190
35133W        W 1674  42.977  35.535   3.075
35134W        W 1675   0.863  14.616   1.906
35135W        W 1676  41.959  15.379  11.239
35136W        W 1677  38.320  13.716   2.185
35137W        W 1678  25.909  11.372  13.250
35138W        W 1679  32.371   1.716  13.876
35139W        W 1680  14.401  42.823   2.479
35140W        W 1681  35.099   1.472  11.982
35141W        W 1682  37.564  10.435  12.586
35142W        W 1683   2.381  35.041  14.331
35143W        W 1684  35.584   9.797   4.883
35144W        W 1685  36.404  11.691  14.791
35145W        W 1686  33.490  32.999  10.798
35146W        W 1687   3.232  17.310   3.180
35147W        W 1688  34.702  16.605  13.421
35148W        W 1689  14.137   8.853  12.053
35149W        W 1690  25.042  24.835  10.816
35150W        W 1691   2.459  26.881  11.265
35151W        W 1692   3.625  19.034  11.190
35152W        W 1693  40.311  35.573  11.483
35153W        W 1694  22.804   6.296   0.271
35154W        W 1695  10.898  34.632  13.095
35155W        W 1696  43.409  24.999   3.147
35156W        W 1697  16.143  35.861   0.444
35157W        W 1698   1.792  38.655   2.833
35158W        W 1699  16.512   3.364  13.601
35159W        W 1700  42.860  19.737   1.421
35160W        W 1701  22.151   3.987  12.876
35161W        W 1702  43.369  38.640   4.659
35162W        W 1703  42.066  23.549   4.590
35163W        W 1704  12.788  20.043   2.288
35164W        W 1705  15.257  11.935  11.885
35165W        W 1706  19.205  38.461  11.241
35166W        W 1707  21.045  39.229  14.051
35167W        W 1708   8.183   4.768   1.930
35168W        W 1709  27.041  15.136   4.084
35169W        W 1710  11.452  35.100  14.379
35170W        W 1711  29.467  34.101   3.789
35171W        W 1712   2.045  32.163   4.429
35172W        W 1713  27.201  35.682  12.069
35173W        W 1714  39.910   4.835   0.473
35174W        W 1715  30.043   6.016  12.406
35175W        W 1716  37.753   6.214  14.546
35176W        W 1717  20.746   0.760  14.970
35177W        W 1718  23.350  15.856  10.142
35178W        W 1719  19.817  11.055   1.421
35179W        W 1720  34.031   4.386  13.052
35180W        W 1721  43.684  30.149  11.633
35181W        W 1722   6.790  32.662   0.507
35182W        W 1723  37.761  29.686   3.317
35183W        W 1724  33.828  11.216  11.674
35184W        W 1725   4.843  33.071   3.882
35185W        W 1726  19.285  36.522  12.482
35186W        W 1727   5.925  25.755   3.723
35187W        W 1728   7.334  42.731  12.741
35188W        W 1729  22.823   1.821   1.282
35189W        W 1730  35.925  30.497  12.008
35190W        W 1731   3.464   8.205  10.750
35191W        W 1732   1.050  12.301   3.992
35192W        W 1733  26.103   5.212   5.049
35193W        W 1734  41.971  24.126   1.110
35194W        W 1735   5.722  14.615   2.355
35195W        W 1736  29.449  35.651   4.694
35196W        W 1737  19.766  44.050   3.799
35197W        W 1738  44.975  15.414   1.219
35198W        W 1739  41.503  28.671   2.877
35199W        W 1740  11.575  37.768   2.808
35200W        W 1741  18.012   1.821  13.167
35201W        W 1742  44.062  39.602  12.632
35202W        W 1743  14.130  15.772   0.347
35203W        W 1744  30.560   9.991  10.212
35204W        W 1745  29.559  30.146  13.375
35205W        W 1746  17.041  37.460   4.131
35206W        W 1747  34.839  36.319   3.796
35207W        W 1748  41.341   2.543  12.897
35208W        W 1749  36.382   5.377   4.949
35209W        W 1750  42.728  24.534   2.854
35210W        W 1751  38.034  34.498  14.073
35211W        W 1752  19.858  34.174   0.496
35212W        W 1753  12.444  10.724  11.081
35213W        W 1754  17.792  11.911  11.732
35214W        W 1755  26.393  20.765  14.086
35215W        W 1756  16.623  11.986   2.244
35216W        W 1757  26.904  14.240   4.091
35217W        W 1758  24.489  39.296  11.593
35218W        W 1759  10.237  23.926  12.539
35219W        W 1760  31.066  17.420  11.368
35220W        W 1761  13.707  27.915  14.170
35221W        W 1762  40.568  41.385   3.261
35222W        W 1763  20.644  41.835  14.722
35223W        W 1764  12.551  30.965   0.995
35224W        W 1765  21.425  35.003   1.254
35225W        W 1766  20.245  31.040  11.413
35226W        W 1767   1.222   3.225   0.897
35227W        W 1768  15.314  30.029   2.888
35228W        W 1769   6.419   5.836  14.990
35229W        W 1770   8.208  12.652  14.771
35230W        W 1771  19.741  26.253   4.261
35231W        W 1772  13.651  39.049   0.864
35232W        W 1773  18.985  33.853  14.798
35233W        W 1774  27.957   5.490   4.075
35234W        W 1775  29.168   3.210   2.236
35235W        W 1776  24.165  11.798   2.702
35236W        W 1777  33.909  33.145  13.476
35237W        W 1778  39.938  20.092  11.226
35238W        W 1779   6.228   1.454  14.365
35239W        W 1780   0.171  12.767   0.694
35240W        W 1781  30.729   0.104   4.610
35241W        W 1782  40.422  39.083  10.954
35242W        W 1783  35.540   7.214   2.192
35243W        W 1784  27.418  44.764  11.631
35244W        W 1785  27.637  11.920  10.509
35245W        W 1786  17.109  10.857   4.503
35246W        W 1787  17.336  40.542  14.039
35247W        W 1788   8.154  20.539   4.331
35248W        W 1789  19.261  32.099   1.848
35249W        W 1790   4.445   3.702  11.444
35250W        W 1791  39.502  26.865   4.726
35251W        W 1792  14.001  31.710  11.570
35252W        W 1793  43.007   7.543  12.842
35253W        W 1794   8.666   0.516  14.424
35254W        W 1795  25.921  31.627  11.118
35255W        W 1796   6.971  10.353   2.235
35256W        W 1797  38.845  15.819   4.166
35257W        W 1798  37.299   8.693   3.739
35258W        W 1799  41.644  42.318   0.337
35259W        W 1800  20.724  14.578   0.302
35260W        W 1801  24.777   5.280  13.834
35261W        W 1802  20.815   7.689  13.461
35262W        W 1803  26.232  19.617  12.525
35263W        W 1804  42.026  25.604  13.294
35264W        W 1805  42.494  30.373   0.260
35265W        W 1806  15.220   9.676   4.862
35266W        W 1807  38.093  23.099   3.145
35267W        W 1808  24.653  21.254   3.717
35268W        W 1809  31.212   3.312   2.445
35269W        W 1810  17.886  18.108  11.785
35270W        W 1811  32.245  21.804   4.149
35271W        W 1812  39.897  16.578   3.213
35272W        W 1813  30.043  22.550  14.234
35273W        W 1814  31.030  25.236  13.438
35274W        W 1815  36.770  26.948   0.321
35275W        W 1816  32.535   7.642   1.907
35276W        W 1817  44.013  14.335  11.101
35277W        W 1818  22.948  23.159   4.213
35278W        W 1819  23.088  30.064  14.643
35279W        W 1820  12.424  40.021   4.506
35280W        W 1821  37.970   7.973   1.801
35281W        W 1822   3.158  40.663  12.512
35282W        W 1823   2.417  41.073  12.348
35283W        W 1824   2.857  44.773  12.402
35284W        W 1825  38.490  29.212   0.617
35285W        W 1826  33.856  11.828  11.202
35286W        W 1827  22.448  41.848   1.435
35287W        W 1828  41.917  27.931  13.742
35288W        W 1829  33.844   9.939   0.257
35289W        W 1830  42.252  30.645  14.452
35290W        W 1831  26.136  28.729   4.573
35291W        W 1832  11.896  20.971  12.979
35292W        W 1833  34.428   2.855  13.794
35293W        W 1834  39.105   3.489   0.378
35294W        W 1835  38.858  42.771   1.417
35295W        W 1836   2.502  28.358   0.901
35296W        W 1837  13.865  32.189  10.744
35297W        W 1838  44.543  17.823   3.854
35298W        W 1839  18.200  23.038  13.908
35299W        W 1840  12.744  28.353  14.367
35300W        W 1841  28.001   8.426  14.181
35301W        W 1842  16.876   9.716   1.951
35302W        W 1843  17.509  20.582   0.808
35303W        W 1844  44.369   9.112   1.702
35304W        W 1845   3.917  32.706   0.459
35305W        W 1846  34.964  42.454   4.629
35306W        W 1847  16.699  16.653  12.563
35307W        W 1848  12.207  13.609  13.772
35308W        W 1849   7.160  37.898  14.455
35309W        W 1850  26.617  28.099  12.649
35310W        W 1851  13.715  41.804   1.100
35311W        W 1852  40.988  30.635  12.585
35312W        W 1853  23.737  29.087  14.424
35313W        W 1854  44.915  35.815  13.512
35314W        W 1855  11.049  12.227  11.666
35315W        W 1856  41.561  29.633   1.897
35316W        W 1857  40.888   2.326   1.276
35317W        W 1858  28.844   5.891   3.773
35318W        W 1859  37.792  27.543  14.965
35319W        W 1860  19.954  16.989   2.636
35320W        W 1861  25.087  17.547  14.339
35321W        W 1862   9.835  35.374  14.885
35322W        W 1863  38.523  36.279  11.711
35323W        W 1864  13.205  42.353   2.593
35324W        W 1865  18.157  35.572  12.701
35325W        W 1866  37.610  30.560   4.092
35326W        W 1867  32.860   2.336   0.912
35327W        W 1868   1.765  30.491   1.760
35328W        W 1869   1.146   8.338  14.540
35329W        W 1870  21.818  15.688  12.497
35330W        W 1871  18.541  10.275  10.798
35331W        W 1872  12.299  34.259  12.126
35332W        W 1873  18.945  15.180  14.229
35333W        W 1874  43.535  40.815  10.402
35334W        W 1875   6.824  37.262   2.915
35335W        W 1876  21.844  14.138   3.150
35336W        W 1877  37.031   3.331   3.664
35337W        W 1878   6.640  38.585  13.586
35338W        W 1879  26.113  25.199   1.888
35339W        W 1880  21.548  40.145  13.425
35340W        W 1881  32.142  37.533  14.883
35341W        W 1882  30.238  32.415   1.252
35342W        W 1883  15.623  28.584  11.713
35343W        W 1884  15.367   1.826  12.539
35344W        W 1885   0.912  25.008  14.221
35345W        W 1886   1.922  17.716  11.311
35346W        W 1887   5.073  34.548  11.873
35347W        W 1888  37.859  37.413  14.464
35348W        W 1889  38.760  35.106  14.315
35349W        W 1890  36.285  43.426  12.099
35350W        W 1891  43.130  17.638   2.827
35351W        W 1892  36.535  43.493   4.128
35352W        W 1893  27.202   0.021   2.409
35353W        W 1894  16.668  38.454  12.534
35354W        W 1895  29.826  39.586   1.765
35355W        W 1896   7.512  18.040   1.826
35356W        W 1897  35.995   7.316   4.563
35357W        W 1898   0.002  29.095   3.849
35358W        W 1899  30.306  23.225   4.260
35359W        W 1900  24.922  20.235  12.206
35360W        W 1901  17.230  32.584  11.004
35361W        W 1902  27.935   9.819   3.886
35362W        W 1903  31.675  40.984  12.709
35363W        W 1904  29.174  25.618  13.930
35364W        W 1905   3.850  28.923   3.610
35365W        W 1906  43.076  14.749  10.132
35366W        W 1907  37.204   3.611  11.545
35367W        W 1908  12.646   8.319   4.821
35368W        W 1909  24.679  34.558  13.263
35369W        W 1910   2.748  23.161  12.843
35370W        W 1911  20.183  16.712  11.536
35371W        W 1912  42.447  36.449  11.652
35372W        W 1913   4.483  19.985   4.657
35373W        W 1914  35.804  31.087  10.583
35374W        W 1915  21.126   7.914   2.230
35375W        W 1916  19.641  16.819  14.059
35376W        W 1917  12.013   4.707  10.047
35377W        W 1918  44.960   3.911   0.829
35378W        W 1919  40.207  24.106  10.901
35379W        W 1920  21.716   5.741  14.581
35380W        W 1921  12.195  18.087  14.988
35381W        W 1922  30.109  39.144  10.713
35382W        W 1923  26.156  22.999   4.757
35383W        W 1924  15.097  36.356   0.847
35384W        W 1925  32.637  41.558   3.806
35385W        W 1926   7.732   7.879  13.404
35386W        W 1927  43.761  39.191  12.737
35387W        W 1928  41.721   4.744  12.793
35388W        W 1929  14.334  27.860  12.932
35389W        W 1930  12.509  26.108   4.376
35390W        W 1931  35.397  24.216   3.817
35391W        W 1932   3.259  40.816   0.241
35392W        W 1933  25.266  35.616   0.224
35393W        W 1934  12.834  24.403   3.700
35394W        W 1935   8.183  19.734   1.848
35395W        W 1936  30.246  10.677  11.195
35396W        W 1937  34.411  19.853  12.103
35397W        W 1938  17.134  22.708   0.530
35398W        W 1939   0.216  27.882  11.174
35399W        W 1940  22.648  36.121   1.684
35400W        W 1941   2.436  19.707   0.986
35401W        W 1942  25.038  26.888  10.678
35402W        W 1943  34.156  44.342   4.859
35403W        W 1944  44.414   7.233   3.269
35404W        W 1945  40.223  16.386  11.505
35405W        W 1946  22.441   1.332  12.003
35406W        W 1947  15.163  21.284  11.705
35407W        W 1948  27.506  16.081   4.315
35408W        W 1949   1.492  32.133   2.310
35409W        W 1950  13.320  20.603  10.750
35410W        W 1951  14.295  14.045   4.646
35411W        W 1952  37.529  17.056  14.980
35412W        W 1953  14.362  17.340  10.580
35413W        W 1954   8.465  12.314   4.329
35414W        W 1955  30.594   2.848   1.081
35415W        W 1956  22.688  21.745   0.041
35416W        W 1957  16.876  39.316  11.579
35417W        W 1958   9.352   9.772   1.389
35418W        W 1959  23.388  42.844  12.457
35419W        W 1960  29.540  43.456   4.678
35420W        W 1961   5.155  41.254  10.992
35421W        W 1962  16.494   2.841   2.230
35422W        W 1963  29.194  14.916   4.210
35423W        W 1964  38.888  15.381  13.953
35424W        W 1965   8.697  22.153   4.845
35425W        W 1966  10.610  40.721  13.963
35426W        W 1967  43.429  23.959  13.424
35427W        W 1968  24.119  14.578   0.394
35428W        W 1969  27.994  38.216   3.159
35429W        W 1970  29.165  42.780  14.949
35430W        W 1971   5.328   5.992   3.216
35431W        W 1972  25.185   2.819   4.270
35432W        W 1973  31.451  17.178   0.010
35433W        W 1974  32.417   5.956   2.199
35434W        W 1975   9.791  28.112  11.970
35435W        W 1976  30.492  23.708   0.478
35436W        W 1977  25.166  33.028  14.751
35437W        W 1978   1.720  33.722   5.035
35438W        W 1979  20.539   2.324  13.858
35439W        W 1980  30.479  16.687  13.032
35440W        W 1981  23.130   8.097  10.145
35441W        W 1982  44.279   3.657  11.600
35442W        W 1983   2.547  30.956  12.123
35443W        W 1984  38.800  35.623  10.738
35444W        W 1985  35.976   0.442  13.772
35445W        W 1986   4.027   5.340  12.616
35446W        W 1987  25.423  13.322  12.552
35447W        W 1988  40.261  15.651  11.029
35448W        W 1989  13.567   1.314  13.945
35449W        W 1990  23.157  29.212  12.256
35450W        W 1991  43.357  17.777   1.881
35451W        W 1992  39.994   1.654   0.455
35452W        W 1993   5.234  20.773  11.184
35453W        W 1994  12.174   0.763   4.248
35454W        W 1995  39.111   7.147  10.780
35455W        W 1996  16.360  38.519  12.122
35456W        W 1997  42.316  21.709  14.807
35457W        W 1998  12.065  35.433   3.354
35458W        W 1999  40.055  41.986  14.553
35459W        W 2000   1.216  39.874   4.605
35460W        W 2001   5.846  23.667  14.896
35461W        W 2002   1.429  22.631   1.943
35462W        W 2003  29.554  19.421  13.540
35463W        W 2004  41.852  35.087   3.156
35464W        W 2005   8.898  17.783  11.981
35465W        W 2006  43.038  26.070   2.747
35466W        W 2007  27.142   1.487   0.825
35467W        W 2008  32.916  33.987   0.717
35468W        W 2009  23.137  17.218  11.525
35469W        W 2010   7.448  26.227  12.458
35470W        W 2011   8.736  27.546  11.382
35471W        W 2012  23.073  13.878   3.136
35472W        W 2013  21.464  31.253   1.264
35473W        W 2014   7.141  13.592  14.947
35474W        W 2015  29.024  24.674   4.622
35475W        W 2016  39.872  23.754  11.033
35476W        W 2017  11.864   7.837  13.327
35477W        W 2018   4.669  36.352  13.388
35478W        W 2019  18.330   9.279   3.769
35479W        W 2020  30.109  17.726   0.042
35480W        W 2021  29.210  35.074  14.283
35481W        W 2022  24.715   5.449  14.316
35482W        W 2023  42.430  16.849   2.706
35483W        W 2024  44.233  14.749   2.807
35484W        W 2025  43.156  11.002  12.514
35485W        W 2026  14.874  31.964   0.900
35486W        W 2027   5.834  28.727  11.175
35487W        W 2028  27.437  28.610  10.944
35488W        W 2029   0.541  17.200  10.439
35489W        W 2030  27.438  43.023  14.482
35490W        W 2031  26.272   5.838  12.270
35491W        W 2032  40.376  37.149  10.613
35492W        W 2033  33.608  22.213   0.001
35493W        W 2034  32.029   4.499   4.186
35494W        W 2035  10.723   8.922  10.803
35495W        W 2036  18.121  13.629   2.423
35496W        W 2037  39.390  15.530   2.166
35497W        W 2038  16.332  32.877  14.327
35498W        W 2039   2.231  43.493  12.598
35499W        W 2040  15.206  13.716   0.186
35500W        W 2041  44.386  30.656   1.216
35501W        W 2042  37.181  33.826  12.977
35502W        W 2043  44.224   6.292  12.954
35503W        W 2044  42.343  20.258  11.986
35504W        W 2045  28.017  30.670   2.349
35505W        W 2046  18.733  37.387  12.524
35506W        W 2047  26.687  39.779  11.462
35507W        W 2048  29.417   7.403   2.173
35508W        W 2049  22.424  35.508  14.100
35509W        W 2050   7.615  28.692   4.785
35510W        W 2051  33.361  27.453   4.977
35511W        W 2052  26.433  20.512   4.160
35512W        W 2053  30.703  22.747   0.361
35513W        W 2054  19.837  27.666   0.307
35514W        W 2055  27.201  23.702  14.294
35515W        W 2056  30.418  33.983   2.858
35516W        W 2057   7.752  41.986  14.529
35517W        W 2058  17.643  40.034   0.211
35518W        W 2059  43.239   2.761   0.980
35519W        W 2060   3.693  30.378  11.485
35520W        W 2061  30.766  29.615   4.606
35521W        W 2062  10.937   6.767  11.604
35522W        W 2063  36.835  42.897   1.046
35523W        W 2064  16.402  40.948  13.926
35524W        W 2065   1.050  13.983  12.999
35525W        W 2066  17.121  33.863  11.825
35526W        W 2067  27.974  32.520   0.218
35527W        W 2068  28.097  19.028  12.875
35528W        W 2069   3.470  12.768   0.976
35529W        W 2070  12.823  10.812  14.956
35530W        W 2071  19.245  35.651   2.397
35531W        W 2072  43.413  40.321  13.447
35532W        W 2073  32.049  15.158  14.924
35533W        W 2074  18.531   7.263  11.176
35534W        W 2075  43.544   9.968   2.276
35535W        W 2076  41.529  27.461   2.399
35536W        W 2077  37.229   6.405  10.919
35537W        W 2078  36.671  15.420   1.378
35538W        W 2079   1.517  21.597  14.276
35539W        W 2080  35.788  20.173   4.214
35540W        W 2081  35.552  29.943   1.182
35541W        W 2082  11.485  36.023   0.980
35542W        W 2083  24.675  19.917  14.070
35543W        W 2084   3.454  42.171  11.196
35544W        W 2085   4.572  34.529  11.940
35545W        W 2086  15.364  31.892  13.877
35546W        W 2087   2.361  11.228  13.953
35547W        W 2088  24.562  16.101   2.652
35548W        W 2089  42.321  20.589   4.187
35549W        W 2090  12.844  28.659  10.497
35550W        W 2091  27.229  28.018  12.881
35551W        W 2092  21.972  30.093   0.930
35552W        W 2093  35.322  25.598   3.672
35553W        W 2094  31.423   9.798   4.762
35554W        W 2095   3.592   4.131  10.101
35555W        W 2096   1.707   6.167   1.692
35556W        W 2097  19.962  16.992  11.993
35557W        W 2098  33.787  15.243  12.335
35558W        W 2099  16.947  26.252   0.694
35559W        W 2100  11.094  20.040   1.421
35560W        W 2101   0.112   7.729   1.046
35561W        W 2102   3.426  43.779   2.605
35562W        W 2103  26.446  24.252   4.580
35563W        W 2104  37.376  22.493   2.508
35564W        W 2105  40.767  14.663   3.552
35565W        W 2106  17.801  33.016   1.677
35566W        W 2107  34.128   0.799  13.492
35567W        W 2108  10.123  28.040  10.647
35568W        W 2109  11.307   4.697  13.556
35569W        W 2110  39.091  42.790  11.586
35570W        W 2111  44.465  36.503  12.041
35571W        W 2112  34.303  15.453  13.531
35572W        W 2113   2.574  25.308   2.599
35573W        W 2114  44.824  33.885  11.496
35574W        W 2115  39.689  28.252   1.921
35575W        W 2116  40.862  15.719  10.423
35576W        W 2117  35.684  19.700   2.006
35577W        W 2118   7.847  31.340  11.580
35578W        W 2119  26.523  39.516  14.702
35579W        W 2120   3.823  13.241   0.401
35580W        W 2121  11.269  29.486   1.425
35581W        W 2122  18.588  36.165   4.090
35582W        W 2123   3.750  32.647  10.653
35583W        W 2124  19.270  33.217   3.841
35584W        W 2125  43.786   1.970  13.468
35585W        W 2126   4.464  37.343   0.344
35586W        W 2127  26.067  33.429   1.750
35587W        W 2128  15.444  21.194  13.662
35588W        W 2129  18.518  28.607  13.256
35589W        W 2130  41.329  36.360  12.436
35590W        W 2131  31.003  37.317  12.651
35591W        W 2132  11.488  30.501   2.921
35592W        W 2133  40.266   5.193   1.765
35593W        W 2134  32.933  40.420   3.828
35594W        W 2135  38.416  17.929  11.681
35595W        W 2136  15.244   8.738  14.115
35596W        W 2137  32.595   4.715  13.891
35597W        W 2138  35.807  13.833   2.842
35598W        W 2139  13.783  36.488  12.006
35599W        W 2140  20.025  41.757   0.330
35600W        W 2141  32.022  41.446  14.648
35601W        W 2142  42.492  37.701   4.892
35602W        W 2143   3.743   8.659   0.879
35603W        W 2144   9.588  40.496   2.606
35604W        W 2145  32.338  12.762  12.154
35605W        W 2146  29.395  25.148  11.332
35606W        W 2147  32.583   3.763   4.081
35607W        W 2148   0.253  24.041  11.957
35608W        W 2149  38.066  24.806   4.695
35609W        W 2150  28.850  15.150   2.944
35610W        W 2151  13.787  42.816   3.718
35611W        W 2152  32.415  43.106   4.989
35612W        W 2153  20.057  33.860  11.056
35613W        W 2154   3.695  43.932   0.809
35614W        W 2155  28.133  25.828   4.643
35615W        W 2156  22.780  43.106   0.818
35616W        W 2157   9.115  31.424  11.480
35617W        W 2158  25.461  15.588   3.019
35618W        W 2159  32.553  17.217  11.526
35619W        W 2160  22.976  24.202   4.814
35620W        W 2161  21.130  28.986   2.457
35621W        W 2162  33.337   9.778   1.364
35622W        W 2163  29.333  37.982  12.229
35623W        W 2164  11.117  44.474  14.425
35624W        W 2165  40.790  36.248   4.116
35625W        W 2166  14.319  31.726  12.664
35626W        W 2167  18.020   9.075   1.753
35627W        W 2168   2.218  21.278  11.228
35628W        W 2169  29.981  35.616   3.428
35629W        W 2170  29.066  11.484  10.237
35630W        W 2171   6.923  32.820  14.026
35631W        W 2172  20.197  40.069   0.793
35632W        W 2173   3.170  16.629   2.842
35633W        W 2174  32.551  30.061   1.009
35634W        W 2175  40.285  27.097  11.231
35635W        W 2176  21.269  36.451  14.346
35636W        W 2177   6.437  28.731   2.585
35637W        W 2178  22.544  11.105  14.747
35638W        W 2179  23.201  23.963  13.875
35639W        W 2180   7.634   9.853   4.559
35640W        W 2181   0.746  29.187  12.129
35641W        W 2182   4.760  33.248  11.566
35642W        W 2183  17.821  33.867  12.996
35643W        W 2184  20.720   3.934  12.488
35644W        W 2185  38.022  22.735   0.910
35645W        W 2186  20.549  39.585  10.812
35646W        W 2187  21.615   6.199  14.414
35647W        W 2188  44.745   9.178   3.672
35648W        W 2189   4.065  24.706   1.963
35649W        W 2190   2.218  25.993   2.287
35650W        W 2191  23.262   6.712   4.891
35651W        W 2192  27.658  35.702   2.293
35652W        W 2193  11.687  39.946   1.244
35653W        W 2194  31.392  23.558  11.175
35654W        W 2195   0.023  22.233  11.537
35655W        W 2196  30.421  23.920   0.949
35656W        W 2197  10.044  33.592   2.280
35657W        W 2198   7.968  11.110   0.866
35658W        W 2199  14.604  12.313   0.237
35659W        W 2200  24.156  11.244  10.706
35660W        W 2201  24.139   0.021   4.181
35661W        W 2202  41.301  11.372   0.362
35662W        W 2203   4.648   4.664  12.551
35663W        W 2204   7.749  25.064  12.112
35664W        W 2205   8.990  35.355  11.252
35665W        W 2206   5.389  38.525   4.702
35666W        W 2207  10.374  13.588  13.344
35667W        W 2208  11.591  21.271  11.997
35668W        W 2209  35.596  27.909   3.194
35669W        W 2210   9.172  17.611  11.531
35670W        W 2211  40.543   7.734   4.847
35671W        W 2212  32.135  31.939   0.030
35672W        W 2213  37.142  35.146   0.498
35673W        W 2214  10.659  32.216   3.238
35674W        W 2215  16.895  27.388  12.291
35675W        W 2216  35.837  42.820   1.486
35676W        W 2217  38.023  21.578  13.011
35677W        W 2218   4.418  19.288  12.623
35678W        W 2219   0.876  27.159   3.313
35679W        W 2220  22.255  13.512  14.087
35680W        W 2221  35.962  30.146  13.414
35681W        W 2222  14.235  13.713  12.918
35682W        W 2223  43.934  29.129  14.080
35683W        W 2224  36.347  33.622   3.550
35684W        W 2225  20.155  32.414  13.372
35685W        W 2226   2.531  39.769   0.240
35686W        W 2227  30.260  28.724  13.025
35687W        W 2228  11.905  22.885   4.141
35688W        W 2229   8.747  33.531  12.131
35689W        W 2230  22.595   8.672  14.550
35690W        W 2231  17.032  19.139  10.435
35691W        W 2232   3.813  23.126   0.902
35692W        W 2233  22.599  24.878   1.964
35693W        W 2234  17.644   2.463   4.873
35694W        W 2235  35.120  16.815  11.568
35695W        W 2236   8.670   1.427   0.528
35696W        W 2237  42.077  36.601   3.089
35697W        W 2238   2.735  30.952   2.064
35698W        W 2239  16.481  34.918  11.953
35699W        W 2240  13.053  32.084  13.876
35700W        W 2241  18.669   7.827   3.580
35701W        W 2242   5.932  39.093  14.875
35702W        W 2243  36.061  41.930  12.831
35703W        W 2244  32.971  13.717  13.951
35704W        W 2245  32.633  28.473   1.856
35705W        W 2246  25.545   5.591  14.813
35706W        W 2247   5.748  31.696   0.984
35707W        W 2248  22.563  39.456  14.295
35708W        W 2249  27.950  13.331   1.343
35709W        W 2250   8.047  27.985   0.471
35710W        W 2251  23.096  23.199   4.895
35711W        W 2252  17.060  37.103   3.049
35712W        W 2253  31.801   5.188   1.426
35713W        W 2254   8.632   4.015  11.820
35714W        W 2255  31.150  19.540   4.338
35715W        W 2256  37.946  11.720   2.359
35716W        W 2257   1.727  20.521  14.949
35717W        W 2258  25.130  26.079  14.285
35718W        W 2259  28.225  39.747  10.639
35719W        W 2260  16.062   4.409  13.794
35720W        W 2261  44.671  42.701  13.813
35721W        W 2262   4.676  30.845  13.529
35722W        W 2263   8.242   9.791  10.815
35723W        W 2264  12.365  10.980   1.711
35724W        W 2265  39.466   8.892  13.343
35725W        W 2266  43.964  24.760  10.706
35726W        W 2267   1.203   2.349   1.903
35727W        W 2268  22.494  44.426   2.868
35728W        W 2269   7.486  39.283   1.195
35729W        W 2270  26.025  39.318  13.933
35730W        W 2271  32.477  21.565   0.030
35731W        W 2272  13.516  30.664   4.133
35732W        W 2273  38.248  28.857   2.818
35733W        W 2274   4.898   6.279   0.479
35734W        W 2275   8.951  31.007   3.220
35735W        W 2276  36.337  31.902  10.860
35736W        W 2277  34.149  43.084  13.988
35737W        W 2278  35.605  39.758   0.727
35738W        W 2279  31.582  44.934  14.311
35739W        W 2280  19.486  14.699   0.350
35740W        W 2281  12.849   9.404   3.388
35741W        W 2282  40.326  16.121   2.409
35742W        W 2283  35.253  33.541   0.846
35743W        W 2284  16.518   7.912  14.997
35744W        W 2285  11.210   2.292   1.031
35745W        W 2286  33.450   8.139   2.265
35746W        W 2287   4.958  20.070   1.927
35747W        W 2288  13.115  31.526  11.484
35748W        W 2289  31.984   2.249   2.720
35749W        W 2290  41.316  18.195   3.243
35750W        W 2291  34.346  24.639  11.192
35751W        W 2292   5.242   6.142   4.052
35752W        W 2293  19.947  24.043   1.823
35753W        W 2294  33.079  20.153  14.082
35754W        W 2295  18.212  23.963  14.891
35755W        W 2296  32.694  23.542   4.091
35756W        W 2297  27.799  18.645  10.780
35757W        W 2298  37.084  22.346   1.222
35758W        W 2299   3.012   0.815  11.523
35759W        W 2300   7.196  11.051  13.918
35760W        W 2301   0.728  15.123  12.297
35761W        W 2302  20.880   0.727   3.592
35762W        W 2303   4.895  23.289  12.553
35763W        W 2304  16.260   6.837  12.507
35764W        W 2305  24.606  36.286  14.278
35765W        W 2306  21.078  19.706  13.890
35766W        W 2307  42.024   8.851  11.007
35767W        W 2308  26.576  40.074   4.606
35768W        W 2309  36.034  13.630  10.703
35769W        W 2310  27.496   9.271  10.823
35770W        W 2311  39.883  43.495   0.712
35771W        W 2312  10.660  22.606   0.857
35772W        W 2313  21.509  40.374  10.637
35773W        W 2314  38.903   5.201  12.725
35774W        W 2315   6.316  18.070  10.620
35775W        W 2316  28.715  44.383  12.984
35776W        W 2317  40.334  43.328  12.639
35777W        W 2318  44.578  28.862  14.862
35778W        W 2319  17.991  10.125   4.868
35779W        W 2320  16.048  14.797   4.514
35780W        W 2321  30.895  40.697   2.942
35781W        W 2322  19.686  42.102   2.693
35782W        W 2323  21.838  30.130   2.785
35783W        W 2324  14.035  16.712   0.331
35784W        W 2325  21.758  20.180  13.028
35785W        W 2326  14.736  39.857  12.155
35786W        W 2327  32.103  30.221   4.570
35787W        W 2328  30.499  44.544   3.185
35788W        W 2329  29.109  42.217   4.805
35789W        W 2330  19.988  29.821  11.482
35790W        W 2331   7.968  42.291   4.561
35791W        W 2332   5.222  18.715  14.549
35792W        W 2333   1.950  29.745  13.852
35793W        W 2334  39.608   9.634  11.142
35794W        W 2335   5.306  43.908  14.474
35795W        W 2336  26.562  40.961  10.622
35796W        W 2337   0.116  29.680  12.845
35797W        W 2338  16.503   4.718  13.862
35798W        W 2339   5.432  16.718   1.161
35799W        W 2340  34.821   7.534   2.380
35800W        W 2341  33.985  35.202   2.713
35801W        W 2342   4.850  28.203   4.058
35802W        W 2343  23.056  21.696  11.622
35803W        W 2344   8.123  31.611  14.480
35804W        W 2345  41.934   4.974  13.847
35805W        W 2346   5.053  34.547  11.129
35806W        W 2347  19.094  14.071  11.546
35807W        W 2348  20.122   9.783   2.386
35808W        W 2349  43.897  19.072   4.543
35809W        W 2350   9.290   5.273  14.073
35810W        W 2351  30.668  32.527  11.938
35811W        W 2352  38.009  18.060   1.882
35812W        W 2353  22.677  14.384   4.605
35813W        W 2354  12.063  36.798   1.359
35814W        W 2355  21.514  38.824  13.418
35815W        W 2356  37.062  25.639   4.226
35816W        W 2357   2.890  37.557   3.808
35817W        W 2358  29.903  37.504   2.520
35818W        W 2359  39.022   4.374   3.892
35819W        W 2360   0.897  11.726   2.805
35820W        W 2361  25.605   6.259  10.693
35821W        W 2362  34.027  39.138  12.670
35822W        W 2363   1.855  42.966   2.173
35823W        W 2364  37.407  21.481   3.507
35824W        W 2365  15.764   8.655   1.404
35825W        W 2366  20.333  11.713   4.508
35826W        W 2367  16.479  19.282   1.010
35827W        W 2368  16.047  32.068  12.763
35828W        W 2369  15.675  30.054  11.678
35829W        W 2370  10.117  37.762  10.823
35830W        W 2371   1.719  44.189   4.523
35831W        W 2372  17.169   8.456   2.864
35832W        W 2373  33.612  20.499  11.094
35833W        W 2374  19.255  43.161   2.909
35834W        W 2375  34.310  18.811   1.934
35835W        W 2376  20.471  44.135  11.914
35836W        W 2377   9.328  40.144  14.865
35837W        W 2378  20.591   8.837   3.920
35838W        W 2379  29.644  35.108  10.352
35839W        W 2380   5.762  23.624  13.104
35840W        W 2381  36.284  33.340  10.011
35841W        W 2382  34.356   5.364  11.963
35842W        W 2383  22.793  41.484   3.265
35843W        W 2384  16.270  44.254   4.838
35844W        W 2385  41.554  23.519   4.621
35845W        W 2386  23.809  34.335   1.356
35846W        W 2387  24.549  14.644   4.245
35847W        W 2388  13.069  27.542   2.651
35848W        W 2389  20.550  32.084   1.806
35849W        W 2390  20.086  28.115   0.385
35850W        W 2391  10.988  34.016  13.888
35851W        W 2392   1.873  38.565   0.899
35852W        W 2393   1.444   0.050   0.971
35853W        W 2394  22.746  35.937   3.153
35854W        W 2395   4.757  39.950  13.091
35855W        W 2396  22.298  36.079  13.980
35856W        W 2397   7.259  22.687   3.680
35857W        W 2398  33.506  27.403   9.902
35858W        W 2399  11.307  24.244  11.926
35859W        W 2400  29.571  12.877   3.346
35860W        W 2401  41.294  17.525   0.849
35861W        W 2402  27.570  11.084  13.875
35862W        W 2403  19.220  15.579   1.629
35863W        W 2404  15.069  44.471  13.102
35864W        W 2405  35.995  39.214  11.088
35865W        W 2406  43.748  38.044   3.203
35866W        W 2407  31.060  31.223  12.895
35867W        W 2408  12.045  13.377   3.024
35868W        W 2409  10.678   0.718   3.684
35869W        W 2410  27.102   8.144  14.296
35870W        W 2411  31.191  40.404  10.747
35871W        W 2412  30.929  35.995  11.138
35872W        W 2413  35.111  35.794   3.292
35873W        W 2414  35.288  25.158   3.982
35874W        W 2415  22.145   1.212  10.796
35875W        W 2416  29.075   9.602  14.355
35876W        W 2417  35.494  34.642   3.661
35877W        W 2418  44.704  36.259  10.799
35878W        W 2419  44.469  20.797   1.926
35879W        W 2420  11.609   8.375  12.650
35880W        W 2421  13.678  18.191   3.850
35881W        W 2422  33.161  11.630   2.849
35882W        W 2423   0.234  18.531   0.417
35883W        W 2424  30.175  18.008  12.613
35884W        W 2425  19.705  39.286   4.586
35885W        W 2426  34.093  17.555   2.115
35886W        W 2427  33.649  36.860   1.683
35887W        W 2428  27.006  10.722  14.346
35888W        W 2429  33.426  19.121   3.350
35889W        W 2430  15.572   2.541  11.101
35890W        W 2431  39.493  37.540  10.947
35891W        W 2432  44.846  24.049  12.271
35892W        W 2433  27.095  24.036  13.422
35893W        W 2434  29.695  14.384   2.345
35894W        W 2435  38.874  41.337   3.444
35895W        W 2436   8.943  18.721  12.850
35896W        W 2437  13.092  29.086  13.786
35897W        W 2438  36.699  37.611   3.251
35898W        W 2439  17.230  36.473   0.811
35899W        W 2440  31.823  20.675  12.000
35900W        W 2441  13.211  37.575   4.502
35901W        W 2442  41.073  40.937   0.054
35902W        W 2443  38.572   1.202  12.135
35903W        W 2444   6.351  31.215   2.102
35904W        W 2445  30.427   5.936   4.875
35905W        W 2446  36.349  16.450  13.165
35906W        W 2447  23.056  32.883   1.931
35907W        W 2448   9.778  37.372  11.624
35908W        W 2449   2.597  37.564   4.586
35909W        W 2450   1.967  31.941  12.951
35910W        W 2451  18.071  41.492  12.498
35911W        W 2452  31.718  17.337   4.442
35912W        W 2453  33.865  12.164   3.941
35913W        W 2454  26.478  23.581  12.531
35914W        W 2455   4.375  19.291   3.571
35915W        W 2456  30.970  42.876  11.558
35916W        W 2457  29.276  44.297   2.666
35917W        W 2458   0.350  35.058  10.532
35918W        W 2459  42.071  24.984   0.764
35919W        W 2460  11.145  39.867   1.279
35920W        W 2461   3.563  24.143  13.436
35921W        W 2462  29.602   1.477  14.482
35922W        W 2463   0.579  29.558  14.052
35923W        W 2464  15.793  43.759   0.853
35924W        W 2465  22.116  23.159   0.328
35925W        W 2466   9.907  16.669   1.812
35926W        W 2467  38.942   9.516   1.717
35927W        W 2468  32.965   4.029  12.490
35928W        W 2469   2.223   3.694  10.530
35929W        W 2470  35.805  39.288   1.939
35930W        W 2471   6.388  10.250  10.468
35931W        W 2472  13.543  19.084   0.256
35932W        W 2473  30.642   3.417  11.639
35933W        W 2474   7.132  16.237  13.528
35934W        W 2475  31.214  39.317   1.346
35935W        W 2476   8.901  24.178  13.150
35936W        W 2477  37.551   4.248   4.522
35937W        W 2478  40.733  34.301  14.954
35938W        W 2479  28.162   7.826  11.126
35939W        W 2480  20.701  35.283   2.290
35940W        W 2481  38.118   6.967   1.781
35941W        W 2482  41.224  10.146   1.399
35942W        W 2483   6.525  43.715   2.027
35943W        W 2484  10.362  39.404   0.175
35944W        W 2485  31.007  20.798   4.114
35945W        W 2486  39.060  41.035   1.770
35946W        W 2487  24.314  21.529  12.053
35947W        W 2488  17.604  11.041   1.782
35948W        W 2489  13.890   6.189   4.496
35949W        W 2490   0.576  14.256  14.970
35950W        W 2491  15.295  16.256  13.894
35951W        W 2492  33.969  29.693  12.937
35952W        W 2493  41.614   7.636  14.391
35953W        W 2494  37.881  31.652  13.568
35954W        W 2495  25.206  20.650  13.026
35955W        W 2496  18.226  25.206  11.647
35956W        W 2497  37.354  13.124   0.179
35957W        W 2498  38.530  11.650   1.951
35958W        W 2499  13.273  40.399  10.863
35959W        W 2500  41.799  31.360  12.443
35960W        W 2501  13.861  18.200   2.609
35961W        W 2502  27.895  15.516  14.431
35962W        W 2503  22.907   6.248  14.744
35963W        W 2504  25.818   6.143   5.422
35964W        W 2505  44.506  22.087   2.488
35965W        W 2506  30.109  14.102   0.018
35966W        W 2507  39.624   3.757   0.908
35967W        W 2508  38.041  34.361  12.975
35968W        W 2509   9.194  15.406  12.895
35969W        W 2510   9.639  17.278  13.996
35970W        W 2511  26.904  22.304   2.284
35971W        W 2512  28.224  31.557   3.857
35972W        W 2513  34.587  16.076  12.751
35973W        W 2514  30.312   7.978   1.152
35974W        W 2515  27.598  15.452   9.680
35975W        W 2516   6.913   6.233  12.471
35976W        W 2517  27.386  14.265   4.351
35977W        W 2518  38.142  13.101  12.501
35978W        W 2519   6.524  18.466   3.615
35979W        W 2520   3.795  44.761  11.617
35980W        W 2521   0.973  11.131  12.656
35981W        W 2522  20.532  41.288   3.189
35982W        W 2523   4.488   1.685  12.504
35983W        W 2524  35.410  13.003  12.143
35984W        W 2525  19.724  38.551  14.016
35985W        W 2526  14.680  23.277  11.308
35986W        W 2527  18.869  10.226  13.284
35987W        W 2528   7.613  39.658   0.231
35988W        W 2529  35.033   8.884   1.990
35989W        W 2530  15.503  27.284   0.823
35990W        W 2531  39.409   9.124  12.858
35991W        W 2532  12.189  42.218   1.838
35992W        W 2533  33.240   0.424  13.928
35993W        W 2534  35.587   5.727   1.916
35994W        W 2535  20.940  40.950   2.204
35995W        W 2536  17.060   7.749   0.524
35996W        W 2537  43.431  36.469   4.485
35997W        W 2538   7.989  13.146   3.337
35998W        W 2539   7.738  16.284  13.969
35999W        W 2540   1.455   2.429   2.337
36000W        W 2541  31.970  22.791  14.102
36001W        W 2542  44.479   6.364  14.911
36002W        W 2543  35.670  19.013  13.035
36003W        W 2544   4.151  17.187  14.250
36004W        W 2545  18.612   0.660   4.594
36005W        W 2546  35.058  16.598  12.082
36006W        W 2547  33.617  38.775  10.437
36007W        W 2548  21.122  12.598   2.250
36008W        W 2549  20.025   4.043   4.089
36009W        W 2550  21.742   9.836  14.296
36010W        W 2551   2.188  21.436   1.241
36011W        W 2552  33.316   5.440   2.161
36012W        W 2553   4.071  36.698  12.131
36013W        W 2554  33.277  41.538   2.104
36014W        W 2555  20.661  41.469  14.340
36015W        W 2556  11.156   9.996  12.052
36016W        W 2557  18.315  26.646   1.145
36017W        W 2558  23.581   2.976   1.812
36018W        W 2559  22.500  19.914   1.923
36019W        W 2560   1.837   2.175   1.263
36020W        W 2561  43.941  37.156   1.731
36021W        W 2562   0.994  39.130   0.605
36022W        W 2563  10.349  12.613   4.155
36023W        W 2564   9.464   7.662   4.663
36024W        W 2565  44.256  22.545  13.002
36025W        W 2566  27.002  28.659  11.234
36026W        W 2567  38.612   3.726  10.644
36027W        W 2568  33.751  30.545  11.692
36028W        W 2569   9.115   0.461  12.099
36029W        W 2570   3.371  19.666   4.118
36030W        W 2571  13.145   1.298   1.190
36031W        W 2572  37.638   3.020  14.864
36032W        W 2573  36.869  21.040  14.321
36033W        W 2574   9.353  41.151   1.661
36034W        W 2575   2.084  10.684   2.816
36035W        W 2576  35.296  26.992   0.467
36036W        W 2577  38.807  37.306   4.028
36037W        W 2578  37.010   4.462  13.937
36038W        W 2579  20.098  17.520   4.984
36039W        W 2580  10.719   1.224  12.679
36040W        W 2581  20.134   5.552   4.167
36041W        W 2582  25.714  29.050   0.079
36042W        W 2583  25.151  14.697  12.531
36043W        W 2584  23.780  42.710  13.870
36044W        W 2585  20.608   5.787  11.824
36045W        W 2586  26.419  20.522   3.312
36046W        W 2587  11.163  32.109   3.638
36047W        W 2588  38.660  19.894  11.438
36048W        W 2589  37.489  32.727  12.402
36049W        W 2590  37.158  14.814  12.975
36050W        W 2591  17.112  31.767   1.539
36051W        W 2592  35.581  19.761  10.684
36052W        W 2593   7.414  20.125   4.699
36053W        W 2594  25.735  28.240  11.209
36054W        W 2595  36.384  41.731   4.664
36055W        W 2596  10.512   5.016  12.052
36056W        W 2597   0.231  22.966   1.613
36057W        W 2598   0.587   0.258  13.539
36058W        W 2599   5.339   7.060   1.719
36059W        W 2600  37.577   6.135  12.223
36060W        W 2601   0.697  20.248  14.363
36061W        W 2602   1.035  22.779  11.985
36062W        W 2603  16.529  36.922   4.593
36063W        W 2604  42.551  30.893   1.186
36064W        W 2605  10.927  21.999  13.029
36065W        W 2606  34.224  34.683  13.279
36066W        W 2607   7.259  32.080  14.368
36067W        W 2608  19.785  10.524   4.239
36068W        W 2609  16.887  27.239  10.972
36069W        W 2610   1.208  35.294   1.070
36070W        W 2611  39.094  34.634  12.089
36071W        W 2612  27.153  29.633   2.379
36072W        W 2613  10.193  29.891   3.646
36073W        W 2614  13.550  44.318  12.073
36074W        W 2615  13.796  19.671  14.461
36075W        W 2616  37.814  17.200  14.252
36076W        W 2617  34.694  38.334  12.461
36077W        W 2618  40.870  39.434   3.881
36078W        W 2619  43.703   6.698   1.236
36079W        W 2620  39.051  28.370   3.173
36080W        W 2621  41.107  15.921  13.994
36081W        W 2622  26.791  37.938   0.925
36082W        W 2623  35.870  11.735  14.615
36083W        W 2624   3.300  40.580  13.861
36084W        W 2625  11.540  26.034   2.606
36085W        W 2626  37.403  11.754  10.788
36086W        W 2627  20.427  30.194   1.650
36087W        W 2628  27.961   0.875   3.560
36088W        W 2629  19.777  40.034   0.009
36089W        W 2630  23.667  17.654  12.561
36090W        W 2631  29.295   5.508   4.006
36091W        W 2632  14.638  28.929  14.988
36092W        W 2633  28.010   4.711  11.296
36093W        W 2634  31.953  37.289  12.689
36094W        W 2635  32.387  26.537   4.131
36095W        W 2636  16.978  38.710  10.066
36096W        W 2637  39.556  11.267   3.675
36097W        W 2638   2.446   9.784  13.365
36098W        W 2639  13.326  36.136   2.446
36099W        W 2640  30.187  34.426   3.904
36100W        W 2641  33.104  39.849  11.701
36101W        W 2642   6.807  16.193   3.447
36102W        W 2643   6.487  31.302   0.323
36103W        W 2644  34.481   4.892   4.822
36104W        W 2645  41.921  36.117  14.869
36105W        W 2646  21.010  23.138  11.545
36106W        W 2647   3.904  34.735   5.019
36107W        W 2648  27.848  40.773   2.072
36108W        W 2649  38.702  37.786  13.890
36109W        W 2650  26.778  14.509   2.698
36110W        W 2651  35.286  44.374  13.558
36111W        W 2652  22.183  41.371   1.173
36112W        W 2653   5.134  34.019  11.088
36113W        W 2654  42.517  36.194  14.863
36114W        W 2655  13.330  35.769   1.122
36115W        W 2656  14.659  17.649  11.238
36116W        W 2657  16.163   3.234  10.664
36117W        W 2658  43.515  11.250   3.634
36118W        W 2659  37.985  16.173   1.325
36119W        W 2660  40.557   9.754   2.376
36120W        W 2661  23.395  25.750   2.157
36121W        W 2662   7.240   4.884   2.432
36122W        W 2663   0.224  30.416   1.827
36123W        W 2664   3.856  17.829   0.906
36124W        W 2665  31.267  28.371   0.627
36125W        W 2666  35.142  23.248  10.517
36126W        W 2667  32.883  27.735   4.184
36127W        W 2668   1.288  33.310  11.943
36128W        W 2669   5.340  10.781  10.680
36129W        W 2670  37.700  21.218   1.855
36130W        W 2671  31.443  38.910  14.335
36131W        W 2672  41.024  33.317  14.983
36132W        W 2673  43.326  33.943   3.134
36133W        W 2674  13.382  44.222   1.868
36134W        W 2675  44.038  38.509   3.268
36135W        W 2676  18.945  23.090  12.572
36136W        W 2677  33.111  21.725   4.324
36137W        W 2678  11.202   9.711  10.733
36138W        W 2679  41.817   9.752  13.935
36139W        W 2680  17.672   8.356  10.999
36140W        W 2681  20.201  32.100   1.366
36141W        W 2682   4.163  33.438  11.984
36142W        W 2683  19.695   3.495  14.187
36143W        W 2684   6.906  26.589  10.926
36144W        W 2685  23.061  36.109   1.366
36145W        W 2686  38.301   8.914  14.383
36146W        W 2687  41.203  25.940  11.177
36147W        W 2688  38.411   5.648  14.175
36148W        W 2689  28.868  18.025   3.128
36149W        W 2690  14.200  23.773  10.696
36150W        W 2691   8.869  23.753   3.759
36151W        W 2692   4.797  16.075   3.662
36152W        W 2693  10.364  18.520   1.792
36153W        W 2694  14.144   1.516   3.407
36154W        W 2695  15.315  28.681   4.857
36155W        W 2696   0.927  30.610  14.428
36156W        W 2697   8.958  31.120  12.110
36157W        W 2698  38.411  26.203  14.072
36158W        W 2699  38.393  33.816   4.542
36159W        W 2700   1.853   3.810   1.569
36160W        W 2701  28.406  17.127  14.482
36161W        W 2702  28.176   8.644   1.185
36162W        W 2703  11.654  14.773  12.540
36163W        W 2704  16.268   7.504   3.170
36164W        W 2705   9.246  43.299  14.988
36165W        W 2706  39.421  41.621   3.652
36166W        W 2707   0.372   9.909  11.083
36167W        W 2708  16.151  32.868   4.135
36168W        W 2709   0.953  37.141   1.910
36169W        W 2710  23.494  33.784   2.875
36170W        W 2711  25.426  20.732  14.906
36171W        W 2712  24.920   1.013  14.830
36172W        W 2713  22.689   2.861   0.900
36173W        W 2714  38.393  36.134   0.879
36174W        W 2715  10.486  34.369   1.345
36175W        W 2716  43.838  19.063   1.280
36176W        W 2717  31.940  25.160   1.977
36177W        W 2718   8.232  17.598   0.435
36178W        W 2719  39.376  42.453   1.374
36179W        W 2720   3.831   4.870   0.284
36180W        W 2721  38.079  36.767  12.169
36181W        W 2722   7.113  14.115  13.428
36182W        W 2723  33.610  36.333  12.643
36183W        W 2724   0.733  30.889  11.293
36184W        W 2725   3.256  31.626  13.521
36185W        W 2726  23.739   9.834  10.761
36186W        W 2727  26.725  40.534   2.491
36187W        W 2728  30.197  17.861   4.118
36188W        W 2729  21.549  42.588  12.034
36189W        W 2730   1.749  26.229   2.264
36190W        W 2731   3.301  24.284  12.549
36191W        W 2732   1.378  34.622   1.450
36192W        W 2733  37.782   3.955  11.095
36193W        W 2734  25.923  33.002   1.467
36194W        W 2735  35.028  17.324  11.441
36195W        W 2736  11.120  19.713   0.071
36196W        W 2737  16.004  22.187  11.247
36197W        W 2738  37.423  12.107   2.165
36198W        W 2739  25.536  26.799  13.079
36199W        W 2740  27.965  35.929  11.683
36200W        W 2741   4.291  21.055  11.626
36201W        W 2742   9.402  30.852   4.109
36202W        W 2743  34.853  21.649  14.845
36203W        W 2744   4.753  28.368   1.873
36204W        W 2745  40.771  16.382  13.918
36205W        W 2746  29.491  27.096   4.157
36206W        W 2747  26.534  13.409   1.918
36207W        W 2748  29.214   7.724  13.467
36208W        W 2749  35.546  21.725   0.310
36209W        W 2750  33.661  36.091   2.145
36210W        W 2751  40.990  11.910  10.731
36211W        W 2752  13.377   2.941  11.890
36212W        W 2753  27.408  31.003   3.082
36213W        W 2754  41.563  16.725  10.439
36214W        W 2755   2.025  30.413  14.928
36215W        W 2756   5.830   9.857  14.550
36216W        W 2757  11.312  40.463   5.167
36217W        W 2758  40.130   6.215  11.482
36218W        W 2759  35.205  15.825  10.301
36219W        W 2760  43.106  14.816  13.148
36220W        W 2761  11.001  11.009   1.462
36221W        W 2762  28.054  25.469  11.156
36222W        W 2763  19.226   5.539   0.406
36223W        W 2764  41.785  21.547   1.759
36224W        W 2765   4.038   0.788   3.261
36225W        W 2766  26.499  27.680  14.422
36226W        W 2767  30.566   0.739   1.013
36227W        W 2768   3.985  15.816   2.344
36228W        W 2769  27.545  36.864   0.520
36229W        W 2770  11.630   2.361  12.913
36230W        W 2771   7.110  10.234  14.323
36231W        W 2772   7.423   9.883   2.974
36232W        W 2773  20.485  36.966   0.852
36233W        W 2774  39.446  28.709  11.656
36234W        W 2775  39.999   6.236   4.192
36235W        W 2776  16.833  33.598   0.994
36236W        W 2777  30.334  38.402   4.192
36237W        W 2778   2.838  44.697   5.002
36238W        W 2779  25.131   3.625  12.497
36239W        W 2780  35.216  16.963   2.865
36240W        W 2781  18.009  42.423  13.420
36241W        W 2782  27.138  35.323   2.334
36242W        W 2783  25.413  41.487  11.616
36243W        W 2784  40.967  11.437   3.246
36244W        W 2785  32.612  24.705  11.639
36245W        W 2786  36.517  40.484   1.590
36246W        W 2787  43.942  14.636  11.945
36247W        W 2788  31.619  16.309   1.190
36248W        W 2789  33.946  18.304  11.609
36249W        W 2790  10.360   6.891   2.470
36250W        W 2791   2.051  33.956  11.611
36251W        W 2792   0.642   2.833  13.247
36252W        W 2793  21.065  42.923  13.110
36253W        W 2794  36.552  39.818  12.977
36254W        W 2795  37.315  29.578   4.240
36255W        W 2796  31.846  17.219   3.445
36256W        W 2797  44.812  14.114  10.541
36257W        W 2798  10.874  16.140   4.168
36258W        W 2799   0.993  21.306  11.265
36259W        W 2800  26.106  43.468   4.581
36260W        W 2801   2.652  16.021   3.293
36261W        W 2802  20.573   1.241  14.910
36262W        W 2803   4.515  43.725   1.283
36263W        W 2804   0.345  21.957   1.710
36264W        W 2805  33.517  27.198  14.432
36265W        W 2806  11.730  36.556  11.514
36266W        W 2807  19.779  34.243  14.580
36267W        W 2808   6.815  32.121  11.938
36268W        W 2809  28.859  13.429   5.330
36269W        W 2810  19.803   2.548  11.124
36270W        W 2811  21.449  23.489   2.783
36271W        W 2812  26.438  33.101  13.641
36272W        W 2813  24.566  25.917   0.877
36273W        W 2814  33.905  11.225  12.950
36274W        W 2815  14.282   0.973  14.844
36275W        W 2816  25.065  36.292   3.738
36276W        W 2817  39.083  40.345   2.968
36277W        W 2818   2.908  20.813   1.306
36278W        W 2819  24.590  23.698   1.360
36279W        W 2820   7.266  44.293   2.699
36280W        W 2821  30.223  22.007   0.999
36281W        W 2822  43.178  11.213   1.321
36282W        W 2823   9.114   8.251   0.668
36283W        W 2824  25.175  22.489   2.067
36284W        W 2825  38.768  11.480   4.224
36285W        W 2826  18.835   2.815   0.004
36286W        W 2827  32.078  18.642   3.171
36287W        W 2828  24.211  19.987   3.149
36288W        W 2829  42.281  37.879  11.547
36289W        W 2830   4.147  14.301  11.234
36290W        W 2831  16.285  42.884   4.990
36291W        W 2832  31.340  31.819  11.561
36292W        W 2833  37.117  33.984   3.414
36293W        W 2834  32.631  10.810   2.419
36294W        W 2835  11.235  19.943  13.235
36295W        W 2836  36.320   8.493  13.692
36296W        W 2837  30.869  27.573   0.252
36297W        W 2838  23.242  10.967   4.584
36298W        W 2839  30.796  36.584   3.183
36299W        W 2840   6.377  13.661   1.109
36300W        W 2841  13.226  31.176   0.072
36301W        W 2842  14.848  25.125   0.267
36302W        W 2843   8.005   4.359  13.080
36303W        W 2844  17.966  34.649  11.646
36304W        W 2845  34.383  44.887  12.449
36305W        W 2846  23.139  36.833  13.488
36306W        W 2847  26.685  20.146   3.091
36307W        W 2848  16.701   5.183  13.776
36308W        W 2849   3.306   7.155   4.161
36309W        W 2850  20.196  12.111   0.280
36310W        W 2851   9.770  12.842  12.034
36311W        W 2852  42.107  44.794   0.978
36312W        W 2853  22.157  43.901   0.785
36313W        W 2854  38.749  42.817  13.102
36314W        W 2855  31.880   6.828   3.768
36315W        W 2856   6.963  44.484  10.800
36316W        W 2857  37.825  34.446  12.481
36317W        W 2858  11.461  19.596  14.348
36318W        W 2859  28.549  25.275  11.066
36319W        W 2860  43.347  33.722  14.596
36320W        W 2861  25.815   5.398   3.633
36321W        W 2862   0.701  12.748  12.498
36322W        W 2863  25.664  11.824  14.743
36323W        W 2864   5.482  23.057   1.325
36324W        W 2865  20.731  31.950   0.107
36325W        W 2866  15.782   8.828   2.338
36326W        W 2867  17.516  37.975  13.517
36327W        W 2868   6.921  19.468   0.240
36328W        W 2869  44.472  19.758  10.538
36329W        W 2870  41.793  18.824   0.860
36330W        W 2871  39.752  18.903   2.193
36331W        W 2872   0.536  27.567  14.868
36332W        W 2873  31.046  33.122   2.836
36333W        W 2874   2.141  41.366  11.176
36334W        W 2875  41.280  15.914  10.695
36335W        W 2876  39.148  33.779   2.164
36336W        W 2877   6.676  44.931  10.841
36337W        W 2878   8.324   4.700   2.896
36338W        W 2879  35.432   3.757   3.409
36339W        W 2880  26.783   9.755  11.432
36340W        W 2881  33.408  41.473   4.852
36341W        W 2882   5.902  10.792  14.835
36342W        W 2883  43.929  30.201  13.603
36343W        W 2884  30.691  21.945   0.779
36344W        W 2885  35.570   1.205  13.977
36345W        W 2886  37.511   7.734  13.671
36346W        W 2887  18.214  29.553   4.841
36347W        W 2888  43.336  28.475   1.221
36348W        W 2889  35.827  33.515  11.463
36349W        W 2890  13.134  44.513   1.463
36350W        W 2891  11.316  28.662  12.415
36351W        W 2892  38.943  13.349   1.061
36352W        W 2893  27.095  28.824   4.506
36353W        W 2894  12.833   4.434   2.759
36354W        W 2895   6.165  40.283   0.418
36355W        W 2896  10.142  12.295   0.963
36356W        W 2897  22.494  20.067   3.347
36357W        W 2898  22.236  40.272   0.456
36358W        W 2899  15.218  15.484  10.980
36359W        W 2900  28.800   5.853  14.310
36360W        W 2901   1.634   5.959  14.363
36361W        W 2902  40.828  40.959  14.568
36362W        W 2903  13.356   1.136   1.628
36363W        W 2904  41.349  30.841   3.843
36364W        W 2905  16.642  31.360   3.633
36365W        W 2906  24.444   4.225   4.553
36366W        W 2907   5.868   1.148   4.555
36367W        W 2908  10.897  41.151  11.601
36368W        W 2909   2.222  36.966   4.130
36369W        W 2910  16.719  10.401   0.797
36370W        W 2911  24.313  18.318   0.894
36371W        W 2912  25.006  24.318  10.802
36372W        W 2913  25.617  36.565  14.747
36373W        W 2914  18.560   7.161   1.216
36374W        W 2915  44.755   3.667  13.354
36375W        W 2916  38.053  38.080  14.681
36376W        W 2917  35.603   8.260   0.446
36377W        W 2918  14.049  29.796   5.516
36378W        W 2919  18.180  35.152   0.254
36379W        W 2920  42.819  28.929  10.635
36380W        W 2921   2.642  19.333  11.056
36381W        W 2922  19.472   1.193   5.079
36382W        W 2923  30.005  24.397   4.551
36383W        W 2924  40.378  12.992   4.509
36384W        W 2925  29.940  35.164  11.086
36385W        W 2926  23.538  21.402   4.108
36386W        W 2927   5.383  26.778   3.649
36387W        W 2928  11.959  36.838   0.505
36388W        W 2929  19.261  36.228  12.910
36389W        W 2930  18.760   8.164   3.215
36390W        W 2931  14.904  38.871  10.665
36391W        W 2932  14.200  38.630   1.319
36392W        W 2933  39.841  12.208   3.660
36393W        W 2934  31.061  17.844  13.901
36394W        W 2935  31.101  28.416  13.951
36395W        W 2936  15.526  16.378   4.808
36396W        W 2937  43.471  15.214   0.510
36397W        W 2938  20.064  20.466  14.408
36398W        W 2939  44.031   4.550  12.445
36399W        W 2940  21.467   8.532   1.832
36400W        W 2941  28.042  34.385  10.692
36401W        W 2942  14.189   3.686   2.699
36402W        W 2943  14.476  24.369  14.788
36403W        W 2944  27.910  30.200  11.555
36404W        W 2945  17.095  24.896   1.800
36405W        W 2946  23.979   1.291   4.658
36406W        W 2947  36.294  20.101  11.578
36407W        W 2948   3.720  40.387   3.595
36408W        W 2949   2.070  34.851  11.579
36409W        W 2950   8.877  11.320   2.679
36410W        W 2951   7.254  36.562   1.165
36411W        W 2952   7.907   7.809   3.391
36412W        W 2953  23.206  32.454   1.688
36413W        W 2954  13.455   2.066   0.788
36414W        W 2955  15.505  11.845   1.513
36415W        W 2956   8.396  33.156  11.532
36416W        W 2957  24.942  10.321   1.652
36417W        W 2958   0.380   3.837  10.653
36418W        W 2959  39.023  16.757  13.883
36419W        W 2960   1.811  13.289   1.181
36420W        W 2961  11.281  24.105   2.385
36421W        W 2962  37.490  15.770   1.318
36422W        W 2963  18.878  13.749  13.103
36423W        W 2964  33.489  38.642  14.385
36424W        W 2965  35.598  38.153  12.010
36425W        W 2966  29.605  19.548   0.212
36426W        W 2967  17.564   6.299  12.084
36427W        W 2968  18.333   0.008   3.102
36428W        W 2969   2.840  15.628  12.911
36429W        W 2970   0.202  35.378   2.919
36430W        W 2971   1.947  13.311  14.371
36431W        W 2972   2.430  23.495  13.455
36432W        W 2973  20.684  13.127   2.815
36433W        W 2974  15.160  16.648   0.228
36434W        W 2975  30.049  12.161  12.371
36435W        W 2976  40.136  15.470   1.607
36436W        W 2977   7.185  43.787   4.610
36437W        W 2978  30.724  14.050   2.450
36438W        W 2979  40.633  12.556   4.430
36439W        W 2980  31.851  25.649   1.743
36440W        W 2981  33.968  12.050  10.619
36441W        W 2982  34.780   4.719  14.397
36442W        W 2983  25.134  10.652  13.901
36443W        W 2984  29.958   0.608   4.280
36444W        W 2985  15.161  43.409  12.030
36445W        W 2986   2.536   6.668  11.894
36446W        W 2987  40.397  26.529   2.653
36447W        W 2988  28.422  37.848  14.079
36448W        W 2989   3.317  21.511   2.640
36449W        W 2990   4.516  39.089  12.686
36450W        W 2991  16.572  23.021   2.210
36451W        W 2992   2.579  28.134   1.358
36452W        W 2993   8.920  20.788  12.752
36453W        W 2994   3.586  32.522   3.997
36454W        W 2995  44.561  17.147   4.657
36455W        W 2996   1.265  40.945   0.374
36456W        W 2997  22.290  20.078  14.748
36457W        W 2998  29.487  29.202   0.908
36458W        W 2999  25.103   3.968  14.866
36459W        W 3000  23.629  23.976   3.630
36460W        W 3001  36.877   6.320   2.711
36461W        W 3002  19.798  23.929  14.055
36462W        W 3003  13.571  35.821   3.744
36463W        W 3004  18.963  37.161  14.343
36464W        W 3005  29.727  20.650  13.397
36465W        W 3006  33.488   7.767   1.293
36466W        W 3007  43.493  25.664   0.834
36467W        W 3008  35.054   8.816  14.995
36468W        W 3009   4.307  44.189  14.084
36469W        W 3010  40.007  33.012   1.354
36470W        W 3011   0.565  32.383  13.329
36471W        W 3012   5.218  12.876   4.320
36472W        W 3013  35.608  38.151   2.633
36473W        W 3014  28.269  34.258  13.487
36474W        W 3015  17.758  41.979  13.615
36475W        W 3016   6.470  26.228   4.456
36476W        W 3017  44.489  36.349   0.507
36477W        W 3018  15.166  10.185  13.895
36478W        W 3019  15.292  17.135   0.345
36479W        W 3020   1.349  36.598  10.998
36480W        W 3021  11.589  29.094  14.946
36481W        W 3022  27.269  43.005  12.979
36482W        W 3023   9.305  38.642   0.866
36483W        W 3024  30.443  36.447   0.676
36484W        W 3025  22.279  39.728  11.631
36485W        W 3026   3.499   6.202   3.754
36486W        W 3027   1.418  43.838   0.216
36487W        W 3028  24.811  36.575   4.099
36488W        W 3029  22.804  25.969  14.928
36489W        W 3030  26.855  37.423  12.584
36490W        W 3031  38.029  11.312   2.662
36491W        W 3032  37.357  42.482   4.190
36492W        W 3033   8.375  21.258   2.215
36493W        W 3034  29.638  23.181  11.182
36494W        W 3035  21.312  44.890  13.470
36495W        W 3036  26.868  27.095   4.602
36496W        W 3037   0.496  32.852  12.100
36497W        W 3038   1.040   3.509   4.769
36498W        W 3039   3.935  44.531  14.860
36499W        W 3040  27.681   8.319  12.169
36500W        W 3041  43.259  36.267  13.465
36501W        W 3042  25.005  39.503   4.767
36502W        W 3043  25.015  19.582   2.238
36503W        W 3044  18.081  32.952   2.631
36504W        W 3045   9.148  38.197   9.755
36505W        W 3046  27.576  32.973  11.638
36506W        W 3047  26.860  20.733   3.147
36507W        W 3048  14.623  18.254  10.669
36508W        W 3049  28.359   7.705  12.529
36509W        W 3050  32.913   5.949  11.576
36510W        W 3051  13.978  44.772   1.473
36511W        W 3052  42.583  24.141  13.917
36512W        W 3053  14.225  25.698  14.626
36513W        W 3054  33.338  35.974   3.981
36514W        W 3055   8.668   8.595  13.305
36515W        W 3056  21.687   7.408  11.173
36516W        W 3057  35.885  34.162   4.245
36517W        W 3058   1.771  42.414  11.918
36518W        W 3059  34.448  28.039   0.896
36519W        W 3060  15.907  32.460   4.914
36520W        W 3061  14.323  29.059   5.008
36521W        W 3062  40.837  32.635  10.632
36522W        W 3063   8.309  39.697  13.888
36523W        W 3064  20.346  16.042   0.232
36524W        W 3065  31.965  44.855   4.267
36525W        W 3066   1.409  13.377  12.598
36526W        W 3067   7.778  27.205  10.573
36527W        W 3068   6.246  34.163  13.998
36528W        W 3069  15.583  15.704   0.420
36529W        W 3070   4.365  13.781   1.115
36530W        W 3071  15.845  10.500   4.086
36531W        W 3072  19.157  15.410  12.032
36532W        W 3073   5.381  26.593  12.169
36533W        W 3074  12.250   9.593  14.656
36534W        W 3075  18.824  12.518   4.090
36535W        W 3076  10.134  40.250   1.864
36536W        W 3077  37.060  44.953  11.153
36537W        W 3078  20.010  30.411   0.760
36538W        W 3079  44.003  32.208   1.939
36539W        W 3080  29.453  14.658   3.298
36540W        W 3081  13.167  16.535   3.167
36541W        W 3082   4.053  35.097   3.406
36542W        W 3083   0.538  42.306  12.496
36543W        W 3084  41.878  18.526  13.885
36544W        W 3085  30.354  19.076   2.927
36545W        W 3086  30.983  34.108   2.456
36546W        W 3087  14.557  17.275  12.108
36547W        W 3088  30.447   9.749  14.870
36548W        W 3089  44.437  35.474  14.224
36549W        W 3090   0.455   5.337  13.875
36550W        W 3091  26.254  13.928   3.254
36551W        W 3092   3.160  26.821   3.575
36552W        W 3093  23.584   7.926   0.114
36553W        W 3094  10.388  24.999  12.571
36554W        W 3095  20.605  39.046   4.581
36555W        W 3096  25.170  36.501  10.561
36556W        W 3097  13.973  32.162  13.535
36557W        W 3098  29.044   4.884   2.319
36558W        W 3099  43.659  15.853   1.075
36559W        W 3100   6.381  32.017  14.931
36560W        W 3101  29.437  33.224  12.889
36561W        W 3102  20.018  15.230   3.190
36562W        W 3103  39.444   0.999   3.994
36563W        W 3104  30.767  43.223  14.694
36564W        W 3105  23.624   4.907   2.158
36565W        W 3106  17.767  14.323   0.358
36566W        W 3107   4.234   5.980   0.942
36567W        W 3108  17.493   2.195   0.057
36568W        W 3109   5.997  10.088  13.780
36569W        W 3110  26.193  16.388   3.265
36570W        W 3111  27.013  21.942  11.962
36571W        W 3112  25.200  41.714   4.438
36572W        W 3113   5.127  22.637   2.469
36573W        W 3114  19.667  24.115   4.437
36574W        W 3115  31.920  18.266  10.638
36575W        W 3116  13.754  38.486   2.780
36576W        W 3117  25.117  44.916   0.494
36577W        W 3118  33.080   2.219   2.632
36578W        W 3119  27.069  39.789   4.664
36579W        W 3120  42.634   7.882  11.602
36580W        W 3121  27.813  12.816   4.695
36581W        W 3122  20.331   3.935   1.109
36582W        W 3123  26.435  30.121   1.842
36583W        W 3124   1.321  31.761  12.306
36584W        W 3125  39.421   8.886   4.651
36585W        W 3126  17.084  10.471  10.148
36586W        W 3127   7.548  29.341   3.585
36587W        W 3128  27.461   9.980  10.639
36588W        W 3129  41.747  44.950   2.982
36589W        W 3130  30.171   5.964   1.287
36590W        W 3131   6.771  19.098  10.706
36591W        W 3132  32.547  34.316  11.069
36592W        W 3133  14.631   7.661  10.743
36593W        W 3134  33.866  32.396  13.891
36594W        W 3135   5.683   2.849  11.800
36595W        W 3136   6.911   8.637   4.027
36596W        W 3137  30.933  16.970   4.189
36597W        W 3138   1.237  38.155  11.170
36598W        W 3139  36.516  15.111  10.966
36599W        W 3140  29.463  26.785  13.865
36600W        W 3141  21.036  25.837   4.987
36601W        W 3142  40.525   5.099   1.308
36602W        W 3143  43.772  41.900  12.973
36603W        W 3144  15.944  27.397  10.659
36604W        W 3145   0.363  21.470   0.831
36605W        W 3146   5.470  22.263  12.898
36606W        W 3147   2.956   6.904  11.612
36607W        W 3148  33.958  28.175  11.522
36608W        W 3149   8.066  30.188   2.735
36609W        W 3150  36.061   5.352   3.806
36610W        W 3151   7.204  34.759   1.866
36611W        W 3152  29.063  36.371  11.986
36612W        W 3153  43.466  16.417  10.784
36613W        W 3154  25.945  39.874   0.456
36614W        W 3155  41.601  16.248  11.612
36615W        W 3156  25.618  38.754  14.557
36616W        W 3157  20.170  10.926  10.684
36617W        W 3158  22.340   1.167  11.275
36618W        W 3159  17.491  35.025  14.797
36619W        W 3160  36.977  29.738   2.660
36620W        W 3161   3.928  15.318   4.888
36621W        W 3162   3.815  16.864  12.959
36622W        W 3163  43.757  30.966   2.103
36623W        W 3164   9.467  34.488  10.994
36624W        W 3165   3.400   8.079   0.345
36625W        W 3166  35.011  12.417   2.138
36626W        W 3167  22.210  25.067  11.420
36627W        W 3168  39.550  21.129   2.143
36628W        W 3169  41.420  38.481   2.165
36629W        W 3170  26.940  18.249  10.356
36630W        W 3171  43.963  38.043  11.503
36631W        W 3172   4.894  22.225  10.259
36632W        W 3173  13.301  34.245   1.537
36633W        W 3174   1.559  22.755  13.960
36634W        W 3175  21.879   2.189  10.431
36635W        W 3176  29.793  43.737  11.178
36636W        W 3177  14.917  18.042  11.047
36637W        W 3178  24.078  23.764   3.574
36638W        W 3179  28.498  19.343  13.039
36639W        W 3180  18.246  13.830  13.944
36640W        W 3181   5.740  27.918   0.356
36641W        W 3182  43.387  14.416  13.388
36642W        W 3183  35.574  35.502  13.148
36643W        W 3184  11.530   9.132   3.160
36644W        W 3185  41.027  28.666   4.072
36645W        W 3186  24.665  18.977  14.856
36646W        W 3187  20.637  10.724   1.633
36647W        W 3188  38.914  31.185   0.950
36648W        W 3189  32.937  17.381  11.933
36649W        W 3190  42.273  20.281   0.765
36650W        W 3191   2.293  44.877  13.855
36651W        W 3192  41.974  12.832   0.869
36652W        W 3193   4.834   9.977   1.910
36653W        W 3194  33.023   5.486  11.343
36654W        W 3195  15.984   4.711   2.338
36655W        W 3196  19.699   5.803   4.085
36656W        W 3197  26.116  23.056  13.156
36657W        W 3198  18.380  10.432   2.846
36658W        W 3199  32.395  40.443   1.772
36659W        W 3200   7.636   7.551   0.556
36660W        W 3201   6.356  32.114  11.067
36661W        W 3202  37.013  30.553  11.022
36662W        W 3203  26.721  11.898  13.515
36663W        W 3204   9.795  12.883  14.712
36664W        W 3205  41.483  28.075   1.081
36665W        W 3206  27.645  42.946  12.187
36666W        W 3207   9.419   7.689  12.615
36667W        W 3208  14.527  32.457   0.269
36668W        W 3209  39.580  41.518   4.640
36669W        W 3210  17.837  39.552  11.827
36670W        W 3211   2.806  12.099   1.489
36671W        W 3212   3.434   1.944   0.246
36672W        W 3213   9.939  41.602  13.676
36673W        W 3214   0.809  19.296  13.022
36674W        W 3215   0.449  41.286   4.785
36675W        W 3216  40.407  15.813   4.552
36676W        W 3217  26.198   9.212   2.347
36677W        W 3218  19.183  41.300   1.823
36678W        W 3219  11.059  15.672  11.555
36679W        W 3220  14.290   2.905  14.386
36680W        W 3221  37.225  19.318   1.559
36681W        W 3222  14.560  33.033   2.359
36682W        W 3223   0.169  40.369   0.031
36683W        W 3224  14.248  33.620  14.762
36684W        W 3225  42.469  38.302  12.395
36685W        W 3226  34.757  12.142  12.056
36686W        W 3227  22.456  22.642  11.659
36687W        W 3228   0.994  20.640  12.684
36688W        W 3229  23.233  26.007  10.788
36689W        W 3230  19.709  15.131   3.733
36690W        W 3231  41.331  36.367  10.913
36691W        W 3232  26.678   9.973   3.677
36692W        W 3233  24.427  12.865  10.984
36693W        W 3234  42.436  28.616   4.184
36694W        W 3235  16.194  19.473   4.977
36695W        W 3236   9.388  29.545  14.691
36696W        W 3237  39.216  26.719  11.482
36697W        W 3238  24.758   1.495  14.800
36698W        W 3239  31.897   0.885   2.442
36699W        W 3240  35.968  21.988   0.452
36700W        W 3241  11.671  22.170   2.491
36701W        W 3242   8.250  26.253   0.526
36702W        W 3243  37.210  23.315  10.963
36703W        W 3244   4.218  29.331  14.880
36704W        W 3245  14.397  39.867   4.824
36705W        W 3246   9.968  34.482   4.658
36706W        W 3247  34.433  30.074   2.060
36707W        W 3248  16.155  13.617   3.870
36708W        W 3249  41.143   3.523   1.735
36709W        W 3250  16.237  26.850  10.574
36710W        W 3251  29.211  44.022  10.336
36711W        W 3252   0.756  36.451  13.049
36712W        W 3253  36.500  34.279  12.620
36713W        W 3254  27.289   4.404   4.099
36714W        W 3255  11.431   1.315   4.651
36715W        W 3256  44.311  35.937   2.450
36716W        W 3257  13.980   5.612   2.903
36717W        W 3258  13.705  37.632   3.210
36718W        W 3259  33.878  37.361   0.517
36719W        W 3260   4.123  24.561  14.260
36720W        W 3261  20.777   8.680  12.931
36721W        W 3262  32.915  38.573   0.920
36722W        W 3263  31.944  22.237   2.819
36723W        W 3264   9.648  34.571   0.824
36724W        W 3265  24.886  15.133  12.401
36725W        W 3266  20.213  18.999  14.362
36726W        W 3267  14.240  16.333   3.182
36727W        W 3268  18.941  43.476   2.016
36728W        W 3269  26.841  11.998   4.156
36729W        W 3270   5.573   5.026   4.602
36730W        W 3271  33.053  22.038   3.241
36731W        W 3272   1.217  35.125   4.595
36732W        W 3273  44.197  19.086   3.196
36733W        W 3274  36.154  33.084  13.567
36734W        W 3275   2.984  39.236  14.803
36735W        W 3276  26.104  39.876   4.348
36736W        W 3277  35.829  19.323  10.828
36737W        W 3278  36.350  14.069  11.992
36738W        W 3279  36.036  15.354  12.394
36739W        W 3280  24.087  13.755  14.780
36740W        W 3281  21.597  27.144  13.707
36741W        W 3282  25.329  11.885  12.583
36742W        W 3283  10.414   7.331   0.283
36743W        W 3284  42.399   3.175   0.524
36744W        W 3285  37.455  41.402  14.561
36745W        W 3286  44.434  27.714  12.831
36746W        W 3287  30.039  29.020   4.650
36747W        W 3288  12.760  40.527  14.158
36748W        W 3289   2.493  15.201   2.866
36749W        W 3290  36.359  23.698   3.108
36750W        W 3291  12.537   4.890   1.743
36751W        W 3292  29.083  24.712   3.119
36752W        W 3293  41.007  37.818  12.538
36753W        W 3294  31.852  44.295   3.198
36754W        W 3295  18.949   7.891  11.018
36755W        W 3296  19.973   0.409   0.008
36756W        W 3297  15.274   0.830  13.586
36757W        W 3298  10.641   1.971   2.140
36758W        W 3299  37.607  20.325   0.337
36759W        W 3300  43.505  10.283  13.682
36760W        W 3301  20.717  12.813   2.020
36761W        W 3302  31.507  23.464  12.098
36762W        W 3303   9.646   6.082  10.212
36763W        W 3304   7.872  14.765   4.322
36764W        W 3305  35.203  11.308   0.765
36765W        W 3306  30.970  30.580   1.450
36766W        W 3307   5.379  10.617   3.651
36767W        W 3308   5.016  33.122  12.057
36768W        W 3309  26.678  17.633   4.505
36769W        W 3310  34.442   0.283   0.551
36770W        W 3311   1.212  15.467  14.404
36771W        W 3312  39.793   7.593   2.302
36772W        W 3313  39.430  21.547  12.210
36773W        W 3314   0.746  37.502  11.478
36774W        W 3315  28.469  40.588  14.870
36775W        W 3316  32.577  27.695   5.024
36776W        W 3317  26.442  38.779  13.862
36777W        W 3318   0.021  19.927  10.791
36778W        W 3319   8.164   1.888  12.176
36779W        W 3320  25.541  38.888   2.370
36780W        W 3321  12.602  32.661   3.683
36781W        W 3322  41.270  28.936   4.772
36782W        W 3323  35.054  11.879   0.423
36783W        W 3324   2.728  43.307  14.728
36784W        W 3325  11.884  36.081   4.234
36785W        W 3326  21.003  43.295  14.485
36786W        W 3327  10.230  17.436   5.137
36787W        W 3328  22.179  26.018   0.822
36788W        W 3329   7.248  30.489  11.185
36789W        W 3330   0.401  41.936   3.593
36790W        W 3331  26.555  44.590   1.887
36791W        W 3332  18.324  36.515   1.171
36792W        W 3333  21.336  31.538   4.477
36793W        W 3334  27.507  26.655  12.373
36794W        W 3335  20.141   8.272   1.901
36795W        W 3336  44.167   4.452   0.029
36796W        W 3337  41.551   6.289   2.829
36797W        W 3338  25.132   5.802  11.561
36798W        W 3339  35.874  34.053  13.411
36799W        W 3340  19.835  12.535   0.295
36800W        W 3341  18.007  13.695   0.954
36801W        W 3342   5.347  21.717  12.216
36802W        W 3343  27.664  25.259  13.444
36803W        W 3344  17.230  36.093   1.297
36804W        W 3345  10.772   2.028   1.099
36805W        W 3346   4.887   7.280   0.055
36806W        W 3347  20.351  25.114  11.529
36807W        W 3348  10.405   0.712   0.301
36808W        W 3349  17.688  38.851  13.629
36809W        W 3350  20.500  32.381  12.138
36810W        W 3351  32.937  33.563   2.161
36811W        W 3352  34.528  24.633   3.431
36812W        W 3353  28.383  20.721   3.222
36813W        W 3354   6.924  27.784   3.156
36814W        W 3355  10.178   7.248   2.798
36815W        W 3356  34.958  43.064  12.179
36816W        W 3357  41.437  38.982   3.871
36817W        W 3358   0.362  17.900   4.105
36818W        W 3359  24.007  17.307   0.778
36819W        W 3360   0.468  19.142  14.979
36820W        W 3361  22.562  25.381  11.635
36821W        W 3362  13.554  44.585  13.495
36822W        W 3363  41.869  26.221  11.516
36823W        W 3364  32.926   0.019  14.884
36824W        W 3365  26.093  37.820  10.724
36825W        W 3366  24.160  24.132  12.443
36826W        W 3367  24.283  10.143   3.684
36827W        W 3368   1.425  41.960  11.587
36828W        W 3369   5.870  26.614   0.761
36829W        W 3370  21.240  18.603  12.551
36830W        W 3371  39.930  23.709   3.432
36831W        W 3372   4.006  11.196  14.305
36832W        W 3373  32.898  22.834   2.801
36833W        W 3374  29.112  27.486   0.272
36834W        W 3375  30.548  21.595  14.992
36835W        W 3376  12.713   8.607   3.782
36836W        W 3377  37.566  29.835   4.595
36837W        W 3378   2.864  10.707  11.325
36838W        W 3379   9.810  29.864  12.081
36839W        W 3380   0.838  43.134  11.289
36840W        W 3381  33.216   1.119  12.215
36841W        W 3382   6.940  44.381   3.626
36842W        W 3383  35.405  29.553  11.932
36843W        W 3384  44.883  19.267  12.312
36844W        W 3385  26.577  31.748   1.374
36845W        W 3386  32.176  14.047  12.826
36846W        W 3387  23.644  25.671  12.587
36847W        W 3388  23.578   1.428  11.787
36848W        W 3389  28.729   9.707  12.045
36849W        W 3390  24.999  13.132  11.626
36850W        W 3391  33.625  32.598   3.300
36851W        W 3392   8.091   9.627   4.675
36852W        W 3393  42.441  12.844   4.171
36853W        W 3394  40.205   6.814   3.583
36854W        W 3395  41.922  12.733  12.276
36855W        W 3396  11.702  35.289   5.369
36856W        W 3397  19.574  26.911  13.561
36857W        W 3398  23.030   6.745   2.838
36858W        W 3399  21.598  31.449  13.796
36859W        W 3400  35.967  29.869  14.805
36860W        W 3401  35.159  44.521   4.478
36861W        W 3402   4.447  21.547  11.403
36862W        W 3403  14.078  36.782   4.590
36863W        W 3404  21.079  17.163  11.257
36864W        W 3405  33.977  29.311  10.730
36865W        W 3406  44.931  26.261  10.775
36866W        W 3407  35.080   8.540   2.409
36867W        W 3408  26.086  21.740   2.892
36868W        W 3409  31.653  18.234   2.047
36869W        W 3410  18.245  14.364  13.924
36870W        W 3411  32.771  22.566   4.152
36871W        W 3412  21.166  28.887  12.565
36872W        W 3413  16.771  11.408   2.174
36873W        W 3414  34.140  27.389  13.605
36874W        W 3415  15.611  42.195   1.830
36875W        W 3416  19.098  21.650  12.429
36876W        W 3417   1.319  13.796   0.070
36877W        W 3418  44.913  27.136  11.771
36878W        W 3419  21.971  19.218   1.444
36879W        W 3420   9.166  33.816  13.292
36880W        W 3421  38.353  34.053   1.786
36881W        W 3422  27.102  40.930   0.334
36882W        W 3423  37.188  37.253   3.406
36883W        W 3424  43.307  34.991  14.535
36884W        W 3425  16.305  33.398  14.429
36885W        W 3426   8.420  40.221   5.080
36886W        W 3427   2.982   4.315  14.443
36887W        W 3428  11.234  32.508  12.460
36888W        W 3429  18.945  42.760  11.308
36889W        W 3430  29.343  19.108   2.841
36890W        W 3431  36.734   8.375   1.253
36891W        W 3432  34.432  32.638   4.841
36892W        W 3433   6.857   4.038   4.586
36893W        W 3434  40.321  28.547  12.950
36894W        W 3435  21.892  23.503  13.801
36895W        W 3436  31.547   1.548   4.605
36896W        W 3437  36.630  21.651   4.044
36897W        W 3438  41.070  38.486  14.278
36898W        W 3439   5.856   0.162   4.611
36899W        W 3440   3.548  17.177  12.614
36900W        W 3441   8.843  27.979  12.643
36901W        W 3442  27.861  44.787  14.885
36902W        W 3443  32.540  28.606  12.966
36903W        W 3444   9.325  25.743  11.102
36904W        W 3445  24.282  32.549  13.076
36905W        W 3446  43.549  40.889   4.113
36906W        W 3447  40.159  11.953   9.850
36907W        W 3448   6.328  17.812  11.064
36908W        W 3449  44.763  44.581  12.897
36909W        W 3450  29.211  41.319   4.497
36910W        W 3451  30.273   5.871  14.736
36911W        W 3452  13.246   2.576  13.138
36912W        W 3453  23.059  26.139   2.120
36913W        W 3454  39.895   8.003   3.181
36914W        W 3455  37.489  21.478  12.255
36915W        W 3456  13.531  28.093  11.942
36916W        W 3457   5.214  20.699   2.090
36917W        W 3458   3.266  27.576  11.204
36918W        W 3459  37.826   5.229   0.262
36919W        W 3460  20.188  35.868  10.741
36920W        W 3461  42.736  11.811   3.300
36921W        W 3462  13.030   0.877  11.938
36922W        W 3463  35.338   5.772   5.032
36923W        W 3464  28.695  42.400   2.199
36924W        W 3465  19.035  42.918  13.858
36925W        W 3466  17.551  17.551   2.740
36926W        W 3467  39.974  43.878  10.800
36927W        W 3468  10.401  14.282   1.408
36928W        W 3469   4.989  35.357   1.492
36929W        W 3470  30.074  27.949   2.313
36930W        W 3471  43.148  23.379  11.523
36931W        W 3472  41.032  21.077  11.337
36932W        W 3473  11.614  23.504   3.590
36933W        W 3474  40.530  12.086  13.475
36934W        W 3475  39.000  32.190   2.271
36935W        W 3476  42.430   9.766  10.202
36936W        W 3477   0.972   9.815   0.383
36937W        W 3478   5.211   0.789   1.979
36938W        W 3479  38.199  16.225   3.807
36939W        W 3480  15.900  44.555   0.419
36940W        W 3481  12.808  23.573  14.800
36941W        W 3482  38.257  26.751  13.173
36942W        W 3483  17.305  29.750  12.550
36943W        W 3484  36.431  11.100   1.357
36944W        W 3485  44.245  41.356   0.450
36945W        W 3486  25.025  24.014  13.384
36946W        W 3487  20.283  38.263  12.240
36947W        W 3488  13.272  20.517   1.733
36948W        W 3489  21.827  38.483   5.013
36949W        W 3490   4.895   0.471  12.412
36950W        W 3491  11.127   5.248  12.481
36951W        W 3492  20.512  11.398  13.847
36952W        W 3493  32.518  42.132   4.632
36953W        W 3494  43.521   7.738   0.267
36954W        W 3495  32.401   5.005  13.493
36955W        W 3496  22.245  32.424   0.709
36956W        W 3497  43.893   2.432  11.297
36957W        W 3498   2.940  10.819  14.557
36958W        W 3499  44.824  34.987   0.447
36959W        W 3500  34.741  40.974  13.013
36960W        W 3501  23.665  18.010  14.916
36961W        W 3502  14.978  19.078   0.944
36962W        W 3503  37.118  21.404  11.150
36963W        W 3504  18.650  34.743   2.313
36964W        W 3505  11.666  22.195  14.237
36965W        W 3506  42.612  16.648  13.076
36966W        W 3507   1.406  15.579  11.720
36967W        W 3508  39.825  43.222   4.524
36968W        W 3509  27.681  10.947   0.447
36969W        W 3510  29.587   6.762   2.204
36970W        W 3511   3.651  36.604  14.256
36971W        W 3512  39.323   3.387   1.759
36972W        W 3513  23.948  34.035   3.926
36973W        W 3514  21.065   3.812  13.813
36974W        W 3515  14.185  16.051   2.726
36975W        W 3516  22.855  39.155  13.976
36976W        W 3517  38.668  44.322  14.567
36977W        W 3518  22.756   9.845  12.562
36978W        W 3519   4.550  28.449  14.944
36979W        W 3520  12.658  13.065  11.998
36980W        W 3521  28.169  33.947   2.194
36981W        W 3522  39.325  34.949  12.882
36982W        W 3523   2.998  31.155  13.984
36983W        W 3524  27.902  12.621  10.036
36984W        W 3525  15.445  18.507  12.445
36985W        W 3526  12.271   0.230   1.942
36986W        W 3527  14.829  32.218  12.013
36987W        W 3528   0.141  38.927  13.387
36988W        W 3529  14.166  43.592  10.642
36989W        W 3530  42.910   4.476   4.132
36990W        W 3531   8.925  15.649  11.081
36991W        W 3532  15.932  44.459  14.340
36992W        W 3533  17.175  33.857   0.310
36993W        W 3534   7.798  20.758  14.683
36994W        W 3535  15.747  41.252   4.063
36995W        W 3536  35.950   6.719   1.278
36996W        W 3537   1.732   6.475  14.235
36997W        W 3538  22.999   5.672  12.168
36998W        W 3539  24.629  37.549   1.994
36999W        W 3540  27.914  30.952  13.778
37000W        W 3541  31.044  27.149  13.079
37001W        W 3542  40.112  34.935  13.379
37002W        W 3543  34.137  10.177  13.965
37003W        W 3544  11.427   0.035   2.642
37004W        W 3545  12.766  40.328  10.888
37005W        W 3546   9.301  43.263  10.717
37006W        W 3547  18.962   4.389  12.208
37007W        W 3548   6.725  26.226  12.516
37008W        W 3549  17.381   0.787   0.280
37009W        W 3550  21.434  19.196   3.121
37010W        W 3551  26.508  21.749   0.292
37011W        W 3552   6.979  37.672  12.468
37012W        W 3553  21.530  11.544   2.315
37013W        W 3554  21.474   0.532  14.657
37014W        W 3555  17.753  26.052  10.488
37015W        W 3556  12.722  15.098  11.006
37016W        W 3557  33.414  14.805   1.287
37017W        W 3558  24.517  37.571   3.889
37018W        W 3559  15.646  40.102   2.060
37019W        W 3560  31.567   5.766  10.871
37020W        W 3561  33.142  18.521   0.449
37021W        W 3562  43.358  15.281  12.204
37022W        W 3563  21.637  31.973  13.599
37023W        W 3564  30.043  28.147   4.055
37024W        W 3565  36.452  34.525   3.883
37025W        W 3566   0.229  44.959   4.130
37026W        W 3567   9.089  14.635  14.312
37027W        W 3568  13.369  12.356  11.459
37028W        W 3569  11.239  16.144  11.682
37029W        W 3570  16.642  14.620  13.496
37030W        W 3571   2.695  40.901   0.372
37031W        W 3572  37.420  14.742   1.271
37032W        W 3573  15.701   5.830   3.721
37033W        W 3574  31.417  22.665   4.583
37034W        W 3575  22.077  28.698  11.574
37035W        W 3576   9.633  41.439   3.833
37036W        W 3577  14.820  36.304   4.099
37037W        W 3578  19.680  31.907  12.065
37038W        W 3579   1.971  24.457   0.430
37039W        W 3580  15.043  32.192   4.112
37040W        W 3581   6.895  18.334  12.043
37041W        W 3582  43.990  29.810  11.417
37042W        W 3583  24.010   5.110   1.418
37043W        W 3584  36.845  41.973   1.494
37044W        W 3585  40.887   5.315  10.570
37045W        W 3586   8.733  41.988  13.996
37046W        W 3587  26.589  40.305   0.973
37047W        W 3588  16.815   0.713   3.136
37048W        W 3589  19.751  10.395  12.460
37049W        W 3590   2.142  29.244  13.099
37050W        W 3591  22.290   2.732  14.306
37051W        W 3592  31.911  32.012   3.086
37052W        W 3593  33.996  17.697   3.076
37053W        W 3594  23.423  35.078  14.019
37054W        W 3595  34.070  30.019  14.902
37055W        W 3596  38.626  26.934   1.268
37056W        W 3597  27.446  35.856  11.641
37057W        W 3598  38.488  29.093  10.766
37058W        W 3599  38.336  22.919  11.232
37059W        W 3600  13.092  31.732  11.984
37060W        W 3601  31.854  44.300  14.797
37061W        W 3602  43.528  25.721  13.824
37062W        W 3603  40.879  28.499  10.656
37063W        W 3604  19.659  34.882   1.024
37064W        W 3605  39.771  26.324   1.692
37065W        W 3606  10.353   7.807   0.947
37066W        W 3607   7.881   4.163  14.771
37067W        W 3608  17.491   9.764   4.167
37068W        W 3609  19.184  43.016   3.414
37069W        W 3610  42.111   5.475  11.415
37070W        W 3611  40.983   3.779   2.156
37071W        W 3612  22.979   0.846   2.707
37072W        W 3613  38.913  42.508   0.663
37073W        W 3614  11.846  10.620  12.961
37074W        W 3615   1.698  20.767   0.938
37075W        W 3616  17.305  16.033  10.522
37076W        W 3617  33.897  44.254  10.484
37077W        W 3618   4.759  41.298  12.218
37078W        W 3619   8.387  13.156  12.919
37079W        W 3620  29.586  16.580   4.726
37080W        W 3621  23.946  39.914  13.760
37081W        W 3622  44.044   5.926   0.464
37082W        W 3623  44.542   5.829   4.692
37083W        W 3624   3.846  16.476  12.049
37084W        W 3625  14.865  18.266   0.820
37085W        W 3626  33.311  13.929  10.097
37086W        W 3627   5.339  10.839   3.180
37087W        W 3628  39.253  13.129  11.619
37088W        W 3629  22.159  44.318  14.851
37089W        W 3630  12.825  40.253  14.591
37090W        W 3631  27.853   4.366   2.458
37091W        W 3632  24.374  40.307   4.940
37092W        W 3633  42.871   4.168  14.441
37093W        W 3634   2.620  32.062  10.668
37094W        W 3635  21.683  37.097   4.220
37095W        W 3636  17.802  38.505  11.041
37096W        W 3637  35.227  17.745   4.279
37097W        W 3638  14.563  16.971   1.420
37098W        W 3639  13.533   2.486  13.551
37099W        W 3640  11.029  35.471   1.362
37100W        W 3641  15.886   8.382  12.016
37101W        W 3642  16.585   7.975   3.994
37102W        W 3643   3.733   9.935   1.686
37103W        W 3644  13.801  17.492  10.706
37104W        W 3645  41.486  41.991   1.921
37105W        W 3646  29.214   1.492   0.236
37106W        W 3647  18.929  21.582  14.305
37107W        W 3648  10.694   2.071  10.374
37108W        W 3649   0.264  14.486   2.747
37109W        W 3650   9.698  41.578   2.948
37110W        W 3651   6.788  42.800  14.366
37111W        W 3652   7.406  34.182  13.535
37112W        W 3653   3.947  42.748   0.304
37113W        W 3654   5.642  25.807  10.860
37114W        W 3655  35.115  33.480   4.280
37115W        W 3656   1.687  27.957   2.898
37116W        W 3657   8.002  16.646   3.129
37117W        W 3658   5.162  27.322   5.595
37118W        W 3659  30.391  16.241  13.360
37119W        W 3660  11.668  31.408   1.374
37120W        W 3661  21.590  12.039   4.019
37121W        W 3662  41.063  12.708   0.376
37122W        W 3663  39.461  42.325   4.172
37123W        W 3664  27.022   4.675   1.944
37124W        W 3665  26.122  10.744  14.242
37125W        W 3666  23.770  15.348   0.184
37126W        W 3667  18.166  28.535   1.460
37127W        W 3668  25.363  33.550   0.706
37128W        W 3669  22.039  25.293  12.825
37129W        W 3670   2.415  24.570   4.225
37130W        W 3671  13.504   0.701  13.396
37131W        W 3672  26.898  33.515   3.134
37132W        W 3673  21.399  28.571  14.593
37133W        W 3674   5.925  36.869  14.417
37134W        W 3675   2.243   7.266  12.658
37135W        W 3676   5.123  23.189  14.826
37136W        W 3677  36.532  12.055   3.180
37137W        W 3678   3.587  28.541  11.206
37138W        W 3679  21.543  36.821   1.889
37139W        W 3680  22.456  37.565   0.954
37140W        W 3681  25.523  41.220  12.050
37141W        W 3682  27.529  19.183   4.148
37142W        W 3683  18.336  20.924  14.298
37143W        W 3684  21.225   9.048   1.343
37144W        W 3685  40.812  14.086  12.423
37145W        W 3686  11.351  34.659  11.339
37146W        W 3687  44.004   4.636   4.833
37147W        W 3688  32.718  24.137   3.032
37148W        W 3689  36.077  40.281   2.739
37149W        W 3690  29.664  20.054   2.339
37150W        W 3691   2.176  30.091  10.162
37151W        W 3692  34.934  37.990  12.821
37152W        W 3693  22.034  11.198   1.673
37153W        W 3694  21.163  19.026   2.691
37154W        W 3695  12.332   8.255   3.745
37155W        W 3696  29.423  10.347  13.478
37156W        W 3697  23.421  36.086  12.606
37157W        W 3698  11.845  44.440  10.801
37158W        W 3699  38.609  14.748  13.051
37159W        W 3700   0.517  39.436   4.283
37160W        W 3701  43.417  10.161  13.204
37161W        W 3702  44.324  38.660  13.322
37162W        W 3703  26.080  42.281   1.804
37163W        W 3704  12.135  38.955   4.593
37164W        W 3705  17.798  39.430   3.187
37165W        W 3706   2.960  16.150   2.869
37166W        W 3707  23.093  36.117  11.272
37167W        W 3708   1.780   4.333   4.495
37168W        W 3709  14.439  17.126  14.334
37169W        W 3710   1.272  19.613  13.939
37170W        W 3711  34.734  15.555  10.299
37171W        W 3712  16.216   2.970  13.426
37172W        W 3713  21.167   9.529   1.157
37173W        W 3714  37.009  40.102  12.997
37174W        W 3715  38.307  16.130  11.560
37175W        W 3716  42.504  11.202  11.249
37176W        W 3717  18.123  33.322  14.936
37177W        W 3718  24.136  17.987   1.294
37178W        W 3719  41.379  38.970   2.306
37179W        W 3720  37.923  26.777  12.785
37180W        W 3721  39.595  11.732   0.689
37181W        W 3722   5.935   3.270   2.893
37182W        W 3723  40.509  39.837   1.438
37183W        W 3724   8.901  43.028   0.768
37184W        W 3725  18.996  18.563   2.843
37185W        W 3726  26.442   0.512  10.817
37186W        W 3727  16.816  44.744   3.168
37187W        W 3728  10.684   8.828   3.442
37188W        W 3729  12.703  43.238   3.396
37189W        W 3730  41.572  33.064  10.751
37190W        W 3731  17.371  10.071  10.015
37191W        W 3732  16.780  23.811   1.847
37192W        W 3733  28.407  43.963  12.960
37193W        W 3734  20.227  29.981   0.941
37194W        W 3735   7.256  25.930   4.737
37195W        W 3736  22.586  43.961   4.533
37196W        W 3737  21.259  21.663   1.183
37197W        W 3738  39.812  37.815   1.468
37198W        W 3739   2.508  32.241  14.429
37199W        W 3740  18.620  38.890  13.297
37200W        W 3741   2.806  21.198  14.289
37201W        W 3742  24.492  24.957   1.816
37202W        W 3743  32.401  43.497   0.879
37203W        W 3744  35.828  23.241   1.310
37204W        W 3745   5.634  21.323  13.140
37205W        W 3746  11.604  13.096  14.333
37206W        W 3747  32.167  21.451   3.737
37207W        W 3748  32.878  11.761  14.417
37208W        W 3749  43.292  11.319  12.066
37209W        W 3750  35.307  11.752  13.259
37210W        W 3751  36.761  28.359  14.514
37211W        W 3752  33.685  24.033  13.455
37212W        W 3753   8.574  30.720   0.220
37213W        W 3754  43.907  31.246  12.109
37214W        W 3755  14.250  42.898   3.483
37215W        W 3756  13.157  25.232   3.941
37216W        W 3757  25.260  26.025   1.342
37217W        W 3758   0.031  34.947   3.225
37218W        W 3759  18.976  19.314  13.142
37219W        W 3760  14.662  42.754   4.275
37220W        W 3761  18.155  44.969  14.055
37221W        W 3762  22.765  23.500   1.986
37222W        W 3763  37.134  43.710  11.612
37223W        W 3764   2.469  37.978   4.844
37224W        W 3765  43.329  42.493  11.431
37225W        W 3766  21.687  39.032   4.401
37226W        W 3767  36.242  30.954   1.255
37227W        W 3768  33.082  16.889   3.731
37228W        W 3769  37.015  19.663  11.641
37229W        W 3770   6.471  21.135   4.781
37230W        W 3771  14.817   5.920  12.149
37231W        W 3772  30.102   4.444   1.717
37232W        W 3773  24.763  16.164   4.181
37233W        W 3774  18.051   0.259  14.473
37234W        W 3775  12.295   2.935   3.735
37235W        W 3776   6.307  31.058  12.889
37236W        W 3777  13.591  25.149  13.766
37237W        W 3778   3.335   3.466   0.386
37238W        W 3779  32.388   2.897   0.638
37239W        W 3780  41.867  10.634  12.978
37240W        W 3781  41.916   7.920   4.131
37241W        W 3782   2.171   6.998  11.089
37242W        W 3783   2.285  43.047  12.314
37243W        W 3784   0.496  42.403   2.730
37244W        W 3785   7.191  19.667   4.566
37245W        W 3786  27.683  10.223   4.559
37246W        W 3787   7.329  42.506  11.985
37247W        W 3788   8.214   5.018  12.559
37248W        W 3789  16.581  14.245   2.797
37249W        W 3790  20.182  36.889   0.436
37250W        W 3791  17.705  28.957  14.838
37251W        W 3792  21.197  34.466  11.459
37252W        W 3793  19.224   8.351   0.020
37253W        W 3794   2.769  11.367  12.081
37254W        W 3795   4.701  34.495  14.405
37255W        W 3796   4.607   1.501  14.383
37256W        W 3797  26.523  28.401   4.667
37257W        W 3798  14.293   2.838   3.194
37258W        W 3799  30.048   1.956  13.840
37259W        W 3800  35.646  34.000  11.168
37260W        W 3801  10.144  17.327  14.221
37261W        W 3802  32.073  16.435   1.396
37262W        W 3803  32.672  35.054  11.742
37263W        W 3804   7.243  30.366  14.162
37264W        W 3805  32.148  43.020  11.184
37265W        W 3806  31.882  27.885  13.157
37266W        W 3807  29.024  36.154  14.098
37267W        W 3808  26.395  10.930  14.965
37268W        W 3809  41.230   4.530  12.079
37269W        W 3810  19.516  20.364  13.547
37270W        W 3811  34.876   5.437   0.395
37271W        W 3812   5.732  26.668  11.364
37272W        W 3813  33.681  10.351  14.274
37273W        W 3814   8.730   0.705   0.988
37274W        W 3815   0.040  42.946   3.464
37275W        W 3816  22.748  11.214   0.466
37276W        W 3817   4.412  24.798  13.902
37277W        W 3818  26.408  37.560   2.757
37278W        W 3819  20.034  43.165   1.429
37279W        W 3820  34.237  22.292  11.729
37280W        W 3821  18.743  28.107  10.718
37281W        W 3822  30.883  12.785  13.364
37282W        W 3823  34.082   5.614  13.418
37283W        W 3824  21.279  17.143   4.654
37284W        W 3825  11.952   4.128   4.059
37285W        W 3826  35.706  23.398   4.080
37286W        W 3827  20.148  28.708   3.707
37287W        W 3828  26.209   6.158   4.120
37288W        W 3829  19.548  26.385  13.588
37289W        W 3830  21.084  17.520   3.693
37290W        W 3831  22.261  11.776   0.432
37291W        W 3832  22.172  43.086  12.166
37292W        W 3833  33.000  17.310  10.644
37293W        W 3834   1.344  34.808  10.785
37294W        W 3835  31.151   6.655  14.494
37295W        W 3836  21.703   6.334  12.170
37296W        W 3837  14.107  19.190  12.571
37297W        W 3838  15.058  23.266  10.949
37298W        W 3839  12.805  20.626  10.678
37299W        W 3840   7.511  15.236   4.328
37300W        W 3841  40.525   8.762  11.142
37301W        W 3842  21.172  22.178   4.972
37302W        W 3843  11.886   2.381  10.723
37303W        W 3844  44.390  24.444   1.664
37304W        W 3845  17.822  43.209   2.166
37305W        W 3846  34.649  20.878  11.550
37306W        W 3847   8.899  42.112   0.863
37307W        W 3848   1.758  29.002   0.209
37308W        W 3849   9.501  37.980  11.932
37309W        W 3850  13.324   7.832  10.420
37310W        W 3851  34.116  12.713   3.222
37311W        W 3852  11.382  40.726  11.087
37312W        W 3853  28.988   1.098  14.324
37313W        W 3854  24.048  33.706   1.352
37314W        W 3855   4.114  17.259   0.652
37315W        W 3856   3.327   0.451   4.719
37316W        W 3857   7.760  35.875  12.928
37317W        W 3858  40.450  27.956  10.397
37318W        W 3859   7.319  28.535   0.033
37319W        W 3860  33.828   6.896  12.246
37320W        W 3861   4.906  26.644   4.466
37321W        W 3862  15.262  16.718  12.313
37322W        W 3863  20.507  30.086  13.152
37323W        W 3864  13.651   5.902  14.105
37324W        W 3865  24.577  23.304  14.309
37325W        W 3866   8.699  17.877   0.407
37326W        W 3867  41.376  36.556   3.570
37327W        W 3868   0.516   1.006   2.216
37328W        W 3869  39.050  33.658  11.114
37329W        W 3870  37.161  37.376  10.660
37330W        W 3871  41.638  44.264   2.162
37331W        W 3872   4.854  37.658  11.619
37332W        W 3873  36.406  23.978  10.642
37333W        W 3874  44.232  32.683   2.156
37334W        W 3875  40.759  41.437  12.733
37335W        W 3876  24.716  35.495  12.883
37336W        W 3877  25.000  35.022   2.298
37337W        W 3878   5.967  38.878   5.087
37338W        W 3879   3.843  28.574  14.279
37339W        W 3880   1.644  38.813  12.239
37340W        W 3881  25.103  18.707   0.826
37341W        W 3882   0.792  28.126   0.608
37342W        W 3883  30.686  36.372   3.647
37343W        W 3884  12.627  41.866  13.989
37344W        W 3885   3.911   0.249   1.342
37345W        W 3886  34.036  22.786  11.750
37346W        W 3887   0.898  27.017   3.803
37347W        W 3888  40.022   8.581  14.778
37348W        W 3889  14.633  34.907  11.129
37349W        W 3890  26.608  44.596   0.916
37350W        W 3891  42.411  41.566  13.786
37351W        W 3892  19.523  19.457  10.926
37352W        W 3893  12.106  31.423  14.787
37353W        W 3894   2.248  29.604  12.001
37354W        W 3895  41.429   7.698   1.553
37355W        W 3896  16.149  39.392  14.397
37356W        W 3897  16.716  24.516  12.104
37357W        W 3898  11.312  28.096  11.139
37358W        W 3899  10.381  36.158  12.450
37359W        W 3900  20.619  14.626  12.577
37360W        W 3901   0.673  12.615   3.294
37361W        W 3902   1.848  24.261   2.006
37362W        W 3903  20.210  22.064   0.200
37363W        W 3904  16.730  43.380  14.397
37364W        W 3905  15.220  12.981   0.917
37365W        W 3906  30.343  20.699   0.803
37366W        W 3907   0.206  26.650   1.243
37367W        W 3908   0.794  26.148  12.464
37368W        W 3909  33.436  12.273   1.203
37369W        W 3910  25.584   5.690   0.702
37370W        W 3911  15.889  26.988   4.124
37371W        W 3912  10.785  29.495   2.542
37372W        W 3913  13.330  33.532  12.144
37373W        W 3914   7.744  13.170  12.469
37374W        W 3915  22.139  44.593  14.415
37375W        W 3916   1.800   9.441  12.011
37376W        W 3917  16.184  31.625   0.383
37377W        W 3918  27.653  16.720  13.671
37378W        W 3919  38.006  23.280  14.923
37379W        W 3920  11.871  24.518  13.324
37380W        W 3921   4.722  24.025  14.054
37381W        W 3922  40.070  27.017   3.319
37382W        W 3923  26.965  13.617  11.795
37383W        W 3924  23.940  16.262  12.864
37384W        W 3925  11.706  19.993   2.302
37385W        W 3926  10.655  39.075   3.582
37386W        W 3927  10.761  32.540   2.807
37387W        W 3928  32.253  25.740  11.966
37388W        W 3929  13.148  15.330   1.028
37389W        W 3930   3.453   0.068   0.321
37390W        W 3931   0.744  14.611  11.774
37391W        W 3932  15.656  41.292   2.967
37392W        W 3933  39.112  29.651  13.582
37393W        W 3934  40.458  29.708  14.749
37394W        W 3935  24.144  35.270  12.886
37395W        W 3936   7.829  36.758  14.919
37396W        W 3937  31.517  39.873   1.815
37397W        W 3938  44.530  25.554   3.848
37398W        W 3939  23.809  22.662   0.831
37399W        W 3940   4.172  31.987   1.208
37400W        W 3941   2.931  15.916  11.025
37401W        W 3942   2.032  26.582  13.879
37402W        W 3943   2.133  18.594  12.507
37403W        W 3944   4.139  16.791  11.196
37404W        W 3945   6.493  44.009   4.904
37405W        W 3946  24.074   1.387  11.938
37406W        W 3947  26.474  11.712  13.918
37407W        W 3948  29.647   4.993  12.469
37408W        W 3949  38.500  21.948   1.796
37409W        W 3950  20.062  15.293  11.769
37410W        W 3951   0.368   0.310  10.916
37411W        W 3952  21.962   6.739  12.371
37412W        W 3953   0.944  10.133   3.215
37413W        W 3954  10.385  26.637  14.021
37414W        W 3955  39.287  15.283   4.094
37415W        W 3956  24.675  29.427  12.113
37416W        W 3957   9.666  28.047  13.215
37417W        W 3958  15.705  40.016  13.579
37418W        W 3959  37.037  34.843   1.521
37419W        W 3960  21.844  41.044   3.073
37420W        W 3961  25.942   7.687  11.527
37421W        W 3962   7.176  16.686  13.282
37422W        W 3963  44.811  35.510  12.046
37423W        W 3964   1.528  16.227  11.171
37424W        W 3965  16.960  13.777   4.464
37425W        W 3966   9.887   7.883   0.754
37426W        W 3967  39.011  25.322   0.046
37427W        W 3968  27.898  40.197   5.173
37428W        W 3969   4.721  14.118  12.132
37429W        W 3970  41.444  13.615   3.116
37430W        W 3971  33.304  36.880   4.882
37431W        W 3972   1.592  33.646  11.660
37432W        W 3973  19.560  17.663   3.865
37433W        W 3974   4.911  36.434  11.678
37434W        W 3975  16.016  42.548   3.697
37435W        W 3976  41.047  10.105   4.577
37436W        W 3977  25.334   2.475   2.623
37437W        W 3978  30.127  33.871  13.401
37438W        W 3979  33.388  36.704  12.397
37439W        W 3980  16.267  29.488  13.334
37440W        W 3981  39.965  25.193   2.358
37441W        W 3982  37.370  11.702  12.804
37442W        W 3983  44.546   0.012   2.732
37443W        W 3984  19.103   5.825   1.738
37444W        W 3985  39.699   8.805  11.598
37445W        W 3986  16.784   6.284   3.779
37446W        W 3987  36.983  25.522  14.947
37447W        W 3988   6.562  14.051   1.378
37448W        W 3989  41.106  11.253  14.862
37449W        W 3990  22.251  36.078   1.993
37450W        W 3991  32.054  37.570   4.007
37451W        W 3992  37.827  40.417   2.489
37452W        W 3993   6.865  32.436  14.430
37453W        W 3994  41.927  24.665   1.193
37454W        W 3995   7.888  13.899  12.935
37455W        W 3996  36.922  32.040   4.430
37456W        W 3997   5.978  32.456  13.898
37457W        W 3998   7.417   1.426   4.997
37458W        W 3999   9.472   1.241  11.910
37459W        W 4000   0.464  11.515   1.381
37460W        W 4001  42.805   2.275   2.316
37461W        W 4002  33.515  42.137   2.901
37462W        W 4003  13.701  37.252  12.978
37463W        W 4004  23.581  33.169   0.797
37464W        W 4005  24.031  22.977  13.627
37465W        W 4006   1.233   6.557  13.135
37466W        W 4007  22.938  17.234  13.928
37467W        W 4008  23.453   8.835  14.840
37468W        W 4009  18.643  21.494   0.781
37469W        W 4010   3.749  26.885   2.295
37470W        W 4011   5.334  10.802  14.006
37471W        W 4012  22.715  14.210  13.948
37472W        W 4013  11.870   1.076   1.812
37473W        W 4014  10.851  35.284  11.520
37474W        W 4015   9.662  33.906  13.459
37475W        W 4016  14.734  33.609  14.551
37476W        W 4017  44.347   3.858  12.092
37477W        W 4018  17.068  14.578  13.800
37478W        W 4019  33.945  30.656   1.551
37479W        W 4020  18.618   8.917   0.574
37480W        W 4021   8.846   7.482   2.625
37481W        W 4022  22.955  42.465   1.871
37482W        W 4023   5.418  42.401   4.685
37483W        W 4024   2.939  31.669  13.956
37484W        W 4025  16.156   3.455  12.581
37485W        W 4026  17.143  27.226  13.952
37486W        W 4027  23.037  30.087  12.152
37487W        W 4028  26.734  18.199  14.034
37488W        W 4029  15.904   6.878  10.703
37489W        W 4030  12.276  15.263   0.465
37490W        W 4031  16.694  43.865  13.006
37491W        W 4032  29.604  40.399   3.323
37492W        W 4033  43.471  32.939  14.912
37493W        W 4034  43.987  36.152   9.894
37494W        W 4035  18.183  36.563   3.177
37495W        W 4036  37.749  25.621   1.425
37496W        W 4037   9.623  38.541  11.087
37497W        W 4038   6.302  15.617  12.573
37498W        W 4039  14.213  35.163  12.266
37499W        W 4040  41.969  15.654   0.229
37500W        W 4041   7.876   5.409  13.477
37501W        W 4042  32.654  14.082   2.889
37502W        W 4043  18.140   1.645  10.802
37503W        W 4044  16.145   4.689   4.172
37504W        W 4045   4.030  42.744  11.579
37505W        W 4046   5.466  18.736  11.644
37506W        W 4047  30.418  32.691  11.114
37507W        W 4048  25.283  27.163  11.042
37508W        W 4049  21.059  33.595  12.476
37509W        W 4050  22.038  35.356   0.828
37510W        W 4051  43.880  23.796   2.293
37511W        W 4052  18.448  10.669  11.131
37512W        W 4053  30.944  39.452  12.048
37513W        W 4054  28.622  17.305  14.915
37514W        W 4055  15.162  20.294  11.558
37515W        W 4056  42.312   6.195   1.905
37516W        W 4057  18.277  14.834  12.948
37517W        W 4058  20.474  30.566   2.894
37518W        W 4059   9.328  25.059   0.999
37519W        W 4060   1.742   9.534   3.556
37520W        W 4061  41.998  12.680   2.587
37521W        W 4062  10.202  24.775  12.132
37522W        W 4063  17.012  16.950  13.965
37523W        W 4064  12.779  34.885  12.544
37524W        W 4065  32.847  24.181  11.583
37525W        W 4066  14.219  30.291   0.449
37526W        W 4067  22.478   4.764  12.921
37527W        W 4068   0.769  21.885  12.655
37528W        W 4069  32.965  29.351   3.229
37529W        W 4070  30.658  12.806  12.897
37530W        W 4071  40.433  16.542  11.068
37531W        W 4072  16.074  38.980   3.641
37532W        W 4073  40.818  13.313  12.897
37533W        W 4074  31.034  34.411  12.171
37534W        W 4075  42.855  21.021  12.109
37535W        W 4076  35.365  32.691  12.101
37536W        W 4077   9.070  21.110  13.118
37537W        W 4078  17.210   1.913  13.920
37538W        W 4079  28.887  22.033   1.364
37539W        W 4080  15.147  11.482   4.565
37540W        W 4081  35.394  16.071   2.743
37541W        W 4082  14.689  11.702  10.518
37542W        W 4083  30.930   1.305  11.553
37543W        W 4084  20.315  12.859  13.026
37544W        W 4085  24.685  12.682   1.354
37545W        W 4086  38.899  11.503   2.294
37546W        W 4087  35.177  19.271   0.409
37547W        W 4088   7.253   7.247  14.293
37548W        W 4089  25.548   0.344   0.516
37549W        W 4090  21.255  14.185   2.300
37550W        W 4091  12.605  20.882  12.873
37551W        W 4092   7.756   4.381   3.452
37552W        W 4093   8.235  18.553   3.254
37553W        W 4094  18.660  19.098  14.191
37554W        W 4095  31.861  44.544   3.830
37555W        W 4096   1.245  43.921  10.747
37556W        W 4097   3.961  13.323  13.483
37557W        W 4098  19.284  24.205   3.626
37558W        W 4099   4.210   7.869   2.325
37559W        W 4100   5.325  38.090  11.680
37560W        W 4101  11.341   2.100  13.886
37561W        W 4102  40.306  27.045  12.994
37562W        W 4103  20.060   5.198   3.147
37563W        W 4104  38.877   6.148  11.568
37564W        W 4105  35.610  32.281   4.103
37565W        W 4106  21.544  41.438   3.985
37566W        W 4107  16.828  37.351  10.667
37567W        W 4108  21.786  14.026   2.277
37568W        W 4109  25.960  39.851  13.921
37569W        W 4110  16.283  37.961   0.459
37570W        W 4111  12.625  43.810  11.994
37571W        W 4112  20.621  26.726  14.365
37572W        W 4113  35.392   9.163  10.756
37573W        W 4114  39.202  44.300   1.764
37574W        W 4115  40.567  17.183   3.286
37575W        W 4116   0.520  25.613  10.685
37576W        W 4117  38.618  31.174   3.652
37577W        W 4118  25.592  42.087   4.472
37578W        W 4119  33.624  23.540  10.720
37579W        W 4120  26.349  17.090  14.755
37580W        W 4121  22.508  17.032   3.654
37581W        W 4122  32.914  29.397  11.484
37582W        W 4123   0.192  15.038   0.951
37583W        W 4124  25.527  16.481   1.673
37584W        W 4125  37.564  19.102  11.217
37585W        W 4126  36.906  32.130  11.593
37586W        W 4127  36.399  36.876   4.672
37587W        W 4128  31.013  33.995  13.961
37588W        W 4129  36.518  28.200   4.087
37589W        W 4130  23.094  40.353   0.705
37590W        W 4131  13.528  22.204  11.104
37591W        W 4132  28.612  37.806  14.916
37592W        W 4133   0.290  15.120  11.130
37593W        W 4134   5.352  22.714  10.701
37594W        W 4135  22.134  25.459  14.493
37595W        W 4136  34.962   1.368   1.112
37596W        W 4137  18.155  41.055  10.367
37597W        W 4138  38.293   2.991  11.101
37598W        W 4139   2.938  11.458  13.456
37599W        W 4140   4.413  16.655  13.416
37600W        W 4141  28.494  20.864   4.535
37601W        W 4142  41.138  18.369  13.138
37602W        W 4143  29.066   8.423  13.931
37603W        W 4144  12.887  17.751   2.353
37604W        W 4145  31.501   8.708  10.619
37605W        W 4146  36.853   5.771  10.820
37606W        W 4147   4.445  28.108   0.752
37607W        W 4148  12.073   5.713  10.674
37608W        W 4149  39.959  13.238   3.575
37609W        W 4150  32.721  29.029   2.769
37610W        W 4151  20.427  27.587   1.423
37611W        W 4152   1.904  41.103   4.553
37612W        W 4153  13.807  40.305  10.800
37613W        W 4154   1.609  17.373  11.572
37614W        W 4155  11.169   5.513   2.881
37615W        W 4156   9.609  24.994   1.928
37616W        W 4157  29.511  22.495  10.513
37617W        W 4158  31.577  36.509   1.347
37618W        W 4159   4.025  13.201  14.424
37619W        W 4160  25.595  28.953   3.879
37620W        W 4161  35.032  38.425   3.413
37621W        W 4162   1.328  39.503  12.545
37622W        W 4163   2.485  28.653   1.343
37623W        W 4164   6.817   7.887  14.297
37624W        W 4165   8.768  22.264  10.748
37625W        W 4166  33.336   1.932  12.421
37626W        W 4167  38.983   1.422  10.691
37627W        W 4168  21.268  34.309  12.290
37628W        W 4169  23.269   6.348  13.401
37629W        W 4170  17.293   9.191   4.667
37630W        W 4171   2.930  38.864  10.678
37631W        W 4172  21.756   1.934   5.034
37632W        W 4173  27.236   2.812   0.767
37633W        W 4174  13.737  25.566  14.014
37634W        W 4175  21.682  13.891  13.363
37635W        W 4176   9.692  14.714  13.141
37636W        W 4177   2.898  27.068  14.017
37637W        W 4178  42.466  16.027  11.674
37638W        W 4179   2.545  14.060  13.907
37639W        W 4180  17.674   6.846  14.275
37640W        W 4181  31.260  13.789   0.250
37641W        W 4182   1.458  20.037  11.032
37642W        W 4183  17.561  32.922   2.214
37643W        W 4184   6.885  23.012   4.469
37644W        W 4185  23.203   2.298  11.936
37645W        W 4186  21.526  37.412  13.065
37646W        W 4187  21.582  20.690   0.922
37647W        W 4188  13.009  43.106   1.951
37648W        W 4189  26.577   0.983  10.980
37649W        W 4190   0.965  18.035   1.888
37650W        W 4191  18.594  15.255   0.539
37651W        W 4192  13.368  39.621  13.485
37652W        W 4193  18.498  23.998  12.413
37653W        W 4194  30.662  26.965  13.417
37654W        W 4195  38.966  12.328   1.265
37655W        W 4196  40.717  38.581   4.961
37656W        W 4197  18.239  22.077   0.057
37657W        W 4198   1.819  39.565   3.800
37658W        W 4199  30.413   0.895  12.973
37659W        W 4200  39.423  31.544  10.952
37660W        W 4201  37.486  19.810   0.420
37661W        W 4202  26.386  24.702  11.975
37662W        W 4203  31.103  11.116   2.103
37663W        W 4204  24.912  11.449  13.512
37664W        W 4205  40.403  10.013   0.697
37665W        W 4206   0.338   1.405   0.984
37666W        W 4207   1.831  35.904   3.303
37667W        W 4208  37.007  19.652   2.464
37668W        W 4209  29.606   1.891  11.573
37669W        W 4210  25.089  22.128   4.380
37670W        W 4211  23.769  32.807  11.715
37671W        W 4212  11.536  23.254  14.996
37672W        W 4213  10.957   2.929  13.145
37673W        W 4214   4.279  30.216  14.377
37674W        W 4215  14.710  12.666  12.517
37675W        W 4216   4.159  16.132  11.685
37676W        W 4217  31.917  17.121  12.650
37677W        W 4218  40.294  14.730   3.367
37678W        W 4219  31.409  17.098  12.894
37679W        W 4220  36.378  23.669   2.203
37680W        W 4221  29.373  14.739   2.036
37681W        W 4222   3.473  35.468  12.117
37682W        W 4223  16.011  25.514   0.716
37683W        W 4224  35.109  32.948   1.937
37684W        W 4225  22.671   7.296   5.565
37685W        W 4226  31.711  35.176   1.073
37686W        W 4227  20.104  44.947   1.823
37687W        W 4228  44.332  23.964  12.074
37688W        W 4229  14.419  36.318  11.444
37689W        W 4230  39.380  20.315  12.844
37690W        W 4231  21.017  38.857  12.085
37691W        W 4232  30.384  38.442  11.126
37692W        W 4233  32.317   8.682  10.943
37693W        W 4234  40.957  31.136  10.669
37694W        W 4235  33.157  40.764   4.587
37695W        W 4236   6.117  20.189  11.121
37696W        W 4237  28.174  13.259   0.884
37697W        W 4238   7.117  18.818   2.262
37698W        W 4239  35.175  41.332  14.857
37699W        W 4240  19.638   6.247   4.311
37700W        W 4241  39.450   7.403  11.729
37701W        W 4242  11.828  25.446  13.851
37702W        W 4243  18.864   0.866   3.730
37703W        W 4244  10.062   6.956  12.121
37704W        W 4245  23.464   0.975   4.209
37705W        W 4246  21.106   3.379  13.222
37706W        W 4247  39.920  20.424  10.844
37707W        W 4248  31.626   6.814   4.649
37708W        W 4249  34.301  22.301  12.460
37709W        W 4250   7.469  25.103   0.951
37710W        W 4251  43.846  24.675   1.429
37711W        W 4252  32.090   8.148   0.168
37712W        W 4253  30.180  29.066   4.142
37713W        W 4254  32.300   4.225  14.501
37714W        W 4255  29.424  23.733   4.188
37715W        W 4256  16.225  31.104   3.876
37716W        W 4257   8.600  25.000   5.214
37717W        W 4258   6.788  34.829  11.090
37718W        W 4259  36.060  35.854  12.989
37719W        W 4260  35.977  26.196  14.711
37720W        W 4261  16.830  26.171   2.630
37721W        W 4262  36.442  32.089   0.826
37722W        W 4263  33.378  39.436   1.744
37723W        W 4264  28.540   2.883   4.515
37724W        W 4265  32.747  42.653  12.067
37725W        W 4266  30.544  40.920   1.926
37726W        W 4267  42.416  14.917  12.510
37727W        W 4268  24.416  11.204  14.003
37728W        W 4269   5.784   4.298  12.418
37729W        W 4270  35.771   8.380  13.942
37730W        W 4271  33.923  15.329   0.237
37731W        W 4272  43.333  25.970  13.407
37732W        W 4273  24.696   0.443  13.121
37733W        W 4274  24.607  11.027  13.533
37734W        W 4275   9.685  13.909   2.866
37735W        W 4276  18.741  12.678   3.564
37736W        W 4277   6.082  31.909  11.519
37737W        W 4278   6.789  31.078   2.903
37738W        W 4279   2.503  35.854  12.488
37739W        W 4280  14.132  38.371  12.573
37740W        W 4281  10.931  16.309  14.861
37741W        W 4282  39.067  40.875   3.226
37742W        W 4283  35.873  40.992  14.603
37743W        W 4284   8.132   8.204  13.520
37744W        W 4285  36.158   6.813   4.673
37745W        W 4286  42.008  15.162   1.947
37746W        W 4287  37.012  13.134   0.778
37747W        W 4288  29.220  39.509  14.460
37748W        W 4289  30.266  33.329   0.737
37749W        W 4290  14.154  30.518   1.984
37750W        W 4291  27.920   1.250  11.021
37751W        W 4292  44.242  15.885  13.357
37752W        W 4293  33.682  30.970   2.521
37753W        W 4294  43.872  38.571   4.664
37754W        W 4295   5.233  13.606  11.601
37755W        W 4296  37.236  21.263  10.665
37756W        W 4297  31.554   9.744  11.963
37757W        W 4298  25.275  21.096   4.251
37758W        W 4299  31.804  28.556  12.276
37759W        W 4300  42.369  23.623   2.892
37760W        W 4301  17.761  24.704  14.891
37761W        W 4302  27.022  21.588   0.311
37762W        W 4303  41.789  35.751   1.461
37763W        W 4304   7.181  27.525  10.631
37764W        W 4305  27.691  24.669   1.280
37765W        W 4306  14.775  10.738  11.481
37766W        W 4307  36.746  38.067   3.805
37767W        W 4308  12.737  19.251   0.924
37768W        W 4309  28.431  35.645  11.030
37769W        W 4310  30.550  13.905  11.475
37770W        W 4311  17.682  23.657   1.907
37771W        W 4312   0.448  41.276   3.289
37772W        W 4313  10.649  23.749  11.482
37773W        W 4314   0.758  10.390   0.713
37774W        W 4315  19.260  41.365  12.173
37775W        W 4316  21.900  16.606   2.091
37776W        W 4317   5.209  36.889  11.580
37777W        W 4318  16.334  32.345   4.100
37778W        W 4319  26.660   1.619   1.048
37779W        W 4320  44.511  15.167   3.001
37780W        W 4321  38.708  12.691   4.166
37781W        W 4322  15.643  14.881   0.800
37782W        W 4323  19.756  31.623  11.624
37783W        W 4324   9.158  42.797  14.293
37784W        W 4325  33.911   5.966  12.027
37785W        W 4326  36.480   8.012  12.420
37786W        W 4327  37.332  29.775  12.970
37787W        W 4328  26.817   5.527  11.130
37788W        W 4329   2.366   0.542  12.683
37789W        W 4330  18.700  23.568   3.213
37790W        W 4331  34.226   1.318   2.304
37791W        W 4332   6.401  44.016   3.074
37792W        W 4333  43.168  40.916   1.313
37793W        W 4334  12.160   6.893  13.349
37794W        W 4335  19.450  19.263   1.173
37795W        W 4336  31.729  44.962  13.826
37796W        W 4337  10.588  31.080   2.784
37797W        W 4338  15.834   7.637  12.920
37798W        W 4339   5.443  12.901  13.494
37799W        W 4340  37.495  25.678   2.720
37800W        W 4341  21.038  11.925  13.367
37801W        W 4342  26.609   7.977   3.905
37802W        W 4343  33.167  30.292   1.890
37803W        W 4344  40.736  24.649   0.063
37804W        W 4345  39.577  40.509   3.850
37805W        W 4346   9.427  18.655  13.819
37806W        W 4347  22.122  17.714   4.578
37807W        W 4348   6.151  16.400  12.422
37808W        W 4349  29.977  28.615   4.318
37809W        W 4350  14.335  33.366   1.624
37810W        W 4351   1.748  41.453  12.094
37811W        W 4352  21.966  44.907   3.248
37812W        W 4353  42.545   1.602   4.303
37813W        W 4354  30.709  41.600   3.245
37814W        W 4355   6.507  32.483   3.669
37815W        W 4356  43.171  32.002  12.057
37816W        W 4357  16.270  35.506   4.102
37817W        W 4358  10.724   5.166   0.252
37818W        W 4359   5.440  30.280  13.828
37819W        W 4360   7.628  30.608  11.969
37820W        W 4361  39.018  11.422   2.805
37821W        W 4362  28.493  41.381  13.791
37822W        W 4363  24.472  27.465   1.876
37823W        W 4364  14.372  13.635  14.514
37824W        W 4365  37.770   2.887   3.928
37825W        W 4366  44.549  14.990  10.733
37826W        W 4367  23.549   5.956  12.997
37827W        W 4368   5.934   5.714   0.868
37828W        W 4369  11.673  25.227  11.157
37829W        W 4370  27.482   7.983   1.363
37830W        W 4371   5.399  32.180  14.520
37831W        W 4372  40.242   4.165  12.656
37832W        W 4373  35.324  18.557   0.062
37833W        W 4374  22.515  21.804  12.281
37834W        W 4375  31.128  18.596   0.406
37835W        W 4376   8.394  21.187   1.696
37836W        W 4377  22.154  13.688  14.565
37837W        W 4378   8.112  12.422  13.275
37838W        W 4379  37.513  28.459  12.903
37839W        W 4380  24.768  37.376  14.411
37840W        W 4381  34.980  39.267   2.751
37841W        W 4382  32.889  44.822  12.362
37842W        W 4383  19.522  23.184  14.474
37843W        W 4384   6.760   5.652  12.376
37844W        W 4385  29.318   2.282  14.046
37845W        W 4386  43.914  42.939  13.918
37846W        W 4387  23.667  22.783  11.028
37847W        W 4388   6.406  21.699  13.366
37848W        W 4389  13.716   5.734   4.306
37849W        W 4390  25.018  11.142   2.819
37850W        W 4391   9.398   9.661   1.919
37851W        W 4392  28.513  11.374   0.352
37852W        W 4393  27.728  25.204  12.007
37853W        W 4394  28.315  13.513   4.868
37854W        W 4395  37.582   1.414   2.292
37855W        W 4396  31.981  38.575   0.911
37856W        W 4397  37.365  40.814   4.616
37857W        W 4398  28.910   6.402   0.824
37858W        W 4399  17.591  30.906  11.979
37859W        W 4400  34.585  15.946  13.245
37860W        W 4401   3.004  21.168   3.370
37861W        W 4402   9.414  26.429   2.122
37862W        W 4403  11.084  16.603   3.398
37863W        W 4404   4.445  26.306   4.438
37864W        W 4405  40.960  16.440  11.067
37865W        W 4406  42.589   0.918  11.107
37866W        W 4407   2.616  14.327  13.016
37867W        W 4408  36.828   5.748  12.668
37868W        W 4409  31.390  29.141   1.799
37869W        W 4410  31.069   1.014  11.157
37870W        W 4411  22.336  31.491   4.165
37871W        W 4412  10.666   7.131  13.540
37872W        W 4413  22.969  17.817  13.046
37873W        W 4414  43.806  36.078  13.888
37874W        W 4415   8.647  24.009  13.580
37875W        W 4416   7.988  16.262  12.991
37876W        W 4417   7.644  13.516  14.765
37877W        W 4418  20.492  42.690   9.866
37878W        W 4419   8.495   6.355   0.359
37879W        W 4420  26.081  28.202   3.773
37880W        W 4421  39.308  42.818  13.956
37881W        W 4422   1.183   2.507   4.634
37882W        W 4423  32.593  21.208  11.868
37883W        W 4424  20.598  35.660   0.048
37884W        W 4425  27.970  37.743   3.393
37885W        W 4426  22.105   2.458  13.900
37886W        W 4427   5.684  12.921   4.587
37887W        W 4428  44.794  18.050  14.270
37888W        W 4429   5.997  42.799  10.717
37889W        W 4430  17.791  39.961  12.109
37890W        W 4431  39.769  34.853   4.646
37891W        W 4432  33.804  38.499  11.136
37892W        W 4433  13.392  27.014  10.500
37893W        W 4434  11.952  17.881   1.324
37894W        W 4435  38.617  24.958  12.528
37895W        W 4436  30.597  20.669  12.522
37896W        W 4437  24.511  35.894   4.704
37897W        W 4438  29.283  19.116  13.922
37898W        W 4439  37.658  20.038   5.047
37899W        W 4440  29.035   1.802   3.621
37900W        W 4441  27.161  31.575   1.977
37901W        W 4442  29.890  17.618  11.974
37902W        W 4443  10.821   0.287   3.368
37903W        W 4444  11.821  22.606   4.547
37904W        W 4445   4.864  32.771  11.698
37905W        W 4446   7.827   1.948  12.940
37906W        W 4447  19.150  27.449  12.060
37907W        W 4448   3.822  29.103   2.747
37908W        W 4449   1.403  16.383  12.064
37909W        W 4450   0.871   5.217   2.338
37910W        W 4451   6.621   5.893   2.811
37911W        W 4452  24.657  26.615   4.698
37912W        W 4453   7.900  29.910  11.515
37913W        W 4454   1.264  38.342   1.673
37914W        W 4455  23.955  26.309  11.656
37915W        W 4456  30.586  38.214  12.707
37916W        W 4457  42.486  35.554  12.370
37917W        W 4458  31.462  13.539  11.287
37918W        W 4459   8.159  36.826   1.637
37919W        W 4460  19.217  11.861   4.695
37920W        W 4461  19.461  44.473  11.891
37921W        W 4462  27.710   0.461   4.704
37922W        W 4463  15.744  40.526  13.586
37923W        W 4464  12.224  38.897  14.338
37924W        W 4465  10.955   2.714   4.556
37925W        W 4466  21.023  17.052  12.765
37926W        W 4467  15.878  20.851   2.004
37927W        W 4468   0.540  12.316  12.849
37928W        W 4469  14.377   2.417  14.565
37929W        W 4470   1.714  10.802   3.342
37930W        W 4471  12.691  34.788   0.747
37931W        W 4472  31.911  14.269  13.732
37932W        W 4473  25.955   6.438  12.009
37933W        W 4474  26.940  29.168  12.014
37934W        W 4475  43.428  22.825   1.306
37935W        W 4476   8.784   4.430  14.236
37936W        W 4477  34.911   6.944   0.078
37937W        W 4478   5.937  24.054  11.739
37938W        W 4479  42.911   6.977  12.786
37939W        W 4480  19.306  28.642  12.590
37940W        W 4481   3.872  41.853  12.058
37941W        W 4482   4.639   5.317   4.572
37942W        W 4483  41.464  15.762   4.883
37943W        W 4484   4.700  43.236  14.257
37944W        W 4485  22.825  23.636  10.588
37945W        W 4486  33.324   1.203  11.213
37946W        W 4487  41.579  17.458  10.600
37947W        W 4488  38.069  23.225   0.783
37948W        W 4489  28.680  12.062  10.988
37949W        W 4490  44.800  40.369   0.438
37950W        W 4491  34.888  28.676   3.163
37951W        W 4492  20.701  15.992   4.344
37952W        W 4493  33.866  21.320   2.879
37953W        W 4494  26.277   0.216   1.790
37954W        W 4495  35.407  17.656   2.760
37955W        W 4496  44.221  17.691   0.221
37956W        W 4497  36.486  10.550  12.275
37957W        W 4498  29.190  30.647   2.890
37958W        W 4499  25.234   2.456   1.292
37959W        W 4500  20.503   0.322   1.833
37960W        W 4501  40.456  16.599  14.322
37961W        W 4502  36.903  38.473   2.170
37962W        W 4503  34.550  22.981   2.867
37963W        W 4504  14.663  37.103   0.015
37964W        W 4505  20.115  11.153   2.179
37965W        W 4506  15.163  16.666   3.365
37966W        W 4507  30.968  41.307   4.305
37967W        W 4508  15.535  22.679   4.969
37968W        W 4509   3.480  35.018   4.144
37969W        W 4510  33.981  38.632  14.280
37970W        W 4511  32.349  18.133   4.161
37971W        W 4512   0.949  44.013   1.346
37972W        W 4513  17.314   4.458  14.392
37973W        W 4514   1.381   5.184   1.817
37974W        W 4515  16.021   1.015  10.523
37975W        W 4516  21.854  21.489   2.421
37976W        W 4517   9.604  34.072   0.871
37977W        W 4518  25.187  33.710  11.091
37978W        W 4519  44.419  19.983   0.801
37979W        W 4520  30.436  41.735   3.678
37980W        W 4521  25.645  40.317  13.602
37981W        W 4522  14.830  22.918  14.079
37982W        W 4523  35.780  36.395   3.419
37983W        W 4524  16.868   5.611   3.244
37984W        W 4525   5.389  44.168   0.280
37985W        W 4526   8.753   1.062  14.444
37986W        W 4527   7.142  35.569   5.119
37987W        W 4528  40.074  20.581   1.737
37988W        W 4529  21.545  11.283   3.154
37989W        W 4530  15.487  28.191   4.886
37990W        W 4531  21.347   6.796   0.702
37991W        W 4532  25.140  15.788  13.884
37992W        W 4533   9.534  14.884   3.717
37993W        W 4534  32.057  31.900   1.299
37994W        W 4535  26.484  38.640  10.662
37995W        W 4536  29.608  37.529  13.067
37996W        W 4537  23.543  14.088   4.153
37997W        W 4538   6.677  38.113   3.308
37998W        W 4539  24.092   3.208  11.503
37999W        W 4540  23.554  12.645  13.530
38000W        W 4541  41.452   2.056  14.993
38001W        W 4542  32.168  12.352   1.153
38002W        W 4543  10.479  32.089  10.614
38003W        W 4544  27.585  39.951   1.666
38004W        W 4545  14.734  34.480   3.548
38005W        W 4546   0.431  32.925   2.660
38006W        W 4547  22.482  31.908   0.655
38007W        W 4548  11.756  29.594   2.953
38008W        W 4549  37.318  29.715   3.075
38009W        W 4550  31.944  40.014  13.055
38010W        W 4551  22.922   9.773   3.547
38011W        W 4552  27.414  10.345  11.858
38012W        W 4553  25.242  24.522  11.193
38013W        W 4554  10.794   1.293  11.548
38014W        W 4555  31.122  39.869   4.192
38015W        W 4556   0.703   7.696  13.433
38016W        W 4557  14.802  16.505   1.406
38017W        W 4558  21.187   5.943   2.419
38018W        W 4559  24.123  25.288   1.594
38019W        W 4560  28.520   4.272   0.347
38020W        W 4561   5.886  36.862   1.437
38021W        W 4562  42.874   3.878   2.189
38022W        W 4563  33.799  22.188  13.366
38023W        W 4564   0.455  43.958  13.864
38024W        W 4565   1.706  38.380   4.643
38025W        W 4566  28.943  30.454   4.166
38026W        W 4567  21.760  16.205  11.986
38027W        W 4568   3.312   5.945   5.130
38028W        W 4569  32.660  42.593   2.865
38029W        W 4570   2.596   3.737  12.780
38030W        W 4571  20.497  10.871  13.848
38031W        W 4572  40.807   4.043  11.105
38032W        W 4573  12.396  22.989   0.905
38033W        W 4574  11.439  44.430  14.025
38034W        W 4575  25.956  36.000  13.923
38035W        W 4576  15.808  18.895  12.643
38036W        W 4577   9.419   1.900  13.128
38037W        W 4578  26.616  22.598   2.680
38038W        W 4579  34.939   7.327   3.692
38039W        W 4580  15.785  20.523  14.685
38040W        W 4581   3.179  10.278   1.078
38041W        W 4582  33.337   4.924   1.371
38042W        W 4583  25.365  26.435  13.409
38043W        W 4584  30.608  32.761   4.063
38044W        W 4585  36.671   2.157  11.169
38045W        W 4586  13.866  44.788  13.139
38046W        W 4587   5.716  41.381   2.903
38047W        W 4588  21.203  44.629   2.160
38048W        W 4589  39.193   1.473  10.209
38049W        W 4590  18.185   1.951  14.040
38050W        W 4591  40.226  37.456  13.456
38051W        W 4592  21.046  25.568  14.705
38052W        W 4593  10.922  12.433  13.494
38053W        W 4594  41.336  35.993  13.987
38054W        W 4595  17.773  14.209   3.172
38055W        W 4596  42.155  44.482  14.271
38056W        W 4597  11.713  18.060   1.773
38057W        W 4598  42.039  32.883   1.450
38058W        W 4599  35.407  16.504   4.115
38059W        W 4600  34.185  39.178   2.879
38060W        W 4601  36.441  20.922   1.919
38061W        W 4602  21.243   4.672  11.236
38062W        W 4603  33.812  27.426   3.648
38063W        W 4604  11.373   7.935   2.781
38064W        W 4605  29.417  31.865   3.235
38065W        W 4606  12.599  11.208  10.459
38066W        W 4607  23.480   2.528  11.547
38067W        W 4608  23.124  34.935   3.075
38068W        W 4609  20.116   8.257   2.872
38069W        W 4610  41.716   1.069  14.960
38070W        W 4611  38.297  42.578  11.936
38071W        W 4612  22.972  28.726   4.606
38072W        W 4613   4.238   0.139   4.628
38073W        W 4614  14.387  19.783  10.625
38074W        W 4615   6.611  35.633   4.773
38075W        W 4616  18.907   8.260   2.334
38076W        W 4617  13.298  26.198  14.356
38077W        W 4618  34.497   1.562  10.364
38078W        W 4619  27.543  25.597  14.465
38079W        W 4620  19.753   8.880   2.824
38080W        W 4621  39.826  28.446   0.911
38081W        W 4622  25.525   3.320  11.052
38082W        W 4623  33.498  11.339   1.591
38083W        W 4624  15.840  30.491   3.345
38084W        W 4625   3.089   4.821  10.599
38085W        W 4626  39.767   8.821   1.824
38086W        W 4627   3.348  19.377   4.567
38087W        W 4628  27.898   3.281  14.056
38088W        W 4629  33.985  44.811  12.137
38089W        W 4630   6.154   0.580  11.151
38090W        W 4631  42.758  10.863  10.643
38091W        W 4632  16.767   2.551  12.625
38092W        W 4633  30.679  40.252  14.883
38093W        W 4634  35.926  16.705  14.993
38094W        W 4635  17.852  12.270   3.054
38095W        W 4636  14.192  31.749   1.380
38096W        W 4637  28.875  35.545  12.959
38097W        W 4638   9.961  34.957   0.779
38098W        W 4639  25.252  44.374   3.720
38099W        W 4640   8.305   4.062  11.035
38100W        W 4641  37.397  23.339   4.598
38101W        W 4642  41.367  15.708   2.317
38102W        W 4643  27.648  35.570  13.499
38103W        W 4644  14.212   9.780   3.216
38104W        W 4645  29.627  33.207   1.837
38105W        W 4646   2.806  41.567   3.265
38106W        W 4647  17.600  17.526  13.535
38107W        W 4648  13.274  27.486   0.320
38108W        W 4649   5.305   4.885  13.524
38109W        W 4650  43.350  15.007   9.745
38110W        W 4651  35.686  30.480  14.490
38111W        W 4652   0.416  36.340  11.220
38112W        W 4653  32.274  18.395  11.008
38113W        W 4654  10.623   5.872   3.858
38114W        W 4655  40.009  44.253  13.316
38115W        W 4656  18.969  11.291  11.979
38116W        W 4657   7.433   5.834   1.043
38117W        W 4658  25.216  44.325   4.622
38118W        W 4659  18.704  10.744  14.962
38119W        W 4660  25.972  28.642   4.089
38120W        W 4661  23.752  17.036   1.409
38121W        W 4662  27.015  43.796   2.815
38122W        W 4663   4.325   6.589  11.324
38123W        W 4664  35.922  14.310   4.099
38124W        W 4665   6.344   6.341  13.267
38125W        W 4666  34.592  37.038   1.392
38126W        W 4667  36.891  29.187   1.492
38127W        W 4668  33.495  16.400   4.280
38128W        W 4669  12.680  31.139   2.821
38129W        W 4670  20.126   3.913   2.706
38130W        W 4671  17.725  17.614   0.853
38131W        W 4672   9.900  23.233   1.768
38132W        W 4673  16.119  19.308  12.578
38133W        W 4674   0.240  33.607   3.005
38134W        W 4675  31.668  24.617  10.538
38135W        W 4676  10.958   6.102   0.288
38136W        W 4677  20.430   4.766   0.645
38137W        W 4678  32.087  16.558   4.615
38138W        W 4679  10.733  43.575  13.700
38139W        W 4680  33.127  32.681  11.348
38140W        W 4681  13.149  20.137   2.895
38141W        W 4682   0.584  35.797  10.616
38142W        W 4683   5.530  36.154  11.996
38143W        W 4684  28.456  27.601  13.375
38144W        W 4685  19.262  42.912   0.895
38145W        W 4686  31.366  33.546  14.952
38146W        W 4687  13.248   4.711  11.625
38147W        W 4688  43.184   3.087   4.143
38148W        W 4689   2.828  40.723  13.113
38149W        W 4690   3.244  26.281   4.931
38150W        W 4691  44.908  13.956   1.285
38151W        W 4692   5.831  43.169  11.894
38152W        W 4693  43.448  36.743  11.511
38153W        W 4694  12.735  19.812   2.762
38154W        W 4695  33.335  39.061  14.124
38155W        W 4696  26.902  20.234   1.799
38156W        W 4697  35.512  25.826  14.794
38157W        W 4698  10.867  30.659  11.149
38158W        W 4699  31.428  32.325   2.673
38159W        W 4700  28.038  21.120  13.885
38160W        W 4701  10.227  24.733   3.660
38161W        W 4702  41.735   4.304   0.217
38162W        W 4703  43.388   0.999  12.579
38163W        W 4704   7.580  11.189   4.927
38164W        W 4705  35.412   9.472   1.000
38165W        W 4706  12.164   7.693   0.348
38166W        W 4707   3.769  26.663   2.833
38167W        W 4708  26.521   3.855  12.969
38168W        W 4709  32.041   2.652   1.912
38169W        W 4710  31.228  14.892   2.368
38170W        W 4711  34.078   8.314  12.748
38171W        W 4712  18.761  12.654  13.939
38172W        W 4713  28.580  22.764  11.083
38173W        W 4714  39.791  10.783   3.628
38174W        W 4715  24.557  12.796   3.126
38175W        W 4716  21.463  22.154   4.092
38176W        W 4717  19.649  22.402  11.552
38177W        W 4718   1.325  40.558  14.052
38178W        W 4719  41.464  25.467  12.769
38179W        W 4720  36.837   2.824   3.820
38180W        W 4721  22.906  44.243  10.394
38181W        W 4722  42.445  23.490   3.810
38182W        W 4723  19.233  19.749  14.856
38183W        W 4724  21.750   2.379  14.256
38184W        W 4725  15.977  33.913  13.037
38185W        W 4726  35.808  26.110   0.190
38186W        W 4727  25.163   5.654  14.467
38187W        W 4728  10.268  30.490   0.370
38188W        W 4729  19.582  32.099  11.072
38189W        W 4730  20.725  16.119   2.758
38190W        W 4731  23.113   7.754  13.875
38191W        W 4732  14.201  34.962   2.216
38192W        W 4733   9.332   2.134   4.265
38193W        W 4734   5.281  29.068   3.380
38194W        W 4735  26.364  36.912  14.984
38195W        W 4736  13.773  20.151   2.225
38196W        W 4737  14.250  30.690  12.633
38197W        W 4738  34.677  39.910  11.612
38198W        W 4739  29.086  14.404  11.167
38199W        W 4740  19.242  18.110  13.894
38200W        W 4741  43.779  19.576   4.585
38201W        W 4742  42.065  34.835   4.553
38202W        W 4743  33.803  28.441   1.431
38203W        W 4744  34.055   2.707   3.528
38204W        W 4745  20.285   3.021   0.715
38205W        W 4746  42.698  43.040  11.159
38206W        W 4747  33.920   5.957  13.063
38207W        W 4748  27.936   7.712  11.573
38208W        W 4749  17.443  39.606   4.552
38209W        W 4750  39.208  39.518  11.553
38210W        W 4751  31.654  42.767   0.942
38211W        W 4752  32.982  35.635   3.808
38212W        W 4753  38.591   4.413  11.173
38213W        W 4754  35.113  10.798   0.780
38214W        W 4755  29.995  43.091   3.417
38215W        W 4756  37.094   1.462  14.910
38216W        W 4757  27.165  36.135  14.358
38217W        W 4758  44.695   2.841   4.134
38218W        W 4759   2.222  37.573  12.507
38219W        W 4760  40.328   0.780  10.870
38220W        W 4761  10.401  40.534  12.572
38221W        W 4762  44.894  18.207  12.777
38222W        W 4763   8.703  14.469   4.008
38223W        W 4764  33.706  21.551  13.821
38224W        W 4765  29.039  21.924   4.042
38225W        W 4766  42.524   8.996  12.662
38226W        W 4767  22.081   3.912   0.169
38227W        W 4768  32.386   6.338  12.581
38228W        W 4769  37.578  21.114   0.971
38229W        W 4770  36.554  44.278  11.861
38230W        W 4771  41.759  26.880   2.923
38231W        W 4772   7.650   4.476   4.404
38232W        W 4773  24.575  31.712   3.378
38233W        W 4774  12.285   2.505  14.600
38234W        W 4775   9.269   5.921   2.797
38235W        W 4776   3.674   3.627  14.321
38236W        W 4777  23.784  38.131  12.151
38237W        W 4778  12.403  37.027   1.685
38238W        W 4779  14.814   2.586  11.861
38239W        W 4780  28.394   2.224   4.088
38240W        W 4781  38.874  41.409   1.476
38241W        W 4782   2.247  44.929   0.907
38242W        W 4783  17.338  19.002  12.582
38243W        W 4784  30.176  31.954   2.304
38244W        W 4785   9.078  18.160   4.229
38245W        W 4786  41.439  21.228   1.526
38246W        W 4787  38.943  14.893   4.627
38247W        W 4788  25.170  44.623  11.035
38248W        W 4789  28.313   6.582   0.194
38249W        W 4790  21.230  16.929  14.433
38250W        W 4791  44.429  19.218   2.243
38251W        W 4792  42.929   7.660  11.226
38252W        W 4793   6.679  29.076  12.978
38253W        W 4794  38.815  14.448  11.054
38254W        W 4795   3.035   1.803   2.633
38255W        W 4796   3.288  22.691  10.845
38256W        W 4797  41.335  18.165  11.355
38257W        W 4798  21.117  34.834   4.154
38258W        W 4799  22.100   9.150   1.205
38259W        W 4800   7.355   1.888   3.327
38260W        W 4801  18.935  41.364   1.364
38261W        W 4802  41.893  37.745   0.304
38262W        W 4803  25.803   9.267  14.121
38263W        W 4804  39.827   8.112  14.820
38264W        W 4805  41.619   9.289   1.766
38265W        W 4806  24.571  39.792   0.258
38266W        W 4807  30.333  22.098  14.780
38267W        W 4808   5.106  43.336   3.614
38268W        W 4809  15.268  19.777  13.871
38269W        W 4810  44.057  18.146   2.151
38270W        W 4811  32.404   9.172   3.349
38271W        W 4812   7.739   8.196   4.848
38272W        W 4813   9.083  27.654   4.775
38273W        W 4814   0.564  42.770  14.961
38274W        W 4815  40.516   4.850   0.240
38275W        W 4816   9.558  11.030   3.703
38276W        W 4817  38.746  10.673   0.862
38277W        W 4818  31.176  37.085  14.596
38278W        W 4819  26.423   8.299   1.745
38279W        W 4820  20.295  15.666  12.085
38280W        W 4821   5.850  19.644   3.205
38281W        W 4822   0.467  16.099  11.716
38282W        W 4823  29.880  15.250  11.394
38283W        W 4824   8.204  16.288   0.762
38284W        W 4825  26.186  43.597   2.155
38285W        W 4826  15.296  33.972   3.240
38286W        W 4827  41.364  25.860   4.968
38287W        W 4828  38.367   7.227   0.048
38288W        W 4829   3.250  10.760  11.655
38289W        W 4830  35.640  15.337  10.947
38290W        W 4831   2.265   3.878   2.681
38291W        W 4832  14.809   2.678   3.442
38292W        W 4833   9.991  18.098   3.929
38293W        W 4834  26.162  10.662   4.405
38294W        W 4835  18.686  30.696  12.579
38295W        W 4836  14.971   9.330   4.556
38296W        W 4837  28.515  15.910   3.203
38297W        W 4838   5.862  22.282  14.866
38298W        W 4839   6.219  32.111  12.665
38299W        W 4840  44.831  25.152   3.182
38300W        W 4841  39.426  15.493  11.499
38301W        W 4842   1.903  28.977  10.104
38302W        W 4843  16.733  33.604   4.204
38303W        W 4844  11.777   6.848   4.532
38304W        W 4845  36.359  34.920  11.651
38305W        W 4846   9.936   5.630  11.978
38306W        W 4847  13.788  29.351   2.311
38307W        W 4848  33.589  17.747   0.371
38308W        W 4849  32.347  14.281  12.402
38309W        W 4850  26.500   1.765  14.854
38310W        W 4851  16.104  44.829  13.626
38311W        W 4852  17.534  20.939  13.279
38312W        W 4853  34.557   6.387   2.569
38313W        W 4854   4.346  10.430  14.060
38314W        W 4855   6.452  15.414   2.233
38315W        W 4856  39.457   1.223  10.597
38316W        W 4857  30.343  39.541   1.862
38317W        W 4858  20.079  21.683  14.796
38318W        W 4859  41.760   5.053   2.689
38319W        W 4860  11.113  13.893   4.507
38320W        W 4861  20.656   6.764  14.777
38321W        W 4862  10.516  16.492   2.719
38322W        W 4863   0.204  38.876   0.802
38323W        W 4864  39.300   1.878  12.609
38324W        W 4865  16.598   9.305  12.553
38325W        W 4866  21.990  26.163  12.467
38326W        W 4867  40.010  41.512  14.367
38327W        W 4868   6.351   6.376   0.117
38328W        W 4869  34.478  39.079   1.887
38329W        W 4870  35.515  11.630  11.799
38330W        W 4871  18.353  20.075   4.045
38331W        W 4872  33.576   0.999  11.898
38332W        W 4873  22.564   3.981   1.778
38333W        W 4874   2.922  38.385  14.801
38334W        W 4875  22.122  14.870  13.578
38335W        W 4876   8.307  24.551  14.458
38336W        W 4877  38.455  40.870  10.985
38337W        W 4878   2.721  22.713  12.070
38338W        W 4879  26.977  18.743   1.144
38339W        W 4880  15.468  35.466   2.238
38340W        W 4881  11.582  20.751  12.055
38341W        W 4882  38.231   1.998   0.770
38342W        W 4883  22.703  13.254  14.011
38343W        W 4884  19.861  11.679   0.273
38344W        W 4885   4.881  39.817   3.370
38345W        W 4886   9.382  31.580  13.898
38346W        W 4887  20.083  37.847   3.726
38347W        W 4888  12.464  42.360  13.890
38348W        W 4889   9.142  16.120   2.103
38349W        W 4890   2.439  44.227   4.060
38350W        W 4891  29.946   9.107   1.804
38351W        W 4892  21.415   2.019  13.492
38352W        W 4893   3.017  31.943   0.270
38353W        W 4894  43.913  23.709  11.589
38354W        W 4895  40.352   2.697  11.647
38355W        W 4896   7.912  23.745  14.327
38356W        W 4897  34.249  31.772  10.961
38357W        W 4898  38.856  40.597   1.990
38358W        W 4899  38.657  16.747  14.273
38359W        W 4900   0.788  41.309  14.505
38360W        W 4901  29.119   5.750   4.811
38361W        W 4902  36.805  20.120  11.696
38362W        W 4903  30.864  42.816   0.405
38363W        W 4904  30.210   7.839   1.660
38364W        W 4905  39.958   1.414  10.605
38365W        W 4906   3.193   4.284  14.965
38366W        W 4907  32.537  37.596   1.376
38367W        W 4908  21.505  28.496   4.596
38368W        W 4909  38.087  38.883   2.696
38369W        W 4910  37.455  21.982   2.572
38370W        W 4911  15.878  19.081   4.107
38371W        W 4912   0.279  11.247   3.588
38372W        W 4913  40.881  18.658  11.501
38373W        W 4914   3.398  39.187  12.544
38374W        W 4915  31.162  20.210   3.164
38375W        W 4916  10.185   4.459   0.512
38376W        W 4917  33.981  10.810   3.788
38377W        W 4918  10.088   8.259   2.825
38378W        W 4919  23.505  22.104   0.240
38379W        W 4920  29.906   9.504  14.861
38380W        W 4921  25.786  40.525  11.701
38381W        W 4922  16.234  17.256   0.110
38382W        W 4923  44.460  12.285  13.481
38383W        W 4924  29.030  24.718   0.079
38384W        W 4925   3.625   9.226   3.676
38385W        W 4926  38.829  41.764  11.735
38386W        W 4927  15.223  38.670  13.255
38387W        W 4928  19.094  43.576  12.478
38388W        W 4929  25.048   7.480   4.601
38389W        W 4930  33.476  10.790   3.738
38390W        W 4931   1.176  31.940  13.870
38391W        W 4932  25.724   2.891   4.269
38392W        W 4933  32.103   0.396  12.659
38393W        W 4934  26.364  33.596  12.442
38394W        W 4935  38.019  41.841   4.132
38395W        W 4936   7.991  39.027  13.779
38396W        W 4937   7.141  32.090  10.763
38397W        W 4938  16.974  33.586   4.666
38398W        W 4939  43.791  21.128   0.211
38399W        W 4940  27.459  34.951  14.968
38400W        W 4941   7.864   4.440  11.500
38401W        W 4942  23.700  34.666   4.690
38402W        W 4943  43.999  17.351   3.633
38403W        W 4944  39.461  20.207  10.999
38404W        W 4945  36.035  18.923  11.073
38405W        W 4946  24.208  22.334  12.356
38406W        W 4947  23.583  10.390   2.357
38407W        W 4948  28.613  25.876   0.452
38408W        W 4949   4.283  44.577   3.915
38409W        W 4950   8.121   8.233   4.515
38410W        W 4951  15.149   4.813  10.680
38411W        W 4952  38.841  20.657   1.306
38412W        W 4953  30.435  42.066   4.088
38413W        W 4954  19.526  44.539   2.688
38414W        W 4955  25.688  36.481   2.249
38415W        W 4956   1.795  17.610   4.141
38416W        W 4957  24.208  30.907   0.092
38417W        W 4958  31.434  24.092  11.217
38418W        W 4959  37.289  30.588   2.452
38419W        W 4960  35.947  12.955   2.098
38420W        W 4961  16.339  25.775   4.083
38421W        W 4962   1.787  13.320   2.699
38422W        W 4963  10.567  24.159   1.588
38423W        W 4964  25.646  31.597  11.556
38424W        W 4965  35.336  33.267  11.499
38425W        W 4966  20.606  39.323  11.913
38426W        W 4967   3.771  21.849   5.004
38427W        W 4968  18.658   2.336   4.367
38428W        W 4969  14.309  28.499   0.685
38429W        W 4970  17.344  20.227  12.949
38430W        W 4971  35.478  17.604  11.433
38431W        W 4972  21.518  39.394  14.222
38432W        W 4973  18.322   0.480   4.192
38433W        W 4974   0.437  37.532   1.084
38434W        W 4975   0.277  33.082   3.138
38435W        W 4976  29.877   5.300   0.744
38436W        W 4977  12.225  11.804   2.318
38437W        W 4978  29.205   1.649  13.381
38438W        W 4979  38.395  35.790   3.659
38439W        W 4980  40.359  41.113   3.665
38440W        W 4981   6.237  27.160  12.993
38441W        W 4982  18.174  16.378   4.542
38442W        W 4983  27.725   3.952  14.476
38443W        W 4984  38.608   1.859  14.831
38444W        W 4985  20.924  44.920  12.452
38445W        W 4986  13.265  34.237   4.226
38446W        W 4987  34.352  22.817  12.590
38447W        W 4988  15.251   8.653   5.279
38448W        W 4989  41.251   5.187   1.893
38449W        W 4990   5.387  26.912  14.934
38450W        W 4991   9.570  35.837   4.313
38451W        W 4992  36.543  25.641  14.673
38452W        W 4993  22.251   5.946   1.133
38453W        W 4994   1.254  11.852   3.170
38454W        W 4995  34.519  26.496   4.060
38455W        W 4996  39.835   7.601  14.933
38456W        W 4997  37.820   8.247  12.178
38457W        W 4998  26.112  38.933   2.351
38458W        W 4999  29.513  13.225   0.374
38459W        W 5000   1.581  30.050  12.892
38460W        W 5001  12.662  10.226   2.807
38461W        W 5002  35.270  43.749  13.889
38462W        W 5003  17.309  44.680  13.457
38463W        W 5004  20.417  21.256  11.461
38464W        W 5005  44.214  39.115  13.514
38465W        W 5006  16.652  41.251  12.412
38466W        W 5007   4.217  30.623  13.384
38467W        W 5008  32.921  24.595  12.508
38468W        W 5009  15.103  33.739  13.850
38469W        W 5010  23.229  10.717  11.562
38470W        W 5011  32.663  10.706   0.273
38471W        W 5012   7.261   6.345  13.771
38472W        W 5013   9.798  20.687   0.382
38473W        W 5014  37.813   4.522  12.680
38474W        W 5015  28.106  42.780   5.100
38475W        W 5016  33.657  37.996   1.907
38476W        W 5017   6.970  27.637  13.801
38477W        W 5018   6.527  44.723   3.680
38478W        W 5019  20.649   8.381   4.150
38479W        W 5020  19.713  42.905   3.303
38480W        W 5021  25.137  16.036  14.344
38481W        W 5022  33.100  25.182  13.468
38482W        W 5023  29.713  32.084  14.281
38483W        W 5024  28.389   8.205   0.969
38484W        W 5025  20.748  27.303   3.863
38485W        W 5026  33.551   2.062  14.205
38486W        W 5027  41.780  32.381   0.720
38487W        W 5028  14.834  10.742   4.118
38488W        W 5029  14.910  19.214   3.184
38489W        W 5030  15.638  24.393   1.797
38490W        W 5031  41.403  20.137   2.784
38491W        W 5032  35.531  16.311   0.401
38492W        W 5033  10.620  25.476   1.906
38493W        W 5034   8.449  27.116  11.190
38494W        W 5035  27.768  34.662   4.147
38495W        W 5036  43.758  35.169  11.972
38496W        W 5037   5.277  38.888  11.061
38497W        W 5038  16.728  25.986   3.839
38498W        W 5039  15.035  31.412  13.829
38499W        W 5040  20.071   5.506   2.697
38500W        W 5041  37.301  30.273   4.603
38501W        W 5042  10.836  29.532  11.455
38502W        W 5043  16.148  23.948   3.242
38503W        W 5044  44.289  35.085  12.051
38504W        W 5045   4.794  38.982  13.097
38505W        W 5046  24.590   4.855   3.156
38506W        W 5047   3.931  17.063   2.865
38507W        W 5048  11.370  24.425  11.054
38508W        W 5049  13.132  21.498   1.615
38509W        W 5050  10.666   0.780  12.973
38510W        W 5051  30.426   9.059  12.072
38511W        W 5052   7.637  43.573   3.233
38512W        W 5053   9.837  26.534  13.118
38513W        W 5054  16.220  40.456   3.803
38514W        W 5055  43.102  21.543  13.802
38515W        W 5056  38.894  32.568   1.392
38516W        W 5057   5.880  23.798   0.374
38517W        W 5058  22.152   0.737   1.657
38518W        W 5059   9.741  18.160  14.936
38519W        W 5060  41.818   7.808  13.881
38520W        W 5061  11.844  30.928  13.272
38521W        W 5062  32.507  40.901   0.480
38522W        W 5063   7.212  35.888  14.927
38523W        W 5064   8.950  32.552   0.875
38524W        W 5065   8.440  42.432   2.212
38525W        W 5066  15.170  16.053   4.607
38526W        W 5067  41.439   7.702  13.531
38527W        W 5068  42.874  17.576   1.413
38528W        W 5069  18.358   5.486   4.579
38529W        W 5070   4.289  31.549  14.437
38530W        W 5071  17.631  41.097  13.387
38531W        W 5072  41.962  28.932  14.007
38532W        W 5073  17.011  41.283   3.593
38533W        W 5074  22.102   9.304  12.782
38534W        W 5075  11.712  22.208  13.728
38535W        W 5076  24.009  41.103  12.075
38536W        W 5077  15.092  11.691  13.274
38537W        W 5078  34.885  39.801  13.548
38538W        W 5079   6.653  10.121   0.250
38539W        W 5080  13.349  13.558  14.438
38540W        W 5081  19.800  40.733  12.538
38541W        W 5082  28.104  10.336   0.010
38542W        W 5083  36.812  17.569   0.330
38543W        W 5084  15.178  24.724   0.307
38544W        W 5085  10.126  34.935  14.894
38545W        W 5086  25.458  23.315  14.297
38546W        W 5087  25.138  21.530  10.454
38547W        W 5088  35.563  25.583  10.474
38548W        W 5089  12.179  26.594   0.709
38549W        W 5090  10.147  23.684   1.869
38550W        W 5091  37.349  39.063  12.977
38551W        W 5092  23.686  44.492   0.413
38552W        W 5093  12.883   8.049  13.908
38553W        W 5094  24.604  29.936   2.655
38554W        W 5095  19.588  13.241   1.381
38555W        W 5096  21.926  32.453   2.838
38556W        W 5097  41.356   5.207   4.232
38557W        W 5098  24.216  15.762   2.808
38558W        W 5099   7.773  35.839  13.848
38559W        W 5100  18.474   2.148  12.526
38560W        W 5101  38.221  18.897  11.582
38561W        W 5102   7.709  28.840   0.800
38562W        W 5103  44.900  32.110  13.353
38563W        W 5104  17.844  38.446   2.623
38564W        W 5105  43.075  35.644   2.415
38565W        W 5106  21.721  35.908   2.844
38566W        W 5107  10.384  17.743  11.017
38567W        W 5108  38.837  17.389   2.588
38568W        W 5109  16.096  19.753  11.386
38569W        W 5110   2.366   0.399  11.036
38570W        W 5111  24.663   7.107   0.942
38571W        W 5112  14.086  38.755  11.614
38572W        W 5113  30.006  21.241  12.078
38573W        W 5114  16.438   3.865  11.543
38574W        W 5115  18.104  34.096  12.086
38575W        W 5116  29.633   6.225   0.341
38576W        W 5117  15.667  38.971  11.221
38577W        W 5118  26.852  21.713   3.354
38578W        W 5119  32.005  28.232   4.038
38579W        W 5120  41.537  24.908   1.464
38580W        W 5121   5.035  12.953  14.469
38581W        W 5122   4.406  11.999  13.393
38582W        W 5123  37.121  37.993   1.744
38583W        W 5124  43.465  40.356  12.394
38584W        W 5125  16.031  38.924   2.295
38585W        W 5126  11.409  29.715   4.037
38586W        W 5127  21.063  42.352   2.953
38587W        W 5128  26.044  17.812   0.296
38588W        W 5129   1.550   0.750  13.029
38589W        W 5130  33.349  30.560  14.858
38590W        W 5131  30.925  36.882   2.287
38591W        W 5132  36.892  31.034  10.784
38592W        W 5133  15.648   8.933  11.096
38593W        W 5134  31.523  40.824  11.661
38594W        W 5135  18.384  16.710  13.967
38595W        W 5136  35.297  37.694   1.306
38596W        W 5137  16.517  13.597   1.252
38597W        W 5138  27.803  28.904  12.929
38598W        W 5139  34.187  14.099   1.396
38599W        W 5140   6.230   1.731  14.821
38600W        W 5141   5.902   5.119  11.111
38601W        W 5142  10.673  42.523   1.151
38602W        W 5143  37.609  14.226  10.458
38603W        W 5144  18.255  40.795  12.918
38604W        W 5145  12.360   9.675   4.074
38605W        W 5146   7.617  10.976  11.630
38606W        W 5147  19.800  34.429  13.749
38607W        W 5148   8.369   6.821   2.884
38608W        W 5149  39.948  18.313   0.874
38609W        W 5150  37.702   2.882   4.427
38610W        W 5151   9.155  34.073  14.419
38611W        W 5152  10.684  10.247  12.225
38612W        W 5153   0.504   3.986  12.523
38613W        W 5154   8.129  15.840   4.643
38614W        W 5155  29.797   9.175   4.419
38615W        W 5156  40.391  24.995   2.107
38616W        W 5157   8.460  14.301   1.786
38617W        W 5158  31.224  32.415   3.569
38618W        W 5159  24.500  38.505   4.649
38619W        W 5160  10.568  39.062  10.268
38620W        W 5161  12.617  29.201  13.965
38621W        W 5162  39.401   4.957   1.848
38622W        W 5163  41.843  31.014   3.733
38623W        W 5164  37.866  20.620  12.028
38624W        W 5165   5.402   9.347   2.206
38625W        W 5166  18.912   7.398  13.962
38626W        W 5167   7.203  30.926   1.408
38627W        W 5168   8.871  23.417  14.482
38628W        W 5169  41.813  19.408  11.663
38629W        W 5170  42.714  36.357   4.085
38630W        W 5171  38.522  20.813  13.004
38631W        W 5172  10.442   2.512  10.478
38632W        W 5173  30.045  13.735  12.206
38633W        W 5174  43.417   7.175   2.893
38634W        W 5175   9.416  37.788   1.318
38635W        W 5176  21.663  15.539  14.926
38636W        W 5177  17.176  29.984   2.235
38637W        W 5178  35.543   1.960   9.922
38638W        W 5179  35.514   1.340  12.284
38639W        W 5180   4.188  22.987   2.313
38640W        W 5181  35.541  43.241   4.533
38641W        W 5182  15.299  16.050   3.710
38642W        W 5183  33.554  38.140  13.066
38643W        W 5184  11.181  34.974   1.306
38644W        W 5185   0.754  22.546   3.255
38645W        W 5186   7.702  43.409  14.381
38646W        W 5187   6.382  32.459  14.673
38647W        W 5188   9.844  25.274   3.275
38648W        W 5189  18.777   0.500   1.745
38649W        W 5190   2.231  14.763   3.716
38650W        W 5191  44.738   7.654   4.146
38651W        W 5192  11.602  26.617   3.186
38652W        W 5193  42.074  13.312  13.469
38653W        W 5194   8.126  41.553  12.376
38654W        W 5195  20.336  28.757  11.155
38655W        W 5196  41.446   9.532   3.649
38656W        W 5197  16.093  27.834  14.361
38657W        W 5198   9.767  36.985   2.375
38658W        W 5199  35.005  23.595  12.184
38659W        W 5200   5.837  16.718  12.988
38660W        W 5201  19.482   6.484   2.374
38661W        W 5202  20.097  27.827   3.686
38662W        W 5203  13.260  39.206  10.271
38663W        W 5204  26.264  17.283   3.168
38664W        W 5205  12.883   3.654   4.220
38665W        W 5206  30.375  21.640  10.782
38666W        W 5207   9.850  18.669  14.132
38667W        W 5208  23.087  30.638  10.399
38668W        W 5209  29.656  19.162   1.818
38669W        W 5210  12.844  30.651   2.864
38670W        W 5211  26.743   6.482  12.502
38671W        W 5212  30.590   4.774  14.879
38672W        W 5213  23.685   7.361   2.930
38673W        W 5214  15.715  16.499  14.063
38674W        W 5215  26.456   8.308   4.725
38675W        W 5216  31.616  35.818   1.977
38676W        W 5217   2.058  24.729  13.799
38677W        W 5218  21.503   6.783   3.906
38678W        W 5219   5.331  39.344  11.277
38679W        W 5220   1.254  26.500  14.413
38680W        W 5221   1.700   5.170   0.125
38681W        W 5222  26.658   6.608  11.118
38682W        W 5223  35.580  17.264   2.035
38683W        W 5224   0.295  24.081   3.530
38684W        W 5225  23.114  40.005  12.504
38685W        W 5226  24.253  39.317   1.831
38686W        W 5227  16.350  37.072   0.650
38687W        W 5228  14.745  13.527   4.180
38688W        W 5229  40.296   3.809  13.590
38689W        W 5230  10.132  10.513  13.530
38690W        W 5231  20.971  40.989  13.502
38691W        W 5232   8.571  44.520   3.258
38692W        W 5233  17.227  23.050   3.569
38693W        W 5234  10.699  13.720  13.954
38694W        W 5235  42.979  38.577   1.438
38695W        W 5236  35.031   3.926   3.118
38696W        W 5237  36.290  36.870  14.853
38697W        W 5238  20.615  42.452  12.158
38698W        W 5239  37.185  28.427   3.092
38699W        W 5240  23.870  15.637   1.394
38700W        W 5241   6.816  18.050  14.081
38701W        W 5242  25.297  19.379  11.118
38702W        W 5243  20.817  18.635  12.836
38703W        W 5244  12.304  33.783   4.119
38704W        W 5245  41.944  10.121   4.164
38705W        W 5246  12.560  33.330   0.246
38706W        W 5247  16.918  29.154   3.691
38707W        W 5248  28.061  25.522   2.312
38708W        W 5249  34.131  15.142  10.579
38709W        W 5250  39.446  27.751  11.591
38710W        W 5251  27.894  31.678  12.646
38711W        W 5252  25.963  16.874   3.263
38712W        W 5253  22.078  33.028  14.426
38713W        W 5254   9.559  18.220  14.076
38714W        W 5255   1.967  32.687   4.412
38715W        W 5256  22.701   9.740   1.696
38716W        W 5257  36.774   2.519   3.188
38717W        W 5258  27.744  14.826  13.935
38718W        W 5259   0.654  36.537   4.718
38719W        W 5260  31.511   5.973   1.237
38720W        W 5261  27.169  31.671   3.728
38721W        W 5262  30.969  11.711  12.529
38722W        W 5263  23.247  27.158  13.619
38723W        W 5264   2.788  43.221   2.363
38724W        W 5265  34.685  34.018  12.632
38725W        W 5266  23.875  16.785  12.954
38726W        W 5267  37.528   7.675  10.758
38727W        W 5268  43.549  25.945   1.287
38728W        W 5269   7.470   3.334  14.931
38729W        W 5270  29.092   3.156  13.284
38730W        W 5271  25.497  37.558   1.726
38731W        W 5272  36.086  27.735   3.423
38732W        W 5273  21.016  44.278   0.505
38733W        W 5274  14.605  23.235   4.102
38734W        W 5275  43.532  26.092  11.130
38735W        W 5276  15.156  33.523  10.572
38736W        W 5277  12.880  17.054  14.640
38737W        W 5278  40.346  44.466  11.459
38738W        W 5279   1.716   5.483   4.551
38739W        W 5280   0.642   6.469   3.613
38740W        W 5281  42.314  26.092  11.741
38741W        W 5282  36.590  15.655  12.909
38742W        W 5283   8.615  28.994   2.197
38743W        W 5284   4.281   7.325  12.401
38744W        W 5285  11.585   5.922  12.623
38745W        W 5286  37.128   2.888  14.842
38746W        W 5287  17.541  25.694  11.990
38747W        W 5288  25.596  20.664   4.255
38748W        W 5289   2.506   0.230  13.498
38749W        W 5290   4.144  41.552  14.768
38750W        W 5291  40.430  33.958   0.234
38751W        W 5292  18.564  33.563   1.687
38752W        W 5293  36.400  41.507   2.252
38753W        W 5294   1.572  10.624   2.884
38754W        W 5295  40.526  20.321   2.200
38755W        W 5296  26.869  34.023   5.068
38756W        W 5297  10.409  44.867   4.605
38757W        W 5298  27.932   8.165   1.191
38758W        W 5299  10.393  41.825   0.034
38759W        W 5300  20.717  21.676   2.988
38760W        W 5301  40.443  34.434   4.138
38761W        W 5302  28.908  23.450  11.626
38762W        W 5303  18.952  41.924   3.670
38763W        W 5304  36.417  12.336  13.526
38764W        W 5305  32.438   4.158   0.090
38765W        W 5306  33.864  12.302   3.413
38766W        W 5307  20.250  37.058   1.844
38767W        W 5308   4.384  30.496  14.930
38768W        W 5309  15.362  41.417  10.597
38769W        W 5310  10.272  10.262   1.153
38770W        W 5311  18.114  11.279   4.052
38771W        W 5312  27.455   3.786   0.433
38772W        W 5313   4.070   8.700  13.347
38773W        W 5314   7.680   2.827  14.402
38774W        W 5315  28.918  28.139   1.977
38775W        W 5316  24.386  21.225   1.324
38776W        W 5317  28.923  42.924  13.407
38777W        W 5318   8.165   3.933   1.822
38778W        W 5319  21.957  26.520   3.217
38779W        W 5320  40.891  41.845   4.711
38780W        W 5321   8.294  33.126  12.942
38781W        W 5322   8.129  42.244   3.222
38782W        W 5323  13.168  21.321  14.220
38783W        W 5324   5.753  26.734  10.843
38784W        W 5325  22.622  29.029   0.581
38785W        W 5326   5.677  28.726   3.617
38786W        W 5327  12.328  24.943  12.410
38787W        W 5328  20.529  16.216  13.016
38788W        W 5329  33.335  37.990  12.629
38789W        W 5330  35.527  44.666  13.937
38790W        W 5331   5.917  19.780  11.427
38791W        W 5332  25.907  31.163  11.945
38792W        W 5333  20.122   5.722  13.830
38793W        W 5334  36.038   1.672   1.781
38794W        W 5335  13.812  30.468   0.741
38795W        W 5336  40.589  16.349  12.630
38796W        W 5337   9.380  34.086   2.746
38797W        W 5338   0.760  34.803  10.976
38798W        W 5339   5.885  13.297  12.045
38799W        W 5340  38.070  18.105  13.244
38800W        W 5341   9.798   3.904   2.324
38801W        W 5342   6.790  31.756   4.245
38802W        W 5343  44.762  34.369   4.112
38803W        W 5344   9.683  26.700   4.214
38804W        W 5345  24.523   7.597  11.775
38805W        W 5346   9.456  31.243  12.174
38806W        W 5347  18.486  32.586  13.971
38807W        W 5348  35.746  34.555  13.452
38808W        W 5349  31.958  39.963  10.665
38809W        W 5350  26.855  32.731   1.547
38810W        W 5351  28.166  30.621  10.706
38811W        W 5352  35.024  43.256  10.730
38812W        W 5353  32.534  28.587  13.478
38813W        W 5354  17.115  30.675  13.553
38814W        W 5355  22.191  33.859   3.254
38815W        W 5356  43.255   5.773   2.770
38816W        W 5357   0.550   9.911  11.637
38817W        W 5358  19.481  41.223   2.258
38818W        W 5359   0.892  35.620  11.215
38819W        W 5360  11.126  34.019   3.252
38820W        W 5361  29.726  27.054   2.375
38821W        W 5362  16.411  18.077  14.081
38822W        W 5363   4.593  11.304   3.556
38823W        W 5364   9.644   3.145  13.560
38824W        W 5365  36.700  37.221  12.469
38825W        W 5366  37.932  43.292   0.987
38826W        W 5367   9.055  44.363  12.454
38827W        W 5368  39.854  16.458  14.961
38828W        W 5369   6.892  23.785  10.751
38829W        W 5370  16.812  38.180  12.994
38830W        W 5371  24.933   8.661  13.006
38831W        W 5372  27.591  42.006   0.841
38832W        W 5373   1.766  40.835  12.952
38833W        W 5374  36.918  27.182  14.837
38834W        W 5375  11.343  16.297  11.210
38835W        W 5376  38.561  22.198  10.854
38836W        W 5377  25.600  30.165   2.368
38837W        W 5378   5.967  27.052   1.839
38838W        W 5379  37.483  16.270   1.270
38839W        W 5380  39.552  25.687   0.825
38840W        W 5381  19.194  29.977  14.222
38841W        W 5382  14.826  12.642   3.660
38842W        W 5383  22.714  30.543  13.823
38843W        W 5384  23.777  40.365  14.041
38844W        W 5385  31.853  29.983   1.430
38845W        W 5386   5.847  26.657   2.333
38846W        W 5387  19.074  25.173  14.093
38847W        W 5388  33.491   5.691  12.150
38848W        W 5389  39.147  26.961   1.242
38849W        W 5390  18.593  21.945   2.787
38850W        W 5391  28.805  24.195  13.569
38851W        W 5392  37.295   7.933   0.822
38852W        W 5393  17.335  37.821  12.592
38853W        W 5394   2.606   4.329  14.056
38854W        W 5395  23.889  12.856   0.922
38855W        W 5396  43.645  37.449   4.328
38856W        W 5397  22.319  22.478   4.510
38857W        W 5398  32.509   6.801   4.347
38858W        W 5399  15.584  16.530   1.747
38859W        W 5400  29.342  26.011  11.040
38860W        W 5401   6.170  15.594   2.876
38861W        W 5402  27.912  29.411   3.667
38862W        W 5403  32.023   1.868  13.483
38863W        W 5404  39.423  39.374  12.432
38864W        W 5405  10.100   0.373  14.203
38865W        W 5406  26.627   7.472   4.026
38866W        W 5407  34.461  42.563  12.994
38867W        W 5408  15.716   2.250   2.389
38868W        W 5409   1.332  15.317   3.217
38869W        W 5410  38.895  39.492   3.598
38870W        W 5411  19.095  24.241  11.637
38871W        W 5412  28.059  12.637  10.526
38872W        W 5413   8.779  24.046   1.068
38873W        W 5414  19.882  26.744   4.387
38874W        W 5415   5.433  21.057   2.377
38875W        W 5416   6.418  29.683   2.772
38876W        W 5417  13.237   4.395   4.160
38877W        W 5418  31.103  12.191  11.417
38878W        W 5419  13.907   3.781  12.277
38879W        W 5420   3.943  38.438  14.557
38880W        W 5421  32.349  10.463  11.174
38881W        W 5422  17.068  22.809   2.235
38882W        W 5423   5.616  18.703  12.637
38883W        W 5424   0.424   8.837   3.134
38884W        W 5425  39.071  11.069   0.749
38885W        W 5426  28.757  27.566  12.946
38886W        W 5427   6.214  10.101  14.268
38887W        W 5428  17.655  14.728   3.205
38888W        W 5429   3.526  41.278  11.585
38889W        W 5430  33.023   5.567  12.360
38890W        W 5431  17.323  38.762   2.698
38891W        W 5432  41.906   5.557  14.687
38892W        W 5433  31.968  38.322   1.397
38893W        W 5434  28.697  20.582   2.812
38894W        W 5435  22.988  23.459   9.925
38895W        W 5436  40.059   6.619  14.309
38896W        W 5437  18.298   9.741  14.246
38897W        W 5438   4.787  27.946  10.435
38898W        W 5439  44.475  37.574   3.165
38899W        W 5440  19.318  41.612   3.942
38900W        W 5441  23.760  16.588   0.380
38901W        W 5442  24.681  15.615   3.551
38902W        W 5443  15.034  36.389  10.709
38903W        W 5444   9.903   9.101   2.542
38904W        W 5445  11.653  21.794  11.933
38905W        W 5446  37.982   7.369   4.185
38906W        W 5447  42.582   3.914   4.937
38907W        W 5448  39.843  31.859   3.617
38908W        W 5449  20.604   8.259  12.652
38909W        W 5450  39.273  27.897   3.856
38910W        W 5451  14.080   6.379  14.768
38911W        W 5452   7.869  25.920   0.660
38912W        W 5453  36.391  37.440  13.370
38913W        W 5454  30.090  26.492  14.363
38914W        W 5455  11.229   1.780   0.950
38915W        W 5456   9.012  30.232  12.173
38916W        W 5457   2.825   9.899   4.248
38917W        W 5458   1.862  13.886   0.513
38918W        W 5459   1.475  33.929   5.490
38919W        W 5460   0.341  41.372   4.282
38920W        W 5461   0.382  35.977   3.552
38921W        W 5462  42.868  11.405  12.714
38922W        W 5463  43.416  25.754  12.385
38923W        W 5464  32.661  26.498   2.138
38924W        W 5465  42.438  33.181   0.182
38925W        W 5466  31.138   7.917  14.808
38926W        W 5467  33.857  33.334  10.670
38927W        W 5468  25.085  32.834  13.847
38928W        W 5469  36.316   1.512  11.604
38929W        W 5470  33.576   8.991   1.783
38930W        W 5471   4.966  35.500  10.754
38931W        W 5472  12.218  22.218  11.921
38932W        W 5473  10.841  38.019  11.006
38933W        W 5474  23.612   5.736  12.542
38934W        W 5475   0.056   7.240  11.364
38935W        W 5476   7.683  36.165  13.367
38936W        W 5477  12.281  29.531   2.953
38937W        W 5478  41.604  39.447  14.235
38938W        W 5479  22.042   2.711  11.117
38939W        W 5480  38.851   0.727   2.799
38940W        W 5481   3.634  43.949  11.037
38941W        W 5482   9.113   6.921  11.880
38942W        W 5483  21.016  32.525  10.425
38943W        W 5484  19.195  35.147   2.293
38944W        W 5485   1.192   9.841  12.628
38945W        W 5486  21.516  33.932   3.814
38946W        W 5487   4.319  24.710  12.017
38947W        W 5488   1.190  18.052  13.990
38948W        W 5489   8.272  35.479   4.308
38949W        W 5490   3.588  10.787  12.014
38950W        W 5491  32.302  25.283  14.438
38951W        W 5492  22.279   5.263  13.965
38952W        W 5493  22.044  43.305   3.571
38953W        W 5494  16.751  21.139   3.718
38954W        W 5495  44.223   6.706   1.145
38955W        W 5496  43.582   9.099   1.460
38956W        W 5497  40.350  11.344  13.951
38957W        W 5498  36.628  42.124  11.497
38958W        W 5499   9.331   1.198   2.845
38959W        W 5500  34.518  14.067   1.931
38960W        W 5501  40.098  38.784   0.991
38961W        W 5502  18.686  20.339   4.368
38962W        W 5503  23.221  14.187   2.301
38963W        W 5504   5.216   0.877  11.186
38964W        W 5505  20.259   7.770  11.675
38965W        W 5506   0.414  10.416  12.957
38966W        W 5507  18.356   1.510  13.384
38967W        W 5508  37.683   1.011   4.190
38968W        W 5509  44.345  30.080  10.761
38969W        W 5510   5.327  25.790   0.921
38970W        W 5511   3.913  44.292   3.154
38971W        W 5512  19.265  32.783   0.678
38972W        W 5513   1.815  41.812  12.956
38973W        W 5514  32.768  26.977  12.487
38974W        W 5515  12.583  24.626   2.386
38975W        W 5516  14.840  11.920  14.991
38976W        W 5517  24.982  20.719  14.010
38977W        W 5518  36.064  43.946   2.287
38978W        W 5519  30.864   5.089   0.694
38979W        W 5520  38.927  35.030   4.510
38980W        W 5521   3.383  22.204  10.547
38981W        W 5522  28.258  41.021   2.308
38982W        W 5523  11.905  33.937  13.040
38983W        W 5524  39.717  11.769   3.177
38984W        W 5525  23.754  13.883  13.458
38985W        W 5526  29.093  23.042   3.625
38986W        W 5527  14.240   3.642   3.741
38987W        W 5528  25.572  40.765  11.296
38988W        W 5529  14.204  15.001  12.657
38989W        W 5530  42.564  15.690   2.905
38990W        W 5531  19.232  31.586  11.658
38991W        W 5532   1.919  14.658   3.302
38992W        W 5533  16.541   9.906  14.037
38993W        W 5534  21.430   2.975  11.525
38994W        W 5535  13.233  24.511   0.322
38995W        W 5536  24.203  40.591   1.284
38996W        W 5537  42.495   1.352   0.220
38997W        W 5538  27.155  38.098   1.302
38998W        W 5539  34.089  34.350   0.890
38999W        W 5540  40.780  19.050   1.946
39000W        W 5541  29.053  27.591  14.364
39001W        W 5542  27.013  31.228   3.472
39002W        W 5543  29.969  11.638  12.539
39003W        W 5544   0.694  35.656   0.139
39004W        W 5545  40.004  21.169  14.739
39005W        W 5546  30.110  14.867   4.181
39006W        W 5547  13.653   1.717  14.869
39007W        W 5548  28.574  38.655  11.924
39008W        W 5549  30.639  10.203   2.808
39009W        W 5550  27.827  21.223   4.076
39010W        W 5551   8.764  38.899   1.809
39011W        W 5552   5.761  19.066  13.937
39012W        W 5553   4.779  10.180  14.342
39013W        W 5554  25.309  14.321  14.937
39014W        W 5555   7.506  17.797   3.953
39015W        W 5556   0.465   7.253  12.603
39016W        W 5557   8.212  36.733   0.281
39017W        W 5558   5.372  14.140  13.092
39018W        W 5559   7.206   4.292   1.718
39019W        W 5560  10.432  16.051  10.753
39020W        W 5561  42.256   5.748  14.048
39021W        W 5562   7.186  41.540  11.474
39022W        W 5563  38.638  37.415  10.767
39023W        W 5564  38.761   5.624   3.611
39024W        W 5565  11.478  11.311   3.785
39025W        W 5566   0.566  42.222   1.138
39026W        W 5567  37.911  10.188   4.461
39027W        W 5568  36.317   0.244   0.916
39028W        W 5569  22.915  35.122  12.443
39029W        W 5570  28.524  20.291  14.809
39030W        W 5571  24.248  21.454  13.876
39031W        W 5572  33.597   8.211  12.170
39032W        W 5573  19.833  22.685   3.216
39033W        W 5574   5.247  38.431  12.553
39034W        W 5575  22.563  40.529  11.326
39035W        W 5576   7.904  31.718  10.569
39036W        W 5577  21.085  15.479   3.706
39037W        W 5578  10.087  22.254   0.359
39038W        W 5579  28.628  38.846  14.624
39039W        W 5580  36.187   3.996   4.053
39040W        W 5581  32.394  33.984   2.824
39041W        W 5582   1.864   7.871  12.593
39042W        W 5583   8.956  44.260   4.125
39043W        W 5584  36.741  19.704   2.919
39044W        W 5585  37.256  16.844  10.636
39045W        W 5586   8.362  11.432   4.272
39046W        W 5587  34.980  34.908  12.149
39047W        W 5588  36.294   3.774   3.176
39048W        W 5589  19.289  33.111   3.330
39049W        W 5590  32.183  22.783   0.600
39050W        W 5591   1.889  16.275   0.671
39051W        W 5592  17.267  18.696  14.856
39052W        W 5593  10.522  24.232  11.344
39053W        W 5594  32.431  23.501  13.987
39054W        W 5595  37.494  38.593   1.819
39055W        W 5596  10.691  44.177  14.521
39056W        W 5597   1.771  24.618  14.781
39057W        W 5598  24.057  40.598  12.144
39058W        W 5599  33.070   4.050  14.228
39059W        W 5600  29.817  43.949  12.003
39060W        W 5601  43.510   1.370  14.504
39061W        W 5602  20.144  33.713  14.076
39062W        W 5603  16.351  42.111  13.142
39063W        W 5604  26.208   7.270  11.729
39064W        W 5605  41.902  31.597  14.469
39065W        W 5606  13.071  26.472   0.440
39066W        W 5607  43.463  34.637   4.353
39067W        W 5608   0.434  24.805  13.068
39068W        W 5609  12.149  31.620   1.463
39069W        W 5610   5.867  33.484   4.091
39070W        W 5611  35.110  42.735  14.020
39071W        W 5612  27.656   1.708   3.620
39072W        W 5613  22.984  25.766   3.415
39073W        W 5614   6.344  22.992   0.394
39074W        W 5615  28.047  25.305  11.625
39075W        W 5616  44.392   4.917  14.387
39076W        W 5617   4.745  31.184  12.615
39077W        W 5618  29.712   8.145   3.230
39078W        W 5619  31.652  35.315  11.081
39079W        W 5620  44.465  30.835  13.290
39080W        W 5621  11.695  24.237   0.002
39081W        W 5622   9.784   6.366  10.651
39082W        W 5623   7.972  24.477   2.698
39083W        W 5624  13.915  10.788  11.454
39084W        W 5625  44.339  19.730  11.388
39085W        W 5626  13.241   4.992   3.361
39086W        W 5627  11.706   3.684   2.635
39087W        W 5628   3.800  41.454   0.960
39088W        W 5629   3.148  23.558  14.007
39089W        W 5630  18.252  22.210  12.382
39090W        W 5631  21.196  25.137  12.187
39091W        W 5632  41.587  37.914  14.885
39092W        W 5633  34.720  30.244   0.444
39093W        W 5634   9.870   1.089   5.092
39094W        W 5635  12.380  20.054  11.167
39095W        W 5636   3.421  44.525   4.627
39096W        W 5637  40.049  28.858   4.106
39097W        W 5638  43.914   8.858   1.842
39098W        W 5639  15.105  11.664  11.462
39099W        W 5640  29.430  20.121  12.605
39100W        W 5641  41.047  41.476   2.818
39101W        W 5642  12.812  18.233   0.869
39102W        W 5643  44.158  23.440   3.200
39103W        W 5644  20.726  36.890   3.596
39104W        W 5645  22.528  38.087   4.611
39105W        W 5646   1.757  12.713   0.908
39106W        W 5647  16.961  11.289   4.270
39107W        W 5648  34.056  21.933  12.048
39108W        W 5649  20.672  34.315   3.604
39109W        W 5650  42.335  27.705   1.815
39110W        W 5651  26.213  25.665   0.897
39111W        W 5652   4.182  22.668   0.410
39112W        W 5653  25.845   6.487   1.027
39113W        W 5654  10.328  44.720  12.014
39114W        W 5655   7.684  12.848  11.173
39115W        W 5656  27.720  18.015   1.336
39116W        W 5657  24.511  19.467  14.735
39117W        W 5658  32.829  17.105  11.106
39118W        W 5659   2.668  38.426  10.727
39119W        W 5660   4.989  22.951  13.930
39120W        W 5661  21.580  19.823   4.675
39121W        W 5662  18.784  36.619  11.701
39122W        W 5663  40.303  12.027   2.284
39123W        W 5664   1.959   6.931   1.605
39124W        W 5665  16.131  22.234   0.845
39125W        W 5666  13.798   0.870  13.890
39126W        W 5667  34.101  20.158  13.968
39127W        W 5668  42.486  12.893   2.654
39128W        W 5669  12.795  28.849  14.429
39129W        W 5670   7.588   1.320   3.306
39130W        W 5671  33.677   5.493  10.653
39131W        W 5672   3.136   5.277   0.157
39132W        W 5673   6.828  33.562   4.019
39133W        W 5674  18.811  44.874   3.627
39134W        W 5675   7.810  44.499   0.401
39135W        W 5676   6.316  24.276   0.944
39136W        W 5677  22.769  37.148  13.350
39137W        W 5678  22.475  36.211   4.036
39138W        W 5679  15.343  30.154  10.675
39139W        W 5680  11.838  32.677  13.432
39140W        W 5681  34.638   4.274   1.435
39141W        W 5682   1.393   6.112   2.797
39142W        W 5683  13.999  24.102  13.273
39143W        W 5684   8.339   1.023  11.057
39144W        W 5685  32.409  19.738  11.133
39145W        W 5686  35.604  38.335   3.328
39146W        W 5687  28.657  34.917   2.202
39147W        W 5688   5.415  42.994   1.922
39148W        W 5689  44.214   7.231   0.050
39149W        W 5690  26.140  37.452   2.269
39150W        W 5691  16.651  40.343   4.737
39151W        W 5692   5.495  43.215   0.651
39152W        W 5693  41.989  30.087   4.036
39153W        W 5694  41.617  38.894  11.704
39154W        W 5695  17.284  26.493  12.881
39155W        W 5696  14.446  40.288  12.921
39156W        W 5697  44.973  13.813   3.173
39157W        W 5698  37.971  28.315  14.015
39158W        W 5699   7.821  29.560   0.916
39159W        W 5700  19.177   7.122   2.325
39160W        W 5701   8.267  29.953  14.172
39161W        W 5702   9.065  43.954   4.596
39162W        W 5703  24.092  13.460  12.524
39163W        W 5704  29.002   8.221  12.203
39164W        W 5705  32.725  42.813   3.343
39165W        W 5706   5.427  33.953   1.408
39166W        W 5707  38.431  41.616  11.238
39167W        W 5708   3.852  32.178  13.914
39168W        W 5709  36.384  10.271   1.703
39169W        W 5710  44.606  44.983  12.094
39170W        W 5711  29.199  15.650  11.483
39171W        W 5712  11.199  15.886  12.606
39172W        W 5713  15.590  17.712   1.681
39173W        W 5714  39.046  36.149  14.314
39174W        W 5715   2.374  15.055  11.717
39175W        W 5716  41.314   2.695   0.817
39176W        W 5717  33.167  34.034   2.356
39177W        W 5718  15.454  36.059   4.864
39178W        W 5719  15.137  30.713  13.158
39179W        W 5720  32.867  44.479   2.417
39180W        W 5721  24.708  22.254  10.590
39181W        W 5722  17.697   9.828  10.363
39182W        W 5723  33.636  25.277   3.226
39183W        W 5724  34.570   6.810   0.462
39184W        W 5725  24.602  19.963  12.977
39185W        W 5726  14.836  26.924  13.289
39186W        W 5727  10.636  31.827  12.691
39187W        W 5728  15.746  26.151  13.343
39188W        W 5729   6.913   6.819  10.735
39189W        W 5730  36.528  13.617   1.265
39190W        W 5731  34.864   7.636  12.073
39191W        W 5732   6.770   6.469  11.636
39192W        W 5733  25.281   8.839   2.853
39193W        W 5734   3.398  17.654  12.495
39194W        W 5735   8.539  10.107  13.027
39195W        W 5736  28.156   0.296  12.944
39196W        W 5737   7.743  11.906   5.154
39197W        W 5738  21.245  10.352  12.653
39198W        W 5739  32.046   4.446   0.824
39199W        W 5740  36.133   6.381  14.925
39200W        W 5741  11.611  26.272   4.364
39201W        W 5742  10.128  35.912  10.690
39202W        W 5743   5.055  22.078  14.448
39203W        W 5744  21.618  10.909  10.575
39204W        W 5745  27.586  41.336  12.869
39205W        W 5746  24.582  27.174  11.480
39206W        W 5747  32.537  23.610  13.405
39207W        W 5748  31.229  15.339  13.746
39208W        W 5749  31.043   6.968   0.331
39209W        W 5750  16.794  18.806  13.934
39210W        W 5751  32.571  44.836   4.234
39211W        W 5752  32.266  33.156   1.693
39212W        W 5753  44.192  23.362  13.529
39213W        W 5754  35.035  34.522   4.610
39214W        W 5755   7.241  27.949  13.062
39215W        W 5756   6.911  43.372  12.304
39216W        W 5757   7.808   7.844   4.429
39217W        W 5758  37.239  12.597   4.076
39218W        W 5759  31.645   0.068  13.305
39219W        W 5760  19.144  28.207   3.647
39220W        W 5761  22.006  16.814  10.250
39221W        W 5762  12.208  30.770   3.667
39222W        W 5763   8.232  13.319   4.897
39223W        W 5764   9.856  32.156   0.791
39224W        W 5765  25.572  29.398   4.672
39225W        W 5766  32.145  24.615  10.699
39226W        W 5767  35.037  13.211  11.491
39227W        W 5768  40.928  42.861   4.580
39228W        W 5769   5.951  34.474   1.806
39229W        W 5770  21.049   4.634  13.021
39230W        W 5771  20.254  15.108   9.988
39231W        W 5772  35.433  14.693   3.932
39232W        W 5773  32.775  14.753  10.778
39233W        W 5774  16.722  30.455   3.416
39234W        W 5775  14.965  13.238  13.812
39235W        W 5776  24.434   3.636   0.991
39236W        W 5777  26.193  33.650   3.604
39237W        W 5778  28.622  26.067   1.818
39238W        W 5779   2.500  13.827   1.328
39239W        W 5780  19.381   5.342  11.103
39240W        W 5781   0.381  10.682   2.727
39241W        W 5782  43.022  31.002   1.384
39242W        W 5783   1.346  24.701  11.549
39243W        W 5784  22.546  35.602  14.598
39244W        W 5785  18.690  23.719  13.352
39245W        W 5786  28.265  30.967   0.875
39246W        W 5787  21.080  10.860   4.573
39247W        W 5788  10.594  38.891   1.730
39248W        W 5789  12.273   6.214   2.900
39249W        W 5790  42.036  24.572  13.385
39250W        W 5791  22.490   4.359   4.076
39251W        W 5792  28.338  36.953  14.766
39252W        W 5793   8.768  17.543   1.803
39253W        W 5794  13.544   7.553  11.253
39254W        W 5795  22.169  25.275   3.644
39255W        W 5796   6.119   7.470  11.227
39256W        W 5797  18.140  31.401  10.730
39257W        W 5798  17.740  20.659   1.780
39258W        W 5799  11.760  36.302   3.785
39259W        W 5800   8.757  43.383   4.061
39260W        W 5801  18.948  25.001   1.933
39261W        W 5802  21.297  17.859  14.307
39262W        W 5803  18.755   6.273   4.091
39263W        W 5804   0.480   1.021  12.507
39264W        W 5805  35.654  38.545  12.365
39265W        W 5806  31.724  34.574  11.505
39266W        W 5807  27.425   4.675   2.337
39267W        W 5808  28.146  19.364  10.515
39268W        W 5809   5.242  34.202   0.425
39269W        W 5810  18.565  25.136  14.228
39270W        W 5811   6.895  23.785  13.522
39271W        W 5812  42.831  32.483   3.816
39272W        W 5813  41.984  33.878   1.210
39273W        W 5814   8.541   8.410  14.998
39274W        W 5815  32.406  28.197  11.996
39275W        W 5816  35.056  25.243  13.010
39276W        W 5817  16.948  28.106  14.462
39277W        W 5818   4.537   3.678   0.398
39278W        W 5819   1.464  13.191  11.197
39279W        W 5820  30.287   3.172  13.490
39280W        W 5821  19.709  22.576  13.001
39281W        W 5822  13.112  13.521   2.816
39282W        W 5823  27.217  21.150   4.235
39283W        W 5824  32.569  35.980   4.020
39284W        W 5825   4.453  38.328  14.396
39285W        W 5826  33.910  33.415  13.919
39286W        W 5827  44.935   3.274  12.147
39287W        W 5828  15.896   8.727  11.510
39288W        W 5829  24.070  41.078   3.096
39289W        W 5830  10.184   5.795   4.133
39290W        W 5831   5.350  33.226   4.033
39291W        W 5832   5.354  29.118   1.284
39292W        W 5833   6.677  26.742  12.389
39293W        W 5834  44.588  40.336   4.469
39294W        W 5835  29.082   3.012  12.045
39295W        W 5836  25.922  11.719  11.098
39296W        W 5837  28.277  44.153   5.030
39297W        W 5838   2.451  34.674  11.060
39298W        W 5839  38.439  29.462   4.711
39299W        W 5840   5.411  32.511  14.928
39300W        W 5841   5.264  32.833  12.872
39301W        W 5842  24.483   2.773   0.661
39302W        W 5843   3.452  11.805  12.879
39303W        W 5844  42.562  14.440  12.379
39304W        W 5845  22.185  25.970  13.353
39305W        W 5846   7.256  37.192   3.359
39306W        W 5847  11.576   1.403  12.187
39307W        W 5848  12.374  28.613  11.863
39308W        W 5849  21.038  33.401   1.716
39309W        W 5850   4.107  13.073  12.546
39310W        W 5851   2.321  22.781  12.852
39311W        W 5852  28.720  34.322  11.071
39312W        W 5853   6.606  15.963   0.641
39313W        W 5854   2.899  29.073  10.922
39314W        W 5855   3.090  28.615  11.067
39315W        W 5856  29.527  16.131  13.045
39316W        W 5857  18.198  17.240   3.081
39317W        W 5858  19.248  23.141  14.917
39318W        W 5859  12.740  39.041  13.803
39319W        W 5860   4.712  19.154   2.251
39320W        W 5861  33.286  42.471   0.315
39321W        W 5862  44.080   0.898  13.061
39322W        W 5863  19.374  38.526  12.199
39323W        W 5864  41.535  37.761  12.535
39324W        W 5865  44.295  38.382   3.705
39325W        W 5866   7.254  22.188  11.993
39326W        W 5867   4.872  25.972   1.668
39327W        W 5868  10.106  32.698  14.231
39328W        W 5869  35.272  40.839   4.234
39329W        W 5870  42.479  16.363   2.585
39330W        W 5871  22.145  24.640  12.241
39331W        W 5872  12.803   3.184   1.478
39332W        W 5873  42.514   9.161   4.171
39333W        W 5874  10.317   0.905   0.859
39334W        W 5875  36.731   3.318  10.612
39335W        W 5876   8.786  29.839   0.040
39336W        W 5877  11.707  31.559   4.819
39337W        W 5878  26.895  27.097  14.862
39338W        W 5879  35.423  14.037  14.658
39339W        W 5880  35.848  17.586   0.424
39340W        W 5881   2.939  16.540  10.774
39341W        W 5882  39.277  38.508   1.915
39342W        W 5883  21.695  16.933  11.911
39343W        W 5884   3.344  19.891   4.596
39344W        W 5885  43.888   6.800   0.752
39345W        W 5886  24.117   5.942  14.005
39346W        W 5887  24.752  23.986  14.043
39347W        W 5888  16.041   0.875   2.957
39348W        W 5889  18.147  10.807  11.589
39349W        W 5890  36.095  44.981   3.674
39350W        W 5891  16.340  10.374  14.893
39351W        W 5892  18.064   7.495   3.255
39352W        W 5893  11.692   3.509   3.131
39353W        W 5894  28.972   3.534  12.911
39354W        W 5895  32.651  24.501   4.025
39355W        W 5896  20.824  38.834   4.161
39356W        W 5897  35.309  18.721   4.527
39357W        W 5898  29.904  27.802   3.636
39358W        W 5899  36.376  27.663  13.097
39359W        W 5900  40.893  18.161  14.130
39360W        W 5901  21.635   8.436  11.047
39361W        W 5902  17.614  31.611  11.393
39362W        W 5903  11.842  42.736  14.336
39363W        W 5904  38.928  29.086   2.826
39364W        W 5905  24.722  19.483  13.732
39365W        W 5906  32.654  13.264  13.319
39366W        W 5907   5.945   3.888   1.354
39367W        W 5908   0.911  32.093  12.987
39368W        W 5909  23.198  38.113   2.448
39369W        W 5910   2.358  18.523   3.328
39370W        W 5911  11.199   8.179  12.444
39371W        W 5912  12.302  44.022   3.796
39372W        W 5913   7.501   5.387   3.686
39373W        W 5914  37.443  43.286   4.587
39374W        W 5915  32.926  25.297  12.329
39375W        W 5916  30.832  39.386  13.672
39376W        W 5917   4.288   6.288   5.041
39377W        W 5918  43.248  36.387  14.369
39378W        W 5919  43.789   7.721   3.952
39379W        W 5920  23.071  22.279  14.428
39380W        W 5921  37.792  27.403  14.097
39381W        W 5922  14.788   1.199  10.735
39382W        W 5923  14.327  10.320   3.532
39383W        W 5924  35.289  34.382   1.716
39384W        W 5925   0.721  42.385  13.397
39385W        W 5926   7.752   6.514   2.203
39386W        W 5927  34.302  20.130   4.219
39387W        W 5928  27.594   3.122   3.786
39388W        W 5929  17.758   9.618   0.384
39389W        W 5930  24.052   2.434   3.186
39390W        W 5931  36.315  29.885  11.657
39391W        W 5932  12.277  43.218   0.760
39392W        W 5933   5.672  28.977  12.046
39393W        W 5934  30.005  31.859   1.132
39394W        W 5935  16.745  43.450   0.362
39395W        W 5936  38.089  44.892  10.350
39396W        W 5937  29.417  37.513   2.773
39397W        W 5938  20.799   6.284  13.272
39398W        W 5939  25.562  19.783   0.389
39399W        W 5940  16.750  29.841   1.193
39400W        W 5941  24.729   0.992   1.415
39401W        W 5942   5.986  14.781   2.760
39402W        W 5943   1.885  11.367  13.343
39403W        W 5944   4.171  29.129   4.663
39404W        W 5945  30.658  37.602   4.700
39405W        W 5946   9.867  33.406  14.805
39406W        W 5947   7.289   0.227   0.296
39407W        W 5948  36.138  12.111   1.840
39408W        W 5949  36.230   6.297   3.443
39409W        W 5950  19.716   0.815   4.269
39410W        W 5951  35.686   2.924   2.293
39411W        W 5952  22.091   5.833  12.800
39412W        W 5953  21.797  40.961  14.019
39413W        W 5954   2.006  28.459   1.361
39414W        W 5955   1.815  23.114   1.283
39415W        W 5956  36.982  36.533  10.776
39416W        W 5957  13.601  27.508  13.340
39417W        W 5958  16.292  24.478  10.285
39418W        W 5959  15.669  22.605   2.531
39419W        W 5960  24.133  32.930  12.270
39420W        W 5961  24.524   0.403   3.690
39421W        W 5962   3.850  21.132   4.497
39422W        W 5963  20.368  44.942   3.564
39423W        W 5964  39.477  10.508   5.254
39424W        W 5965  35.080  40.869   3.758
39425W        W 5966  22.818  10.052   2.849
39426W        W 5967  33.625   6.739   1.526
39427W        W 5968   5.542  13.169   0.137
39428W        W 5969  19.370  40.730   3.729
39429W        W 5970   0.197   7.660  13.486
39430W        W 5971  15.391  12.743  10.908
39431W        W 5972  30.544  43.231   0.713
39432W        W 5973  20.733  14.714  13.075
39433W        W 5974  35.928  26.614   0.040
39434W        W 5975  32.553  37.463   2.243
39435W        W 5976  30.012  24.220   0.837
39436W        W 5977  38.648   3.648   2.234
39437W        W 5978  29.046   0.972  13.816
39438W        W 5979  25.639   4.673   0.085
39439W        W 5980  44.054  14.310  14.782
39440W        W 5981  16.784  16.916   3.140
39441W        W 5982  25.912  34.138   1.785
39442W        W 5983  10.911  14.188  11.931
39443W        W 5984  42.499  25.661  11.536
39444W        W 5985  10.705  27.874   9.998
39445W        W 5986  40.149  10.200  12.483
39446W        W 5987   1.468  16.523   3.766
39447W        W 5988   8.802  44.635   3.732
39448W        W 5989  28.566  11.291   4.567
39449W        W 5990  27.540  20.812  12.154
39450W        W 5991  35.836  24.082  13.054
39451W        W 5992  44.908  24.739   4.967
39452W        W 5993   8.541   6.373   4.975
39453W        W 5994  26.553  14.223   4.522
39454W        W 5995   0.737  17.295   5.145
39455W        W 5996  31.357   5.371  11.175
39456W        W 5997  14.267  30.689  13.602
39457W        W 5998   0.249  28.451   2.814
39458W        W 5999   4.135   1.520   4.838
39459W        W 6000  37.530  29.565  13.789
39460W        W 6001  39.084  38.258  13.051
39461W        W 6002  44.682   5.328   0.881
39462W        W 6003  15.847  16.560  12.935
39463W        W 6004  15.742   6.910   4.085
39464W        W 6005  19.842  38.903   5.023
39465W        W 6006   1.935   2.647   1.485
39466W        W 6007  23.260   2.690   3.663
39467W        W 6008  21.112   0.039  13.013
39468W        W 6009  31.569   3.937  12.549
39469W        W 6010   2.674  14.678   2.808
39470W        W 6011  36.102  27.622  11.150
39471W        W 6012  37.339  23.217   1.311
39472W        W 6013  28.041  30.140  10.573
39473W        W 6014  15.887  40.802   2.874
39474W        W 6015   6.222  13.230  10.947
39475W        W 6016  43.275  29.676  13.798
39476W        W 6017  38.091  24.027   2.104
39477W        W 6018  21.716  21.115   2.767
39478W        W 6019  13.596  21.865   2.270
39479W        W 6020  26.565   1.664  12.004
39480W        W 6021  10.836   8.230   0.342
39481W        W 6022  30.631   6.918   4.339
39482W        W 6023  41.827  42.471   4.380
39483W        W 6024  24.409  38.507   2.938
39484W        W 6025  38.763   9.738  10.725
39485W        W 6026  33.493  25.501  11.562
39486W        W 6027  30.421   7.691   0.298
39487W        W 6028  13.693  32.679  10.651
39488W        W 6029  37.832  35.787  12.985
39489W        W 6030  27.078  39.482   1.459
39490W        W 6031  27.700  18.270  12.139
39491W        W 6032  42.828  42.118   3.618
39492W        W 6033  18.493  39.843   4.608
39493W        W 6034  26.162  20.556  11.681
39494W        W 6035  40.947  32.543  11.124
39495W        W 6036  41.789  15.648  12.265
39496W        W 6037   4.216  31.141   1.252
39497W        W 6038  28.739  41.816  13.959
39498W        W 6039  30.606  42.333  14.707
39499W        W 6040  37.512  26.627   4.136
39500W        W 6041  40.890  24.605  12.566
39501W        W 6042  36.761  36.502  14.318
39502W        W 6043  36.114   6.304   3.927
39503W        W 6044  30.436  42.335   1.647
39504W        W 6045   0.355  25.834   3.203
39505W        W 6046  14.287  28.862   9.875
39506W        W 6047  32.254  19.956  14.704
39507W        W 6048  44.706   3.604   5.032
39508W        W 6049  26.135   3.871   3.215
39509W        W 6050   5.592   5.260  11.490
39510W        W 6051   4.349   5.833   0.071
39511W        W 6052  25.425  15.747  12.897
39512W        W 6053  36.054  26.807  14.048
39513W        W 6054  27.155  15.131  13.160
39514W        W 6055  20.121   7.391   1.751
39515W        W 6056  29.165   8.232  12.684
39516W        W 6057  23.963  44.934  11.496
39517W        W 6058  36.941  14.149  14.062
39518W        W 6059  28.492   8.282   3.501
39519W        W 6060  14.820   9.756   4.280
39520W        W 6061   2.702  21.721  13.034
39521W        W 6062  35.798  37.575  12.737
39522W        W 6063  17.447  17.146  11.181
39523W        W 6064  30.582   2.445   4.940
39524W        W 6065  22.268  13.351  12.506
39525W        W 6066  21.161  41.806  12.084
39526W        W 6067   1.860  40.509  11.555
39527W        W 6068  38.116  37.579   2.498
39528W        W 6069   4.662  11.174  13.392
39529W        W 6070  19.510  39.009  10.795
39530W        W 6071  33.415   0.938   4.880
39531W        W 6072  15.072  37.928  11.905
39532W        W 6073  31.844  39.070   4.987
39533W        W 6074  13.323  22.642   0.911
39534W        W 6075   7.787   9.028   0.277
39535W        W 6076   3.802  22.389   5.023
39536W        W 6077  13.162  25.250  13.495
39537W        W 6078  22.776   4.348   0.730
39538W        W 6079  41.108  40.574  11.447
39539W        W 6080  36.580  13.794  11.479
39540W        W 6081   3.346  16.372   1.660
39541W        W 6082  29.361   5.773  12.384
39542W        W 6083   2.506  39.364  10.963
39543W        W 6084  19.198  16.287   1.845
39544W        W 6085  23.984  14.326   0.834
39545W        W 6086  30.323  30.548  12.787
39546W        W 6087  15.410  12.696  10.013
39547W        W 6088  35.950  31.037   3.696
39548W        W 6089   7.235  26.986  14.703
39549W        W 6090  18.328   4.472  13.511
39550W        W 6091  23.152  40.613  10.200
39551W        W 6092  33.569  12.085  14.868
39552W        W 6093  12.030  36.253   5.205
39553W        W 6094  42.412  40.561  10.989
39554W        W 6095   2.853  10.046  13.561
39555W        W 6096  21.040  26.596   3.611
39556W        W 6097  37.909   4.921  13.995
39557W        W 6098  32.490  20.524  12.377
39558W        W 6099  23.872  37.919  14.863
39559W        W 6100   5.846  44.506   1.702
39560W        W 6101  42.117  16.530   0.774
39561W        W 6102  25.581  19.282  11.989
39562W        W 6103   8.132   5.994  12.465
39563W        W 6104  32.015  31.661   2.721
39564W        W 6105   6.127   6.503  10.964
39565W        W 6106  18.193  37.554  14.204
39566W        W 6107  41.208   7.380  11.682
39567W        W 6108  28.084  20.293   2.295
39568W        W 6109  27.134  20.511   4.043
39569W        W 6110  34.421  40.810  14.886
39570W        W 6111  14.059  18.211   3.090
39571W        W 6112  15.522  25.679   4.227
39572W        W 6113  40.851  18.340  11.094
39573W        W 6114  33.889  32.279   2.431
39574W        W 6115  11.845  11.472  11.553
39575W        W 6116  35.854  24.238  12.557
39576W        W 6117  15.406  24.816  11.244
39577W        W 6118   8.425   2.474  13.472
39578W        W 6119  27.579  30.678  11.521
39579W        W 6120   8.716  24.580   0.915
39580W        W 6121  31.048  33.794  11.562
39581W        W 6122   8.728  32.618  12.041
39582W        W 6123   1.673  16.385   5.030
39583W        W 6124   8.025  25.202  12.506
39584W        W 6125   4.816  31.477  14.374
39585W        W 6126  11.582  14.315  13.263
39586W        W 6127  42.992   5.788   4.057
39587W        W 6128  14.785  44.533  10.060
39588W        W 6129   2.996  30.714  14.884
39589W        W 6130   6.095  27.244   0.088
39590W        W 6131  41.429   2.479   4.188
39591W        W 6132  18.250  35.873  13.863
39592W        W 6133   6.311  32.942  14.827
39593W        W 6134  25.003   8.027  13.576
39594W        W 6135  24.160   4.606  10.862
39595W        W 6136  43.029  14.570  12.175
39596W        W 6137  42.962  44.327  11.421
39597W        W 6138   3.938  34.581  14.829
39598W        W 6139  40.166  36.004   0.309
39599W        W 6140  13.114   0.407   3.561
39600W        W 6141   5.683  30.096  12.858
39601W        W 6142  27.581  27.716   4.922
39602W        W 6143  26.981  28.442  10.212
39603W        W 6144  31.430  30.771   0.722
39604W        W 6145  26.399  13.884  14.533
39605W        W 6146   4.216  29.795  13.482
39606W        W 6147   5.687  22.754  13.060
39607W        W 6148  33.870  32.424   3.759
39608W        W 6149   1.819  31.372   4.420
39609W        W 6150  14.344   1.968   3.307
39610W        W 6151  22.029  30.879  13.007
39611W        W 6152  21.694   7.680   0.799
39612W        W 6153   3.246   3.228   3.218
39613W        W 6154  26.106  42.012   0.295
39614W        W 6155  21.598  44.753   4.321
39615W        W 6156  30.921   3.124  12.053
39616W        W 6157  10.518  30.380  10.626
39617W        W 6158  12.591  24.670  13.978
39618W        W 6159   0.868   1.544  10.455
39619W        W 6160  19.744  33.182   2.446
39620W        W 6161  34.396  26.067   2.127
39621W        W 6162  13.769  25.613   0.446
39622W        W 6163  13.276  24.430   3.153
39623W        W 6164  36.183  16.039   5.012
39624W        W 6165  25.161  18.565   1.833
39625W        W 6166  28.195  13.908  11.163
39626W        W 6167  31.641  22.299  12.459
39627W        W 6168  28.902   0.547   2.217
39628W        W 6169   9.145  10.130  13.517
39629W        W 6170  24.004  30.090  12.094
39630W        W 6171  27.284  24.433   4.952
39631W        W 6172  12.267  43.739   0.846
39632W        W 6173   8.189  14.230  11.960
39633W        W 6174  33.128  25.410  10.998
39634W        W 6175  18.755   8.392  13.318
39635W        W 6176  39.013  18.136  13.167
39636W        W 6177  29.207   4.398  13.431
39637W        W 6178  37.191  19.276   2.777
39638W        W 6179  43.814  33.536   3.418
39639W        W 6180  41.750  24.589  14.793
39640W        W 6181  12.501  10.306   0.891
39641W        W 6182  25.148  20.153   5.126
39642W        W 6183  28.390  23.623  12.930
39643W        W 6184  27.739  29.425   2.422
39644W        W 6185  11.574  14.023   2.394
39645W        W 6186  12.093  13.192   1.679
39646W        W 6187   0.026  26.643   4.248
39647W        W 6188  18.153   3.370   2.862
39648W        W 6189  19.005  43.666  11.461
39649W        W 6190  14.903  36.402  11.665
39650W        W 6191  39.107   3.732   0.849
39651W        W 6192  33.938  32.744   2.907
39652W        W 6193  37.811  27.736   4.141
39653W        W 6194  41.923  31.446   0.798
39654W        W 6195  24.109  23.459   1.201
39655W        W 6196   1.429  21.290  10.991
39656W        W 6197  36.332  11.108   3.651
39657W        W 6198   1.642   1.825   4.483
39658W        W 6199  21.112  14.779  12.311
39659W        W 6200  20.692   9.724   4.594
39660W        W 6201   7.383  21.300  14.735
39661W        W 6202   1.670  41.074   1.732
39662W        W 6203   9.106  11.843  14.479
39663W        W 6204  24.719  33.591  14.294
39664W        W 6205  38.473   5.028   4.198
39665W        W 6206  36.963   5.369  14.040
39666W        W 6207  29.529  43.795   2.733
39667W        W 6208   7.699  43.024   5.081
39668W        W 6209  26.611  15.263  12.772
39669W        W 6210  27.026   3.690   1.716
39670W        W 6211  37.373  19.671  14.556
39671W        W 6212  34.384  16.622   0.515
39672W        W 6213   5.872  35.937  13.090
39673W        W 6214  39.828  38.355  10.696
39674W        W 6215   8.204   5.672  12.035
39675W        W 6216  25.173  29.455   2.320
39676W        W 6217   8.731  37.786  14.242
39677W        W 6218   8.952  10.196  14.218
39678W        W 6219  35.598  29.885   0.307
39679W        W 6220  11.938   5.106   4.069
39680W        W 6221   4.730  20.935   4.336
39681W        W 6222  32.131  23.671  13.094
39682W        W 6223  27.886  34.658   3.624
39683W        W 6224   8.819  22.133   1.072
39684W        W 6225  41.987   1.661   3.093
39685W        W 6226  41.757  15.205   0.999
39686W        W 6227  22.746  21.209   3.840
39687W        W 6228  18.029   4.389  13.027
39688W        W 6229  42.427  30.618   4.377
39689W        W 6230  38.330  17.365  12.398
39690W        W 6231  11.728  27.707  14.774
39691W        W 6232  37.321  41.106   4.193
39692W        W 6233   0.787  21.498  13.685
39693W        W 6234  26.723  35.573  13.095
39694W        W 6235  20.366  21.672  13.022
39695W        W 6236  11.130  35.105  11.113
39696W        W 6237   4.396  31.382  14.959
39697W        W 6238   3.110  44.509   3.813
39698W        W 6239   4.216  36.071   3.782
39699W        W 6240  37.620  37.505   2.761
39700W        W 6241  21.416  32.177  12.076
39701W        W 6242  30.059  43.753   4.707
39702W        W 6243  36.536   5.938   2.742
39703W        W 6244  16.797  25.040   4.234
39704W        W 6245   6.827   2.985   1.840
39705W        W 6246  33.822  33.810  10.417
39706W        W 6247   0.458  32.889   0.523
39707W        W 6248   5.280  36.714  13.964
39708W        W 6249  15.154  20.177  13.516
39709W        W 6250  24.425  32.936   1.374
39710W        W 6251  17.472  25.871   2.673
39711W        W 6252  40.584  11.800  13.028
39712W        W 6253  43.517  10.672   0.453
39713W        W 6254   2.430  41.891   0.397
39714W        W 6255  43.483   2.562  12.861
39715W        W 6256  44.641  24.356  12.642
39716W        W 6257  14.992  40.682  11.433
39717W        W 6258  35.394  19.286  13.831
39718W        W 6259  18.005  17.320  14.957
39719W        W 6260   7.929  34.954  14.274
39720W        W 6261  35.793  26.912  10.689
39721W        W 6262  20.835  19.054  13.159
39722W        W 6263  41.372  32.962   0.824
39723W        W 6264   2.740   5.016  14.374
39724W        W 6265   9.077  28.724  11.161
39725W        W 6266   7.790  30.151  10.645
39726W        W 6267   2.849  35.556  14.780
39727W        W 6268  25.277   5.829   9.863
39728W        W 6269  11.356  33.119  10.735
39729W        W 6270  43.890  16.360  12.589
39730W        W 6271  41.092  32.401   1.484
39731W        W 6272   9.982  21.637   1.094
39732W        W 6273   9.784   4.121   1.765
39733W        W 6274   8.414   6.858   0.505
39734W        W 6275  31.255  16.812   0.432
39735W        W 6276   4.815  43.132  12.096
39736W        W 6277   7.445  29.609  11.625
39737W        W 6278  10.318  14.737  13.750
39738W        W 6279  44.069  21.265  13.723
39739W        W 6280   4.507  24.734   2.815
39740W        W 6281   0.943  40.102  10.186
39741W        W 6282  20.822  29.234   1.153
39742W        W 6283  10.506  36.569   3.285
39743W        W 6284  43.823   9.863  13.029
39744W        W 6285  42.810  10.121  12.998
39745W        W 6286  12.146  21.478  13.535
39746W        W 6287  22.143   8.642  13.928
39747W        W 6288  14.995  36.467   0.297
39748W        W 6289   8.216  19.132  12.947
39749W        W 6290  38.223  38.264   2.478
39750W        W 6291  18.469  30.525   0.919
39751W        W 6292  18.773  38.378   3.172
39752W        W 6293   0.314  26.776  14.390
39753W        W 6294   4.690  31.984   1.953
39754W        W 6295  34.535  18.311   2.131
39755W        W 6296   5.307  18.377   3.689
39756W        W 6297  36.337  35.221   2.709
39757W        W 6298  39.115  30.481   3.118
39758W        W 6299  16.427   8.776  11.506
39759W        W 6300  34.271  29.957   3.701
39760W        W 6301   1.352  14.265   2.905
39761W        W 6302   1.470  31.629   2.289
39762W        W 6303  41.621  12.620  12.727
39763W        W 6304   4.611  23.592  14.320
39764W        W 6305  29.479   9.234   0.022
39765W        W 6306  18.310  20.568  12.059
39766W        W 6307   3.295  29.530   1.788
39767W        W 6308  40.500  17.343  12.890
39768W        W 6309  38.997   4.664   1.692
39769W        W 6310  19.137  20.747  14.744
39770W        W 6311  31.348   4.465  14.545
39771W        W 6312  28.308  14.721   0.687
39772W        W 6313  42.664   7.206   4.095
39773W        W 6314  25.680  32.111  14.559
39774W        W 6315  13.240  26.765  12.592
39775W        W 6316  38.466   0.992   1.394
39776W        W 6317   0.981   3.297  11.435
39777W        W 6318  33.174  24.340  12.021
39778W        W 6319  44.967  37.518   3.045
39779W        W 6320  34.931   0.445  12.090
39780W        W 6321  33.516  37.155  13.918
39781W        W 6322  28.832   8.382  13.048
39782W        W 6323  36.313  26.586  14.681
39783W        W 6324   8.958  42.536   4.579
39784W        W 6325  42.430   2.695  12.985
39785W        W 6326  18.965  33.542  12.207
39786W        W 6327   5.106   6.176  14.283
39787W        W 6328  18.743  19.499  14.846
39788W        W 6329   8.133  34.874  11.976
39789W        W 6330  44.396  16.368  12.506
39790W        W 6331  28.732   1.886   4.353
39791W        W 6332  33.362  12.973   0.827
39792W        W 6333   0.397  29.827   0.369
39793W        W 6334  25.165  23.960   2.660
39794W        W 6335  21.624   1.324   2.779
39795W        W 6336  11.162  29.221  13.891
39796W        W 6337   2.853  19.570  13.875
39797W        W 6338  16.546  39.443  14.081
39798W        W 6339  33.493  20.150  11.624
39799W        W 6340   6.243   0.781   0.334
39800W        W 6341  23.159   8.882   0.853
39801W        W 6342  33.351  15.287   3.732
39802W        W 6343  22.953   5.936  14.087
39803W        W 6344  13.192  43.364  13.842
39804W        W 6345  44.239   1.473   4.789
39805W        W 6346   4.910  38.856   0.516
39806W        W 6347  39.154  22.808  14.821
39807W        W 6348  21.784  27.375   1.281
39808W        W 6349   2.813  11.121   0.785
39809W        W 6350  35.125  15.690  11.985
39810W        W 6351  42.852  15.266   2.804
39811W        W 6352  17.255  14.307   3.240
39812W        W 6353  32.288  27.890  12.825
39813W        W 6354  41.438  27.703  13.823
39814W        W 6355   9.720  10.818  14.773
39815W        W 6356  25.190  30.823  11.505
39816W        W 6357  37.373  18.737   0.717
39817W        W 6358  14.503  22.152  14.889
39818W        W 6359  24.659  39.466   0.664
39819W        W 6360  41.706  27.579   1.061
39820W        W 6361   8.127  28.170  14.208
39821W        W 6362   2.714  11.800   2.257
39822W        W 6363  25.614   6.251   3.835
39823W        W 6364  34.549  12.498   3.447
39824W        W 6365  40.041  36.357  12.147
39825W        W 6366  28.876   1.542  11.137
39826W        W 6367  31.970  20.680   2.723
39827W        W 6368  13.905  36.292   4.593
39828W        W 6369  10.186   9.026   1.830
39829W        W 6370  32.069  37.800   0.523
39830W        W 6371  21.744  20.573   2.814
39831W        W 6372  19.157  21.599  10.356
39832W        W 6373   6.540  41.858  12.147
39833W        W 6374  30.751  21.775  12.095
39834W        W 6375  30.669  27.239   2.423
39835W        W 6376  27.884  17.051  11.914
39836W        W 6377  44.030  26.000   0.260
39837W        W 6378  39.923  19.313  13.518
39838W        W 6379  37.409  23.763  10.810
39839W        W 6380  33.415  10.777  12.349
39840W        W 6381  20.163  38.054  14.717
39841W        W 6382   5.262  23.365   4.182
39842W        W 6383  44.939   9.134  12.653
39843W        W 6384  42.158  24.466   0.731
39844W        W 6385   4.786  18.667  11.185
39845W        W 6386  43.698  42.327   1.262
39846W        W 6387  29.909  20.816   0.410
39847W        W 6388  44.812  16.707   1.136
39848W        W 6389  34.459   4.525   5.614
39849W        W 6390  24.136  26.283  14.810
39850W        W 6391  15.856   7.404   2.347
39851W        W 6392  18.416  22.564   0.072
39852W        W 6393  36.600  21.408   1.907
39853W        W 6394  22.929  14.283  13.406
39854W        W 6395  19.930  16.313   2.316
39855W        W 6396  35.917  35.927   3.637
39856W        W 6397  21.243  25.468  11.410
39857W        W 6398  35.251  40.547   1.467
39858W        W 6399  32.833   3.800   3.603
39859W        W 6400  37.677   8.308  12.673
39860W        W 6401   9.808  38.364  10.248
39861W        W 6402  36.334  24.707  12.581
39862W        W 6403  28.640   5.508   4.645
39863W        W 6404  41.801   1.720  10.352
39864W        W 6405   3.500  14.258  14.821
39865W        W 6406   1.238  25.060   1.926
39866W        W 6407  12.033  15.541  13.136
39867W        W 6408  40.968  26.378  11.577
39868W        W 6409  18.141   8.240   0.638
39869W        W 6410   5.287   9.754   1.706
39870W        W 6411  25.952  44.162  11.124
39871W        W 6412   4.191  12.610  11.501
39872W        W 6413  26.203  21.692  11.587
39873W        W 6414   6.441  36.142   1.746
39874W        W 6415  11.530  44.760  11.652
39875W        W 6416  36.585   8.076   4.526
39876W        W 6417  44.776  44.196  14.887
39877W        W 6418  43.222   3.801  14.535
39878W        W 6419  13.705   1.150  13.129
39879W        W 6420  23.493  29.413  10.632
39880W        W 6421  35.655  27.636   1.032
39881W        W 6422  18.091  41.376   1.715
39882W        W 6423   7.159  12.890  11.175
39883W        W 6424   7.469   2.503  12.022
39884W        W 6425  31.038   3.206  14.296
39885W        W 6426  34.000   1.017  13.943
39886W        W 6427  12.761  17.138   0.133
39887W        W 6428  30.619  35.501   4.892
39888W        W 6429   7.141  37.010  11.687
39889W        W 6430  41.818  21.613  10.446
39890W        W 6431  12.326  22.066   2.639
39891W        W 6432  21.465  15.826  12.855
39892W        W 6433  43.128   2.918  13.980
39893W        W 6434  15.669  22.958  12.515
39894W        W 6435   1.329  42.503  12.828
39895W        W 6436  22.978  42.829  14.564
39896W        W 6437   2.946   2.881  12.990
39897W        W 6438  41.375  39.410   4.182
39898W        W 6439   4.821  39.874   4.919
39899W        W 6440  36.875  37.786  10.759
39900W        W 6441   6.613  24.535   0.476
39901W        W 6442  15.080  43.521  12.981
39902W        W 6443   1.872  35.454  11.983
39903W        W 6444  20.773  24.958  12.807
39904W        W 6445  36.040  18.408   0.866
39905W        W 6446   1.153  19.161   0.783
39906W        W 6447   0.296  23.496   4.272
39907W        W 6448  27.700   3.434   4.164
39908W        W 6449  37.650  39.962   3.382
39909W        W 6450  14.901  43.487  11.161
39910W        W 6451  40.730   8.115  14.415
39911W        W 6452   5.656  19.561   1.745
39912W        W 6453   2.219  30.544   4.202
39913W        W 6454  22.078   0.794  13.772
39914W        W 6455  10.830  44.867  11.962
39915W        W 6456  18.147  16.470   0.324
39916W        W 6457  36.979  41.086  13.367
39917W        W 6458  14.602  27.507   4.126
39918W        W 6459   6.811  35.580  10.578
39919W        W 6460  23.802   9.157   2.806
39920W        W 6461   7.488  42.267   0.345
39921W        W 6462  40.288  34.710  11.689
39922W        W 6463  18.074  29.458  13.535
39923W        W 6464  38.892  43.885   1.820
39924W        W 6465  40.043  23.195  11.066
39925W        W 6466  19.136  18.829   1.020
39926W        W 6467  34.873  12.146  13.351
39927W        W 6468   4.352  16.848  12.943
39928W        W 6469  28.002  19.561  14.965
39929W        W 6470   9.592  30.045   3.548
39930W        W 6471  21.182  27.711  14.755
39931W        W 6472  36.974  12.628   1.791
39932W        W 6473  11.195  14.567  14.090
39933W        W 6474   6.628  25.969  12.055
39934W        W 6475  23.095  28.409  12.357
39935W        W 6476  16.101  16.770   0.163
39936W        W 6477  19.514   2.506  10.703
39937W        W 6478   5.175   8.391  12.037
39938W        W 6479   5.165  27.523  13.556
39939W        W 6480  13.843  23.340   0.804
39940W        W 6481  37.907  30.755  14.389
39941W        W 6482  37.621  12.931   4.862
39942W        W 6483  41.932  43.803  10.617
39943W        W 6484  14.284   0.337  12.121
39944W        W 6485   7.165  24.102   2.744
39945W        W 6486  12.424  30.132   4.906
39946W        W 6487  20.996  18.073   0.793
39947W        W 6488  17.822  27.604   0.865
39948W        W 6489   5.773  35.437  11.953
39949W        W 6490  22.751  18.192   0.873
39950W        W 6491  15.436   1.261   0.402
39951W        W 6492   6.382  31.290   2.605
39952W        W 6493   4.848  44.429  12.407
39953W        W 6494   0.074   6.891   1.486
39954W        W 6495  16.955  21.754  14.656
39955W        W 6496  28.900  12.767  13.321
39956W        W 6497  36.469   7.408  10.732
39957W        W 6498  30.978  30.269  14.558
39958W        W 6499  27.394  38.493  14.327
39959W        W 6500  27.939  14.797  13.452
39960W        W 6501  43.901  15.158  14.477
39961W        W 6502  36.390  35.933   1.257
39962W        W 6503   6.078  44.029  14.819
39963W        W 6504  10.311  22.671  13.083
39964W        W 6505  28.097   3.193   5.082
39965W        W 6506   0.389  19.314   1.246
39966W        W 6507   1.101  27.175   0.368
39967W        W 6508   2.780  27.391  14.825
39968W        W 6509   7.364  29.017   4.291
39969W        W 6510  41.113  35.010  13.542
39970W        W 6511  35.731  26.983  12.049
39971W        W 6512   6.155   2.307   3.139
39972W        W 6513  19.644  12.547  12.117
39973W        W 6514  26.914  43.549  12.440
39974W        W 6515  27.123  11.751  13.199
39975W        W 6516  16.638   4.645   4.629
39976W        W 6517  38.163  20.108  11.158
39977W        W 6518   5.115  17.881   3.737
39978W        W 6519  34.301   9.832   3.656
39979W        W 6520  25.227  18.733   3.369
39980W        W 6521   9.144  30.389  10.633
39981W        W 6522  29.430  28.161  14.863
39982W        W 6523  30.319  38.828  13.886
39983W        W 6524   1.789  18.631   0.368
39984W        W 6525  35.971  10.929  11.160
39985W        W 6526  40.015  20.692  12.058
39986W        W 6527  36.951  17.621   4.863
39987W        W 6528  23.684  23.958   2.284
39988W        W 6529  15.768  26.420   3.781
39989W        W 6530   1.807  39.793  12.666
39990W        W 6531  35.068   5.884  10.717
39991W        W 6532   6.399  16.501   3.360
39992W        W 6533  35.722  27.729   2.700
39993W        W 6534  43.528   1.905  12.143
39994W        W 6535  10.122  10.487   3.038
39995W        W 6536  32.352  42.427  11.834
39996W        W 6537  20.988   8.780   0.948
39997W        W 6538   5.638  11.852   3.105
39998W        W 6539   2.198  23.367   3.041
39999W        W 6540  25.132  22.487   2.640
40000W        W 6541  23.496  19.722  11.447
40001W        W 6542  22.082  14.705   1.084
40002W        W 6543  38.986  14.820  11.940
40003W        W 6544  37.352  18.632  11.182
40004W        W 6545   4.038   0.572   1.720
40005W        W 6546  20.567   2.182  12.911
40006W        W 6547   0.253  41.071   2.684
40007W        W 6548  44.569  44.364   1.819
40008W        W 6549  17.171  43.356   3.146
40009W        W 6550  32.534  33.466   3.541
40010W        W 6551   5.244  30.847  13.935
40011W        W 6552  15.695  42.530  11.198
40012W        W 6553  26.592  40.683  13.779
40013W        W 6554  37.514   1.706  12.653
40014W        W 6555  42.041  38.821  13.462
40015W        W 6556  28.216  11.070   1.666
40016W        W 6557  32.249   1.775   5.205
40017W        W 6558  17.178  30.715   5.031
40018W        W 6559  38.372   4.190  10.764
40019W        W 6560  25.646  32.539   4.595
40020W        W 6561   1.455  41.212   3.654
40021W        W 6562  35.890  16.321  13.967
40022W        W 6563  21.674   2.864   2.530
40023W        W 6564  10.144  23.073   4.494
40024W        W 6565  30.686  21.993  10.496
40025W        W 6566   0.294  28.133   1.939
40026W        W 6567  17.280  35.589  11.153
40027W        W 6568  29.588  40.980   2.925
40028W        W 6569  15.656  38.532  14.470
40029W        W 6570  34.322  31.258  12.031
40030W        W 6571  39.957  38.020  12.596
40031W        W 6572  40.154  42.267  12.477
40032W        W 6573  12.108   3.211  12.481
40033W        W 6574  37.897  32.971   2.283
40034W        W 6575  28.116  20.925   0.527
40035W        W 6576   3.207  41.132  12.011
40036W        W 6577  36.922  21.100   2.727
40037W        W 6578   7.189  10.174  12.046
40038W        W 6579  40.475   2.221  11.899
40039W        W 6580   9.282  42.968   0.387
40040W        W 6581  27.729   8.234   3.352
40041W        W 6582  42.845  19.454  12.384
40042W        W 6583  36.105   2.649  12.864
40043W        W 6584  31.561  14.636   3.968
40044W        W 6585   1.882  26.491  12.918
40045W        W 6586  19.156  15.564   2.153
40046W        W 6587  35.656  26.957   2.347
40047W        W 6588  34.112  38.005   4.212
40048W        W 6589   2.390  36.631   0.728
40049W        W 6590  32.650   9.318   3.816
40050W        W 6591   5.572   7.363  12.147
40051W        W 6592  31.615  22.006  11.103
40052W        W 6593   1.447   3.313  11.115
40053W        W 6594  44.275  20.359   1.657
40054W        W 6595   0.544  23.105  11.618
40055W        W 6596  40.861  18.795  12.985
40056W        W 6597  35.989  18.919   0.808
40057W        W 6598  23.787   4.770  11.640
40058W        W 6599   0.035  30.547   3.174
40059W        W 6600   8.924  38.551   2.915
40060W        W 6601  13.828  42.078   4.770
40061W        W 6602  27.624  15.154  12.890
40062W        W 6603  30.050  18.667   2.816
40063W        W 6604  16.194   1.569  13.840
40064W        W 6605   1.481  37.180  12.952
40065W        W 6606  24.484  30.534   0.963
40066W        W 6607  44.264  28.424  10.686
40067W        W 6608  15.869  23.057  12.012
40068W        W 6609  35.875   6.430   0.822
40069W        W 6610   1.540  11.657   3.872
40070W        W 6611  44.401  16.403   1.497
40071W        W 6612  20.120  20.294  11.676
40072W        W 6613  34.824  11.599  13.361
40073W        W 6614  23.658  17.231  14.274
40074W        W 6615  33.262  41.335  10.301
40075W        W 6616  17.201  32.827   2.609
40076W        W 6617  32.138  29.851  14.003
40077W        W 6618  42.908  36.425   2.765
40078W        W 6619  39.531  38.161   4.213
40079W        W 6620  42.693   5.931  13.794
40080W        W 6621   5.361  29.578   3.135
40081W        W 6622  39.291  36.756   1.776
40082W        W 6623   8.341  25.272   1.526
40083W        W 6624  12.194  44.892   2.864
40084W        W 6625  34.369  42.777   1.373
40085W        W 6626  38.449  44.734   4.485
40086W        W 6627  42.277  31.619  10.774
40087W        W 6628  13.615  32.973   1.354
40088W        W 6629  34.981  16.867   2.279
40089W        W 6630  27.882  22.461  12.418
40090W        W 6631  37.617  36.127   1.338
40091W        W 6632  12.529  18.522   3.400
40092W        W 6633  10.502   6.598   3.426
40093W        W 6634  18.436  19.503   9.778
40094W        W 6635  11.076  23.561  11.256
40095W        W 6636  19.124  13.010   3.128
40096W        W 6637  42.505  10.063   0.390
40097W        W 6638  34.966  14.904  14.413
40098W        W 6639  24.677  26.571   3.648
40099W        W 6640  31.121  21.214  11.460
40100W        W 6641  30.690  42.231   0.779
40101W        W 6642  41.073  15.680   0.018
40102W        W 6643  40.643  42.042   3.471
40103W        W 6644  16.692  38.948  10.459
40104W        W 6645  40.837  39.563  14.672
40105W        W 6646  20.460   7.371   2.737
40106W        W 6647  23.168  36.476  12.794
40107W        W 6648   6.782  44.233  12.379
40108W        W 6649  25.490  28.164   2.314
40109W        W 6650  10.762  39.544   1.411
40110W        W 6651  16.535   0.542  12.360
40111W        W 6652  13.380  38.027   3.730
40112W        W 6653   2.688  42.437  12.823
40113W        W 6654   8.171  13.629   3.245
40114W        W 6655  43.338  34.189  11.153
40115W        W 6656  26.588  11.557   4.187
40116W        W 6657  13.253   5.818   4.525
40117W        W 6658  36.571  10.399  13.579
40118W        W 6659   0.823  34.963  12.828
40119W        W 6660   2.206  44.490   2.219
40120W        W 6661   4.898  20.199  12.496
40121W        W 6662   4.466   3.417  12.113
40122W        W 6663  43.321  33.239  14.448
40123W        W 6664  35.494   3.036  12.525
40124W        W 6665   0.930  29.116   4.058
40125W        W 6666   9.788  24.264  13.299
40126W        W 6667  34.928  34.324  13.813
40127W        W 6668   1.573  14.212  14.774
40128W        W 6669  42.332  17.061  13.251
40129W        W 6670  33.635   3.795   0.457
40130W        W 6671   2.238  25.535   1.368
40131W        W 6672  44.026  16.541  14.829
40132W        W 6673   4.441  14.605   4.274
40133W        W 6674  41.981  18.301  13.427
40134W        W 6675   0.268  29.363  11.112
40135W        W 6676  13.508  30.365  11.542
40136W        W 6677  19.181  29.070  13.169
40137W        W 6678  18.023  30.503  14.059
40138W        W 6679  15.308  40.832  11.021
40139W        W 6680  19.090  34.424   0.660
40140W        W 6681  27.174  25.473   2.706
40141W        W 6682   8.658  12.498   2.790
40142W        W 6683   2.764  30.470   0.302
40143W        W 6684  24.229  38.471  10.796
40144W        W 6685   9.086  26.048  12.988
40145W        W 6686  26.258   3.428  11.606
40146W        W 6687   6.938  43.090   0.862
40147W        W 6688   9.671  19.985   4.193
40148W        W 6689  31.582  10.905   2.232
40149W        W 6690   1.429  44.284  13.277
40150W        W 6691  38.604  36.205  11.161
40151W        W 6692  39.506  25.073  12.617
40152W        W 6693   7.803   3.529   9.922
40153W        W 6694  35.978  33.012   0.927
40154W        W 6695  14.202  35.863  10.718
40155W        W 6696   1.164  11.394  14.887
40156W        W 6697  43.397  32.911  13.147
40157W        W 6698   7.772  33.221   0.415
40158W        W 6699  29.586  39.095  14.534
40159W        W 6700  30.169  40.194  14.977
40160W        W 6701   8.602  38.824   3.225
40161W        W 6702  20.811  27.041   3.407
40162W        W 6703  44.722  43.370   3.590
40163W        W 6704  25.066  11.676   2.758
40164W        W 6705  27.151  16.643  13.786
40165W        W 6706   8.273  32.500  14.964
40166W        W 6707   3.896  30.010   3.770
40167W        W 6708  44.921   8.596  12.496
40168W        W 6709  32.127  25.480   5.155
40169W        W 6710  15.991  34.486  12.517
40170W        W 6711  19.576  38.887   2.235
40171W        W 6712  30.154  30.232  12.113
40172W        W 6713  42.404  10.596  14.788
40173W        W 6714  44.123   7.746  11.940
40174W        W 6715   1.389  32.537  13.934
40175W        W 6716  32.948  16.720  12.589
40176W        W 6717   7.310  17.675   4.433
40177W        W 6718  38.876  38.275   2.747
40178W        W 6719   4.663  39.310   2.354
40179W        W 6720  13.187   3.146  11.086
40180W        W 6721  34.676  19.745   1.717
40181W        W 6722  27.355  37.966   4.852
40182W        W 6723   2.885  17.332  11.093
40183W        W 6724  13.349  35.949  11.216
40184W        W 6725  30.054  16.306   2.372
40185W        W 6726  28.916  27.019   2.552
40186W        W 6727   2.282   2.191  11.551
40187W        W 6728  21.931  33.658  12.757
40188W        W 6729   3.957  12.437   4.171
40189W        W 6730   2.852  20.041   3.430
40190W        W 6731  24.264   5.837   3.177
40191W        W 6732  28.172  23.646   4.198
40192W        W 6733  27.452  44.979  13.873
40193W        W 6734   7.856   0.588  12.413
40194W        W 6735   3.838  21.591   2.561
40195W        W 6736  37.300   0.717  13.409
40196W        W 6737  38.028  32.584   4.365
40197W        W 6738  42.356  38.071   3.934
40198W        W 6739  35.904   8.959  12.520
40199W        W 6740   0.300  42.308  14.897
40200W        W 6741   6.386  12.993  12.492
40201W        W 6742  40.962   8.340  13.997
40202W        W 6743  10.102  17.304   4.630
40203W        W 6744   9.967  13.034  12.507
40204W        W 6745  19.727  21.905  11.485
40205W        W 6746  25.425  38.647  10.341
40206W        W 6747  20.006  33.765   3.872
40207W        W 6748  31.547  20.607  11.565
40208W        W 6749  33.049  11.647  13.144
40209W        W 6750  33.017  33.217  10.696
40210W        W 6751   3.604  21.280   5.104
40211W        W 6752  35.106  11.264   1.735
40212W        W 6753  21.146  34.357   3.863
40213W        W 6754  20.164  14.836   2.860
40214W        W 6755  24.721  39.998  13.150
40215W        W 6756   8.266  26.896   3.852
40216W        W 6757  28.680  40.412   4.092
40217W        W 6758  14.672  34.722  10.274
40218W        W 6759   3.385  14.388   3.278
40219W        W 6760  16.873  41.428   2.254
40220W        W 6761  22.100  16.346  14.839
40221W        W 6762  20.567  36.672   1.718
40222W        W 6763  32.000  31.661   4.476
40223W        W 6764  42.360   2.340   4.465
40224W        W 6765  10.749  28.640   2.719
40225W        W 6766  36.471  20.613  13.681
40226W        W 6767  33.525  28.827   0.175
40227W        W 6768  39.506  43.045  10.574
40228W        W 6769  35.494  25.458  14.355
40229W        W 6770  37.567   5.278  11.021
40230W        W 6771  39.566  20.085  14.725
40231W        W 6772   4.932  29.994   3.557
40232W        W 6773  28.555  39.991   3.768
40233W        W 6774   3.901  17.779   1.443
40234W        W 6775   5.043   1.997  12.557
40235W        W 6776  26.706  26.243   0.488
40236W        W 6777  37.478  17.004  12.042
40237W        W 6778   2.309  27.095   0.750
40238W        W 6779  20.653   0.463  13.818
40239W        W 6780  37.908   5.009   0.776
40240W        W 6781  34.993  26.646  12.615
40241W        W 6782   0.190  20.155  14.572
40242W        W 6783  31.713   9.172  11.180
40243W        W 6784  34.992  16.128  13.572
40244W        W 6785  28.447  16.700   2.840
40245W        W 6786   4.293  37.341   4.283
40246W        W 6787  22.151  28.527  14.525
40247W        W 6788  30.409  35.062  14.808
40248W        W 6789  23.028  23.178  12.172
40249W        W 6790  29.106  11.533   4.984
40250W        W 6791  39.911  36.908   4.582
40251W        W 6792  43.720   9.282   3.697
40252W        W 6793   1.284  22.112   1.722
40253W        W 6794  39.472  22.299   3.741
40254W        W 6795  14.132   8.150  11.557
40255W        W 6796  26.248  31.809  12.475
40256W        W 6797  27.008  35.031   0.293
40257W        W 6798  44.517  11.823   1.786
40258W        W 6799   2.834  26.684   2.841
40259W        W 6800  18.606  43.153  13.571
40260W        W 6801   1.252   1.242  11.634
40261W        W 6802  28.750   6.643   4.190
40262W        W 6803   9.342  24.361  13.782
40263W        W 6804   9.112  17.765  10.649
40264W        W 6805  43.690  28.448   0.207
40265W        W 6806  18.334  19.163   4.970
40266W        W 6807  16.554  14.167  10.506
40267W        W 6808  25.431   0.039   4.199
40268W        W 6809   6.264  15.660  11.117
40269W        W 6810  15.838  41.399  13.413
40270W        W 6811  43.094  31.960  13.433
40271W        W 6812  31.652  27.188   4.915
40272W        W 6813  26.510  16.807   3.200
40273W        W 6814   7.476  35.609  12.569
40274W        W 6815  13.198  11.448   2.438
40275W        W 6816   2.409  28.754   1.833
40276W        W 6817  42.917   3.531   0.834
40277W        W 6818  44.357   0.810   4.130
40278W        W 6819   1.125  36.358   0.242
40279W        W 6820   5.973   2.286  12.030
40280W        W 6821  21.135  12.494  14.722
40281W        W 6822   7.849  40.601  12.748
40282W        W 6823  39.610  39.765   4.410
40283W        W 6824  34.348  25.265  14.657
40284W        W 6825  13.345   5.892   4.001
40285W        W 6826  42.955  13.267   4.654
40286W        W 6827  12.724  41.547  11.554
40287W        W 6828  36.691  38.891   4.098
40288W        W 6829  40.849  42.833  12.393
40289W        W 6830  14.863  13.556  10.644
40290W        W 6831  15.925   2.240   0.879
40291W        W 6832  21.461  24.278  13.440
40292W        W 6833  25.913   6.654  10.736
40293W        W 6834  29.644   0.134   1.570
40294W        W 6835  43.086  41.814   4.539
40295W        W 6836   0.311  28.587  10.728
40296W        W 6837  12.104  25.498   0.350
40297W        W 6838  30.926  29.167   2.735
40298W        W 6839  30.991  29.619   1.216
40299W        W 6840   4.456  17.729  12.794
40300W        W 6841  10.343  44.480   0.776
40301W        W 6842   1.946  17.677  13.308
40302W        W 6843   5.417  12.638   2.865
40303W        W 6844  23.075  44.108   1.219
40304W        W 6845  25.730   0.991  12.432
40305W        W 6846  11.631   5.079   4.891
40306W        W 6847  35.842  25.091   2.337
40307W        W 6848  21.991  26.677  12.461
40308W        W 6849  12.816   7.637  13.615
40309W        W 6850  11.719  40.539  13.804
40310W        W 6851  12.744  32.138  13.422
40311W        W 6852  33.334  31.688  13.891
40312W        W 6853   9.330  33.059   1.475
40313W        W 6854  39.056  18.426  14.322
40314W        W 6855  38.777  27.150  13.986
40315W        W 6856  38.285  20.185   0.883
40316W        W 6857  22.088  33.311  10.616
40317W        W 6858   8.999  42.137   4.249
40318W        W 6859  15.694  25.944   3.634
40319W        W 6860  13.773  30.405   3.263
40320W        W 6861  12.664  15.484   4.450
40321W        W 6862  13.595   4.902   2.269
40322W        W 6863  22.498  30.889  11.669
40323W        W 6864   5.494  16.301  14.375
40324W        W 6865  36.288  13.221   4.436
40325W        W 6866  17.361  40.232  12.206
40326W        W 6867   7.785  30.950   0.699
40327W        W 6868  39.436  31.627  11.968
40328W        W 6869  17.710  31.165   1.877
40329W        W 6870  41.387   1.692  13.548
40330W        W 6871   8.683  18.633  12.418
40331W        W 6872   7.194  36.184  13.553
40332W        W 6873  37.918  29.418  11.567
40333W        W 6874  32.440  24.891  11.132
40334W        W 6875  34.125  35.943   1.678
40335W        W 6876  44.436  32.834   3.677
40336W        W 6877  10.472  19.508  13.079
40337W        W 6878   6.592  27.673   4.757
40338W        W 6879  13.630  29.435  13.420
40339W        W 6880  42.375   6.734  13.771
40340W        W 6881  32.698  25.455   2.314
40341W        W 6882   5.801  17.258  12.978
40342W        W 6883  24.166  39.209   4.606
40343W        W 6884  23.698  30.639   3.110
40344W        W 6885  35.119  30.568   0.320
40345W        W 6886   8.590  42.813   4.829
40346W        W 6887  34.829   2.441  12.125
40347W        W 6888   4.786  16.800  11.631
40348W        W 6889  43.081   6.421  11.482
40349W        W 6890   7.061   2.332   4.069
40350W        W 6891  26.080  26.888   1.324
40351W        W 6892  20.543  29.176   3.711
40352W        W 6893  30.710  35.126   3.618
40353W        W 6894  23.978  22.562   3.701
40354W        W 6895   4.878  11.696   2.171
40355W        W 6896  39.862  22.166   0.237
40356W        W 6897   4.312  35.736  11.592
40357W        W 6898  21.786  29.968   1.890
40358W        W 6899  43.535  27.359   0.427
40359W        W 6900  29.868  20.216  14.549
40360W        W 6901   2.960  44.872   0.439
40361W        W 6902  33.107   9.941   2.225
40362W        W 6903  21.181  28.935   0.830
40363W        W 6904  13.513  14.442   0.492
40364W        W 6905  16.187  43.111   2.455
40365W        W 6906  44.246  18.163   2.665
40366W        W 6907  33.578  34.297   4.664
40367W        W 6908   8.909  16.370   0.476
40368W        W 6909  10.719  17.832   3.882
40369W        W 6910  25.687  24.329  14.449
40370W        W 6911  16.755  22.262  14.752
40371W        W 6912   0.048  38.651  13.977
40372W        W 6913  11.967  43.589  11.650
40373W        W 6914  13.620  26.594  10.705
40374W        W 6915  16.695  38.271  11.152
40375W        W 6916   8.129  31.625  13.567
40376W        W 6917   1.300  15.690   0.912
40377W        W 6918  40.363  28.869   1.774
40378W        W 6919   2.784   4.901  12.883
40379W        W 6920  27.992   8.477  14.686
40380W        W 6921   6.920  15.331   2.637
40381W        W 6922  11.345  14.192  14.607
40382W        W 6923  44.362  14.282   2.963
40383W        W 6924  30.160  35.843  14.307
40384W        W 6925  38.492   9.209  13.974
40385W        W 6926   3.142  19.072  14.034
40386W        W 6927  15.299  32.981   4.443
40387W        W 6928  44.763  36.962   4.857
40388W        W 6929  13.111   3.128   2.645
40389W        W 6930   2.870  16.098  10.523
40390W        W 6931  37.816  23.458   0.411
40391W        W 6932   2.350  22.237  14.292
40392W        W 6933  24.962  40.177   1.669
40393W        W 6934  31.991   5.805  11.198
40394W        W 6935   8.912  37.414  14.563
40395W        W 6936  15.898  25.984  12.475
40396W        W 6937  15.283  31.436   4.542
40397W        W 6938  39.596  28.990   2.215
40398W        W 6939  27.929  11.186  11.590
40399W        W 6940  19.762  27.878   0.762
40400W        W 6941  42.257  33.622  13.454
40401W        W 6942  37.948   2.065  11.582
40402W        W 6943  23.476  21.093  11.132
40403W        W 6944  14.044  36.455   0.916
40404W        W 6945  43.521  12.538   9.769
40405W        W 6946  25.744  12.661  11.352
40406W        W 6947  21.131   8.772  11.174
40407W        W 6948  15.217  10.374  10.964
40408W        W 6949  25.239  11.540  14.838
40409W        W 6950  44.629  26.010  13.081
40410W        W 6951  13.416  20.272   4.360
40411W        W 6952  18.244  22.018   0.901
40412W        W 6953   8.504  44.355   0.974
40413W        W 6954   0.643  32.742  10.442
40414W        W 6955  25.532  39.322  12.641
40415W        W 6956   9.144  15.613   4.587
40416W        W 6957  31.014  29.221  14.360
40417W        W 6958  16.048  12.642   2.397
40418W        W 6959  15.168  39.082   1.243
40419W        W 6960  40.499   7.893  10.524
40420W        W 6961  24.050  17.869   0.387
40421W        W 6962  32.020   2.418   0.394
40422W        W 6963   7.097  32.305   1.789
40423W        W 6964   3.536  19.800  10.547
40424W        W 6965  13.406  44.519  11.625
40425W        W 6966  11.811  27.517  10.643
40426W        W 6967  43.106  38.024  11.177
40427W        W 6968   1.669  30.309   4.986
40428W        W 6969   6.263   7.886   3.846
40429W        W 6970  44.732  18.289   2.776
40430W        W 6971  19.266  10.630   2.977
40431W        W 6972  16.023  30.251  12.927
40432W        W 6973  31.124  15.805  12.241
40433W        W 6974  26.144  33.417  10.706
40434W        W 6975  12.146   0.936   1.400
40435W        W 6976  37.243  16.996   1.743
40436W        W 6977  28.079   3.741  13.868
40437W        W 6978  25.278   7.724   5.002
40438W        W 6979  33.940  18.307  14.983
40439W        W 6980  35.111  39.935  13.994
40440W        W 6981   8.574   7.780   0.357
40441W        W 6982   1.833  44.019  13.477
40442W        W 6983  14.379  42.735   1.715
40443W        W 6984  34.795  42.924   3.756
40444W        W 6985  33.134   6.421   2.761
40445W        W 6986  14.570  41.817  14.977
40446W        W 6987  35.507  27.749  10.698
40447W        W 6988   5.255  21.017   1.397
40448W        W 6989  38.688  32.414  11.489
40449W        W 6990   8.532  44.260  12.491
40450W        W 6991  30.009   6.095  11.766
40451W        W 6992  22.247   3.689  14.367
40452W        W 6993  20.697   9.945  13.451
40453W        W 6994  12.607   4.012  11.213
40454W        W 6995   4.078  29.168  12.800
40455W        W 6996  23.449  42.549   3.651
40456W        W 6997  44.492  42.512   5.336
40457W        W 6998  16.788  11.316  13.361
40458W        W 6999  21.264  13.113   2.269
40459W        W 7000  37.535  23.004   0.854
40460W        W 7001  38.011   8.974  13.941
40461W        W 7002  21.280  38.633  11.664
40462W        W 7003  14.843  44.609  14.315
40463W        W 7004  26.850  12.388  12.069
40464W        W 7005  26.578   4.720  11.559
40465W        W 7006   8.310  37.947   3.568
40466W        W 7007  34.131   3.538   3.144
40467W        W 7008  41.389  18.800   1.212
40468W        W 7009  43.851  34.662   2.792
40469W        W 7010  38.248  32.592   2.393
40470W        W 7011  19.403  16.898  12.013
40471W        W 7012   5.945  21.548  14.833
40472W        W 7013  12.731  25.205   4.214
40473W        W 7014  21.612  27.046   1.643
40474W        W 7015  37.431  12.208  11.498
40475W        W 7016  10.238  44.326   3.668
40476W        W 7017  41.967  21.548   0.620
40477W        W 7018  29.852  38.368  11.988
40478W        W 7019  15.611  14.704  12.743
40479W        W 7020  13.209  31.566  14.719
40480W        W 7021  10.685  43.499  12.688
40481W        W 7022  16.423  17.324   3.703
40482W        W 7023   1.998  33.597   0.908
40483W        W 7024  33.994  42.350   1.296
40484W        W 7025  23.994  37.297   4.538
40485W        W 7026  15.912   1.174   3.386
40486W        W 7027  29.590  40.192   2.479
40487W        W 7028  11.455  32.579   0.906
40488W        W 7029   4.672  38.601   4.080
40489W        W 7030  19.776  21.806   0.217
40490W        W 7031   8.197   8.731  13.542
40491W        W 7032  23.955  29.993  13.119
40492W        W 7033  34.522  40.793   2.197
40493W        W 7034  33.000  26.763   2.483
40494W        W 7035  43.209  22.180   4.118
40495W        W 7036  42.296  31.414  12.639
40496W        W 7037  30.730   1.976   5.193
40497W        W 7038   1.348  28.231   3.186
40498W        W 7039  33.370  18.148   1.769
40499W        W 7040  22.956   1.449  13.853
40500W        W 7041  25.766  23.466  14.718
40501W        W 7042  14.041  38.260   0.719
40502W        W 7043  42.206   7.195   0.522
40503W        W 7044  29.235  43.840   3.733
40504W        W 7045   9.796   5.285  14.200
40505W        W 7046  10.704   0.759   2.704
40506W        W 7047  35.755  12.327   3.158
40507W        W 7048   7.309  14.116   2.912
40508W        W 7049  25.988  28.620   2.684
40509W        W 7050  18.141   7.665  10.622
40510W        W 7051  41.784  15.705   1.146
40511W        W 7052  27.892  36.453   3.624
40512W        W 7053  14.703  24.316  11.445
40513W        W 7054  38.167   1.138   4.030
40514W        W 7055  10.058  38.491   3.237
40515W        W 7056  38.568  28.471  14.013
40516W        W 7057   1.393   3.708   1.838
40517W        W 7058  25.541  18.344   4.121
40518W        W 7059  11.319  37.789   1.290
40519W        W 7060  21.293   9.684   1.631
40520W        W 7061  17.066   8.895   2.634
40521W        W 7062  13.910  11.597   3.582
40522W        W 7063  39.359  36.885  13.050
40523W        W 7064   1.801  34.540   3.565
40524W        W 7065  34.995   3.485   3.427
40525W        W 7066  12.620   8.862  12.009
40526W        W 7067  44.853   2.671   3.193
40527W        W 7068  26.201  35.959   2.869
40528W        W 7069  43.815  18.285   4.213
40529W        W 7070  42.760   9.022  11.991
40530W        W 7071  14.073   8.670   4.591
40531W        W 7072  38.574  26.754   3.344
40532W        W 7073  35.506   2.708   0.330
40533W        W 7074   6.533  27.304  13.906
40534W        W 7075   5.935  33.089   5.125
40535W        W 7076   7.828  44.060   3.355
40536W        W 7077  38.200   9.516   3.199
40537W        W 7078  40.046  36.059   3.742
40538W        W 7079  27.968   5.151   3.585
40539W        W 7080  14.623  20.003  12.918
40540W        W 7081  44.017  35.484  11.113
40541W        W 7082  40.073  13.565   3.147
40542W        W 7083  28.633  35.604   0.927
40543W        W 7084  28.254   6.792   2.707
40544W        W 7085  13.562   0.673  11.133
40545W        W 7086  30.353  38.932   3.094
40546W        W 7087   1.216  28.407  14.063
40547W        W 7088   7.584  19.050  12.109
40548W        W 7089  43.444  21.025   0.677
40549W        W 7090  21.641  37.609   3.988
40550W        W 7091  13.360  30.108   3.271
40551W        W 7092   0.287  34.720  14.947
40552W        W 7093  14.032  26.667  13.195
40553W        W 7094  28.606  25.171   3.672
40554W        W 7095   9.143   7.354   0.839
40555W        W 7096   2.528   5.890   4.502
40556W        W 7097  14.453   3.409   5.081
40557W        W 7098   0.936  41.481  14.025
40558W        W 7099  29.164  16.787  13.138
40559W        W 7100  23.004  34.828  13.806
40560W        W 7101  12.319   4.420   4.297
40561W        W 7102  33.892   3.877   2.770
40562W        W 7103  27.748  25.650   4.040
40563W        W 7104  26.443  43.833  11.603
40564W        W 7105  12.143  16.599  10.357
40565W        W 7106  20.319  30.148  10.705
40566W        W 7107  19.512  11.660  10.189
40567W        W 7108  37.995  27.429   0.881
40568W        W 7109   8.881  17.332   1.333
40569W        W 7110   0.455   8.276   4.726
40570W        W 7111  28.533  29.580  11.479
40571W        W 7112  23.738   3.854   2.744
40572W        W 7113  33.915  13.670   2.869
40573W        W 7114  41.057   8.725   2.301
40574W        W 7115  43.534  42.298   2.851
40575W        W 7116   1.457  36.974  13.434
40576W        W 7117  41.712  42.241  13.791
40577W        W 7118  20.003  14.831   0.080
40578W        W 7119   4.733  42.664  11.321
40579W        W 7120  10.742  39.322  11.977
40580W        W 7121   7.915  18.211  12.183
40581W        W 7122  26.941  10.643  13.341
40582W        W 7123  14.024  42.916  12.480
40583W        W 7124   3.375  11.328  10.721
40584W        W 7125  10.239   6.634  10.540
40585W        W 7126  32.991  15.630   0.322
40586W        W 7127  20.224  18.897  13.572
40587W        W 7128   2.491  23.254   0.790
40588W        W 7129  37.626  18.702  12.302
40589W        W 7130  21.000   0.997  12.794
40590W        W 7131   5.760   8.638   3.425
40591W        W 7132  27.722  32.316   0.645
40592W        W 7133  12.910  43.932   0.311
40593W        W 7134  32.694  25.558   0.885
40594W        W 7135   5.224  20.730   0.939
40595W        W 7136  38.158  38.578   0.192
40596W        W 7137   5.289   5.668  11.538
40597W        W 7138  37.339   9.466  14.287
40598W        W 7139  10.201   3.463  12.713
40599W        W 7140  13.518  33.047  12.137
40600W        W 7141  10.868  35.124  14.405
40601W        W 7142   5.973  31.570   2.188
40602W        W 7143  20.646  16.106   3.829
40603W        W 7144  22.240  39.074   1.911
40604W        W 7145   3.463  30.407  12.319
40605W        W 7146  42.918  32.654   2.502
40606W        W 7147  13.610  40.787  10.721
40607W        W 7148  15.083  15.132  11.355
40608W        W 7149  13.929  11.210  10.688
40609W        W 7150  36.749  35.560   2.615
40610W        W 7151  34.310   4.448   4.595
40611W        W 7152   9.783  40.562   3.110
40612W        W 7153  20.583   6.369   0.447
40613W        W 7154  28.084  15.276  13.226
40614W        W 7155  11.356  24.460  13.347
40615W        W 7156  39.837  37.988  12.050
40616W        W 7157   6.286  30.048  10.465
40617W        W 7158  43.354  18.164   4.422
40618W        W 7159  43.593  19.862   1.850
40619W        W 7160  27.117  37.851  12.681
40620W        W 7161  38.319   6.360   3.401
40621W        W 7162  24.727   5.421  12.834
40622W        W 7163  43.675   5.518  13.519
40623W        W 7164  43.332   8.188  12.077
40624W        W 7165   9.242   0.932  11.248
40625W        W 7166  24.339   8.938   2.295
40626W        W 7167   3.638  41.513  14.771
40627W        W 7168  39.030  44.953   3.148
40628W        W 7169   5.140   9.582   2.732
40629W        W 7170  28.913  19.151   3.686
40630W        W 7171  15.903  37.871   4.069
40631W        W 7172  19.012  33.133   2.748
40632W        W 7173   1.259  10.134  11.872
40633W        W 7174  25.193  20.253  14.838
40634W        W 7175  31.253   7.266   3.857
40635W        W 7176   9.700  38.027  10.653
40636W        W 7177  32.223  15.755   4.350
40637W        W 7178  30.287  25.743   2.733
40638W        W 7179   5.346  35.171  13.000
40639W        W 7180   4.529  32.053  10.569
40640W        W 7181  11.574  22.976   2.671
40641W        W 7182  20.486  24.641  11.331
40642W        W 7183  20.136  18.867   3.976
40643W        W 7184  16.825  16.240   3.694
40644W        W 7185  25.542  23.919  11.552
40645W        W 7186   4.093   8.805   3.278
40646W        W 7187  10.384   6.965  14.387
40647W        W 7188   4.279  27.647   1.502
40648W        W 7189   9.149  21.922   0.527
40649W        W 7190  22.126  27.394   3.579
40650W        W 7191  32.490   6.710  11.945
40651W        W 7192  38.655  27.128  12.495
40652W        W 7193   3.743   8.236  14.902
40653W        W 7194  20.985  12.678  11.717
40654W        W 7195  44.473  39.392  12.381
40655W        W 7196  31.738  28.170   0.525
40656W        W 7197  12.501   6.776   1.836
40657W        W 7198  16.313   1.316   3.051
40658W        W 7199  28.036  35.045  14.983
40659W        W 7200  10.958   1.998   5.095
40660W        W 7201  30.075   0.641   4.805
40661W        W 7202  34.495  23.694  13.405
40662W        W 7203  13.861   7.419   1.188
40663W        W 7204  12.864  12.406  11.458
40664W        W 7205   4.763  26.185   3.055
40665W        W 7206  18.364   8.745  13.337
40666W        W 7207   0.797  39.857  14.385
40667W        W 7208  10.956  16.608  11.432
40668W        W 7209  11.618  34.247   3.171
40669W        W 7210  13.323  25.958   4.690
40670W        W 7211   9.302   4.491  13.499
40671W        W 7212  42.081  33.030   4.852
40672W        W 7213  36.971  40.257   0.299
40673W        W 7214  17.291  10.673  13.175
40674W        W 7215   1.992   8.009  13.078
40675W        W 7216   7.866  33.567   3.632
40676W        W 7217   4.660  37.901  11.171
40677W        W 7218  27.587   1.536  12.899
40678W        W 7219  20.102  11.822  13.178
40679W        W 7220  25.506  44.819   1.315
40680W        W 7221  38.995   6.329   1.424
40681W        W 7222   0.559  38.019  10.524
40682W        W 7223  26.755   0.356  13.062
40683W        W 7224  25.054  23.005   0.036
40684W        W 7225  10.477   3.840   2.790
40685W        W 7226  22.229   9.392  14.943
40686W        W 7227  10.621   6.473   0.286
40687W        W 7228   4.608  43.389   3.799
40688W        W 7229  20.684   8.143   2.131
40689W        W 7230  44.341  44.324   3.268
40690W        W 7231   4.703  17.679  13.658
40691W        W 7232   8.714  20.030   3.951
40692W        W 7233  28.198  18.316  13.837
40693W        W 7234   4.441  15.618  13.422
40694W        W 7235  22.193   4.861   0.412
40695W        W 7236  26.612   9.190  11.835
40696W        W 7237   9.201  16.635  11.185
40697W        W 7238   6.408  12.079  13.896
40698W        W 7239  35.458  28.889   0.433
40699W        W 7240   3.730  35.450   3.619
40700W        W 7241  32.225  21.227   0.912
40701W        W 7242   2.428   5.770  14.908
40702W        W 7243  10.639  26.579   0.862
40703W        W 7244   2.317  35.385   2.836
40704W        W 7245   0.883  28.424  12.837
40705W        W 7246  42.972  28.241   2.236
40706W        W 7247  22.024  25.826  10.997
40707W        W 7248  18.320  34.877   4.673
40708W        W 7249  36.097  31.362  13.947
40709W        W 7250  35.068  19.983  13.927
40710W        W 7251  37.017  25.922   0.768
40711W        W 7252  40.792  26.143   2.715
40712W        W 7253  18.007  12.907  10.206
40713W        W 7254   2.388   9.579   4.250
40714W        W 7255  30.609  33.464  13.986
40715W        W 7256  30.836   8.821  11.608
40716W        W 7257  37.815  42.145   3.249
40717W        W 7258  25.412   8.734   0.345
40718W        W 7259  14.997  34.210  14.043
40719W        W 7260  33.181  35.083  14.604
40720W        W 7261  10.733   3.416   2.580
40721W        W 7262  36.690   0.603  11.517
40722W        W 7263  15.554  34.503  13.285
40723W        W 7264  43.514  10.900  11.196
40724W        W 7265  39.437  31.561  10.435
40725W        W 7266   4.913   4.307  12.811
40726W        W 7267   1.347  19.352  14.707
40727W        W 7268   7.396  15.100   1.948
40728W        W 7269  43.002  21.225   4.242
40729W        W 7270  28.594   0.975   4.221
40730W        W 7271  21.213  28.818  11.606
40731W        W 7272  29.444   7.811  10.765
40732W        W 7273  11.609   7.490  12.098
40733W        W 7274   6.741  10.933  13.572
40734W        W 7275  22.975  14.371   3.336
40735W        W 7276  41.885  39.489   4.908
40736W        W 7277   1.764  33.466  14.227
40737W        W 7278  10.410   2.292  14.339
40738W        W 7279  22.365   0.748  10.710
40739W        W 7280   9.116  37.455   4.754
40740W        W 7281   3.965  24.100   1.010
40741W        W 7282  41.645   0.321  10.900
40742W        W 7283  13.131  12.791   2.399
40743W        W 7284  36.693   7.199  11.933
40744W        W 7285  26.015  40.336  12.956
40745W        W 7286   1.417  38.779   1.425
40746W        W 7287  27.020   5.040  11.165
40747W        W 7288  18.744  32.599  14.438
40748W        W 7289  16.425   6.011  13.101
40749W        W 7290   8.898   4.380  11.596
40750W        W 7291   0.074   9.852   2.841
40751W        W 7292   1.480  35.580  13.793
40752W        W 7293  21.173   4.199   1.569
40753W        W 7294  29.010  21.682  13.161
40754W        W 7295  21.079  15.887   0.421
40755W        W 7296  42.722   0.851   3.231
40756W        W 7297  42.641   5.855   2.127
40757W        W 7298  15.001  42.342  14.441
40758W        W 7299  17.119  28.602   2.761
40759W        W 7300  16.215  38.365   2.776
40760W        W 7301  37.254  16.323   4.318
40761W        W 7302  28.567  44.880   1.820
40762W        W 7303  23.485  20.733   1.358
40763W        W 7304  35.569  41.583   2.695
40764W        W 7305  36.696  43.760  11.333
40765W        W 7306  34.845  25.514  13.422
40766W        W 7307  24.220  20.514   2.473
40767W        W 7308  44.080  38.895   3.841
40768W        W 7309  17.582  41.561  12.276
40769W        W 7310  40.919   5.246   2.609
40770W        W 7311   0.894   1.540   1.392
40771W        W 7312  40.987   4.511  13.697
40772W        W 7313  36.287   3.674   3.666
40773W        W 7314  30.996  10.784   0.557
40774W        W 7315  37.008  42.543  12.785
40775W        W 7316  22.848  42.008  11.041
40776W        W 7317  36.845  24.198  14.905
40777W        W 7318  20.571  30.872   1.673
40778W        W 7319  41.189  26.202  14.770
40779W        W 7320  18.718  19.349   1.591
40780W        W 7321  21.694  37.021   1.411
40781W        W 7322  20.089  41.276  11.149
40782W        W 7323  41.851  44.366   1.186
40783W        W 7324  13.655  23.410   2.928
40784W        W 7325  37.991   8.188  13.464
40785W        W 7326  26.670  22.656  13.923
40786W        W 7327  22.294  41.848  10.635
40787W        W 7328  21.645  17.912   5.644
40788W        W 7329   9.265  10.398   2.633
40789W        W 7330  44.337  30.187  13.951
40790W        W 7331  22.217  19.404  12.146
40791W        W 7332  23.069   3.224   1.753
40792W        W 7333  22.362  44.507  13.937
40793W        W 7334  31.665  31.414  11.803
40794W        W 7335  19.532  31.415  12.069
40795W        W 7336  11.789   6.993  11.136
40796W        W 7337  28.171  23.073  14.839
40797W        W 7338  19.177  40.270  11.093
40798W        W 7339   2.187  44.018   1.933
40799W        W 7340  34.568  24.292  14.488
40800W        W 7341   8.831  36.388  11.173
40801W        W 7342  38.266  17.211   0.929
40802W        W 7343  16.104  42.814   0.549
40803W        W 7344  12.603   0.221  14.019
40804W        W 7345  36.234   9.898   4.337
40805W        W 7346   2.714  16.762   0.387
40806W        W 7347  20.224  39.904  14.818
40807W        W 7348  35.583  17.659  14.207
40808W        W 7349  15.056  11.231   0.362
40809W        W 7350   6.927  26.936   1.465
40810W        W 7351  31.092  32.388   4.049
40811W        W 7352  32.921  34.093   2.852
40812W        W 7353  14.585  34.924   2.660
40813W        W 7354  28.962  40.315   3.666
40814W        W 7355  23.022   0.892   0.737
40815W        W 7356  32.994  41.950   3.774
40816W        W 7357  20.145   3.450   0.990
40817W        W 7358  22.758   6.674  12.820
40818W        W 7359  20.300  35.758   4.937
40819W        W 7360  28.886  16.585   1.229
40820W        W 7361  28.055  25.911   3.707
40821W        W 7362  11.908  37.654  12.136
40822W        W 7363   4.320  26.170  13.399
40823W        W 7364   2.339  14.098  13.435
40824W        W 7365  27.982  17.222   2.318
40825W        W 7366  22.303   7.759   2.817
40826W        W 7367  37.292  11.347   4.858
40827W        W 7368  44.324  15.137   4.325
40828W        W 7369  36.334  14.757   3.645
40829W        W 7370  42.101  39.439  14.310
40830W        W 7371   0.913  13.745  12.573
40831W        W 7372   9.457  12.298  11.365
40832W        W 7373  16.335  25.286   4.277
40833W        W 7374  20.683   0.838  11.540
40834W        W 7375   5.252  42.777   3.907
40835W        W 7376  44.751  15.917  10.481
40836W        W 7377  33.899  39.063   0.025
40837W        W 7378  16.613  22.452   0.234
40838W        W 7379   4.910  10.488   3.924
40839W        W 7380  18.785   1.792  14.776
40840W        W 7381   2.274   5.701  13.931
40841W        W 7382  30.149  32.385   4.805
40842W        W 7383  40.441  44.437   0.018
40843W        W 7384  11.091   6.210  13.386
40844W        W 7385  20.459   4.318  11.576
40845W        W 7386   9.874  42.451  13.458
40846W        W 7387   6.812  37.487   4.162
40847W        W 7388  41.450   2.210  11.611
40848W        W 7389  31.486  41.878  14.340
40849W        W 7390  23.315   8.280   1.785
40850W        W 7391   9.975  42.305   1.891
40851W        W 7392  29.351  24.753  12.095
40852W        W 7393  35.345  35.160  14.073
40853W        W 7394   2.244   9.905   3.355
40854W        W 7395   1.667  39.340  11.271
40855W        W 7396  38.433   9.888  12.892
40856W        W 7397  32.042  27.459  10.781
40857W        W 7398   2.381  30.317  11.324
40858W        W 7399   3.185  32.560  14.617
40859W        W 7400  15.239  35.972   0.322
40860W        W 7401   9.221  12.065  11.774
40861W        W 7402  29.607  34.445   0.383
40862W        W 7403  24.769  40.388   2.107
40863W        W 7404   8.115  25.526   3.718
40864W        W 7405  14.117   5.724  11.225
40865W        W 7406   9.132  18.352  14.920
40866W        W 7407  39.443  12.942  12.056
40867W        W 7408  25.146  41.842   4.925
40868W        W 7409  15.352  10.844  12.123
40869W        W 7410  42.452   0.050  11.627
40870W        W 7411  30.575  31.047   1.283
40871W        W 7412   4.793  27.146  13.949
40872W        W 7413  30.968  23.751   0.274
40873W        W 7414  43.658   0.309   4.654
40874W        W 7415  18.666  39.592   2.504
40875W        W 7416  14.485   2.981  12.593
40876W        W 7417  27.588  42.380  14.947
40877W        W 7418  33.095  19.253  12.038
40878W        W 7419   5.624  29.157  12.908
40879W        W 7420  44.334  12.379  12.551
40880W        W 7421  44.889  41.343   4.014
40881W        W 7422  12.125  39.872   2.291
40882W        W 7423  41.523  28.201  12.081
40883W        W 7424   6.743   5.694   4.103
40884W        W 7425  27.438  14.398  13.937
40885W        W 7426  23.173  31.155  13.586
40886W        W 7427  42.626  37.365  13.989
40887W        W 7428  11.374   3.484  13.924
40888W        W 7429  30.264  39.293   0.343
40889W        W 7430  37.708  13.679   9.771
40890W        W 7431   8.400  12.579  11.037
40891W        W 7432  25.966  14.150   2.866
40892W        W 7433  35.872  13.309   3.449
40893W        W 7434  11.284  15.394  12.427
40894W        W 7435  30.152  12.434   1.759
40895W        W 7436  26.193   5.042   3.667
40896W        W 7437  32.667  14.250   4.300
40897W        W 7438  41.409  39.346  11.585
40898W        W 7439  11.609   1.839  12.449
40899W        W 7440  41.239  10.315  14.301
40900W        W 7441  42.968  30.601  14.413
40901W        W 7442  17.001   4.913  12.881
40902W        W 7443  22.544  14.051  11.701
40903W        W 7444  41.122  43.443   0.457
40904W        W 7445  29.887  26.245   0.357
40905W        W 7446  34.453  23.952  10.717
40906W        W 7447  21.467  23.199   2.144
40907W        W 7448  36.919   7.090  13.015
40908W        W 7449   7.826  17.315  14.015
40909W        W 7450   3.933   3.316  10.245
40910W        W 7451  20.243  33.082   2.330
40911W        W 7452   6.320  17.311   4.082
40912W        W 7453  13.175   2.138   4.396
40913W        W 7454  26.724  18.581   3.747
40914W        W 7455  36.411  30.875   2.234
40915W        W 7456  37.476  15.152  14.973
40916W        W 7457  38.057  19.143  13.002
40917W        W 7458  44.819  37.425   3.530
40918W        W 7459  40.246  34.044  13.416
40919W        W 7460   6.192  41.411  11.052
40920W        W 7461  15.675   4.503  10.681
40921W        W 7462  33.297  20.965  12.559
40922W        W 7463   3.393   7.790  10.428
40923W        W 7464  22.509  12.986  10.329
40924W        W 7465  14.858  14.560  14.869
40925W        W 7466   0.831  43.583   3.190
40926W        W 7467  31.565   2.200   1.360
40927W        W 7468  28.546  22.871  12.809
40928W        W 7469  14.191  12.143   2.066
40929W        W 7470  42.961  36.744   3.187
40930W        W 7471  30.461  25.985   4.743
40931W        W 7472  27.603  37.310   1.256
40932W        W 7473  14.035  12.389   3.559
40933W        W 7474  17.010  24.352   1.688
40934W        W 7475  10.008   7.015   3.873
40935W        W 7476  32.879  40.773  10.659
40936W        W 7477  13.315  15.226  12.525
40937W        W 7478  29.960  44.270   4.830
40938W        W 7479  43.308  13.559  12.978
40939W        W 7480  34.408   7.742   1.319
40940W        W 7481  41.260  22.704   2.324
40941W        W 7482  32.600  17.674  13.954
40942W        W 7483  14.371  21.105  12.145
40943W        W 7484  34.888  30.930  14.122
40944W        W 7485  44.945  14.461   1.362
40945W        W 7486  40.303   6.477  12.930
40946W        W 7487  31.913  37.365   4.830
40947W        W 7488  40.046  11.570  10.226
40948W        W 7489  19.750  15.050  12.100
40949W        W 7490  14.674   6.809   3.255
40950W        W 7491  12.845  43.282  12.463
40951W        W 7492   0.209  28.536   2.241
40952W        W 7493  21.319  33.450   3.630
40953W        W 7494   2.040  31.504   3.111
40954W        W 7495  24.548  21.021  13.912
40955W        W 7496   0.364  12.891  10.657
40956W        W 7497  22.640  19.393   1.865
40957W        W 7498   3.710   2.942   0.615
40958W        W 7499   8.926  29.026   4.532
40959W        W 7500  42.551  34.332  12.978
40960W        W 7501  44.298   5.315  11.593
40961W        W 7502   5.428   8.191  14.457
40962W        W 7503  10.428  38.291   1.446
40963W        W 7504  15.945  12.747  10.051
40964W        W 7505  39.966   5.172  14.452
40965W        W 7506  24.128   6.353   0.877
40966W        W 7507   0.749  38.373   2.342
40967W        W 7508   3.270  40.303   1.163
40968W        W 7509  40.473  41.509   4.658
40969W        W 7510  27.238  23.804  12.047
40970W        W 7511  20.848  28.177  11.241
40971W        W 7512  14.357   8.337   2.332
40972W        W 7513  30.556  16.809   2.792
40973W        W 7514  42.533  43.697  14.104
40974W        W 7515  39.795  35.149  14.547
40975W        W 7516  36.330   0.988   1.791
40976W        W 7517  14.141  31.007   3.008
40977W        W 7518   4.720  17.894   2.703
40978W        W 7519  26.322  26.113   2.721
40979W        W 7520  37.986  13.357   0.004
40980W        W 7521   5.327  12.277   0.147
40981W        W 7522  23.543   1.800   4.512
40982W        W 7523  23.671  22.951  12.763
40983W        W 7524  30.313  33.802  12.024
40984W        W 7525  22.019  39.414   4.346
40985W        W 7526   3.304  29.185   2.820
40986W        W 7527  25.945  10.748  14.720
40987W        W 7528  36.374  26.953  13.328
40988W        W 7529  31.919  38.079   1.867
40989W        W 7530  24.252  11.812   3.630
40990W        W 7531  34.347   9.769   0.313
40991W        W 7532  42.340  33.186  12.618
40992W        W 7533  23.326  26.246   4.730
40993W        W 7534  20.100   3.305  14.439
40994W        W 7535  18.791  30.744   2.790
40995W        W 7536   9.401  28.205   2.726
40996W        W 7537  12.145   2.987  14.792
40997W        W 7538  39.995  19.082  13.011
40998W        W 7539  27.186  34.139  14.341
40999W        W 7540  42.523  13.779  14.237
41000W        W 7541  30.966  38.412   0.658
41001W        W 7542  35.621  33.599  11.942
41002W        W 7543  41.929  14.208   2.311
41003W        W 7544  22.113   6.934   1.006
41004W        W 7545  13.814  26.605   4.417
41005W        W 7546   9.925  14.271  10.449
41006W        W 7547  10.342   8.441  13.048
41007W        W 7548  18.742  17.345  11.706
41008W        W 7549   6.064  12.354  11.528
41009W        W 7550   3.268  43.353   1.372
41010W        W 7551  40.024   5.402  12.636
41011W        W 7552  26.848  21.514  13.581
41012W        W 7553  16.216   4.200   4.051
41013W        W 7554   5.296  39.365  10.767
41014W        W 7555  19.769  40.269  13.597
41015W        W 7556  18.988  27.660  10.560
41016W        W 7557  43.382   8.936   3.086
41017W        W 7558  19.422  16.337   2.503
41018W        W 7559  36.768  12.147  11.088
41019W        W 7560  24.710  19.993   3.861
41020W        W 7561   1.414   9.338   4.613
41021W        W 7562  11.776  37.522  14.103
41022W        W 7563  26.065  40.069  13.438
41023W        W 7564  36.341   0.399  12.637
41024W        W 7565   6.305   1.906  12.112
41025W        W 7566   1.678  35.008  12.185
41026W        W 7567  15.802  17.140  10.671
41027W        W 7568  44.686  40.944   3.197
41028W        W 7569  10.396   8.929   0.960
41029W        W 7570  15.566  26.571   5.416
41030W        W 7571  19.497  15.359   4.572
41031W        W 7572  26.523  25.955  13.560
41032W        W 7573  34.907  11.903  14.915
41033W        W 7574   6.763  15.489  13.226
41034W        W 7575  16.314  17.284  13.360
41035W        W 7576   6.305  38.526   4.917
41036W        W 7577  44.730  23.665  13.527
41037W        W 7578   0.929  24.433  11.861
41038W        W 7579  41.259  27.182   0.049
41039W        W 7580  12.889  16.217  13.975
41040W        W 7581   0.793   2.952   2.546
41041W        W 7582  33.680  31.180   1.613
41042W        W 7583  30.601  31.664  14.836
41043W        W 7584  34.965  34.066   2.701
41044W        W 7585  30.540  32.002   4.617
41045W        W 7586  26.976  22.056   2.737
41046W        W 7587  41.600  24.079   3.651
41047W        W 7588  39.772  10.182  11.616
41048W        W 7589  19.188   3.285   1.468
41049W        W 7590   3.994  33.263   2.723
41050W        W 7591   9.303  23.530   4.594
41051W        W 7592  17.074  17.693   2.904
41052W        W 7593  28.663   2.578   3.631
41053W        W 7594  29.474  41.307  13.298
41054W        W 7595  11.888  27.938   2.803
41055W        W 7596  25.633  21.254  14.172
41056W        W 7597  11.882  18.222  13.390
41057W        W 7598  17.021  10.412   2.367
41058W        W 7599   6.235  33.655   3.283
41059W        W 7600  13.594  29.065   1.928
41060W        W 7601  38.268  40.844   4.600
41061W        W 7602  29.044  28.871  13.271
41062W        W 7603  14.080  36.025   1.907
41063W        W 7604  22.256  21.036   3.662
41064W        W 7605  37.345  34.524  12.860
41065W        W 7606  30.511   1.787   0.835
41066W        W 7607  35.114   5.925   1.857
41067W        W 7608  34.600  38.893  13.579
41068W        W 7609  28.706  44.770   3.214
41069W        W 7610  28.091  33.822   4.754
41070W        W 7611   1.771   8.877  12.918
41071W        W 7612  13.804  42.925   0.364
41072W        W 7613  37.935  10.904   1.464
41073W        W 7614  41.376  42.432  12.895
41074W        W 7615  29.400   0.524   4.305
41075W        W 7616  28.450  32.198  13.902
41076W        W 7617  43.344  12.895   2.739
41077W        W 7618  25.086  19.971   0.255
41078W        W 7619  27.028  11.648   4.497
41079W        W 7620  38.791  12.334  10.603
41080W        W 7621  30.067  23.977   0.367
41081W        W 7622  38.794  41.023  12.367
41082W        W 7623  34.518  28.718  13.835
41083W        W 7624  32.121  18.581   4.057
41084W        W 7625  35.091  43.333   3.677
41085W        W 7626  34.970   7.309   0.489
41086W        W 7627  17.811  26.584  12.869
41087W        W 7628  30.147  34.922  13.975
41088W        W 7629   8.906  18.856   2.555
41089W        W 7630   6.516  19.259  11.132
41090W        W 7631  11.340  29.104   1.784
41091W        W 7632   7.862  43.303  13.857
41092W        W 7633  18.819  32.361   1.828
41093W        W 7634  36.229   7.110  11.072
41094W        W 7635   4.206  34.995   4.534
41095W        W 7636  33.558   4.158   1.817
41096W        W 7637  40.025  20.207   2.085
41097W        W 7638  35.440  27.450  13.964
41098W        W 7639   2.306  25.094   0.419
41099W        W 7640  34.591   8.168   3.630
41100W        W 7641   9.866  22.230   2.828
41101W        W 7642  43.774   9.630   4.557
41102W        W 7643   6.952  16.258   4.922
41103W        W 7644   9.660   2.565   3.270
41104W        W 7645  22.936   1.391   3.380
41105W        W 7646  16.969  24.603   4.939
41106W        W 7647  13.770  42.798  12.928
41107W        W 7648  20.300  25.204   4.488
41108W        W 7649  37.073  44.596  14.918
41109W        W 7650   2.789  27.647   1.288
41110W        W 7651   3.437  27.272   3.515
41111W        W 7652  22.386  17.153  11.624
41112W        W 7653  31.928  24.246  11.979
41113W        W 7654  26.700   0.377  11.246
41114W        W 7655  39.493  25.200   4.147
41115W        W 7656   6.702   4.316  13.805
41116W        W 7657  24.967  12.338  13.416
41117W        W 7658  36.822  14.684   3.472
41118W        W 7659  42.259  40.062  10.934
41119W        W 7660  43.437   3.684   0.569
41120W        W 7661  41.764   9.129   3.565
41121W        W 7662  25.735  16.019   1.828
41122W        W 7663   2.181   6.251   2.747
41123W        W 7664  31.343  26.145   2.209
41124W        W 7665  42.078  41.329  14.738
41125W        W 7666  23.429  33.230  12.619
41126W        W 7667   2.871  24.070  12.755
41127W        W 7668  34.698   1.218   4.158
41128W        W 7669  26.259  31.924   0.975
41129W        W 7670  28.593   6.729  14.791
41130W        W 7671   9.156  31.594   1.413
41131W        W 7672  13.873  37.843   1.021
41132W        W 7673  34.130  18.047   2.324
41133W        W 7674  27.107   7.378  11.692
41134W        W 7675  13.371   0.966  14.822
41135W        W 7676   4.673  39.920  14.545
41136W        W 7677  31.145  27.557  10.926
41137W        W 7678  18.291  36.003  12.965
41138W        W 7679  19.207  38.355   3.727
41139W        W 7680  15.280  32.784  11.478
41140W        W 7681  25.127   0.780   0.346
41141W        W 7682   8.650  43.748   1.223
41142W        W 7683  20.167  27.838   2.809
41143W        W 7684  41.419  33.618  12.973
41144W        W 7685  18.755  19.256  11.917
41145W        W 7686   8.761  12.076   3.095
41146W        W 7687   8.626  31.017   3.600
41147W        W 7688   8.653   0.869  14.928
41148W        W 7689  28.929  26.016   1.339
41149W        W 7690  17.848  19.051  10.678
41150W        W 7691  37.820  27.077   4.523
41151W        W 7692  23.249  41.359   4.071
41152W        W 7693  20.086   9.879  14.841
41153W        W 7694  28.039  20.595   3.576
41154W        W 7695  22.720  22.227  14.791
41155W        W 7696  11.349  33.915   3.912
41156W        W 7697   2.170  28.711  13.089
41157W        W 7698  43.452  14.311  14.292
41158W        W 7699  26.745   5.986  12.413
41159W        W 7700  12.289   2.095   2.576
41160W        W 7701  20.318  15.499  11.377
41161W        W 7702  12.856  26.443   2.765
41162W        W 7703  43.205   6.357  14.905
41163W        W 7704  34.922  28.158   4.533
41164W        W 7705   5.735   5.817  10.661
41165W        W 7706   7.745  39.482  13.866
41166W        W 7707  27.124  43.763  13.431
41167W        W 7708  12.137  33.317  12.048
41168W        W 7709  13.133  31.904   1.991
41169W        W 7710  16.333  27.995   3.334
41170W        W 7711  11.113  12.623   2.353
41171W        W 7712   7.205  41.897   3.563
41172W        W 7713  34.538   9.148   1.944
41173W        W 7714  30.992  22.081  13.836
41174W        W 7715  21.490  29.427  14.558
41175W        W 7716  36.622  37.459   2.328
41176W        W 7717  35.143  24.892   1.376
41177W        W 7718  17.432  26.031  12.626
41178W        W 7719  37.635  17.537  11.952
41179W        W 7720  28.595  15.301  10.008
41180W        W 7721   4.923   1.312   3.187
41181W        W 7722  25.498   4.731   3.156
41182W        W 7723  44.446   8.368   1.201
41183W        W 7724  31.877  38.453  14.855
41184W        W 7725  26.177  32.924   1.021
41185W        W 7726  36.045   1.174  12.418
41186W        W 7727   4.346  18.906  11.096
41187W        W 7728  14.662  38.219   4.553
41188W        W 7729  16.763  39.552  12.078
41189W        W 7730  29.652  36.443  11.216
41190W        W 7731  42.151  23.728  12.627
41191W        W 7732  27.865  36.110   4.117
41192W        W 7733  34.331  15.046   2.799
41193W        W 7734  24.186  37.378   3.520
41194W        W 7735  23.157  38.947   4.550
41195W        W 7736  25.639  38.244  13.564
41196W        W 7737  27.946  18.245   3.361
41197W        W 7738   4.606   9.529  11.221
41198W        W 7739  11.910  20.764   0.761
41199W        W 7740  44.560  38.824   0.089
41200W        W 7741  20.023  23.582  11.399
41201W        W 7742   3.208  42.471   2.444
41202W        W 7743  36.426  34.531  12.146
41203W        W 7744  16.594  35.946   0.713
41204W        W 7745   0.700  22.809   1.822
41205W        W 7746  16.882   6.338   1.905
41206W        W 7747  39.999  20.747   3.887
41207W        W 7748  38.239  26.965   2.345
41208W        W 7749  43.408  32.811   2.454
41209W        W 7750  23.676  14.866   0.412
41210W        W 7751  28.375  31.098  14.549
41211W        W 7752   2.486  29.172   3.225
41212W        W 7753   3.688  33.102   4.489
41213W        W 7754  27.644  20.996   1.346
41214W        W 7755  13.083  16.284  11.377
41215W        W 7756  12.007  28.268  12.924
41216W        W 7757  38.075  33.314  11.144
41217W        W 7758   5.307   8.645   1.794
41218W        W 7759   4.662  12.525  14.432
41219W        W 7760  35.412  29.647   0.764
41220W        W 7761  19.816  17.120   4.042
41221W        W 7762  44.350  14.294   2.444
41222W        W 7763  40.364  34.070  12.142
41223W        W 7764  34.824  31.064   1.446
41224W        W 7765  25.990  27.478  12.345
41225W        W 7766  26.053   5.460   0.792
41226W        W 7767   2.890  44.464  10.244
41227W        W 7768  20.796  24.370  12.133
41228W        W 7769  31.684  13.340   0.249
41229W        W 7770   7.261  26.453  14.700
41230W        W 7771  24.082   8.580   5.348
41231W        W 7772  37.859  10.626   4.752
41232W        W 7773  29.629   9.500  12.967
41233W        W 7774  18.024  43.935   0.823
41234W        W 7775   0.546  25.790  12.994
41235W        W 7776  30.195   2.863   0.754
41236W        W 7777  10.291  18.543   2.668
41237W        W 7778  21.188  34.633  12.869
41238W        W 7779   9.831  39.938  14.719
41239W        W 7780  42.408   1.234   0.720
41240W        W 7781  20.908   2.592   5.005
41241W        W 7782  42.473  21.081   4.290
41242W        W 7783   2.301  13.114   4.486
41243W        W 7784  11.821  27.563  12.940
41244W        W 7785   2.841  30.929   3.112
41245W        W 7786  20.638  26.383   2.839
41246W        W 7787  33.064  37.062  14.904
41247W        W 7788  31.039  24.264  11.491
41248W        W 7789  34.745  41.750  13.950
41249W        W 7790  24.769  36.929  13.511
41250W        W 7791  38.246  25.846  14.462
41251W        W 7792  18.188  36.366  14.727
41252W        W 7793  36.785   6.498   0.744
41253W        W 7794   5.405   8.258  12.481
41254W        W 7795  38.866  21.650   2.207
41255W        W 7796  39.051   6.262  13.019
41256W        W 7797   8.715  13.869   2.813
41257W        W 7798  38.579  39.990  14.302
41258W        W 7799  17.318  39.152  13.854
41259W        W 7800  21.560  22.302  12.151
41260W        W 7801   6.257  21.349  12.462
41261W        W 7802  28.912   0.677   1.301
41262W        W 7803   5.861   0.977   2.666
41263W        W 7804   2.215  36.979   1.165
41264W        W 7805  30.328  29.173   0.928
41265W        W 7806  28.026   9.827  13.811
41266W        W 7807  20.918  38.737   0.386
41267W        W 7808  40.373  12.415  10.319
41268W        W 7809   4.130  34.003  13.802
41269W        W 7810   6.285   8.640  11.947
41270W        W 7811  17.887  30.883   3.809
41271W        W 7812   9.644  17.594  12.352
41272W        W 7813  22.994  35.344  10.816
41273W        W 7814   3.372  42.106   0.464
41274W        W 7815  21.939  43.432   0.754
41275W        W 7816  38.878  20.478   3.902
41276W        W 7817  34.301  23.642   4.455
41277W        W 7818   2.221  16.218  12.278
41278W        W 7819  21.259  20.353   0.656
41279W        W 7820   3.320  20.766  13.477
41280W        W 7821  33.046  44.478   2.897
41281W        W 7822  10.347   5.548   2.223
41282W        W 7823  23.866  30.108  10.968
41283W        W 7824   6.804  31.483   4.690
41284W        W 7825   3.584  31.610   0.731
41285W        W 7826  20.755  40.496  13.372
41286W        W 7827  39.552  19.926  11.942
41287W        W 7828  14.599  39.327  11.560
41288W        W 7829   5.690  15.877   3.186
41289W        W 7830  23.835  29.214   3.194
41290W        W 7831   8.674  29.069  11.142
41291W        W 7832  39.684  11.134  11.620
41292W        W 7833  37.868   2.822  12.007
41293W        W 7834   5.370   6.191  13.258
41294W        W 7835   9.102  22.614  11.634
41295W        W 7836  12.851  21.576  10.700
41296W        W 7837  19.536   3.238   3.103
41297W        W 7838  35.476  35.131   3.514
41298W        W 7839   8.297   8.002   3.104
41299W        W 7840  25.408  30.236   0.694
41300W        W 7841  20.304   0.969   4.540
41301W        W 7842   6.001  38.472  11.964
41302W        W 7843  44.993  34.338  13.519
41303W        W 7844  16.152  27.631  11.061
41304W        W 7845  31.466   2.465   3.662
41305W        W 7846  13.747   9.924  14.787
41306W        W 7847   2.026  32.944  12.999
41307W        W 7848  15.302  20.416   0.783
41308W        W 7849  34.086   1.387   1.287
41309W        W 7850   9.591   0.370  14.724
41310W        W 7851   2.794  26.865  12.808
41311W        W 7852  13.079   6.188   0.795
41312W        W 7853  39.461  13.594   1.205
41313W        W 7854  27.024  17.836  11.687
41314W        W 7855  12.131  18.217   3.250
41315W        W 7856   9.161  32.909  11.164
41316W        W 7857  13.251  37.278  13.392
41317W        W 7858  22.177  16.855  14.742
41318W        W 7859  20.175  33.131  10.573
41319W        W 7860  39.427  11.027  10.675
41320W        W 7861  29.012  39.802   3.590
41321W        W 7862  18.564   2.756  10.894
41322W        W 7863   9.296  22.714  12.517
41323W        W 7864   8.727  21.666  14.338
41324W        W 7865   7.763  26.462  11.527
41325W        W 7866  22.484   4.459  12.425
41326W        W 7867  27.011  32.595   3.099
41327W        W 7868  25.106  41.425   1.654
41328W        W 7869  15.311   3.899   0.809
41329W        W 7870  27.529  11.491   2.163
41330W        W 7871  42.436  16.567  11.764
41331W        W 7872  35.805  34.344  14.678
41332W        W 7873   1.345  27.532  14.238
41333W        W 7874  24.921   8.270  10.666
41334W        W 7875  33.173  29.088  11.851
41335W        W 7876   6.908  20.694   2.387
41336W        W 7877  25.235  19.009   4.714
41337W        W 7878  36.595  11.162   3.188
41338W        W 7879   7.223  39.670   3.649
41339W        W 7880  17.861  32.348  14.559
41340W        W 7881   8.146   5.422   3.206
41341W        W 7882  32.441   0.402  13.566
41342W        W 7883   2.017  44.115   2.841
41343W        W 7884   9.504  22.759   4.491
41344W        W 7885  16.790   8.766  14.370
41345W        W 7886  44.901  34.367   3.272
41346W        W 7887  36.554  36.514   1.426
41347W        W 7888  41.179  43.851   4.387
41348W        W 7889  40.273  43.247  14.046
41349W        W 7890   5.689  41.227  13.867
41350W        W 7891  25.926  31.112  11.079
41351W        W 7892  15.815  36.972  12.905
41352W        W 7893   4.585  26.640   4.065
41353W        W 7894   6.194  27.191   4.684
41354W        W 7895  42.796  28.986   2.684
41355W        W 7896  26.166  29.110   2.712
41356W        W 7897   9.773  42.875   0.602
41357W        W 7898  34.351  33.940  12.070
41358W        W 7899  18.626  24.460   2.117
41359W        W 7900  28.033  35.067  12.780
41360W        W 7901   0.533  12.532  11.876
41361W        W 7902  13.853  15.326   1.223
41362W        W 7903  15.729  12.782  13.857
41363W        W 7904  18.360  35.545  13.324
41364W        W 7905  24.948  44.699   4.930
41365W        W 7906   6.989  21.720   0.564
41366W        W 7907   6.837   5.420   2.891
41367W        W 7908  23.996  36.402   4.500
41368W        W 7909  37.360  15.655   3.184
41369W        W 7910  36.149  13.802  13.911
41370W        W 7911  42.976  41.153  14.348
41371W        W 7912  38.034  31.109  12.433
41372W        W 7913  35.952   6.276  14.345
41373W        W 7914   5.790  27.750  11.133
41374W        W 7915  40.039  11.383   0.768
41375W        W 7916   6.390  11.381  10.762
41376W        W 7917   4.786   0.347  13.511
41377W        W 7918  12.131  34.490  14.370
41378W        W 7919  16.542   3.440   1.787
41379W        W 7920   8.139   8.822   2.786
41380W        W 7921  26.129   3.838   4.615
41381W        W 7922  35.624  33.843  12.401
41382W        W 7923  22.945  27.428  14.832
41383W        W 7924  42.282  38.519   0.137
41384W        W 7925  28.506  18.738  13.678
41385W        W 7926   8.377  42.084  13.631
41386W        W 7927  42.716  32.964   0.595
41387W        W 7928  20.060  23.828   0.244
41388W        W 7929  19.246  39.469   3.188
41389W        W 7930  32.003  12.733   3.130
41390W        W 7931  18.534  22.019  11.973
41391W        W 7932   8.399  30.642  11.126
41392W        W 7933  37.894  33.943  12.398
41393W        W 7934  31.113  25.263   4.756
41394W        W 7935  41.849  14.349   2.792
41395W        W 7936  39.940  37.638   4.601
41396W        W 7937  21.745  27.859   2.510
41397W        W 7938  26.914   1.959   0.764
41398W        W 7939  14.387  11.250   1.656
41399W        W 7940  12.293  11.614   4.166
41400W        W 7941  42.494   5.229  13.295
41401W        W 7942  24.148  10.763   3.094
41402W        W 7943  22.682  27.683   1.948
41403W        W 7944  37.061   8.538  13.522
41404W        W 7945  32.941   3.026   1.755
41405W        W 7946  31.123  10.760  13.528
41406W        W 7947  27.144   2.538  11.131
41407W        W 7948  18.509  35.970   0.888
41408W        W 7949   1.692  30.831   9.683
41409W        W 7950  41.295  32.862   1.790
41410W        W 7951   7.822   0.762   2.421
41411W        W 7952  12.709  38.266   1.243
41412W        W 7953  42.934   3.766   0.369
41413W        W 7954  17.778  15.742  14.242
41414W        W 7955  27.398  11.144   4.566
41415W        W 7956  19.177   4.089   4.204
41416W        W 7957  37.530  37.409  13.375
41417W        W 7958  25.731   2.402  12.271
41418W        W 7959   1.973  11.161  10.673
41419W        W 7960  18.401   8.338   2.249
41420W        W 7961   5.929  14.212   3.617
41421W        W 7962  16.371  34.147  13.326
41422W        W 7963  29.771  33.684   3.609
41423W        W 7964   2.695   2.715   2.686
41424W        W 7965  16.342  43.015  14.429
41425W        W 7966  31.483  22.531   3.726
41426W        W 7967   5.255   3.937   3.994
41427W        W 7968  11.872  20.305   1.026
41428W        W 7969  30.298  10.762  12.545
41429W        W 7970  11.735  39.796  13.326
41430W        W 7971  26.193  43.022   1.287
41431W        W 7972  17.554   3.627   3.625
41432W        W 7973  29.945  37.336   3.513
41433W        W 7974  41.385   1.290  10.494
41434W        W 7975  44.360  37.692  14.328
41435W        W 7976  31.940  39.538  12.832
41436W        W 7977  16.560  10.566   3.388
41437W        W 7978   4.698  27.054   1.855
41438W        W 7979  22.448   9.184   3.318
41439W        W 7980  39.093  38.491  10.747
41440W        W 7981  23.258  34.574   4.429
41441W        W 7982  22.555  22.166   0.766
41442W        W 7983  18.151  17.286   4.508
41443W        W 7984   8.485   4.638   4.242
41444W        W 7985  35.822  37.362  14.097
41445W        W 7986   5.827  19.440   5.002
41446W        W 7987  34.524   4.311  12.885
41447W        W 7988  44.752  24.094  11.252
41448W        W 7989  36.454  42.926  11.962
41449W        W 7990   6.385  33.699   4.959
41450W        W 7991  11.888   1.574   3.917
41451W        W 7992  31.210  17.829  14.792
41452W        W 7993  10.438  11.088   3.797
41453W        W 7994   1.591  27.223  12.611
41454W        W 7995   5.623  23.268  14.699
41455W        W 7996  11.846   9.934  11.544
41456W        W 7997  17.167   2.237  12.509
41457W        W 7998  31.514  14.708  14.312
41458W        W 7999  12.259  20.206   3.631
41459W        W 8000  39.060  26.630   2.682
41460W        W 8001  25.930   6.761   0.243
41461W        W 8002  15.501  35.386   3.653
41462W        W 8003  33.574  39.518  14.284
41463W        W 8004   1.694  29.029  12.575
41464W        W 8005   3.897  38.869   1.194
41465W        W 8006   9.141  34.488  10.078
41466W        W 8007  24.000   5.621   0.389
41467W        W 8008  40.120  39.378  11.809
41468W        W 8009   2.959  31.109  12.458
41469W        W 8010  44.736  26.588   0.315
41470W        W 8011  19.559  28.578   3.497
41471W        W 8012  19.380   0.960   3.679
41472W        W 8013  43.449  33.634  14.110
41473W        W 8014  19.124  43.188   1.301
41474W        W 8015  30.933  20.959   1.469
41475W        W 8016  37.449  27.687   0.361
41476W        W 8017  40.996  21.132  13.818
41477W        W 8018  17.280  11.200   1.424
41478W        W 8019  10.288   2.170   1.761
41479W        W 8020  11.849  28.429  10.460
41480W        W 8021  31.752   6.828   2.846
41481W        W 8022  22.462  24.080  14.452
41482W        W 8023   8.204  12.198   3.898
41483W        W 8024  24.142  35.333  14.137
41484W        W 8025  34.019  21.428  12.250
41485W        W 8026  19.258  26.472  14.459
41486W        W 8027  27.840  31.329  11.141
41487W        W 8028  44.038  20.193   3.585
41488W        W 8029  10.633  18.365  12.061
41489W        W 8030  25.991  40.810   2.024
41490W        W 8031  43.369  28.619  13.865
41491W        W 8032   4.657  18.319  12.537
41492W        W 8033   0.563   7.857   1.242
41493W        W 8034   6.676   8.166   0.327
41494W        W 8035  42.369  39.239  13.920
41495W        W 8036   0.949  32.367   1.309
41496W        W 8037   9.378   2.463   2.139
41497W        W 8038  34.826  33.578   1.213
41498W        W 8039  11.257  24.916  11.136
41499W        W 8040  34.458  13.297   3.794
41500W        W 8041  21.716  13.026   0.256
41501W        W 8042  43.510   4.736   0.373
41502W        W 8043   2.927  22.735   4.602
41503W        W 8044  30.552  29.960  10.659
41504W        W 8045  13.236  17.045   3.995
41505W        W 8046  35.992  43.619  12.552
41506W        W 8047   0.259  10.310   0.949
41507W        W 8048  19.270  10.634  12.458
41508W        W 8049  20.596  41.262  14.809
41509W        W 8050  13.180   9.554   2.799
41510W        W 8051  37.235  23.740   0.003
41511W        W 8052  38.448  42.177   1.417
41512W        W 8053   8.418   8.337  11.068
41513W        W 8054  39.835  11.198   4.568
41514W        W 8055  32.542   1.919  14.326
41515W        W 8056  13.888  35.981  14.984
41516W        W 8057  22.730  39.895   3.262
41517W        W 8058  35.049  22.167   2.931
41518W        W 8059  43.395  10.223   0.146
41519W        W 8060  31.666  36.985  14.420
41520W        W 8061  34.315  28.699   3.902
41521W        W 8062   3.530   4.432  14.104
41522W        W 8063  15.770   3.998   1.774
41523W        W 8064  41.000  18.656  10.662
41524W        W 8065  33.394  44.477   2.359
41525W        W 8066   2.430  28.754   0.555
41526W        W 8067  23.992  33.420   2.295
41527W        W 8068  12.317   1.920   2.109
41528W        W 8069  12.505  34.923   1.841
41529W        W 8070  21.472   9.794  12.178
41530W        W 8071   4.406  44.903   0.403
41531W        W 8072   8.195  11.683   3.252
41532W        W 8073  28.187  36.883   3.344
41533W        W 8074  34.636  15.052  10.487
41534W        W 8075  37.584  28.740   3.244
41535W        W 8076  40.361  21.497  14.448
41536W        W 8077  19.646  21.449   0.567
41537W        W 8078   8.910   9.265  11.237
41538W        W 8079   5.909  21.972  11.209
41539W        W 8080  22.975  27.402   3.102
41540W        W 8081  25.737  35.455  13.113
41541W        W 8082  29.120  29.647   4.529
41542W        W 8083  15.209  14.255   2.729
41543W        W 8084  18.631  16.243   2.143
41544W        W 8085  43.075  19.005  13.020
41545W        W 8086  30.331   3.024   4.313
41546W        W 8087  31.038  13.781  12.605
41547W        W 8088  18.702   7.300   2.161
41548W        W 8089  42.477  44.144   0.537
41549W        W 8090   2.611  28.557  13.890
41550W        W 8091  25.261  13.107   0.921
41551W        W 8092   1.373  12.392  12.685
41552W        W 8093  33.562  27.699   1.253
41553W        W 8094  28.669  37.043   3.447
41554W        W 8095  12.853  27.032  12.170
41555W        W 8096  20.796  15.331  14.853
41556W        W 8097  17.147  21.567   1.097
41557W        W 8098   7.846  14.910   0.893
41558W        W 8099  16.373   4.418  13.361
41559W        W 8100   1.618  22.295   2.866
41560W        W 8101   9.554  28.559  12.097
41561W        W 8102  25.277   3.824   2.297
41562W        W 8103   7.622  30.408  11.509
41563W        W 8104  27.506  31.596   1.316
41564W        W 8105  22.084  40.306   4.260
41565W        W 8106  30.551  23.071   3.763
41566W        W 8107   3.784  36.844  11.122
41567W        W 8108  30.034  19.067  11.098
41568W        W 8109   4.962   3.972   1.269
41569W        W 8110  21.706  30.180  14.021
41570W        W 8111  31.236   5.433  10.689
41571W        W 8112  41.816  38.093  14.459
41572W        W 8113  38.263  42.323  12.889
41573W        W 8114  28.985   9.846  14.816
41574W        W 8115  28.249  38.151   0.003
41575W        W 8116  30.644   1.062   5.074
41576W        W 8117  31.138  36.203  14.335
41577W        W 8118  31.977  26.122  12.567
41578W        W 8119   1.321  41.447   0.307
41579W        W 8120  13.308  42.509  11.262
41580W        W 8121   1.539  15.516   1.907
41581W        W 8122   2.235  35.767   3.652
41582W        W 8123  37.267   4.898   0.995
41583W        W 8124  12.709   5.657   3.299
41584W        W 8125  18.163  37.524  12.957
41585W        W 8126  32.508   3.772  12.565
41586W        W 8127  20.577  44.677  14.779
41587W        W 8128  19.270  13.604   1.901
41588W        W 8129   9.718  35.805   3.815
41589W        W 8130   8.809  22.311   0.574
41590W        W 8131  44.002   1.548   0.014
41591W        W 8132  44.104  14.717   1.245
41592W        W 8133  42.959  36.814   1.297
41593W        W 8134   4.482   0.546   3.186
41594W        W 8135   0.397  30.424  12.149
41595W        W 8136  36.551  37.135  10.031
41596W        W 8137  43.401  12.867   0.491
41597W        W 8138  19.122   3.103   0.986
41598W        W 8139  32.543   0.533  14.449
41599W        W 8140  16.822   6.127   3.306
41600W        W 8141   6.696  21.095   1.832
41601W        W 8142  14.762   2.769  14.496
41602W        W 8143  28.182  29.646   2.265
41603W        W 8144   7.237  32.443  12.073
41604W        W 8145  26.458  36.437  11.876
41605W        W 8146   2.135  12.293   0.706
41606W        W 8147  36.260  16.037  10.439
41607W        W 8148  27.983  14.652   1.093
41608W        W 8149   4.902  12.495  11.122
41609W        W 8150   0.195  29.359   4.303
41610W        W 8151  24.482  41.023  10.752
41611W        W 8152  17.729   4.935  10.305
41612W        W 8153   2.812  25.091  12.553
41613W        W 8154  26.699  16.292   3.195
41614W        W 8155  42.994   1.337   4.179
41615W        W 8156  37.001  29.610   0.585
41616W        W 8157  13.984   2.997  12.458
41617W        W 8158   5.697  32.732  13.137
41618W        W 8159  37.325  28.517   0.671
41619W        W 8160   8.874  42.510  11.443
41620W        W 8161  36.760  42.081   4.530
41621W        W 8162   9.877  10.162   0.388
41622W        W 8163  14.928  12.801  12.055
41623W        W 8164  30.849   1.114  12.813
41624W        W 8165  33.040  31.185  11.344
41625W        W 8166  34.413  35.761  10.706
41626W        W 8167   9.443  37.417  14.604
41627W        W 8168   4.186  12.853  14.818
41628W        W 8169  23.182  22.949   0.320
41629W        W 8170   8.170  37.865   1.761
41630W        W 8171   1.406  44.661  12.869
41631W        W 8172  22.552  19.612  13.526
41632W        W 8173  22.700  42.082   3.805
41633W        W 8174  12.679  16.366   1.809
41634W        W 8175   4.880  30.284   2.810
41635W        W 8176   8.232   3.202  12.498
41636W        W 8177  35.524  31.179   0.799
41637W        W 8178   3.755  18.544   3.183
41638W        W 8179  39.989  42.326   4.360
41639W        W 8180  13.401  39.919   1.750
41640W        W 8181  25.007  32.923  10.701
41641W        W 8182  34.974  23.749  14.738
41642W        W 8183  42.942   8.513  14.903
41643W        W 8184  23.277   9.690  12.594
41644W        W 8185   6.193  28.405  12.468
41645W        W 8186   0.005  41.283   5.033
41646W        W 8187   2.988  28.134   3.703
41647W        W 8188  34.676  21.283  13.890
41648W        W 8189  18.867  33.587   2.938
41649W        W 8190  18.308  37.865  11.544
41650W        W 8191  24.608   5.057   2.167
41651W        W 8192   9.161  15.985  13.943
41652W        W 8193  14.152  44.299   0.449
41653W        W 8194   8.858  20.228  14.890
41654W        W 8195  34.936  31.058   3.808
41655W        W 8196  22.731  38.099  12.106
41656W        W 8197  13.257   0.718   0.267
41657W        W 8198  24.665  36.022   3.354
41658W        W 8199  13.124  37.894  14.723
41659W        W 8200   5.763   2.925   2.530
41660W        W 8201  20.256  18.533  10.844
41661W        W 8202  37.994  14.768  11.870
41662W        W 8203  18.815  37.041   2.285
41663W        W 8204  30.402  32.025  10.556
41664W        W 8205  15.497  17.957   3.141
41665W        W 8206  42.871   6.442  12.843
41666W        W 8207   0.803  34.669  14.842
41667W        W 8208   9.156  22.302   3.592
41668W        W 8209  19.153  30.929  12.452
41669W        W 8210  10.821  11.921   0.290
41670W        W 8211  30.027   6.817   1.885
41671W        W 8212  10.745  37.053   1.326
41672W        W 8213  40.319   9.178  10.861
41673W        W 8214  16.492   2.477  14.263
41674W        W 8215  38.607   6.755   4.477
41675W        W 8216  24.171  38.359  14.831
41676W        W 8217  23.416   0.580  12.342
41677W        W 8218  29.198  29.736  11.203
41678W        W 8219  32.043   1.939   3.137
41679W        W 8220  44.900  31.061   9.876
41680W        W 8221  27.983   2.927  10.726
41681W        W 8222  28.105  21.575   4.948
41682W        W 8223  39.589  16.604  14.304
41683W        W 8224  31.695  11.737  13.076
41684W        W 8225  15.254  31.483   2.810
41685W        W 8226  21.149  41.054  12.587
41686W        W 8227  19.591  34.611   0.595
41687W        W 8228  42.387   6.860   2.748
41688W        W 8229  15.469   8.880   1.018
41689W        W 8230  31.015  23.605  10.780
41690W        W 8231  21.742  30.643  13.757
41691W        W 8232  29.488   2.863   1.422
41692W        W 8233  12.775  33.360   3.193
41693W        W 8234  10.445  16.568  11.607
41694W        W 8235  33.941  42.295  11.043
41695W        W 8236   2.472  38.137   2.207
41696W        W 8237  22.319  18.845   4.936
41697W        W 8238  13.515  27.460  11.183
41698W        W 8239  16.117   2.307   3.710
41699W        W 8240  24.052  32.119   3.908
41700W        W 8241  36.860  37.182  11.613
41701W        W 8242  38.338  34.981  14.960
41702W        W 8243  42.880  40.433   4.545
41703W        W 8244  20.071  16.237  14.821
41704W        W 8245   8.859  20.618  13.772
41705W        W 8246  27.890  34.373   2.190
41706W        W 8247  44.203  44.352   0.453
41707W        W 8248  20.664  17.492   2.350
41708W        W 8249  24.393   1.141  10.805
41709W        W 8250  42.943   3.329   2.205
41710W        W 8251   7.618  35.580   2.569
41711W        W 8252  33.815  40.926  10.841
41712W        W 8253  44.666  44.340   1.276
41713W        W 8254  30.204  22.119  10.643
41714W        W 8255  28.237  29.524  13.863
41715W        W 8256  24.303   6.582  10.185
41716W        W 8257  20.616  26.509   1.900
41717W        W 8258  38.377  15.198   1.808
41718W        W 8259  11.539   3.118   2.780
41719W        W 8260  33.993   7.350  10.954
41720W        W 8261   5.411   5.971  11.948
41721W        W 8262  41.812   4.214   1.239
41722W        W 8263  38.478  38.315  14.887
41723W        W 8264  12.851   9.235   2.369
41724W        W 8265  38.354  43.906   4.052
41725W        W 8266   1.243  20.123  12.925
41726W        W 8267   7.041  40.722  11.614
41727W        W 8268  18.845  33.079  12.681
41728W        W 8269  37.547   8.241   1.710
41729W        W 8270  36.712  12.583   4.051
41730W        W 8271   5.858  44.845   2.663
41731W        W 8272  31.871   8.016   3.190
41732W        W 8273   8.935  30.576   2.485
41733W        W 8274  24.614  18.189   1.289
41734W        W 8275  33.591  19.852  14.374
41735W        W 8276   6.204  41.130   4.581
41736W        W 8277  37.752   5.724   1.341
41737W        W 8278  29.659  23.118  12.168
41738W        W 8279  29.610  39.305  10.663
41739W        W 8280   9.803   6.453  12.313
41740W        W 8281  20.257  24.638  14.756
41741W        W 8282  12.840  37.767   1.350
41742W        W 8283  19.206  34.406  11.190
41743W        W 8284   9.708  17.310  11.420
41744W        W 8285  42.875   8.617  12.913
41745W        W 8286  39.355  22.212   1.611
41746W        W 8287  35.440  21.427  11.254
41747W        W 8288  19.323  26.632   1.232
41748W        W 8289  22.169  19.195   1.904
41749W        W 8290  25.210  13.381   3.704
41750W        W 8291  33.103  42.404   1.795
41751W        W 8292  10.692  17.334  11.048
41752W        W 8293   7.325  28.018  10.998
41753W        W 8294  26.902  27.779  11.906
41754W        W 8295  16.724   9.777   2.786
41755W        W 8296   4.297  33.069  14.696
41756W        W 8297  37.898  20.162   3.643
41757W        W 8298  42.867   8.805   4.808
41758W        W 8299  34.143  40.831   0.357
41759W        W 8300  12.639  44.509  13.496
41760W        W 8301  10.631  44.506  10.687
41761W        W 8302  12.534  40.170  13.088
41762W        W 8303   2.911   5.330  13.779
41763W        W 8304  34.366  31.200   4.585
41764W        W 8305  27.002  21.012  13.033
41765W        W 8306  15.236  38.413  14.126
41766W        W 8307  22.186   8.141  10.961
41767W        W 8308   3.491   7.449  13.796
41768W        W 8309   3.251  25.602   0.320
41769W        W 8310  17.743   6.969  14.792
41770W        W 8311   6.849  17.634   4.198
41771W        W 8312   8.383  21.525  12.580
41772W        W 8313  16.394   6.651   1.276
41773W        W 8314  32.395   0.140   4.605
41774W        W 8315  40.563   8.706   0.646
41775W        W 8316  11.444  34.049   1.868
41776W        W 8317  40.747  34.847  13.947
41777W        W 8318  29.060  20.292   4.141
41778W        W 8319  23.102  43.120  13.233
41779W        W 8320   2.301  38.439   0.635
41780W        W 8321  16.239   1.782  12.463
41781W        W 8322   1.174  41.105  13.667
41782W        W 8323  21.628  42.916   2.876
41783W        W 8324   6.966  20.694   2.903
41784W        W 8325  43.357  20.260  13.434
41785W        W 8326  34.560  33.138   4.726
41786W        W 8327  16.468   8.049   1.408
41787W        W 8328  28.698  15.976   5.204
41788W        W 8329   7.291  35.405   4.659
41789W        W 8330  40.959   1.375   3.172
41790W        W 8331   5.882   7.799  11.526
41791W        W 8332   6.782  35.880  13.761
41792W        W 8333  11.213  22.313   3.709
41793W        W 8334  10.836  23.984  13.849
41794W        W 8335  38.389  15.856   4.425
41795W        W 8336  10.889  28.673   0.370
41796W        W 8337  42.816  22.500  12.038
41797W        W 8338  26.454  40.904  14.705
41798W        W 8339   9.008  42.411   3.708
41799W        W 8340  31.608  23.166   4.679
41800W        W 8341  13.318  18.174   1.691
41801W        W 8342  22.636   9.162  13.099
41802W        W 8343  36.605   4.677  11.428
41803W        W 8344  13.968  44.527   4.321
41804W        W 8345  42.884  28.413  13.931
41805W        W 8346  21.643  18.052   3.949
41806W        W 8347  10.915  41.336   2.237
41807W        W 8348  33.389   6.022   3.035
41808W        W 8349   8.904  39.880  14.293
41809W        W 8350  37.345  16.648  12.899
41810W        W 8351   1.251  10.916   2.601
41811W        W 8352  38.197  32.428  11.662
41812W        W 8353  17.559  13.172  10.872
41813W        W 8354   4.436  17.114   0.232
41814W        W 8355  39.255   9.559   3.796
41815W        W 8356  23.141   5.319   0.418
41816W        W 8357  31.239  37.042  12.109
41817W        W 8358  14.174   4.564  10.439
41818W        W 8359  19.012  24.611   0.328
41819W        W 8360  16.248  35.138  13.573
41820W        W 8361  25.036  27.434  14.138
41821W        W 8362  19.442  38.224   1.465
41822W        W 8363  36.447   6.390  11.566
41823W        W 8364  17.368  27.058   2.152
41824W        W 8365  44.204  30.078  12.594
41825W        W 8366  22.538   0.244  12.643
41826W        W 8367  17.115  21.068  14.734
41827W        W 8368  39.751  41.835   1.339
41828W        W 8369  13.683  11.156  13.783
41829W        W 8370  12.804  43.528   2.415
41830W        W 8371  10.563   7.657   4.087
41831W        W 8372  37.565  31.658   0.354
41832W        W 8373  29.984  33.549   4.673
41833W        W 8374  16.850  34.608  10.711
41834W        W 8375  44.416   4.846   0.906
41835W        W 8376  10.507  29.420   0.987
41836W        W 8377   5.238   8.604   2.719
41837W        W 8378   3.722  38.477  12.572
41838W        W 8379  40.792  19.111  12.590
41839W        W 8380  18.351  40.218   1.521
41840W        W 8381  22.105   1.516  11.579
41841W        W 8382  32.136   0.959   1.225
41842W        W 8383  16.672  15.032   3.023
41843W        W 8384   9.954  14.891  14.101
41844W        W 8385   0.847  23.156  13.485
41845W        W 8386  43.735  24.198  11.551
41846W        W 8387  25.708  27.172   0.275
41847W        W 8388  24.054  43.914   4.428
41848W        W 8389   6.081  15.137  11.175
41849W        W 8390  13.408  18.042  12.399
41850W        W 8391  35.895  31.351  11.027
41851W        W 8392  26.224  19.345   0.923
41852W        W 8393   9.401  19.146   3.413
41853W        W 8394  31.505  38.323   1.659
41854W        W 8395  44.069  34.515  11.497
41855W        W 8396  14.465  21.423  13.679
41856W        W 8397  38.933   1.772   1.358
41857W        W 8398  28.014  17.137   4.492
41858W        W 8399  24.469  34.894  13.614
41859W        W 8400  43.372   9.200   0.571
41860W        W 8401  20.513   4.823   3.550
41861W        W 8402  43.417  26.101   4.589
41862W        W 8403  44.811  11.128  10.624
41863W        W 8404  38.089  15.257  12.007
41864W        W 8405   8.468   0.002  10.774
41865W        W 8406  10.728  20.713  12.507
41866W        W 8407   7.710  29.233   2.157
41867W        W 8408  25.347   4.510   4.886
41868W        W 8409  19.230  21.660   1.225
41869W        W 8410   5.695  10.897   2.808
41870W        W 8411  40.342  31.622   4.395
41871W        W 8412  10.788  17.008   2.394
41872W        W 8413  17.572   0.519  12.621
41873W        W 8414  44.653  35.694   5.047
41874W        W 8415  38.025  30.690  13.606
41875W        W 8416  12.466  33.481   0.750
41876W        W 8417  14.121  39.822  13.882
41877W        W 8418  15.991  23.761  13.031
41878W        W 8419  12.253  15.289   3.492
41879W        W 8420  19.214  23.259   0.911
41880W        W 8421  40.585   2.467   2.392
41881W        W 8422  20.383  33.051  12.636
41882W        W 8423   6.622  44.415  14.509
41883W        W 8424  26.545  27.452  13.945
41884W        W 8425  39.020  21.129  12.991
41885W        W 8426  32.118  36.386  13.749
41886W        W 8427  39.752  16.314  10.116
41887W        W 8428  28.015  43.095   1.433
41888W        W 8429  14.671   1.658  13.481
41889W        W 8430  32.377   2.970   3.357
41890W        W 8431  36.525  16.682   0.753
41891W        W 8432  36.012  29.665   1.234
41892W        W 8433  34.414  38.311  14.801
41893W        W 8434  24.871   4.178  11.111
41894W        W 8435  23.408  40.123   2.713
41895W        W 8436  37.117  29.219  13.975
41896W        W 8437  34.128  12.265   0.491
41897W        W 8438   8.437  20.329   0.800
41898W        W 8439  30.692  21.275  12.078
41899W        W 8440  44.031   7.707   0.367
41900W        W 8441  13.764  25.118  11.876
41901W        W 8442  27.459   7.859  12.084
41902W        W 8443  20.727  43.572  10.790
41903W        W 8444  15.287  27.395  11.944
41904W        W 8445  13.892  24.995   2.709
41905W        W 8446  20.687   0.510   2.316
41906W        W 8447   3.471  17.732  14.479
41907W        W 8448  29.425  37.723  11.745
41908W        W 8449  44.187   4.442  13.696
41909W        W 8450  24.011  15.192   4.608
41910W        W 8451   6.253  10.717  14.453
41911W        W 8452  17.430  40.990   0.705
41912W        W 8453   8.359   2.127  14.072
41913W        W 8454  15.559   6.619  12.255
41914W        W 8455  18.532  10.786  13.382
41915W        W 8456  38.803  11.074   4.556
41916W        W 8457  40.421  20.327   0.728
41917W        W 8458  16.583  36.930  10.960
41918W        W 8459  41.278  33.391   4.471
41919W        W 8460  21.729  14.879  10.657
41920W        W 8461  43.586  27.919   2.937
41921W        W 8462  15.118  15.786   0.190
41922W        W 8463  16.377  12.731   1.956
41923W        W 8464  36.014   4.186   2.731
41924W        W 8465  17.966  35.506  14.133
41925W        W 8466  31.923  41.591   2.298
41926W        W 8467   2.747  12.441  10.397
41927W        W 8468   0.943  16.171  14.461
41928W        W 8469   5.816  14.635  10.718
41929W        W 8470  15.391  10.624   2.732
41930W        W 8471  40.967  29.075  12.321
41931W        W 8472  22.214  21.503   2.838
41932W        W 8473  21.697  37.807  14.463
41933W        W 8474  21.142  17.783   3.200
41934W        W 8475  37.079  19.977   1.179
41935W        W 8476   3.340  42.706   3.364
41936W        W 8477  31.878  24.100  10.464
41937W        W 8478  16.462   5.277   3.292
41938W        W 8479   6.618  38.443   0.366
41939W        W 8480  36.684  11.348   0.740
41940W        W 8481   5.961  28.971  14.454
41941W        W 8482  30.367   0.312  13.109
41942W        W 8483   6.329  35.657   1.619
41943W        W 8484  44.330  28.238   1.429
41944W        W 8485  22.229  26.922   3.413
41945W        W 8486   2.666  20.667  10.782
41946W        W 8487  26.608  23.067   4.499
41947W        W 8488  37.307  18.478   1.219
41948W        W 8489  24.745  38.212  12.463
41949W        W 8490  32.668  34.981   2.353
41950W        W 8491   7.700  34.285   4.196
41951W        W 8492  27.436  28.042   3.228
41952W        W 8493  39.017  23.227   1.660
41953W        W 8494  18.482  23.667   4.550
41954W        W 8495   6.757   4.029  12.880
41955W        W 8496  34.447  19.278   1.737
41956W        W 8497  30.977  14.135   3.434
41957W        W 8498  19.927   9.358  10.781
41958W        W 8499  34.876   6.796  11.145
41959W        W 8500  25.469  24.154  12.002
41960W        W 8501  27.702  27.541  12.914
41961W        W 8502  28.113  26.210  11.926
41962W        W 8503  31.109  40.180  11.191
41963W        W 8504  12.535  12.631  14.955
41964W        W 8505  12.784  21.191  13.843
41965W        W 8506  30.022   4.255  10.663
41966W        W 8507  12.320   2.465   3.512
41967W        W 8508  36.553  25.373  13.418
41968W        W 8509  30.498  24.289  12.737
41969W        W 8510   8.833  10.965   0.253
41970W        W 8511  26.836   7.971   1.784
41971W        W 8512  35.803  30.161   2.515
41972W        W 8513   0.490  14.560   4.646
41973W        W 8514  44.347  11.164  11.980
41974W        W 8515  23.158  14.174  14.737
41975W        W 8516  36.196  31.501   3.900
41976W        W 8517  21.749  31.538   0.893
41977W        W 8518   8.870  44.160   3.575
41978W        W 8519  36.311  15.281   3.651
41979W        W 8520  14.351  20.481  14.028
41980W        W 8521  32.400  43.763   1.864
41981W        W 8522  27.546  15.628   0.669
41982W        W 8523   8.459  23.895   3.275
41983W        W 8524  23.039  19.194   0.066
41984W        W 8525  10.848  23.779   3.287
41985W        W 8526  11.301  27.059   3.875
41986W        W 8527  12.632  44.832  10.686
41987W        W 8528   5.388   7.187  10.695
41988W        W 8529  32.377  19.784   1.787
41989W        W 8530  25.713  30.934  12.355
41990W        W 8531  38.042  40.253  12.919
41991W        W 8532  26.367   1.953  12.402
41992W        W 8533  28.682   7.472  10.576
41993W        W 8534  11.374  42.839  14.594
41994W        W 8535   4.719  30.669  14.011
41995W        W 8536  36.376   4.841   4.108
41996W        W 8537   9.181  21.783   1.471
41997W        W 8538  15.115  19.733   2.291
41998W        W 8539  24.495  29.423   1.785
41999W        W 8540   8.163  16.330  11.717
42000W        W 8541   0.951  23.636  13.690
42001W        W 8542  44.449  32.150  11.181
42002W        W 8543  36.971  12.754  13.896
42003W        W 8544   6.341  35.052  14.087
42004W        W 8545  29.889   3.422   2.772
42005W        W 8546  14.314  40.636   3.288
42006W        W 8547  10.442  37.993  11.828
42007W        W 8548   9.800   9.359  13.516
42008W        W 8549   8.110   4.546  11.060
42009W        W 8550  13.445  39.869   0.814
42010W        W 8551  31.549  11.402  10.643
42011W        W 8552  23.606  38.897  13.755
42012W        W 8553  39.906  23.630   3.947
42013W        W 8554  25.032   7.741  10.669
42014W        W 8555  18.209  33.022   3.141
42015W        W 8556  16.032   4.709  13.075
42016W        W 8557  42.568  35.769  14.546
42017W        W 8558   7.378   5.358   2.766
42018W        W 8559  18.946  14.204  13.358
42019W        W 8560  34.933  20.514  11.793
42020W        W 8561  11.895  29.424  14.674
42021W        W 8562   1.894  44.523  13.316
42022W        W 8563  31.664  33.267  10.952
42023W        W 8564   0.810  22.053  12.166
42024W        W 8565  19.858  21.527  12.995
42025W        W 8566  19.673   6.726   4.131
42026W        W 8567  10.631  41.405   0.199
42027W        W 8568  12.213  21.480  14.437
42028W        W 8569  31.825   1.918   0.340
42029W        W 8570   0.460  20.613  12.679
42030W        W 8571  22.442  38.072  10.841
42031W        W 8572  40.552  41.029   4.888
42032W        W 8573  42.481  35.581   0.802
42033W        W 8574  39.300  10.834  11.228
42034W        W 8575  11.630  13.011  13.433
42035W        W 8576   5.996  44.451   0.338
42036W        W 8577  16.624  24.216   3.233
42037W        W 8578   5.209   8.773  12.546
42038W        W 8579  40.691  31.492  13.487
42039W        W 8580  32.393  21.239  12.332
42040W        W 8581  39.849   6.170  10.979
42041W        W 8582  32.125  28.051   1.751
42042W        W 8583  33.750  29.551  12.500
42043W        W 8584  28.514  14.852  12.434
42044W        W 8585  23.155  23.637  14.815
42045W        W 8586  32.207  35.805  13.569
42046W        W 8587   5.692  35.991  12.470
42047W        W 8588  13.046   0.804   1.332
42048W        W 8589  15.636  15.148   4.609
42049W        W 8590  34.531  12.409   0.891
42050W        W 8591  12.337  30.896   4.160
42051W        W 8592  23.624  40.109   1.775
42052W        W 8593  39.216  20.719  14.459
42053W        W 8594  36.560  36.318   2.349
42054W        W 8595  16.212   1.903  10.440
42055W        W 8596  29.159   6.774  14.418
42056W        W 8597  27.177   8.623   3.680
42057W        W 8598  16.815  25.260  11.562
42058W        W 8599  42.857  20.068   2.797
42059W        W 8600  44.555  31.059   0.019
42060W        W 8601   1.247   4.226  14.018
42061W        W 8602  28.992  40.822  11.622
42062W        W 8603   4.229   1.039  13.924
42063W        W 8604  41.539  38.984  14.893
42064W        W 8605  42.730  44.927  12.490
42065W        W 8606  19.589   1.717  12.102
42066W        W 8607  14.700  29.991   0.975
42067W        W 8608  36.473  26.441  11.887
42068W        W 8609  41.018  40.047  14.057
42069W        W 8610  38.026  27.482   1.764
42070W        W 8611  38.872  35.033  13.804
42071W        W 8612  25.765   3.393  11.505
42072W        W 8613  29.123  27.589   2.946
42073W        W 8614   8.554  16.734  13.637
42074W        W 8615  38.455  15.158  10.745
42075W        W 8616  11.556  23.285  11.496
42076W        W 8617  16.150  38.599   1.364
42077W        W 8618  44.355  42.366   4.811
42078W        W 8619  41.542  28.674   4.099
42079W        W 8620  18.098  16.352  14.220
42080W        W 8621   6.990  44.383   3.122
42081W        W 8622  26.584  41.162   4.124
42082W        W 8623  32.841  34.798  12.181
42083W        W 8624  20.927  28.637   3.180
42084W        W 8625  12.796  14.879  14.890
42085W        W 8626  26.234  27.143   0.308
42086W        W 8627  15.546  12.097  14.977
42087W        W 8628  29.126  14.280   3.150
42088W        W 8629  10.148  33.516   4.044
42089W        W 8630   3.839  10.040  11.296
42090W        W 8631  42.474   4.286  12.845
42091W        W 8632  15.490  27.976   1.219
42092W        W 8633   2.512   7.953  11.436
42093W        W 8634  28.427   3.003  11.553
42094W        W 8635  15.981  19.928   0.354
42095W        W 8636   7.531  23.194  12.123
42096W        W 8637  43.408  13.583  10.686
42097W        W 8638  16.131  25.846   0.253
42098W        W 8639  38.830  28.564   1.702
42099W        W 8640  18.285  42.286  13.837
42100W        W 8641  39.405   5.250  13.162
42101W        W 8642   2.015  42.725  14.898
42102W        W 8643  31.636  25.519   2.243
42103W        W 8644  11.630  31.020  10.408
42104W        W 8645   8.383  39.779  12.618
42105W        W 8646   9.704   0.700   2.148
42106W        W 8647  44.274  39.334  10.483
42107W        W 8648  43.242  22.897  11.617
42108W        W 8649  41.488  10.916  12.031
42109W        W 8650  22.428  42.985   3.683
42110W        W 8651  14.282  19.635   1.675
42111W        W 8652  21.058  18.862   2.109
42112W        W 8653   2.980  44.905   2.228
42113W        W 8654  32.519  30.507  13.329
42114W        W 8655  36.453  28.583  12.043
42115W        W 8656  15.783  37.962   2.156
42116W        W 8657  21.220   3.696  12.851
42117W        W 8658  40.331  42.487   2.318
42118W        W 8659   3.373  35.565  10.607
42119W        W 8660  33.476  32.343   2.885
42120W        W 8661  27.003  29.477  12.788
42121W        W 8662  18.356  27.669   0.738
42122W        W 8663   2.336   2.394   0.855
42123W        W 8664  33.131   3.680  10.066
42124W        W 8665  10.576  38.296   2.307
42125W        W 8666   0.993  42.986  12.673
42126W        W 8667   3.734   9.407   4.238
42127W        W 8668  38.612  40.870   0.191
42128W        W 8669  18.269   1.799   0.385
42129W        W 8670  10.161  30.080  10.844
42130W        W 8671  37.030   8.434  14.825
42131W        W 8672  36.318  11.979  13.915
42132W        W 8673  11.554  16.689   2.522
42133W        W 8674  39.405   9.625   1.952
42134W        W 8675   4.699  20.039  12.947
42135W        W 8676   4.483  32.828   4.681
42136W        W 8677  11.383  26.915   1.426
42137W        W 8678  32.456   5.465  10.050
42138W        W 8679   6.343  35.825  10.665
42139W        W 8680   2.401   1.733  13.016
42140W        W 8681  38.539  28.859   0.255
42141W        W 8682  32.059  32.186   2.614
42142W        W 8683  20.570  43.380   3.787
42143W        W 8684  21.512  11.268  11.964
42144W        W 8685  15.771  30.835   3.775
42145W        W 8686  41.087  33.043   0.411
42146W        W 8687  21.815   8.749   0.626
42147W        W 8688  41.401  35.921   0.001
42148W        W 8689  37.829  10.509  11.068
42149W        W 8690   3.795  11.458   0.727
42150W        W 8691  42.747  36.818   4.909
42151W        W 8692  19.903  42.931  12.471
42152W        W 8693  23.236  10.991  13.221
42153W        W 8694  22.240  36.545   0.441
42154W        W 8695  42.831  28.682  13.502
42155W        W 8696  19.060   1.007  11.128
42156W        W 8697  42.000  26.126   4.349
42157W        W 8698  10.449  20.298  12.789
42158W        W 8699  27.750  26.758  12.820
42159W        W 8700  32.362  39.862  13.341
42160W        W 8701  22.303  19.564   2.229
42161W        W 8702   9.575  32.394  12.001
42162W        W 8703  37.632  36.033  14.410
42163W        W 8704  17.604  13.922   1.875
42164W        W 8705  23.729  13.264  14.893
42165W        W 8706  32.624  37.477   4.682
42166W        W 8707  42.237  21.508   1.467
42167W        W 8708  33.378   8.447   4.972
42168W        W 8709   9.085   0.903   5.079
42169W        W 8710  37.194  22.248  12.075
42170W        W 8711  19.286  17.245   3.850
42171W        W 8712  44.494  15.623   2.689
42172W        W 8713   2.742  22.044   0.820
42173W        W 8714  29.048  11.578   0.686
42174W        W 8715  40.458  16.049  14.434
42175W        W 8716  41.163  11.874   4.918
42176W        W 8717  17.383  29.426   3.711
42177W        W 8718  38.066   0.193   1.403
42178W        W 8719  32.467  44.977   3.267
42179W        W 8720  41.266  32.955  11.146
42180W        W 8721  10.263  22.643  12.149
42181W        W 8722   7.773   8.771   1.845
42182W        W 8723  44.254  32.190  12.030
42183W        W 8724  24.533  10.407  12.855
42184W        W 8725  32.350  26.996  12.766
42185W        W 8726  26.157   5.139  12.957
42186W        W 8727  14.151   9.822  12.115
42187W        W 8728  42.206  16.031   0.751
42188W        W 8729  17.661   5.282   2.630
42189W        W 8730   5.189  27.257   0.303
42190W        W 8731  13.729  22.920   4.009
42191W        W 8732  14.276  26.143   3.814
42192W        W 8733  22.107  44.002   4.222
42193W        W 8734   2.934  12.256   0.029
42194W        W 8735  14.137   0.681  12.482
42195W        W 8736   7.360  15.337   0.239
42196W        W 8737   1.703  18.090  13.934
42197W        W 8738  42.444  29.801  11.886
42198W        W 8739  26.370  12.753  13.597
42199W        W 8740  12.555  38.233  13.927
42200W        W 8741  17.272   3.858  13.429
42201W        W 8742  25.970   5.071   2.306
42202W        W 8743  31.439  19.133   4.171
42203W        W 8744  37.292  33.224   4.497
42204W        W 8745  11.220  42.692   1.035
42205W        W 8746  38.971  42.195   5.094
42206W        W 8747  43.771  25.647  11.030
42207W        W 8748  16.099  20.015   4.937
42208W        W 8749   6.209  29.581  12.439
42209W        W 8750  38.023  35.342   2.931
42210W        W 8751   0.194  36.095  12.562
42211W        W 8752   3.241  21.705  13.337
42212W        W 8753   7.410  32.756  13.052
42213W        W 8754  29.478   0.424   3.306
42214W        W 8755  43.265  30.035   0.812
42215W        W 8756   8.650  37.408  11.145
42216W        W 8757  10.790   1.232  13.208
42217W        W 8758  19.886  14.134  14.391
42218W        W 8759  20.121  38.140   4.660
42219W        W 8760   2.914   5.756   0.314
42220W        W 8761   4.393  34.039  14.271
42221W        W 8762  16.150  14.238   9.585
42222W        W 8763  24.988  37.333   1.667
42223W        W 8764   1.477  17.572   4.576
42224W        W 8765  21.463  10.197  14.539
42225W        W 8766  31.609   3.628  14.757
42226W        W 8767  33.297  11.301   0.223
42227W        W 8768   6.494   8.172  13.155
42228W        W 8769  39.994  35.612   1.277
42229W        W 8770  42.841   9.134  13.089
42230W        W 8771   3.856  35.333  12.468
42231W        W 8772   4.851  24.761   0.336
42232W        W 8773  42.929  12.757   4.305
42233W        W 8774  17.610   9.235  14.375
42234W        W 8775  39.703   8.419   0.223
42235W        W 8776  35.857  39.308   3.816
42236W        W 8777  37.714  11.430  14.749
42237W        W 8778  30.573  32.879  11.574
42238W        W 8779  13.238  20.822  11.601
42239W        W 8780  16.993  42.258   3.733
42240W        W 8781  34.381  37.520   1.318
42241W        W 8782  17.036  32.930  11.333
42242W        W 8783  10.743  38.695   5.047
42243W        W 8784  43.956  42.681  14.371
42244W        W 8785  43.716  11.145   0.279
42245W        W 8786  29.648  37.989   1.909
42246W        W 8787   5.809  32.066  12.372
42247W        W 8788  23.075  29.887   4.151
42248W        W 8789  31.635   9.857  13.397
42249W        W 8790  42.207  36.361  11.191
42250W        W 8791  34.542  26.925  10.579
42251W        W 8792  32.863  27.465  13.981
42252W        W 8793  33.454  36.659  13.839
42253W        W 8794  28.028  14.361   0.312
42254W        W 8795   1.873  33.028  14.474
42255W        W 8796  25.982  21.679   3.410
42256W        W 8797  30.159  42.809   1.613
42257W        W 8798  37.516  26.788   3.407
42258W        W 8799  42.193  34.805  10.320
42259W        W 8800  33.029  39.660  13.661
42260W        W 8801   8.785  16.338   3.304
42261W        W 8802  42.518  35.111   4.554
42262W        W 8803  36.691  41.022  11.865
42263W        W 8804   1.788  17.859   2.803
42264W        W 8805  44.779   0.722   4.856
42265W        W 8806  28.231  11.137  13.402
42266W        W 8807  19.258  42.080  10.891
42267W        W 8808  21.785  30.244  12.482
42268W        W 8809  14.715  38.989   5.083
42269W        W 8810   9.434  34.563   4.648
42270W        W 8811  15.131   3.266  12.551
42271W        W 8812  29.879  30.096   1.678
42272W        W 8813   2.827  34.478  12.257
42273W        W 8814  11.110  21.582  13.334
42274W        W 8815  19.190  36.282   3.689
42275W        W 8816  15.080  41.873  11.325
42276W        W 8817  18.479  32.102   4.099
42277W        W 8818  18.191  21.692  14.110
42278W        W 8819  19.942   9.170  14.390
42279W        W 8820  15.646  34.413  10.168
42280W        W 8821  32.626  19.450  14.600
42281W        W 8822  35.314  42.382   1.203
42282W        W 8823  14.771  42.030   1.461
42283W        W 8824  11.678  11.602  14.509
42284W        W 8825  19.406  25.552  14.304
42285W        W 8826  20.051  14.782   3.893
42286W        W 8827  44.874  30.540  13.402
42287W        W 8828   0.447  22.222   2.738
42288W        W 8829  36.104  36.828   0.349
42289W        W 8830  33.961  39.563   2.646
42290W        W 8831  11.320  39.980  13.602
42291W        W 8832  13.314   7.420   3.139
42292W        W 8833   6.704  43.420  11.379
42293W        W 8834  33.500  40.782   1.472
42294W        W 8835  43.777  20.767  11.989
42295W        W 8836  23.769  16.241   4.112
42296W        W 8837  35.427   7.928   0.857
42297W        W 8838  42.419   5.785   2.994
42298W        W 8839  22.226  10.291  12.277
42299W        W 8840  32.477   1.917  13.020
42300W        W 8841   7.834  33.984  14.844
42301W        W 8842   1.283  43.406   2.391
42302W        W 8843  41.869  39.063  13.896
42303W        W 8844  30.614   8.851   0.679
42304W        W 8845  19.754  17.318   0.409
42305W        W 8846  20.096  23.638  10.886
42306W        W 8847   8.649  31.529   1.316
42307W        W 8848  39.775   5.312   1.874
42308W        W 8849  41.009  17.862  11.000
42309W        W 8850   0.611   3.190  12.875
42310W        W 8851   3.442  38.817  11.866
42311W        W 8852  26.939  36.075  10.748
42312W        W 8853   2.363  38.059  12.754
42313W        W 8854   3.770  38.084   4.184
42314W        W 8855   1.545   2.240   4.075
42315W        W 8856   1.047  40.648   3.274
42316W        W 8857   1.326  25.966   0.844
42317W        W 8858  27.673  25.624  11.500
42318W        W 8859  12.538  38.401  12.472
42319W        W 8860  22.116  34.799  13.710
42320W        W 8861   2.024  14.193  11.630
42321W        W 8862  17.322   9.809  12.639
42322W        W 8863  42.264  37.462   4.489
42323W        W 8864  24.309  34.688  12.141
42324W        W 8865  16.784   7.589   0.948
42325W        W 8866  10.376  34.615  11.423
42326W        W 8867  30.952  36.276   0.685
42327W        W 8868  28.079  26.454   3.597
42328W        W 8869  35.994  16.213  13.460
42329W        W 8870  27.592  36.076  12.091
42330W        W 8871  41.469   2.217   0.952
42331W        W 8872  26.469  17.580  12.894
42332W        W 8873  27.664   9.926  11.623
42333W        W 8874  39.721  16.950   2.269
42334W        W 8875  27.623   6.249   2.715
42335W        W 8876  32.509  38.768   3.580
42336W        W 8877  21.813   5.536  11.292
42337W        W 8878  13.706  44.370  11.240
42338W        W 8879  27.718  38.873  11.351
42339W        W 8880  14.033  17.255   5.029
42340W        W 8881   5.121   9.869  11.461
42341W        W 8882  18.481  41.954  14.586
42342W        W 8883  40.196  18.116  11.556
42343W        W 8884   4.690  42.968  13.118
42344W        W 8885  18.097  43.208   0.465
42345W        W 8886  40.283   8.329   1.611
42346W        W 8887  17.225  41.079  13.005
42347W        W 8888   0.022  23.149  12.864
42348W        W 8889   0.955  31.176   0.339
42349W        W 8890  29.693  37.170  14.947
42350W        W 8891  38.020  44.118  12.962
42351W        W 8892  19.346  11.732   0.178
42352W        W 8893  35.586   3.614   5.413
42353W        W 8894  15.588  25.618   1.875
42354W        W 8895  33.647  34.050  13.155
42355W        W 8896  25.384   9.326   2.666
42356W        W 8897   4.738  41.588   1.184
42357W        W 8898  29.191   6.011  13.978
42358W        W 8899  11.609  40.766  12.071
42359W        W 8900  27.291  18.631  11.738
42360W        W 8901  38.445  36.470   4.304
42361W        W 8902  10.671  29.066  11.537
42362W        W 8903  31.642  29.603   2.373
42363W        W 8904  21.446  36.173   0.599
42364W        W 8905  19.441  22.609  12.001
42365W        W 8906  30.083  39.671  10.738
42366W        W 8907  25.536  26.903  14.856
42367W        W 8908  36.567  15.992   0.039
42368W        W 8909  29.407  20.729   3.328
42369W        W 8910  44.733  22.713  11.588
42370W        W 8911  17.763   0.420   1.938
42371W        W 8912   9.298  44.475   3.822
42372W        W 8913  31.572  37.978   4.705
42373W        W 8914  32.315   0.888  11.942
42374W        W 8915  36.952  13.700   9.782
42375W        W 8916  32.424  16.364  12.476
42376W        W 8917  41.849  25.985   1.508
42377W        W 8918   4.699  35.802  10.406
42378W        W 8919  14.695   2.761   3.926
42379W        W 8920  20.059  13.877  13.956
42380W        W 8921  35.866  18.172  10.659
42381W        W 8922  37.959   6.285   4.773
42382W        W 8923  20.594   2.014  12.122
42383W        W 8924  44.244  32.887   1.676
42384W        W 8925   7.206   6.841   1.871
42385W        W 8926  13.120  34.166   3.320
42386W        W 8927  11.621  24.076   1.386
42387W        W 8928   1.904  21.943  14.360
42388W        W 8929   8.701  43.761   3.273
42389W        W 8930  41.688  42.417  12.359
42390W        W 8931  13.158  15.785  14.092
42391W        W 8932   0.750   3.842   2.235
42392W        W 8933   9.860   7.203  11.148
42393W        W 8934   2.771  23.239   1.275
42394W        W 8935  32.164  16.650   0.906
42395W        W 8936  21.334  26.001  14.791
42396W        W 8937  24.179  21.059  10.771
42397W        W 8938  16.646  15.386  14.027
42398W        W 8939   2.374   3.382  14.469
42399W        W 8940  34.798  39.503  12.023
42400W        W 8941  10.119  34.127  13.591
42401W        W 8942  11.472  29.583  11.080
42402W        W 8943  44.436  43.231  10.701
42403W        W 8944  16.331  29.978   3.766
42404W        W 8945  14.767  15.041   1.325
42405W        W 8946  31.443  30.104  13.497
42406W        W 8947  20.531  41.062   3.907
42407W        W 8948  13.650  30.410  13.389
42408W        W 8949   8.944  11.799   0.376
42409W        W 8950  22.704  38.831  10.912
42410W        W 8951  21.248  34.966  14.666
42411W        W 8952   8.437  25.657   3.238
42412W        W 8953  43.763  43.476   3.672
42413W        W 8954  40.802  38.295  12.442
42414W        W 8955  34.854   7.691  11.124
42415W        W 8956  39.928  23.652   1.324
42416W        W 8957  39.110  25.329   4.933
42417W        W 8958  36.204  41.351  14.819
42418W        W 8959   8.767   6.158   3.251
42419W        W 8960   0.337  19.530   0.289
42420W        W 8961   0.949  19.782  14.406
42421W        W 8962  15.280   4.249  13.653
42422W        W 8963  11.310  30.964  13.163
42423W        W 8964   1.874  32.556   0.845
42424W        W 8965  28.582   5.361   0.354
42425W        W 8966  13.379   1.347   2.408
42426W        W 8967  25.312   6.271   5.243
42427W        W 8968  36.513  10.924  13.923
42428W        W 8969   8.397  30.583   3.776
42429W        W 8970  39.348  42.287   3.274
42430W        W 8971  17.598  35.501   1.531
42431W        W 8972  41.602   0.161   3.444
42432W        W 8973  25.503  25.381   4.593
42433W        W 8974  37.408  40.029   4.158
42434W        W 8975   9.716   7.684   1.676
42435W        W 8976  34.282   0.496   4.898
42436W        W 8977  35.197  41.339   3.958
42437W        W 8978  18.539  29.539  13.377
42438W        W 8979  22.479  40.926   2.267
42439W        W 8980  41.419  10.274  11.334
42440W        W 8981  19.156  37.536  12.943
42441W        W 8982   7.140   2.025  14.619
42442W        W 8983   0.379  41.144   0.458
42443W        W 8984   9.538  42.791  13.027
42444W        W 8985  16.371  25.174   3.271
42445W        W 8986  37.162  38.028  12.865
42446W        W 8987  40.128  42.561   0.300
42447W        W 8988  20.215   6.954  12.017
42448W        W 8989  28.965  14.549  12.548
42449W        W 8990  35.818  38.431   1.456
42450W        W 8991   0.236  36.223   2.336
42451W        W 8992  22.385  15.838   5.023
42452W        W 8993  44.398  19.316  14.584
42453W        W 8994   7.402   0.190   3.771
42454W        W 8995  38.370  30.467   1.336
42455W        W 8996  33.448   3.163   1.788
42456W        W 8997  42.397  11.386   2.862
42457W        W 8998  25.437  30.055  11.846
42458W        W 8999  41.271   4.809   2.670
42459W        W 9000  15.323  10.661   0.721
42460W        W 9001  37.540  36.617   2.908
42461W        W 9002  38.024   1.290   3.576
42462W        W 9003  43.870   8.332  14.457
42463W        W 9004   7.911  23.292   3.540
42464W        W 9005  27.191   0.369   4.561
42465W        W 9006  31.841  12.801   0.265
42466W        W 9007  10.264   1.296  12.896
42467W        W 9008   1.889   6.707   4.683
42468W        W 9009  10.349  15.024   4.403
42469W        W 9010   0.711   2.385  11.534
42470W        W 9011  30.052  44.941   4.949
42471W        W 9012  11.564  28.612  13.653
42472W        W 9013  23.778  25.556   4.227
42473W        W 9014   7.310  13.576   0.883
42474W        W 9015   6.381  17.752  12.407
42475W        W 9016  23.727   9.252   3.657
42476W        W 9017  40.386  38.584  13.792
42477W        W 9018  14.829  18.978   1.444
42478W        W 9019   1.164   0.502  13.931
42479W        W 9020  43.201  40.322   1.806
42480W        W 9021  12.677  39.782   3.182
42481W        W 9022   4.737  28.886   3.081
42482W        W 9023  23.448  37.155   3.106
42483W        W 9024  26.286  24.860  13.765
42484W        W 9025  18.088  43.719  13.355
42485W        W 9026  22.782   3.795  13.601
42486W        W 9027  34.465  18.297  12.050
42487W        W 9028  35.546   6.158  13.824
42488W        W 9029  22.051   5.238  13.517
42489W        W 9030  43.436  16.833  13.906
42490W        W 9031   3.349  40.576   4.107
42491W        W 9032  23.886  14.583  13.594
42492W        W 9033  17.550   4.171  13.121
42493W        W 9034  21.090  28.530  13.581
42494W        W 9035  13.083  32.806   3.604
42495W        W 9036  36.440  31.437   1.269
42496W        W 9037  42.485  11.671  11.092
42497W        W 9038  16.789  13.917  12.830
42498W        W 9039  35.846  37.036  12.647
42499W        W 9040  25.486  24.985  13.399
42500W        W 9041   4.484  32.230   3.755
42501W        W 9042  19.721  37.105  12.142
42502W        W 9043  25.693  23.706   2.394
42503W        W 9044   2.506  20.270   4.712
42504W        W 9045  38.126   7.154  13.442
42505W        W 9046  30.153  24.192  10.837
42506W        W 9047  19.327  13.105   5.405
42507W        W 9048  35.454  34.668   4.823
42508W        W 9049  28.897  42.944   0.991
42509W        W 9050   5.328  23.231   1.800
42510W        W 9051  28.512  10.678   2.454
42511W        W 9052  33.833   2.548  14.818
42512W        W 9053  33.620  41.428  14.027
42513W        W 9054  37.402  11.545  11.927
42514W        W 9055  41.456  30.594  11.186
42515W        W 9056  18.086  24.482   1.838
42516W        W 9057  10.074   0.281  12.968
42517W        W 9058  16.235  39.629   4.898
42518W        W 9059  10.415  39.980   2.691
42519W        W 9060  27.236  20.668  10.483
42520W        W 9061   2.307   7.206   4.090
42521W        W 9062  25.221   1.211  12.691
42522W        W 9063  32.321  23.175  13.618
42523W        W 9064  19.504  27.061   2.798
42524W        W 9065   4.725  14.627   4.755
42525W        W 9066   9.427   6.880  13.338
42526W        W 9067   3.000  43.777   2.929
42527W        W 9068  31.962  26.535  10.688
42528W        W 9069  17.631  24.999   0.536
42529W        W 9070  36.979   4.504   0.795
42530W        W 9071  13.415  26.112   3.344
42531W        W 9072   5.610  30.471   0.403
42532W        W 9073  27.628  14.189   1.732
42533W        W 9074  20.719  11.069   4.161
42534W        W 9075  20.604  18.383  13.727
42535W        W 9076  12.588   7.278  10.561
42536W        W 9077  21.292   1.893  12.642
42537W        W 9078   4.419  30.461  12.405
42538W        W 9079  31.841  27.935   1.343
42539W        W 9080  28.721  27.509   3.302
42540W        W 9081  39.886   3.270  14.178
42541W        W 9082   2.536  40.727   1.181
42542W        W 9083  40.744   9.638   0.792
42543W        W 9084  44.759   9.147  13.651
42544W        W 9085  23.595  34.149   4.722
42545W        W 9086  37.945  21.572  12.032
42546W        W 9087  23.078   9.207  12.628
42547W        W 9088   4.654  22.332   1.353
42548W        W 9089  36.488  17.806  12.123
42549W        W 9090  26.781   3.874   2.172
42550W        W 9091  40.203  15.021  10.670
42551W        W 9092  41.936  23.165   4.248
42552W        W 9093  14.640   1.403  14.479
42553W        W 9094  19.398  44.807  10.865
42554W        W 9095   3.860   9.476   0.451
42555W        W 9096  14.591  24.762  10.726
42556W        W 9097  33.185  10.375   3.689
42557W        W 9098  38.406   2.283   2.757
42558W        W 9099  30.568  43.725   4.875
42559W        W 9100  22.673  13.992   4.204
42560W        W 9101  31.389   0.789  13.919
42561W        W 9102  40.253   3.174   1.568
42562W        W 9103  13.296  23.669  13.075
42563W        W 9104  11.671   9.886  13.980
42564W        W 9105  33.120  32.404   3.271
42565W        W 9106  20.684   1.749   0.815
42566W        W 9107  12.657   8.294   1.180
42567W        W 9108  20.073   2.556   0.830
42568W        W 9109   1.035   7.990   1.893
42569W        W 9110  33.940  12.334   2.885
42570W        W 9111  37.914  20.978  14.821
42571W        W 9112  26.907  18.337  11.611
42572W        W 9113  16.529  33.157   0.748
42573W        W 9114   5.962   1.848  12.495
42574W        W 9115  27.391  42.757   3.570
42575W        W 9116  11.428  39.105   5.049
42576W        W 9117   0.976  32.010  14.673
42577W        W 9118  29.152  15.254   0.311
42578W        W 9119  34.538  10.270   0.362
42579W        W 9120  29.024  25.551  14.439
42580W        W 9121  19.405  38.139  14.167
42581W        W 9122  14.136  33.686  11.444
42582W        W 9123  39.277  19.106  12.500
42583W        W 9124  24.308  42.924  14.840
42584W        W 9125   6.557  14.881  14.351
42585W        W 9126  24.108  28.902  12.514
42586W        W 9127  24.298  14.216  10.476
42587W        W 9128  22.451  37.068   0.956
42588W        W 9129   7.202  29.326  12.459
42589W        W 9130   7.210  24.672   0.665
42590W        W 9131  29.940  11.894   0.262
42591W        W 9132   3.760  29.962  13.292
42592W        W 9133  11.395  31.130  13.623
42593W        W 9134   4.685  19.534   4.556
42594W        W 9135  13.613  44.063  13.463
42595W        W 9136  18.592  37.261   3.277
42596W        W 9137   6.862  40.791   1.779
42597W        W 9138   1.931  36.451   0.905
42598W        W 9139  11.150  24.333  12.402
42599W        W 9140  44.514   3.972  14.041
42600W        W 9141  29.186  40.353  13.040
42601W        W 9142  30.567  19.249  12.676
42602W        W 9143  20.426  43.365  11.185
42603W        W 9144  12.042  19.230  12.435
42604W        W 9145  42.998  21.402  12.740
42605W        W 9146   6.868  16.517  12.441
42606W        W 9147  10.245  37.895   2.255
42607W        W 9148  20.195  24.820   2.249
42608W        W 9149  10.568  27.546   3.793
42609W        W 9150   1.548  28.645  12.097
42610W        W 9151   5.333  40.853   4.557
42611W        W 9152  10.363  15.115   3.675
42612W        W 9153   1.095  26.392   9.915
42613W        W 9154  44.956   4.661  12.489
42614W        W 9155   6.366  32.431   0.713
42615W        W 9156  27.678  33.442   2.757
42616W        W 9157  39.261  26.592  14.510
42617W        W 9158  34.056  19.858  12.489
42618W        W 9159   6.691  24.029  10.346
42619W        W 9160  40.868  12.394   0.825
42620W        W 9161   1.264  20.464   0.977
42621W        W 9162  32.198  16.307   3.200
42622W        W 9163  24.467   2.701   0.142
42623W        W 9164  42.624  25.330  11.912
42624W        W 9165  25.033  27.009   4.187
42625W        W 9166   9.318  33.135  13.932
42626W        W 9167  27.561   5.784  12.706
42627W        W 9168  35.111  23.434   0.364
42628W        W 9169   7.622   7.318  10.791
42629W        W 9170  40.930  20.423   4.142
42630W        W 9171  37.659  31.577  14.039
42631W        W 9172  37.356  38.597  12.751
42632W        W 9173   3.243   0.513   3.208
42633W        W 9174  14.250  27.158   1.005
42634W        W 9175  32.063  14.638   3.126
42635W        W 9176  22.234  23.469  12.388
42636W        W 9177   8.432  40.565   1.003
42637W        W 9178   5.787  10.076   0.498
42638W        W 9179  12.603  17.256  12.727
42639W        W 9180  31.905  44.286   2.207
42640W        W 9181  38.029  19.121  14.823
42641W        W 9182  28.092  14.751  11.858
42642W        W 9183  25.186  39.944   3.055
42643W        W 9184  29.465  39.292  14.049
42644W        W 9185  22.985  34.765   2.601
42645W        W 9186   2.920  36.971   1.885
42646W        W 9187   7.357  32.147   2.283
42647W        W 9188  39.300  24.142   5.029
42648W        W 9189  15.494  15.375   0.887
42649W        W 9190  31.608  40.836  14.513
42650W        W 9191  38.583  16.593  10.864
42651W        W 9192  25.485  28.505   2.684
42652W        W 9193  27.595  27.357  10.627
42653W        W 9194   6.798  20.015   4.085
42654W        W 9195  34.093  11.134   4.721
42655W        W 9196  13.169  13.994  14.706
42656W        W 9197  39.900   3.055   0.219
42657W        W 9198  33.194   1.461  14.901
42658W        W 9199   1.317  27.113  13.932
42659W        W 9200  42.194  28.935  11.260
42660W        W 9201  36.871  40.752   3.189
42661W        W 9202  25.747  14.720   1.867
42662W        W 9203   3.803  14.192   3.051
42663W        W 9204  14.590  28.112  10.321
42664W        W 9205  18.094  21.802  14.619
42665W        W 9206  15.310  27.251  13.091
42666W        W 9207  32.476  26.763   1.729
42667W        W 9208  43.510  18.836  14.866
42668W        W 9209  36.904  42.514  14.766
42669W        W 9210   6.288  35.933   2.568
42670W        W 9211   8.861  34.832  13.922
42671W        W 9212  22.415  15.587   1.271
42672W        W 9213   8.875   7.072   1.659
42673W        W 9214  35.796  39.692  11.175
42674W        W 9215  18.582  37.527   4.158
42675W        W 9216  35.852  42.442   0.316
42676W        W 9217   6.960  35.390   1.896
42677W        W 9218  17.151  30.636   0.622
42678W        W 9219  35.451  26.859  14.933
42679W        W 9220  17.536   4.655   4.506
42680W        W 9221  14.032  33.157   4.436
42681W        W 9222   4.977  37.501  14.680
42682W        W 9223   4.425   2.764  13.442
42683W        W 9224   3.826  27.289  12.333
42684W        W 9225  28.183  40.767  10.798
42685W        W 9226  40.722   4.489   1.686
42686W        W 9227  44.966   3.731  14.247
42687W        W 9228  14.799  28.926   9.849
42688W        W 9229  41.444  44.857  14.612
42689W        W 9230  23.834  13.187   3.160
42690W        W 9231   2.696  24.147   4.335
42691W        W 9232   8.833  29.724   3.603
42692W        W 9233   3.766   8.649   2.141
42693W        W 9234  40.381  18.251  12.481
42694W        W 9235  15.393  33.907  14.272
42695W        W 9236  19.981  41.216  13.348
42696W        W 9237  28.090  30.104   0.569
42697W        W 9238  11.323  13.874  13.306
42698W        W 9239  32.326  37.037   4.679
42699W        W 9240  20.377  18.355   3.762
42700W        W 9241  19.110  10.359  12.855
42701W        W 9242  16.719  29.209  13.360
42702W        W 9243  43.486  21.032   2.766
42703W        W 9244  30.732   9.736   3.063
42704W        W 9245  21.476  35.187   4.034
42705W        W 9246  16.279  35.977  10.671
42706W        W 9247   9.618  38.865   1.719
42707W        W 9248  19.627  22.912  11.636
42708W        W 9249   4.559  22.935   1.412
42709W        W 9250   5.451  14.204   1.416
42710W        W 9251  13.624   2.722  14.973
42711W        W 9252  13.855  29.136   2.800
42712W        W 9253  16.064  23.023  11.536
42713W        W 9254  22.745  17.500   3.700
42714W        W 9255  18.184   1.309   3.764
42715W        W 9256  29.593  34.083  12.500
42716W        W 9257  32.474  23.082   4.110
42717W        W 9258   2.227   6.284   4.656
42718W        W 9259  43.027  34.831   1.423
42719W        W 9260  14.364  32.502   2.613
42720W        W 9261  36.542   9.691   1.036
42721W        W 9262  42.095  14.364   1.825
42722W        W 9263  16.650   5.380  14.288
42723W        W 9264  35.055  17.107  13.789
42724W        W 9265  23.564  18.054   0.419
42725W        W 9266  18.098  31.136   4.251
42726W        W 9267  22.592  22.069   3.936
42727W        W 9268  21.006   7.007   3.487
42728W        W 9269  21.257   9.597  11.615
42729W        W 9270  19.580  34.608   4.798
42730W        W 9271  13.105   3.323   5.051
42731W        W 9272  42.391   9.636   4.412
42732W        W 9273  44.141   7.226   0.577
42733W        W 9274  21.311  43.478  14.865
42734W        W 9275  12.076  20.525  12.015
42735W        W 9276   3.881   6.750   2.175
42736W        W 9277  40.847  38.512   3.884
42737W        W 9278  27.978  19.312  11.475
42738W        W 9279  44.322   2.161   3.686
42739W        W 9280   4.451   8.341   4.058
42740W        W 9281  12.259  39.303  12.982
42741W        W 9282  21.502  11.786   0.687
42742W        W 9283  35.303  24.146   1.346
42743W        W 9284   1.395  23.011   2.794
42744W        W 9285  23.917  35.924   4.681
42745W        W 9286  37.961  40.170   4.950
42746W        W 9287  28.418  38.436  14.379
42747W        W 9288  40.494  31.888   3.219
42748W        W 9289  37.710   7.513  11.232
42749W        W 9290  15.471  10.328  11.980
42750W        W 9291  34.930  35.578  14.417
42751W        W 9292  26.997  40.096  12.909
42752W        W 9293  19.670   5.166   2.595
42753W        W 9294  26.610   8.373   1.265
42754W        W 9295   9.695   8.615  14.068
42755W        W 9296  18.511  21.186   3.258
42756W        W 9297  40.723  14.516   5.012
42757W        W 9298  40.309  36.455   2.754
42758W        W 9299  15.559   0.481   2.750
42759W        W 9300  27.112   1.394   2.402
42760W        W 9301  32.462  15.868  12.456
42761W        W 9302  34.453  24.866   2.208
42762W        W 9303  17.604  33.120   2.719
42763W        W 9304  38.528  23.218   2.879
42764W        W 9305  39.578  41.116   3.702
42765W        W 9306  19.543  13.388  13.461
42766W        W 9307  39.101  38.599   4.630
42767W        W 9308   8.026  24.972  11.110
42768W        W 9309  40.441   2.090   4.093
42769W        W 9310  27.072  18.201   0.969
42770W        W 9311  27.092  31.363   2.909
42771W        W 9312  10.878  10.233   4.619
42772W        W 9313  14.941   7.394   2.825
42773W        W 9314  20.247  12.667  12.146
42774W        W 9315  12.604  21.244  13.354
42775W        W 9316  22.611  12.053  10.618
42776W        W 9317  12.733  17.714   0.906
42777W        W 9318  43.944  18.586   1.893
42778W        W 9319  30.399  22.899   0.762
42779W        W 9320  22.253  10.495   4.931
42780W        W 9321   9.580  38.259  11.524
42781W        W 9322   4.287  28.428  10.318
42782W        W 9323  24.551  16.630   4.125
42783W        W 9324  31.571  39.704  14.818
42784W        W 9325  16.867   3.217   0.785
42785W        W 9326  43.712  44.174  13.472
42786W        W 9327  22.172  34.437  10.546
42787W        W 9328  39.972  10.722  13.417
42788W        W 9329  14.068   1.987  12.806
42789W        W 9330   9.019  16.365  14.314
42790W        W 9331   2.034  43.848  13.025
42791W        W 9332   3.973  11.276   3.182
42792W        W 9333  35.352  29.238  14.059
42793W        W 9334   4.819  20.636  10.670
42794W        W 9335  18.762  16.933  11.403
42795W        W 9336  28.096   5.154  14.218
42796W        W 9337  36.898  36.616   4.615
42797W        W 9338  34.891   6.766  12.186
42798W        W 9339   1.627  22.077   3.590
42799W        W 9340  40.533  40.637  11.311
42800W        W 9341  23.715  13.001  14.076
42801W        W 9342  31.792  14.697   1.734
42802W        W 9343   3.491  24.732   0.484
42803W        W 9344  13.773   3.236  12.050
42804W        W 9345  30.868  17.065   1.359
42805W        W 9346   6.709  33.963  10.788
42806W        W 9347   6.868  22.085   4.270
42807W        W 9348  17.922   7.911  11.211
42808W        W 9349   9.340  41.960   3.064
42809W        W 9350   1.561  41.376   0.823
42810W        W 9351  29.517  12.130   4.784
42811W        W 9352  32.195  42.868   4.562
42812W        W 9353  22.829  22.935  12.805
42813W        W 9354  22.783  19.600   0.484
42814W        W 9355  25.221   7.882  14.870
42815W        W 9356  37.322  30.433   3.671
42816W        W 9357   6.676  40.371  11.588
42817W        W 9358  28.108  15.093  14.215
42818W        W 9359  43.347  20.211  11.950
42819W        W 9360  20.019  44.778   4.500
42820W        W 9361  20.192  38.409  13.755
42821W        W 9362   8.222   5.951   3.188
42822W        W 9363  30.906  20.619  12.933
42823W        W 9364   5.654  42.857   2.629
42824W        W 9365  31.481  44.492   4.773
42825W        W 9366  10.339  42.401   4.465
42826W        W 9367  17.297  16.282   2.136
42827W        W 9368  36.122  25.755   5.113
42828W        W 9369  15.714  16.190  10.242
42829W        W 9370   8.351   5.203   0.813
42830W        W 9371  14.049  38.787   0.642
42831W        W 9372  17.830  17.984  12.872
42832W        W 9373   5.475   3.164  13.075
42833W        W 9374  12.509  24.843  10.691
42834W        W 9375   5.381  11.798   4.078
42835W        W 9376  18.090   9.797  11.150
42836W        W 9377  44.276  29.813  13.532
42837W        W 9378   9.956  41.435   3.420
42838W        W 9379  31.154  31.361  11.794
42839W        W 9380  42.808   2.499   0.876
42840W        W 9381  38.936  29.341  10.772
42841W        W 9382  35.146  25.608   2.638
42842W        W 9383  11.919  28.795  12.821
42843W        W 9384  34.032   7.619   4.346
42844W        W 9385  13.742  34.717   0.239
42845W        W 9386  12.301  18.356   0.887
42846W        W 9387  20.595  31.084  12.524
42847W        W 9388   6.279   3.078   1.711
42848W        W 9389  26.044   5.992  13.510
42849W        W 9390  22.464   1.126   1.863
42850W        W 9391  40.736  22.093   4.182
42851W        W 9392  36.867  40.931   2.675
42852W        W 9393  34.412  23.636  11.136
42853W        W 9394  42.768   4.396   1.205
42854W        W 9395  27.091  35.289  14.798
42855W        W 9396  14.770  14.208   2.396
42856W        W 9397  33.012   8.748  11.390
42857W        W 9398  15.628   8.262  10.628
42858W        W 9399  11.735  33.318  11.102
42859W        W 9400  43.240  13.406   1.362
42860W        W 9401   5.795   9.125   2.474
42861W        W 9402   6.537  13.435   4.923
42862W        W 9403  44.361  17.911  13.382
42863W        W 9404  28.033  26.058  14.995
42864W        W 9405  13.077  29.565   1.219
42865W        W 9406  12.181  43.266  13.715
42866W        W 9407  29.094  39.530  10.700
42867W        W 9408  24.426   2.545  11.916
42868W        W 9409  12.670  41.971   1.270
42869W        W 9410   7.360   8.895   2.290
42870W        W 9411  24.023  21.621  13.444
42871W        W 9412  35.087  44.909  10.958
42872W        W 9413  35.408  17.086   3.593
42873W        W 9414   6.123  15.115   3.125
42874W        W 9415  37.737   2.172   3.176
42875W        W 9416  37.461  21.795   4.256
42876W        W 9417   9.325   4.029   0.748
42877W        W 9418   5.763  35.784   4.433
42878W        W 9419  43.182  20.530  13.847
42879W        W 9420  11.174  21.990   4.540
42880W        W 9421  44.490   0.394   1.338
42881W        W 9422  14.595  27.525   2.738
42882W        W 9423  31.344  21.984   0.110
42883W        W 9424  35.669  44.781  13.047
42884W        W 9425  39.030  35.467  14.039
42885W        W 9426  42.725  13.864   4.222
42886W        W 9427   9.573  43.567   3.668
42887W        W 9428  41.348  28.750  13.476
42888W        W 9429  42.635  34.032  12.554
42889W        W 9430  34.092  31.261   2.424
42890W        W 9431  44.954  12.051  11.582
42891W        W 9432  15.008  29.143   3.276
42892W        W 9433  40.721  33.645   2.892
42893W        W 9434   4.382  44.087   2.889
42894W        W 9435  11.635   4.820   1.239
42895W        W 9436  25.712  28.398  10.353
42896W        W 9437  34.103  28.941  13.634
42897W        W 9438  16.221  21.281   0.021
42898W        W 9439   1.953  35.818   1.013
42899W        W 9440   4.990   2.258   3.549
42900W        W 9441  14.996  10.142   3.322
42901W        W 9442  27.716  39.498  10.467
42902W        W 9443  30.446  42.435  10.719
42903W        W 9444  23.011  12.708  10.559
42904W        W 9445  44.823   2.862  11.339
42905W        W 9446   4.808  41.547  10.060
42906W        W 9447   8.977  11.747  12.531
42907W        W 9448   3.360  31.102  10.348
42908W        W 9449  37.340  31.039   4.100
42909W        W 9450  42.285  29.382   0.290
42910W        W 9451  19.498  44.991   3.947
42911W        W 9452  21.023  21.361   4.066
42912W        W 9453  28.921   4.971   0.487
42913W        W 9454  20.225  31.944  11.929
42914W        W 9455  13.287  19.724  13.067
42915W        W 9456   8.215  14.602   2.894
42916W        W 9457   7.814  43.388  13.338
42917W        W 9458  26.801  39.063  11.957
42918W        W 9459  26.272   5.538  11.065
42919W        W 9460  32.050  11.934   4.878
42920W        W 9461  20.597  43.702  13.436
42921W        W 9462   6.283   8.198   0.806
42922W        W 9463  41.506  10.357  13.839
42923W        W 9464  18.740  16.257   2.648
42924W        W 9465  29.570  33.771  10.362
42925W        W 9466  13.783  15.241   3.815
42926W        W 9467  38.957  31.471  11.202
42927W        W 9468   4.007  10.849  11.041
42928W        W 9469  28.615  20.581   4.134
42929W        W 9470   1.300  33.004  13.201
42930W        W 9471   7.859   8.762   2.353
42931W        W 9472  23.677  25.270  11.480
42932W        W 9473  12.044  15.485   1.303
42933W        W 9474  24.512  24.711  12.825
42934W        W 9475  33.357  16.793  12.949
42935W        W 9476  24.720  34.994  12.179
42936W        W 9477  27.730  35.624   4.213
42937W        W 9478  41.098  13.235  13.328
42938W        W 9479   2.417  32.490  13.028
42939W        W 9480  18.025  33.852  14.886
42940W        W 9481   6.820  11.739   1.316
42941W        W 9482  30.139  38.451   2.304
42942W        W 9483  14.377  39.042  11.943
42943W        W 9484   9.318   5.048   0.346
42944W        W 9485  11.937  32.932   2.736
42945W        W 9486  18.808   2.993  10.498
42946W        W 9487  23.964  10.208   4.524
42947W        W 9488  13.860  23.424   0.236
42948W        W 9489  42.863  11.102   2.731
42949W        W 9490  36.364   2.876  14.161
42950W        W 9491  14.681  16.384   1.908
42951W        W 9492  16.787  33.127   0.234
42952W        W 9493  22.933  26.905  14.836
42953W        W 9494  32.836  17.219   1.181
42954W        W 9495  31.568  23.835   3.285
42955W        W 9496  38.449  28.869  13.382
42956W        W 9497  10.960  33.615   4.652
42957W        W 9498  19.448  22.002   1.543
42958W        W 9499  17.058  35.336   0.863
42959W        W 9500  33.541  16.133  11.367
42960W        W 9501   1.354   6.122   0.813
42961W        W 9502  40.034  22.118  11.627
42962W        W 9503  20.672  16.126  11.216
42963W        W 9504   2.760  41.965   1.113
42964W        W 9505  34.947  19.535  14.855
42965W        W 9506  39.972  11.023  11.125
42966W        W 9507  10.697  40.088   3.116
42967W        W 9508  12.218   4.384  12.691
42968W        W 9509  28.904  41.995   2.467
42969W        W 9510  10.677  44.000   0.798
42970W        W 9511   8.795  16.319  13.828
42971W        W 9512  44.192  37.632   5.201
42972W        W 9513  28.946   7.293  12.359
42973W        W 9514   2.909  43.741   0.302
42974W        W 9515   2.499  26.401  12.017
42975W        W 9516   3.293   6.203  12.984
42976W        W 9517  33.703  25.555   0.737
42977W        W 9518  42.013   5.699   4.287
42978W        W 9519  39.837  20.593  14.942
42979W        W 9520  40.920  16.243   5.084
42980W        W 9521  14.580  27.567   0.353
42981W        W 9522  23.703  22.983   0.431
42982W        W 9523   7.252  28.981   3.783
42983W        W 9524  44.242  16.864  12.468
42984W        W 9525  17.152   4.895  10.634
42985W        W 9526  11.347  39.689  12.591
42986W        W 9527   3.140   1.429   1.352
42987W        W 9528  13.564   6.196  14.618
42988W        W 9529  40.826  32.293  11.591
42989W        W 9530   7.827  39.817   2.669
42990W        W 9531  22.577  32.507  13.928
42991W        W 9532  15.448  35.505  10.737
42992W        W 9533  22.188  36.047  13.031
42993W        W 9534   1.461  25.451  14.831
42994W        W 9535  40.826  38.863  13.012
42995W        W 9536  20.114  27.520  14.817
42996W        W 9537  21.729   2.889  11.976
42997W        W 9538  34.456  37.266   4.454
42998W        W 9539   5.410  20.907  12.939
42999W        W 9540  35.391  26.580  13.468
43000W        W 9541  27.206  23.242   1.724
43001W        W 9542  43.406  36.527  11.992
43002W        W 9543  13.236  28.139  10.703
43003W        W 9544  31.816  23.311  10.972
43004W        W 9545   9.755  38.863   3.591
43005W        W 9546   7.228   7.655  10.651
43006W        W 9547  17.631  23.104   0.036
43007W        W 9548  11.703  36.992  14.560
43008W        W 9549  31.679  16.267   3.183
43009W        W 9550  26.911  23.168  10.583
43010W        W 9551  25.007  39.519   0.286
43011W        W 9552  23.936  27.058   0.861
43012W        W 9553   5.797   3.328   4.553
43013W        W 9554  16.634  29.163  12.436
43014W        W 9555  19.119  43.174  11.652
43015W        W 9556  11.685   0.970  13.910
43016W        W 9557   6.593   7.702  12.444
43017W        W 9558   5.122  16.753   0.137
43018W        W 9559  15.049   1.827   2.209
43019W        W 9560  10.368  37.368  14.107
43020W        W 9561  16.422  12.519  11.948
43021W        W 9562  42.234  20.095  14.424
43022W        W 9563  38.886   2.322  14.814
43023W        W 9564  17.628  36.956  13.118
43024W        W 9565  27.989   1.930  14.983
43025W        W 9566  18.232  32.038  10.395
43026W        W 9567  11.866  30.486  13.907
43027W        W 9568   1.907  12.585   4.993
43028W        W 9569   1.869  19.242  11.124
43029W        W 9570  16.947  37.611   2.849
43030W        W 9571  34.264   9.117  13.447
43031W        W 9572   3.804   2.588   2.857
43032W        W 9573  41.077   3.041   0.474
43033W        W 9574  14.503  17.519  13.987
43034W        W 9575   6.257  27.948  14.273
43035W        W 9576  17.303  44.756   0.325
43036W        W 9577   4.195  18.760   2.794
43037W        W 9578   7.350  37.457  11.555
43038W        W 9579  29.828  26.023   2.584
43039W        W 9580   4.615  19.547  13.424
43040W        W 9581  24.150  31.550  14.481
43041W        W 9582   9.713  39.127  12.578
43042W        W 9583  21.526  11.934  14.314
43043W        W 9584  25.513  25.614   2.580
43044W        W 9585   8.992  29.174   1.366
43045W        W 9586  39.932  44.812   4.699
43046W        W 9587  14.925  39.802   1.868
43047W        W 9588  43.551  37.165   2.074
43048W        W 9589  15.628  16.911  13.693
43049W        W 9590  33.750   4.275   0.294
43050W        W 9591   5.434  16.133   1.888
43051W        W 9592  21.250   2.516  13.381
43052W        W 9593  36.124  15.420  11.124
43053W        W 9594   1.026   0.025   1.344
43054W        W 9595  30.536   8.333   0.811
43055W        W 9596  26.547  43.904  12.483
43056W        W 9597  17.092   9.454   4.255
43057W        W 9598  31.604   3.479  11.612
43058W        W 9599  43.283  16.344   3.426
43059W        W 9600  28.675  17.721   0.771
43060W        W 9601   7.162  18.715  11.243
43061W        W 9602  39.545  31.705  13.912
43062W        W 9603  35.261  41.850   4.020
43063W        W 9604  31.721   0.336  12.315
43064W        W 9605  42.225  34.023   2.007
43065W        W 9606  44.681  34.095   3.675
43066W        W 9607  20.113  32.737  12.975
43067W        W 9608   3.438  40.797   1.134
43068W        W 9609  10.646  37.966   0.146
43069W        W 9610  32.964  26.240  12.147
43070W        W 9611  18.528  31.156   2.607
43071W        W 9612  38.564  17.499  11.928
43072W        W 9613  23.452  40.974   0.467
43073W        W 9614  26.166   4.198   2.213
43074W        W 9615   4.447  20.407  14.827
43075W        W 9616   7.457  24.634   1.673
43076W        W 9617   2.165  26.145  13.328
43077W        W 9618  13.813  13.799   3.910
43078W        W 9619  41.253   9.819   0.843
43079W        W 9620   4.959  29.810   2.539
43080W        W 9621   2.825  28.111  13.612
43081W        W 9622  16.359  15.296   0.342
43082W        W 9623  44.225   1.273   1.764
43083W        W 9624  19.630  25.612  10.928
43084W        W 9625  19.650  18.168   2.137
43085W        W 9626  34.541  11.900   4.378
43086W        W 9627  26.011  39.293  12.983
43087W        W 9628  33.948  39.401   4.290
43088W        W 9629  43.825   4.376  14.068
43089W        W 9630  44.339  20.143  12.335
43090W        W 9631  10.513  24.128   0.544
43091W        W 9632  22.680  25.987  14.057
43092W        W 9633   4.051  33.114  13.806
43093W        W 9634  22.594  40.485  14.340
43094W        W 9635  26.742  44.200   4.015
43095W        W 9636  32.477  25.672  13.236
43096W        W 9637   5.499  26.562  12.661
43097W        W 9638  26.230  11.966   4.212
43098W        W 9639  13.013  44.780  12.496
43099W        W 9640  26.955  24.074   2.966
43100W        W 9641  31.592  43.211  14.864
43101W        W 9642  24.306  13.215   2.874
43102W        W 9643  20.561  10.770  11.043
43103W        W 9644  12.275  19.060  11.993
43104W        W 9645  30.998  23.715   2.663
43105W        W 9646  19.751   4.353  10.906
43106W        W 9647  44.241  38.507  11.992
43107W        W 9648   9.741   2.788   1.926
43108W        W 9649   9.615  28.851  11.071
43109W        W 9650  15.872  37.104   2.471
43110W        W 9651  34.789  18.042   2.998
43111W        W 9652  21.835  30.891   1.242
43112W        W 9653  24.139  23.000  11.755
43113W        W 9654   7.938  39.053   4.165
43114W        W 9655  30.857  32.976  12.984
43115W        W 9656  17.797  18.206   2.719
43116W        W 9657  10.695  10.758   0.499
43117W        W 9658  43.773   4.335   1.285
43118W        W 9659  26.546   0.774   2.315
43119W        W 9660  16.727  28.073   3.660
43120W        W 9661  34.627  20.655  10.542
43121W        W 9662  30.453  29.773   1.804
43122W        W 9663   7.094   1.455   3.258
43123W        W 9664  38.056  11.788   0.950
43124W        W 9665   5.173  27.851  13.984
43125W        W 9666  34.007  19.851  14.862
43126W        W 9667  30.886  20.630   3.173
43127W        W 9668  23.063  14.209   1.395
43128W        W 9669  19.379  32.334   3.231
43129W        W 9670  19.730  15.661   3.706
43130W        W 9671  11.815  43.524   0.716
43131W        W 9672   4.448  11.568  13.108
43132W        W 9673  21.830  15.795   3.517
43133W        W 9674  43.445  20.793  13.484
43134W        W 9675  19.262  23.508  12.611
43135W        W 9676  27.642  25.181   1.256
43136W        W 9677   2.488   0.341   1.788
43137W        W 9678  24.472  30.061  12.310
43138W        W 9679  35.793  13.478   2.092
43139W        W 9680   4.790  17.036  11.180
43140W        W 9681   0.580  37.468   4.626
43141W        W 9682  44.350  39.016   4.276
43142W        W 9683  40.558  21.521   3.701
43143W        W 9684  42.546  40.432  11.864
43144W        W 9685  11.680  42.229   3.139
43145W        W 9686  18.288  19.333   3.320
43146W        W 9687  11.224  18.886   2.914
43147W        W 9688  35.896  14.263  11.126
43148W        W 9689  25.597  34.225  13.334
43149W        W 9690  28.395  32.431  13.030
43150W        W 9691  43.781  11.797   1.917
43151W        W 9692  29.996  27.825   0.962
43152W        W 9693   5.295  26.864  13.861
43153W        W 9694  16.097  33.399  13.065
43154W        W 9695  34.110  44.991  10.741
43155W        W 9696  39.576  22.215   0.684
43156W        W 9697  22.837  37.647  13.448
43157W        W 9698   4.430   0.408   0.227
43158W        W 9699  13.278   7.704  13.871
43159W        W 9700  43.912  16.636   4.239
43160W        W 9701   1.304  10.132   1.977
43161W        W 9702  44.389  30.204   2.701
43162W        W 9703  31.575  20.264   0.880
43163W        W 9704  35.791  42.841   3.905
43164W        W 9705  25.324  32.714  11.144
43165W        W 9706  33.754  11.006   0.760
43166W        W 9707   7.471  44.231   4.556
43167W        W 9708   3.054  21.218  13.341
43168W        W 9709  42.493  30.641   0.749
43169W        W 9710  30.915   6.675  12.158
43170W        W 9711  27.523  32.524  12.009
43171W        W 9712   3.059  24.127   3.521
43172W        W 9713  19.249  22.502   4.924
43173W        W 9714  22.912  11.823   4.057
43174W        W 9715  15.240  38.403  11.030
43175W        W 9716  13.162  44.975  12.955
43176W        W 9717  15.385  32.519  14.308
43177W        W 9718   4.495  40.511  11.055
43178W        W 9719  16.568  31.258   1.002
43179W        W 9720  30.958   4.272   3.438
43180W        W 9721  14.761  41.062   3.244
43181W        W 9722  16.299  25.528  11.064
43182W        W 9723  27.231  26.751   0.889
43183W        W 9724  37.767   4.999   1.807
43184W        W 9725  38.101  26.642  10.934
43185W        W 9726   0.414  30.906   0.946
43186W        W 9727  28.042  33.885   3.185
43187W        W 9728   6.238  18.802  13.597
43188W        W 9729  34.283  19.715   4.567
43189W        W 9730  25.733   0.937   2.995
43190W        W 9731  20.265  27.258  13.003
43191W        W 9732  16.109  29.653  14.444
43192W        W 9733  30.368  42.562   4.284
43193W        W 9734  27.410   3.220  13.053
43194W        W 9735   2.295  10.805  12.561
43195W        W 9736  13.085  17.743   1.873
43196W        W 9737  25.628  19.568  10.726
43197W        W 9738   5.687  39.910   0.424
43198W        W 9739  17.505  14.107  11.348
43199W        W 9740  17.176   5.314   2.447
43200W        W 9741   5.910  34.045   1.559
43201W        W 9742  13.121   2.690   1.728
43202W        W 9743   9.128   8.011  13.901
43203W        W 9744   4.355   2.067  13.858
43204W        W 9745   8.322  17.856  14.976
43205W        W 9746   8.720  20.134  13.918
43206W        W 9747  11.622  43.355   0.259
43207W        W 9748  44.927   9.597   4.017
43208W        W 9749  14.092  23.477   1.959
43209W        W 9750  24.918  27.936  13.449
43210W        W 9751  20.130  28.177   2.418
43211W        W 9752   8.398  15.856   0.537
43212W        W 9753  43.934  12.066  14.383
43213W        W 9754  16.257   7.131  12.084
43214W        W 9755  30.518   9.239  10.726
43215W        W 9756  40.784  12.188   4.757
43216W        W 9757  41.965  43.993   5.020
43217W        W 9758  42.547   9.405  11.598
43218W        W 9759  14.758   2.027   1.061
43219W        W 9760  38.909  35.940  13.847
43220W        W 9761  16.210  17.709   4.431
43221W        W 9762  31.982  32.470   4.066
43222W        W 9763  30.980  36.181  12.589
43223W        W 9764   4.134  31.050   2.241
43224W        W 9765  19.066  37.725  12.009
43225W        W 9766  13.936  31.068   1.752
43226W        W 9767  35.195  15.097   1.852
43227W        W 9768  40.909  35.516  12.192
43228W        W 9769  28.919  34.845  12.455
43229W        W 9770  18.302  12.423  11.081
43230W        W 9771   3.830  36.682   0.177
43231W        W 9772   9.455   8.619   2.183
43232W        W 9773   9.015  36.386   1.211
43233W        W 9774  14.873  28.492   4.093
43234W        W 9775   9.807  10.319  12.585
43235W        W 9776  33.097   9.917   0.392
43236W        W 9777  36.341  39.799  14.838
43237W        W 9778  17.251   3.425   4.525
43238W        W 9779   1.133  11.148  10.979
43239W        W 9780  27.114   6.269   1.408
43240W        W 9781  16.029  19.585   3.662
43241W        W 9782  38.853  10.442   0.268
43242W        W 9783  38.604  15.676  14.280
43243W        W 9784   3.473  13.727  13.943
43244W        W 9785   6.908  36.330  13.013
43245W        W 9786  30.541  42.531  12.177
43246W        W 9787  27.865  15.480   1.428
43247W        W 9788  17.139  30.184   4.156
43248W        W 9789  39.798   8.840  13.885
43249W        W 9790   0.893  44.522   1.447
43250W        W 9791  38.596  16.248   0.507
43251W        W 9792  40.894  31.367   1.365
43252W        W 9793  24.500   9.352   3.204
43253W        W 9794  18.300  29.038   1.338
43254W        W 9795   1.489  32.965  10.029
43255W        W 9796  22.741  41.567  10.114
43256W        W 9797  32.130  36.819   1.144
43257W        W 9798  14.816  35.446   5.103
43258W        W 9799  10.368   3.366  11.804
43259W        W 9800  39.544   0.757  10.337
43260W        W 9801  44.526  35.420   0.272
43261W        W 9802   9.444  28.984  12.414
43262W        W 9803  42.531  28.656  11.581
43263W        W 9804  40.914   7.334   3.181
43264W        W 9805  16.216  39.404  10.686
43265W        W 9806  37.029   8.311   3.531
43266W        W 9807  25.701  24.751  11.163
43267W        W 9808   5.345  37.374  10.212
43268W        W 9809  42.283   2.849   0.903
43269W        W 9810  34.529  42.223   0.919
43270W        W 9811  13.328  21.739   4.488
43271W        W 9812  19.007  38.936  10.518
43272W        W 9813   8.947  20.522   3.859
43273W        W 9814  32.269  24.132   2.737
43274W        W 9815   7.458  44.632  10.560
43275W        W 9816  43.848  40.117  14.523
43276W        W 9817  30.451  12.376   3.128
43277W        W 9818  14.611  27.717  12.451
43278W        W 9819  10.753  41.307  14.208
43279W        W 9820   8.931  43.432   0.432
43280W        W 9821  37.993  14.806   0.341
43281W        W 9822   9.175   5.559   3.137
43282W        W 9823  20.527  24.200  13.386
43283W        W 9824  36.284  24.297  13.437
43284W        W 9825   4.364   0.957   1.842
43285W        W 9826  34.873  33.032   4.334
43286W        W 9827  33.869   5.415  14.507
43287W        W 9828  21.470   0.358   5.068
43288W        W 9829   4.023  29.467  10.586
43289W        W 9830   2.184  11.687   2.089
43290W        W 9831  17.589   5.226  13.936
43291W        W 9832  23.234   4.158  14.836
43292W        W 9833  40.369  41.035   1.543
43293W        W 9834  35.529  23.458  12.918
43294W        W 9835  38.924  30.888  10.738
43295W        W 9836  23.045  35.802  14.534
43296W        W 9837  11.256  29.653   2.725
43297W        W 9838  40.945  19.327   3.297
43298W        W 9839  22.481  12.846   4.585
43299W        W 9840  43.053  33.837  13.821
43300W        W 9841  23.285  22.047  13.015
43301W        W 9842  35.976   0.279   4.072
43302W        W 9843  33.909  25.994   1.966
43303W        W 9844  11.703  34.990   2.312
43304W        W 9845  12.094   7.410  13.960
43305W        W 9846  15.140  13.062   3.041
43306W        W 9847  36.829  11.857  13.918
43307W        W 9848  30.052  34.526   1.149
43308W        W 9849  23.640  32.826   4.232
43309W        W 9850  36.962   2.619   1.312
43310W        W 9851  21.611  44.505  14.929
43311W        W 9852  19.586  30.659  14.375
43312W        W 9853  38.531  23.364  10.352
43313W        W 9854   1.345  35.007   4.108
43314W        W 9855  32.907  26.419   2.900
43315W        W 9856  10.328  29.087   9.920
43316W        W 9857  29.433  13.575   1.180
43317W        W 9858  12.697  33.910  12.578
43318W        W 9859   5.211  21.787   1.869
43319W        W 9860  42.113   8.222  14.875
43320W        W 9861  18.217   5.902  12.851
43321W        W 9862  15.687  37.569   2.452
43322W        W 9863  33.912  35.109   1.063
43323W        W 9864  24.526   2.907  11.559
43324W        W 9865  34.469  31.907   9.923
43325W        W 9866  14.044  44.737   0.745
43326W        W 9867  31.078  43.827   1.197
43327W        W 9868  13.278  38.313  11.975
43328W        W 9869   8.715  10.202   4.050
43329W        W 9870  36.139  29.430   0.771
43330W        W 9871  14.682  11.928  11.570
43331W        W 9872  24.268  38.185  11.977
43332W        W 9873  10.326  31.064   5.207
43333W        W 9874  16.672  10.132   4.649
43334W        W 9875  20.338  27.297  14.249
43335W        W 9876  35.563  14.024  12.912
43336W        W 9877   9.807  25.306   0.803
43337W        W 9878  15.678  32.048  12.004
43338W        W 9879   5.096  10.224   5.033
43339W        W 9880   2.510  34.340   1.938
43340W        W 9881   6.761   6.297   2.509
43341W        W 9882   6.231  26.510  11.567
43342W        W 9883  30.996   7.190   2.895
43343W        W 9884  32.356   5.203  13.972
43344W        W 9885  14.374  44.818   0.320
43345W        W 9886  44.316  12.668  14.031
43346W        W 9887  40.736  41.108   1.889
43347W        W 9888  43.949  23.637   2.780
43348W        W 9889  23.304  26.932   4.137
43349W        W 9890  10.189  23.858   4.111
43350W        W 9891  31.922   9.236   0.968
43351W        W 9892  38.524  16.093   2.837
43352W        W 9893  25.237  29.270   3.686
43353W        W 9894  21.126  17.275   3.236
43354W        W 9895  30.644  11.802   4.937
43355W        W 9896   1.882  12.561   3.882
43356W        W 9897   5.752  24.822   0.337
43357W        W 9898  12.549  19.000   3.185
43358W        W 9899   5.989  27.673   3.666
43359W        W 9900   6.961  17.242   3.561
43360W        W 9901   5.957  26.772   0.250
43361W        W 9902  40.123  11.389   4.965
43362W        W 9903  20.222   0.675   4.119
43363W        W 9904   4.634  42.136  14.027
43364W        W 9905   9.328  30.186  11.375
43365W        W 9906  38.552  22.255  14.949
43366W        W 9907  20.806  40.963   1.171
43367W        W 9908  16.623  37.644   2.464
43368W        W 9909   4.210  38.826   4.004
43369W        W 9910  18.226  27.635   0.238
43370W        W 9911  33.737   7.627  14.801
43371W        W 9912  44.130  27.451   1.166
43372W        W 9913  12.895   2.717   2.416
43373W        W 9914  35.132  16.398  14.508
43374W        W 9915   5.900  16.957   1.132
43375W        W 9916  22.293  44.333   1.198
43376W        W 9917  44.511  35.044   2.350
43377W        W 9918   3.334  33.929   0.292
43378W        W 9919  27.118   4.061  12.908
43379W        W 9920  23.702  29.845   3.594
43380W        W 9921  16.304  15.539  14.807
43381W        W 9922  19.277   3.949   3.170
43382W        W 9923   5.309  38.553  13.901
43383W        W 9924  43.338  15.446   4.548
43384W        W 9925  35.572   9.223   4.499
43385W        W 9926   1.368  28.078   2.152
43386W        W 9927  32.362  15.593  14.951
43387W        W 9928  41.135   9.691   0.333
43388W        W 9929  30.544  40.614  13.074
43389W        W 9930   7.855  27.418   1.866
43390W        W 9931  39.331  21.166   0.355
43391W        W 9932  12.685  40.972  11.490
43392W        W 9933  42.426  40.823   3.322
43393W        W 9934  27.888  44.308   0.056
43394W        W 9935  39.755  17.080  12.550
43395W        W 9936  19.634  28.840  13.917
43396W        W 9937  12.227  41.912  12.168
43397W        W 9938  42.524  20.745  10.684
43398W        W 9939   2.336  40.258   1.091
43399W        W 9940  12.183  28.678   2.695
43400W        W 9941  40.147   4.417  12.183
43401W        W 9942  27.028   6.894  13.553
43402W        W 9943   1.494   7.872  12.093
43403W        W 9944  16.217  24.541  11.838
43404W        W 9945   4.203  32.050  11.927
43405W        W 9946  19.624  30.164   4.957
43406W        W 9947  24.432  36.508   1.749
43407W        W 9948  41.052  10.919   4.024
43408W        W 9949   8.058  13.359   1.536
43409W        W 9950  10.353  21.275  13.099
43410W        W 9951  31.891  41.414   0.628
43411W        W 9952  24.927  19.466   3.926
43412W        W 9953  37.706  44.191  13.370
43413W        W 9954  17.578  41.247   1.770
43414W        W 9955  34.309   0.211   1.027
43415W        W 9956  43.631  29.813   1.452
43416W        W 9957  40.574  38.343  13.365
43417W        W 9958  14.684  19.514  13.060
43418W        W 9959   9.816  19.225  14.077
43419W        W 9960  39.311  15.287  14.231
43420W        W 9961  34.057  17.747  12.464
43421W        W 9962  18.230  22.545   1.551
43422W        W 9963  29.672  37.081   2.676
43423W        W 9964  21.779  42.124  12.040
43424W        W 9965   1.384   6.868   0.400
43425W        W 9966  28.427  42.917   1.724
43426W        W 9967  14.206  12.967   3.384
43427W        W 9968  32.049  38.372  10.706
43428W        W 9969  41.666  44.633   3.379
43429W        W 9970  24.839  37.704  12.572
43430W        W 9971  29.131  31.027   2.409
43431W        W 9972  27.509  20.039  11.231
43432W        W 9973   1.321  14.651  11.756
43433W        W 9974   0.328  19.540  14.682
43434W        W 9975   7.458   1.245   4.516
43435W        W 9976  21.838  41.546   3.211
43436W        W 9977   5.336  12.497   4.640
43437W        W 9978  40.281   1.243   0.309
43438W        W 9979  12.924  38.055   2.279
43439W        W 9980  43.468  22.236  13.099
43440W        W 9981   3.025  14.745  13.562
43441W        W 9982  38.501  15.571  12.030
43442W        W 9983  19.778  24.769  13.015
43443W        W 9984  37.004  35.378   4.244
43444W        W 9985  33.207  21.178   3.715
43445W        W 9986  30.759   7.199   3.892
43446W        W 9987   7.803  42.969  12.803
43447W        W 9988  30.906  26.209  13.519
43448W        W 9989  24.064  39.506   4.204
43449W        W 9990  14.226  18.737  12.812
43450W        W 9991   3.003  20.116   2.364
43451W        W 9992  36.986   9.137  13.980
43452W        W 9993   9.257   3.793  13.066
43453W        W 9994  24.021  16.639  14.936
43454W        W 9995  43.830  15.301   2.756
43455W        W 9996  28.082   7.973  13.890
43456W        W 9997   4.452  30.506   4.933
43457W        W 9998  12.196  18.799   1.120
43458W        W 9999  39.701  39.358  11.509
43459W        W10000  21.310  29.482   3.190
43460W        W10001  37.246   9.000  12.527
43461W        W10002  21.876  17.210  13.809
43462W        W10003  12.379  18.230  12.510
43463W        W10004  18.769   5.405  12.987
43464W        W10005  10.882  28.503  14.304
43465W        W10006  38.379  41.274   1.414
43466W        W10007   2.676  32.709  14.562
43467W        W10008  34.857   2.482  14.770
43468W        W10009  41.910  15.955  14.474
43469W        W10010  29.891  36.380   4.142
43470W        W10011  32.616  16.594  12.039
43471W        W10012  21.130  31.830  13.404
43472W        W10013  20.003  29.618   4.209
43473W        W10014  29.177  28.143  10.673
43474W        W10015  19.460   5.477  14.272
43475W        W10016  17.242  23.550   3.366
43476W        W10017  22.986  38.294   3.680
43477W        W10018  15.189  22.541   4.578
43478W        W10019  30.516  22.054   0.298
43479W        W10020   4.845  10.630  14.607
43480W        W10021  18.855   3.950   4.615
43481W        W10022  10.722  43.323  11.196
43482W        W10023  17.320  31.110  13.815
43483W        W10024  28.794  36.782   0.015
43484W        W10025  23.410  44.779   2.866
43485W        W10026  13.876  36.031   3.278
43486W        W10027  33.975   4.934  13.056
43487W        W10028  22.288  12.994  12.949
43488W        W10029  38.601  44.736   2.901
43489W        W10030   5.861   7.188   0.302
43490W        W10031  35.544  26.404  12.052
43491W        W10032  23.328   6.266  13.898
43492W        W10033  30.390  20.859  12.066
43493W        W10034  13.366   9.337  11.116
43494W        W10035   9.554  18.101   0.799
43495W        W10036  39.967  16.086   0.345
43496W        W10037  17.674   4.671   3.614
43497W        W10038   5.671  26.954  11.941
43498W        W10039  30.654   9.243   4.623
43499W        W10040  17.379  42.922   4.510
43500W        W10041  32.353  44.600   4.644
43501W        W10042   4.228   6.691   3.255
43502W        W10043  37.393  13.773  10.538
43503W        W10044  31.675  16.246  13.979
43504W        W10045  33.444  15.409   0.448
43505W        W10046  16.617  40.745  12.408
43506W        W10047  40.817  30.657   3.755
43507W        W10048  21.500  24.254  14.316
43508W        W10049  44.962  41.769   2.189
43509W        W10050   0.996  38.027  14.756
43510W        W10051   1.153  27.760   0.494
43511W        W10052   4.552  21.759  13.748
43512W        W10053   1.137  27.875   4.499
43513W        W10054  29.159  10.279   0.429
43514W        W10055   0.211  11.816   3.144
43515W        W10056  22.937  18.685  14.825
43516W        W10057   9.727  41.489   0.669
43517W        W10058  29.707  29.303   3.276
43518W        W10059  44.862   4.546   2.694
43519W        W10060   1.939  23.177  12.631
43520W        W10061   7.484  13.115   3.266
43521W        W10062  27.629  22.313  11.421
43522W        W10063  18.296  26.546  10.403
43523W        W10064  33.480  16.671   1.519
43524W        W10065  26.097  36.327   0.875
43525W        W10066  42.047  29.553   2.769
43526W        W10067  10.850   2.588  14.425
43527W        W10068  19.538  27.054   1.637
43528W        W10069  37.870   1.571  11.483
43529W        W10070  41.548  44.576  10.384
43530W        W10071   7.428  13.285  12.031
43531W        W10072  31.120  25.017   2.717
43532W        W10073  22.971   4.310   1.898
43533W        W10074  43.916  26.650   3.128
43534W        W10075   2.924  21.186   4.459
43535W        W10076  36.301   5.183   0.888
43536W        W10077  28.768  24.672  13.788
43537W        W10078  30.827  14.655   1.724
43538W        W10079  32.179  42.016  12.086
43539W        W10080  19.567  10.337   0.450
43540W        W10081  14.042  17.259  14.020
43541W        W10082  29.568   7.598  11.216
43542W        W10083  18.405  23.035   1.713
43543W        W10084   6.902  11.484   4.227
43544W        W10085  12.578   9.238   0.060
43545W        W10086  25.725  18.666  10.712
43546W        W10087  14.159   0.288  12.809
43547W        W10088  39.747  22.527   2.437
43548W        W10089   9.347   3.567  13.948
43549W        W10090  38.569   8.566   1.363
43550W        W10091  13.828  43.777  13.868
43551W        W10092  12.965  32.367  10.301
43552W        W10093   2.295  29.037   0.983
43553W        W10094  13.695  26.679   2.407
43554W        W10095  36.488   8.641   0.858
43555W        W10096  33.393  26.190  14.265
43556W        W10097  25.906  20.652   0.919
43557W        W10098  27.690  39.088  10.878
43558W        W10099  34.500   5.611  14.999
43559W        W10100  28.180  33.473   2.895
43560W        W10101  23.566  13.360   2.196
43561W        W10102  20.130  36.779  10.508
43562W        W10103  42.790  32.521   0.856
43563W        W10104  38.349  21.113  14.313
43564W        W10105   5.946  19.090  12.468
43565W        W10106  33.575  35.903  13.414
43566W        W10107  22.517   4.780   0.821
43567W        W10108  40.337   2.800  12.988
43568W        W10109  17.145  32.882  13.732
43569W        W10110   0.378  18.795   2.154
43570W        W10111  28.998  20.645   0.711
43571W        W10112  44.812   9.370   4.553
43572W        W10113  14.308  20.050   2.249
43573W        W10114   1.396   8.502  10.858
43574W        W10115  37.731  21.189   0.300
43575W        W10116  16.628  35.544   1.648
43576W        W10117  11.159  29.317   0.169
43577W        W10118  19.643  44.194   5.374
43578W        W10119  44.206  32.992  11.605
43579W        W10120  31.068  15.316   5.240
43580W        W10121  32.410  29.456  14.835
43581W        W10122   7.334   4.421  11.579
43582W        W10123  13.940  12.441   1.202
43583W        W10124   9.866  24.923  12.517
43584W        W10125  22.674  37.101   2.757
43585W        W10126  14.046  16.514  14.855
43586W        W10127   1.366  31.889  12.799
43587W        W10128   6.492  26.343  11.132
43588W        W10129  15.343  18.524   2.674
43589W        W10130  14.639  34.172  12.974
43590W        W10131   4.900  30.536  12.630
43591W        W10132  34.336   6.044  12.605
43592W        W10133  41.429  13.506   2.100
43593W        W10134  21.117   4.234   3.072
43594W        W10135   4.327  17.732   0.703
43595W        W10136  23.689   9.796  11.649
43596W        W10137  30.862  31.686  12.072
43597W        W10138   0.468  36.887  12.997
43598W        W10139  26.033  38.359  10.587
43599W        W10140  33.020  12.277   1.936
43600W        W10141  10.633  20.075   3.168
43601W        W10142  12.231  30.989   5.108
43602W        W10143  37.710  43.745   0.055
43603W        W10144  33.014  25.922   0.346
43604W        W10145   3.496  37.500   1.384
43605W        W10146  15.996   3.482   1.901
43606W        W10147  42.969   3.036   1.750
43607W        W10148  15.878   1.502   0.392
43608W        W10149  34.543   9.259   0.519
43609W        W10150  13.118   9.519  14.482
43610W        W10151  17.740  39.360  13.493
43611W        W10152   9.712  13.872   3.758
43612W        W10153  15.134   1.048   0.054
43613W        W10154  25.626  24.707  14.835
43614W        W10155  32.364  27.871  10.759
43615W        W10156  32.208  32.391   3.240
43616W        W10157  36.956  23.602  13.473
43617W        W10158   0.672  14.569  12.284
43618W        W10159  40.193  19.290   2.105
43619W        W10160  25.588  41.269  11.203
43620W        W10161  37.370  43.474  12.939
43621W        W10162  14.520   3.702   4.638
43622W        W10163  41.784  27.497  13.474
43623W        W10164   9.832  29.469  14.044
43624W        W10165   6.211  14.262   4.039
43625W        W10166  26.713  34.474   2.015
43626W        W10167  14.592  12.198  12.326
43627W        W10168  39.364  17.301   2.764
43628W        W10169  36.437  37.005  10.690
43629W        W10170   4.669  16.259  11.663
43630W        W10171   7.355  28.502  14.483
43631W        W10172  26.965  44.030  13.835
43632W        W10173  18.609  34.363   1.930
43633W        W10174  19.162  42.833   3.920
43634W        W10175  33.449   9.937   1.849
43635W        W10176  37.368  18.390   2.408
43636W        W10177  18.118   7.827   1.481
43637W        W10178  14.198   0.657   3.156
43638W        W10179  23.984  30.788  13.392
43639W        W10180   8.949   9.238   2.575
43640W        W10181  40.816  38.308  13.840
43641W        W10182  38.816   7.685  13.104
43642W        W10183  44.860  29.490   4.707
43643W        W10184  43.589   7.261  11.502
43644W        W10185   7.257  27.670   4.127
43645W        W10186  36.659  20.619  10.713
43646W        W10187  16.697   7.791   3.103
43647W        W10188  14.657  21.136  10.824
43648W        W10189  43.504  11.216  13.308
43649W        W10190  30.746  37.911  10.529
43650W        W10191  33.097  15.617   5.081
43651W        W10192  41.764  14.374  11.205
43652W        W10193  25.072  25.245  14.398
43653W        W10194  23.330   9.427   4.666
43654W        W10195  11.691  42.002  11.052
43655W        W10196  34.612  10.965  13.843
43656W        W10197  36.277  20.577   2.675
43657W        W10198   6.926  27.288   3.306
43658W        W10199  36.425  38.939   4.556
43659W        W10200   1.307  18.419   1.919
43660W        W10201  22.178   9.157   1.715
43661W        W10202  15.354  15.104   1.317
43662W        W10203  35.100   5.009   1.525
43663W        W10204  18.319  22.014  11.508
43664W        W10205  31.073  42.343   0.448
43665W        W10206   4.533  40.629  10.014
43666W        W10207  16.585  37.773  12.084
43667W        W10208  33.372  33.315   3.648
43668W        W10209  38.049   4.196  13.007
43669W        W10210  26.040  13.531  12.014
43670W        W10211  14.715  13.774   3.304
43671W        W10212  14.765   2.672   1.897
43672W        W10213  12.671  10.666   2.483
43673W        W10214  23.175  22.459   1.316
43674W        W10215  17.381  29.056   1.485
43675W        W10216   5.400  24.928  13.007
43676W        W10217  13.709  36.899   2.716
43677W        W10218   6.271  26.484  13.537
43678W        W10219  17.519   2.486  12.198
43679W        W10220  12.596  35.354  12.449
43680W        W10221  44.696  15.827  12.523
43681W        W10222  41.926  40.931  11.949
43682W        W10223  24.975  12.305  11.916
43683W        W10224  17.962  36.608   1.525
43684W        W10225  39.657  26.399   4.545
43685W        W10226  31.708  42.896   3.180
43686W        W10227  30.957  25.555   0.926
43687W        W10228  34.115  43.095   1.709
43688W        W10229  42.483  43.249  12.076
43689W        W10230  43.768  13.825  11.883
43690W        W10231   5.738  23.597   2.650
43691W        W10232  31.130  42.280  13.909
43692W        W10233  33.532   0.422  13.387
43693W        W10234  14.541  37.965   2.693
43694W        W10235  31.434  23.348  12.623
43695W        W10236  23.717  15.805  13.449
43696W        W10237  36.349  21.066  13.473
43697W        W10238  24.998  13.244   0.501
43698W        W10239   7.535  30.975   5.037
43699W        W10240  11.340  37.921  11.022
43700W        W10241  15.207  42.989   3.872
43701W        W10242  21.075  18.353  14.389
43702W        W10243  20.258  23.599   1.760
43703W        W10244  29.503  22.076  12.542
43704W        W10245  34.945  18.366  10.658
43705W        W10246  23.923  10.803  12.936
43706W        W10247  34.985  15.643  10.742
43707W        W10248   7.400  12.430  11.091
43708W        W10249  29.073   6.608  14.934
43709W        W10250  18.145  22.207  14.263
43710W        W10251   6.972  26.171   4.360
43711W        W10252  43.802  14.176   3.607
43712W        W10253  16.841  33.109  10.627
43713W        W10254  41.082  17.720  11.481
43714W        W10255  19.123  29.260  10.659
43715W        W10256  33.012  14.365  13.342
43716W        W10257  42.560   3.900  12.067
43717W        W10258  19.312  43.331  12.934
43718W        W10259  27.679  19.011  12.582
43719W        W10260  19.446  34.361   1.948
43720W        W10261  33.717  19.780  10.650
43721W        W10262  27.664  36.581   4.176
43722W        W10263  41.266  16.309   2.235
43723W        W10264  36.518  40.057  13.927
43724W        W10265   2.897   7.873  14.934
43725W        W10266   3.736  10.450   4.118
43726W        W10267   2.646  35.619   4.158
43727W        W10268  29.915  39.363  11.123
43728W        W10269  10.241  31.624   3.618
43729W        W10270  36.216   1.062   4.307
43730W        W10271   5.969  25.028  12.547
43731W        W10272  22.671  11.346  11.185
43732W        W10273  34.912   4.483  10.710
43733W        W10274  41.273  39.072  14.420
43734W        W10275  23.180  14.436  13.839
43735W        W10276  16.063  37.107   4.932
43736W        W10277  37.361  14.021   2.226
43737W        W10278  44.188  26.607   1.364
43738W        W10279  40.561  27.187   3.375
43739W        W10280  37.323  24.237   2.736
43740W        W10281  33.178   6.859  11.609
43741W        W10282  19.279  30.905   3.579
43742W        W10283   9.233  14.761  12.164
43743W        W10284  41.583  24.259  11.193
43744W        W10285  14.757  35.901  14.117
43745W        W10286  33.506  31.979   2.106
43746W        W10287  22.070  20.240  12.622
43747W        W10288  29.477   2.169  11.147
43748W        W10289  25.068   1.467  10.826
43749W        W10290  35.127   5.342   3.389
43750W        W10291  43.393  12.125  12.530
43751W        W10292  20.153  36.148  12.986
43752W        W10293  12.529  20.767  14.110
43753W        W10294  19.785   1.496  12.532
43754W        W10295  43.010  35.949  14.751
43755W        W10296  41.883   3.750   1.406
43756W        W10297  20.520  10.823   2.146
43757W        W10298  41.452  20.987   4.643
43758W        W10299  27.608   5.185  13.884
43759W        W10300  14.598   2.227   3.671
43760W        W10301  16.255  32.118   3.613
43761W        W10302  42.338  34.851   2.366
43762W        W10303  43.257   1.648  12.524
43763W        W10304  13.766  22.929  11.561
43764W        W10305  30.775  37.298   0.847
43765W        W10306   9.793  14.099  10.925
43766W        W10307  36.578  27.046  13.895
43767W        W10308  15.321  40.893   2.889
43768W        W10309  20.526  11.113   0.172
43769W        W10310  11.524  23.997   3.662
43770W        W10311  18.186  34.876   3.894
43771W        W10312   5.225  29.475  13.459
43772W        W10313   4.262  34.382   1.224
43773W        W10314  27.747  27.502   3.109
43774W        W10315  40.491  34.118   2.702
43775W        W10316  38.565  24.232  12.943
43776W        W10317  37.034   1.052   4.486
43777W        W10318  16.453  39.215  12.634
43778W        W10319  22.303  15.273   1.693
43779W        W10320  23.970   3.241  13.097
43780W        W10321  29.472  10.764   0.615
43781W        W10322   7.893  33.394   2.308
43782W        W10323  14.840  37.571   3.736
43783W        W10324  18.730  34.012   1.536
43784W        W10325  37.906  19.519   0.732
43785W        W10326  25.192   7.991   4.565
43786W        W10327  24.250  25.257   3.586
43787W        W10328  41.294  35.699   1.228
43788W        W10329  15.760  39.346  13.121
43789W        W10330   5.809  34.404  13.798
43790W        W10331  34.642  38.248   1.709
43791W        W10332  24.192  18.996   1.304
43792W        W10333  10.954  25.981   0.278
43793W        W10334  11.628  40.066   2.167
43794W        W10335   4.321  44.028   3.902
43795W        W10336  13.245   9.148   3.130
43796W        W10337  41.566  12.611   3.654
43797W        W10338  26.695   7.073   1.819
43798W        W10339  10.398  33.616  14.236
43799W        W10340  41.804  30.080   1.778
43800W        W10341  30.183  43.835  14.374
43801W        W10342  22.602  32.664   3.336
43802W        W10343  28.886  16.614   3.647
43803W        W10344  14.658  11.872  13.483
43804W        W10345  42.453  41.830   2.326
43805W        W10346  11.105  37.014   0.907
43806W        W10347  34.562   1.822  14.878
43807W        W10348  29.685  42.544  14.317
43808W        W10349  21.194   2.815   3.619
43809W        W10350  16.877  28.463   2.160
43810W        W10351   2.823  29.348   4.829
43811W        W10352  18.863  39.503   0.449
43812W        W10353   5.120  41.932   1.325
43813W        W10354  30.766  29.525  11.413
43814W        W10355  28.034   7.875   0.282
43815W        W10356   1.628  35.107  11.108
43816W        W10357  34.831  15.510  13.415
43817W        W10358  41.063  25.632  13.518
43818W        W10359  44.863  42.334  14.492
43819W        W10360  16.684  15.653  13.544
43820W        W10361  33.027  28.145   0.798
43821W        W10362  19.583  28.007  13.054
43822W        W10363  19.884  44.407  13.377
43823W        W10364  36.342  40.886  12.236
43824W        W10365   6.334   6.962   2.891
43825W        W10366  19.558  13.521   0.919
43826W        W10367  37.504  20.425  13.080
43827W        W10368  43.958   5.892   3.184
43828W        W10369  17.507   0.861  11.167
43829W        W10370  37.683   7.240   4.601
43830W        W10371  11.897  39.907   2.749
43831W        W10372   2.043  39.617  11.047
43832W        W10373   3.794   9.749  13.960
43833W        W10374  22.218  13.994   0.559
43834W        W10375  17.247  15.606  14.772
43835W        W10376   1.245  18.036   2.844
43836W        W10377   1.917  33.595  12.511
43837W        W10378  44.864  32.420  13.898
43838W        W10379  14.942  20.794   0.758
43839W        W10380   5.168  13.179   1.420
43840W        W10381  12.304  21.524  10.753
43841W        W10382  10.699  15.074  12.898
43842W        W10383   9.612   0.187   0.682
43843W        W10384  21.187  11.131  10.759
43844W        W10385  22.673   1.855   1.797
43845W        W10386  42.776  24.769   3.768
43846W        W10387  29.666  27.964   4.357
43847W        W10388  22.468   5.730   2.419
43848W        W10389  11.351  13.803  11.651
43849W        W10390  19.074  10.892  12.878
43850W        W10391  31.284  25.547  12.353
43851W        W10392  24.200   7.771  13.748
43852W        W10393  37.360  23.201   0.374
43853W        W10394  31.609  29.452   3.411
43854W        W10395  14.666  43.713  13.938
43855W        W10396  27.119  33.930   3.339
43856W        W10397  28.194  36.082  11.229
43857W        W10398  24.592  37.102   2.283
43858W        W10399  40.510  14.722   0.366
43859W        W10400  35.125   4.478   1.829
43860W        W10401  26.183  11.340  10.807
43861W        W10402  25.977  10.703   3.373
43862W        W10403  41.884  21.742   4.104
43863W        W10404  23.336  23.267   0.721
43864W        W10405  16.076  34.686   4.897
43865W        W10406  14.595  30.949  14.964
43866W        W10407  22.749  14.816   2.805
43867W        W10408   2.007   5.771   1.821
43868W        W10409  11.828  31.977  10.685
43869W        W10410  43.579  35.362  12.487
43870W        W10411  16.239  14.305  10.100
43871W        W10412  43.397   1.641   4.875
43872W        W10413  36.425  27.023  14.943
43873W        W10414  43.046  37.571  10.941
43874W        W10415   0.923  27.391   4.609
43875W        W10416  44.425   9.109  14.337
43876W        W10417  18.044  37.954  11.979
43877W        W10418   3.925  10.879   1.901
43878W        W10419  28.641  31.218   2.413
43879W        W10420  16.371  28.560   0.099
43880W        W10421  39.325   7.542   4.174
43881W        W10422  38.897  30.398  13.091
43882W        W10423  28.322   3.769  12.212
43883W        W10424  23.068   4.886  14.257
43884W        W10425  36.512  17.316  12.223
43885W        W10426  22.769  43.468  13.002
43886W        W10427  21.168  26.265   3.981
43887W        W10428   5.625  38.381   3.377
43888W        W10429  19.190  12.927  13.790
43889W        W10430  34.564   0.928  13.257
43890W        W10431   3.672  18.535  12.586
43891W        W10432  29.714  34.962   0.430
43892W        W10433  15.329  20.724  12.889
43893W        W10434  16.108  43.781   1.334
43894W        W10435   5.892   1.758   3.059
43895W        W10436  26.086  32.058   1.426
43896W        W10437   4.385   0.164  13.145
43897W        W10438  28.413   4.334   1.270
43898W        W10439   3.643  22.413   2.599
43899W        W10440   3.542  40.028  13.394
43900W        W10441  11.856  31.215   3.240
43901W        W10442  23.617  14.538   4.375
43902W        W10443  40.293  43.500  11.457
43903W        W10444  41.887  36.014  12.915
43904W        W10445   7.139  39.454  12.580
43905W        W10446  17.068  14.985  12.460
43906W        W10447   9.095  10.905   4.573
43907W        W10448   0.392  14.883   1.868
43908W        W10449   7.471  15.341   1.406
43909W        W10450  12.821  30.001   0.433
43910W        W10451   3.547  14.300   1.817
43911W        W10452  40.436   0.778   3.535
43912W        W10453  31.360  17.131  14.419
43913W        W10454  16.713  19.275   4.529
43914W        W10455  35.088   1.969   1.713
43915W        W10456  24.719  30.380  13.098
43916W        W10457  21.048  31.957   1.781
43917W        W10458  17.675  26.930  10.380
43918W        W10459  29.895  34.726   3.118
43919W        W10460   3.717   3.240  13.861
43920W        W10461  19.642   6.994  11.486
43921W        W10462  34.254  41.625  13.709
43922W        W10463  37.910  36.358   0.928
43923W        W10464  15.994  22.175   3.236
43924W        W10465  16.104  22.141   1.380
43925W        W10466  27.450  42.380  11.153
43926W        W10467  18.491  11.024  14.504
43927W        W10468  25.181  29.500  12.304
43928W        W10469  13.755  38.636  11.244
43929W        W10470   7.760  36.455   0.374
43930W        W10471   5.934   9.075   3.931
43931W        W10472   0.060  34.074   0.363
43932W        W10473  17.677  43.269   3.067
43933W        W10474  11.497  14.824   0.219
43934W        W10475   8.169  12.721   1.165
43935W        W10476  16.737   3.267  11.414
43936W        W10477   2.889  39.126  13.152
43937W        W10478   3.226  36.661   2.412
43938W        W10479  16.877  16.626   4.361
43939W        W10480   4.822  26.153   0.163
43940W        W10481  32.106  24.454   4.792
43941W        W10482  18.868   1.571   1.087
43942W        W10483  40.656   2.917   1.787
43943W        W10484  19.877   5.218   4.985
43944W        W10485  30.684   0.979  10.474
43945W        W10486  34.046  33.190  11.147
43946W        W10487   4.373  26.493   0.864
43947W        W10488  16.006  14.581  11.215
43948W        W10489  26.741  16.122  13.097
43949W        W10490  17.760  26.898   3.147
43950W        W10491  25.063  27.054   1.094
43951W        W10492  17.550  25.092  10.887
43952W        W10493  29.456   4.839   2.664
43953W        W10494  24.418  11.104   4.197
43954W        W10495  11.296   4.158   1.396
43955W        W10496  41.686  44.995   0.750
43956W        W10497   1.373  13.298   0.313
43957W        W10498  32.537  18.683  13.181
43958W        W10499  40.439  23.994  12.729
43959W        W10500  26.312  39.237   2.746
43960W        W10501  40.532  20.116  11.596
43961W        W10502   2.501  40.534   0.688
43962W        W10503  25.345  32.414   1.261
43963W        W10504  21.894  12.302  14.440
43964W        W10505  24.527  20.555   4.480
43965W        W10506  39.803   2.293  10.690
43966W        W10507   0.095   3.817   4.387
43967W        W10508  28.401   9.886   2.317
43968W        W10509  11.718   4.202  12.586
43969W        W10510  31.108  23.324   4.702
43970W        W10511  13.388   8.667  11.568
43971W        W10512  20.960  35.155   0.050
43972W        W10513  22.439   9.573   2.093
43973W        W10514  20.117  35.902   1.749
43974W        W10515  22.701   6.703   2.017
43975W        W10516  25.076  32.393  13.577
43976W        W10517   8.477   4.299   1.977
43977W        W10518   6.927   9.865   2.794
43978W        W10519  28.249   5.924  11.066
43979W        W10520  43.915  40.949  13.403
43980W        W10521  38.383  40.371  10.989
43981W        W10522  34.054  35.346  11.893
43982W        W10523   5.122  42.859   1.437
43983W        W10524  37.551  19.234  12.023
43984W        W10525  24.152  28.115   2.694
43985W        W10526  14.711   7.895  12.589
43986W        W10527  14.427   6.459   1.965
43987W        W10528  25.294  28.725  12.453
43988W        W10529  43.790  38.408  10.711
43989W        W10530  36.359  22.191  11.241
43990W        W10531  18.817  22.596  11.166
43991W        W10532   7.808  21.764  13.233
43992W        W10533  35.998  14.274   3.114
43993W        W10534   2.887  24.652   1.344
43994W        W10535   9.214  25.899   0.250
43995W        W10536  28.404  30.942   0.044
43996W        W10537   0.029  16.552   2.164
43997W        W10538   0.525  40.929  14.241
43998W        W10539   7.144  18.480   3.196
43999W        W10540  17.794  42.834   4.846
44000W        W10541  19.548  13.786   3.009
44001W        W10542  18.502  20.026  11.617
44002W        W10543  16.124   2.052   1.934
44003W        W10544  11.960  27.575   1.651
44004W        W10545  15.578  36.533  13.820
44005W        W10546  40.262  44.418   3.362
44006W        W10547   7.311  18.976   3.196
44007W        W10548   2.349   8.385  14.427
44008W        W10549   0.424  26.922  11.073
44009W        W10550  13.549  11.107   0.356
44010W        W10551  19.872  43.262  11.145
44011W        W10552  23.557  28.462   2.013
44012W        W10553  15.135  30.377   2.121
44013W        W10554  40.429  21.339  12.038
44014W        W10555  29.632  32.640   1.797
44015W        W10556   2.514  18.304   1.384
44016W        W10557  11.779  28.425  12.445
44017W        W10558  22.147  29.208   4.467
44018W        W10559  24.602   9.415  11.548
44019W        W10560  33.558  13.411   5.174
44020W        W10561  20.998  44.724  11.573
44021W        W10562  24.459  19.023  11.948
44022W        W10563  11.368  13.850   3.818
44023W        W10564  27.796   4.363  13.402
44024W        W10565  17.776   1.802  12.139
44025W        W10566  12.959   5.033   2.006
44026W        W10567   9.758  18.632   3.796
44027W        W10568  13.045  17.502  14.873
44028W        W10569  22.897  32.302  11.139
44029W        W10570  39.809  43.036   3.755
44030W        W10571  36.001  38.037   1.163
44031W        W10572   2.585  16.490  13.886
44032W        W10573  16.605  28.719  10.734
44033W        W10574  34.547  37.086  13.005
44034W        W10575   1.281  28.809   0.354
44035W        W10576  15.540  20.265   0.345
44036W        W10577  17.095   1.009   0.691
44037W        W10578  41.801  26.291  11.014
44038W        W10579  33.558  38.651  13.110
44039W        W10580  40.944  39.547   0.691
44040W        W10581  14.249  20.734  11.772
44041W        W10582  30.998   3.355   4.617
44042W        W10583   3.724  30.396  14.405
44043W        W10584  22.012  13.436  12.946
44044W        W10585   7.328  12.373  13.529
44045W        W10586  10.143  28.901  11.019
44046W        W10587  43.622  39.145  14.906
44047W        W10588  44.227  41.592   1.852
44048W        W10589   2.908   0.964   1.195
44049W        W10590  17.303   7.844  12.595
44050W        W10591  44.089  10.330   1.793
44051W        W10592  44.940  38.151   4.171
44052W        W10593  24.999   6.183  14.475
44053W        W10594  32.172  32.704   1.890
44054W        W10595  38.300  21.499   3.121
44055W        W10596  42.967   1.896  14.024
44056W        W10597  15.318   3.852   0.014
44057W        W10598  31.748  37.204  12.231
44058W        W10599  29.828   3.074   4.142
44059W        W10600  13.562   1.732   3.653
44060W        W10601  34.050  35.419   3.901
44061W        W10602  26.617  33.576  13.474
44062W        W10603  41.060  38.092   3.140
44063W        W10604   9.279  39.008   3.764
44064W        W10605  12.115   2.708   0.247
44065W        W10606  26.505  17.869   1.333
44066W        W10607   2.543  23.805   0.818
44067W        W10608  18.248   0.453   1.707
44068W        W10609  26.141   1.098   2.255
44069W        W10610  19.759  44.290   3.174
44070W        W10611  15.379  43.727   0.462
44071W        W10612  27.109  27.985   4.058
44072W        W10613  42.957   8.728   2.847
44073W        W10614  18.853  17.796   2.003
44074W        W10615  17.192  11.085   2.946
44075W        W10616  28.706  42.994  12.117
44076W        W10617  35.577  31.702  11.269
44077W        W10618  35.449   8.935   3.300
44078W        W10619   7.572  36.435  11.222
44079W        W10620  33.940  13.565   3.849
44080W        W10621  11.606   2.139  11.090
44081W        W10622  34.156  42.767  12.625
44082W        W10623  12.070  21.121  10.476
44083W        W10624  12.911  13.636   2.332
44084W        W10625  39.674  36.011  12.080
44085W        W10626   2.123  34.999  12.586
44086W        W10627  18.094  21.467   2.255
44087W        W10628  22.291  27.585  12.495
44088W        W10629   6.707  14.375  10.578
44089W        W10630  13.085  26.012   2.943
44090W        W10631  22.005  27.797  13.074
44091W        W10632   7.611  26.247  10.250
44092W        W10633  34.198  39.053  14.485
44093W        W10634  14.051  22.583   1.894
44094W        W10635  38.887  32.082   1.204
44095W        W10636  16.143   8.413   3.282
44096W        W10637  12.686  32.070   1.812
44097W        W10638  41.324  22.554  13.536
44098W        W10639  13.612  31.957  12.660
44099W        W10640  30.289   8.425   4.657
44100W        W10641  30.116  11.294   1.083
44101W        W10642  14.845  38.574  12.851
44102W        W10643  40.102   7.646  11.266
44103W        W10644  38.624   8.281   3.644
44104W        W10645  37.118  38.616  13.221
44105W        W10646   9.568  16.290   1.774
44106W        W10647  29.456  39.920   0.226
44107W        W10648   6.062  17.180   4.494
44108W        W10649   7.492   9.647   1.422
44109W        W10650  41.875  25.403  12.410
44110W        W10651  39.018  14.245  14.869
44111W        W10652   4.496  26.093   2.613
44112W        W10653  35.512   6.305   2.713
44113W        W10654  10.290  19.783  11.098
44114W        W10655   5.342  38.225   2.687
44115W        W10656  22.128  23.678   0.288
44116W        W10657  34.317  42.524  13.509
44117W        W10658   8.033  33.005  14.976
44118W        W10659  40.989   5.329   1.410
44119W        W10660   7.639  18.303  14.179
44120W        W10661   4.354  20.625  13.481
44121W        W10662  38.772  19.010  12.560
44122W        W10663  38.207   9.230  11.472
44123W        W10664  42.039  35.113  14.777
44124W        W10665  41.157  24.559  11.215
44125W        W10666  43.940   1.537  12.044
44126W        W10667  26.852  38.840   1.140
44127W        W10668  39.438  15.189   2.551
44128W        W10669  36.953  19.085   0.701
44129W        W10670  24.298  41.069   1.730
44130W        W10671  27.799  43.301   2.773
44131W        W10672  35.559  28.544   3.371
44132W        W10673   1.960   1.299  10.942
44133W        W10674  38.002   2.330  10.603
44134W        W10675  31.515  24.247  12.608
44135W        W10676  33.983  27.539   2.341
44136W        W10677   0.707   1.049  10.466
44137W        W10678  14.754  20.564   4.765
44138W        W10679  12.285   9.171   4.076
44139W        W10680  36.028  17.188  13.475
44140W        W10681  28.628   4.663   4.168
44141W        W10682  18.732  42.303   0.203
44142W        W10683   2.477   7.859  10.912
44143W        W10684  21.195   1.726   3.745
44144W        W10685  38.316  39.585  11.921
44145W        W10686  31.486  12.320  13.666
44146W        W10687   1.900  36.787   0.061
44147W        W10688  23.621   2.144   3.200
44148W        W10689   9.312   7.613   1.322
44149W        W10690   6.906  16.086   3.934
44150W        W10691   8.599  28.082   5.192
44151W        W10692  43.322  27.536   4.665
44152W        W10693  39.793   7.621   1.395
44153W        W10694  36.086  36.767   1.787
44154W        W10695  22.631  17.350   9.847
44155W        W10696  43.282  23.563  13.150
44156W        W10697  16.056   5.907  11.662
44157W        W10698  20.195  16.392   3.671
44158W        W10699  40.541   9.690  13.468
44159W        W10700   2.203   1.650  14.786
44160W        W10701  24.504   1.502   3.658
44161W        W10702  12.720  12.376   4.679
44162W        W10703  41.021  25.998   4.597
44163W        W10704  39.892  20.837  12.954
44164W        W10705  21.617  35.449  11.538
44165W        W10706  43.783   1.806  11.622
44166W        W10707  44.816  29.433  13.809
44167W        W10708  10.095  37.475   3.254
44168W        W10709  40.236   6.249  11.993
44169W        W10710   8.379  23.579  14.480
44170W        W10711  26.493  44.879  12.945
44171W        W10712  25.439  29.403   1.869
44172W        W10713  21.720   0.438  10.883
44173W        W10714  40.406  23.885  12.231
44174W        W10715   2.614  40.562  13.574
44175W        W10716  25.154  36.961   4.957
44176W        W10717   5.765  32.125   4.826
44177W        W10718  22.637  12.074   0.605
44178W        W10719  12.309  31.625  11.905
44179W        W10720   6.870  25.700   5.009
44180W        W10721  42.539  36.120   1.648
44181W        W10722  32.923  25.051   1.567
44182W        W10723  16.111  27.481  12.448
44183W        W10724  18.212  44.187   0.393
44184W        W10725  37.102   4.432   0.261
44185W        W10726   3.381   6.805   2.413
44186W        W10727  38.353  14.819  13.494
44187W        W10728  26.202  31.450  14.007
44188W        W10729  35.910   9.131   3.165
44189W        W10730  12.625  18.425  14.251
44190W        W10731  42.895  39.076  13.139
44191W        W10732   3.492  23.958  11.132
44192W        W10733  40.886  38.497   2.853
44193W        W10734  29.737  21.205  14.378
44194W        W10735  25.524  39.873  12.121
44195W        W10736   1.395  11.913   2.664
44196W        W10737  27.251  38.162   2.722
44197W        W10738  38.689  16.289   4.378
44198W        W10739  38.990  33.645   3.117
44199W        W10740  25.511  39.168  10.278
44200W        W10741  44.553  16.661   0.686
44201W        W10742   1.778  43.756  12.035
44202W        W10743  16.520  17.127   2.752
44203W        W10744  39.038  37.580  11.696
44204W        W10745   7.290  35.099  12.597
44205W        W10746  13.851  19.439   1.433
44206W        W10747  19.824  30.660   2.096
44207W        W10748   1.115  41.043   1.705
44208W        W10749  30.578  44.873   0.400
44209W        W10750  29.053   6.681  11.532
44210W        W10751  14.368  24.096   3.706
44211W        W10752  21.767  14.535   2.281
44212W        W10753  35.042   2.801  12.977
44213W        W10754  20.109   5.521  14.997
44214W        W10755  10.045  35.851  14.849
44215W        W10756  19.851  38.472   2.350
44216W        W10757   9.702   5.378  11.588
44217W        W10758  35.521  38.175  13.301
44218W        W10759   7.112  10.984  11.573
44219W        W10760  37.262  43.746  12.503
44220W        W10761  30.498   3.921  13.455
44221W        W10762  27.994  44.806  13.112
44222W        W10763   2.398  17.492  11.214
44223W        W10764  14.940  26.565   1.271
44224W        W10765   2.995  19.624   3.153
44225W        W10766  36.923  42.523   3.295
44226W        W10767  26.920  29.675  13.250
44227W        W10768  23.500  33.175   1.766
44228W        W10769   5.280   4.179  14.832
44229W        W10770   5.925  16.314   0.280
44230W        W10771  26.182   6.382  11.490
44231W        W10772  39.362  42.310  12.926
44232W        W10773   1.172  26.033  12.133
44233W        W10774  16.565  39.600   2.222
44234W        W10775  35.109  30.595   1.660
44235W        W10776   9.709  39.341   1.946
44236W        W10777  14.431  12.720  14.462
44237W        W10778  43.763  44.326  12.975
44238W        W10779  32.708  40.252  10.697
44239W        W10780  42.468   8.841  11.237
44240W        W10781  12.037   1.457   3.444
44241W        W10782  41.712   0.495   0.679
44242W        W10783  27.607  36.884  12.654
44243W        W10784  32.694   9.254  12.540
44244W        W10785  44.800  38.291   3.694
44245W        W10786  23.713   6.970   4.987
44246W        W10787  39.820   4.286   2.146
44247W        W10788  17.122   9.334  12.538
44248W        W10789  34.528  32.094   5.024
44249W        W10790  28.567  18.831  13.056
44250W        W10791  11.906  30.157   4.792
44251W        W10792  27.471  26.578   0.437
44252W        W10793   4.114   4.854  10.546
44253W        W10794  40.308  38.606  10.719
44254W        W10795  23.064  18.942  11.997
44255W        W10796  10.755   8.499  11.708
44256W        W10797  27.962  23.981  11.129
44257W        W10798  35.435  35.056  11.945
44258W        W10799   9.319  10.085   4.531
44259W        W10800  44.932  22.116   0.251
44260W        W10801  43.621  12.771  10.235
44261W        W10802  43.369   4.912   2.250
44262W        W10803  37.734  28.679  14.326
44263W        W10804   6.203  44.830   1.431
44264W        W10805  11.567  22.600   4.990
44265W        W10806  26.522  23.733   4.619
44266W        W10807  19.266  18.012  14.795
44267W        W10808  41.439  42.206  14.485
44268W        W10809  19.593   5.418  10.181
44269W        W10810  38.651  32.131  11.926
44270W        W10811   4.140  43.042   3.807
44271W        W10812  44.644   6.934   3.621
44272W        W10813  24.234   4.447  14.882
44273W        W10814  21.674  39.919  14.843
44274W        W10815  31.682  40.383   4.590
44275W        W10816  21.058  13.832  11.145
44276W        W10817  20.519  16.140   3.338
44277W        W10818  33.147  36.297   2.394
44278W        W10819  26.047  11.729  11.593
44279W        W10820  12.799   5.461  11.498
44280W        W10821  29.327  41.570  11.158
44281W        W10822   5.792  35.356   0.933
44282W        W10823  34.375  30.169   3.142
44283W        W10824  40.254  14.133   1.285
44284W        W10825  26.611  26.789   1.337
44285W        W10826  22.721  27.220  14.425
44286W        W10827  39.088  28.917   2.337
44287W        W10828  37.005   0.382   0.406
44288W        W10829  33.475  13.347  13.104
44289W        W10830   4.830  32.575   5.469
44290W        W10831  36.015  40.462  13.162
44291W        W10832   1.081  32.679  14.714
44292W        W10833  30.416  13.470   3.027
44293W        W10834  15.705  21.196   3.632
44294W        W10835  11.886   5.534  13.897
44295W        W10836   3.627  42.164  13.259
44296W        W10837  16.764  39.374   3.200
44297W        W10838  10.301   9.848   2.645
44298W        W10839  12.961  11.745  12.062
44299W        W10840  31.082  39.035   3.655
44300W        W10841  30.712  16.823  10.291
44301W        W10842  35.557  34.077  13.808
44302W        W10843  17.983  14.690   1.998
44303W        W10844  31.585  27.428  12.926
44304W        W10845  40.264  34.642  14.045
44305W        W10846   0.008   6.304   2.649
44306W        W10847  31.116   4.827   4.730
44307W        W10848  25.130   5.277  11.638
44308W        W10849  27.022  14.633   4.505
44309W        W10850  11.156  43.813  10.705
44310W        W10851  36.049  22.012   2.835
44311W        W10852  17.727   5.975  13.417
44312W        W10853  38.388  17.976  14.934
44313W        W10854   7.299  15.762  11.731
44314W        W10855  39.056  17.574   1.874
44315W        W10856  26.390  13.330   2.401
44316W        W10857  22.906  19.319   4.233
44317W        W10858  13.307  24.069   1.881
44318W        W10859   0.231  37.641  10.703
44319W        W10860  42.854  18.729   0.849
44320W        W10861  36.710  43.290  10.551
44321W        W10862  21.805  27.241  11.168
44322W        W10863  12.380  18.178   2.658
44323W        W10864  14.563  11.244  12.691
44324W        W10865  16.262  38.365   0.142
44325W        W10866   8.618  35.889   4.345
44326W        W10867  40.305   4.876   2.606
44327W        W10868   5.730  18.169  14.093
44328W        W10869  35.646   6.366  14.762
44329W        W10870  26.515  31.236   1.344
44330W        W10871   9.577   4.500  11.166
44331W        W10872   4.172  25.676  14.905
44332W        W10873   8.369  28.282   1.772
44333W        W10874  40.658  44.206  10.232
44334W        W10875  15.969   5.507   3.250
44335W        W10876  22.488  13.447   1.241
44336W        W10877  27.945   7.823  12.885
44337W        W10878   3.566  28.602  13.863
44338W        W10879   6.879  26.773   0.567
44339W        W10880   2.982  12.724   4.281
44340W        W10881   1.308  13.542  14.110
44341W        W10882  27.881  32.002  11.537
44342W        W10883   1.024  23.667   3.676
44343W        W10884   8.747  26.217  10.296
44344W        W10885  43.841  27.960   4.744
44345W        W10886  20.357  25.965   2.885
44346W        W10887   3.233   8.392   0.758
44347W        W10888  36.751  33.583   2.221
44348W        W10889   4.481  34.449  13.928
44349W        W10890  22.754  43.999  14.672
44350W        W10891  20.611  44.942   3.079
44351W        W10892   4.807   7.373  11.536
44352W        W10893   7.412  37.609  10.686
44353W        W10894  23.087  40.791   4.944
44354W        W10895  25.513  13.799   2.243
44355W        W10896  38.116  27.891  11.328
44356W        W10897   5.915   6.642   2.422
44357W        W10898  27.120  18.190  14.435
44358W        W10899  25.650  16.013  14.369
44359W        W10900  17.827   9.172   4.764
44360W        W10901  35.754  32.984   2.777
44361W        W10902  20.948  28.975   3.999
44362W        W10903   7.975   9.290  14.381
44363W        W10904  33.613  28.565  10.641
44364W        W10905  29.040   0.250  13.198
44365W        W10906  37.937   3.507   9.861
44366W        W10907  21.736  15.828   0.912
44367W        W10908  23.939  19.125  12.038
44368W        W10909  13.586  17.472  10.238
44369W        W10910  38.035   8.898   1.158
44370W        W10911  32.057  38.322   0.465
44371W        W10912  38.896  12.375  12.003
44372W        W10913   8.012  16.814  10.631
44373W        W10914  23.960  21.817  11.078
44374W        W10915  36.008  42.234  12.034
44375W        W10916  23.248   8.417   2.323
44376W        W10917  15.020  31.876   0.009
44377W        W10918  26.704   3.921  11.045
44378W        W10919  28.970  23.217  10.737
44379W        W10920  22.145   7.900  11.418
44380W        W10921  12.566  26.071   3.858
44381W        W10922   3.490  43.825   1.301
44382W        W10923   3.671  30.431  13.464
44383W        W10924  29.461   3.293  12.923
44384W        W10925  31.945   6.720   1.459
44385W        W10926  20.606  33.645  14.294
44386W        W10927  32.129   3.253  12.567
44387W        W10928  19.139  18.454   0.012
44388W        W10929   2.391   5.407   1.807
44389W        W10930  43.491  20.572  14.769
44390W        W10931  41.599   0.735   3.809
44391W        W10932   5.259  34.958  15.000
44392W        W10933  42.579  44.210  14.195
44393W        W10934  40.908  21.283   2.188
44394W        W10935  25.737  34.360  13.813
44395W        W10936  36.922  44.312   0.328
44396W        W10937  17.367  13.965   4.720
44397W        W10938  20.971  19.209  14.022
44398W        W10939   5.915  12.247  13.926
44399W        W10940   9.933   3.185  13.102
44400W        W10941   0.736  26.696   1.204
44401W        W10942   1.587   2.867   3.006
44402W        W10943  34.301  22.074  13.359
44403W        W10944  31.074  27.777   4.142
44404W        W10945  41.817  41.967   2.795
44405W        W10946  33.948  35.929  13.911
44406W        W10947   7.683  10.158   0.796
44407W        W10948  11.790  41.682   1.341
44408W        W10949  14.963  35.900   3.376
44409W        W10950   3.785   2.740   1.945
44410W        W10951  30.460  14.787   0.320
44411W        W10952  38.724   1.567   4.843
44412W        W10953   1.947  17.116   2.197
44413W        W10954  18.774  18.242  14.691
44414W        W10955  36.267  41.718  13.356
44415W        W10956  11.329   0.303  10.668
44416W        W10957   0.925  20.282   1.816
44417W        W10958  12.984   7.090  14.406
44418W        W10959  15.117  34.224  12.581
44419W        W10960  11.242  14.700   1.195
44420W        W10961  31.914  35.469  14.814
44421W        W10962  19.342   0.919   0.846
44422W        W10963  33.444  37.820   3.646
44423W        W10964   9.380  24.653   2.964
44424W        W10965  13.960  37.231  14.012
44425W        W10966   3.662  12.132   2.152
44426W        W10967  16.343  21.927  14.512
44427W        W10968  24.649  28.545   2.451
44428W        W10969  27.464  32.084   3.644
44429W        W10970   1.205  30.021   3.713
44430W        W10971   5.675   9.840   2.831
44431W        W10972  10.497  35.890   4.842
44432W        W10973   4.415  14.622  10.451
44433W        W10974  18.844  39.450  11.170
44434W        W10975  36.372  27.540  11.705
44435W        W10976  23.768  26.410   2.895
44436W        W10977  14.602  19.655   2.406
44437W        W10978   7.208  21.801  13.854
44438W        W10979   1.314  22.282  14.073
44439W        W10980  15.520  13.917   5.090
44440W        W10981  28.611  29.108  13.453
44441W        W10982  21.111  42.815  12.162
44442W        W10983  29.515  42.090   0.737
44443W        W10984  31.059  41.506   2.241
44444W        W10985  20.829  18.786  12.286
44445W        W10986  16.142   0.808  10.974
44446W        W10987  26.158  23.627   3.129
44447W        W10988   7.194  20.520  12.570
44448W        W10989   2.462  27.079   3.724
44449W        W10990  27.847   6.501   2.303
44450W        W10991  21.889  34.000  14.765
44451W        W10992  35.972  36.531   4.734
44452W        W10993   4.101  19.612  13.428
44453W        W10994   8.950  37.866   2.114
44454W        W10995   6.583  11.761   3.180
44455W        W10996   9.208   6.911  14.928
44456W        W10997   7.744  18.135  13.687
44457W        W10998   2.419   2.417  14.541
44458W        W10999  30.140  44.024  10.698
44459W        W11000  42.970  43.181   4.644
44460W        W11001  23.433   1.833   2.572
44461W        W11002  25.555  11.353   4.280
44462W        W11003   7.435  27.817  13.562
44463W        W11004  20.462  40.554   4.757
44464W        W11005  27.380  15.116  10.565
44465W        W11006  20.001  23.797   4.836
44466W        W11007   0.686   7.242   4.524
44467W        W11008  16.523   1.836  14.654
44468W        W11009   6.516  29.571  10.617
44469W        W11010  33.584  41.977   2.037
44470W        W11011  21.327  14.182   3.218
44471W        W11012  15.160  43.413   4.184
44472W        W11013  14.698  21.501  11.517
44473W        W11014  19.616   1.177  14.917
44474W        W11015  39.648   2.036  12.965
44475W        W11016   3.728  22.346  12.375
44476W        W11017  28.677   9.410  11.578
44477W        W11018  43.051  29.217   3.309
44478W        W11019   3.503  38.318  12.027
44479W        W11020  30.678  35.692   1.758
44480W        W11021  11.822  15.304   0.249
44481W        W11022  24.226   5.321  12.644
44482W        W11023  21.137  13.103  11.984
44483W        W11024  25.725  17.628   4.581
44484W        W11025   4.321  29.601  11.950
44485W        W11026  14.438  10.631   2.845
44486W        W11027  35.559   6.581  10.651
44487W        W11028   3.052  30.596   2.279
44488W        W11029  29.322  25.710  13.076
44489W        W11030  15.803  20.093  10.693
44490W        W11031  23.985  15.809   1.875
44491W        W11032  38.614   1.788  13.934
44492W        W11033  22.508   0.836  12.136
44493W        W11034  10.512  44.909  11.566
44494W        W11035  44.858  30.775   1.723
44495W        W11036  21.975  22.678  11.483
44496W        W11037   2.924  15.553  14.934
44497W        W11038  12.543  40.959  10.544
44498W        W11039   6.659   4.953   1.888
44499W        W11040   8.619  23.556  14.929
44500W        W11041  26.744   6.088  11.137
44501W        W11042  41.570  15.781  12.901
44502W        W11043  12.328   6.828   3.715
44503W        W11044  42.410   4.651   4.519
44504W        W11045  27.395  16.852   3.674
44505W        W11046  33.474  44.745   2.800
44506W        W11047  42.442   1.672  13.793
44507W        W11048  12.370  19.128  11.129
44508W        W11049  16.496  28.216  13.471
44509W        W11050  26.042  18.583  11.122
44510W        W11051  43.936  43.201  14.362
44511W        W11052  24.719  11.623  14.007
44512W        W11053  33.060  24.096  11.114
44513W        W11054  27.504  37.403   0.237
44514W        W11055  26.476  41.200   0.514
44515W        W11056  23.766   1.610   1.270
44516W        W11057  30.401  21.750   1.450
44517W        W11058  12.826  21.238   2.017
44518W        W11059  44.870  26.429   2.251
44519W        W11060  21.596  17.771   3.487
44520W        W11061  23.259  22.711  10.644
44521W        W11062  20.973  13.804   3.141
44522W        W11063  10.609  33.539   3.796
44523W        W11064   2.770   7.314  12.627
44524W        W11065  15.661  26.480   0.469
44525W        W11066  33.009  17.487   2.194
44526W        W11067  12.890  42.658   0.308
44527W        W11068  13.719  23.015   1.216
44528W        W11069  43.709  31.547  10.438
44529W        W11070  42.534  36.011   1.153
44530W        W11071   9.677  42.900   3.090
44531W        W11072  22.556   6.987   2.851
44532W        W11073  15.410  13.097  10.345
44533W        W11074  11.222   5.211   1.813
44534W        W11075   9.918   1.985   1.152
44535W        W11076  17.167  34.407   3.255
44536W        W11077  25.356   3.297  10.569
44537W        W11078  37.575   1.657   1.832
44538W        W11079  28.197  31.586   2.877
44539W        W11080   6.880  40.595   4.399
44540W        W11081   8.822   6.636  13.964
44541W        W11082   5.182  40.636   0.372
44542W        W11083   9.723   7.295   2.562
44543W        W11084  22.268   9.406   2.860
44544W        W11085   9.384  10.361  13.935
44545W        W11086  33.688   5.349   4.656
44546W        W11087  29.897  10.532   2.203
44547W        W11088  13.101   6.849  12.991
44548W        W11089  14.087  29.068   1.878
44549W        W11090  26.254   9.126   4.738
44550W        W11091  36.593  43.719  13.226
44551W        W11092   1.285  40.420   4.483
44552W        W11093  26.863  37.892  10.605
44553W        W11094  35.423  12.682   2.924
44554W        W11095  42.989  33.168   3.311
44555W        W11096  38.332  31.014   3.247
44556W        W11097  40.849  13.728   3.665
44557W        W11098  14.369  38.870   4.200
44558W        W11099  33.112  37.039  12.640
44559W        W11100  42.731   8.172   1.790
44560W        W11101  13.662  20.009  11.646
44561W        W11102  31.081  23.956  13.941
44562W        W11103  17.060  33.087  12.865
44563W        W11104  20.292   4.845  10.259
44564W        W11105  40.463  15.462   4.085
44565W        W11106  35.811  15.203   3.750
44566W        W11107   2.253  19.142   0.853
44567W        W11108  21.240  42.561  14.991
44568W        W11109  14.704  17.504   2.108
44569W        W11110  12.068  20.266  10.823
44570W        W11111  26.529  24.204  14.337
44571W        W11112  18.435  12.324   3.806
44572W        W11113  18.754  25.323  12.421
44573W        W11114  37.047   2.287   0.855
44574W        W11115  33.155   0.253  12.443
44575W        W11116  19.632   5.653  11.454
44576W        W11117  40.668  27.774   1.046
44577W        W11118  10.477  18.089  14.449
44578W        W11119  37.848  33.483  10.333
44579W        W11120  10.334  41.190   3.683
44580W        W11121  16.622  39.510  14.608
44581W        W11122  36.190   0.493  11.530
44582W        W11123  23.137   6.660   0.498
44583W        W11124   6.862  19.620  12.436
44584W        W11125  33.902  17.811  13.278
44585W        W11126   1.293   3.873   2.318
44586W        W11127  21.430   1.822   2.706
44587W        W11128  41.345  20.160   1.709
44588W        W11129  43.496  41.897   4.221
44589W        W11130  10.204  23.982  13.466
44590W        W11131   1.463  10.763  11.689
44591W        W11132  11.848  13.449   1.306
44592W        W11133   0.466  36.126   1.888
44593W        W11134  11.340   0.374   3.115
44594W        W11135  41.757  41.900  11.962
44595W        W11136  10.905  27.829  10.901
44596W        W11137  20.227  14.861   1.539
44597W        W11138  35.504  44.961  10.655
44598W        W11139   5.044  28.511  14.804
44599W        W11140  33.107   0.651  12.032
44600W        W11141   6.826  29.986  10.614
44601W        W11142   0.797  25.036   1.639
44602W        W11143   1.302  18.456  10.995
44603W        W11144  37.754  17.017   1.779
44604W        W11145  29.171  27.916   3.342
44605W        W11146  15.781  34.519   4.489
44606W        W11147   5.414   5.304   2.831
44607W        W11148  25.632  18.545   3.655
44608W        W11149  30.628  14.390  12.890
44609W        W11150  37.981  24.478   0.405
44610W        W11151  26.818  36.211   5.022
44611W        W11152  20.669  28.803   0.860
44612W        W11153  25.451  26.081   2.821
44613W        W11154  26.709  28.663  14.305
44614W        W11155   7.298  19.476   0.945
44615W        W11156  32.903   4.944  13.546
44616W        W11157  43.885  18.180   1.551
44617W        W11158   1.974  26.613   1.973
44618W        W11159  20.078  43.917  12.234
44619W        W11160  31.477  21.196  14.129
44620W        W11161  17.559  35.147   0.783
44621W        W11162  13.294  38.482   3.994
44622W        W11163   8.209  33.408  13.422
44623W        W11164  24.302  34.156   1.376
44624W        W11165   6.725  38.086  13.731
44625W        W11166  18.087  42.000   0.853
44626W        W11167  36.293  15.576   3.215
44627W        W11168  38.990  10.369  14.723
44628W        W11169  43.488   9.442   3.246
44629W        W11170   0.713  35.146   1.797
44630W        W11171  22.178  29.182   1.349
44631W        W11172  41.927  13.892   1.903
44632W        W11173  36.339   8.920   2.503
44633W        W11174   2.660   1.715  13.937
44634W        W11175   0.723  29.532  10.869
44635W        W11176  18.340  38.545   3.398
44636W        W11177  16.556  27.024   4.588
44637W        W11178  21.067   7.367   4.394
44638W        W11179  26.897   5.798  10.709
44639W        W11180  15.091  15.526   1.197
44640W        W11181  36.771  18.783   3.766
44641W        W11182  22.243  33.441  12.380
44642W        W11183  30.428   0.435   2.870
44643W        W11184  27.439  37.017  14.633
44644W        W11185   6.988  26.123  11.142
44645W        W11186   0.739  30.372   1.168
44646W        W11187  12.807   7.836   1.384
44647W        W11188   4.489  31.379   4.049
44648W        W11189  40.456   2.976   2.276
44649W        W11190  12.343   7.864  13.489
44650W        W11191  27.133  14.879   3.628
44651W        W11192  18.549  26.184   0.467
44652W        W11193  33.615   2.214   3.104
44653W        W11194  10.195  16.026  11.570
44654W        W11195  14.625  34.721  12.937
44655W        W11196  39.909  43.319   2.761
44656W        W11197  12.434  21.142   4.417
44657W        W11198  20.247  32.396  11.679
44658W        W11199  23.065   6.529   1.288
44659W        W11200   5.773  32.189  11.889
44660W        W11201  20.334  29.152   0.999
44661W        W11202  44.232  33.702   2.868
44662W        W11203  43.851  16.032  12.182
44663W        W11204  44.271  15.112  11.201
44664W        W11205  20.148  26.389   3.135
44665W        W11206  29.375  11.968  13.338
44666W        W11207  17.113  13.909  10.518
44667W        W11208   5.038  39.892   1.348
44668W        W11209  28.440   8.144   2.596
44669W        W11210  42.378  22.182  12.908
44670W        W11211  32.088  41.958  14.827
44671W        W11212  21.091  17.616  11.961
44672W        W11213  34.913  40.237   1.102
44673W        W11214  36.470   2.950  12.580
44674W        W11215  37.981  10.103  11.326
44675W        W11216  12.954  16.351  10.427
44676W        W11217   2.390  40.814   3.449
44677W        W11218   7.660  38.098   0.489
44678W        W11219  14.351  11.931  14.686
44679W        W11220   5.550  19.961  12.073
44680W        W11221  30.540  17.523   1.836
44681W        W11222  18.778  21.494   2.634
44682W        W11223   5.754   2.712  14.793
44683W        W11224  13.569  34.923  12.047
44684W        W11225  23.220   4.346   3.745
44685W        W11226   5.319  13.686  12.385
44686W        W11227  17.224   1.879   4.185
44687W        W11228  36.009  34.829  12.976
44688W        W11229   7.934  30.517   4.728
44689W        W11230   7.282  11.386   1.856
44690W        W11231   9.330  37.059   2.094
44691W        W11232  36.015   4.691  14.480
44692W        W11233  18.224  29.422   3.364
44693W        W11234  30.025  36.324  14.764
44694W        W11235   3.827  22.979   4.116
44695W        W11236  38.004  42.783  10.670
44696W        W11237  21.691  14.026   1.344
44697W        W11238  24.625  28.129  11.604
44698W        W11239   6.741  42.919  11.230
44699W        W11240  28.677   0.752   1.769
44700W        W11241  27.459  37.445   2.677
44701W        W11242  12.888  21.490   4.621
44702W        W11243  19.609  39.451   0.960
44703W        W11244   7.397  10.672   2.369
44704W        W11245  35.907  26.744   3.766
44705W        W11246  44.810   5.499   3.584
44706W        W11247  18.026  26.130   1.823
44707W        W11248  10.318  38.351   0.260
44708W        W11249  35.835   4.513  13.466
44709W        W11250   8.622  29.471  12.453
44710W        W11251  25.907  39.865   3.860
44711W        W11252  20.551  42.742  13.009
44712W        W11253  43.352  44.890  10.718
44713W        W11254  44.886  35.671  12.531
44714W        W11255  11.908   1.785   2.408
44715W        W11256  24.227   3.910   2.856
44716W        W11257  11.780  40.746   4.995
44717W        W11258  15.662  26.103   0.091
44718W        W11259  16.219  22.590  10.435
44719W        W11260  34.854  35.800   3.763
44720W        W11261  42.832  43.889   3.930
44721W        W11262  28.659  44.599   4.250
44722W        W11263  37.833  26.565  11.750
44723W        W11264  29.420  24.906  12.590
44724W        W11265   8.390  41.502   1.752
44725W        W11266  10.919   9.094  14.329
44726W        W11267  12.981  38.479  11.556
44727W        W11268   1.347   2.939   0.327
44728W        W11269  26.471  15.723   0.682
44729W        W11270  43.582  22.136   1.473
44730W        W11271  39.896  38.289   2.727
44731W        W11272  40.989  41.686   3.311
44732W        W11273  16.803  18.070   1.757
44733W        W11274  26.778  14.247   2.229
44734W        W11275   1.760  15.339  12.514
44735W        W11276   9.880   2.244   2.916
44736W        W11277   5.787  35.485   0.419
44737W        W11278  10.903  33.425  11.271
44738W        W11279  27.915  31.146   3.891
44739W        W11280  31.617  19.560   0.381
44740W        W11281  24.643  32.866   0.002
44741W        W11282  15.736  42.772  12.651
44742W        W11283  37.015  37.596   4.971
44743W        W11284  40.796  27.846  12.456
44744W        W11285  14.042   3.242  13.530
44745W        W11286  30.803   5.970   5.249
44746W        W11287  18.192  43.761   2.437
44747W        W11288  36.575  12.900   0.541
44748W        W11289   8.284  29.403  12.829
44749W        W11290  44.917   1.889  11.250
44750W        W11291  23.315  27.764   3.662
44751W        W11292  42.983  40.017   0.748
44752W        W11293   3.696  33.810   3.712
44753W        W11294   1.226  37.090  14.802
44754W        W11295  34.639  40.366  10.809
44755W        W11296  11.177  37.224   4.942
44756W        W11297  28.349  16.603   3.781
44757W        W11298  21.857  11.675   3.294
44758W        W11299  10.884  31.110  13.453
44759W        W11300  16.672   8.829  11.972
44760W        W11301  12.624  35.088   0.260
44761W        W11302  25.957  26.700   1.821
44762W        W11303  11.886  35.143  13.586
44763W        W11304  44.028  26.500  14.984
44764W        W11305   0.271  14.859  12.182
44765W        W11306  28.815  20.639  13.934
44766W        W11307   5.161  35.052   2.032
44767W        W11308  23.731  37.664  14.435
44768W        W11309   9.054  18.174  13.910
44769W        W11310  30.807   6.388  13.247
44770W        W11311  42.290  15.179   3.559
44771W        W11312  42.228  13.342  14.438
44772W        W11313  44.785  31.389  13.012
44773W        W11314  32.592  15.063  14.896
44774W        W11315  17.660  43.348  11.578
44775W        W11316  31.449   2.504   1.799
44776W        W11317  24.059  41.095   1.255
44777W        W11318  32.693  31.509   3.718
44778W        W11319  42.524  22.057  14.362
44779W        W11320  31.662  31.049  14.565
44780W        W11321  31.906  39.437   2.860
44781W        W11322  15.889  12.710  10.991
44782W        W11323  33.664   9.474  12.622
44783W        W11324   6.164   3.169  11.065
44784W        W11325  41.351   5.281   2.909
44785W        W11326  21.361  40.147   1.361
44786W        W11327  26.151  37.279  12.070
44787W        W11328  18.070  12.206  12.479
44788W        W11329  17.819   2.359   2.291
44789W        W11330  14.179  41.444  13.810
44790W        W11331   1.044  42.396  11.536
44791W        W11332  34.620  21.110   1.113
44792W        W11333  37.006   1.983   4.897
44793W        W11334  12.800  19.522   1.361
44794W        W11335  23.569  20.336  13.613
44795W        W11336  28.082  29.967   0.075
44796W        W11337  21.055  33.981  11.051
44797W        W11338  26.923  38.973  13.868
44798W        W11339  19.718  43.699  14.370
44799W        W11340  16.329  33.411  11.451
44800W        W11341  13.430   9.325  11.992
44801W        W11342  39.326  41.824   4.143
44802W        W11343  41.494  12.933  14.262
44803W        W11344  20.146  40.216  11.111
44804W        W11345   4.322  18.916   0.039
44805W        W11346  19.313  39.335  13.998
44806W        W11347  19.754  26.715  12.634
44807W        W11348  27.164   3.403  12.133
44808W        W11349  23.006  31.913   0.514
44809W        W11350  33.402  21.049   1.749
44810W        W11351  32.094   0.126   5.112
44811W        W11352  18.658  20.046  10.682
44812W        W11353   5.762  34.009  11.867
44813W        W11354  16.131   7.678  14.006
44814W        W11355  40.517  15.052   2.509
44815W        W11356  16.033  43.291  13.816
44816W        W11357   5.022   9.814  11.990
44817W        W11358  17.222   0.487   3.394
44818W        W11359  24.242  15.486   2.216
44819W        W11360  39.013   7.477   1.716
44820W        W11361  19.939  29.983   1.355
44821W        W11362  27.772  27.919   4.496
44822W        W11363  23.913  41.119  14.368
44823W        W11364  43.834  13.027  13.426
44824W        W11365  19.804  21.319  14.531
44825W        W11366  30.469  33.979  13.895
44826W        W11367  42.336   9.991  12.508
44827W        W11368  35.076  21.281   3.138
44828W        W11369   1.864  44.248   0.876
44829W        W11370  39.759  12.158   4.580
44830W        W11371  31.592  30.084   2.757
44831W        W11372  19.795  17.827   0.451
44832W        W11373  14.817   9.070  14.784
44833W        W11374  13.807  25.610  11.968
44834W        W11375   4.395  27.460   2.774
44835W        W11376  36.403  36.912  11.538
44836W        W11377  37.856  11.956  10.685
44837W        W11378  17.864  25.914  12.322
44838W        W11379  23.179   8.756  12.871
44839W        W11380  21.638  44.213   4.299
44840W        W11381  42.526  15.427  12.550
44841W        W11382  10.389  43.291   0.994
44842W        W11383  44.045   0.982  14.925
44843W        W11384  42.321  37.340  12.068
44844W        W11385  11.907   2.310   2.266
44845W        W11386  43.841  27.982   4.205
44846W        W11387  24.670  44.433  11.238
44847W        W11388  40.270  14.498  13.271
44848W        W11389  24.824  40.865  13.149
44849W        W11390  37.300   3.758  14.369
44850W        W11391  28.205  31.931   0.729
44851W        W11392  31.455   7.624   0.379
44852W        W11393  41.103   4.336   4.616
44853W        W11394   6.344  42.858   2.322
44854W        W11395   0.825  10.059   2.217
44855W        W11396  31.087  23.056   2.356
44856W        W11397  21.663  33.395   4.766
44857W        W11398  33.203  21.562   1.872
44858W        W11399  30.448   6.478  10.901
44859W        W11400  13.149  39.388   3.656
44860W        W11401  25.459   4.644   0.576
44861W        W11402  15.681   0.048  11.137
44862W        W11403  36.358  42.952  13.013
44863W        W11404  16.947   7.844   1.393
44864W        W11405   8.776  35.513   3.088
44865W        W11406  40.025  27.544  11.215
44866W        W11407  34.507  19.317   4.876
44867W        W11408  34.297  38.554   4.128
44868W        W11409   7.729  40.289   1.719
44869W        W11410  14.696   6.985   3.787
44870W        W11411  18.654  29.896  14.325
44871W        W11412  27.564  44.463  13.075
44872W        W11413  43.294  21.426   3.090
44873W        W11414  37.354  35.087  12.004
44874W        W11415  16.313  28.647   4.176
44875W        W11416  15.155  37.803  13.497
44876W        W11417   3.796  33.375   1.834
44877W        W11418  27.498   2.296  13.296
44878W        W11419  43.692  39.768   0.030
44879W        W11420  18.046  23.076   0.831
44880W        W11421   0.007  28.962  13.625
44881W        W11422  22.942  14.866   4.241
44882W        W11423   1.362  39.531  13.506
44883W        W11424   6.692  35.421   2.959
44884W        W11425  35.612  44.423   0.358
44885W        W11426  44.517  38.672  11.146
44886W        W11427   2.023   7.545  13.293
44887W        W11428   8.431  17.091   1.785
44888W        W11429  18.807  37.409   1.444
44889W        W11430  13.622   7.400  10.511
44890W        W11431  29.578  30.480  14.769
44891W        W11432  44.369  22.253  12.511
44892W        W11433   0.168   8.437  12.035
44893W        W11434   4.241  23.968   1.476
44894W        W11435  30.872  40.772   1.127
44895W        W11436  20.463  42.387  10.512
44896W        W11437  15.085   2.381   1.225
44897W        W11438  29.949  41.371   1.193
44898W        W11439  24.500   2.145  13.442
44899W        W11440  10.283  32.032   1.515
44900W        W11441   7.863  19.817   3.973
44901W        W11442  30.790  26.282   2.292
44902W        W11443  23.864  10.565   4.891
44903W        W11444  28.887  24.248   3.252
44904W        W11445   5.688  39.495  14.099
44905W        W11446  38.548   7.139   0.884
44906W        W11447  31.866   1.390   2.587
44907W        W11448  37.569  37.574   0.858
44908W        W11449   3.765  19.898  10.035
44909W        W11450  41.947  26.285  12.053
44910W        W11451  20.554  41.868  10.641
44911W        W11452  31.887  36.683  13.348
44912W        W11453  26.940  20.264  14.276
44913W        W11454  15.121  23.305  14.257
44914W        W11455  39.011  18.585   1.833
44915W        W11456  36.053  41.250   1.359
44916W        W11457   7.473  29.195  13.402
44917W        W11458  43.507  38.802   2.569
44918W        W11459   6.291  22.718  14.925
44919W        W11460  11.677  38.733   0.089
44920W        W11461  20.675  36.669  13.493
44921W        W11462   3.712  24.588  13.230
44922W        W11463  33.659   1.273  14.793
44923W        W11464   6.375  28.669  10.444
44924W        W11465  11.748   0.446  13.892
44925W        W11466  14.139  28.418   4.553
44926W        W11467  17.002  20.162   1.554
44927W        W11468  34.968  14.760   3.663
44928W        W11469  37.156   5.083   5.337
44929W        W11470  20.289  31.109   4.097
44930W        W11471  23.648  15.540   4.542
44931W        W11472  38.337  17.957   4.151
44932W        W11473  34.450  23.719   3.568
44933W        W11474  43.465  26.947   3.271
44934W        W11475   0.966  18.302  14.382
44935W        W11476  12.267  22.903  13.968
44936W        W11477   1.775  17.815   0.886
44937W        W11478  22.723  10.736  11.581
44938W        W11479  44.748  14.238   5.045
44939W        W11480   4.414  13.819  13.825
44940W        W11481   4.309  43.565  11.846
44941W        W11482  36.902  27.921   2.162
44942W        W11483   5.749  15.998  13.817
44943W        W11484  23.996  16.780   2.457
44944W        W11485  19.268  27.057  13.207
44945W        W11486  13.153  18.790  13.407
44946W        W11487  36.572  40.521   2.094
44947W        W11488   6.864  13.882   2.778
44948W        W11489  29.250   0.185  12.670
44949W        W11490  10.953   1.043  11.137
44950W        W11491   1.795   1.239  12.370
44951W        W11492  14.294   5.863  14.807
44952W        W11493  32.517  23.213   2.231
44953W        W11494  16.065  21.926   4.115
44954W        W11495  32.448   5.095   4.679
44955W        W11496  15.392  25.517   3.749
44956W        W11497  16.176  14.804  10.269
44957W        W11498  24.304  32.532   3.704
44958W        W11499   2.364  34.606   2.392
44959W        W11500   8.852  25.932   3.277
44960W        W11501  42.637  42.710   4.740
44961W        W11502  26.965   7.855  14.727
44962W        W11503  40.654  41.340  13.348
44963W        W11504  39.023  32.630  14.488
44964W        W11505  10.096  33.318   2.768
44965W        W11506  41.982   0.719   4.143
44966W        W11507   0.362  27.932   3.253
44967W        W11508  23.121  14.214   0.286
44968W        W11509   0.282   8.106  14.323
44969W        W11510   8.393  16.635   3.454
44970W        W11511  30.047  20.538   4.547
44971W        W11512   1.547  24.639   2.837
44972W        W11513   1.311  16.172  12.550
44973W        W11514  38.973  10.154   2.663
44974W        W11515   0.790  13.902   1.283
44975W        W11516  21.524  35.402   2.683
44976W        W11517  30.644  26.462  14.489
44977W        W11518   0.923  16.215  12.895
44978W        W11519  22.945  39.630   1.386
44979W        W11520  12.731   6.856   4.105
44980W        W11521   5.373  27.232   9.646
44981W        W11522   6.770  30.622   1.491
44982W        W11523   1.656  20.111  11.573
44983W        W11524  37.251   5.850   1.320
44984W        W11525  40.917  18.834   1.490
44985W        W11526   0.496   7.708   0.157
44986W        W11527  35.451  26.542  10.614
44987W        W11528  28.426  25.535   0.038
44988W        W11529  44.950  32.518   4.478
44989W        W11530   8.933  39.947   2.762
44990W        W11531  29.658  40.292   4.202
44991W        W11532  41.770  26.992   2.418
44992W        W11533  26.626  35.269   2.391
44993W        W11534   6.708  44.204   1.931
44994W        W11535  43.816  38.925  13.256
44995W        W11536  42.369  22.012   4.427
44996W        W11537  18.773  23.359   1.522
44997W        W11538  28.230  39.555   3.255
44998W        W11539  36.016  18.241  13.159
44999W        W11540  37.100  20.164   2.556
45000W        W11541  41.717  22.755   2.096
45001W        W11542  12.128   1.819   0.509
45002W        W11543   2.925  35.143  11.560
45003W        W11544  26.706  42.700  13.967
45004W        W11545  28.759  30.025  11.158
45005W        W11546   6.634  38.370   5.276
45006W        W11547  35.795  25.213  11.431
45007W        W11548   2.500   5.487  14.441
45008W        W11549   4.736  34.912   4.601
45009W        W11550  44.703  40.801   2.165
45010W        W11551  26.605  20.655   4.638
45011W        W11552  17.789  11.668   3.915
45012W        W11553  42.997  33.495  13.103
45013W        W11554   1.252   8.279   0.884
45014W        W11555   1.328  29.076   1.299
45015W        W11556   4.215  13.996  14.280
45016W        W11557  12.774  31.057   0.513
45017W        W11558  39.791  29.482   2.402
45018W        W11559  18.429  23.857  13.791
45019W        W11560  21.592  30.972   2.096
45020W        W11561  28.576  35.254  11.868
45021W        W11562  29.499  39.288   0.790
45022W        W11563  28.160  38.830  12.179
45023W        W11564  16.335  16.723  12.932
45024W        W11565  42.415  28.116  10.792
45025W        W11566  16.281  39.346   1.836
45026W        W11567  34.847  40.774   1.738
45027W        W11568  18.090  22.478  11.511
45028W        W11569  24.318   5.473  13.965
45029W        W11570  42.028  37.241   2.288
45030W        W11571  29.535   2.291   3.396
45031W        W11572  27.570  30.712   3.952
45032W        W11573  29.530   3.174   1.855
45033W        W11574  37.919  20.776  13.405
45034W        W11575   7.655   2.192  13.371
45035W        W11576  40.071  42.931  13.352
45036W        W11577  26.998   0.995   1.616
45037W        W11578  15.964  12.935  14.280
45038W        W11579  10.725  16.298   3.176
45039W        W11580  17.052  24.526   3.800
45040W        W11581  20.443  10.726   2.881
45041W        W11582  17.263  22.784   1.265
45042W        W11583  32.438  17.567   2.359
45043W        W11584   8.101  42.225  14.819
45044W        W11585  44.429  42.886   1.141
45045W        W11586  28.659  42.532   0.768
45046W        W11587  44.243   7.402  11.051
45047W        W11588  44.257  40.325   3.729
45048W        W11589  39.008  29.912  14.025
45049W        W11590   2.539  31.542   3.036
45050W        W11591  13.863  18.088   0.859
45051W        W11592  27.924  39.522  11.013
45052W        W11593  30.436   0.952   2.787
45053W        W11594   9.276   3.987   1.920
45054W        W11595  39.859  28.748  13.060
45055W        W11596  15.049  25.917   2.332
45056W        W11597  44.911  12.928   1.147
45057W        W11598  21.621  26.594   1.380
45058W        W11599  18.258  40.381   2.960
45059W        W11600  10.197   1.611   4.030
45060W        W11601   2.137  38.485  10.763
45061W        W11602   9.451  34.367   5.119
45062W        W11603  30.496  33.050   4.497
45063W        W11604  16.119  35.568   4.591
45064W        W11605  27.760  44.490   4.254
45065W        W11606  27.587   0.441  13.641
45066W        W11607  20.843   0.890  14.057
45067W        W11608  21.727   7.916  11.072
45068W        W11609  31.907  15.070   3.348
45069W        W11610   0.835  32.630   1.772
45070W        W11611   3.203  17.602   0.404
45071W        W11612   0.295   8.713  14.772
45072W        W11613  25.050  41.360  14.956
45073W        W11614  21.454  11.040  12.412
45074W        W11615  14.380  44.337   0.897
45075W        W11616  27.026  33.032   0.456
45076W        W11617  18.031  27.017  11.636
45077W        W11618  14.148  31.888   0.399
45078W        W11619  20.669  28.929  12.913
45079W        W11620  22.906  10.244  11.486
45080W        W11621   6.943  17.731   1.431
45081W        W11622  19.038  27.001  11.740
45082W        W11623  34.602  38.917   2.791
45083W        W11624  25.716   0.480  13.993
45084W        W11625  25.455   8.705  12.057
45085W        W11626  16.336  11.163  12.653
45086W        W11627  43.448  38.571  13.412
45087W        W11628  17.033  21.483  12.592
45088W        W11629  10.716  43.004   1.837
45089W        W11630  38.408   1.651  12.357
45090W        W11631  16.643  23.272  14.987
45091W        W11632  35.075  10.282  10.343
45092W        W11633  26.229  19.265  14.733
45093W        W11634   0.900  14.552   0.440
45094W        W11635  16.735   3.371   4.340
45095W        W11636  30.497   0.897   3.604
45096W        W11637  16.865  12.902   3.675
45097W        W11638  24.383  12.898  13.545
45098W        W11639  11.591  21.169  10.704
45099W        W11640  38.863  38.626  13.340
45100W        W11641   1.248   2.829   3.406
45101W        W11642  32.983   1.804   9.635
45102W        W11643  31.291  25.680  11.024
45103W        W11644   4.475  26.630  12.466
45104W        W11645  36.138  42.485  14.836
45105W        W11646  18.978  26.619   4.755
45106W        W11647   9.640  16.029   1.292
45107W        W11648  36.894  44.489   4.876
45108W        W11649   0.817  38.288   4.610
45109W        W11650  26.125  23.956  11.126
45110W        W11651  21.232  38.216   2.908
45111W        W11652   4.447  12.184  12.380
45112W        W11653  42.335   8.608   1.888
45113W        W11654  18.732  25.601  14.318
45114W        W11655   8.600  28.534   4.914
45115W        W11656  29.035  30.806  12.990
45116W        W11657   3.074  23.129  11.074
45117W        W11658  44.282  12.973   3.562
45118W        W11659   2.793   6.338   4.609
45119W        W11660  38.232  12.364  14.160
45120W        W11661  16.659   6.282   0.977
45121W        W11662   1.392  19.794  10.577
45122W        W11663  13.034  42.622   5.123
45123W        W11664  20.736  24.968   4.289
45124W        W11665  13.637  33.427   3.310
45125W        W11666  31.607  18.397  14.171
45126W        W11667   7.589   1.327   1.532
45127W        W11668  12.298  13.619  11.575
45128W        W11669  31.443  24.460   0.480
45129W        W11670  25.083  33.194  14.239
45130W        W11671   1.884  18.290  13.496
45131W        W11672  24.627  36.981  11.266
45132W        W11673   3.868  20.479   4.112
45133W        W11674  35.516   1.806  14.800
45134W        W11675  40.085   4.660   3.938
45135W        W11676   7.415   2.981  13.672
45136W        W11677  29.970  35.306  14.929
45137W        W11678  19.181  19.813  10.747
45138W        W11679   7.772   5.423   4.706
45139W        W11680  21.818  27.144   4.621
45140W        W11681  18.096  13.520  14.382
45141W        W11682  21.283  18.441  10.983
45142W        W11683  27.687  42.913  14.918
45143W        W11684   2.741  12.181  13.983
45144W        W11685   6.865  31.508  10.600
45145W        W11686  39.983   1.985   2.364
45146W        W11687  35.838  17.021   4.773
45147W        W11688  11.951  44.042  12.948
45148W        W11689   3.324  13.832   5.018
45149W        W11690  39.257  22.704   4.712
45150W        W11691  18.745  13.351   1.207
45151W        W11692  44.794   0.378  13.996
45152W        W11693   4.262   4.828  11.041
45153W        W11694  36.840  28.866  14.255
45154W        W11695  16.485  12.288  14.809
45155W        W11696  43.186  19.216   3.424
45156W        W11697   4.989   7.675  13.032
45157W        W11698   6.407  41.043   0.928
45158W        W11699  37.840   0.537   1.889
45159W        W11700  11.875   0.932   0.957
45160W        W11701  13.607   3.558   0.437
45161W        W11702   7.752  33.733   0.391
45162W        W11703  19.913   4.273   1.053
45163W        W11704  16.267  10.115   3.467
45164W        W11705  28.719  36.034  14.516
45165W        W11706   1.015  19.471  13.488
45166W        W11707  23.016   3.890   3.241
45167W        W11708   1.956   6.763   2.991
45168W        W11709  24.190  12.324  14.546
45169W        W11710  10.436  31.216   3.264
45170W        W11711  26.549   2.578  11.835
45171W        W11712  32.097   3.001  13.548
45172W        W11713   2.525  24.185  14.344
45173W        W11714   2.662  27.643   2.224
45174W        W11715  15.246  21.660   3.165
45175W        W11716  36.550  25.911   3.741
45176W        W11717  21.732   1.782  11.277
45177W        W11718  21.615   2.961  11.041
45178W        W11719   6.376  37.166  10.940
45179W        W11720   2.173  21.573   4.349
45180W        W11721  16.120  20.966   0.435
45181W        W11722  26.955  17.281  10.254
45182W        W11723  37.080   5.457  11.176
45183W        W11724   3.248  34.991   2.426
45184W        W11725  39.627  32.960   2.256
45185W        W11726  13.857   0.364  11.410
45186W        W11727  32.234  35.192   1.175
45187W        W11728  30.604  11.578   3.507
45188W        W11729   9.195  33.745   2.412
45189W        W11730   7.813  27.932  10.335
45190W        W11731  23.177   6.989   3.580
45191W        W11732  37.567  35.353   3.263
45192W        W11733  44.562  20.625   0.130
45193W        W11734  12.352   2.341  11.584
45194W        W11735  32.907   8.160  12.833
45195W        W11736   6.930  14.265  13.898
45196W        W11737  19.502  34.380  12.483
45197W        W11738  41.738   9.267   0.224
45198W        W11739   1.245   9.169   2.662
45199W        W11740  31.621   2.485  12.917
45200W        W11741  44.949   8.280   4.905
45201W        W11742   9.843   2.396   0.196
45202W        W11743  17.703  44.381  13.633
45203W        W11744  35.064  31.821   0.684
45204W        W11745  40.070  31.114  14.788
45205W        W11746  16.198  34.455  11.970
45206W        W11747  42.199  25.087  12.054
45207W        W11748  44.980  43.815   3.731
45208W        W11749  43.537  18.296  12.933
45209W        W11750  21.007  23.561   0.698
45210W        W11751  36.629  38.143   1.841
45211W        W11752   3.520  39.035  13.910
45212W        W11753  30.135  36.500   3.718
45213W        W11754  29.572   7.728  13.097
45214W        W11755   5.876  40.778  13.691
45215W        W11756  21.592  29.448   0.444
45216W        W11757  25.504  32.189   2.470
45217W        W11758  37.602   4.007   0.693
45218W        W11759   7.847   3.558  12.492
45219W        W11760  36.226  40.851  14.973
45220W        W11761   1.535  42.874  14.002
45221W        W11762  27.312  27.678  10.963
45222W        W11763   9.375  37.075   4.480
45223W        W11764  28.442  13.706  14.714
45224W        W11765  18.775  25.480   1.107
45225W        W11766  24.449   0.656  12.015
45226W        W11767  44.809  35.908   2.352
45227W        W11768  43.544  13.924   4.563
45228W        W11769  35.256   7.994   1.612
45229W        W11770  39.609  26.596   3.637
45230W        W11771  40.409  11.764   0.037
45231W        W11772  26.551  29.459   2.536
45232W        W11773   8.168   5.340  11.616
45233W        W11774  34.625  28.478  10.592
45234W        W11775  11.035  11.330  12.876
45235W        W11776  32.042  23.062   3.848
45236W        W11777   6.025  40.279  12.979
45237W        W11778  43.217   6.367   0.421
45238W        W11779  10.687  16.011  13.384
45239W        W11780  42.968  15.008  14.466
45240W        W11781  27.904  28.372  11.192
45241W        W11782  11.879  17.505  11.675
45242W        W11783  19.004  44.396  14.957
45243W        W11784  31.410   4.867   1.296
45244W        W11785  27.218  16.375   0.749
45245W        W11786  10.010  31.188  14.942
45246W        W11787  15.316  28.273  12.925
45247W        W11788  21.211  34.818  13.594
45248W        W11789   1.833  14.821   0.858
45249W        W11790  25.868  33.616   3.182
45250W        W11791  29.257   0.102   2.322
45251W        W11792   5.696  17.380   3.308
45252W        W11793  28.012  13.272  12.975
45253W        W11794   8.815  30.938  11.565
45254W        W11795  19.166  12.919   4.949
45255W        W11796  19.168  44.210  11.509
45256W        W11797   0.752  37.366   4.161
45257W        W11798   4.317  28.747  11.603
45258W        W11799  17.562  36.330  10.623
45259W        W11800   6.300  40.024  11.173
45260W        W11801  24.682  17.553   3.965
45261W        W11802   9.598  12.429   3.784
45262W        W11803  37.899  27.248   0.375
45263W        W11804  22.994  42.510  12.093
45264W        W11805  41.361  39.490  14.719
45265W        W11806  30.532  16.997  12.064
45266W        W11807  17.545  37.901  14.030
45267W        W11808  20.059  25.647  13.900
45268W        W11809  25.141  19.014  14.450
45269W        W11810  18.154  14.562  14.483
45270W        W11811  30.140   8.246   2.325
45271W        W11812  20.318  24.182   0.514
45272W        W11813  15.710  29.008  12.966
45273W        W11814  40.662   5.878   0.789
45274W        W11815  40.920  35.053   1.636
45275W        W11816  42.190   4.467  11.100
45276W        W11817  40.752  37.440   2.354
45277W        W11818  17.633  11.732   2.210
45278W        W11819  30.901  26.667   5.131
45279W        W11820   1.807  17.039   5.021
45280W        W11821  43.875  27.923  11.720
45281W        W11822  24.034  20.283  11.360
45282W        W11823   0.844   9.765  10.475
45283W        W11824  16.200  22.324   1.926
45284W        W11825  39.280  12.698   3.153
45285W        W11826  11.189  41.771   3.694
45286W        W11827  16.768  24.753  11.512
45287W        W11828  20.068  40.334  12.353
45288W        W11829   1.623  39.984  11.932
45289W        W11830  10.371   8.151  13.577
45290W        W11831   3.880  24.602  12.228
45291W        W11832  12.238  14.387  10.637
45292W        W11833  33.127  23.127   3.880
45293W        W11834  20.898  23.640   1.189
45294W        W11835  32.005  22.282  13.461
45295W        W11836  33.973   7.249  13.967
45296W        W11837  12.611  20.636  13.343
45297W        W11838  27.501  10.160  13.929
45298W        W11839  24.212   3.507  14.022
45299W        W11840  44.556  23.323  13.157
45300W        W11841   5.870   4.243   0.974
45301W        W11842  25.752   5.534  11.131
45302W        W11843   3.989  12.809  11.933
45303W        W11844   6.747  20.642  13.467
45304W        W11845  35.046  27.434   1.993
45305W        W11846  26.594  14.343   0.754
45306W        W11847  42.524  36.904   2.983
45307W        W11848  15.040  21.170   0.394
45308W        W11849  30.581  17.919  14.875
45309W        W11850  30.672  27.461  12.169
45310W        W11851  19.904  42.198  14.559
45311W        W11852  12.157  21.981  10.502
45312W        W11853  30.566  26.036   3.855
45313W        W11854   0.630  35.195  11.361
45314W        W11855  23.608  42.829   0.783
45315W        W11856   3.372  34.057  13.346
45316W        W11857  44.480  25.984  11.499
45317W        W11858  17.136  16.270   2.650
45318W        W11859  31.561  41.865   1.725
45319W        W11860  20.313  17.766  14.246
45320W        W11861   3.931  21.958   3.285
45321W        W11862  15.579  10.758   3.617
45322W        W11863  13.032  25.600  12.576
45323W        W11864  10.874   9.184   2.685
45324W        W11865  18.650  26.455   2.837
45325W        W11866  34.078  29.395   2.820
45326W        W11867   2.053  28.622  14.650
45327W        W11868  40.858  27.101  13.091
45328W        W11869  27.129   7.352   4.569
45329W        W11870  12.180   2.474   1.297
45330W        W11871  22.635  18.595   3.658
45331W        W11872  17.127   2.543  14.909
45332W        W11873  26.505  32.941   0.568
45333W        W11874   8.458  21.683   1.919
45334W        W11875  18.769  16.313  10.740
45335W        W11876  16.551  12.502   2.399
45336W        W11877  39.400  24.404  13.382
45337W        W11878   5.819   2.243  13.526
45338W        W11879  42.107  36.762  13.063
45339W        W11880  37.499   0.345   2.264
45340W        W11881  11.199  12.331   1.802
45341W        W11882  38.304  12.092   2.644
45342W        W11883   7.427  43.396   3.992
45343W        W11884   1.030  26.203   1.215
45344W        W11885  21.993  16.117   4.564
45345W        W11886  34.584  14.592  13.321
45346W        W11887  35.209  25.554  12.496
45347W        W11888  41.166   6.002   3.050
45348W        W11889   3.226   0.398   3.726
45349W        W11890   8.169  29.211   4.099
45350W        W11891   8.004  27.540   3.588
45351W        W11892   7.750  36.973   0.396
45352W        W11893  21.081  44.555   1.284
45353W        W11894  44.419  37.177  14.307
45354W        W11895  25.952  24.978  11.983
45355W        W11896  24.541  36.029  11.842
45356W        W11897  13.610  39.119  11.107
45357W        W11898  14.190  44.793  12.113
45358W        W11899   5.774  28.940   2.113
45359W        W11900  38.776  44.412   1.492
45360W        W11901  34.577  38.612   2.083
45361W        W11902  27.907  40.826   4.586
45362W        W11903  21.694  14.735  13.825
45363W        W11904  24.994   1.794  11.642
45364W        W11905  10.247  43.849  10.322
45365W        W11906  19.528  12.876  12.751
45366W        W11907   4.683  39.460  13.748
45367W        W11908  37.980  25.230   3.833
45368W        W11909   8.184   6.079   4.082
45369W        W11910  41.197  21.448  12.232
45370W        W11911  22.097  29.067   0.814
45371W        W11912  18.049  17.493  13.758
45372W        W11913  14.528  10.153  10.255
45373W        W11914   2.368  23.953   2.213
45374W        W11915   8.881  29.201   5.030
45375W        W11916   1.455  44.570  14.804
45376W        W11917  40.518  25.349  13.440
45377W        W11918   7.073  17.048   1.797
45378W        W11919  36.470  12.049  12.379
45379W        W11920  32.659  32.623   3.291
45380W        W11921   0.733   6.281   4.087
45381W        W11922  40.161  15.298   2.802
45382W        W11923  22.213  22.398   2.810
45383W        W11924   9.157  17.475   0.909
45384W        W11925  40.771  27.951   2.388
45385W        W11926  22.921  15.843   0.290
45386W        W11927  33.090  31.088  10.852
45387W        W11928  14.849   1.523  12.627
45388W        W11929  40.515  12.678  10.739
45389W        W11930  25.621  30.626  13.984
45390W        W11931   9.255  11.682  12.102
45391W        W11932  43.861  29.079   2.079
45392W        W11933  14.252   6.627  12.113
45393W        W11934  37.770  42.309   1.564
45394W        W11935  24.505  39.322  13.339
45395W        W11936  20.871  35.816  10.206
45396W        W11937   5.193  37.481   2.307
45397W        W11938  25.562  28.175   1.314
45398W        W11939  38.313  23.028  14.570
45399W        W11940  10.284  25.666   2.779
45400W        W11941  27.396  32.506   2.452
45401W        W11942   9.804   9.355   1.714
45402W        W11943   9.287  11.387   4.532
45403W        W11944  39.395  16.647  10.878
45404W        W11945  32.713  26.651  11.191
45405W        W11946  42.829  29.373   4.110
45406W        W11947  17.657  31.841   3.763
45407W        W11948   9.538  12.295  13.886
45408W        W11949   0.347  39.423  12.090
45409W        W11950   4.399  32.544  12.012
45410W        W11951  39.914  34.017  11.944
45411W        W11952  21.670  13.873  10.864
45412W        W11953  17.550  26.906  13.974
45413W        W11954  31.085  23.148  14.398
45414W        W11955   5.837  25.891   1.270
45415W        W11956  21.709   0.054  12.105
45416W        W11957  18.244  32.159  13.325
45417W        W11958  15.755  11.363   0.834
45418W        W11959  23.456  21.130  13.148
45419W        W11960   2.804  39.979  14.402
45420W        W11961  33.570  32.222  12.445
45421W        W11962  34.054  41.781   2.151
45422W        W11963  22.041   5.438  14.838
45423W        W11964  25.163  12.042  14.917
45424W        W11965  37.236   7.445   4.691
45425W        W11966  36.463  39.444  11.166
45426W        W11967  28.947  41.380   1.357
45427W        W11968  15.170  43.044  11.022
45428W        W11969  28.628  12.194  12.404
45429W        W11970  24.166  39.939   4.488
45430W        W11971  31.395   1.045  11.741
45431W        W11972  24.582   5.734  11.386
45432W        W11973  39.625  24.761   3.225
45433W        W11974  35.873   9.720  11.284
45434W        W11975   5.634  23.203   3.121
45435W        W11976  41.487  30.059  11.146
45436W        W11977  33.182  10.579  10.228
45437W        W11978  42.543  39.885  10.548
45438W        W11979  34.039   6.830   0.321
45439W        W11980  20.681  28.465   1.739
45440W        W11981  18.184  26.592   1.633
45441W        W11982  18.631  16.677   1.904
45442W        W11983  13.141  33.190   1.444
45443W        W11984  27.622  26.615   4.877
45444W        W11985  25.453  38.316   0.477
45445W        W11986  28.164  14.018   4.952
45446W        W11987  23.464   3.422  10.279
45447W        W11988  34.157  29.900  10.742
45448W        W11989  36.325   1.927   2.710
45449W        W11990   2.277  16.666  12.538
45450W        W11991   5.758  31.355   1.370
45451W        W11992  35.673  28.454  12.016
45452W        W11993  11.863  24.474   0.467
45453W        W11994   4.202  21.253  14.301
45454W        W11995  29.597  17.639  14.972
45455W        W11996  38.136  38.914  13.373
45456W        W11997  23.469  34.471   1.734
45457W        W11998  40.768   2.907  14.027
45458W        W11999  32.032  41.031   0.291
45459W        W12000   0.193  15.658  12.566
45460W        W12001   3.476   0.356   1.630
45461W        W12002  28.505   2.780   2.747
45462W        W12003  23.495   4.494   2.728
45463W        W12004  29.607  33.491   4.999
45464W        W12005  26.740  13.578   2.690
45465W        W12006  31.714   9.190   1.878
45466W        W12007  28.233  33.817   0.831
45467W        W12008  24.550  32.035   1.606
45468W        W12009  30.617  18.075   0.405
45469W        W12010  20.701  31.884   3.526
45470W        W12011   3.646  25.121   1.075
45471W        W12012  11.664   6.288  11.187
45472W        W12013  21.149  31.732  11.944
45473W        W12014   7.487  29.074   0.038
45474W        W12015  34.553  32.589  10.661
45475W        W12016  42.603   9.303  13.946
45476W        W12017  16.589   5.322   0.748
45477W        W12018  22.081  18.587  12.350
45478W        W12019  25.021  44.113  11.000
45479W        W12020  15.783  39.863  13.089
45480W        W12021  28.453  17.536   0.339
45481W        W12022  18.373  17.252   4.055
45482W        W12023  32.701  40.452   4.621
45483W        W12024  33.629  43.096  10.595
45484W        W12025  15.520  42.452   3.650
45485W        W12026  17.287  15.169  12.921
45486W        W12027  21.976  19.831  11.947
45487W        W12028  16.332  30.049   2.853
45488W        W12029  10.330  44.406   4.154
45489W        W12030  10.958  18.255   1.126
45490W        W12031  14.396   6.590   0.361
45491W        W12032  28.821   1.266   1.631
45492W        W12033  11.913  26.900   0.009
45493W        W12034   4.805  40.904  13.983
45494W        W12035  16.203  32.885  13.229
45495W        W12036  44.009  22.122   1.169
45496W        W12037  14.376  37.470  11.849
45497W        W12038  32.339  41.435  12.508
45498W        W12039  35.438  38.421  14.743
45499W        W12040  44.866  19.578  14.475
45500W        W12041  21.570  44.522   3.858
45501W        W12042  13.809   3.341  13.050
45502W        W12043   0.222   2.355   0.749
45503W        W12044  43.337  24.794   5.085
45504W        W12045   9.350   3.414  11.601
45505W        W12046   0.392  23.114   2.646
45506W        W12047  24.719   3.965   1.289
45507W        W12048  15.719  13.582   0.118
45508W        W12049  20.259  39.117   0.748
45509W        W12050  35.488  33.719  13.294
45510W        W12051   4.434   8.157  14.482
45511W        W12052  29.777  30.221  11.655
45512W        W12053   3.701  25.975  12.809
45513W        W12054  27.883  12.758   3.023
45514W        W12055  13.952  31.522  13.952
45515W        W12056  33.864   9.277   2.176
45516W        W12057   4.412  36.740  11.727
45517W        W12058  23.126  28.138  13.285
45518W        W12059   7.234   2.934  14.139
45519W        W12060   3.590  35.809   2.415
45520W        W12061  22.587   2.882   2.810
45521W        W12062  19.649   6.334   0.280
45522W        W12063  11.741  11.489   1.319
45523W        W12064  30.459  28.548  11.092
45524W        W12065  19.545  32.121   2.494
45525W        W12066  13.755  18.639   0.851
45526W        W12067  16.314  31.396  11.180
45527W        W12068   5.963  44.114  11.478
45528W        W12069   0.792  12.360  11.185
45529W        W12070   4.354   6.466  12.888
45530W        W12071  12.687  37.331  13.669
45531W        W12072   6.718  27.594   0.925
45532W        W12073  39.277  38.494  12.626
45533W        W12074  17.780  44.023  13.999
45534W        W12075  35.527  32.142  14.967
45535W        W12076  36.910  10.786  13.590
45536W        W12077   7.208  24.051   3.672
45537W        W12078  13.768  37.034   4.046
45538W        W12079   2.559  25.377   9.916
45539W        W12080  29.231   8.010  11.218
45540W        W12081  40.873  17.127  12.637
45541W        W12082  17.253  28.358  13.656
45542W        W12083   4.311   5.901   1.845
45543W        W12084   1.778  40.661  13.817
45544W        W12085  29.646  37.753  12.603
45545W        W12086   8.307  44.976   3.204
45546W        W12087   7.042  43.784   1.934
45547W        W12088  33.563  35.700   1.126
45548W        W12089  18.469  31.985   2.725
45549W        W12090  37.884  13.774  11.773
45550W        W12091   9.220  12.869   1.478
45551W        W12092  36.023   3.146  12.783
45552W        W12093  38.994  16.805  11.160
45553W        W12094  22.531  29.165   0.070
45554W        W12095   4.363  43.748   9.900
45555W        W12096  23.064  39.038   0.466
45556W        W12097   3.959   3.830   2.212
45557W        W12098  23.035  20.195  12.969
45558W        W12099   2.152  32.988  13.837
45559W        W12100   4.076   3.540  11.775
45560W        W12101   4.269  44.320  12.495
45561W        W12102  22.487  41.874   0.548
45562W        W12103  15.836  23.433   2.881
45563W        W12104  20.222  42.476  13.877
45564W        W12105   8.934   1.704  11.169
45565W        W12106  22.534  42.632   0.977
45566W        W12107   4.415  26.978  13.109
45567W        W12108  31.145  38.372   2.380
45568W        W12109  17.071  32.236   1.781
45569W        W12110  43.936  31.188   4.565
45570W        W12111  43.166   0.212  13.383
45571W        W12112   1.533  43.818  11.151
45572W        W12113  32.121  41.331  12.011
45573W        W12114  41.896  34.298   2.788
45574W        W12115  11.106  40.506  10.696
45575W        W12116  24.604  42.142  11.527
45576W        W12117   9.545  22.186  13.480
45577W        W12118  20.647  19.109   4.603
45578W        W12119   4.724  11.414   4.044
45579W        W12120  23.807  29.243   4.463
45580W        W12121  25.070  42.944   4.061
45581W        W12122  17.092  20.551  14.654
45582W        W12123  41.764  16.574   3.816
45583W        W12124  20.049   7.510  14.984
45584W        W12125  36.776  26.202   2.692
45585W        W12126  29.240  27.153   3.216
45586W        W12127  20.934  36.498   2.018
45587W        W12128  20.082  33.149   0.436
45588W        W12129   2.730   4.830  13.892
45589W        W12130  18.748  13.932   3.069
45590W        W12131  40.087  42.496  11.587
45591W        W12132  25.854  20.122   1.266
45592W        W12133  28.341  41.944  11.251
45593W        W12134   0.375  13.316   3.293
45594W        W12135  27.531   7.286  12.304
45595W        W12136  31.790  41.587  12.888
45596W        W12137   3.404  23.214   3.651
45597W        W12138  22.869   7.992   3.675
45598W        W12139  16.079  27.389  11.522
45599W        W12140  10.351  29.683  11.620
45600W        W12141   6.161  32.523  11.841
45601W        W12142  44.333  25.884  13.521
45602W        W12143   0.777  37.666   3.277
45603W        W12144   9.180  37.652   0.872
45604W        W12145  40.456   3.666  11.253
45605W        W12146  35.096   9.375  11.125
45606W        W12147  24.013  20.239  10.859
45607W        W12148  28.640  15.640   3.626
45608W        W12149  39.872  43.990   1.839
45609W        W12150  28.893   1.394   4.387
45610W        W12151  14.874  37.587  14.965
45611W        W12152   4.653  36.620  11.281
45612W        W12153  22.941  41.885   0.298
45613W        W12154  29.200  22.316   2.679
45614W        W12155  20.292  31.566   0.412
45615W        W12156  44.033  31.167   2.817
45616W        W12157  31.062  33.621   4.959
45617W        W12158   2.363  32.409   4.092
45618W        W12159   8.240  16.165   3.347
45619W        W12160  27.984  24.380  13.518
45620W        W12161  34.030  40.928   1.504
45621W        W12162  21.610  35.022  10.985
45622W        W12163  37.396  27.264  11.175
45623W        W12164  18.254   4.743  11.134
45624W        W12165  33.527  36.037  12.047
45625W        W12166   4.793   5.844  12.634
45626W        W12167  39.929  18.715   4.768
45627W        W12168  17.711  33.534  14.272
45628W        W12169  20.005  44.893  10.748
45629W        W12170  42.370  38.959  13.022
45630W        W12171  28.466  22.677   4.399
45631W        W12172  14.574  28.634  10.278
45632W        W12173   3.711  29.546  13.626
45633W        W12174  20.135  28.306   1.847
45634W        W12175   9.295  22.417  13.911
45635W        W12176  10.938  20.739  11.591
45636W        W12177  39.266  20.028   0.964
45637W        W12178  36.999  11.165   2.399
45638W        W12179  13.760  43.885   1.957
45639W        W12180   0.346  10.958   4.118
45640W        W12181   6.282  33.325  11.580
45641W        W12182   5.148  34.967   2.552
45642W        W12183  30.564  12.847   0.900
45643W        W12184  20.087   0.372   3.663
45644W        W12185  24.698   8.280   1.438
45645W        W12186  11.172  37.995  12.368
45646W        W12187  32.920   8.209  14.854
45647W        W12188  31.123  18.724  12.862
45648W        W12189   2.722  30.057   1.331
45649W        W12190  34.978  29.648  10.536
45650W        W12191  17.778  31.055   0.076
45651W        W12192  39.400  20.583  13.272
45652W        W12193   0.204  35.258   1.918
45653W        W12194   3.450   8.481  12.761
45654W        W12195  44.311  44.760  13.794
45655W        W12196  26.232   5.301   0.323
45656W        W12197  43.171   5.701  13.701
45657W        W12198   5.588   3.194  14.964
45658W        W12199  42.502  28.598   2.865
45659W        W12200  10.416   9.240  14.296
45660W        W12201   9.434  30.512   3.696
45661W        W12202  17.117  32.449  14.072
45662W        W12203  41.027   5.692   0.470
45663W        W12204   2.286  36.155   4.596
45664W        W12205  13.069  19.181  10.616
45665W        W12206  26.305  11.790   3.255
45666W        W12207  16.688   0.227  12.737
45667W        W12208   0.257   1.835   4.162
45668W        W12209   9.885   8.196   1.749
45669W        W12210  22.431  35.657   1.722
45670W        W12211  17.268  25.011  13.622
45671W        W12212   1.231   3.355  13.977
45672W        W12213  40.727  21.646  12.958
45673W        W12214  27.116  19.859  14.600
45674W        W12215  42.594  30.055   1.279
45675W        W12216   5.834  12.812  11.566
45676W        W12217  13.877  16.658   3.671
45677W        W12218  17.595   3.454  11.266
45678W        W12219  44.358  44.747  10.402
45679W        W12220  14.721  29.665  12.005
45680W        W12221   2.243  32.271  11.356
45681W        W12222  26.506  42.752  11.140
45682W        W12223   3.354  36.815  12.900
45683W        W12224  40.261   1.241   2.837
45684W        W12225   1.776  18.276  12.660
45685W        W12226  26.301  22.268   2.285
45686W        W12227  17.376  35.374   2.294
45687W        W12228  26.304   3.386   3.250
45688W        W12229  24.787  28.881   4.355
45689W        W12230  23.222  26.008  12.929
45690W        W12231  17.091  31.529  12.492
45691W        W12232  35.627   8.360  13.428
45692W        W12233  25.733  20.695   0.447
45693W        W12234  43.444  27.147  10.667
45694W        W12235   3.371   0.695  13.884
45695W        W12236  34.348   1.323   2.811
45696W        W12237  20.126  26.122  10.597
45697W        W12238  13.843   8.499   3.734
45698W        W12239  11.636   9.269   1.659
45699W        W12240   5.778  34.827   4.662
45700W        W12241  23.044  40.409  11.545
45701W        W12242  31.567  27.505  12.015
45702W        W12243   3.555  33.250  10.803
45703W        W12244  24.783  19.343  11.158
45704W        W12245   5.712  32.459  11.479
45705W        W12246  25.939  41.948  13.409
45706W        W12247  15.129  15.483  13.811
45707W        W12248  20.119  34.362  11.107
45708W        W12249  24.510  31.909   3.854
45709W        W12250  44.448  37.609   0.375
45710W        W12251  32.007  33.461  10.140
45711W        W12252   0.252  37.034  12.539
45712W        W12253  16.743  33.930  12.150
45713W        W12254   8.699  43.467  11.566
45714W        W12255   3.302  35.413  13.131
45715W        W12256  33.938  35.785  14.414
45716W        W12257  28.338  40.352  13.403
45717W        W12258  23.708   1.673   2.985
45718W        W12259  23.000  38.524  11.334
45719W        W12260  34.618  44.095  12.482
45720W        W12261  28.912  37.868   3.204
45721W        W12262   8.398   7.743  13.549
45722W        W12263   5.808  15.273   2.698
45723W        W12264   2.325  12.300  11.833
45724W        W12265   7.935  26.914   1.843
45725W        W12266  12.560  15.619  12.324
45726W        W12267  40.078  29.154   2.120
45727W        W12268  30.655   8.835   4.948
45728W        W12269  23.475   5.677   3.583
45729W        W12270  10.400  21.174   2.295
45730W        W12271  26.198  17.324  13.890
45731W        W12272  17.403  12.755  11.133
45732W        W12273   5.477  23.024   0.152
45733W        W12274  13.115  23.144  14.858
45734W        W12275  19.985  13.208   4.541
45735W        W12276  22.173  21.007   0.797
45736W        W12277  16.926  33.311  13.531
45737W        W12278  40.944  17.525   1.230
45738W        W12279   1.423   2.752  13.885
45739W        W12280  41.933   9.236   0.691
45740W        W12281  44.463  19.256  11.257
45741W        W12282  35.890   7.850   0.589
45742W        W12283   7.622  33.387   3.129
45743W        W12284  27.932  16.277  11.731
45744W        W12285  19.624  13.714   3.504
45745W        W12286  17.243  27.040  13.037
45746W        W12287  40.907  11.489  13.844
45747W        W12288  31.065  10.153   3.149
45748W        W12289   9.325  14.732   1.879
45749W        W12290  25.140   5.847   4.964
45750W        W12291  26.185  14.057  13.099
45751W        W12292   8.411  41.370   4.081
45752W        W12293  41.067  34.373   4.371
45753W        W12294  23.215  41.610  11.925
45754W        W12295   0.736  33.853  13.522
45755W        W12296  29.883  22.485   4.583
45756W        W12297   4.019   0.172  12.550
45757W        W12298  38.510  37.116   3.137
45758W        W12299  30.061  36.846  14.741
45759W        W12300  26.868  31.212  11.643
45760W        W12301  35.162  23.979   4.734
45761W        W12302  26.084  40.855  12.939
45762W        W12303   2.192  19.800   2.815
45763W        W12304  16.486  17.658   2.782
45764W        W12305  20.006  11.238   4.530
45765W        W12306  34.283  11.279  14.340
45766W        W12307  20.626  12.797   4.177
45767W        W12308  14.322   6.707  10.704
45768W        W12309  40.075  43.763  10.310
45769W        W12310  20.010   0.931  13.171
45770W        W12311  34.795  21.455   2.706
45771W        W12312  33.282  44.641  11.027
45772W        W12313  15.658  44.494  12.018
45773W        W12314   6.559  41.806   2.473
45774W        W12315  23.120  25.232   2.658
45775W        W12316  16.690  38.426  10.428
45776W        W12317  28.403  10.697   0.719
45777W        W12318  24.575   2.366   4.264
45778W        W12319  16.800   9.002  10.441
45779W        W12320  17.159  15.225   2.738
45780W        W12321  29.373   9.117   4.085
45781W        W12322  25.950  36.791   4.639
45782W        W12323   9.821  11.553   2.637
45783W        W12324   8.799   9.452  12.465
45784W        W12325  37.856  44.722   4.257
45785W        W12326   2.404   1.204   5.454
45786W        W12327  11.903  30.030  13.587
45787W        W12328  24.199  26.203   2.082
45788W        W12329  36.425   7.344   3.395
45789W        W12330  34.662  36.026   3.321
45790W        W12331  17.539  29.716   0.375
45791W        W12332  24.691   2.426  11.487
45792W        W12333   7.132   5.822  12.713
45793W        W12334  40.729  30.423   0.413
45794W        W12335   4.287  42.081   0.657
45795W        W12336  42.749  39.481  10.831
45796W        W12337  35.973  33.551  14.483
45797W        W12338  26.946  30.415  14.177
45798W        W12339  18.816  28.019  14.872
45799W        W12340  39.656  17.984   0.497
45800W        W12341  23.681  35.128   5.002
45801W        W12342  20.222  17.258  13.434
45802W        W12343  17.745  32.187  10.202
45803W        W12344  19.257  11.373   1.019
45804W        W12345  33.404  25.532  12.449
45805W        W12346  38.629  40.383   0.970
45806W        W12347  33.610  31.414  11.541
45807W        W12348  23.329  17.532   4.495
45808W        W12349   4.695  25.694  14.948
45809W        W12350  10.546  14.082   0.951
45810W        W12351  13.191  32.575  14.075
45811W        W12352   3.548  12.265  12.646
45812W        W12353  36.943  16.099   0.393
45813W        W12354  31.673  29.368   4.316
45814W        W12355   0.564  41.330   0.940
45815W        W12356  33.613  38.831   3.696
45816W        W12357  38.848  29.212  13.497
45817W        W12358  41.176   5.294  11.605
45818W        W12359  23.161  35.596   2.270
45819W        W12360  20.351  18.188   1.329
45820W        W12361  22.455  12.393  10.251
45821W        W12362  13.203  38.324   1.014
45822W        W12363  39.808  37.798   2.849
45823W        W12364  13.325  32.577   3.225
45824W        W12365  40.469  13.277  14.802
45825W        W12366   8.266  42.381  12.651
45826W        W12367  44.715  16.253   1.893
45827W        W12368  41.804  32.869  11.194
45828W        W12369  39.505  43.059  12.643
45829W        W12370  30.950  44.431  13.932
45830W        W12371  36.409  31.357  13.553
45831W        W12372  37.759  38.968   3.620
45832W        W12373  39.991  16.496   4.936
45833W        W12374  12.071  29.479   0.242
45834W        W12375  11.352  20.100   1.901
45835W        W12376  11.561  25.183   1.740
45836W        W12377   6.688   1.972   3.944
45837W        W12378  37.194  31.017   3.620
45838W        W12379  30.047  22.612  10.692
45839W        W12380  43.705  26.547   5.083
45840W        W12381   4.830  10.647  14.072
45841W        W12382  28.418  34.003  11.552
45842W        W12383  21.816   0.270   1.876
45843W        W12384  21.246   5.360   0.773
45844W        W12385  25.714   7.937   0.705
45845W        W12386  14.151  39.108   1.076
45846W        W12387  12.273  18.842   0.614
45847W        W12388  28.852  29.289  11.187
45848W        W12389  31.080  13.836   4.158
45849W        W12390  13.668   4.727   4.095
45850W        W12391  40.936  26.599   2.434
45851W        W12392  20.015   4.825  12.978
45852W        W12393   1.172   2.616   3.865
45853W        W12394  19.529   4.950   3.194
45854W        W12395  17.865  44.557  11.318
45855W        W12396   6.314   3.387   1.289
45856W        W12397   6.048  37.563  10.959
45857W        W12398  40.622  10.170  13.348
45858W        W12399  33.468  33.621   2.338
45859W        W12400  43.670  36.268   5.012
45860W        W12401  21.158  30.748  13.114
45861W        W12402  40.170   1.425  11.075
45862W        W12403   3.006   9.237  13.894
45863W        W12404  41.969  35.469  13.000
45864W        W12405   9.321  10.873   2.294
45865W        W12406  41.059  11.079   5.342
45866W        W12407   1.446  24.039   2.237
45867W        W12408  37.407  20.377   2.943
45868W        W12409  41.861  36.437  13.414
45869W        W12410  28.022  22.147  10.668
45870W        W12411  31.121  21.989   1.410
45871W        W12412  33.496  27.231  10.515
45872W        W12413  40.323  31.351   3.202
45873W        W12414  24.285  17.504   4.339
45874W        W12415  23.738  24.256  12.016
45875W        W12416  30.459  35.840  11.234
45876W        W12417  37.306  18.040   1.493
45877W        W12418  15.108  32.874   3.182
45878W        W12419  42.465   3.683   0.600
45879W        W12420   0.594  15.130  11.535
45880W        W12421  17.570  16.317   4.513
45881W        W12422  40.014  29.597  13.429
45882W        W12423  26.495  41.475   1.832
45883W        W12424  13.651   6.242  13.339
45884W        W12425  10.857  40.425   3.887
45885W        W12426  15.607  33.543   2.147
45886W        W12427   8.640  31.505  13.543
45887W        W12428  22.166  33.524   4.925
45888W        W12429  43.314  30.680  12.276
45889W        W12430  30.579  23.553  12.950
45890W        W12431   6.830  40.778   0.849
45891W        W12432  19.152  16.591  11.660
45892W        W12433  24.312  43.793  10.719
45893W        W12434   0.300  29.001   2.055
45894W        W12435  25.565  41.545   1.843
45895W        W12436  23.280   1.784  12.013
45896W        W12437   0.014  18.151   1.711
45897W        W12438  22.591  25.386   2.067
45898W        W12439  30.494   4.680   2.663
45899W        W12440   4.852   8.458   3.084
45900W        W12441  33.206  26.632  11.310
45901W        W12442   5.443  30.441  14.922
45902W        W12443   5.404  34.957  12.517
45903W        W12444  24.473  30.392   3.560
45904W        W12445  11.179  18.675   2.448
45905W        W12446   2.528   8.836  13.506
45906W        W12447   4.040  40.050  13.540
45907W        W12448   8.596   3.901   3.619
45908W        W12449  33.534  42.643   2.711
45909W        W12450  13.318   8.756  13.962
45910W        W12451  16.228  34.820  14.002
45911W        W12452  35.547  18.129  11.518
45912W        W12453  14.638  26.429  14.386
45913W        W12454  30.255  43.723   4.214
45914W        W12455   2.925   3.764  13.624
45915W        W12456  34.474  26.141  14.174
45916W        W12457  36.076   8.305   4.557
45917W        W12458  37.404  23.533  13.749
45918W        W12459  35.601   6.860  14.392
45919W        W12460  11.119  31.606   3.675
45920W        W12461  23.443   6.840  13.361
45921W        W12462  16.830   6.169   2.404
45922W        W12463  30.720  17.804  13.059
45923W        W12464  39.569  19.307   0.229
45924W        W12465  39.349  25.132  10.793
45925W        W12466  36.634  21.325   3.343
45926W        W12467  14.266   2.939   3.694
45927W        W12468  31.936  43.815   4.818
45928W        W12469   2.992  20.493   0.429
45929W        W12470   5.528  14.511   2.837
45930W        W12471  13.339  10.073   9.965
45931W        W12472   7.535   3.673   5.051
45932W        W12473  13.673  16.418  14.500
45933W        W12474  40.089   5.706   1.419
45934W        W12475  42.734  35.878   0.214
45935W        W12476   6.858  33.626  14.975
45936W        W12477  15.118  33.476  12.061
45937W        W12478  10.144  14.714   1.304
45938W        W12479  34.609   9.017  12.820
45939W        W12480   6.754   8.664  12.432
45940W        W12481  40.158  22.108  12.467
45941W        W12482  26.492  12.668   3.140
45942W        W12483  14.102  29.766   0.361
45943W        W12484   8.262  13.653  14.071
45944W        W12485  27.295  18.718  10.796
45945W        W12486  22.600  30.973   0.743
45946W        W12487   4.390  31.522   3.179
45947W        W12488   7.222  16.605  12.795
45948W        W12489  28.041  41.407   0.490
45949W        W12490   5.649   4.721   4.167
45950W        W12491  16.888  24.211  14.962
45951W        W12492   3.868  27.196   3.234
45952W        W12493  30.158  40.012   2.959
45953W        W12494   0.326  17.468   4.855
45954W        W12495   5.949  15.084   0.877
45955W        W12496   0.711  21.449   3.282
45956W        W12497  34.288  17.856  12.932
45957W        W12498   5.216  41.824  10.253
45958W        W12499   2.876  13.774   2.215
45959W        W12500   0.910  20.524  13.589
45960W        W12501   2.952  11.302   4.281
45961W        W12502  11.513  37.982   1.941
45962W        W12503  38.874   2.431  10.796
45963W        W12504   2.520  16.188   2.592
45964W        W12505   8.442  32.929  13.416
45965W        W12506  38.373  18.619  11.171
45966W        W12507  40.469  28.171  13.467
45967W        W12508  40.765  34.577  11.636
45968W        W12509  20.474   2.550   0.490
45969W        W12510  15.015  21.735  11.921
45970W        W12511  21.418  15.536   4.993
45971W        W12512  13.336  33.240   0.949
45972W        W12513   1.334  11.898   4.708
45973W        W12514  19.294   0.988  13.320
45974W        W12515   6.668  26.535   4.090
45975W        W12516  35.786  12.079  11.891
45976W        W12517  42.699   6.385   4.700
45977W        W12518  33.643  13.155  12.102
45978W        W12519   8.812  22.602   2.280
45979W        W12520  23.699   5.884  10.211
45980W        W12521  40.294   9.329   2.927
45981W        W12522   9.621   7.115  14.576
45982W        W12523  18.656  23.257   4.850
45983W        W12524  42.970   8.291  13.346
45984W        W12525  17.262   8.234  10.706
45985W        W12526   4.790  14.614  14.020
45986W        W12527  24.054  38.867  14.887
45987W        W12528  43.209  39.919  12.383
45988W        W12529   6.242  15.736   4.843
45989W        W12530  37.426  19.999   3.329
45990W        W12531  21.419  42.737   2.293
45991W        W12532   0.524  40.003  14.812
45992W        W12533  26.841  39.218   3.657
45993W        W12534  29.889  31.912   0.248
45994W        W12535   1.884  37.057   4.724
45995W        W12536  26.899  16.926   3.562
45996W        W12537  27.981  15.260  13.742
45997W        W12538   7.704  44.650  12.276
45998W        W12539   1.961  16.725  12.938
45999W        W12540   9.765  38.332   3.616
46000W        W12541  43.379  28.095  11.662
46001W        W12542  28.627  37.436  10.686
46002W        W12543  35.708  24.608  13.889
46003W        W12544  24.186   4.982   3.834
46004W        W12545  44.972   4.677   0.239
46005W        W12546  38.523   6.720   1.582
46006W        W12547  32.537  17.850  14.475
46007W        W12548  38.543  10.843  14.435
46008W        W12549  26.169  43.404  11.649
46009W        W12550  31.937  29.824   3.216
46010W        W12551   6.825  18.508   1.959
46011W        W12552   4.363  25.774  12.475
46012W        W12553  28.491   1.293   1.242
46013W        W12554  39.132  11.065   1.707
46014W        W12555  30.683  30.229  12.992
46015W        W12556  43.250   6.249  13.190
46016W        W12557  27.167  22.190  13.977
46017W        W12558  18.191  16.804  14.477
46018W        W12559  38.416  28.038  10.617
46019W        W12560  32.162   9.621   3.086
46020W        W12561   8.363   7.657   1.164
46021W        W12562  14.333   1.886  13.813
46022W        W12563  21.187  39.771   4.284
46023W        W12564  44.470  19.735  13.299
46024W        W12565  20.173   2.261   2.420
46025W        W12566  24.116   0.736   0.377
46026W        W12567  36.833  29.639  12.984
46027W        W12568   2.065  21.177   9.841
46028W        W12569  30.285   5.292   3.283
46029W        W12570  39.481  12.213   3.288
46030W        W12571  35.093  38.016  13.530
46031W        W12572  20.716  39.692   2.602
46032W        W12573  43.037  39.542   3.277
46033W        W12574  23.562  39.009  10.838
46034W        W12575  13.648  27.415  12.422
46035W        W12576  33.861  17.071  11.157
46036W        W12577   2.071  30.217  12.805
46037W        W12578   9.748  18.126   2.009
46038W        W12579  19.025   4.193  11.589
46039W        W12580  31.217   3.577  13.405
46040W        W12581   0.689  23.233   1.491
46041W        W12582  21.754  44.011  10.470
46042W        W12583  18.635  15.361  12.533
46043W        W12584  15.548   6.018   1.961
46044W        W12585   0.128  36.679  11.499
46045W        W12586  40.111  10.159   4.691
46046W        W12587  37.968  30.868   1.379
46047W        W12588   6.328  43.762  12.878
46048W        W12589  37.328  34.260   3.787
46049W        W12590  26.764  20.503  12.436
46050W        W12591  31.589  21.292  13.155
46051W        W12592  28.909  34.005   2.723
46052W        W12593  17.479  38.772  11.966
46053W        W12594  21.821  22.503  12.562
46054W        W12595  21.107  26.352  11.269
46055W        W12596  30.063   2.221  13.395
46056W        W12597  44.275  38.032  10.400
46057W        W12598  42.738  37.240  11.333
46058W        W12599  20.534   4.715  10.705
46059W        W12600   2.646  15.137  12.972
46060W        W12601  21.700  31.013   2.608
46061W        W12602  24.746   8.900   3.146
46062W        W12603  22.303  35.189   3.680
46063W        W12604   1.557  39.701  13.999
46064W        W12605  17.347  36.647   0.242
46065W        W12606  13.655   1.747  12.996
46066W        W12607  40.288  17.082   4.154
46067W        W12608   0.406   9.396   1.287
46068W        W12609  40.922  29.240   2.776
46069W        W12610  39.012   7.263  14.360
46070W        W12611  43.856  23.027   3.808
46071W        W12612  33.161  16.159  13.839
46072W        W12613  15.705  22.525   4.466
46073W        W12614  23.185  14.591   4.680
46074W        W12615  32.425  29.408   0.388
46075W        W12616  11.667  32.889  12.887
46076W        W12617  24.515  44.659   4.179
46077W        W12618  20.489  28.252  12.040
46078W        W12619  31.419  18.619   0.826
46079W        W12620  13.593  38.300  12.691
46080W        W12621   0.251  18.496  11.223
46081W        W12622   0.820  39.338  10.867
46082W        W12623   6.707  23.195  11.639
46083W        W12624  32.748   2.203   2.240
46084W        W12625  35.833   1.737  12.411
46085W        W12626  31.820  18.168   4.155
46086W        W12627  35.795  16.249  11.727
46087W        W12628   0.602  39.023  14.821
46088W        W12629  19.455  25.807   3.604
46089W        W12630  18.798  18.643  12.640
46090W        W12631  14.554  43.129   4.626
46091W        W12632  18.549  15.643  14.242
46092W        W12633  38.881   1.266   1.227
46093W        W12634  13.322  17.791   0.266
46094W        W12635  21.259  40.826   3.669
46095W        W12636  28.521  39.076   2.352
46096W        W12637  15.270  37.809   2.258
46097W        W12638  33.311  11.203  11.590
46098W        W12639   2.194  33.292  11.141
46099W        W12640  20.560  18.326   0.857
46100W        W12641   2.254  29.061  12.636
46101W        W12642  14.157  16.568   4.531
46102W        W12643  37.562  10.373  11.499
46103W        W12644  11.728  42.518   1.855
46104W        W12645  38.919  18.614  11.878
46105W        W12646  17.415   9.167  11.239
46106W        W12647  40.462  43.273  14.524
46107W        W12648  37.121   4.334  12.201
46108W        W12649  12.108  38.857   0.708
46109W        W12650  17.109   9.260   2.166
46110W        W12651   5.808   5.239   5.042
46111W        W12652  32.683  33.439   1.672
46112W        W12653  35.969  31.001   3.178
46113W        W12654  29.129  13.810  12.035
46114W        W12655  37.853   2.297  14.057
46115W        W12656  31.208  11.931   0.308
46116W        W12657  40.981  40.807   3.601
46117W        W12658  22.214   0.348   2.460
46118W        W12659  34.081  22.658   4.802
46119W        W12660  32.553   8.098  11.562
46120W        W12661   5.656  23.159  11.347
46121W        W12662  13.231  20.609   3.664
46122W        W12663  25.961  18.659   1.294
46123W        W12664  34.042  24.533   1.323
46124W        W12665  38.066  11.246  10.681
46125W        W12666  40.551  36.382   0.087
46126W        W12667  11.746  37.021   3.969
46127W        W12668  22.053   0.824   2.688
46128W        W12669  39.490  32.938  14.509
46129W        W12670  16.066  31.522  11.610
46130W        W12671  43.668  15.005  10.608
46131W        W12672  11.412  39.638  14.927
46132W        W12673  36.067  12.990  12.428
46133W        W12674  15.875  18.191   3.747
46134W        W12675  43.308  22.717  12.076
46135W        W12676  29.456  44.438  10.089
46136W        W12677  16.126  29.028   0.774
46137W        W12678  13.297  36.251  13.463
46138W        W12679  40.116  41.340  10.649
46139W        W12680   5.360  34.673  13.915
46140W        W12681  40.304  24.873   3.827
46141W        W12682  25.653  11.507   0.161
46142W        W12683  33.877  35.885   3.663
46143W        W12684  32.539  25.706   0.421
46144W        W12685  33.028  30.457   2.379
46145W        W12686  38.496  43.034   1.693
46146W        W12687   5.172   7.382   2.801
46147W        W12688  34.986  32.294  10.598
46148W        W12689  26.945  16.528  12.484
46149W        W12690  42.806  32.482  14.928
46150W        W12691   3.835   9.746   4.616
46151W        W12692  42.954  43.310   1.271
46152W        W12693  13.701  15.084  11.524
46153W        W12694   8.229   3.301   1.063
46154W        W12695   5.415  12.587  13.101
46155W        W12696  42.103  27.463   3.542
46156W        W12697  37.831  28.078   3.753
46157W        W12698  16.855  32.539   0.048
46158W        W12699  27.032  39.406  11.628
46159W        W12700  41.923  34.583   4.131
46160W        W12701   4.191   4.341  11.963
46161W        W12702  41.995  26.610  13.398
46162W        W12703   6.319  30.723  13.365
46163W        W12704  15.138  10.374  14.894
46164W        W12705   2.306  17.136   1.260
46165W        W12706   2.728  29.369  12.022
46166W        W12707  14.727   3.256   4.562
46167W        W12708   8.163  18.246  14.112
46168W        W12709  39.013  13.123   9.930
46169W        W12710  41.991   9.773  14.936
46170W        W12711  27.435  18.457   1.251
46171W        W12712  40.851  30.606  14.907
46172W        W12713  15.852  13.680  10.793
46173W        W12714  42.360  17.307   5.022
46174W        W12715  39.615  42.274  11.587
46175W        W12716  33.944   7.813   3.885
46176W        W12717  13.811  23.146  12.035
46177W        W12718   0.962  29.111   3.026
46178W        W12719  26.638  24.441   0.215
46179W        W12720  24.201  14.815   3.007
46180W        W12721  17.776   4.279   2.777
46181W        W12722  37.383   1.736  13.508
46182W        W12723  20.395  26.290  11.010
46183W        W12724   5.814  30.555   2.868
46184W        W12725  40.945   0.377   4.221
46185W        W12726  20.166   1.925  14.938
46186W        W12727  36.683  33.354   2.682
46187W        W12728  14.497  37.374  14.055
46188W        W12729  11.651  32.389   1.375
46189W        W12730  38.920  10.589   4.631
46190W        W12731   8.875  27.996  14.177
46191W        W12732   7.830  11.551   3.589
46192W        W12733   0.967  22.296  12.912
46193W        W12734   4.380  26.434   3.599
46194W        W12735  33.148  24.513  10.795
46195W        W12736  31.833   1.358  13.588
46196W        W12737  18.569  14.818   0.278
46197W        W12738  40.908  21.213  11.824
46198W        W12739  40.320   1.596   4.056
46199W        W12740  39.479  11.783   3.644
46200W        W12741  17.153  20.279   4.103
46201W        W12742  18.155  10.386   4.391
46202W        W12743   6.967  42.992  13.051
46203W        W12744  11.785   0.067   0.777
46204W        W12745   8.701  14.755  12.359
46205W        W12746   1.000  21.259   1.821
46206W        W12747  37.589  30.004  14.462
46207W        W12748  25.161  28.017  11.582
46208W        W12749   7.747   6.871   1.846
46209W        W12750  21.896  38.697   1.827
46210W        W12751  14.092  29.199  13.344
46211W        W12752   3.251   5.932  12.142
46212W        W12753  35.535  24.263   0.297
46213W        W12754   4.007  30.567   2.366
46214W        W12755  43.936   1.078  12.340
46215W        W12756   1.420  35.937   2.859
46216W        W12757  13.243  36.832   3.225
46217W        W12758  11.594  31.945  12.055
46218W        W12759  36.752  43.539  12.356
46219W        W12760  31.507   7.629  14.091
46220W        W12761  44.069  23.044  11.284
46221W        W12762  38.579   4.446   1.392
46222W        W12763  19.286   2.967  13.029
46223W        W12764  17.120  26.836  14.324
46224W        W12765  28.940  44.862  13.990
46225W        W12766  33.217  20.696  10.826
46226W        W12767  16.034  24.059   1.840
46227W        W12768  22.777  43.977  12.834
46228W        W12769  18.313  15.343  12.118
46229W        W12770  12.535   1.476  13.803
46230W        W12771  44.240  39.966  14.014
46231W        W12772  43.775  20.402  11.155
46232W        W12773   2.483  44.161  14.840
46233W        W12774  14.775  10.371  12.597
46234W        W12775  32.328  31.658  11.220
46235W        W12776  35.413  27.161   0.952
46236W        W12777  14.728   4.609  14.141
46237W        W12778  32.280   3.810  13.091
46238W        W12779  38.280  25.682  11.139
46239W        W12780  27.205   0.575   1.860
46240W        W12781  36.963  17.741  11.519
46241W        W12782   9.083  22.192  12.292
46242W        W12783  24.144   7.438   3.148
46243W        W12784  21.558  24.914   1.445
46244W        W12785  22.276   3.083  12.464
46245W        W12786   8.168  16.826   0.821
46246W        W12787  43.758  36.133  12.139
46247W        W12788  28.062  31.429   0.765
46248W        W12789   9.923  40.523   2.223
46249W        W12790  40.508  38.636  11.214
46250W        W12791  12.091   4.325   3.337
46251W        W12792   8.897   8.461   1.494
46252W        W12793  44.015  31.869  11.142
46253W        W12794  10.741  30.166  11.070
46254W        W12795  21.127   2.026   0.741
46255W        W12796  32.969   3.429   0.999
46256W        W12797  23.640  32.889   1.352
46257W        W12798   2.295  42.800  11.863
46258W        W12799  31.880  13.138   2.810
46259W        W12800  44.975   2.004   3.769
46260W        W12801   2.074  26.082   4.993
46261W        W12802  32.671  10.184   0.287
46262W        W12803   8.928  25.426   1.097
46263W        W12804  10.243  40.329  10.793
46264W        W12805  11.704  40.039  14.739
46265W        W12806  33.918   7.843  13.052
46266W        W12807  25.037  40.743   0.838
46267W        W12808  42.706  31.702   4.631
46268W        W12809  11.230  21.043   1.634
46269W        W12810   3.278  16.049  13.534
46270W        W12811  32.096  20.486   3.190
46271W        W12812  39.372  26.020  13.003
46272W        W12813   4.680  13.007   5.070
46273W        W12814  32.058   8.588  11.813
46274W        W12815  25.571  38.436  11.840
46275W        W12816  41.266  39.414   1.527
46276W        W12817   8.270   9.957   3.276
46277W        W12818  35.777  37.863   0.238
46278W        W12819   1.219  43.943   5.019
46279W        W12820  44.186   3.698   4.142
46280W        W12821  44.418  33.228   2.757
46281W        W12822  37.370  34.926  13.986
46282W        W12823   1.893   3.260  14.333
46283W        W12824   3.759  29.088  14.871
46284W        W12825   6.933  28.600  12.938
46285W        W12826   7.887  32.621   2.674
46286W        W12827  29.636  23.094  11.673
46287W        W12828  23.072  20.513  11.961
46288W        W12829  37.145  14.551  12.458
46289W        W12830  24.084  16.615  11.916
46290W        W12831  35.381  14.721   1.444
46291W        W12832  26.428  19.987   4.077
46292W        W12833   3.882  30.937   5.514
46293W        W12834  37.363  27.479  13.107
46294W        W12835  44.349  35.501   0.780
46295W        W12836  36.955   0.555   4.317
46296W        W12837   8.457  44.021  13.798
46297W        W12838  44.736   2.487   1.844
46298W        W12839  42.093   8.332   3.845
46299W        W12840  21.021  14.265   2.775
46300W        W12841  43.952  36.007  11.208
46301W        W12842  11.204   9.933  13.282
46302W        W12843  29.098   0.267  10.657
46303W        W12844  43.820   1.962   1.893
46304W        W12845  22.244   4.453   1.151
46305W        W12846  25.482  19.871   2.029
46306W        W12847  18.785  18.138  12.096
46307W        W12848  14.732  11.159  11.189
46308W        W12849   5.656  38.187   1.375
46309W        W12850  40.836  31.972   1.295
46310W        W12851  41.902  17.036  11.184
46311W        W12852   5.700  18.795  14.870
46312W        W12853  39.105  28.970  13.873
46313W        W12854   5.104   4.893  12.624
46314W        W12855  28.905   2.895   0.000
46315W        W12856  44.082   4.309  10.994
46316W        W12857   1.828  20.462   1.761
46317W        W12858  20.747  29.074  11.636
46318W        W12859  34.442   3.284   0.467
46319W        W12860   1.865  14.796   0.329
46320W        W12861  38.344  34.335  12.560
46321W        W12862  40.909   7.363   1.844
46322W        W12863   4.194  44.293  13.034
46323W        W12864  30.815  22.254  14.428
46324W        W12865   9.166  37.981  10.644
46325W        W12866   2.950  23.467   2.787
46326W        W12867  16.734  14.099  13.477
46327W        W12868  14.045  44.561   5.040
46328W        W12869   9.924  44.204   1.002
46329W        W12870  42.061  25.026  13.900
46330W        W12871  13.227   4.371   0.719
46331W        W12872  37.722  11.974  11.875
46332W        W12873  15.873   7.812  11.555
46333W        W12874  39.985   3.772   3.934
46334W        W12875  28.970  31.108   0.237
46335W        W12876   2.627  12.179   3.754
46336W        W12877  22.900  12.907  14.805
46337W        W12878  38.664  40.098   2.217
46338W        W12879  15.174  14.650   4.972
46339W        W12880  15.825   2.995  12.283
46340W        W12881  16.078   9.121   4.287
46341W        W12882  27.499  17.150   2.714
46342W        W12883  22.577  13.783   0.254
46343W        W12884  41.632  29.908   4.558
46344W        W12885  42.423  39.134  12.118
46345W        W12886   1.894  41.423   1.385
46346W        W12887  24.137  29.116  14.043
46347W        W12888  17.835  13.178   2.805
46348W        W12889   8.361  41.966   1.987
46349W        W12890  39.132  32.072  12.094
46350W        W12891  32.093  25.701  14.228
46351W        W12892  43.884  10.423   0.885
46352W        W12893   2.410   9.844   1.274
46353W        W12894  37.084  25.921   3.585
46354W        W12895  24.464  25.611   3.219
46355W        W12896  18.566  21.242   2.155
46356W        W12897  15.212  39.406   1.687
46357W        W12898  31.639   2.978   1.935
46358W        W12899  19.074   7.737  11.902
46359W        W12900  43.856  24.436   4.264
46360W        W12901   4.695  10.413   2.718
46361W        W12902  33.109  11.225   3.197
46362W        W12903  37.984  41.092  11.123
46363W        W12904   7.752  10.806  13.192
46364W        W12905  26.022  42.228   0.922
46365W        W12906  43.064  39.858  10.588
46366W        W12907   5.470  44.847  13.969
46367W        W12908  41.888  32.025  11.648
46368W        W12909  37.010  40.680   4.199
46369W        W12910   7.356  34.961   0.541
46370W        W12911  44.660  12.255  13.968
46371W        W12912  44.949   9.054   3.222
46372W        W12913   0.434  41.528  10.717
46373W        W12914  34.154   8.317   3.894
46374W        W12915  31.349  24.366  13.498
46375W        W12916  12.225  31.753  14.365
46376W        W12917   0.421  17.494   3.825
46377W        W12918  25.270   9.019  11.163
46378W        W12919  13.179  23.664  12.548
46379W        W12920  35.882  24.503  14.379
46380W        W12921  15.307   3.465   4.456
46381W        W12922  30.414  39.598   0.747
46382W        W12923  29.128  11.591   1.686
46383W        W12924   8.916  18.667  13.813
46384W        W12925   7.085  17.743   3.678
46385W        W12926  21.114  37.313  12.061
46386W        W12927  13.585  30.115   4.125
46387W        W12928   8.401   3.041   3.925
46388W        W12929  38.400  23.256  10.840
46389W        W12930  13.227  41.502  14.606
46390W        W12931   1.534  26.270   1.355
46391W        W12932   7.174  12.636  14.861
46392W        W12933  27.650   8.792   4.537
46393W        W12934  35.017  31.052   0.096
46394W        W12935  36.552   5.219   1.824
46395W        W12936  24.968   7.822  12.018
46396W        W12937  17.352  34.167  11.161
46397W        W12938   6.881  10.724   0.016
46398W        W12939  27.576   9.416   0.328
46399W        W12940   6.531  24.498  11.931
46400W        W12941  38.621  42.557  14.996
46401W        W12942  11.183   8.245  14.943
46402W        W12943   1.440  38.653  11.277
46403W        W12944  22.243  39.842   2.567
46404W        W12945  17.014  35.449  10.724
46405W        W12946  17.961  36.794  12.392
46406W        W12947   8.930  36.455   2.365
46407W        W12948   4.729   9.206   4.506
46408W        W12949  12.967  44.817  14.868
46409W        W12950  44.992  15.696   4.557
46410W        W12951  13.097  31.877  12.554
46411W        W12952  37.487   8.725  10.631
46412W        W12953  33.914   5.891   3.082
46413W        W12954   0.896  15.082   0.347
46414W        W12955  20.971  10.926   3.725
46415W        W12956  12.655  30.510   3.743
46416W        W12957  11.299  23.702  14.894
46417W        W12958  23.085   3.341  10.650
46418W        W12959   6.274  19.364  11.578
46419W        W12960  17.009  24.803  10.132
46420W        W12961   2.378  17.126  11.965
46421W        W12962   0.727  25.400   4.760
46422W        W12963  43.422  22.753   0.358
46423W        W12964  18.105   3.188   2.359
46424W        W12965  34.876  35.995  13.464
46425W        W12966  11.556  35.335   1.424
46426W        W12967  22.027   0.885   4.372
46427W        W12968  37.498  39.574  12.893
46428W        W12969   5.996   3.031   4.965
46429W        W12970   6.622  20.977   1.324
46430W        W12971  44.798  37.372  13.496
46431W        W12972  33.550  16.229   0.146
46432W        W12973   9.833  19.731  11.993
46433W        W12974  22.769   4.360   3.169
46434W        W12975  13.728  22.566   1.495
46435W        W12976   5.373  30.619  10.117
46436W        W12977  22.838  27.689   3.508
46437W        W12978  21.447  40.375   3.510
46438W        W12979   6.906  26.097   1.958
46439W        W12980   8.683  25.236  14.223
46440W        W12981  39.799  35.097   4.151
46441W        W12982   0.699  19.148   2.844
46442W        W12983  28.943  37.826  11.901
46443W        W12984   3.371  35.516  14.909
46444W        W12985   9.410  20.279   2.408
46445W        W12986   5.731  14.338  13.421
46446W        W12987  14.809  38.902   1.833
46447W        W12988  23.823  17.179  12.626
46448W        W12989  41.995  43.850   0.431
46449W        W12990  22.120   3.053   2.668
46450W        W12991  37.178  22.251  10.240
46451W        W12992   2.231  16.583   3.364
46452W        W12993  20.844  11.287  11.178
46453W        W12994  26.468   2.066  11.640
46454W        W12995  20.703  37.504  11.816
46455W        W12996  22.117  31.862   1.299
46456W        W12997   6.524   0.818  10.606
46457W        W12998   0.399  14.365   1.927
46458W        W12999  27.925  14.792   3.307
46459W        W13000  19.713  44.789   3.089
46460W        W13001   3.447  36.491  10.669
46461W        W13002   7.419  25.052   4.747
46462W        W13003  40.689  22.244   3.201
46463W        W13004  18.073   2.996  11.571
46464W        W13005   0.028  37.828   3.763
46465W        W13006  13.690  27.376   3.009
46466W        W13007  27.628  13.915  13.896
46467W        W13008  13.781  33.329  14.010
46468W        W13009   1.883  19.584   1.192
46469W        W13010  32.557  41.078  11.960
46470W        W13011  31.392   9.282  12.147
46471W        W13012  19.500  31.596  11.161
46472W        W13013  11.155  24.722  12.051
46473W        W13014  38.645  43.593   1.469
46474W        W13015  11.585   7.374  13.401
46475W        W13016  40.567   9.253   3.788
46476W        W13017  18.194  11.950   4.687
46477W        W13018  28.066  40.514   4.163
46478W        W13019  15.782   9.158   1.322
46479W        W13020  34.743   3.549  13.914
46480W        W13021  23.299  24.476  11.052
46481W        W13022  39.056  26.664  13.401
46482W        W13023   6.463   4.426  11.764
46483W        W13024  43.018  30.215  11.020
46484W        W13025  18.264  17.761  12.530
46485W        W13026   1.872  17.614   2.318
46486W        W13027  31.096  15.743  10.738
46487W        W13028  13.323  41.745   0.613
46488W        W13029  15.127  24.431   3.333
46489W        W13030  37.505  39.390   1.303
46490W        W13031  39.391   7.728   0.898
46491W        W13032  13.429  37.125  13.912
46492W        W13033  42.327  34.156  13.429
46493W        W13034  15.652  39.754  12.476
46494W        W13035  20.609   6.491   4.918
46495W        W13036  19.749  26.770  12.116
46496W        W13037  38.731   6.697  12.933
46497W        W13038  28.118  41.833   4.210
46498W        W13039  31.737  36.998   1.474
46499W        W13040  40.546   8.740   2.450
46500W        W13041  12.454  11.080   3.807
46501W        W13042  17.222  29.193   3.269
46502W        W13043  31.080  12.296  13.349
46503W        W13044   9.338  13.728  14.453
46504W        W13045  25.703   5.229  14.334
46505W        W13046  41.230  17.481   5.524
46506W        W13047   8.505   5.742   2.314
46507W        W13048  40.067  26.945  11.679
46508W        W13049  40.014  17.832  10.689
46509W        W13050   5.314  33.203   2.663
46510W        W13051  17.457  41.525   3.617
46511W        W13052  18.532   9.442   0.840
46512W        W13053  24.933   2.418  13.476
46513W        W13054  16.385   8.783  10.661
46514W        W13055  38.966  40.707  11.951
46515W        W13056  34.404  37.359   2.704
46516W        W13057  35.185  12.376  13.904
46517W        W13058  28.621  23.583   0.352
46518W        W13059  35.334   1.315  10.622
46519W        W13060  41.300  11.724  10.348
46520W        W13061  25.991   5.068  12.128
46521W        W13062  33.094  31.131  13.345
46522W        W13063  12.115  26.586  11.588
46523W        W13064  12.711  23.894   0.784
46524W        W13065  15.060  33.891  12.965
46525W        W13066  43.293   5.749  11.886
46526W        W13067  16.184  15.600  11.157
46527W        W13068  16.224   9.122   2.275
46528W        W13069   5.638   6.130  11.047
46529W        W13070  41.568  43.896   0.064
46530W        W13071  34.516  31.764   1.425
46531W        W13072  13.140  37.814  11.907
46532W        W13073  13.099  14.279   0.741
46533W        W13074  24.506   1.655  14.198
46534W        W13075  34.312   1.950   0.402
46535W        W13076  31.468  14.200   4.217
46536W        W13077   6.268  19.944  13.777
46537W        W13078  34.031  31.435   0.835
46538W        W13079  15.609  20.852   1.170
46539W        W13080  44.548  25.161   2.200
46540W        W13081  18.353   3.955   1.795
46541W        W13082  34.180  39.400   2.193
46542W        W13083  30.955  37.500  12.172
46543W        W13084  43.289   6.828   3.717
46544W        W13085  24.060  17.121  11.583
46545W        W13086  28.464  14.799  14.443
46546W        W13087  36.908  42.451   0.313
46547W        W13088  42.089  29.464  11.704
46548W        W13089  11.381  38.281  14.310
46549W        W13090   6.414  41.538   0.697
46550W        W13091  40.863   1.988   3.157
46551W        W13092   4.295  14.742   0.819
46552W        W13093  27.337   9.240   1.288
46553W        W13094   0.615  17.325  11.789
46554W        W13095  25.594   5.266   5.410
46555W        W13096  23.705  38.503  14.952
46556W        W13097  29.416   7.243  14.493
46557W        W13098  17.922  26.285  11.134
46558W        W13099  44.430  25.098   2.708
46559W        W13100  44.993  26.513   1.740
46560W        W13101  24.066  29.366   2.226
46561W        W13102  18.112  23.984  11.745
46562W        W13103   8.249  33.958   3.506
46563W        W13104  31.958  29.322   3.029
46564W        W13105  21.378  19.729   0.464
46565W        W13106  21.131  21.769   0.268
46566W        W13107   7.015  29.469   3.561
46567W        W13108  19.064  44.367  12.781
46568W        W13109  43.341   9.115  11.310
46569W        W13110  32.616  10.260   1.695
46570W        W13111  39.460  26.860  11.924
46571W        W13112  29.948  31.168  11.608
46572W        W13113  10.788  10.934   0.997
46573W        W13114   7.882  20.523   1.728
46574W        W13115  32.744  31.823   1.013
46575W        W13116  23.177   5.659   0.830
46576W        W13117  27.172  11.276  14.623
46577W        W13118  29.724   7.720  12.016
46578W        W13119  22.330  15.058   3.013
46579W        W13120  44.453  35.857  14.918
46580W        W13121  14.166  36.812   1.728
46581W        W13122   8.370  44.549  10.568
46582W        W13123  15.007  33.066  10.757
46583W        W13124  30.246   1.700   0.396
46584W        W13125   1.109  12.278   3.421
46585W        W13126  20.693  16.811  11.362
46586W        W13127  21.328   7.214   3.153
46587W        W13128  37.941   2.292  12.925
46588W        W13129   4.186   2.457  14.350
46589W        W13130  24.566   6.611   0.872
46590W        W13131  13.137  25.735  11.494
46591W        W13132  10.761   3.222   3.878
46592W        W13133  28.915   7.222   1.158
46593W        W13134   4.344   2.682   3.177
46594W        W13135  14.727  24.728   1.643
46595W        W13136   0.480  29.252  14.479
46596W        W13137  20.667  38.965  14.760
46597W        W13138  29.375  11.351  14.922
46598W        W13139  25.409  24.687  12.053
46599W        W13140   3.052   5.421  12.349
46600W        W13141   1.949  19.125   0.401
46601W        W13142  14.040  23.773   1.018
46602W        W13143  44.228  26.458  12.283
46603W        W13144  12.572  26.853   2.813
46604W        W13145  28.756   0.266   1.025
46605W        W13146  42.952  43.861  11.225
46606W        W13147  20.181  11.932   4.044
46607W        W13148  11.838  15.569  11.130
46608W        W13149  42.092  31.762  13.440
46609W        W13150  23.660  41.430  12.406
46610W        W13151   2.842  36.373   3.359
46611W        W13152  31.135  22.088  13.316
46612W        W13153   0.791  44.874   1.818
46613W        W13154   2.671  41.460   4.215
46614W        W13155  42.759  21.074  14.583
46615W        W13156   3.403  20.621  11.648
46616W        W13157  20.215  27.217   4.538
46617W        W13158  34.418  35.462   1.759
46618W        W13159   6.314  30.856  10.888
46619W        W13160   8.390  21.262   0.333
46620W        W13161  38.879  19.119   3.380
46621W        W13162   4.682  17.536  11.244
46622W        W13163  11.063   2.484   1.486
46623W        W13164  15.044  10.782   3.647
46624W        W13165  28.979   5.149  12.958
46625W        W13166  20.229  39.240  12.430
46626W        W13167  19.701  16.779  14.982
46627W        W13168  24.562  42.876   2.356
46628W        W13169  43.770   7.621  10.848
46629W        W13170  10.760  30.952   0.675
46630W        W13171  13.220  23.997   0.276
46631W        W13172   0.300  17.759   1.299
46632W        W13173  18.257  22.938   4.042
46633W        W13174   7.932  36.047  11.261
46634W        W13175   0.041  42.087   0.301
46635W        W13176   5.058  30.527  10.551
46636W        W13177  41.429  10.424   4.798
46637W        W13178  31.827  39.839  10.129
46638W        W13179  16.882  36.458   0.100
46639W        W13180  25.882   5.916  12.583
46640W        W13181  14.164  32.619  14.918
46641W        W13182  34.214  13.121   2.082
46642W        W13183  39.621  37.285  13.919
46643W        W13184  29.074  22.380   0.241
46644W        W13185  18.016  21.541   3.640
46645W        W13186  11.756  33.846  11.103
46646W        W13187  36.891  41.596  11.083
46647W        W13188  42.150  18.664   0.483
46648W        W13189  10.291  15.682  11.962
46649W        W13190   9.122  13.597  12.427
46650W        W13191  29.714  38.853  12.145
46651W        W13192  38.389  24.616   4.324
46652W        W13193   7.897  25.875  14.853
46653W        W13194   2.997  40.894  13.562
46654W        W13195  23.517  10.388  14.153
46655W        W13196  27.120  27.468   4.849
46656W        W13197   5.483  38.816  14.827
46657W        W13198  26.366  31.388  11.016
46658W        W13199  27.050  39.823   2.801
46659W        W13200  39.957  32.401   4.543
46660W        W13201  10.880  15.366   0.632
46661W        W13202  33.005  42.848   2.574
46662W        W13203  26.681  22.968  14.800
46663W        W13204  16.008  27.209   0.695
46664W        W13205   0.474  19.995  11.038
46665W        W13206  19.000  10.454   0.963
46666W        W13207   2.169   4.555   4.218
46667W        W13208  33.481  18.515   2.746
46668W        W13209  14.042   1.011   1.184
46669W        W13210  13.077  31.070  12.396
46670W        W13211   5.270  42.066  10.727
46671W        W13212  43.220  18.686  14.430
46672W        W13213  33.487  11.266   2.089
46673W        W13214  40.883   7.923  12.868
46674W        W13215   1.884   7.237   4.606
46675W        W13216  28.175  21.605  14.847
46676W        W13217  23.976  42.816   1.465
46677W        W13218  24.322  39.946   2.522
46678W        W13219  10.992  43.767  13.014
46679W        W13220  11.943  21.063   4.127
46680W        W13221   3.892  29.711  12.192
46681W        W13222  11.164  35.487  12.321
46682W        W13223  34.115  37.403   0.007
46683W        W13224  29.999  21.569  13.248
46684W        W13225  21.252  24.272   0.514
46685W        W13226  35.123   2.337  12.565
46686W        W13227  16.219   0.499  10.577
46687W        W13228  24.151  36.742  12.043
46688W        W13229  38.844  10.182  13.003
46689W        W13230   3.896  34.817   1.819
46690W        W13231  12.863  40.334   0.446
46691W        W13232  32.834  13.784   4.495
46692W        W13233  32.023  27.050  13.562
46693W        W13234  33.342  20.833   4.102
46694W        W13235  28.216   4.227  11.371
46695W        W13236  32.404  35.902  11.200
46696W        W13237  20.170   6.856   4.097
46697W        W13238   3.693  33.025  12.500
46698W        W13239   1.437   7.675   1.794
46699W        W13240  19.978  40.793   3.694
46700W        W13241  18.429  28.597  12.757
46701W        W13242   6.264   5.707  10.567
46702W        W13243   6.294  18.586  10.690
46703W        W13244  23.181   2.273   0.532
46704W        W13245  29.158  14.732  11.623
46705W        W13246   2.492  30.622  14.877
46706W        W13247   6.140  23.064   4.054
46707W        W13248  26.243   2.316   1.506
46708W        W13249  43.988  17.055  14.946
46709W        W13250  17.169  38.017   1.275
46710W        W13251  40.864  44.192   1.349
46711W        W13252  20.677  20.014   4.648
46712W        W13253  12.734  20.570   1.382
46713W        W13254  12.872  41.526  12.264
46714W        W13255   5.150   1.437   9.839
46715W        W13256  10.418  24.482  12.571
46716W        W13257  26.510   5.249   1.493
46717W        W13258  28.955  18.703  13.414
46718W        W13259  37.311  40.371  13.605
46719W        W13260  11.379  41.699  12.995
46720W        W13261  32.777  26.924  13.992
46721W        W13262  28.698  10.128  10.714
46722W        W13263  37.477  11.800   2.572
46723W        W13264  12.871   1.340  13.418
46724W        W13265  37.281  11.187   3.818
46725W        W13266  43.553  23.573  12.308
46726W        W13267  15.221   7.819   4.201
46727W        W13268  30.674  38.937   4.077
46728W        W13269  21.003  19.697   0.831
46729W        W13270  10.693  30.422   0.743
46730W        W13271  18.096   4.366  14.747
46731W        W13272  30.507  30.712  14.027
46732W        W13273  27.198   4.887   2.778
46733W        W13274  21.085  22.088   2.671
46734W        W13275  40.215  37.811  11.728
46735W        W13276  13.611  17.802  13.800
46736W        W13277  29.282  30.564   4.562
46737W        W13278  12.820  22.702  11.524
46738W        W13279  39.065   3.664  10.408
46739W        W13280  17.870  39.552   1.870
46740W        W13281  36.869  42.920   4.727
46741W        W13282  44.492  31.325  13.442
46742W        W13283  23.738   3.313  14.016
46743W        W13284   1.853   1.884   4.961
46744W        W13285  31.388  36.884  11.242
46745W        W13286   0.006   2.363   4.201
46746W        W13287   5.114  31.119   2.336
46747W        W13288  36.385   9.219  11.806
46748W        W13289  44.550   3.477  12.917
46749W        W13290  44.028  41.534   3.309
46750W        W13291  10.774  26.463  14.460
46751W        W13292  44.247  12.352   4.182
46752W        W13293  20.237  14.128   2.296
46753W        W13294   6.447  30.964  14.486
46754W        W13295  30.513  27.445  13.580
46755W        W13296  19.271   4.848  11.143
46756W        W13297   1.825  24.601   0.909
46757W        W13298  42.476  27.484  11.605
46758W        W13299  20.569   2.092  11.589
46759W        W13300  18.145   2.817  13.799
46760W        W13301  40.503  23.669   0.914
46761W        W13302  18.015  38.853  12.047
46762W        W13303  42.158  23.448   3.354
46763W        W13304  15.258  42.811   1.186
46764W        W13305  41.769  19.299   0.676
46765W        W13306  20.105  18.804  13.070
46766W        W13307  29.869  13.225  14.963
46767W        W13308  22.065  35.475   4.727
46768W        W13309  37.274  36.763  13.879
46769W        W13310   8.389  28.042  12.396
46770W        W13311   4.030  36.182  12.018
46771W        W13312   2.264  35.802   1.752
46772W        W13313  36.980  30.085  11.229
46773W        W13314   5.667  41.592  10.199
46774W        W13315  12.127  30.263   3.562
46775W        W13316  17.903   1.470   0.912
46776W        W13317  19.756  42.319  14.091
46777W        W13318   1.148  21.562   4.709
46778W        W13319  16.378  12.713   3.717
46779W        W13320   7.662  30.848  13.913
46780W        W13321  32.379  41.537   2.064
46781W        W13322  44.606  38.006   0.819
46782W        W13323  24.099  21.622  11.567
46783W        W13324  13.653  33.392   1.983
46784W        W13325  43.645  33.885   3.748
46785W        W13326  33.011  36.017  11.933
46786W        W13327  42.547  27.869   4.749
46787W        W13328  35.145  17.644   4.797
46788W        W13329   3.400  23.542  10.811
46789W        W13330  18.662  36.364  14.002
46790W        W13331  37.456  21.802   3.079
46791W        W13332  26.593  42.448  14.976
46792W        W13333  44.955  44.536  12.433
46793W        W13334   5.870  25.036   0.838
46794W        W13335  16.158  40.676  11.035
46795W        W13336  23.754  20.143   2.450
46796W        W13337  25.729  35.512  13.938
46797W        W13338  25.614  40.951  10.800
46798W        W13339  40.400  35.153  12.962
46799W        W13340  34.186  10.692  14.050
46800W        W13341  33.497  14.256   1.858
46801W        W13342   3.469  13.710  13.037
46802W        W13343   9.099   6.224   4.237
46803W        W13344  32.123  17.013  13.495
46804W        W13345  42.555  42.939   2.293
46805W        W13346  38.007   7.940  14.824
46806W        W13347  17.776  22.749  12.942
46807W        W13348   3.372  13.474   0.414
46808W        W13349  43.242  11.648  12.420
46809W        W13350  19.050  20.566   3.746
46810W        W13351  28.919  32.639  11.864
46811W        W13352  33.449  28.540   4.460
46812W        W13353  37.058   3.007   5.043
46813W        W13354   7.307  18.852  11.694
46814W        W13355  40.591  14.770  11.928
46815W        W13356  34.014  18.049  12.047
46816W        W13357  16.077  10.838  11.195
46817W        W13358  43.526   0.829  12.116
46818W        W13359  15.112   0.731   2.960
46819W        W13360   9.409   9.992  13.036
46820W        W13361  14.231  38.536  13.444
46821W        W13362  10.326  41.203  11.106
46822W        W13363  35.297  15.131   0.509
46823W        W13364  25.578  33.486   4.194
46824W        W13365  33.538  16.192   1.690
46825W        W13366   8.515  43.915  12.913
46826W        W13367  42.576   4.170   0.766
46827W        W13368  29.036  10.396   4.279
46828W        W13369   6.298  38.344   2.207
46829W        W13370  39.499  27.572  14.894
46830W        W13371  34.726  25.511  12.667
46831W        W13372   1.347  16.358   2.375
46832W        W13373  39.978  23.917  14.165
46833W        W13374   9.850  43.843  12.394
46834W        W13375  31.369  30.070  11.202
46835W        W13376  26.149  43.723  14.288
46836W        W13377  11.225  11.435  11.875
46837W        W13378   6.087  22.116  13.435
46838W        W13379  16.615  40.164   4.232
46839W        W13380  27.151  13.296  14.549
46840W        W13381  14.828   8.153   0.569
46841W        W13382  13.128  21.692   4.011
46842W        W13383  37.477  24.324   4.937
46843W        W13384   4.286  30.901  13.840
46844W        W13385  21.545   3.681   0.433
46845W        W13386  30.966  14.717   0.181
46846W        W13387  13.703  28.972   0.038
46847W        W13388  22.037  16.714  13.850
46848W        W13389  14.820   4.923  10.249
46849W        W13390  36.837   1.571   3.216
46850W        W13391  43.318  41.242   0.916
46851W        W13392  38.446  31.192   2.683
46852W        W13393  22.001  37.630  13.125
46853W        W13394  43.488  18.746  10.695
46854W        W13395  10.849   4.713  11.460
46855W        W13396  33.353  43.311  14.017
46856W        W13397  29.912   9.183  13.527
46857W        W13398   5.360  17.348   2.318
46858W        W13399   7.153   5.110   3.172
46859W        W13400  20.409  31.851   0.882
46860W        W13401   9.169  21.214   1.505
46861W        W13402  38.931  10.143   3.566
46862W        W13403  44.783  41.934  13.993
46863W        W13404  42.516  12.378   1.207
46864W        W13405  16.805  38.938  12.412
46865W        W13406   3.195  43.744   0.881
46866W        W13407  23.547   6.398  14.789
46867W        W13408  15.242  42.900  11.938
46868W        W13409  37.479  29.499   3.730
46869W        W13410  14.790   8.477   4.139
46870W        W13411  37.398  44.395  10.895
46871W        W13412  32.947  21.071  10.570
46872W        W13413  13.135  18.203  11.994
46873W        W13414  11.277  39.523   1.731
46874W        W13415  14.665  11.580   3.224
46875W        W13416   3.667  21.970   2.849
46876W        W13417  44.723  33.905  13.577
46877W        W13418   7.139  24.259  14.774
46878W        W13419  39.203  27.675  13.782
46879W        W13420   9.630  32.077   4.147
46880W        W13421  42.360  21.668   0.324
46881W        W13422  11.811  37.943  14.499
46882W        W13423  35.017  29.356  10.945
46883W        W13424  37.294  11.120  14.821
46884W        W13425   6.676  11.766   2.223
46885W        W13426  32.684  33.450  12.937
46886W        W13427  22.041  10.058   3.585
46887W        W13428  40.535  22.364   1.301
46888W        W13429  26.500  18.729   1.354
46889W        W13430  30.121   3.752  10.662
46890W        W13431  11.062  22.937   0.914
46891W        W13432  10.789  26.977   2.701
46892W        W13433   4.242  22.210   4.182
46893W        W13434  25.348  42.950   3.612
46894W        W13435  11.476  41.237  11.963
46895W        W13436   7.220  23.114  11.595
46896W        W13437  37.727  22.317   2.161
46897W        W13438  13.251  22.997  11.611
46898W        W13439  42.743  18.316  11.706
46899W        W13440  36.121  38.356  12.330
46900W        W13441   7.825  36.104  12.350
46901W        W13442  29.662  33.394  13.740
46902W        W13443   8.636   5.643   3.143
46903W        W13444  19.751  40.049  13.108
46904W        W13445   9.258  24.848  13.649
46905W        W13446  12.810   6.697   4.601
46906W        W13447  36.120  21.559  13.390
46907W        W13448   7.290   3.772  14.175
46908W        W13449  37.278  28.868   1.344
46909W        W13450  33.414  36.881   3.662
46910W        W13451  12.011  25.703   1.098
46911W        W13452  30.080  42.448  12.960
46912W        W13453  38.588   6.192  14.834
46913W        W13454  37.193  37.103  12.555
46914W        W13455   1.969   9.243  13.817
46915W        W13456  34.914  20.143   1.972
46916W        W13457  42.662   6.719  14.182
46917W        W13458   3.321  29.118   3.635
46918W        W13459  10.793   4.357  11.074
46919W        W13460  35.419  26.500   5.341
46920W        W13461  31.231   7.429   1.944
46921W        W13462  44.800  30.613   0.185
46922W        W13463   0.775  41.564  11.214
46923W        W13464  37.306  15.671  12.405
46924W        W13465  13.264  11.874   0.707
46925W        W13466  42.977  37.639   3.332
46926W        W13467  42.475   2.262  13.795
46927W        W13468  11.936   4.246  13.101
46928W        W13469  38.561   1.400  13.587
46929W        W13470   6.409   2.843   0.364
46930W        W13471  27.609   9.274   4.258
46931W        W13472  19.574  23.535  13.278
46932W        W13473  35.025   1.586   2.880
46933W        W13474  24.191  19.162   3.638
46934W        W13475  43.967  40.509  13.705
46935W        W13476  27.484  32.370  12.938
46936W        W13477   3.004   3.191   0.715
46937W        W13478  34.380  25.573   1.482
46938W        W13479   5.224   6.651   4.079
46939W        W13480   3.747  12.268  11.914
46940W        W13481  40.313  30.716  13.350
46941W        W13482  27.569   5.664  14.996
46942W        W13483  39.253  14.921   0.754
46943W        W13484  42.599  14.910   1.314
46944W        W13485  34.285  34.607   0.486
46945W        W13486   0.723  35.457  12.995
46946W        W13487  44.183  36.485   3.799
46947W        W13488  29.495  14.033  14.281
46948W        W13489  34.516   4.745  10.489
46949W        W13490  37.446  42.618   3.353
46950W        W13491   6.531  33.979  11.261
46951W        W13492  41.362   4.233   0.956
46952W        W13493  13.130  27.574   5.217
46953W        W13494  26.733  44.492  13.179
46954W        W13495  16.394   9.272   2.830
46955W        W13496  14.630  16.892   1.935
46956W        W13497  34.899  19.265   3.087
46957W        W13498  29.517  26.147   1.703
46958W        W13499  37.112  43.993   2.371
46959W        W13500  14.838  40.700  14.066
46960W        W13501  13.372   4.563   3.647
46961W        W13502   8.978  22.348  12.767
46962W        W13503  39.317  25.720   3.552
46963W        W13504   2.431  19.297  14.489
46964W        W13505  19.143  38.882  14.858
46965W        W13506   7.088   3.373  13.899
46966W        W13507  42.824  40.313   3.685
46967W        W13508  13.207  38.006   4.219
46968W        W13509   7.501  22.172   4.884
46969W        W13510  13.902   7.871   0.929
46970W        W13511  15.632  15.493  13.955
46971W        W13512   2.199  25.543  12.119
46972W        W13513  15.066   5.876  12.591
46973W        W13514   1.791  39.989  13.218
46974W        W13515  26.328  27.411  10.940
46975W        W13516  22.401  44.439   4.104
46976W        W13517  33.998  19.528  14.436
46977W        W13518   3.305  26.796   2.607
46978W        W13519  35.910  42.340   3.275
46979W        W13520   6.720  35.400  12.972
46980W        W13521  31.040   0.715  10.735
46981W        W13522  10.148   9.269   3.689
46982W        W13523  12.211   6.735  12.352
46983W        W13524  21.819  36.852   2.819
46984W        W13525   5.078   6.250   1.393
46985W        W13526   4.799  31.708   0.684
46986W        W13527  39.236  11.960  12.055
46987W        W13528  22.628  43.980   0.989
46988W        W13529  35.732  16.357   0.934
46989W        W13530  24.997  39.684   1.482
46990W        W13531  36.297  17.048  11.842
46991W        W13532   8.770  19.622   4.281
46992W        W13533  15.817  13.539   1.919
46993W        W13534  10.282  43.251   1.964
46994W        W13535  36.869  28.561   1.271
46995W        W13536   5.579  11.435   0.526
46996W        W13537  14.160  34.061   4.307
46997W        W13538   2.789  27.337  12.066
46998W        W13539  20.648  23.272   1.965
46999W        W13540  39.212   0.224   0.454
47000W        W13541  11.272  35.663   2.328
47001W        W13542  40.860  11.343   0.713
47002W        W13543   0.360  11.822  14.833
47003W        W13544   7.056  37.333   0.579
47004W        W13545  36.397  16.958  13.161
47005W        W13546   6.930  11.220   3.774
47006W        W13547  39.969  33.179  14.467
47007W        W13548  22.790  24.721  12.841
47008W        W13549  24.053  29.894   2.264
47009W        W13550  42.125   3.014   3.919
47010W        W13551   8.618  23.534  10.255
47011W        W13552  17.776  31.601   1.621
47012W        W13553   6.512   1.259   1.260
47013W        W13554  42.844  18.661   4.224
47014W        W13555  21.918   2.336   3.834
47015W        W13556  44.687  22.810  10.721
47016W        W13557  38.917  12.551  14.438
47017W        W13558  27.484  32.050  10.287
47018W        W13559  28.638   6.274  12.352
47019W        W13560  42.696   8.643   1.509
47020W        W13561  39.894   3.523  12.202
47021W        W13562  27.482  13.414  13.972
47022W        W13563  38.138  42.480   0.158
47023W        W13564  12.781   7.717   1.930
47024W        W13565  18.323  17.026   3.543
47025W        W13566  39.771  15.504   4.087
47026W        W13567  41.742   0.172   0.260
47027W        W13568  20.078  28.952  13.021
47028W        W13569   4.958  18.293  10.860
47029W        W13570  40.965  21.097   2.687
47030W        W13571   5.248  44.335   4.317
47031W        W13572  43.818   0.958  14.386
47032W        W13573   0.268  20.626   2.936
47033W        W13574  36.379  16.266  11.429
47034W        W13575  40.416  25.259  11.212
47035W        W13576  18.986   6.956   3.229
47036W        W13577  43.755  18.382  14.958
47037W        W13578  32.982  12.686   3.212
47038W        W13579   4.805  36.587  13.852
47039W        W13580  15.574  31.043   0.941
47040W        W13581  28.516   1.232  14.512
47041W        W13582  29.993  21.537   1.141
47042W        W13583  43.443  37.825   0.872
47043W        W13584   6.593  17.225   4.529
47044W        W13585  17.631  33.611   2.596
47045W        W13586   2.952   0.854  10.694
47046W        W13587   4.185  12.925   4.807
47047W        W13588  18.259  15.989   1.329
47048W        W13589  13.327  10.652   2.696
47049W        W13590   9.179  18.845  14.789
47050W        W13591  33.795  42.928   3.628
47051W        W13592  12.650  39.853  10.733
47052W        W13593  33.024  12.251  14.286
47053W        W13594  27.382  35.520  13.026
47054W        W13595  31.173   5.830   4.881
47055W        W13596  18.966  33.059   4.244
47056W        W13597   4.424  32.475   0.310
47057W        W13598  35.117  14.711  11.187
47058W        W13599  42.328  43.466  13.371
47059W        W13600  30.926  29.436  14.828
47060W        W13601  39.010  34.202  14.505
47061W        W13602   2.380   5.414  10.616
47062W        W13603  44.353  43.694  12.925
47063W        W13604  39.110  11.675   4.880
47064W        W13605  25.338  25.488   1.293
47065W        W13606  32.177   8.381  11.340
47066W        W13607   3.409   2.309   1.149
47067W        W13608  18.660   7.724   4.073
47068W        W13609  30.469   1.193  14.048
47069W        W13610  13.615  17.758   1.802
47070W        W13611  13.679  28.159   4.509
47071W        W13612   4.203  37.576   3.323
47072W        W13613  17.008  41.410   1.484
47073W        W13614  36.849   3.387  12.587
47074W        W13615  36.922  37.069   3.800
47075W        W13616  12.329  32.633  11.566
47076W        W13617  21.939  34.571   1.830
47077W        W13618  33.754   1.696   1.629
47078W        W13619  32.197  32.541  12.887
47079W        W13620  15.159  13.305   0.510
47080W        W13621   3.441  32.382   2.185
47081W        W13622  33.484  18.031  14.940
47082W        W13623  34.057  17.324  10.753
47083W        W13624  12.244   6.218   0.027
47084W        W13625  20.127  12.879  11.315
47085W        W13626  20.531  17.406  10.180
47086W        W13627  11.043  42.246   2.260
47087W        W13628  24.954  30.872   0.269
47088W        W13629  43.242  32.815  13.644
47089W        W13630  11.740  39.557   0.326
47090W        W13631  11.397   2.928   3.723
47091W        W13632  13.330  35.652   0.594
47092W        W13633  23.491   7.449  14.886
47093W        W13634  12.567  35.401   1.362
47094W        W13635  23.496  31.029  12.383
47095W        W13636   0.212  40.824   3.148
47096W        W13637   8.829   3.926   2.167
47097W        W13638  22.535   7.597   3.818
47098W        W13639  40.385  27.474  14.725
47099W        W13640  11.243   0.371   4.162
47100W        W13641   5.920  23.122   2.681
47101W        W13642  27.687   9.388  13.298
47102W        W13643  23.617   7.325  13.447
47103W        W13644  13.443   9.597  11.555
47104W        W13645  23.014  14.308  12.550
47105W        W13646  22.622   1.207   2.838
47106W        W13647  14.856  29.994   2.349
47107W        W13648  44.196  13.215  12.007
47108W        W13649   6.379  31.401   4.349
47109W        W13650   3.891  11.016   0.425
47110W        W13651  27.517  37.860  12.370
47111W        W13652  19.531  43.956  10.665
47112W        W13653  40.855  41.967  11.278
47113W        W13654  28.380  37.050  10.407
47114W        W13655  32.261  18.157   3.250
47115W        W13656  23.044  35.698  11.752
47116W        W13657  26.651  21.176   5.070
47117W        W13658  34.649  24.702  11.603
47118W        W13659  34.328   6.176   3.388
47119W        W13660  40.299  32.256   0.464
47120W        W13661  25.423  41.612  12.848
47121W        W13662   1.794   9.931   2.158
47122W        W13663   5.040  18.411  14.939
47123W        W13664  27.553  30.500   3.173
47124W        W13665   3.511  28.031   3.120
47125W        W13666  28.558  15.460   5.125
47126W        W13667  10.606  41.504  13.333
47127W        W13668  27.973  16.642   1.105
47128W        W13669  36.374  37.106   4.169
47129W        W13670   8.455  38.712  13.790
47130W        W13671  36.600  14.515   4.908
47131W        W13672  15.201  25.131   0.656
47132W        W13673  12.366  42.125  13.391
47133W        W13674  15.175  23.604  13.134
47134W        W13675  27.110  37.414  13.010
47135W        W13676  11.137   7.351   3.304
47136W        W13677  44.442  34.273  13.046
47137W        W13678  34.974  30.545  11.942
47138W        W13679  13.285   9.661   3.293
47139W        W13680  29.625  13.041  14.557
47140W        W13681   7.420  37.518  14.773
47141W        W13682  14.719  33.652   4.865
47142W        W13683  29.661  41.071  14.412
47143W        W13684  42.949  29.936   2.888
47144W        W13685  42.269  23.149   1.661
47145W        W13686   2.845  18.637  10.480
47146W        W13687  29.760  28.556  14.331
47147W        W13688  36.744   6.246  11.018
47148W        W13689  31.661  26.063  11.570
47149W        W13690  41.616  29.600  11.868
47150W        W13691  33.971  31.584   1.347
47151W        W13692  18.481  30.625   3.175
47152W        W13693  39.379  10.833   4.448
47153W        W13694  21.496  19.021   4.246
47154W        W13695   6.662  20.246   3.616
47155W        W13696   1.367  44.821  10.865
47156W        W13697  18.765  28.141   3.287
47157W        W13698  18.132   1.501   4.797
47158W        W13699   0.458  14.802  10.768
47159W        W13700  21.633  37.115   2.390
47160W        W13701  29.022  28.427   4.149
47161W        W13702  23.667  11.335   3.245
47162W        W13703  24.507  39.276   0.205
47163W        W13704   1.488   9.425   2.291
47164W        W13705  41.939   7.689  12.919
47165W        W13706  12.127  17.217   2.370
47166W        W13707  34.648  39.008  12.041
47167W        W13708  31.563   9.356   1.370
47168W        W13709   6.859  26.224   4.870
47169W        W13710  15.136  16.029   2.724
47170W        W13711  20.851  33.484  12.013
47171W        W13712  27.721  31.989   3.184
47172W        W13713  43.261  11.398   0.299
47173W        W13714  42.732  32.166  13.009
47174W        W13715  25.107  30.429   1.124
47175W        W13716  16.527  25.005   1.303
47176W        W13717  17.023  20.640   0.635
47177W        W13718  13.018  33.018  11.090
47178W        W13719  29.675  16.971  11.568
47179W        W13720   2.640   1.354  12.101
47180W        W13721  42.452  30.129   0.734
47181W        W13722  38.980  19.394  11.399
47182W        W13723  41.080   1.485   3.668
47183W        W13724  36.410  18.389   0.300
47184W        W13725  42.825  41.585   2.822
47185W        W13726  18.284  24.167   2.583
47186W        W13727  44.813  23.007   0.262
47187W        W13728  20.757  33.513  14.772
47188W        W13729  37.882   1.740   1.044
47189W        W13730  29.092  18.518   4.902
47190W        W13731  34.042   2.213   0.811
47191W        W13732   1.362  13.719  11.215
47192W        W13733   2.987  24.078   0.705
47193W        W13734  35.332  32.735  14.467
47194W        W13735  24.448  35.327  12.489
47195W        W13736  41.025  21.959   2.929
47196W        W13737  21.781  11.412  10.621
47197W        W13738  42.260  31.542  14.076
47198W        W13739  35.311  41.382   2.230
47199W        W13740  43.242  39.529   4.824
47200W        W13741  19.132  31.937  10.872
47201W        W13742   4.716  11.697   3.139
47202W        W13743  25.230  10.853  12.644
47203W        W13744  33.504  31.419   3.362
47204W        W13745   8.202  14.801  14.841
47205W        W13746   9.781   0.294   2.461
47206W        W13747  17.370  24.104   2.466
47207W        W13748  11.445  32.007  13.838
47208W        W13749  15.289  30.120   0.253
47209W        W13750   4.970  23.719   0.279
47210W        W13751  41.025  38.613  13.426
47211W        W13752  17.371  43.054   2.697
47212W        W13753  22.765  11.594  14.654
47213W        W13754  25.550  18.323   1.291
47214W        W13755  15.993  40.006   3.549
47215W        W13756  11.419   5.943  13.100
47216W        W13757  29.262   6.187  10.291
47217W        W13758  22.119  34.915  14.195
47218W        W13759   3.167  15.737   4.583
47219W        W13760  23.814  41.994   3.072
47220W        W13761  10.638   2.004  10.891
47221W        W13762  39.520  11.666   1.221
47222W        W13763   2.279  24.777  11.590
47223W        W13764   8.961  40.457   1.192
47224W        W13765  44.483  12.842  13.577
47225W        W13766  11.597   4.481   3.184
47226W        W13767   7.197  32.303  14.832
47227W        W13768  31.209  29.979  13.939
47228W        W13769  32.597  31.085  12.160
47229W        W13770   2.340  18.106   2.956
47230W        W13771   4.333  43.960   0.788
47231W        W13772  35.576   2.915   1.769
47232W        W13773  23.759  36.393   0.388
47233W        W13774  36.357   1.510  14.265
47234W        W13775  40.796  17.647   1.790
47235W        W13776  44.904  30.621   2.220
47236W        W13777   5.263  22.963  11.643
47237W        W13778   8.349  44.909   2.294
47238W        W13779  36.147   0.892  10.659
47239W        W13780  20.371  29.350  12.843
47240W        W13781  25.057  20.479  13.500
47241W        W13782  32.228  22.777  11.605
47242W        W13783  31.655  13.262   1.221
47243W        W13784  27.247  28.104  14.501
47244W        W13785  16.134   3.615   0.346
47245W        W13786   7.146  18.098   4.191
47246W        W13787  29.968  17.729   0.564
47247W        W13788   2.374   0.444   4.681
47248W        W13789  31.852  23.772  11.208
47249W        W13790   0.982   0.999  14.216
47250W        W13791  30.441  11.416   0.679
47251W        W13792  44.921   0.951  11.520
47252W        W13793   6.681   6.790   1.737
47253W        W13794   9.839   4.059   3.250
47254W        W13795  19.558   3.330  13.315
47255W        W13796  21.086  32.787   4.252
47256W        W13797  43.360   8.417  12.953
47257W        W13798   1.432  40.814  14.499
47258W        W13799  14.670  19.734  11.056
47259W        W13800  44.955  30.333  14.777
47260W        W13801  37.355  13.778   2.874
47261W        W13802  11.644  17.056  11.855
47262W        W13803  11.016   7.842   3.157
47263W        W13804   1.185  23.473  14.755
47264W        W13805  24.859  42.400  13.775
47265W        W13806  33.548  35.584  11.145
47266W        W13807  42.841  13.216  12.407
47267W        W13808  33.884  28.024  14.889
47268W        W13809  26.461  13.173   4.814
47269W        W13810  43.172  16.392   4.619
47270W        W13811  36.278  40.051   3.697
47271W        W13812  14.311  24.398   0.928
47272W        W13813  28.723  15.701  14.298
47273W        W13814  22.167  36.443   4.435
47274W        W13815  37.535  13.807   1.749
47275W        W13816   4.879   9.711  13.483
47276W        W13817   4.798  12.827   4.024
47277W        W13818  29.428  17.328  11.940
47278W        W13819  24.902  24.567   1.771
47279W        W13820   4.333  24.745  11.103
47280W        W13821  42.537  38.660  11.985
47281W        W13822  15.549  35.729  10.280
47282W        W13823  22.141  29.684  11.369
47283W        W13824  40.089  17.038   3.196
47284W        W13825   3.671   1.285   4.071
47285W        W13826  31.121   8.920   3.792
47286W        W13827   4.884  40.233  10.833
47287W        W13828  31.501   8.149   0.457
47288W        W13829  21.726   9.585  12.584
47289W        W13830  27.021  42.526  12.914
47290W        W13831  20.968  12.341   1.294
47291W        W13832   1.996  36.027  12.500
47292W        W13833  19.252  17.599  14.033
47293W        W13834  24.546  20.572   0.730
47294W        W13835   4.869  31.681   1.204
47295W        W13836  20.598  17.783   0.500
47296W        W13837  42.514   7.231  10.591
47297W        W13838   6.605  34.952  13.242
47298W        W13839   9.177  13.233   2.987
47299W        W13840  36.877  25.808  12.919
47300W        W13841  11.078  12.944   4.576
47301W        W13842  33.732  37.972   4.604
47302W        W13843   7.664  27.698  10.769
47303W        W13844   3.486   9.233   0.161
47304W        W13845  26.461  38.557  13.072
47305W        W13846  16.685  22.141   2.100
47306W        W13847  15.592  30.378  12.634
47307W        W13848  27.469  37.020  11.622
47308W        W13849  11.866  24.216  14.109
47309W        W13850  34.414   3.502  11.887
47310W        W13851  28.227   9.171   1.421
47311W        W13852  38.424  35.676  13.411
47312W        W13853  39.071   2.043  13.899
47313W        W13854  12.728   1.615  12.910
47314W        W13855  13.727  32.919   3.243
47315W        W13856  33.248  29.939   3.904
47316W        W13857  30.670  19.314  14.014
47317W        W13858  22.055  26.693   1.673
47318W        W13859  39.840  20.343   3.603
47319W        W13860  40.820  36.382   2.768
47320W        W13861   0.394  14.168  12.576
47321W        W13862  38.888  13.063  14.511
47322W        W13863  33.418  16.482  12.554
47323W        W13864  28.702  29.503  11.979
47324W        W13865  30.851  44.165   3.135
47325W        W13866  36.047  28.371   0.720
47326W        W13867  42.599  34.528  12.427
47327W        W13868  32.344  18.216  12.770
47328W        W13869  30.969  19.767   1.991
47329W        W13870  25.435  15.729   0.862
47330W        W13871  40.894  24.223  12.904
47331W        W13872  14.131  28.350  10.280
47332W        W13873   3.169  13.425  11.731
47333W        W13874  17.855  10.151   3.602
47334W        W13875  21.789  29.195   3.160
47335W        W13876  24.799  22.374   0.712
47336W        W13877   1.272   3.144   2.698
47337W        W13878  10.710  44.159   4.415
47338W        W13879  12.056  23.278  14.897
47339W        W13880  10.167  29.492  10.216
47340W        W13881  14.877  43.842   0.341
47341W        W13882  41.548   6.881   1.292
47342W        W13883  32.671  31.983  14.537
47343W        W13884  42.863   6.703  11.088
47344W        W13885  27.640  23.232   0.012
47345W        W13886  44.053  16.077   0.858
47346W        W13887  10.704  43.054  13.585
47347W        W13888   7.701   6.036   2.035
47348W        W13889  39.523  33.487  13.581
47349W        W13890  35.433   1.876   3.023
47350W        W13891   6.908  10.659  11.249
47351W        W13892  29.158  38.337   3.333
47352W        W13893  25.404   8.150   3.287
47353W        W13894   7.251  36.298   0.730
47354W        W13895  12.209  26.641   1.713
47355W        W13896  43.101  39.541   4.188
47356W        W13897  10.098  40.067   1.401
47357W        W13898  13.306  10.679   4.172
47358W        W13899  28.664  39.220   1.832
47359W        W13900   4.947   2.320  13.065
47360W        W13901  40.229  22.608  10.503
47361W        W13902  38.722  22.614   2.307
47362W        W13903   7.263  39.110  12.970
47363W        W13904  37.659  14.277   2.570
47364W        W13905  29.715  33.575  12.434
47365W        W13906  26.812  36.104  13.405
47366W        W13907  17.018  39.325  14.287
47367W        W13908  38.745  16.944  12.594
47368W        W13909  12.763  44.962  12.028
47369W        W13910  34.785  11.655   1.898
47370W        W13911  38.815  26.111  11.064
47371W        W13912  21.797  34.477  12.206
47372W        W13913  30.038   0.760  12.161
47373W        W13914  34.127  20.125   3.717
47374W        W13915  12.131   1.451  10.493
47375W        W13916  38.330  19.730  13.969
47376W        W13917   4.295   5.899  13.541
47377W        W13918  25.637  23.509  12.896
47378W        W13919  21.791  37.338  11.148
47379W        W13920  21.661  44.179  13.165
47380W        W13921   4.712  39.394  12.354
47381W        W13922  22.626  40.894  12.150
47382W        W13923  14.162  37.551  13.207
47383W        W13924  16.048  29.690  11.109
47384W        W13925  35.329   8.435   4.118
47385W        W13926  24.454   9.185  10.719
47386W        W13927  42.382  39.351  11.627
47387W        W13928  36.019  11.426   0.006
47388W        W13929  44.753  24.591  11.077
47389W        W13930  33.692  26.758   4.526
47390W        W13931  38.802  33.999  12.461
47391W        W13932  17.676  18.584   1.761
47392W        W13933  38.608   3.379  10.224
47393W        W13934  26.535  43.462  14.546
47394W        W13935   1.480  17.010   2.801
47395W        W13936  17.805  24.727  11.146
47396W        W13937  44.041  24.449   0.993
47397W        W13938  10.811  28.851  10.725
47398W        W13939  41.087  17.937   3.649
47399W        W13940  29.668  38.304  12.468
47400W        W13941  35.115  32.934  13.475
47401W        W13942  29.535  31.625   1.029
47402W        W13943  37.757  41.929   1.989
47403W        W13944  37.289  24.558  12.507
47404W        W13945   5.750  29.612   3.856
47405W        W13946  37.606  13.639  13.674
47406W        W13947  35.562  27.474   0.548
47407W        W13948  21.189  30.902  10.626
47408W        W13949  29.248   0.366   0.787
47409W        W13950  21.492  15.887  13.911
47410W        W13951  37.457   6.660  12.198
47411W        W13952  43.550  42.897   2.215
47412W        W13953  30.727   0.772   3.171
47413W        W13954  34.288  28.285   1.335
47414W        W13955   1.340  15.430  10.594
47415W        W13956   1.453  44.815  13.416
47416W        W13957  37.976   7.654  13.439
47417W        W13958   0.818  42.119  11.174
47418W        W13959  30.137  22.182   2.740
47419W        W13960  13.529  31.751  11.192
47420W        W13961  18.356   9.254   2.864
47421W        W13962  40.652  20.814  11.041
47422W        W13963  42.035  34.585  14.458
47423W        W13964   6.013   9.208   0.189
47424W        W13965  40.558  16.273   3.427
47425W        W13966  41.779   8.879   1.446
47426W        W13967  21.779  25.203  11.681
47427W        W13968  41.507  18.004   0.750
47428W        W13969  22.031  43.515   2.579
47429W        W13970  34.066  14.683  10.298
47430W        W13971  24.137  28.988   3.713
47431W        W13972  15.108   6.147   2.580
47432W        W13973   4.800  12.268  13.187
47433W        W13974  17.563  44.964  11.178
47434W        W13975   3.900  44.509   2.676
47435W        W13976   9.705   5.259  13.228
47436W        W13977  28.472  16.838  13.537
47437W        W13978  17.310  14.533  12.426
47438W        W13979  35.921  23.710  12.640
47439W        W13980  41.511   2.996  11.188
47440W        W13981  44.225  22.218   4.167
47441W        W13982  12.528  38.936   0.427
47442W        W13983  12.072  21.234   1.268
47443W        W13984  26.498   7.124  12.840
47444W        W13985  24.234  38.482  13.445
47445W        W13986  32.573  12.578  11.661
47446W        W13987  23.538   4.244   4.851
47447W        W13988  14.143   9.604  14.529
47448W        W13989  43.383  29.138   0.940
47449W        W13990  36.902  32.531   2.131
47450W        W13991  20.519  27.440  10.769
47451W        W13992  30.230  42.930  12.016
47452W        W13993  12.310   3.831   1.710
47453W        W13994  29.644  33.887   1.225
47454W        W13995  15.508  44.028  11.210
47455W        W13996  43.473  16.508   1.375
47456W        W13997  35.491  33.389   0.378
47457W        W13998  24.479  44.354  14.101
47458W        W13999   0.145  20.457  14.137
47459W        W14000  18.257  31.601  14.347
47460W        W14001   8.110   9.665  12.065
47461W        W14002   8.420  39.327  13.042
47462W        W14003  29.694   5.884   4.066
47463W        W14004   6.636   4.751   1.389
47464W        W14005  29.157  39.336  12.562
47465W        W14006  33.589  22.249   3.178
47466W        W14007  43.807  40.812   0.022
47467W        W14008   1.231  20.619  13.167
47468W        W14009  13.259  21.020   1.795
47469W        W14010   4.779  21.580  10.407
47470W        W14011  14.811  25.425   2.824
47471W        W14012  12.698  36.324   3.630
47472W        W14013   8.770   1.243   0.994
47473W        W14014  11.812  44.048  11.531
47474W        W14015  40.709  40.642  11.803
47475W        W14016   3.730  19.858  14.237
47476W        W14017  14.045  21.369   0.354
47477W        W14018  11.203   4.225  12.679
47478W        W14019  38.843  34.527   4.536
47479W        W14020  29.555  23.719   0.472
47480W        W14021  16.674  41.091   0.310
47481W        W14022   3.251   0.935  10.298
47482W        W14023  11.283  32.547   2.225
47483W        W14024   0.352   0.720  14.296
47484W        W14025  15.078   6.401  13.746
47485W        W14026  40.332  34.520  10.728
47486W        W14027  26.670  40.416  12.639
47487W        W14028  43.194  19.196  12.091
47488W        W14029  43.943  13.611   3.508
47489W        W14030   6.290  13.560  14.191
47490W        W14031  38.769  40.479   3.370
47491W        W14032  13.121  40.099   4.049
47492W        W14033  31.606   2.220  14.948
47493W        W14034  33.458   1.421   4.628
47494W        W14035  34.833   5.684   2.627
47495W        W14036  39.935  13.842   3.556
47496W        W14037  19.109  43.656   2.860
47497W        W14038   6.194  28.105  12.940
47498W        W14039   3.351  31.541   2.566
47499W        W14040  19.148  39.728   3.641
47500W        W14041  23.528  11.638  12.118
47501W        W14042   1.989   6.395   4.217
47502W        W14043  37.806   8.778  11.035
47503W        W14044   3.135  22.417  11.980
47504W        W14045  35.952  34.902   2.863
47505W        W14046  39.277  33.976  13.634
47506W        W14047  39.283  30.936   1.935
47507W        W14048  42.732   5.664   0.193
47508W        W14049  26.326  32.651   1.444
47509W        W14050  41.188  40.433  11.936
47510W        W14051  29.002   8.186   3.719
47511W        W14052  13.302  27.141  14.326
47512W        W14053  38.246  23.738  13.745
47513W        W14054  15.553   5.719  11.663
47514W        W14055  36.272  18.288  14.023
47515W        W14056  29.597  29.925  10.688
47516W        W14057  38.327  16.382  13.473
47517W        W14058  22.567  20.221  12.752
47518W        W14059  10.284  25.275  13.005
47519W        W14060  23.696  44.636  11.995
47520W        W14061  25.655  29.192   1.443
47521W        W14062   3.661  37.426  10.654
47522W        W14063  17.542   7.361  12.525
47523W        W14064  26.942  21.245   3.169
47524W        W14065  11.919  31.193   4.143
47525W        W14066   9.304  13.115  10.858
47526W        W14067  28.732  32.017  12.429
47527W        W14068  35.805   6.451   4.860
47528W        W14069  41.823  44.203  13.941
47529W        W14070  13.111  44.112  14.319
47530W        W14071  21.800   0.210   4.429
47531W        W14072  25.955  36.891  10.743
47532W        W14073  25.788   3.745  12.111
47533W        W14074  13.236  24.495  12.085
47534W        W14075  24.445  10.140   4.692
47535W        W14076   6.878  22.768   1.360
47536W        W14077  29.920  28.434  12.734
47537W        W14078  16.595  24.757   1.766
47538W        W14079  31.636  25.126   2.868
47539W        W14080  24.059  31.199   0.482
47540W        W14081  30.017  35.907  12.474
47541W        W14082  43.384  18.786   3.630
47542W        W14083  44.471  39.839  11.635
47543W        W14084  14.148  34.647   1.813
47544W        W14085   2.301  43.922  12.309
47545W        W14086  20.548   7.081  11.591
47546W        W14087  18.708  15.753   2.861
47547W        W14088  25.708  35.869   3.111
47548W        W14089  13.875  22.242   0.512
47549W        W14090  12.636   8.800   1.281
47550W        W14091  10.698  39.582   2.385
47551W        W14092  21.655  43.999  11.502
47552W        W14093  20.885  43.843  12.119
47553W        W14094  35.223  37.089   5.059
47554W        W14095  36.551   8.717  11.856
47555W        W14096  43.966   0.183   1.905
47556W        W14097   9.108  32.798   2.715
47557W        W14098   8.235  16.949  12.483
47558W        W14099  39.767  24.653   1.424
47559W        W14100  33.161   7.362  10.935
47560W        W14101  13.930  15.658  12.037
47561W        W14102   9.969   0.965   0.479
47562W        W14103  37.192  43.462  12.089
47563W        W14104   0.872  36.992   4.625
47564W        W14105   3.424  39.548  13.988
47565W        W14106   3.627  38.594  13.123
47566W        W14107  33.143  23.058   0.247
47567W        W14108  26.209  39.006  10.919
47568W        W14109  11.715  40.858  13.350
47569W        W14110  28.291   3.592  10.192
47570W        W14111  40.308  39.268   0.960
47571W        W14112  13.889  20.118  12.086
47572W        W14113  10.167  44.047   3.212
47573W        W14114  42.848  19.608  14.204
47574W        W14115   1.463  15.097  11.585
47575W        W14116  16.525  20.690   3.658
47576W        W14117  32.997  44.320  12.592
47577W        W14118  28.584  42.686  13.078
47578W        W14119  12.033  11.334   2.444
47579W        W14120   7.281  24.662   1.181
47580W        W14121   1.383  41.527  10.743
47581W        W14122  28.524  29.080   1.921
47582W        W14123  40.851  15.872  12.660
47583W        W14124  26.917  13.814  13.287
47584W        W14125  33.669  43.822  10.694
47585W        W14126  14.772  20.668  10.599
47586W        W14127   7.864  39.725  12.541
47587W        W14128   1.339   9.849   3.370
47588W        W14129  19.053  30.666  10.933
47589W        W14130  26.003  24.990   1.414
47590W        W14131  18.327  41.420  11.753
47591W        W14132  13.305  43.491   1.222
47592W        W14133   2.032   3.168  14.823
47593W        W14134  17.141  38.579  12.914
47594W        W14135  14.281   4.368  11.663
47595W        W14136  15.725  35.873   2.522
47596W        W14137  33.573  41.624   3.101
47597W        W14138  42.341   9.720  13.837
47598W        W14139  29.207  36.371   1.345
47599W        W14140   1.052  40.049  14.821
47600W        W14141  15.595  27.588  11.565
47601W        W14142  23.714   2.810  13.890
47602W        W14143  32.985  35.480  11.753
47603W        W14144  35.204  20.369  13.136
47604W        W14145  38.449   0.637  11.506
47605W        W14146  33.115  44.794   0.797
47606W        W14147  14.203  10.748   2.386
47607W        W14148  27.719  30.702   1.648
47608W        W14149   1.435  29.633  10.286
47609W        W14150  37.503  44.554  13.966
47610W        W14151  44.234  18.353  13.578
47611W        W14152  17.424  13.097   4.568
47612W        W14153   6.231  39.415   1.513
47613W        W14154   7.179  39.321   0.256
47614W        W14155   3.358  28.517   0.321
47615W        W14156  33.095  19.656  14.384
47616W        W14157   3.170   3.803  11.272
47617W        W14158   1.855  39.054   0.676
47618W        W14159   6.914   7.291   3.264
47619W        W14160  39.739   7.848  14.017
47620W        W14161  11.626   2.543   1.870
47621W        W14162   2.919  42.015  14.124
47622W        W14163  44.202  19.077   2.679
47623W        W14164  31.705  17.580  12.866
47624W        W14165  15.190  14.506  11.987
47625W        W14166  19.619  36.574   2.856
47626W        W14167  33.869   4.805   2.207
47627W        W14168  43.445  36.215   3.673
47628W        W14169  37.547  35.583  11.867
47629W        W14170  12.543  20.214   4.064
47630W        W14171   8.474  22.500   4.100
47631W        W14172  15.044  13.568  13.399
47632W        W14173  35.387  33.775  11.523
47633W        W14174  10.717   9.189  13.447
47634W        W14175  41.633   8.871   4.384
47635W        W14176  19.652  12.694  13.807
47636W        W14177  44.915  31.593   1.820
47637W        W14178  37.393   5.447   3.604
47638W        W14179  35.704  21.531   4.232
47639W        W14180  13.706  40.803   1.180
47640W        W14181  44.871  16.356   0.331
47641W        W14182  13.308  28.553  11.886
47642W        W14183  16.702  31.028  11.995
47643W        W14184   2.496  29.599  12.471
47644W        W14185  21.889   3.889  13.415
47645W        W14186  10.290  35.413   4.598
47646W        W14187  32.141  15.918  11.217
47647W        W14188  31.425  17.272   1.977
47648W        W14189  34.335  31.625  13.461
47649W        W14190  35.056  16.881  12.588
47650W        W14191   9.778   5.088   2.738
47651W        W14192  28.624  25.043   4.682
47652W        W14193  29.421  39.518   2.673
47653W        W14194   5.064  38.109   4.722
47654W        W14195   7.415  29.100  11.614
47655W        W14196  34.423   3.822  14.804
47656W        W14197  26.961  14.808   0.831
47657W        W14198  41.759  22.010   0.390
47658W        W14199  39.723  15.945  13.494
47659W        W14200  19.768   2.372  14.322
47660W        W14201  19.642  40.838   3.298
47661W        W14202  16.329   0.802  10.161
47662W        W14203  41.327  26.683  10.555
47663W        W14204   2.232  10.627   4.230
47664W        W14205  32.468  12.306  11.124
47665W        W14206  37.047  36.624   3.598
47666W        W14207  24.480  24.611   4.526
47667W        W14208  22.673  36.851  11.718
47668W        W14209  24.727  44.784  10.848
47669W        W14210  20.068  15.873   1.487
47670W        W14211  19.155   3.891  10.338
47671W        W14212  36.382  16.489  14.068
47672W        W14213  30.035  43.368   3.872
47673W        W14214  42.416   8.981   4.672
47674W        W14215  35.593  17.986  13.322
47675W        W14216  25.726  39.415  12.180
47676W        W14217  40.372  13.248  11.708
47677W        W14218   5.287  28.617  11.982
47678W        W14219  24.407  30.434   1.874
47679W        W14220  14.811   1.333   1.844
47680W        W14221  32.815  12.182  12.453
47681W        W14222   6.902  34.085  11.628
47682W        W14223  24.963  31.374   0.053
47683W        W14224  15.335   7.905   4.709
47684W        W14225  43.291  17.584  11.409
47685W        W14226   1.899  20.958  11.664
47686W        W14227  12.582  33.244  10.881
47687W        W14228  44.237  40.965  14.318
47688W        W14229  12.324  40.878   0.410
47689W        W14230  10.306  13.753  11.669
47690W        W14231  19.710  14.753   2.581
47691W        W14232  43.950  13.147  10.156
47692W        W14233  20.495   9.330  13.790
47693W        W14234  33.087  10.467   4.948
47694W        W14235   3.240   4.458   1.904
47695W        W14236  26.681  23.225   3.522
47696W        W14237  42.062   3.012   1.796
47697W        W14238  17.704  42.710  14.768
47698W        W14239  15.103  30.532   1.243
47699W        W14240  44.597  32.650  11.164
47700W        W14241  26.667  15.997  14.424
47701W        W14242   5.916  20.997   0.699
47702W        W14243  34.896  14.325  11.968
47703W        W14244  30.182  16.223  13.842
47704W        W14245  11.626  19.561   4.740
47705W        W14246   1.444  29.520   0.880
47706W        W14247   9.844  29.646   1.467
47707W        W14248   7.731  33.875   2.374
47708W        W14249  13.724  20.292  12.526
47709W        W14250  39.992  40.507   0.917
47710W        W14251  26.226  21.757   0.767
47711W        W14252  34.802  25.462  13.965
47712W        W14253  11.298  28.670  11.132
47713W        W14254  36.285  35.593  12.198
47714W        W14255  19.178   7.211   9.813
47715W        W14256   5.415  21.560  13.539
47716W        W14257  38.309  26.109   2.780
47717W        W14258  19.270  29.932  12.182
47718W        W14259  36.580  28.142  12.326
47719W        W14260  25.720  41.231   1.361
47720W        W14261   2.797  23.974  13.902
47721W        W14262  28.470  44.439  13.416
47722W        W14263  30.035   3.528  10.210
47723W        W14264  32.071   6.435   2.862
47724W        W14265  33.623  23.046   2.825
47725W        W14266  21.001  30.918  13.973
47726W        W14267  10.438   0.730  12.041
47727W        W14268  15.744   9.851   0.439
47728W        W14269  27.681   6.729  13.666
47729W        W14270  13.735   5.205  14.389
47730W        W14271  41.005  19.257  14.102
47731W        W14272  33.096  43.321   2.403
47732W        W14273   6.285   9.598  14.388
47733W        W14274  28.117  31.622   1.792
47734W        W14275  15.265  12.663   2.729
47735W        W14276   9.304  37.970  12.409
47736W        W14277   1.722  13.256  13.029
47737W        W14278  31.478   8.606   4.625
47738W        W14279   9.144   3.117  13.454
47739W        W14280  17.903  13.426  10.234
47740W        W14281  19.136  22.786   2.833
47741W        W14282  15.379  33.128  13.388
47742W        W14283  27.024  10.209  10.560
47743W        W14284  40.003   3.798  10.971
47744W        W14285  44.833  33.341   3.221
47745W        W14286  12.115   9.398   0.952
47746W        W14287   0.768   3.278   3.417
47747W        W14288  30.137   3.285  14.566
47748W        W14289  13.709  21.756   0.406
47749W        W14290   0.397  12.103  11.356
47750W        W14291   4.853  27.916   1.060
47751W        W14292  26.644   1.852  13.317
47752W        W14293  41.956   1.748   0.337
47753W        W14294  18.627  39.220  14.518
47754W        W14295  16.182   1.276   4.607
47755W        W14296   6.802  20.020  10.537
47756W        W14297  38.695  11.303  11.491
47757W        W14298  38.945  40.465   2.483
47758W        W14299   6.492  25.795  10.412
47759W        W14300  20.880  19.621  11.524
47760W        W14301  37.397  13.852  11.905
47761W        W14302  40.393   9.835   1.189
47762W        W14303  12.777  27.435   0.464
47763W        W14304   8.452   5.794  11.596
47764W        W14305  30.382  41.116  10.570
47765W        W14306   3.268  13.064   1.349
47766W        W14307  23.971  30.369  11.392
47767W        W14308  21.523  18.118   2.140
47768W        W14309  22.737  20.197  12.248
47769W        W14310  32.505  18.387  13.597
47770W        W14311   1.434  10.494   0.798
47771W        W14312  29.824  28.883  13.193
47772W        W14313  10.832   6.688  14.458
47773W        W14314  25.387  15.613   1.752
47774W        W14315  43.287  40.360   3.327
47775W        W14316   7.771  44.402  14.352
47776W        W14317  18.269  37.811  14.873
47777W        W14318  36.601  28.910  11.654
47778W        W14319  34.400   7.024  12.304
47779W        W14320   0.765   2.531   0.321
47780W        W14321  10.695  40.357  11.032
47781W        W14322  27.941  42.863   1.923
47782W        W14323   0.201  33.371   1.899
47783W        W14324  25.227  33.436   2.102
47784W        W14325  15.695   9.321   0.826
47785W        W14326  23.508  40.101   0.905
47786W        W14327  10.969  10.070   3.118
47787W        W14328  18.795   4.519  12.683
47788W        W14329  25.581  32.546   3.673
47789W        W14330  38.455   1.973  11.083
47790W        W14331   4.730  42.888   4.650
47791W        W14332  10.622  28.944  14.372
47792W        W14333  33.944  25.415  13.182
47793W        W14334   2.285  10.425   0.730
47794W        W14335  18.715   2.535   1.417
47795W        W14336  30.753  18.683  11.824
47796W        W14337  40.420  16.650   3.062
47797W        W14338  16.094  32.913  11.740
47798W        W14339   4.994  37.923   0.838
47799W        W14340  13.844   7.404   0.620
47800W        W14341  33.583  31.072  10.167
47801W        W14342  28.366  28.611   0.331
47802W        W14343  28.405   0.274  13.838
47803W        W14344  20.322   2.684  12.349
47804W        W14345   6.239  16.799   2.955
47805W        W14346  41.623  28.909   0.706
47806W        W14347   1.937  30.504   3.179
47807W        W14348  21.921  41.763   4.105
47808W        W14349  12.169  30.677  12.903
47809W        W14350  25.486  31.959   3.456
47810W        W14351  19.918  32.209   3.351
47811W        W14352  17.217  25.505  13.890
47812W        W14353  19.315  42.412   0.876
47813W        W14354  16.559  34.995  14.722
47814W        W14355  44.731  33.388   4.418
47815W        W14356   6.230  36.115  11.097
47816W        W14357  13.852   3.834  12.820
47817W        W14358  42.944  33.881   3.760
47818W        W14359   6.087  42.327  12.388
47819W        W14360   8.151  41.055   0.886
47820W        W14361  35.960   0.661  12.363
47821W        W14362  44.844  21.192   0.782
47822W        W14363  23.951  10.346  13.863
47823W        W14364  38.962  31.588  12.195
47824W        W14365  15.881   3.285   3.276
47825W        W14366  21.018  41.975  11.597
47826W        W14367  15.237  16.039   2.166
47827W        W14368  23.461  28.907  10.644
47828W        W14369  26.983  40.454  14.032
47829W        W14370  24.670   7.759   1.650
47830W        W14371  31.457  20.741   4.919
47831W        W14372  13.672  42.770  13.865
47832W        W14373   5.268  31.345   1.897
47833W        W14374  41.040  27.002   3.227
47834W        W14375  24.116  41.312   2.637
47835W        W14376  14.428  43.757  12.112
47836W        W14377  32.861  12.764  14.183
47837W        W14378   8.416  42.343   1.656
47838W        W14379  17.576  13.371   0.270
47839W        W14380  18.722  35.061  12.577
47840W        W14381  25.572  23.134  13.263
47841W        W14382  43.970  36.762  10.666
47842W        W14383  39.965  27.513  14.302
47843W        W14384  39.600  17.073   0.520
47844W        W14385  16.342  13.210   0.953
47845W        W14386   9.845   8.796   3.697
47846W        W14387  11.392  21.798   2.253
47847W        W14388  18.715  27.607   3.296
47848W        W14389   4.989   5.912  13.497
47849W        W14390  10.121  36.434  10.713
47850W        W14391  44.098  11.113  14.755
47851W        W14392   6.518   2.421   0.977
47852W        W14393   5.697  13.642  14.938
47853W        W14394  15.568   9.674  14.972
47854W        W14395  18.291  41.271   3.581
47855W        W14396  41.387  35.000   1.845
47856W        W14397  43.452  10.193   1.192
47857W        W14398   3.898   9.687   3.655
47858W        W14399  41.309  44.333   3.153
47859W        W14400  38.725  30.664   0.238
47860W        W14401  41.092  28.480   1.359
47861W        W14402  36.174  37.828  14.909
47862W        W14403  39.515   6.174  14.755
47863W        W14404  35.708  36.534  10.466
47864W        W14405   6.584   7.279  12.111
47865W        W14406   3.686   7.778  12.940
47866W        W14407  42.443  22.068   1.353
47867W        W14408  23.685  27.469  13.044
47868W        W14409   3.228  31.802  11.272
47869W        W14410  31.709  37.939   2.312
47870W        W14411  38.471   2.111  11.613
47871W        W14412   0.799  39.389   1.361
47872W        W14413   7.645  27.546  14.525
47873W        W14414  19.297  22.966   1.795
47874W        W14415  23.478  35.096   0.966
47875W        W14416  36.935  38.209  13.940
47876W        W14417  38.550  25.706   1.796
47877W        W14418   7.971   1.574   2.512
47878W        W14419  40.834  15.170   0.943
47879W        W14420  30.168   7.490   1.260
47880W        W14421  31.718  18.250   4.866
47881W        W14422  37.000  24.221  12.216
47882W        W14423  25.390  11.740   1.102
47883W        W14424  26.565  44.570   0.018
47884W        W14425  14.205  15.604   3.639
47885W        W14426  28.534  44.885   2.714
47886W        W14427  30.160   8.168   0.461
47887W        W14428  23.556   3.157   3.132
47888W        W14429  28.735  33.689  14.199
47889W        W14430   4.934   9.107  10.277
47890W        W14431  36.096  18.623  10.661
47891W        W14432  34.579  34.436  10.559
47892W        W14433  27.174  10.871   3.247
47893W        W14434  37.488   9.737   1.888
47894W        W14435  30.265  22.138   4.551
47895W        W14436  34.808  42.483   2.903
47896W        W14437   5.431  19.179  12.508
47897W        W14438   1.298  17.698  12.477
47898W        W14439   5.461   2.277   1.895
47899W        W14440  38.680  30.110  14.536
47900W        W14441   8.399  30.228   0.005
47901W        W14442  31.698  44.259   1.736
47902W        W14443  10.777  22.542  14.883
47903W        W14444  33.127   2.250   0.480
47904W        W14445  30.220   0.131   4.452
47905W        W14446  27.798  17.958  11.138
47906W        W14447  34.230   3.444  12.940
47907W        W14448  19.257  22.168   1.028
47908W        W14449  23.254  43.149   0.972
47909W        W14450  37.449  44.069   3.688
47910W        W14451  13.484  42.306  13.959
47911W        W14452  21.787  24.684  13.466
47912W        W14453  16.788  10.362  14.031
47913W        W14454   7.814   8.637   3.738
47914W        W14455  22.792  15.296   1.534
47915W        W14456  22.645  44.956   4.870
47916W        W14457   1.389   2.335   1.001
47917W        W14458  41.464  25.281  13.570
47918W        W14459   3.412  34.019  14.758
47919W        W14460  37.350   8.649  12.894
47920W        W14461  34.216  27.777   1.937
47921W        W14462  17.145   1.466   3.041
47922W        W14463  28.607  17.053   3.650
47923W        W14464   4.737  27.979  11.476
47924W        W14465  31.927  18.055  11.587
47925W        W14466  24.991  26.137   4.676
47926W        W14467  37.266  16.131  11.683
47927W        W14468  42.299  20.304   4.630
47928W        W14469  13.267   0.638   1.767
47929W        W14470  44.832  33.475   1.548
47930W        W14471  29.710  13.610  12.867
47931W        W14472  30.895  40.265   1.370
47932W        W14473  30.551   0.226   0.774
47933W        W14474  25.069  39.054  12.516
47934W        W14475  11.721  43.058  13.867
47935W        W14476   3.223   9.126  13.396
47936W        W14477  22.965  20.766   4.084
47937W        W14478  24.207  16.672   1.499
47938W        W14479  39.317  40.491  13.674
47939W        W14480  10.738  30.020  11.585
47940W        W14481   5.235  43.546  11.594
47941W        W14482   0.765  30.337   2.127
47942W        W14483  37.235  14.310   0.239
47943W        W14484  24.985  19.082  13.092
47944W        W14485  15.264  39.877  11.217
47945W        W14486  13.684  30.926   3.187
47946W        W14487  36.432  31.970  11.675
47947W        W14488   6.795  24.962  12.111
47948W        W14489  40.562  22.031  11.580
47949W        W14490  21.073  13.376  12.632
47950W        W14491   2.922   2.921   1.179
47951W        W14492   8.508  31.260   0.854
47952W        W14493   2.684  32.542   0.424
47953W        W14494  42.322  30.470   1.421
47954W        W14495  29.854  23.894   4.448
47955W        W14496  15.278  17.085   3.690
47956W        W14497  14.337  36.097   2.364
47957W        W14498  12.173   8.579   1.233
47958W        W14499  18.379  19.150   4.382
47959W        W14500  12.871  28.722  11.009
47960W        W14501  18.680  40.457   5.069
47961W        W14502  28.428   7.056   0.408
47962W        W14503   5.335  39.888  10.646
47963W        W14504  11.648  21.438  14.915
47964W        W14505  44.754   8.093   3.859
47965W        W14506   8.966  33.587  11.154
47966W        W14507  44.809  37.971   3.271
47967W        W14508  18.056   3.477   1.854
47968W        W14509   7.505  42.933  14.055
47969W        W14510  21.161  28.194  11.699
47970W        W14511  15.530   8.922   0.487
47971W        W14512  29.121  16.290   0.427
47972W        W14513  28.594  22.496  14.059
47973W        W14514  10.388  38.209  10.843
47974W        W14515  34.986   1.019   4.548
47975W        W14516  20.506  26.435  14.802
47976W        W14517  23.764  34.106   2.525
47977W        W14518  24.405  32.490   0.794
47978W        W14519  39.284   2.517   1.513
47979W        W14520   3.865  21.510  12.537
47980W        W14521  38.441  17.267  13.556
47981W        W14522  13.519  17.168   4.833
47982W        W14523  37.337  22.754   4.577
47983W        W14524  24.232  27.481   0.895
47984W        W14525  37.528  44.464   1.171
47985W        W14526  17.263  15.363  13.406
47986W        W14527  14.094  20.598   1.974
47987W        W14528  35.570  39.539  13.936
47988W        W14529  38.511   3.407   4.158
47989W        W14530  25.906   2.344   1.922
47990W        W14531  10.115  37.369   3.751
47991W        W14532  32.056  12.634   2.121
47992W        W14533   5.261   3.119  13.996
47993W        W14534  24.068  10.350  14.813
47994W        W14535   3.170   8.847   2.953
47995W        W14536  38.663  37.292  11.514
47996W        W14537  40.485  38.761   4.163
47997W        W14538  25.056  28.931  13.635
47998W        W14539  25.112  37.521   0.207
47999W        W14540  14.815   0.448  11.089
48000W        W14541   2.807  31.364  13.543
48001W        W14542  29.927  43.410  14.989
48002W        W14543  18.346   2.045  14.912
48003W        W14544  17.666  20.949   4.049
48004W        W14545  23.596  11.514   1.020
48005W        W14546   3.136  41.601  14.807
48006W        W14547  14.133  32.952  13.974
48007W        W14548  39.821  40.276  14.885
48008W        W14549  30.428  41.055   4.050
48009W        W14550  17.734  38.595  12.365
48010W        W14551  13.534   9.211  13.817
48011W        W14552  35.772  28.027  11.085
48012W        W14553  18.180  34.351  11.295
48013W        W14554  10.797  34.534   3.608
48014W        W14555   4.707  20.114   3.359
48015W        W14556   3.858  23.574  11.129
48016W        W14557  40.807  30.079   3.965
48017W        W14558  16.260  39.135  14.844
48018W        W14559  29.148   2.656  13.449
48019W        W14560  35.985  17.748  14.942
48020W        W14561  33.131  12.298   9.748
48021W        W14562   1.824  31.059   1.769
48022W        W14563  33.506  35.609  13.931
48023W        W14564  21.030  39.112   1.237
48024W        W14565   8.725  13.703  12.809
48025W        W14566  42.490  30.343  12.022
48026W        W14567   0.223  23.977  13.423
48027W        W14568  38.027  31.013  11.576
48028W        W14569  39.990  10.455  12.933
48029W        W14570  37.819   4.818  11.077
48030W        W14571  41.019  28.056   0.272
48031W        W14572  10.798  17.758   0.535
48032W        W14573  30.804  17.263  12.409
48033W        W14574   5.749  11.246  11.363
48034W        W14575  11.600  12.842   4.504
48035W        W14576  44.444  23.149   3.815
48036W        W14577  12.032  34.529  12.468
48037W        W14578   1.442   5.870  13.717
48038W        W14579  22.427   1.283  12.917
48039W        W14580   2.875  37.603  13.587
48040W        W14581   8.398  21.784  11.563
48041W        W14582  24.026  21.419   3.808
48042W        W14583  22.070  22.015   4.591
48043W        W14584  15.272  18.721   4.627
48044W        W14585  25.403   6.139  12.481
48045W        W14586  37.586  20.950  12.966
48046W        W14587  28.150   9.587   3.227
48047W        W14588  19.692  32.196  14.441
48048W        W14589  29.116  30.692  13.932
48049W        W14590  33.880  37.340  11.689
48050W        W14591   9.904  43.344  10.658
48051W        W14592  19.122  31.342   4.255
48052W        W14593  41.642   8.408  13.094
48053W        W14594  29.420  26.706   2.113
48054W        W14595  41.979  31.679   1.751
48055W        W14596  26.563  12.959   0.484
48056W        W14597   9.716  10.927   0.768
48057W        W14598  30.644   4.657   0.856
48058W        W14599  43.041  25.043  11.945
48059W        W14600  40.325  42.228  13.788
48060W        W14601  32.861   5.182   2.308
48061W        W14602  27.621  10.721   4.378
48062W        W14603  21.505   1.296   1.085
48063W        W14604  13.302  19.174  14.377
48064W        W14605  11.955  37.314  14.963
48065W        W14606  44.473  35.590  13.721
48066W        W14607  20.640  19.624   4.270
48067W        W14608   7.771  26.210   0.257
48068W        W14609   8.778  41.711   2.223
48069W        W14610  28.216  25.335   4.856
48070W        W14611   8.659  38.931   0.726
48071W        W14612   9.862  33.019   0.183
48072W        W14613  39.841  15.817  10.772
48073W        W14614  33.424  22.452   0.907
48074W        W14615  39.837  37.410   2.473
48075W        W14616   0.754   0.437  11.290
48076W        W14617   3.684  12.010   0.344
48077W        W14618   0.346  26.576   3.643
48078W        W14619  19.664  29.955   4.452
48079W        W14620  14.853   6.583  12.935
48080W        W14621   6.922  32.080   2.862
48081W        W14622  20.172   1.929  13.811
48082W        W14623  40.427  33.525   0.559
48083W        W14624  31.081   0.893   2.221
48084W        W14625  12.846  38.168  14.357
48085W        W14626  33.955   0.297  10.334
48086W        W14627  40.613   8.297  12.594
48087W        W14628   4.315   5.731   4.193
48088W        W14629  44.455  34.636   0.964
48089W        W14630  10.993  37.567   0.926
48090W        W14631   9.819  30.283  11.152
48091W        W14632  15.918  44.177   4.267
48092W        W14633  31.587   6.362   2.618
48093W        W14634  20.693   5.927  12.326
48094W        W14635  17.748  22.607  14.337
48095W        W14636  11.318  42.019  11.739
48096W        W14637  33.562  38.186   3.056
48097W        W14638  28.210   3.861   1.435
48098W        W14639   1.934  23.713  11.215
48099W        W14640  22.790  27.066   4.075
48100W        W14641   8.167  43.302  12.931
48101W        W14642  11.784  26.014  12.026
48102W        W14643   8.161  41.586   2.272
48103W        W14644  40.379  44.839   2.620
48104W        W14645  35.365   3.544   4.948
48105W        W14646  32.090  28.894  10.851
48106W        W14647  24.110  23.478  13.731
48107W        W14648  12.139  20.523   2.819
48108W        W14649  28.927  35.392  12.208
48109W        W14650  36.618   6.157  13.486
48110W        W14651   5.922   4.178   3.257
48111W        W14652  34.910   0.212  14.420
48112W        W14653  23.905  20.482   3.841
48113W        W14654  12.224  19.328   0.819
48114W        W14655  19.218  23.634   1.291
48115W        W14656  37.352  37.374  11.590
48116W        W14657  31.129  34.837  13.129
48117W        W14658  26.746  37.790  11.763
48118W        W14659  23.653  19.742  11.932
48119W        W14660  23.657  21.573  12.941
48120W        W14661  44.771   9.643  13.793
48121W        W14662  21.492  22.532   1.468
48122W        W14663  23.955   9.567   1.359
48123W        W14664  33.901  12.936  13.984
48124W        W14665  27.255  12.154   2.809
48125W        W14666  30.775  16.724   3.261
48126W        W14667  17.063  25.942  14.282
48127W        W14668  43.061  32.379  13.937
48128W        W14669  36.827   5.330  14.967
48129W        W14670  26.605   6.841   0.939
48130W        W14671  22.070   2.479  11.559
48131W        W14672  26.020  22.572  13.003
48132W        W14673  43.072  28.000  12.080
48133W        W14674  25.461  21.251  11.982
48134W        W14675  34.178  20.329  12.325
48135W        W14676   3.231   9.332   1.170
48136W        W14677  24.121  15.606  11.632
48137W        W14678   7.787  12.542   3.873
48138W        W14679  39.788   2.829   3.796
48139W        W14680  44.002  32.002  13.569
48140W        W14681  30.433  41.974  10.428
48141W        W14682  36.764  27.159   3.668
48142W        W14683   2.399  23.231   1.643
48143W        W14684  12.938  40.653   3.299
48144W        W14685  12.876  34.319   4.579
48145W        W14686  23.918   7.190  11.790
48146W        W14687   5.749  21.979   2.290
48147W        W14688  28.130   8.555   3.228
48148W        W14689  18.300  31.606   4.167
48149W        W14690  40.933  16.630   4.302
48150W        W14691  42.756  34.371   0.742
48151W        W14692  30.454  41.388  14.313
48152W        W14693  24.779   2.048  12.996
48153W        W14694  30.043   5.460   1.211
48154W        W14695   0.490   3.818   5.707
48155W        W14696   3.483  32.243  14.333
48156W        W14697  14.325  14.782  14.004
48157W        W14698  42.969  27.008  14.456
48158W        W14699  22.714  20.711   3.097
48159W        W14700  23.202  41.789  10.211
48160W        W14701  26.260  26.388  14.790
48161W        W14702  19.690  40.715  10.747
48162W        W14703   0.354  30.496  14.032
48163W        W14704  15.385  44.236   1.682
48164W        W14705  35.974  24.613   2.458
48165W        W14706  27.446  39.912  14.440
48166W        W14707  15.404   5.232  10.891
48167W        W14708  10.227   2.758   0.057
48168W        W14709  29.587  30.888  12.910
48169W        W14710   0.269   3.207  14.231
48170W        W14711   9.445  34.274  13.180
48171W        W14712  42.983  38.119   0.747
48172W        W14713  39.335   8.088   0.004
48173W        W14714  32.850  31.841  11.260
48174W        W14715  38.594  17.760   1.732
48175W        W14716  43.975   5.395   2.384
48176W        W14717  31.259  40.449  14.436
48177W        W14718  36.682  16.750  14.400
48178W        W14719  19.536   6.241   2.838
48179W        W14720  17.271  15.695  12.893
48180W        W14721  17.231  35.907   2.394
48181W        W14722   2.161  31.107   0.160
48182W        W14723  27.044  32.055  12.983
48183W        W14724  10.462   9.204   4.105
48184W        W14725  17.126  11.751   2.323
48185W        W14726  23.212  18.930   1.569
48186W        W14727  23.214  26.652  13.454
48187W        W14728  34.533  30.278  11.919
48188W        W14729  44.125  35.244   5.078
48189W        W14730  14.294   4.353   0.294
48190W        W14731   6.966   3.685  12.584
48191W        W14732  21.273  24.796  12.880
48192W        W14733  17.502  12.193   2.569
48193W        W14734  11.879  13.172   3.488
48194W        W14735  44.445  17.449   1.170
48195W        W14736  44.303   2.831   1.484
48196W        W14737  34.691  41.808  11.161
48197W        W14738  42.834  23.018   3.847
48198W        W14739   1.845  14.185  12.547
48199W        W14740  34.398  10.815  14.518
48200W        W14741  16.140  25.336   1.192
48201W        W14742  25.425  40.195   3.840
48202W        W14743  35.905  23.722   4.429
48203W        W14744  21.073  39.057   5.140
48204W        W14745  37.478  10.752   1.769
48205W        W14746  34.395  26.635  13.432
48206W        W14747   7.677  11.764   4.493
48207W        W14748  38.584  17.812  12.333
48208W        W14749  24.473  42.458   4.758
48209W        W14750  19.036  26.087   1.935
48210W        W14751  32.661   9.773  11.760
48211W        W14752  36.445  11.472  13.805
48212W        W14753  36.579  22.434   3.641
48213W        W14754  17.689  32.550   2.536
48214W        W14755  12.033   4.220   1.906
48215W        W14756  18.492  34.100  13.539
48216W        W14757   4.418  34.952  13.491
48217W        W14758  38.035   8.383   1.016
48218W        W14759  22.165  12.512  12.168
48219W        W14760   4.506  25.303  13.825
48220W        W14761  13.643  11.894  12.571
48221W        W14762  23.739   8.344  14.025
48222W        W14763  32.948   7.440  11.987
48223W        W14764  35.665  11.848  11.353
48224W        W14765  10.678  22.699  11.336
48225W        W14766  15.703  32.968   0.279
48226W        W14767  20.171  26.528  12.372
48227W        W14768   3.381  32.498  13.868
48228W        W14769  38.366  12.416  11.199
48229W        W14770   0.268  25.101   0.047
48230W        W14771   5.192  41.598  13.023
48231W        W14772  26.783  32.688   4.672
48232W        W14773  34.881  15.415  11.374
48233W        W14774   8.405  43.788   1.660
48234W        W14775  19.698   7.598  13.392
48235W        W14776  27.280  25.014   0.356
48236W        W14777   0.163  24.595   3.738
48237W        W14778  33.666  16.931  13.406
48238W        W14779  24.804   4.018  14.429
48239W        W14780   5.678  33.836  10.850
48240W        W14781  35.884  35.280  12.110
48241W        W14782   1.414   1.291   0.509
48242W        W14783  34.939  40.004  12.076
48243W        W14784   7.751  39.753  13.377
48244W        W14785   8.159   3.789   0.887
48245W        W14786   8.121  38.604   3.287
48246W        W14787  21.763  20.592  11.360
48247W        W14788   3.086  28.224   5.360
48248W        W14789  22.931  12.181   3.682
48249W        W14790  20.825  33.814  13.300
48250W        W14791  30.015  12.628   3.205
48251W        W14792   5.784   0.175   0.837
48252W        W14793  37.992  10.703  13.526
48253W        W14794  12.265  42.834  12.072
48254W        W14795  29.370   3.839  11.990
48255W        W14796  16.301   2.739  10.442
48256W        W14797  28.929  30.167   2.668
48257W        W14798  38.627  11.760  13.526
48258W        W14799  40.460  37.797   3.410
48259W        W14800   1.650   5.102   4.899
48260W        W14801   8.923  19.201   2.170
48261W        W14802  33.639  44.393   5.042
48262W        W14803  25.527   7.309   3.262
48263W        W14804  34.816  40.268   1.624
48264W        W14805  38.543   1.687  10.670
48265W        W14806  36.448   2.274   5.505
48266W        W14807   1.674  30.559   0.798
48267W        W14808  12.811  34.521   1.694
48268W        W14809  26.193  32.950   4.250
48269W        W14810  39.002  27.557  14.261
48270W        W14811  37.410  42.733  12.484
48271W        W14812   2.838  33.053   5.414
48272W        W14813   2.799  38.371   1.837
48273W        W14814  37.883  34.523  14.577
48274W        W14815  31.566   0.232  14.993
48275W        W14816  25.003  42.913   0.344
48276W        W14817  27.587   3.343   0.963
48277W        W14818  42.464  12.368   2.633
48278W        W14819  30.129  35.289  10.485
48279W        W14820  38.865  17.216  11.562
48280W        W14821  15.790  18.973  11.637
48281W        W14822  17.281  31.932   0.805
48282W        W14823  16.289   5.810  10.799
48283W        W14824  20.917  30.165  11.704
48284W        W14825  18.914  40.654   4.644
48285W        W14826  35.932   5.216   4.760
48286W        W14827  37.836  43.172  12.975
48287W        W14828  20.097  36.434   1.741
48288W        W14829   2.244  19.495  14.057
48289W        W14830   0.842  31.472   3.717
48290W        W14831   6.283  40.572  14.995
48291W        W14832  21.307  28.159   2.463
48292W        W14833  14.301  18.597   3.324
48293W        W14834  21.939  23.100  11.162
48294W        W14835  22.427  19.503   4.097
48295W        W14836  32.092   9.491   1.383
48296W        W14837   1.355  33.398   1.671
48297W        W14838  14.580   4.793   0.462
48298W        W14839  10.447  33.008  10.191
48299W        W14840  15.608   3.195   2.141
48300W        W14841  17.211  13.727  11.049
48301W        W14842   3.763   6.886   3.127
48302W        W14843   5.504  36.458   0.277
48303W        W14844  40.185  27.541  12.914
48304W        W14845  17.077  35.907  14.504
48305W        W14846  20.275  24.893   4.044
48306W        W14847  26.613  30.124  10.229
48307W        W14848  34.089   6.353  14.926
48308W        W14849   9.044  41.408   4.618
48309W        W14850   7.270  27.912   1.806
48310W        W14851  15.315  38.906   1.720
48311W        W14852   0.828   6.803   1.020
48312W        W14853   1.697   2.897  11.675
48313W        W14854  20.524  23.349  14.475
48314W        W14855  27.559  16.259  13.443
48315W        W14856  25.752  12.746   3.801
48316W        W14857  40.047  43.802   0.310
48317W        W14858  11.857  10.472   9.973
48318W        W14859  13.465  37.916   1.835
48319W        W14860   9.298  11.132  13.397
48320W        W14861  16.026  20.443   0.450
48321W        W14862  26.536   0.439  14.536
48322W        W14863  13.066  14.816   1.745
48323W        W14864  11.657  16.039   3.652
48324W        W14865  13.719  42.252  12.928
48325W        W14866  10.478  34.529   4.485
48326W        W14867   6.396  22.213  14.318
48327W        W14868   4.726  13.575   2.272
48328W        W14869  37.008  41.139  12.842
48329W        W14870  43.838  28.047  12.579
48330W        W14871  16.137  24.469   3.350
48331W        W14872  33.661   9.411  13.994
48332W        W14873  43.988  40.166   0.908
48333W        W14874  13.297   9.879  10.678
48334W        W14875  39.910  20.252   4.106
48335W        W14876  16.663  28.204  10.786
48336W        W14877   4.818  43.879  10.112
48337W        W14878   8.261  33.715  14.786
48338W        W14879  14.373  43.619  14.947
48339W        W14880  39.119   3.759   2.082
48340W        W14881  10.244  21.789  11.080
48341W        W14882  42.834  23.016  11.917
48342W        W14883   7.816  24.675  13.815
48343W        W14884  20.284   3.873   1.651
48344W        W14885  21.255  13.354   3.764
48345W        W14886  18.659  24.845  13.518
48346W        W14887   0.453  40.152  12.847
48347W        W14888   7.430  11.159   0.782
48348W        W14889  23.791  13.205   1.309
48349W        W14890  10.414  16.314  13.886
48350W        W14891  24.018   2.784   0.477
48351W        W14892  31.186   7.716   0.801
48352W        W14893  20.630  26.730  12.497
48353W        W14894  14.693  42.905   3.784
48354W        W14895  28.466  36.009   2.880
48355W        W14896  14.688   2.761   4.443
48356W        W14897  41.965  31.067  12.847
48357W        W14898  11.629  44.379   3.940
48358W        W14899  14.519  22.269   4.142
48359W        W14900  23.669   5.661  14.534
48360W        W14901  23.638  16.116   1.078
48361W        W14902  29.987  24.402   3.113
48362W        W14903  22.624   5.329  11.886
48363W        W14904  33.719   0.168   5.482
48364W        W14905  34.632   8.157  13.339
48365W        W14906  39.090  42.339   0.227
48366W        W14907  16.374   3.891  13.476
48367W        W14908  30.039  14.564   4.607
48368W        W14909  10.268  18.288   3.134
48369W        W14910  20.481   5.491   0.885
48370W        W14911  19.613  12.719   5.192
48371W        W14912   9.936  33.035   3.207
48372W        W14913  25.679  31.965  12.471
48373W        W14914  14.359   6.618   3.632
48374W        W14915  10.966  20.228  11.614
48375W        W14916  10.294  23.180  13.035
48376W        W14917   6.443   4.789   0.750
48377W        W14918  25.741  18.911   3.324
48378W        W14919  31.098   0.124   3.571
48379W        W14920  44.068  24.225   4.699
48380W        W14921   0.308  40.035  14.319
48381W        W14922  38.759  39.974  12.573
48382W        W14923  44.333  40.337  11.877
48383W        W14924  41.922  28.431  13.902
48384W        W14925  12.145  18.591   2.892
48385W        W14926  32.536   2.273   2.719
48386W        W14927  42.449  17.298   1.452
48387W        W14928  15.892  39.752   0.770
48388W        W14929  20.785   0.071  11.914
48389W        W14930  13.222  11.820  14.268
48390W        W14931  40.512  44.959  13.490
48391W        W14932   1.965  34.718  14.230
48392W        W14933  23.557  32.286  14.852
48393W        W14934   0.357  24.885  11.635
48394W        W14935  14.190  33.377   3.165
48395W        W14936  16.540  20.012   4.183
48396W        W14937  42.519   3.383  13.166
48397W        W14938  32.278   9.955   1.318
48398W        W14939  23.962  24.368   2.171
48399W        W14940  31.697   9.860   1.326
48400W        W14941  19.260  24.668  10.771
48401W        W14942  44.362   6.183  11.828
48402W        W14943  15.820  38.388  12.921
48403W        W14944  27.599  16.805   4.541
48404W        W14945   2.336   6.751   4.425
48405W        W14946  12.286   9.899  13.354
48406W        W14947  31.206  33.036   3.337
48407W        W14948  12.121  37.508  14.482
48408W        W14949  24.802   8.667   2.322
48409W        W14950  34.984  43.118   1.262
48410W        W14951  31.303  34.052  14.986
48411W        W14952  33.856  15.444  10.925
48412W        W14953  36.058  36.976   3.752
48413W        W14954  30.096   7.372   3.178
48414W        W14955  37.594   5.956  11.670
48415W        W14956   9.892   7.193   0.278
48416W        W14957  29.593   8.412   3.664
48417W        W14958  38.699  43.906  13.493
48418W        W14959  19.771  14.627  12.919
48419W        W14960  40.777  13.746  14.797
48420W        W14961  19.220  15.918   4.995
48421W        W14962  28.925  25.363  13.025
48422W        W14963  42.313   5.489   0.447
48423W        W14964  40.036  44.126   3.029
48424W        W14965  10.757   6.883   0.629
48425W        W14966   0.723  30.166  13.803
48426W        W14967   0.316  11.043  14.405
48427W        W14968  20.271  18.320   9.697
48428W        W14969   4.447  17.821   2.254
48429W        W14970  22.667  20.888   1.738
48430W        W14971   0.878  13.589  11.392
48431W        W14972  18.749   1.264   2.143
48432W        W14973   0.837   0.357   0.482
48433W        W14974  44.878  11.971   3.520
48434W        W14975  24.993  13.797   2.268
48435W        W14976  30.524   9.366   0.746
48436W        W14977  15.296   3.146   1.281
48437W        W14978  14.039  23.705   4.335
48438W        W14979  30.935  41.776  12.614
48439W        W14980  15.096  15.282  10.388
48440W        W14981   3.053  16.687  13.761
48441W        W14982  16.166  30.623  13.806
48442W        W14983   2.225  21.776  11.334
48443W        W14984   6.848  13.113  14.722
48444W        W14985  15.354  11.809  11.018
48445W        W14986  44.116  22.408   2.459
48446W        W14987  19.183   4.817  12.003
48447W        W14988  32.932   3.882   0.157
48448W        W14989  28.531   4.878  13.092
48449W        W14990  41.122  43.516  12.082
48450W        W14991   8.446  17.005   1.250
48451W        W14992  39.600  13.952  13.041
48452W        W14993  26.079  33.814   2.124
48453W        W14994  13.871  15.468  14.296
48454W        W14995  38.457  34.650  12.975
48455W        W14996  12.387  29.110  12.044
48456W        W14997  10.696  10.446   0.935
48457W        W14998  11.122  32.190  11.143
48458W        W14999   8.225  17.336   0.896
48459W        W15000  32.734  41.466   2.856
48460W        W15001  41.888   2.237   4.189
48461W        W15002  41.288  44.975   4.263
48462W        W15003  19.581  10.385  13.858
48463W        W15004  16.279  17.298  10.530
48464W        W15005  25.907  41.655  11.583
48465W        W15006  29.662  16.344   4.205
48466W        W15007  27.559   9.859  13.500
48467W        W15008  15.126   8.328  10.449
48468W        W15009  43.969   9.106   0.023
48469W        W15010  29.883  21.784   4.638
48470W        W15011  17.171   2.928  11.004
48471W        W15012  25.693  32.363  11.066
48472W        W15013   5.623  29.965   0.280
48473W        W15014   0.517  16.619   2.319
48474W        W15015  12.712  10.283   3.875
48475W        W15016  21.027  26.692  10.512
48476W        W15017  25.334  22.545   1.578
48477W        W15018  14.863  37.362  12.118
48478W        W15019  33.293   7.245   0.900
48479W        W15020   1.422  10.885  13.647
48480W        W15021  41.460  11.728  10.857
48481W        W15022  32.092  34.997  10.975
48482W        W15023  33.903  13.304   1.669
48483W        W15024  21.287  33.009  11.235
48484W        W15025  25.483  32.814   0.395
48485W        W15026  14.061   0.711  14.306
48486W        W15027  26.400  32.971  14.657
48487W        W15028  33.084  28.311   4.960
48488W        W15029  16.576  17.361  13.854
48489W        W15030  35.707   8.859  13.361
48490W        W15031  33.010  13.736   3.156
48491W        W15032  31.425   6.172   0.664
48492W        W15033  11.865  41.845   0.440
48493W        W15034  38.332  40.060   4.111
48494W        W15035  37.649  15.873   2.720
48495W        W15036  18.987  11.022   1.699
48496W        W15037  44.474  33.764  13.140
48497W        W15038   1.694  41.063   0.082
48498W        W15039  41.826  11.034   3.243
48499W        W15040  26.465   8.344   2.716
48500W        W15041  18.049  25.227  11.150
48501W        W15042  14.137   7.121   4.659
48502W        W15043  34.664  35.107   2.275
48503W        W15044  16.679  38.872   3.118
48504W        W15045  27.659   7.690   0.974
48505W        W15046  27.888   6.384   0.974
48506W        W15047  10.358  23.145   1.502
48507W        W15048  19.413  20.258  10.598
48508W        W15049   6.006  13.372   0.269
48509W        W15050  19.018  28.588   4.722
48510W        W15051  40.031  44.183  12.246
48511W        W15052   9.742  25.602   2.882
48512W        W15053  37.134  36.476  12.073
48513W        W15054   0.711   9.070  13.578
48514W        W15055  29.501  40.430   0.118
48515W        W15056  31.613   1.969   9.749
48516W        W15057  23.483  39.562   0.910
48517W        W15058  34.529  28.115  13.435
48518W        W15059  14.340  37.817   0.740
48519W        W15060  43.867   5.752  10.708
48520W        W15061   2.795  26.716  13.648
48521W        W15062   9.290  23.486  10.715
48522W        W15063  38.404  30.220  13.283
48523W        W15064  19.758  19.896  10.794
48524W        W15065  33.324  27.135   2.655
48525W        W15066  15.273  17.802  13.877
48526W        W15067  17.076  21.065   1.763
48527W        W15068  27.952  34.337  14.588
48528W        W15069   4.875  27.975   0.506
48529W        W15070   1.853  12.140  14.827
48530W        W15071   0.586  17.660  14.862
48531W        W15072  39.042   3.269  14.310
48532W        W15073  19.265  16.108  11.565
48533W        W15074  35.775  15.831   4.073
48534W        W15075  34.477  26.120  14.685
48535W        W15076  11.274  36.482   1.916
48536W        W15077  13.290  25.552  11.963
48537W        W15078   7.911  37.985   2.262
48538W        W15079  34.920  29.607   2.648
48539W        W15080  38.475  17.471   4.167
48540W        W15081  38.038   0.015  11.299
48541W        W15082   2.957   0.296  11.499
48542W        W15083   8.301  36.240  13.113
48543W        W15084  14.324  36.060  14.318
48544W        W15085  19.012   7.686  14.758
48545W        W15086  28.041   3.716  11.191
48546W        W15087  15.546   3.801   3.569
48547W        W15088  11.942  33.639  12.393
48548W        W15089  27.729   0.478   0.013
48549W        W15090  26.467   6.633   1.899
48550W        W15091  39.288  35.580   1.841
48551W        W15092  28.550   0.702  12.548
48552W        W15093  15.670  39.821   3.922
48553W        W15094  16.246   0.002   2.343
48554W        W15095  40.957   2.329  11.147
48555W        W15096   1.783  39.280  12.487
48556W        W15097  37.025  13.999   1.832
48557W        W15098   4.946  32.627   4.545
48558W        W15099  41.820   3.191  14.429
48559W        W15100  43.070  10.959   3.626
48560W        W15101  23.594  37.625  12.092
48561W        W15102   4.970  32.359   1.725
48562W        W15103  13.120  25.682   3.472
48563W        W15104  11.629   2.808   2.323
48564W        W15105   9.921   0.230   1.941
48565W        W15106  31.961  28.675   3.772
48566W        W15107  44.011  35.367   0.405
48567W        W15108  42.838  21.767   0.852
48568W        W15109   9.595  22.286   4.085
48569W        W15110  10.251  24.562  14.965
48570W        W15111  39.917   0.869  14.028
48571W        W15112  43.026  44.827   1.195
48572W        W15113  31.023   7.397  12.417
48573W        W15114  27.540  44.949  12.893
48574W        W15115  32.719  13.758  11.753
48575W        W15116  13.264  17.283  10.583
48576W        W15117  20.939  29.492   4.118
48577W        W15118  36.433  32.503  12.384
48578W        W15119  22.458  17.615  10.728
48579W        W15120  23.657  37.041   3.875
48580W        W15121  14.316   1.299   2.573
48581W        W15122  31.080  17.974   1.304
48582W        W15123  37.093  23.198   1.894
48583W        W15124  33.608   8.434   4.068
48584W        W15125  36.066  28.394   3.998
48585W        W15126   4.807  42.055  10.499
48586W        W15127  16.016  16.067   5.437
48587W        W15128  42.500  11.707  11.987
48588W        W15129  29.188  17.048   4.558
48589W        W15130  43.265  24.058   3.084
48590W        W15131  14.086  28.637   0.225
48591W        W15132  18.815   9.377  11.560
48592W        W15133  28.871  44.381   0.748
48593W        W15134   3.844  28.163   2.743
48594W        W15135  25.704  14.826  13.849
48595W        W15136  36.412  28.345   1.364
48596W        W15137  30.935  32.193   2.766
48597W        W15138  40.444  18.152  13.861
48598W        W15139  33.928  25.990  11.245
48599W        W15140  27.374   7.283   0.833
48600W        W15141  33.815  24.964   4.191
48601W        W15142  18.592  18.993  13.297
48602W        W15143  13.701  25.609   2.244
48603W        W15144   1.504  16.465  12.930
48604W        W15145  10.826  17.535   2.447
48605W        W15146  16.712  42.716  13.312
48606W        W15147  18.692   7.353  13.478
48607W        W15148   0.418  32.966  14.017
48608W        W15149  28.747  44.879  10.497
48609W        W15150  24.265  12.436   4.656
48610W        W15151   8.800   6.700   3.170
48611W        W15152  35.888  42.000   0.809
48612W        W15153  15.791  15.032  14.090
48613W        W15154   0.836  12.643  14.899
48614W        W15155  44.395  19.526   1.833
48615W        W15156   8.136  18.363   4.081
48616W        W15157  30.177  38.753   1.547
48617W        W15158  26.123  36.380  13.074
48618W        W15159  31.417  19.294   3.664
48619W        W15160  41.963   6.467   3.127
48620W        W15161   7.663  39.143   0.436
48621W        W15162   0.013   0.391  14.519
48622W        W15163   2.713  37.462   0.904
48623W        W15164  17.828  31.099  13.535
48624W        W15165  25.472  27.733   4.129
48625W        W15166   9.675  25.615  13.344
48626W        W15167  10.377   3.769  13.856
48627W        W15168  35.212  15.124  13.333
48628W        W15169  19.126  20.461  12.313
48629W        W15170  21.708  43.087   1.895
48630W        W15171  41.966   1.470   0.811
48631W        W15172  38.151  30.119  12.812
48632W        W15173  10.637   0.323   1.278
48633W        W15174  19.631  30.096  14.484
48634W        W15175  40.786  43.463  11.222
48635W        W15176   6.732  16.642   2.219
48636W        W15177   3.012   5.467  14.288
48637W        W15178  17.527  36.354   2.369
48638W        W15179  32.836  20.736  11.997
48639W        W15180  13.879  27.073   4.236
48640W        W15181   8.638  27.622   4.462
48641W        W15182  22.581  18.621   4.507
48642W        W15183  19.662  23.085  13.034
48643W        W15184  35.594  44.264   0.877
48644W        W15185   6.716  25.116  13.510
48645W        W15186  19.729  22.536   2.200
48646W        W15187  13.400  28.321   3.941
48647W        W15188  26.970  38.515   1.545
48648W        W15189  42.828  10.271  11.309
48649W        W15190  43.286  11.324   2.466
48650W        W15191  29.716  35.482  10.706
48651W        W15192  30.950  18.583   3.651
48652W        W15193  34.201   5.035   3.131
48653W        W15194   2.869  18.318  10.869
48654W        W15195  20.991  35.895  11.075
48655W        W15196  10.748   9.962  14.849
48656W        W15197  22.603  29.918  11.437
48657W        W15198  31.384  31.771  12.057
48658W        W15199  36.706  30.219  11.647
48659W        W15200   0.538  31.410  14.332
48660W        W15201   4.890   0.488   0.001
48661W        W15202  26.555   2.206  12.810
48662W        W15203  33.344   9.206  12.058
48663W        W15204  10.685  19.773   2.703
48664W        W15205  27.362  33.122  13.552
48665W        W15206   9.848  31.054   1.473
48666W        W15207  17.010  21.318  13.905
48667W        W15208  16.540   0.214   3.892
48668W        W15209  20.618  16.667   3.604
48669W        W15210  22.009  17.096   3.741
48670W        W15211   3.128  30.107  12.009
48671W        W15212  10.819   5.414   2.076
48672W        W15213  33.013  20.497  12.416
48673W        W15214  40.956  40.983   4.558
48674W        W15215  29.276   8.611  14.397
48675W        W15216  36.471  17.948  11.611
48676W        W15217  12.500  16.702  14.769
48677W        W15218  18.299  20.060   2.186
48678W        W15219  26.487  23.427  10.746
48679W        W15220  24.915  30.090  11.081
48680W        W15221  40.973  15.411  13.923
48681W        W15222  22.856  19.121  12.909
48682W        W15223  17.453  22.214  11.078
48683W        W15224  26.643  35.662  10.627
48684W        W15225  34.883  36.003  10.686
48685W        W15226  10.239  28.028   1.266
48686W        W15227   7.937  21.072   1.446
48687W        W15228  44.013  39.400  12.163
48688W        W15229  28.999  36.451  13.303
48689W        W15230  25.013  11.706   1.460
48690W        W15231  40.389  29.906  13.755
48691W        W15232  44.279  17.026   4.216
48692W        W15233  11.312   0.931   3.900
48693W        W15234   4.182  41.461   1.873
48694W        W15235  15.054  29.108   1.013
48695W        W15236  33.288  26.962  14.014
48696W        W15237  16.776  17.161  10.546
48697W        W15238  25.438   4.756  14.324
48698W        W15239  37.888   8.257  11.676
48699W        W15240  39.532  44.827   0.359
48700W        W15241  23.194  38.514  10.853
48701W        W15242  36.122  23.247   3.053
48702W        W15243  29.202  18.722  14.426
48703W        W15244   1.422  32.534   3.156
48704W        W15245  41.923  40.092   4.080
48705W        W15246   6.513   9.200   0.357
48706W        W15247   6.967   0.729  11.230
48707W        W15248  27.069   1.564   3.872
48708W        W15249   0.538   6.750  12.005
48709W        W15250  26.091  19.343  12.050
48710W        W15251  14.366  38.038  14.370
48711W        W15252  19.687   6.817   1.194
48712W        W15253  20.605  30.967   3.196
48713W        W15254  21.417  14.648  13.291
48714W        W15255  20.959  28.259   1.366
48715W        W15256  36.082  37.544   2.262
48716W        W15257  17.300   3.411   5.095
48717W        W15258  13.474  40.359  10.394
48718W        W15259  27.638  30.572   4.439
48719W        W15260  30.880  12.686   3.152
48720W        W15261  36.080   4.283  14.840
48721W        W15262   6.254   3.551  12.399
48722W        W15263   4.146   0.023  14.949
48723W        W15264  30.090  39.679   4.357
48724W        W15265  28.676  19.609   2.788
48725W        W15266  38.721  24.526   0.463
48726W        W15267   3.714  15.795   0.515
48727W        W15268  30.329  25.585  11.185
48728W        W15269   0.448  25.284   3.023
48729W        W15270  22.192  29.640  11.894
48730W        W15271   0.222  13.554   1.160
48731W        W15272  40.875  27.539  14.523
48732W        W15273  27.315  11.589  12.217
48733W        W15274  15.264  31.576  13.041
48734W        W15275  34.420  26.113   3.686
48735W        W15276  12.858  25.227  10.739
48736W        W15277  17.642  44.724  14.909
48737W        W15278  43.173   9.859  14.370
48738W        W15279  21.926  14.837  11.975
48739W        W15280   2.202  40.201   4.531
48740W        W15281   3.878  30.985   2.692
48741W        W15282   0.751  34.398   2.286
48742W        W15283  21.499  16.111  14.716
48743W        W15284  39.177   3.355  12.472
48744W        W15285  15.822  35.091  13.887
48745W        W15286  25.251  30.035  10.702
48746W        W15287  14.838  12.273   1.861
48747W        W15288  23.950   9.305  10.557
48748W        W15289  28.345  34.853  11.650
48749W        W15290  40.803  34.071  12.430
48750W        W15291  30.388  41.062  12.398
48751W        W15292   1.039  10.543   2.903
48752W        W15293  22.149   2.407   0.485
48753W        W15294  24.430  40.414   3.223
48754W        W15295  25.536  38.109   1.796
48755W        W15296  28.491  32.577   4.153
48756W        W15297  20.070   1.102   3.340
48757W        W15298  17.082  14.109   2.776
48758W        W15299   5.866   9.158  13.827
48759W        W15300  20.483   8.950   0.935
48760W        W15301   5.709  16.956  11.118
48761W        W15302   4.188  33.119   0.737
48762W        W15303  16.219  21.145   3.638
48763W        W15304  30.112  40.839  13.886
48764W        W15305   1.818   4.998  14.147
48765W        W15306  21.925  28.737   3.341
48766W        W15307  33.482  42.108   1.278
48767W        W15308  21.077   1.276  11.599
48768W        W15309  17.121  42.855  11.167
48769W        W15310  29.529  11.597   0.362
48770W        W15311  10.271  26.608  11.457
48771W        W15312  27.714   0.954  14.280
48772W        W15313  33.908  36.971   2.120
48773W        W15314  28.845   1.660   1.162
48774W        W15315   2.351   9.879  12.335
48775W        W15316   5.937  27.958  12.488
48776W        W15317  35.728  12.037   5.122
48777W        W15318  18.324  10.297  13.330
48778W        W15319   0.120  15.137   3.786
48779W        W15320  44.690   8.384  11.082
48780W        W15321   1.530   9.278  10.779
48781W        W15322  35.419  21.669  12.179
48782W        W15323  15.601   7.931  12.000
48783W        W15324  25.232  30.255   2.737
48784W        W15325  21.029  20.980   1.479
48785W        W15326  30.706  12.546  11.530
48786W        W15327   9.272  15.271   1.758
48787W        W15328  41.913  17.314  11.633
48788W        W15329   5.475   6.906   0.479
48789W        W15330   0.249  12.028   0.290
48790W        W15331  14.754  33.637  10.263
48791W        W15332  15.776  18.272   2.793
48792W        W15333   7.347  32.571  14.226
48793W        W15334  16.766   2.111   4.075
48794W        W15335  34.996  28.926  13.830
48795W        W15336  35.056  15.214  11.805
48796W        W15337  42.478  25.519   3.352
48797W        W15338   8.838   8.351   2.938
48798W        W15339   5.947  17.416  12.495
48799W        W15340  28.093  37.450  14.453
48800W        W15341  32.544   5.826  14.335
48801W        W15342   1.618  13.143  13.984
48802W        W15343   8.481   3.386   4.305
48803W        W15344   8.011  44.145   4.543
48804W        W15345  19.401  42.766  12.517
48805W        W15346   2.806  40.313  12.370
48806W        W15347   6.413  22.542   1.333
48807W        W15348  18.209   1.739   2.788
48808W        W15349  43.954  19.798   0.571
48809W        W15350  40.286  24.599   0.332
48810W        W15351  19.167  13.572   4.198
48811W        W15352  35.530  12.184   2.128
48812W        W15353  12.838  23.641  14.271
48813W        W15354  29.653   8.567  12.897
48814W        W15355   9.578  29.058  14.279
48815W        W15356  10.243  16.596   0.426
48816W        W15357  29.722   1.303  12.243
48817W        W15358  23.489  30.076  14.316
48818W        W15359  14.469  22.079   3.128
48819W        W15360   9.723   7.732  11.055
48820W        W15361   2.677  10.132   0.920
48821W        W15362  19.991  32.171   4.047
48822W        W15363  24.522  42.002   1.186
48823W        W15364   1.167   9.315  13.283
48824W        W15365  25.063  36.456   5.058
48825W        W15366   4.499  31.073  14.306
48826W        W15367   8.538  32.893  14.796
48827W        W15368  30.059  43.330   1.489
48828W        W15369  23.487  31.440   2.681
48829W        W15370  16.893  25.121   3.230
48830W        W15371  28.397  37.387  12.589
48831W        W15372  30.523  40.417  13.937
48832W        W15373   1.500  39.644   4.207
48833W        W15374   8.221   0.860  13.161
48834W        W15375  36.991   3.755  10.508
48835W        W15376   2.276  29.096   4.257
48836W        W15377  44.902  10.033  14.144
48837W        W15378  16.850  26.686   0.968
48838W        W15379  14.572  36.095  12.959
48839W        W15380   4.687  25.060  12.551
48840W        W15381  22.141  15.828  13.511
48841W        W15382  25.008  35.884  12.018
48842W        W15383  39.038  25.595  14.243
48843W        W15384  34.468  20.244  11.775
48844W        W15385   0.714  21.621   0.474
48845W        W15386  22.604   7.097  10.733
48846W        W15387  18.532  40.537   0.349
48847W        W15388  19.277   1.531  12.586
48848W        W15389  39.119  24.362   0.777
48849W        W15390  34.983  28.963  12.796
48850W        W15391  13.715   1.925  10.752
48851W        W15392  14.876  43.010   2.415
48852W        W15393  27.586  10.392  10.357
48853W        W15394  32.555  21.056  10.914
48854W        W15395  40.699  43.811   4.256
48855W        W15396   7.411  14.317   2.440
48856W        W15397  43.776  17.288   0.928
48857W        W15398   8.423  19.371  13.463
48858W        W15399  30.307  43.703  11.068
48859W        W15400  37.924  17.745  14.996
48860W        W15401   2.787  17.555  13.220
48861W        W15402  37.521  43.065  14.265
48862W        W15403  23.198  18.656  14.307
48863W        W15404  14.407  37.912   1.644
48864W        W15405  10.298  20.258   0.976
48865W        W15406  33.131   8.875  10.503
48866W        W15407   7.629   4.964   4.541
48867W        W15408  23.107   6.654  14.980
48868W        W15409  21.529   3.475   1.407
48869W        W15410  26.765   0.066   1.951
48870W        W15411  31.187  27.129  10.607
48871W        W15412  39.930  37.996  14.247
48872W        W15413   2.973  26.999  11.665
48873W        W15414  28.531   5.709   3.311
48874W        W15415  38.930  22.542   0.220
48875W        W15416   7.192  21.265  13.889
48876W        W15417  39.861   8.274   4.595
48877W        W15418  35.983  10.331   4.570
48878W        W15419  35.195  38.906   4.264
48879W        W15420  41.768   2.013  13.419
48880W        W15421  35.841  41.826  13.997
48881W        W15422  37.697  32.565   3.306
48882W        W15423  37.946  30.436   1.660
48883W        W15424  41.612   4.385   1.875
48884W        W15425   1.578  38.799  13.159
48885W        W15426  30.547   3.037  11.184
48886W        W15427  30.052  41.785   1.470
48887W        W15428  38.420   1.387   0.520
48888W        W15429  36.303  37.129  13.921
48889W        W15430  29.381   9.888  13.220
48890W        W15431  43.432  29.404  13.381
48891W        W15432  31.052  12.191  12.374
48892W        W15433  14.027   4.542   2.429
48893W        W15434  26.065  12.511   4.138
48894W        W15435   8.852  26.193  12.415
48895W        W15436  17.017  39.058  11.098
48896W        W15437   3.197  24.226  11.473
48897W        W15438   8.151  22.014  14.861
48898W        W15439  32.994  24.581   1.349
48899W        W15440  38.592  35.317   3.617
48900W        W15441  36.912  23.466   0.335
48901W        W15442  25.679  36.445   4.363
48902W        W15443  21.315  14.280   4.441
48903W        W15444   0.641  17.671   1.696
48904W        W15445  43.078  41.606  14.882
48905W        W15446  25.443   9.620   1.415
48906W        W15447  18.813  41.577   4.031
48907W        W15448  39.361   0.472  11.961
48908W        W15449   3.324  29.509   3.234
48909W        W15450  17.266  40.136   1.019
48910W        W15451   3.850  11.829  11.055
48911W        W15452  39.966   6.992  12.582
48912W        W15453  34.402  15.907  14.813
48913W        W15454  32.853  22.520  14.608
48914W        W15455  38.118  34.935  13.279
48915W        W15456  34.414   0.404  10.925
48916W        W15457   9.193   1.231  10.810
48917W        W15458   1.532  26.036  14.430
48918W        W15459  23.769  24.299  11.208
48919W        W15460  25.065  42.053   3.653
48920W        W15461  32.846  15.328   3.855
48921W        W15462   3.785   4.370  11.650
48922W        W15463  37.310  30.471  14.257
48923W        W15464  18.315  38.013  14.407
48924W        W15465   1.362  37.873  12.478
48925W        W15466   2.838  19.688  12.870
48926W        W15467  41.758   0.780  11.631
48927W        W15468   3.415  14.527   2.345
48928W        W15469  40.665  17.631  11.776
48929W        W15470   4.316  42.837   2.473
48930W        W15471  35.454   6.533   4.493
48931W        W15472  22.158  26.488  13.417
48932W        W15473  13.505  16.929  10.295
48933W        W15474  10.217  26.432  10.065
48934W        W15475  37.588  25.783   3.214
48935W        W15476  40.968   1.259   4.148
48936W        W15477   8.938  16.795  13.982
48937W        W15478  23.460  21.977   3.192
48938W        W15479  40.364  29.934   2.837
48939W        W15480  21.767  32.880  13.951
48940W        W15481   6.341   6.768  12.989
48941W        W15482  15.053   3.203   2.593
48942W        W15483  31.345  38.998  11.107
48943W        W15484   5.746  44.513  10.670
48944W        W15485  20.889  13.653   5.427
48945W        W15486   3.855  21.366   1.750
48946W        W15487   6.416   4.890   3.616
48947W        W15488  11.057  19.341   2.721
48948W        W15489   9.241  38.289   2.240
48949W        W15490  34.615   4.956   0.266
48950W        W15491  34.986  17.006  13.266
48951W        W15492   6.733  37.082  14.158
48952W        W15493   4.439  42.494  13.131
48953W        W15494  13.279  35.552  10.529
48954W        W15495   7.042  43.739  11.153
48955W        W15496  21.217  30.666   4.189
48956W        W15497  30.037   4.768  14.312
48957W        W15498  15.752  21.713   3.175
48958W        W15499  35.088  27.134   2.914
48959W        W15500  43.779   5.334  11.539
48960W        W15501   6.551  30.148   1.208
48961W        W15502  25.647  20.577   1.377
48962W        W15503  17.636  40.644  13.635
48963W        W15504  30.012  10.780   3.484
48964W        W15505  22.577  11.013   3.018
48965W        W15506  43.460   1.489   2.160
48966W        W15507   8.623  40.638  13.917
48967W        W15508   9.566  20.402   3.274
48968W        W15509  38.015  25.727   4.788
48969W        W15510  23.095  12.059   0.373
48970W        W15511   3.825  37.550  14.075
48971W        W15512  24.912  41.394   4.755
48972W        W15513  35.740  14.802  14.074
48973W        W15514  20.609  35.897  13.057
48974W        W15515  26.606  19.133   3.207
48975W        W15516  36.549  42.712  13.433
48976W        W15517   7.399   9.889  14.073
48977W        W15518  40.525  12.360  13.915
48978W        W15519  31.043  28.705  14.404
48979W        W15520  40.421  31.100   4.547
48980W        W15521  10.089  41.638   4.666
48981W        W15522  40.796  23.056   1.291
48982W        W15523   9.124  38.337   3.347
48983W        W15524  36.145   9.831  12.517
48984W        W15525  37.028  13.853   0.385
48985W        W15526  20.740  38.007  10.344
48986W        W15527   2.863  13.557   1.722
48987W        W15528  37.574  11.736   4.611
48988W        W15529  39.643  40.050  14.436
48989W        W15530  34.522  43.858   2.357
48990W        W15531  32.059   5.779   0.079
48991W        W15532  34.289   4.046   2.276
48992W        W15533  17.181  30.220   3.318
48993W        W15534  36.681  41.140  14.947
48994W        W15535   1.305   5.679  12.212
48995W        W15536  43.411  21.655   1.662
48996W        W15537  35.752  25.739  11.350
48997W        W15538  27.411  25.621  12.152
48998W        W15539  44.359  37.650  10.733
48999W        W15540   1.779   8.841  10.523
49000W        W15541  34.710  24.283   0.302
49001W        W15542   6.241  26.139   1.503
49002W        W15543  11.187  15.062   1.947
49003W        W15544  40.982  24.468   0.916
49004W        W15545  18.414  30.942   3.894
49005W        W15546  40.171  37.819   0.011
49006W        W15547   0.275   5.960   2.960
49007W        W15548   0.572  33.305  14.791
49008W        W15549  39.152   8.350  13.377
49009W        W15550  43.106   1.683   1.280
49010W        W15551   2.720  19.648  10.626
49011W        W15552  34.476  13.113  12.050
49012W        W15553  44.486  10.388  12.458
49013W        W15554  25.414  34.190   1.886
49014W        W15555  17.068  35.587   1.330
49015W        W15556  25.949  38.793  13.868
49016W        W15557  39.897   9.681  11.593
49017W        W15558  38.890  20.156   1.529
49018W        W15559  36.978   0.064   4.789
49019W        W15560  43.266  35.072   4.150
49020W        W15561  11.564  15.479  14.839
49021W        W15562  41.319  30.986  14.152
49022W        W15563   9.413  39.304  12.165
49023W        W15564  38.935  44.324  14.995
49024W        W15565  21.642  15.617   4.544
49025W        W15566  30.412   3.336   0.884
49026W        W15567   7.760  29.460  11.265
49027W        W15568  14.300   5.133   3.684
49028W        W15569  36.859  37.519   1.863
49029W        W15570  26.464  18.912  12.060
49030W        W15571  15.659  16.012   1.800
49031W        W15572  33.949  27.248   4.404
49032W        W15573  40.861  12.904   0.807
49033W        W15574  14.487  20.971  11.319
49034W        W15575  44.336  44.249  11.714
49035W        W15576  18.458  44.596  11.255
49036W        W15577  23.488  30.389  14.753
49037W        W15578  39.055  31.606   1.328
49038W        W15579  24.621   6.207   2.373
49039W        W15580  37.856  31.340   1.877
49040W        W15581   0.827  13.602   3.723
49041W        W15582  22.110   9.634  11.697
49042W        W15583  21.909   6.881  13.151
49043W        W15584  16.938   2.421   0.915
49044W        W15585   6.230  11.888  10.749
49045W        W15586  22.321   0.906   3.160
49046W        W15587   1.008  24.924  11.902
49047W        W15588   3.002  31.249  14.881
49048W        W15589   4.865  12.900   0.764
49049W        W15590  36.729  10.769   4.551
49050W        W15591  42.319  44.845  13.897
49051W        W15592  23.214  11.282  10.585
49052W        W15593  35.593  40.249   0.565
49053W        W15594   4.273  24.932   0.185
49054W        W15595  37.532  24.520  12.956
49055W        W15596  27.641   4.414  14.292
49056W        W15597  31.421  44.091   2.140
49057W        W15598  40.050  29.226  13.079
49058W        W15599   8.861  13.103  12.125
49059W        W15600  31.493  40.058  13.854
49060W        W15601  15.628  31.070  14.947
49061W        W15602  10.830  12.174  12.628
49062W        W15603  41.057  27.078  10.787
49063W        W15604  26.188  35.591  11.385
49064W        W15605  44.710   0.406   2.316
49065W        W15606  22.069  28.363  12.361
49066W        W15607  33.442  23.301  12.971
49067W        W15608  40.432  40.841   0.938
49068W        W15609  27.563  27.212  12.517
49069W        W15610  14.836  18.355  14.865
49070W        W15611  15.287  35.048  11.608
49071W        W15612  13.208  14.523  14.854
49072W        W15613  16.628  39.649   4.175
49073W        W15614  34.847  41.525  14.423
49074W        W15615  19.186  29.136  14.673
49075W        W15616   1.395  34.224   1.086
49076W        W15617  21.209  35.744   0.773
49077W        W15618  20.802  21.510   4.915
49078W        W15619  33.894  21.122  14.035
49079W        W15620   9.778  24.729   3.295
49080W        W15621  26.489   5.725   0.128
49081W        W15622  30.476  15.677   1.048
49082W        W15623   5.093  23.844  14.397
49083W        W15624   3.190   0.183  10.655
49084W        W15625  34.595  26.499  12.944
49085W        W15626  29.976   3.263   0.499
49086W        W15627  17.126  24.741   2.290
49087W        W15628  23.187  38.925  11.622
49088W        W15629   9.172  40.768  13.003
49089W        W15630  44.489   1.718  14.839
49090W        W15631  13.242  12.251  12.425
49091W        W15632  39.585  19.526   3.315
49092W        W15633  34.535  16.463  10.545
49093W        W15634  16.776  14.098   1.255
49094W        W15635   8.835  23.759  10.771
49095W        W15636  25.164   9.095  14.347
49096W        W15637   6.269  42.323  14.338
49097W        W15638  41.947  34.876  13.330
49098W        W15639  34.555  34.613   2.244
49099W        W15640  38.779  17.460  12.667
49100W        W15641   3.448  37.938  10.629
49101W        W15642   0.170  42.821   4.722
49102W        W15643   9.373  21.675   4.378
49103W        W15644  15.867  17.312   3.769
49104W        W15645   9.744  14.802   0.358
49105W        W15646  12.317  23.175   0.337
49106W        W15647  38.589  35.334  12.446
49107W        W15648  10.311  10.088   0.105
49108W        W15649  17.575  27.848  12.587
49109W        W15650  12.810  41.737   0.510
49110W        W15651   4.151  25.406   0.340
49111W        W15652   6.301   2.679   3.502
49112W        W15653  20.017  29.143  12.040
49113W        W15654  14.150  42.586   0.081
49114W        W15655  40.395  15.284   1.205
49115W        W15656   2.827  30.938  14.418
49116W        W15657  15.764  28.343  12.597
49117W        W15658  40.590  30.082   4.576
49118W        W15659  26.386   7.801   1.932
49119W        W15660   5.714  20.550   2.186
49120W        W15661  26.226  21.114  13.371
49121W        W15662  12.493  20.319  13.786
49122W        W15663  16.203  22.673   4.333
49123W        W15664  34.776  33.463  13.470
49124W        W15665  19.343  38.444   2.314
49125W        W15666  28.871  15.996   4.330
49126W        W15667  16.891  12.711  14.526
49127W        W15668  34.383  33.659   3.539
49128W        W15669  16.611  13.153  11.319
49129W        W15670   7.804  10.588   4.027
49130W        W15671  36.761  28.178   1.710
49131W        W15672  21.760   3.185   4.183
49132W        W15673  40.932   3.434   3.374
49133W        W15674  36.017  35.991   3.131
49134W        W15675  33.354  17.127  13.825
49135W        W15676  37.792  35.498  14.426
49136W        W15677  13.830  14.247   2.797
49137W        W15678  24.235  22.568   3.165
49138W        W15679   4.827  44.359   4.618
49139W        W15680   7.277  16.025   4.570
49140W        W15681  40.155  33.010  12.101
49141W        W15682  13.707   6.305   1.986
49142W        W15683  37.739   6.844   4.264
49143W        W15684  20.047  19.308   3.344
49144W        W15685  10.288  30.794   0.776
49145W        W15686  39.794  24.367  10.710
49146W        W15687   8.357  29.696   4.131
49147W        W15688  18.087   0.556   4.654
49148W        W15689  33.477   5.429  12.583
49149W        W15690   5.523  34.615   0.282
49150W        W15691  14.588  19.444  12.550
49151W        W15692  36.842  26.969  14.341
49152W        W15693  16.354  44.974   3.247
49153W        W15694  24.815  26.392   2.654
49154W        W15695  44.258   1.175   3.320
49155W        W15696  13.086  34.211   5.052
49156W        W15697  44.261  15.176   2.518
49157W        W15698  34.173  24.038   2.223
49158W        W15699  33.693  18.184   0.859
49159W        W15700   6.087   2.530   5.138
49160W        W15701  20.287  25.962  14.767
49161W        W15702  34.555  18.837   2.928
49162W        W15703   6.452   6.276  11.282
49163W        W15704  26.979  28.315   4.458
49164W        W15705  24.481  34.863  11.679
49165W        W15706  25.512   8.935  12.515
49166W        W15707  16.875  12.384   3.402
49167W        W15708  41.063  29.120  13.957
49168W        W15709  21.161  43.927  13.610
49169W        W15710  32.041  16.420   0.441
49170W        W15711  42.803   2.810   2.188
49171W        W15712   9.911  38.641   0.367
49172W        W15713  33.902  41.500  11.440
49173W        W15714  14.701  29.708   4.610
49174W        W15715   0.241   0.891   0.970
49175W        W15716  33.594  10.340   3.077
49176W        W15717   3.507  26.911  12.518
49177W        W15718  33.603   5.425  13.441
49178W        W15719  39.167  28.162   1.746
49179W        W15720   7.272   5.423   1.437
49180W        W15721   1.497   9.677  11.636
49181W        W15722   6.676  22.012   1.928
49182W        W15723  12.873  43.805  12.526
49183W        W15724   5.855  25.492  12.749
49184W        W15725  41.969  26.568   4.057
49185W        W15726  22.236   4.715   3.571
49186W        W15727  20.273   3.873   3.643
49187W        W15728  41.583  35.870   2.862
49188W        W15729  39.406  16.598  11.880
49189W        W15730   0.886  30.846   2.168
49190W        W15731  17.771  21.988   3.724
49191W        W15732  28.050  11.814  13.439
49192W        W15733  18.117  21.206  13.916
49193W        W15734  40.561  38.137   3.029
49194W        W15735  19.234  10.897  14.862
49195W        W15736  14.298  10.209  11.409
49196W        W15737   3.248  38.404  11.593
49197W        W15738  12.882  29.665  11.465
49198W        W15739  29.059   3.671  13.396
49199W        W15740   4.397   1.355  13.478
49200W        W15741   3.909  22.169   4.577
49201W        W15742  21.800   4.591  10.080
49202W        W15743   4.926  16.126  11.184
49203W        W15744  38.497  39.759   3.117
49204W        W15745  30.536   5.008  12.559
49205W        W15746  37.600  23.159   3.191
49206W        W15747  12.711  28.578   4.381
49207W        W15748   9.775  36.074   3.365
49208W        W15749   8.247  26.564   0.935
49209W        W15750  39.232  17.629   2.372
49210W        W15751   5.173  16.620   9.966
49211W        W15752  10.640  34.504   1.862
49212W        W15753   4.414  37.792   1.921
49213W        W15754  11.250  15.790  12.075
49214W        W15755  37.534  41.162  11.375
49215W        W15756  35.812  26.621  11.304
49216W        W15757  32.072  21.409  11.563
49217W        W15758  14.179  38.848   3.127
49218W        W15759   2.283  36.107  12.068
49219W        W15760  43.837  41.690  14.586
49220W        W15761  23.129  33.390  11.734
49221W        W15762  33.918  12.039  14.516
49222W        W15763  13.653   2.844   4.513
49223W        W15764  41.424  32.945  14.851
49224W        W15765  13.015  13.123  14.277
49225W        W15766  12.073  10.890  13.341
49226W        W15767  33.415   2.206  13.172
49227W        W15768  41.332   1.707  11.659
49228W        W15769  38.991  40.958   1.229
49229W        W15770   1.547  27.743  12.360
49230W        W15771  20.004  17.771  13.322
49231W        W15772  41.972  33.613  13.900
49232W        W15773   6.371  32.508   0.202
49233W        W15774  44.788  18.270   0.689
49234W        W15775  16.792  13.053   2.719
49235W        W15776  15.957   1.296  14.861
49236W        W15777   7.862  22.417   3.221
49237W        W15778  26.804  36.968  12.924
49238W        W15779  31.249  10.126   3.831
49239W        W15780   1.594  29.133  11.359
49240W        W15781  39.782  24.273  11.220
49241W        W15782  28.382  21.634   2.186
49242W        W15783  28.949  23.914   4.121
49243W        W15784  35.005  18.318   1.358
49244W        W15785  30.634  10.670  11.511
49245W        W15786  38.144  44.479  13.329
49246W        W15787  11.114  31.016  14.447
49247W        W15788  21.611  31.748   1.340
49248W        W15789   2.465   1.397  10.854
49249W        W15790  10.868  40.525   1.333
49250W        W15791  14.644   1.303  13.901
49251W        W15792  22.938  28.192  12.788
49252W        W15793  34.367  24.115  14.048
49253W        W15794   2.174  10.336  14.307
49254W        W15795  23.629  40.080  11.765
49255W        W15796  18.102  29.553  12.098
49256W        W15797  40.438  32.964  10.664
49257W        W15798   1.846  15.624   3.887
49258W        W15799  24.060  35.964   0.409
49259W        W15800  11.364  29.446   2.264
49260W        W15801  20.114  13.964   1.763
49261W        W15802  41.209  13.327   0.813
49262W        W15803   3.982  13.043  13.930
49263W        W15804   1.878  15.018  11.214
49264W        W15805  17.541  29.834   1.350
49265W        W15806  27.249  26.524   3.930
49266W        W15807  41.957  26.879   1.436
49267W        W15808   7.609   1.930  10.572
49268W        W15809  33.824  16.837  11.598
49269W        W15810   7.873  34.395   4.717
49270W        W15811  22.520  12.620  10.708
49271W        W15812   6.227  17.096  14.435
49272W        W15813  33.952  33.902   3.775
49273W        W15814  17.273   6.878  12.513
49274W        W15815  11.533   2.238   0.039
49275W        W15816  25.333  38.924  14.978
49276W        W15817  40.106  15.393   4.467
49277W        W15818  14.746  27.779   3.699
49278W        W15819  29.231  25.217  11.850
49279W        W15820  20.146  39.022   3.207
49280W        W15821  13.092  28.377   2.699
49281W        W15822  28.008  31.966  10.173
49282W        W15823  42.570   5.469   3.938
49283W        W15824  22.755  28.183  11.985
49284W        W15825   6.619  21.804  10.650
49285W        W15826  23.660  35.580   3.718
49286W        W15827  20.554  41.335  10.674
49287W        W15828   9.203  43.838   0.642
49288W        W15829  32.002  10.275   2.581
49289W        W15830  10.367  37.304  13.499
49290W        W15831  10.332  37.511   0.136
49291W        W15832  43.336  40.382  14.578
49292W        W15833  38.110  17.140  12.803
49293W        W15834  41.705  23.804  14.330
49294W        W15835  13.415  43.748  12.524
49295W        W15836  26.104  30.267   4.034
49296W        W15837   9.156   0.905   0.090
49297W        W15838  22.780  15.884  11.003
49298W        W15839  43.348  19.665   4.183
49299W        W15840  20.622  36.056   3.470
49300W        W15841   8.201  12.576  13.819
49301W        W15842  30.350  28.633  12.533
49302W        W15843  19.460   0.967   2.824
49303W        W15844  26.485  27.543  11.535
49304W        W15845  11.268  38.500   1.708
49305W        W15846  19.346  37.167   0.211
49306W        W15847  44.768  13.695  14.839
49307W        W15848  32.631  35.542  10.948
49308W        W15849  20.727  29.180  12.476
49309W        W15850  35.537   3.686  12.040
49310W        W15851   9.849  37.801   2.759
49311W        W15852  43.023  26.995   4.613
49312W        W15853  31.063  26.777  14.792
49313W        W15854  43.310   7.445   4.243
49314W        W15855  17.539   0.821  10.631
49315W        W15856  11.448  31.195  14.116
49316W        W15857  20.839  34.027  12.336
49317W        W15858  40.885  21.303  14.347
49318W        W15859   9.605  23.993  14.010
49319W        W15860  12.790  20.014  11.522
49320W        W15861   2.716  36.974  11.883
49321W        W15862  38.337   7.674  12.897
49322W        W15863  22.978  10.728   0.693
49323W        W15864  43.675  15.495   1.475
49324W        W15865  32.674  44.426   0.798
49325W        W15866  20.214  11.966  10.790
49326W        W15867  31.963  42.911  12.439
49327W        W15868   9.264  32.685  12.927
49328W        W15869  28.394  16.279   1.791
49329W        W15870  29.412  32.347  13.034
49330W        W15871  40.940  21.744   4.509
49331W        W15872  41.391  22.494  13.010
49332W        W15873   1.155   8.796   0.946
49333W        W15874  18.763   4.791  11.119
49334W        W15875   8.531  16.288  14.513
49335W        W15876  41.955  27.467   0.083
49336W        W15877  20.932   1.256  12.092
49337W        W15878   0.739   6.690  13.763
49338W        W15879  20.519  10.467   4.986
49339W        W15880  37.543  34.425   4.202
49340W        W15881   7.542  10.162   3.990
49341W        W15882  38.134  23.027  12.150
49342W        W15883  38.990  35.488   4.240
49343W        W15884  13.799  25.740  14.920
49344W        W15885  27.692  27.975   0.577
49345W        W15886   0.931  29.669  11.319
49346W        W15887   4.268  40.029  11.121
49347W        W15888  35.400  20.583   4.204
49348W        W15889   8.483  32.085   0.203
49349W        W15890   8.739  41.054  13.133
49350W        W15891  16.323  23.175   3.546
49351W        W15892  39.470   2.280  11.600
49352W        W15893  21.083  24.284   4.047
49353W        W15894   2.410   2.994   1.814
49354W        W15895  16.552  14.588   0.848
49355W        W15896   5.716  14.782  11.204
49356W        W15897  22.290   9.792  14.306
49357W        W15898   5.905  20.121  14.969
49358W        W15899  23.110  32.086  14.688
49359W        W15900  28.975  42.086   0.656
49360W        W15901  31.461  32.189   3.183
49361W        W15902  37.496  35.875   0.425
49362W        W15903  23.067  23.690   4.700
49363W        W15904  19.169  35.808  11.571
49364W        W15905  25.241  25.131  13.873
49365W        W15906  12.321  24.092   3.119
49366W        W15907  22.602  22.442  13.023
49367W        W15908   4.144   4.695   1.518
49368W        W15909  22.205  10.774  11.592
49369W        W15910   8.181  26.591  13.346
49370W        W15911  42.480   4.316  13.369
49371W        W15912  33.710  32.680  12.585
49372W        W15913  39.112  20.960   9.890
49373W        W15914  23.542  17.712   3.358
49374W        W15915  38.095  14.613   2.141
49375W        W15916   9.027  16.926  10.755
49376W        W15917  21.174  33.603  10.703
49377W        W15918  38.805   0.201   2.733
49378W        W15919  44.574  10.646  12.898
49379W        W15920  42.564  24.785  11.828
49380W        W15921  13.437  26.937  14.864
49381W        W15922  18.649   1.314   3.519
49382W        W15923   7.473  24.240   2.317
49383W        W15924  18.720   7.333  14.472
49384W        W15925  27.090  17.115   2.227
49385W        W15926  19.186  15.938   3.709
49386W        W15927  12.339  44.808   3.358
49387W        W15928  15.910  26.050   3.161
49388W        W15929  38.771  22.322  12.301
49389W        W15930  44.370   7.519  10.155
49390W        W15931  23.516   3.372  14.476
49391W        W15932  40.304   7.392  14.847
49392W        W15933  26.592  13.185   0.957
49393W        W15934  31.562  34.372   4.612
49394W        W15935  42.316  33.650  14.297
49395W        W15936   7.461  32.308   4.531
49396W        W15937  15.566   5.824  12.599
49397W        W15938   2.356  35.498  14.593
49398W        W15939  28.521  37.513   3.247
49399W        W15940  14.194   2.243   2.349
49400W        W15941  38.819  43.535   2.833
49401W        W15942  40.647  44.803  11.899
49402W        W15943  40.023  19.089  11.291
49403W        W15944   5.408  41.464   3.894
49404W        W15945  31.628   3.416   1.499
49405W        W15946  34.338  21.287   4.755
49406W        W15947  23.040  30.452   0.008
49407W        W15948  12.925  10.749  12.684
49408W        W15949  12.119  19.533  12.026
49409W        W15950  16.618  10.827  14.832
49410W        W15951   3.251  19.349  13.600
49411W        W15952  33.490   4.740  12.494
49412W        W15953  14.877  19.508   4.923
49413W        W15954  41.958  41.465   0.914
49414W        W15955  15.861  31.520  12.077
49415W        W15956   6.871  39.850  13.903
49416W        W15957  32.857   1.224  12.594
49417W        W15958  41.652  33.100   4.062
49418W        W15959  34.130  29.645   3.317
49419W        W15960  26.967  21.045  11.748
49420W        W15961  19.270  32.166  11.884
49421W        W15962  12.608   0.006  14.507
49422W        W15963  33.456  43.333   3.593
49423W        W15964  10.673  41.337  10.696
49424W        W15965  27.942  37.515  13.375
49425W        W15966  12.277  27.737  11.796
49426W        W15967   1.465  23.627   1.819
49427W        W15968  27.246  44.122  11.136
49428W        W15969  26.894  32.939   3.722
49429W        W15970  13.383  44.778  11.174
49430W        W15971  43.341  21.738  11.045
49431W        W15972  40.502  11.837  13.945
49432W        W15973  18.645  23.992   0.796
49433W        W15974  35.627  19.702   0.570
49434W        W15975  36.064  34.581  12.524
49435W        W15976  17.914  21.659   0.087
49436W        W15977  14.179  17.594   3.661
49437W        W15978  22.965   4.233  10.780
49438W        W15979  41.554  25.803  13.507
49439W        W15980  38.203  42.804  13.128
49440W        W15981  34.481   9.762  14.718
49441W        W15982  31.111   8.986   0.544
49442W        W15983  22.818  33.111  11.444
49443W        W15984  23.010  31.385   3.305
49444W        W15985  15.627  17.429   1.261
49445W        W15986   8.715  40.567   4.008
49446W        W15987   8.223  40.398  15.000
49447W        W15988  21.545  15.126   4.688
49448W        W15989   5.882  15.969  11.297
49449W        W15990  25.791   3.396   1.158
49450W        W15991   9.363  42.103  11.628
49451W        W15992  26.525  22.894   3.123
49452W        W15993  10.710   2.067  13.261
49453W        W15994   4.103  26.007   1.183
49454W        W15995  12.997   6.760   1.842
49455W        W15996   6.394  31.516  11.999
49456W        W15997  44.902  12.127  14.460
49457W        W15998  40.598  12.687   1.728
49458W        W15999  40.906   9.642  13.831
49459W        W16000  25.365   7.568  10.211
49460W        W16001  17.260  37.468  10.950
49461W        W16002   2.012  20.597  12.635
49462W        W16003  14.190  27.612   1.277
49463W        W16004  17.439  43.786  12.085
49464W        W16005   6.655  36.632  12.660
49465W        W16006  17.769  21.678   3.226
49466W        W16007  37.484   2.060  13.070
49467W        W16008  29.641  21.822  12.992
49468W        W16009  18.659  14.584  12.085
49469W        W16010  17.305  38.465   1.017
49470W        W16011  10.410  19.621   3.761
49471W        W16012  35.186  12.626  13.388
49472W        W16013  26.582  14.774   1.515
49473W        W16014  31.564  12.626   3.712
49474W        W16015   9.141  13.258  14.284
49475W        W16016  22.244  19.262   4.636
49476W        W16017  34.920  28.669  11.419
49477W        W16018  22.821  34.549   4.154
49478W        W16019  24.487   1.408   4.654
49479W        W16020  22.757  35.538  12.174
49480W        W16021  17.692  32.843   3.840
49481W        W16022   6.328  23.484   3.807
49482W        W16023   9.608  34.762  13.117
49483W        W16024  22.062  15.272  12.770
49484W        W16025  12.661  13.441  13.425
49485W        W16026  34.332  17.132  14.071
49486W        W16027   6.347  10.592   3.102
49487W        W16028  19.590  40.020   1.943
49488W        W16029  25.989   0.483  10.562
49489W        W16030  23.823   0.704   2.815
49490W        W16031  16.346  19.283  12.110
49491W        W16032  36.884  44.683  11.554
49492W        W16033  40.853  41.214   3.884
49493W        W16034  16.630  33.085  12.556
49494W        W16035  33.475   6.229  13.111
49495W        W16036  10.538   2.442   1.404
49496W        W16037   2.428  34.980  13.016
49497W        W16038  39.744  13.748  14.333
49498W        W16039  38.567  12.831   0.414
49499W        W16040  18.215  10.328  14.954
49500W        W16041  21.615  43.018  10.803
49501W        W16042   5.685   7.756   4.195
49502W        W16043  36.309  26.439   1.141
49503W        W16044  29.700   5.954  14.904
49504W        W16045  31.901  17.766   0.310
49505W        W16046  16.212  40.962  11.505
49506W        W16047  23.588  37.327   1.298
49507W        W16048  30.544  19.498   2.192
49508W        W16049   9.103  31.368  10.975
49509W        W16050  11.835  30.397  12.542
49510W        W16051  30.922  43.385   2.508
49511W        W16052   4.733  44.233   3.230
49512W        W16053  23.965   9.689   3.640
49513W        W16054  16.085  34.116   2.749
49514W        W16055  25.027  44.983  13.923
49515W        W16056  39.264  22.558  13.435
49516W        W16057   2.771  21.143  13.753
49517W        W16058  15.585   4.658   4.463
49518W        W16059  41.272  37.067   3.198
49519W        W16060  30.813  12.624  10.659
49520W        W16061  10.638  37.196   0.813
49521W        W16062  25.186  20.559  12.507
49522W        W16063  13.240  36.553   0.300
49523W        W16064  38.526  19.036  14.787
49524W        W16065  28.112  43.900   2.314
49525W        W16066   2.351  17.570  14.571
49526W        W16067  35.631  12.588  13.068
49527W        W16068   8.185  42.489   0.709
49528W        W16069  18.839   3.526   1.158
49529W        W16070  16.995  43.557  12.219
49530W        W16071  32.714  38.810  12.918
49531W        W16072  31.960  19.080  12.136
49532W        W16073  42.660   6.932   1.278
49533W        W16074   1.908  31.330   2.199
49534W        W16075  43.242   9.884  12.827
49535W        W16076  14.403   1.452  10.459
49536W        W16077  41.013  18.509   2.894
49537W        W16078   2.952  18.114   1.146
49538W        W16079  15.630  15.794   3.321
49539W        W16080  18.979   7.276   2.789
49540W        W16081  38.044  44.567   2.929
49541W        W16082  37.122  11.910  14.352
49542W        W16083   7.503  21.795   0.669
49543W        W16084  31.819   8.187   4.587
49544W        W16085  36.855  20.511  14.382
49545W        W16086  11.379  22.351  12.953
49546W        W16087  26.636   2.810   2.582
49547W        W16088   9.279   8.411  11.530
49548W        W16089  23.068  29.282   0.477
49549W        W16090   8.649  30.901  12.519
49550W        W16091  44.838   2.816  11.854
49551W        W16092  18.355  30.063  13.834
49552W        W16093  15.824  34.893  12.817
49553W        W16094   8.916  27.032  13.017
49554W        W16095  41.103  28.205   2.817
49555W        W16096  40.903  24.799  14.606
49556W        W16097   4.781  24.254   4.499
49557W        W16098  20.771   4.608  10.271
49558W        W16099   7.601  43.000  12.345
49559W        W16100  37.528  18.532   3.360
49560W        W16101   8.867  13.259  11.109
49561W        W16102  33.319  28.634   1.425
49562W        W16103  19.524  42.020   4.227
49563W        W16104  37.624  15.820  11.005
49564W        W16105  36.540  32.559  14.980
49565W        W16106  40.045  11.664   1.323
49566W        W16107  37.270  39.339   2.882
49567W        W16108   1.182   6.683  14.059
49568W        W16109  30.540  25.629  12.923
49569W        W16110  27.516  17.960   2.189
49570W        W16111  28.201  14.336  13.410
49571W        W16112   4.452  12.804  13.952
49572W        W16113  38.503   4.839   2.437
49573W        W16114   0.466  30.776  13.603
49574W        W16115   4.080  21.587  13.848
49575W        W16116   3.221  13.422   2.975
49576W        W16117  40.639  37.063  13.994
49577W        W16118  44.367  17.030  10.823
49578W        W16119  21.526  18.055   4.452
49579W        W16120  12.403  11.437   4.659
49580W        W16121  17.777  31.176  11.093
49581W        W16122  34.577  26.490   1.902
49582W        W16123   8.139  16.918  14.786
49583W        W16124  37.332  10.752  13.008
49584W        W16125  14.131  25.091  11.174
49585W        W16126  39.708  44.021  14.768
49586W        W16127  41.447  44.046  11.035
49587W        W16128  19.343  31.379   4.733
49588W        W16129  25.255  27.139   1.569
49589W        W16130   9.222  33.534   2.896
49590W        W16131  31.213  22.536   2.306
49591W        W16132  40.744  28.015  11.391
49592W        W16133  21.199  10.188   4.160
49593W        W16134  20.464   6.163  11.008
49594W        W16135  41.967   5.524   0.837
49595W        W16136  25.754   2.197   2.764
49596W        W16137   2.251  34.485  12.859
49597W        W16138  24.262  16.152   4.139
49598W        W16139  19.558  37.606  11.229
49599W        W16140  41.229  13.358  14.423
49600W        W16141  38.425  20.320   1.375
49601W        W16142  40.429   0.780   1.633
49602W        W16143   4.549   2.512  12.123
49603W        W16144  27.545   4.231   0.152
49604W        W16145  26.451   4.244  11.349
49605W        W16146  31.671  41.366  13.674
49606W        W16147  18.562  16.792   3.940
49607W        W16148  18.372  13.284   3.636
49608W        W16149  19.721  41.512   0.936
49609W        W16150   8.461  32.670  11.091
49610W        W16151  10.347   8.805   3.812
49611W        W16152  16.779  10.125  13.273
49612W        W16153  11.940  44.546  14.161
49613W        W16154   5.174  37.474  10.688
49614W        W16155  26.177  21.089   2.188
49615W        W16156  10.538  36.812  11.588
49616W        W16157  13.784  25.744   4.558
49617W        W16158  31.568  37.738  11.024
49618W        W16159   7.163  30.586   1.830
49619W        W16160  23.534   8.868   4.704
49620W        W16161  28.063  32.591   1.942
49621W        W16162   0.618  12.831  11.278
49622W        W16163  35.070  19.756  10.784
49623W        W16164  14.345  17.954  12.313
49624W        W16165  42.354   8.143  11.956
49625W        W16166  16.604  39.871  13.750
49626W        W16167   5.450   1.681  12.704
49627W        W16168  25.730  15.755   4.550
49628W        W16169  36.757  30.915   4.072
49629W        W16170  30.910  22.934  10.744
49630W        W16171   0.351  22.299   1.264
49631W        W16172  39.456  43.696  11.783
49632W        W16173  40.381  29.214  14.313
49633W        W16174   3.502  25.025  13.880
49634W        W16175  44.277  24.064  11.516
49635W        W16176  18.721  10.109  11.233
49636W        W16177  10.293  14.003   2.689
49637W        W16178   2.515  28.812  11.184
49638W        W16179  11.958  19.595  14.420
49639W        W16180  27.483  23.556  12.529
49640W        W16181  10.105  28.905  14.400
49641W        W16182   1.167  37.901   1.195
49642W        W16183  37.350   5.641  14.855
49643W        W16184  36.773  14.318   0.446
49644W        W16185  24.077  44.010  14.094
49645W        W16186  24.488   9.786  11.191
49646W        W16187  10.444   3.249  14.926
49647W        W16188  44.903  25.930   2.407
49648W        W16189  15.807  26.593  10.433
49649W        W16190   8.500  16.171   0.142
49650W        W16191  15.322   3.319  12.086
49651W        W16192   0.099  27.984  12.035
49652W        W16193  15.901  21.284  13.408
49653W        W16194  28.562  26.975   0.688
49654W        W16195   6.406  22.448  12.044
49655W        W16196   2.460  38.907  11.604
49656W        W16197  36.280  33.557  11.735
49657W        W16198  14.588   3.021  11.721
49658W        W16199  29.223  10.354   3.808
49659W        W16200  39.936  34.178  10.684
49660W        W16201  17.314  11.840   4.791
49661W        W16202  20.795  33.414   3.609
49662W        W16203   3.446  24.167   0.917
49663W        W16204   0.901  36.390   5.154
49664W        W16205  20.181  40.047  13.913
49665W        W16206  33.630  30.525  14.415
49666W        W16207  22.032  27.151  11.601
49667W        W16208  15.562   9.814  11.993
49668W        W16209  33.589  16.581  14.746
49669W        W16210   2.226  12.677  13.399
49670W        W16211   6.770  33.528   2.519
49671W        W16212  14.669  25.828   3.623
49672W        W16213  17.663  27.942   1.827
49673W        W16214   3.524  33.154   4.967
49674W        W16215  41.254  14.832   2.910
49675W        W16216  44.446  13.876  14.345
49676W        W16217  26.274  25.052  14.236
49677W        W16218  31.013  10.809  10.127
49678W        W16219  13.067  30.042   3.682
49679W        W16220  18.615   3.481   4.534
49680W        W16221  21.556  13.383  13.191
49681W        W16222   2.308  25.659   3.521
49682W        W16223  16.640  27.841  12.188
49683W        W16224  36.378   3.751  14.300
49684W        W16225   7.655   7.345  13.400
49685W        W16226  15.112  29.387  10.269
49686W        W16227   8.965  25.010  10.324
49687W        W16228  17.590  31.564  13.789
49688W        W16229   8.196  31.097  12.832
49689W        W16230  30.722   5.160   0.214
49690W        W16231  26.424  36.655  12.755
49691W        W16232  41.505  34.531  10.785
49692W        W16233  27.486  27.475   4.429
49693W        W16234   2.233  20.358   2.125
49694W        W16235  12.904  26.020  14.655
49695W        W16236   1.362  37.575  12.055
49696W        W16237   7.058  33.848  11.212
49697W        W16238  33.955  15.684  13.911
49698W        W16239  22.304  32.343   1.220
49699W        W16240  25.339  20.176   1.194
49700W        W16241   5.258  30.757   4.327
49701W        W16242  35.470  15.831  10.737
49702W        W16243  16.400  20.064  12.222
49703W        W16244   4.184  25.608   3.298
49704W        W16245   1.761  30.050   0.213
49705W        W16246  23.626  26.164   2.436
49706W        W16247  30.869  25.929   1.906
49707W        W16248  24.956  44.064   0.945
49708W        W16249  37.613  13.306   2.890
49709W        W16250  14.230  20.853   3.892
49710W        W16251   9.419   6.331  12.675
49711W        W16252  31.302  20.820  11.171
49712W        W16253  40.655   5.485  13.940
49713W        W16254  39.969  31.573  14.564
49714W        W16255   5.638   1.214   2.252
49715W        W16256  36.894  16.598  13.931
49716W        W16257  22.764  40.531   2.418
49717W        W16258  42.259  11.364   4.098
49718W        W16259  40.573   2.973   0.334
49719W        W16260  38.546  34.817  12.486
49720W        W16261  31.112  43.871  13.475
49721W        W16262  42.144  19.804   4.591
49722W        W16263   8.253  23.462   3.042
49723W        W16264  39.942   6.852   4.020
49724W        W16265  37.980   8.254   0.336
49725W        W16266   0.463  14.999  14.485
49726W        W16267  36.861  19.094   1.255
49727W        W16268  23.297  14.190  12.132
49728W        W16269  10.604   5.237   1.132
49729W        W16270  20.308  26.800   0.134
49730W        W16271  40.789   3.253   4.188
49731W        W16272   3.226  24.661   0.936
49732W        W16273  27.463  40.242   1.234
49733W        W16274  40.098   1.940  13.879
49734W        W16275   5.983  31.298  13.261
49735W        W16276  29.607  33.058  12.433
49736W        W16277  19.139  42.682   1.399
49737W        W16278  10.633  40.067   1.349
49738W        W16279  11.352  20.714  10.644
49739W        W16280  17.036  11.859   0.884
49740W        W16281   3.253   1.285   2.606
49741W        W16282  38.561  26.633  10.707
49742W        W16283  36.375  33.281   0.291
49743W        W16284  36.100  28.988   1.794
49744W        W16285  23.855  27.642  11.699
49745W        W16286  37.977  10.463   2.499
49746W        W16287  14.196   2.241  11.216
49747W        W16288  29.356  19.084  11.315
49748W        W16289  30.903  41.883   1.268
49749W        W16290   4.009  35.246   0.556
49750W        W16291  10.316   3.748  10.652
49751W        W16292  29.647  38.400   2.609
49752W        W16293  17.032  20.031   0.286
49753W        W16294  16.263   1.400   0.728
49754W        W16295  29.883  37.482   3.025
49755W        W16296  16.240  40.151  11.106
49756W        W16297  39.354  25.791  10.396
49757W        W16298  43.450  26.544   0.801
49758W        W16299  25.602  24.298   4.271
49759W        W16300   4.820  39.514  11.887
49760W        W16301  12.282  44.794  11.976
49761W        W16302  23.945   9.049   1.357
49762W        W16303  34.090   1.026  14.926
49763W        W16304  28.418   9.117   4.426
49764W        W16305  40.599  35.609   2.142
49765W        W16306  19.571  28.156  12.530
49766W        W16307  26.577  37.020   4.654
49767W        W16308  22.549  14.489   4.119
49768W        W16309   5.950  42.005   3.229
49769W        W16310  22.141  14.302   1.468
49770W        W16311  15.284   7.315   0.713
49771W        W16312  26.142  40.350   1.230
49772W        W16313  13.312  35.501   2.869
49773W        W16314  29.512  42.498  12.927
49774W        W16315   8.086   2.660   1.742
49775W        W16316   9.834  23.109   2.843
49776W        W16317  10.985  30.991  13.950
49777W        W16318  43.862  41.068   2.888
49778W        W16319   7.340  19.856   1.362
49779W        W16320  31.667  33.324   5.267
49780W        W16321  28.649  19.698  13.497
49781W        W16322  36.600  21.450  13.171
49782W        W16323  24.644  32.914  12.116
49783W        W16324  15.234   3.881   1.752
49784W        W16325  30.253  10.230   3.723
49785W        W16326  26.047   5.141   1.198
49786W        W16327   8.048  39.113  11.288
49787W        W16328  36.621  25.592   4.607
49788W        W16329  37.232  21.058  10.145
49789W        W16330   5.201  16.255   4.612
49790W        W16331  34.837  23.798  10.370
49791W        W16332  42.171  26.286   0.884
49792W        W16333  14.778  30.229   4.605
49793W        W16334  20.840  38.251   2.389
49794W        W16335  18.436  41.149  12.165
49795W        W16336   8.921   3.742   2.644
49796W        W16337   2.455  21.283   4.709
49797W        W16338  20.185  29.344  13.354
49798W        W16339  12.651  24.853  12.801
49799W        W16340  17.322  16.250   1.611
49800W        W16341   3.754  41.081   3.291
49801W        W16342  26.491  32.123  10.475
49802W        W16343  16.741  28.664  12.495
49803W        W16344  26.535  17.077   2.762
49804W        W16345   1.318  25.210   3.724
49805W        W16346   4.368  15.239   0.680
49806W        W16347   0.750  14.774  13.156
49807W        W16348  28.511  33.796  12.001
49808W        W16349  43.325  20.034  11.476
49809W        W16350   4.220  10.387   2.471
49810W        W16351  21.090  19.634   4.521
49811W        W16352  32.976  13.630  13.055
49812W        W16353  24.072  40.901  14.809
49813W        W16354   1.534  16.564  13.898
49814W        W16355  43.754  33.248   0.736
49815W        W16356  21.228   0.460   0.813
49816W        W16357  19.102   7.994   1.921
49817W        W16358  14.439   1.796  11.230
49818W        W16359  42.005  31.961  14.904
49819W        W16360   0.799  28.992   1.137
49820W        W16361  14.209  34.134   1.029
49821W        W16362  24.987  24.492   4.504
49822W        W16363   3.237  33.093  13.588
49823W        W16364  12.319  36.977  13.495
49824W        W16365  30.080   5.781   1.785
49825W        W16366   0.831  33.568  12.037
49826W        W16367   9.209  20.671   4.285
49827W        W16368   6.313  34.526   3.432
49828W        W16369  31.813  27.443   1.317
49829W        W16370  30.623   1.732  10.794
49830W        W16371  34.319  15.528  12.455
49831W        W16372  14.730  20.556  11.652
49832W        W16373   4.313  11.850  11.987
49833W        W16374   6.194  40.766   3.252
49834W        W16375  18.662   8.777  14.090
49835W        W16376  40.342  28.438   0.186
49836W        W16377  36.979  23.022   4.860
49837W        W16378   7.253   3.664   0.966
49838W        W16379  26.255  28.090  13.921
49839W        W16380  27.812  18.777   0.794
49840W        W16381  21.453  19.597  13.485
49841W        W16382  32.363  39.787   4.607
49842W        W16383  38.567  29.205   4.268
49843W        W16384  13.725  10.878  12.925
49844W        W16385   1.103  35.189  11.043
49845W        W16386  29.049  25.210  10.936
49846W        W16387   2.770  23.368  10.694
49847W        W16388  27.501  29.088   3.635
49848W        W16389  39.231  26.141   4.349
49849W        W16390  14.176  23.500   2.820
49850W        W16391  38.041  29.075  14.372
49851W        W16392  18.162  27.961   2.000
49852W        W16393  43.562  19.673  14.738
49853W        W16394  41.705  12.398   0.916
49854W        W16395   5.791  17.034  14.814
49855W        W16396  23.643  21.920   4.638
49856W        W16397   9.468  32.500   0.783
49857W        W16398  39.604  31.554   2.183
49858W        W16399  29.070  33.604  10.380
49859W        W16400   1.303  28.732  14.486
49860W        W16401   4.647   5.988   1.313
49861W        W16402  41.926  19.276  12.570
49862W        W16403  27.013  42.433   3.771
49863W        W16404   0.027   1.125   3.377
49864W        W16405  14.842   6.745  11.572
49865W        W16406   9.409  18.761  11.615
49866W        W16407  12.212  44.698  13.748
49867W        W16408  16.156  13.931  13.022
49868W        W16409  24.928  18.560  14.577
49869W        W16410   8.888  19.184   0.497
49870W        W16411  36.156   2.511  13.385
49871W        W16412  42.863  21.708   3.256
49872W        W16413  40.148  38.959   4.530
49873W        W16414  10.051  14.658  10.760
49874W        W16415  26.023  12.244   0.464
49875W        W16416  30.509  13.846  14.035
49876W        W16417  23.950  19.324   0.979
49877W        W16418  20.674  15.428   9.847
49878W        W16419  43.876  28.019   1.807
49879W        W16420   3.143  29.602   3.715
49880W        W16421   6.904  31.474  13.441
49881W        W16422  44.790  17.723   1.470
49882W        W16423  16.105  23.182   2.020
49883W        W16424  33.786  34.246  10.747
49884W        W16425  18.723  33.316  11.814
49885W        W16426  44.984  15.833   4.050
49886W        W16427   3.343  15.107   0.974
49887W        W16428  31.356  34.506  14.721
49888W        W16429  30.082   1.479   2.431
49889W        W16430   8.246  18.926  12.476
49890W        W16431   3.487  28.132  14.099
49891W        W16432   6.617  43.756  12.449
49892W        W16433  22.220  27.877   2.237
49893W        W16434   6.483  37.591  12.538
49894W        W16435  43.732   1.454   1.728
49895W        W16436  21.453  25.963   1.794
49896W        W16437  41.188  41.589  12.482
49897W        W16438  19.842  16.554   4.069
49898W        W16439   7.563  33.160   2.629
49899W        W16440  25.249  25.927   0.303
49900W        W16441  34.944  12.628   1.122
49901W        W16442  38.459  21.744  10.638
49902W        W16443  14.840  39.360  12.023
49903W        W16444  42.665   7.100  10.105
49904W        W16445  37.634   3.292  11.614
49905W        W16446  11.626   1.346  14.805
49906W        W16447  24.685  39.541  12.901
49907W        W16448  10.512  32.632   0.826
49908W        W16449  35.394  27.101  13.010
49909W        W16450  42.238   2.877  14.490
49910W        W16451  30.138  35.813   4.104
49911W        W16452   6.780   1.538   3.673
49912W        W16453  42.946  14.681  12.662
49913W        W16454  19.524  29.611  12.538
49914W        W16455   0.877  14.233  10.130
49915W        W16456  23.482  16.008   4.465
49916W        W16457  31.951  22.550   0.982
49917W        W16458   6.380  11.462  14.799
49918W        W16459  43.803  25.045  13.085
49919W        W16460   2.665  10.872   1.734
49920W        W16461   6.308  18.038  12.857
49921W        W16462  31.478   3.681  11.118
49922W        W16463  24.202   6.686  11.636
49923W        W16464  29.634  25.784   0.306
49924W        W16465  11.738  39.403   4.345
49925W        W16466  36.100  35.019   4.610
49926W        W16467  35.027   9.780  10.697
49927W        W16468  29.547  29.026  14.912
49928W        W16469  23.796  13.556   1.738
49929W        W16470  43.942  26.501  11.863
49930W        W16471  10.723   3.638  10.333
49931W        W16472  33.377   4.264  12.309
49932W        W16473  21.514   3.757   2.464
49933W        W16474  23.120  33.370   3.097
49934W        W16475   3.877  28.239   4.230
49935W        W16476  12.848  29.447   2.865
49936W        W16477  42.041   4.799   2.354
49937W        W16478  28.638  23.617   4.390
49938W        W16479  30.762  39.428   0.373
49939W        W16480  32.024  29.073   0.512
49940W        W16481   7.691  15.739   2.763
49941W        W16482  38.782  34.671  14.624
49942W        W16483   3.443   4.648  10.168
49943W        W16484   7.270  25.448   3.176
49944W        W16485   8.467  27.107  14.497
49945W        W16486  43.607  43.282  11.007
49946W        W16487  38.645  24.264   2.746
49947W        W16488  32.003  35.345  12.803
49948W        W16489  14.007  39.936  12.057
49949W        W16490  12.835  17.660   3.366
49950W        W16491  26.784  23.681  10.386
49951W        W16492  43.434  32.158  12.491
49952W        W16493  20.633  43.058  10.804
49953W        W16494  23.040  11.769  10.508
49954W        W16495  32.864   6.217   2.279
49955W        W16496  30.603  20.230  13.925
49956W        W16497  26.123  16.030   0.429
49957W        W16498  18.534  43.555   4.106
49958W        W16499  44.330   6.659  11.624
49959W        W16500   1.107   3.411  10.135
49960W        W16501   2.030  37.928   2.408
49961W        W16502  31.621  37.460   1.244
49962W        W16503  37.832   3.314  13.628
49963W        W16504   5.647  24.510   2.046
49964W        W16505  24.437  26.951   0.876
49965W        W16506  23.211  40.524   1.206
49966W        W16507  25.614  25.221   1.696
49967W        W16508  32.569  32.634  13.305
49968W        W16509  12.247  39.934  13.485
49969W        W16510   0.294  17.590  10.700
49970W        W16511  23.519  41.510   1.844
49971W        W16512  26.536  28.589  11.442
49972W        W16513  28.402  26.228   3.923
49973W        W16514  34.898  25.889   3.670
49974W        W16515  32.854  21.532  10.823
49975W        W16516   8.405  30.179  13.543
49976W        W16517  37.476  22.329   1.655
49977W        W16518   4.983  31.494   4.108
49978W        W16519   8.976  17.830   2.248
49979W        W16520  20.991  17.068   2.766
49980W        W16521   9.446   1.454  11.205
49981W        W16522  26.337   7.773   5.016
49982W        W16523  12.111  40.270  11.506
49983W        W16524  13.087  11.162   1.049
49984W        W16525  20.436   9.437   0.725
49985W        W16526   1.005  21.711  14.574
49986W        W16527   8.562  21.310  11.614
49987W        W16528  21.972  16.742   0.784
49988W        W16529  20.260   4.796  11.649
49989W        W16530  42.192  26.348   3.653
49990W        W16531  33.503  31.021   3.017
49991W        W16532  26.171  26.576   3.815
49992W        W16533  15.010  14.172  12.581
49993W        W16534  28.487   3.827  10.634
49994W        W16535  35.051  14.538   2.700
49995W        W16536  42.198   9.304  12.974
49996W        W16537   6.320   3.384   3.714
49997W        W16538   7.002  18.014   1.880
49998W        W16539  41.029  30.688  13.863
49999W        W16540  10.360   0.967  14.820
50000W        W16541  35.354  38.612  11.970
50001W        W16542  11.399  23.767  11.637
50002W        W16543  23.995  35.538  10.765
50003W        W16544   5.335  37.257   2.753
50004W        W16545   3.137  41.918  13.179
50005W        W16546  37.973  33.256   2.704
50006W        W16547  28.054  37.327   3.100
50007W        W16548  33.234  34.471  11.334
50008W        W16549  12.236  41.531   2.437
50009W        W16550  40.781  35.340  13.758
50010W        W16551  11.406  19.735   2.644
50011W        W16552  43.372  35.395  11.647
50012W        W16553  39.012  37.212   0.974
50013W        W16554  13.624  41.642   2.934
50014W        W16555  33.329  36.812   2.664
50015W        W16556  23.530   0.639  14.902
50016W        W16557  28.179  19.614   2.610
50017W        W16558  10.378   2.350  12.594
50018W        W16559  43.392  10.341  11.204
50019W        W16560  37.003  38.880  11.600
50020W        W16561  23.129  24.028  10.746
50021W        W16562  29.309  16.905  14.314
50022W        W16563   7.857  38.763   3.724
50023W        W16564  12.546  31.028  12.489
50024W        W16565  41.527   5.617  14.311
50025W        W16566  22.830   8.996   0.454
50026W        W16567  26.766   3.192   3.326
50027W        W16568  42.120  11.971   2.194
50028W        W16569  24.552  16.310   1.290
50029W        W16570  43.831  27.440   2.714
50030W        W16571  10.684  27.294  14.839
50031W        W16572  36.551  26.103   0.478
50032W        W16573  28.582  20.985  11.333
50033W        W16574  23.378   7.919   3.700
50034W        W16575   1.186  28.299   0.322
50035W        W16576  18.489  40.692   0.886
50036W        W16577   4.974  24.974  11.603
50037W        W16578   2.874  44.772  11.498
50038W        W16579  22.203  22.533   0.892
50039W        W16580  10.588  44.765   1.635
50040W        W16581   6.851  44.849  14.292
50041W        W16582  44.366   2.663   3.789
50042W        W16583  41.387  14.858   3.423
50043W        W16584  30.655  15.876   2.937
50044W        W16585  20.131  39.355   3.693
50045W        W16586   5.847  32.245  13.031
50046W        W16587  37.831  21.102  14.317
50047W        W16588  20.375  32.722  13.934
50048W        W16589  14.804  22.818  11.100
50049W        W16590  26.815   0.773  10.518
50050W        W16591  15.278  22.021   0.323
50051W        W16592   0.524  25.067  14.581
50052W        W16593  16.379  31.749  12.989
50053W        W16594  11.823   4.463  14.891
50054W        W16595   9.351  44.981   3.180
50055W        W16596  22.431  31.238  14.827
50056W        W16597   4.168   4.377   4.702
50057W        W16598  15.705  12.801  12.486
50058W        W16599  23.742   9.206   0.900
50059W        W16600  35.325  15.434   1.203
50060W        W16601   1.421  39.815   1.033
50061W        W16602  16.195   8.280  12.439
50062W        W16603  10.502   4.952  12.985
50063W        W16604  33.483  35.380   2.679
50064W        W16605  40.627  17.927  11.342
50065W        W16606   0.737  14.046  12.175
50066W        W16607  10.271  17.002   1.888
50067W        W16608  10.974  26.144  13.495
50068W        W16609  20.674  35.037   1.814
50069W        W16610  32.005  11.147  10.659
50070W        W16611   1.752  37.070  11.492
50071W        W16612  10.222  43.242  13.576
50072W        W16613   9.614  38.684   2.215
50073W        W16614  28.314  30.542   2.769
50074W        W16615  42.251   3.273  10.269
50075W        W16616  37.149  33.908   1.362
50076W        W16617   9.916   7.838  10.529
50077W        W16618  24.113  43.507  14.773
50078W        W16619   9.160  20.972  14.878
50079W        W16620  31.050  17.737   3.104
50080W        W16621  10.978  16.396   0.819
50081W        W16622  34.862   6.132   3.388
50082W        W16623   1.253   4.263   0.054
50083W        W16624   6.350  40.966   1.836
50084W        W16625  32.848  30.609  14.819
50085W        W16626  13.277  28.478  13.074
50086W        W16627  30.659  23.009  14.901
50087W        W16628  31.046  20.825   4.629
50088W        W16629  30.735  32.083  14.499
50089W        W16630   5.874   9.066   4.779
50090W        W16631  19.042  18.983  13.556
50091W        W16632  32.470   8.183   2.669
50092W        W16633   8.083  10.443  13.000
50093W        W16634  23.669  26.577   1.060
50094W        W16635   6.095  43.704   1.677
50095W        W16636  38.654  35.729  14.290
50096W        W16637  11.313   0.024  12.033
50097W        W16638  12.664   7.859  12.167
50098W        W16639  28.346  22.141   2.340
50099W        W16640  15.644  30.244   2.097
50100W        W16641  35.180   4.317   1.358
50101W        W16642  31.549  42.464   0.159
50102W        W16643   5.279  36.979  10.561
50103W        W16644  25.994  10.885  13.013
50104W        W16645  39.992  33.549  12.793
50105W        W16646  24.569  20.210  14.542
50106W        W16647  21.225  33.311   4.122
50107W        W16648   4.931  42.555  13.308
50108W        W16649   9.712   6.086  11.970
50109W        W16650   3.261  35.491   9.607
50110W        W16651  35.023  31.565   1.394
50111W        W16652  13.216  30.478   4.563
50112W        W16653  31.323  33.982  12.064
50113W        W16654  20.507  12.632   2.881
50114W        W16655  24.976   1.748   3.747
50115W        W16656  26.635  14.071  10.345
50116W        W16657   9.275  43.112   3.350
50117W        W16658  26.854  20.636  13.913
50118W        W16659  11.220  39.943  11.744
50119W        W16660  11.298  26.191   3.036
50120W        W16661  12.266  11.199  11.172
50121W        W16662   8.306  20.205   5.258
50122W        W16663   6.842  27.754  10.958
50123W        W16664  23.266  40.501   2.372
50124W        W16665  13.144  19.126   1.927
50125W        W16666  18.244  34.278   4.688
50126W        W16667  19.117  24.863   4.492
50127W        W16668  28.828  27.555  14.847
50128W        W16669  27.461  24.398   2.970
50129W        W16670  27.553  29.010  11.697
50130W        W16671  37.816  28.210   2.395
50131W        W16672  27.463  44.468   3.294
50132W        W16673  41.076  38.928   3.131
50133W        W16674   0.459   8.385  12.939
50134W        W16675  31.061  22.262   3.721
50135W        W16676  29.471  32.521  11.125
50136W        W16677  33.632  13.216  12.628
50137W        W16678  30.604  40.308   2.196
50138W        W16679  42.311   9.806   1.757
50139W        W16680   4.267   4.767   2.721
50140W        W16681  21.470  39.493  11.699
50141W        W16682  13.497   6.942  13.371
50142W        W16683  37.849  37.453   3.827
50143W        W16684  43.761  21.614   3.853
50144W        W16685  39.595  17.327   5.343
50145W        W16686  18.038  33.917   2.746
50146W        W16687  38.620  29.149   2.414
50147W        W16688  39.985  36.079   2.824
50148W        W16689  32.071   9.138   0.099
50149W        W16690  34.830   6.306   3.867
50150W        W16691  22.665  37.984   1.117
50151W        W16692  26.415  37.915   2.372
50152W        W16693   7.752  40.089   2.200
50153W        W16694  10.395  25.374   9.810
50154W        W16695  20.059  39.991   3.280
50155W        W16696   9.293  27.920  11.898
50156W        W16697  17.533  44.338  13.141
50157W        W16698  42.881  34.401  11.185
50158W        W16699  22.540  29.124  14.050
50159W        W16700   2.666   3.808  11.734
50160W        W16701  11.646  22.142   4.703
50161W        W16702  33.961  17.665   4.081
50162W        W16703  33.686  37.031  12.111
50163W        W16704  32.491   4.265   0.596
50164W        W16705  26.904  29.676   2.845
50165W        W16706  15.453  26.497   1.320
50166W        W16707  21.974  36.753  12.278
50167W        W16708  19.231   5.137   2.213
50168W        W16709  22.584   7.229   4.594
50169W        W16710  43.442   4.433  13.431
50170W        W16711  23.534  20.025   0.408
50171W        W16712  14.841  28.915   4.940
50172W        W16713  34.615  13.044   2.842
50173W        W16714  21.289  22.106  13.886
50174W        W16715  26.911   1.799  11.633
50175W        W16716  30.896  17.657   0.194
50176W        W16717   2.836   9.456   4.526
50177W        W16718  17.648   1.556   4.139
50178W        W16719  21.042  12.660  13.941
50179W        W16720   7.402  35.176   2.364
50180W        W16721  28.504  17.220  12.143
50181W        W16722  34.534   4.051   4.821
50182W        W16723  24.098   2.022   4.179
50183W        W16724  12.166   8.382  13.366
50184W        W16725  41.058  34.809   3.631
50185W        W16726  22.431   5.331   2.748
50186W        W16727  37.239   7.360  11.121
50187W        W16728  17.402  27.954   2.301
50188W        W16729  18.745  12.632   4.964
50189W        W16730   7.872   2.949   2.220
50190W        W16731  17.247  26.080  12.138
50191W        W16732  15.591  30.952   3.300
50192W        W16733   1.940  36.631   1.929
50193W        W16734   7.493  36.622  11.683
50194W        W16735   4.914   3.220   3.603
50195W        W16736   7.765   7.521   4.839
50196W        W16737  42.221  19.234  10.597
50197W        W16738   3.497  14.211  10.166
50198W        W16739   8.332  25.060   3.832
50199W        W16740   8.240   9.738  12.816
50200W        W16741  25.586  19.613   3.598
50201W        W16742  39.891   9.202   4.369
50202W        W16743  18.538   6.327   2.736
50203W        W16744  22.794  16.966   0.321
50204W        W16745   1.416  36.454   4.140
50205W        W16746  17.628  31.973  12.649
50206W        W16747   1.019  38.019   2.601
50207W        W16748   3.598  38.737   3.282
50208W        W16749  34.982   6.175   2.831
50209W        W16750  20.077  43.810  13.534
50210W        W16751  28.186   6.167   5.115
50211W        W16752  31.389  30.939   2.634
50212W        W16753   8.963  18.168   4.735
50213W        W16754  13.210  43.597  11.373
50214W        W16755  33.004  26.610   3.401
50215W        W16756  32.575  33.492   4.552
50216W        W16757   6.197  10.007   3.883
50217W        W16758  32.289  34.680   1.016
50218W        W16759  22.127  18.449   1.423
50219W        W16760  15.841  36.692   1.191
50220W        W16761   6.286  26.442   2.402
50221W        W16762  44.545  21.228   1.248
50222W        W16763  20.189  41.692  13.401
50223W        W16764  15.597  17.941   1.210
50224W        W16765   5.475  43.979  10.395
50225W        W16766   7.286  42.749  11.228
50226W        W16767  44.293   9.643   1.651
50227W        W16768  36.743   7.781   4.117
50228W        W16769  16.953   9.909  13.693
50229W        W16770   3.213   4.339   2.405
50230W        W16771  32.371   5.743  13.847
50231W        W16772  33.917   4.487  14.531
50232W        W16773   7.631  20.030   0.151
50233W        W16774  13.456  15.538  11.490
50234W        W16775   7.253  30.329  10.699
50235W        W16776  42.460   5.756   1.665
50236W        W16777  43.100  26.178  12.993
50237W        W16778  39.245  10.034   4.012
50238W        W16779   0.540  24.671   0.332
50239W        W16780  11.254   4.798   2.118
50240W        W16781  23.753  12.790   3.564
50241W        W16782   9.751  42.602  11.060
50242W        W16783  30.606   4.511   3.148
50243W        W16784   8.308   0.765  11.490
50244W        W16785  27.599  15.208  13.402
50245W        W16786   0.462  29.980   0.899
50246W        W16787  37.342  24.628   1.137
50247W        W16788  19.744   0.467  11.337
50248W        W16789  43.996   1.760  10.660
50249W        W16790  30.694  26.984   2.970
50250W        W16791  41.488   1.242  11.499
50251W        W16792  19.129  31.721  13.015
50252W        W16793  22.739  10.095  10.882
50253W        W16794  17.653   4.266  11.627
50254W        W16795  32.056  19.132  13.059
50255W        W16796  24.479  23.481   3.665
50256W        W16797  21.982  35.043   2.117
50257W        W16798   3.699  42.527  12.909
50258W        W16799   8.173  13.145   3.816
50259W        W16800  11.170  10.611   1.160
50260W        W16801  22.757  34.529  13.355
50261W        W16802   0.780  14.118  10.628
50262W        W16803  44.902  43.600  12.581
50263W        W16804   7.001  26.349   2.848
50264W        W16805  21.528  35.473   4.829
50265W        W16806  15.641  43.848   3.208
50266W        W16807  10.786  11.674  12.498
50267W        W16808  12.855  26.988   3.321
50268W        W16809  44.294   1.752   3.996
50269W        W16810  19.037  36.046  12.478
50270W        W16811   6.651   2.430   3.180
50271W        W16812  35.840  20.250  10.693
50272W        W16813  33.472   8.445   1.792
50273W        W16814  17.382  44.988  10.690
50274W        W16815  17.000  15.377   3.202
50275W        W16816  22.663   1.790  14.444
50276W        W16817  16.842  41.367   0.983
50277W        W16818  37.820  21.673   3.873
50278W        W16819  14.276  11.692   1.341
50279W        W16820  15.680  28.359  10.857
50280W        W16821  28.042  10.675  10.631
50281W        W16822  20.057   5.370  13.451
50282W        W16823   5.964  38.556   3.715
50283W        W16824  24.496  36.469   3.140
50284W        W16825   6.277  30.451   3.649
50285W        W16826  23.497  30.099  13.415
50286W        W16827   6.910  38.573   3.265
50287W        W16828  22.535   5.322  14.958
50288W        W16829  27.561  33.259   0.390
50289W        W16830  22.319  43.055  13.918
50290W        W16831   4.161  21.219   2.761
50291W        W16832   7.780  13.227   4.653
50292W        W16833  11.812  17.206  13.216
50293W        W16834  14.073  37.102   1.298
50294W        W16835  27.227   0.366   3.702
50295W        W16836  16.699  38.967  13.925
50296W        W16837  11.125  21.217   0.516
50297W        W16838  27.590  37.416  12.094
50298W        W16839   6.283   7.872   2.318
50299W        W16840  29.265  18.409  12.393
50300W        W16841   4.676  13.064   1.212
50301W        W16842  39.870  23.171   0.439
50302W        W16843  24.526  41.142  13.490
50303W        W16844  42.185  23.644  14.515
50304W        W16845  37.189  16.811  14.291
50305W        W16846  14.675  41.917   3.614
50306W        W16847  31.383  44.356   3.805
50307W        W16848  31.434   2.986  11.517
50308W        W16849  14.897  26.138   0.966
50309W        W16850  12.848  12.545  12.595
50310W        W16851  42.370  21.754   3.960
50311W        W16852  27.980  27.121  13.104
50312W        W16853  22.586   9.352   1.371
50313W        W16854   5.979  44.776  10.266
50314W        W16855  42.173   6.917   5.140
50315W        W16856  17.750  19.615   2.423
50316W        W16857  30.579  34.092   1.254
50317W        W16858  13.688  33.482  11.313
50318W        W16859   8.166  14.052   2.134
50319W        W16860  13.587   5.641  11.179
50320W        W16861  22.019  13.216   1.236
50321W        W16862  36.484  35.867  13.491
50322W        W16863  27.772   2.378  11.520
50323W        W16864  43.300  17.840   3.281
50324W        W16865   8.335  12.716   4.614
50325W        W16866   1.049  21.451  12.607
50326W        W16867  18.532   2.947  14.223
50327W        W16868  26.665  17.192   0.176
50328W        W16869  24.545  11.447   0.388
50329W        W16870  33.921  41.503   4.009
50330W        W16871  30.478  18.356   0.826
50331W        W16872   6.736  23.766   3.631
50332W        W16873  26.429  39.235  11.644
50333W        W16874  38.506  13.323  14.764
50334W        W16875  38.358   3.210  13.680
50335W        W16876  29.716   6.156   3.039
50336W        W16877  12.233  20.653   1.543
50337W        W16878  30.549  19.927   2.481
50338W        W16879  27.728  43.042  10.111
50339W        W16880  11.881   9.820   4.164
50340W        W16881  41.837  34.378  13.441
50341W        W16882   8.188  32.124  11.666
50342W        W16883  35.319  25.905  12.129
50343W        W16884   0.211  12.600   4.608
50344W        W16885  39.940  26.777  12.141
50345W        W16886  38.784   5.862   1.235
50346W        W16887  12.598  11.623  10.790
50347W        W16888   2.762  20.610  14.956
50348W        W16889  26.247  40.486  12.001
50349W        W16890   5.942   9.526   1.063
50350W        W16891  44.353  43.240  11.655
50351W        W16892  40.757  18.024  14.606
50352W        W16893  18.152  34.574   2.137
50353W        W16894   5.105  19.691  14.384
50354W        W16895   1.481  18.319   3.350
50355W        W16896   3.727  23.494   3.181
50356W        W16897   6.263   0.465  12.101
50357W        W16898  43.411  36.526   1.418
50358W        W16899  27.616   0.187   2.703
50359W        W16900  13.293  34.002   0.524
50360W        W16901  20.828  11.548   4.329
50361W        W16902   6.169   6.756   3.739
50362W        W16903  15.666  13.190  14.740
50363W        W16904  42.473   6.628   1.666
50364W        W16905  35.382  24.454  12.442
50365W        W16906  43.321   1.222  13.443
50366W        W16907  14.205  11.720   2.351
50367W        W16908  24.087  30.598  10.455
50368W        W16909   8.334  12.460  11.540
50369W        W16910  26.698  14.161   3.109
50370W        W16911  40.514  44.857   1.670
50371W        W16912  35.004  19.267  14.416
50372W        W16913   4.373  14.365  13.819
50373W        W16914   2.155   8.937   2.796
50374W        W16915  39.472   9.743   1.044
50375W        W16916  40.446  27.928   2.782
50376W        W16917  21.255  19.344  14.571
50377W        W16918  17.968   4.861  11.596
50378W        W16919  20.122  21.257   1.259
50379W        W16920  25.745  39.491   1.634
50380W        W16921  25.018  20.564  11.852
50381W        W16922  43.223  32.479  14.456
50382W        W16923  22.226  14.331  13.011
50383W        W16924  44.226   5.349   0.117
50384W        W16925  28.891   4.244  14.802
50385W        W16926  14.047  28.198   1.422
50386W        W16927  19.057   6.730   4.702
50387W        W16928   4.689   2.458  14.480
50388W        W16929   7.735   8.641  12.322
50389W        W16930  17.795  21.456   2.736
50390W        W16931  24.781  34.526  11.406
50391W        W16932  36.137  35.326  10.876
50392W        W16933  29.516   8.367   2.751
50393W        W16934  28.586   4.384   4.592
50394W        W16935   2.366   8.811   3.715
50395W        W16936  23.388  18.998   4.261
50396W        W16937  30.875   9.196  14.338
50397W        W16938  20.817  21.511  12.067
50398W        W16939  42.430  17.577  10.861
50399W        W16940   4.792   4.758  13.554
50400W        W16941  16.982  17.364  10.984
50401W        W16942  42.268  24.310   2.912
50402W        W16943  12.360  11.281  13.544
50403W        W16944  12.917   4.282   1.413
50404W        W16945  16.344  13.018  12.084
50405W        W16946  11.936  39.458  10.023
50406W        W16947   2.133  28.341   5.510
50407W        W16948  26.943  33.219   1.364
50408W        W16949  43.933  25.036   2.888
50409W        W16950  44.660  39.044  13.200
50410W        W16951  19.404  32.448  13.857
50411W        W16952  44.597  14.223  14.726
50412W        W16953  21.451  44.022   3.851
50413W        W16954  25.228  28.277  14.552
50414W        W16955  28.336  38.759   3.678
50415W        W16956  41.628  17.027   4.648
50416W        W16957  38.973  32.903  10.604
50417W        W16958  43.474  24.631  12.970
50418W        W16959   7.884  30.087   3.620
50419W        W16960  14.226  37.507   0.309
50420W        W16961  21.734  29.583   3.497
50421W        W16962   5.283  15.405  12.144
50422W        W16963  41.065  12.945   1.807
50423W        W16964  40.318  29.607   3.801
50424W        W16965  13.957  26.389  11.593
50425W        W16966  13.826  36.758  14.309
50426W        W16967   1.619  20.278  12.056
50427W        W16968   2.416  11.454   0.932
50428W        W16969  39.831  26.398  10.752
50429W        W16970  18.431  14.215  14.781
50430W        W16971   0.468   3.957   0.838
50431W        W16972  23.180  40.597  11.092
50432W        W16973  18.007  34.807   2.575
50433W        W16974  33.541  15.894   3.373
50434W        W16975  40.375  26.505   0.057
50435W        W16976  23.524  35.572   4.617
50436W        W16977  12.762  32.505   4.600
50437W        W16978  15.547  24.701   1.333
50438W        W16979  38.955  11.299   0.125
50439W        W16980  27.487  20.564  11.707
50440W        W16981  22.602  25.587  10.523
50441W        W16982  27.591  18.251   3.762
50442W        W16983   8.389  29.157   1.404
50443W        W16984   6.285  43.301  11.109
50444W        W16985  14.593  30.186   2.747
50445W        W16986  19.771   4.018  11.646
50446W        W16987  26.929  32.220  11.659
50447W        W16988  31.443   0.428  11.059
50448W        W16989   3.662  24.321  14.210
50449W        W16990  37.396  14.480  13.431
50450W        W16991  17.522  39.916  11.631
50451W        W16992  41.024  40.887  12.155
50452W        W16993  21.493  36.373   2.789
50453W        W16994  37.179  37.783   0.168
50454W        W16995  11.857  17.594  13.991
50455W        W16996  31.558  22.160  11.593
50456W        W16997  39.124  13.590   3.360
50457W        W16998   4.989   3.843  12.097
50458W        W16999  30.805  20.700  13.916
50459W        W17000  14.393  19.179   2.307
50460W        W17001  36.291   0.892  14.998
50461W        W17002   9.288   7.313   2.830
50462W        W17003  26.275   5.530   2.797
50463W        W17004  15.011  26.512  10.694
50464W        W17005  40.744  18.537   2.059
50465W        W17006  30.035  39.811  13.109
50466W        W17007  23.567  24.416   0.441
50467W        W17008   0.343  12.051  11.935
50468W        W17009  24.363  16.290  14.094
50469W        W17010  39.595  42.535   3.722
50470W        W17011  13.635  40.276   3.997
50471W        W17012  32.860  39.951   4.641
50472W        W17013   8.003   9.749  13.268
50473W        W17014   3.724   0.630  11.145
50474W        W17015  39.471  23.197  12.814
50475W        W17016  33.651  29.029   4.215
50476W        W17017  14.155  37.294   4.550
50477W        W17018  21.240  24.430  10.770
50478W        W17019   0.029   4.963  12.090
50479W        W17020  24.650  34.407  10.940
50480W        W17021   8.187  23.944  13.774
50481W        W17022  14.379   6.776  13.044
50482W        W17023   1.664  30.289   3.568
50483W        W17024  18.543  26.881   3.845
50484W        W17025  42.067  24.419  11.153
50485W        W17026   0.927  22.505  12.418
50486W        W17027  43.086  20.768  14.308
50487W        W17028  33.236  31.687   3.749
50488W        W17029   2.355  27.301   4.646
50489W        W17030  17.887   9.931  14.994
50490W        W17031  42.308   4.923   1.886
50491W        W17032  35.015  14.195  13.821
50492W        W17033   9.911  31.555  11.177
50493W        W17034  40.979   3.942   0.004
50494W        W17035   9.840  29.797  12.619
50495W        W17036  43.815  22.507   3.656
50496W        W17037  18.092   6.116   1.518
50497W        W17038  30.202   8.713   4.231
50498W        W17039  37.148   5.105   4.691
50499W        W17040  21.041  35.597  14.769
50500W        W17041  32.378  12.123   4.501
50501W        W17042  29.214  16.724  14.766
50502W        W17043  35.331   4.707  13.363
50503W        W17044  41.629   4.786   4.070
50504W        W17045  10.236  23.107  10.567
50505W        W17046  14.194   3.314   3.365
50506W        W17047  17.378   3.337   0.904
50507W        W17048  28.494  42.918  12.605
50508W        W17049  11.301  13.398   4.554
50509W        W17050  35.420   3.863   1.459
50510W        W17051  13.253  36.945   1.761
50511W        W17052   2.991  13.721  12.221
50512W        W17053  10.688   3.430  10.822
50513W        W17054  44.453  42.231  12.366
50514W        W17055  38.182  31.497  13.986
50515W        W17056  34.641   4.323   1.997
50516W        W17057  11.083  38.094  11.467
50517W        W17058  16.767  28.916   3.243
50518W        W17059   9.105   5.526   0.297
50519W        W17060  44.217  21.438   0.304
50520W        W17061   1.246  19.140   3.541
50521W        W17062  13.752  40.717   0.677
50522W        W17063   9.410  18.938   2.470
50523W        W17064  21.284  23.169  12.011
50524W        W17065  19.296  22.247   3.677
50525W        W17066  37.606  34.061   2.784
50526W        W17067  39.787  39.780  10.741
50527W        W17068   7.512  25.157  12.619
50528W        W17069  27.143  25.408  11.215
50529W        W17070  12.706  41.289   4.086
50530W        W17071  28.572  40.786   0.387
50531W        W17072  22.086   6.322  13.118
50532W        W17073  40.051  28.761  14.903
50533W        W17074  28.709  27.931   2.540
50534W        W17075  37.337  10.834   0.249
50535W        W17076  21.761  43.538   2.134
50536W        W17077  29.967  43.327   4.405
50537W        W17078   2.400   7.233   4.592
50538W        W17079   9.420  28.944   4.344
50539W        W17080  44.710  33.616  14.998
50540W        W17081   8.523  13.061   2.405
50541W        W17082   3.076  24.657  11.119
50542W        W17083  24.971  40.083  14.059
50543W        W17084  12.603   8.824   2.139
50544W        W17085  40.522  34.095   2.113
50545W        W17086  16.305  21.870   2.320
50546W        W17087  29.897  20.697  11.998
50547W        W17088  36.260  22.835  13.173
50548W        W17089   0.216  30.420   0.953
50549W        W17090   3.159  28.627   3.763
50550W        W17091  31.979  31.019   3.903
50551W        W17092   0.662  28.565   1.987
50552W        W17093  38.824  29.534  12.646
50553W        W17094  24.280  27.035   2.997
50554W        W17095  14.192   4.804   4.056
50555W        W17096  24.031  33.402  12.471
50556W        W17097   3.383  20.481   2.343
50557W        W17098   4.814  22.192  14.912
50558W        W17099  26.661  18.451   0.147
50559W        W17100  24.205  28.172   4.062
50560W        W17101  34.491  19.744   0.035
50561W        W17102  22.595   8.813  11.498
50562W        W17103  34.545   7.659   3.634
50563W        W17104  11.123  12.476   3.239
50564W        W17105  17.670  36.611   4.283
50565W        W17106  20.090  28.567  12.032
50566W        W17107  19.102  31.222  12.962
50567W        W17108  26.553  43.565   1.791
50568W        W17109  29.208  32.553   0.285
50569W        W17110  14.923  30.057   1.455
50570W        W17111  36.680  34.408  14.651
50571W        W17112  38.995  36.670   1.200
50572W        W17113  12.044  33.450   2.736
50573W        W17114  19.245   6.686  11.584
50574W        W17115  31.691  38.915  12.132
50575W        W17116  16.994  26.640  13.273
50576W        W17117  18.538  16.696  11.009
50577W        W17118  36.975  11.988  11.588
50578W        W17119  13.269  39.394   0.972
50579W        W17120  36.114   9.394  14.817
50580W        W17121  30.230  15.178  12.609
50581W        W17122  35.341   3.759  14.024
50582W        W17123  25.869  20.462   1.848
50583W        W17124  14.839  10.792   0.473
50584W        W17125  35.917  10.244   0.743
50585W        W17126   5.653  42.289  13.934
50586W        W17127  19.152  35.371  14.783
50587W        W17128   0.996  19.607   3.608
50588W        W17129   0.918  15.747   2.745
50589W        W17130  35.394   5.789   1.447
50590W        W17131   5.756  37.880   1.856
50591W        W17132   8.242  16.815   2.221
50592W        W17133  42.717   3.196  14.073
50593W        W17134  41.275  34.238  12.168
50594W        W17135  43.728  13.145  10.611
50595W        W17136  26.741  27.136   4.102
50596W        W17137  17.496  21.517   3.658
50597W        W17138  23.133  11.186   3.729
50598W        W17139  15.053  31.657   3.644
50599W        W17140  44.192  26.625  11.053
50600W        W17141   6.762  13.346  14.256
50601W        W17142  11.775  39.496   3.283
50602W        W17143  33.382  13.380  13.960
50603W        W17144   5.766  39.754   4.573
50604W        W17145  44.075  28.557  12.396
50605W        W17146  30.783  40.410  11.562
50606W        W17147  17.074  21.461   0.581
50607W        W17148  21.938  14.113  11.238
50608W        W17149  34.055  27.469   1.256
50609W        W17150  21.606   3.845  13.861
50610W        W17151  10.156  13.324  11.420
50611W        W17152  31.346  37.687   2.568
50612W        W17153  15.336  20.643  13.785
50613W        W17154  14.201  13.481   2.118
50614W        W17155  16.750   3.307  11.930
50615W        W17156  41.469  13.451   1.253
50616W        W17157   4.900  34.531   3.373
50617W        W17158   0.022  44.884  11.813
50618W        W17159  37.476   3.922  13.319
50619W        W17160  35.966   8.861  14.849
50620W        W17161  12.916  35.021  14.692
50621W        W17162  32.550  33.152  13.387
50622W        W17163  13.137  12.352  10.990
50623W        W17164  21.597  10.998   1.215
50624W        W17165  40.496  19.238  12.995
50625W        W17166  19.194  26.705   3.728
50626W        W17167  32.961  10.136   0.832
50627W        W17168  28.154  36.585  11.114
50628W        W17169   3.417   9.148   1.718
50629W        W17170  23.458  11.264  14.120
50630W        W17171   7.883  39.347   0.872
50631W        W17172  35.456  23.715   3.765
50632W        W17173  34.933   0.764   4.094
50633W        W17174  30.988   9.376  11.474
50634W        W17175   7.810   3.441  11.591
50635W        W17176  21.258  27.133   0.444
50636W        W17177  35.450   7.581   3.724
50637W        W17178  44.022   6.834  12.047
50638W        W17179  38.663  33.059   2.613
50639W        W17180  37.855   1.319  12.856
50640W        W17181  24.968  21.769  13.335
50641W        W17182  12.722  17.258   3.067
50642W        W17183  30.492  34.534  10.783
50643W        W17184  38.977  19.519  12.345
50644W        W17185  37.556   0.922  13.798
50645W        W17186   6.821  22.143  14.626
50646W        W17187   5.809  18.753  10.697
50647W        W17188  36.603   6.756   2.665
50648W        W17189  41.685  31.267   1.221
50649W        W17190  19.402  14.606  10.204
50650W        W17191  29.258  36.130   4.679
50651W        W17192  21.031  39.493   0.855
50652W        W17193  14.228  42.446   2.188
50653W        W17194  24.077   4.179  14.480
50654W        W17195  18.430  44.990  11.604
50655W        W17196  39.507   1.816   0.361
50656W        W17197   1.586  26.238   0.319
50657W        W17198  32.026  43.481   2.724
50658W        W17199  43.392  23.490  10.359
50659W        W17200   1.004  25.269  14.681
50660W        W17201  19.772  33.723  14.491
50661W        W17202  21.962  39.986  10.810
50662W        W17203  18.229  24.761   0.849
50663W        W17204  15.033   7.167   2.357
50664W        W17205  24.212  23.094  14.599
50665W        W17206  18.065  30.561  14.561
50666W        W17207   4.250  39.755  11.591
50667W        W17208  15.895   7.486  12.010
50668W        W17209  16.326  29.168   2.649
50669W        W17210  11.368  26.889  14.970
50670W        W17211  38.300  16.985   2.265
50671W        W17212  41.028  33.818  13.920
50672W        W17213  42.850  16.773  12.605
50673W        W17214  28.064   7.982   4.065
50674W        W17215  22.530  19.791  11.971
50675W        W17216  25.888   3.254  11.991
50676W        W17217  32.869  38.375   4.622
50677W        W17218  31.442  44.700   1.262
50678W        W17219  14.999  29.614   5.008
50679W        W17220  21.313  21.472  11.033
50680W        W17221  23.835  29.690  11.822
50681W        W17222  26.315  24.629  13.303
50682W        W17223   8.108  35.760  14.980
50683W        W17224  14.581  29.068  13.385
50684W        W17225  38.380  22.272   2.737
50685W        W17226  39.390  26.186   3.337
50686W        W17227  26.909  21.602   4.339
50687W        W17228  41.511  12.267   1.403
50688W        W17229   2.545  33.354  11.519
50689W        W17230  34.585  24.241   0.801
50690W        W17231  42.787  38.099   3.196
50691W        W17232   8.729  21.503   1.450
50692W        W17233  18.945  17.243  10.065
50693W        W17234  33.601  34.385   2.885
50694W        W17235   3.675  34.998  14.135
50695W        W17236  25.498   2.326  14.368
50696W        W17237   1.850  32.184   3.941
50697W        W17238  27.430  29.647   0.041
50698W        W17239  21.203   6.920  14.924
50699W        W17240  16.820   1.975  12.202
50700W        W17241   6.664  35.417  13.493
50701W        W17242  38.471  30.871  12.499
50702W        W17243  27.141  38.989   2.414
50703W        W17244  13.152  21.423   2.581
50704W        W17245   9.668  20.529   1.807
50705W        W17246  10.014  16.642   2.743
50706W        W17247  19.935  35.065  12.066
50707W        W17248  36.039  36.840   2.701
50708W        W17249  38.957  19.592   2.677
50709W        W17250  13.160   0.730   2.765
50710W        W17251  44.483  41.143  10.589
50711W        W17252  20.237  13.850  13.480
50712W        W17253  10.603  12.391   1.193
50713W        W17254  31.745  21.783   4.229
50714W        W17255   6.879  29.304   1.833
50715W        W17256  35.486  36.173   2.161
50716W        W17257   5.813   6.002  13.884
50717W        W17258  10.864  28.606   2.202
50718W        W17259  12.190   2.923  10.709
50719W        W17260  26.254  44.359  11.482
50720W        W17261  39.535  33.466  13.040
50721W        W17262  25.480   7.824  12.141
50722W        W17263  14.876   5.695   4.112
50723W        W17264  13.180   5.866  14.412
50724W        W17265  13.491  28.953   3.277
50725W        W17266  27.615  10.948  10.712
50726W        W17267  40.346  22.511  11.474
50727W        W17268   6.744   4.693  14.592
50728W        W17269  13.298  13.207  11.589
50729W        W17270  17.513   0.025  12.507
50730W        W17271   7.700  33.270  11.119
50731W        W17272  23.107  40.854  10.663
50732W        W17273  10.313  44.592  13.804
50733W        W17274  38.849  14.648  13.500
50734W        W17275  41.349  39.926  11.867
50735W        W17276  18.614  42.385   2.745
50736W        W17277  30.532   8.830   3.463
50737W        W17278  19.186  18.119   0.409
50738W        W17279  34.177  13.862  13.902
50739W        W17280  38.080  40.868   1.460
50740W        W17281   8.486  12.944   0.806
50741W        W17282  33.515   4.021   3.757
50742W        W17283  18.474  34.924   2.766
50743W        W17284  36.389  34.008   4.357
50744W        W17285  44.306  22.173  11.170
50745W        W17286  16.021  10.398  10.746
50746W        W17287   6.421  11.775   3.988
50747W        W17288  21.303   7.328   0.899
50748W        W17289  28.180  37.318   2.106
50749W        W17290  10.462   3.313  14.081
50750W        W17291  32.873   5.700   2.297
50751W        W17292  23.625  39.224  13.346
50752W        W17293  24.132   9.435   1.888
50753W        W17294   8.690  37.953   1.660
50754W        W17295  23.772  18.612   3.230
50755W        W17296  43.982  25.089  12.597
50756W        W17297  21.680  43.312   0.311
50757W        W17298   9.706  41.861   1.913
50758W        W17299  13.179   3.055   3.616
50759W        W17300  18.545  27.927  11.662
50760W        W17301  17.621   2.718  13.829
50761W        W17302   5.299  32.547  10.474
50762W        W17303  44.969  37.078   1.767
50763W        W17304  25.385  31.683   2.634
50764W        W17305  37.751  21.013  10.045
50765W        W17306   7.321  20.692   3.824
50766W        W17307  14.489  40.144   3.157
50767W        W17308  29.634  25.003   4.483
50768W        W17309  19.453  22.111  13.716
50769W        W17310  36.073  22.925  12.283
50770W        W17311   4.654   9.813  11.644
50771W        W17312  31.071  21.560  14.924
50772W        W17313  41.307  20.776  14.885
50773W        W17314   6.801   0.332   1.963
50774W        W17315   2.430  31.699  13.769
50775W        W17316  35.678  42.780   3.386
50776W        W17317  32.226  19.630  14.314
50777W        W17318  40.874  33.502  11.190
50778W        W17319   9.451  13.378   3.706
50779W        W17320  30.025  25.200  10.537
50780W        W17321  32.177  10.700  11.607
50781W        W17322  42.981  11.992   3.773
50782W        W17323  21.500  28.865   1.425
50783W        W17324   6.174  14.244   1.762
50784W        W17325  22.003  42.914  11.720
50785W        W17326  27.250  22.886  14.799
50786W        W17327  20.583   8.402   3.083
50787W        W17328  36.543  26.157  13.925
50788W        W17329  33.969  27.532  10.559
50789W        W17330  42.393  10.116  10.577
50790W        W17331   8.746  23.821   0.334
50791W        W17332   7.676   5.277   2.325
50792W        W17333  18.248  28.998   4.250
50793W        W17334   3.681  15.108  11.617
50794W        W17335  36.983  23.770  11.933
50795W        W17336   3.090   4.932  11.549
50796W        W17337  33.995  31.323  10.943
50797W        W17338  44.500  12.034  11.147
50798W        W17339  24.114   9.605   2.788
50799W        W17340  13.213   3.938   3.647
50800W        W17341  34.430  18.123  13.857
50801W        W17342  23.414  37.149  12.031
50802W        W17343  34.954   9.076  11.521
50803W        W17344  40.847   8.121  11.506
50804W        W17345  29.119  12.169   2.697
50805W        W17346  19.650  32.901   0.265
50806W        W17347  30.065  15.374   0.428
50807W        W17348  27.526   8.677   2.628
50808W        W17349  43.542   8.598   1.559
50809W        W17350  25.748  23.027  12.790
50810W        W17351   6.905  34.609  14.692
50811W        W17352   4.984  16.038   2.179
50812W        W17353  17.843   6.776  11.560
50813W        W17354  43.891   7.722   1.365
50814W        W17355  31.944  19.790  10.866
50815W        W17356  33.464  18.032   2.541
50816W        W17357   1.389  14.413  12.556
50817W        W17358  21.023  22.788   0.292
50818W        W17359   3.807   9.685   2.221
50819W        W17360  16.146  34.702   3.519
50820W        W17361  17.716  25.409   3.497
50821W        W17362   9.835   4.412   2.231
50822W        W17363  12.861  25.446   2.747
50823W        W17364   0.932  19.987  13.472
50824W        W17365  17.122  40.781   4.087
50825W        W17366  32.442  15.523   0.822
50826W        W17367  33.167  10.660  11.515
50827W        W17368  27.146  44.528   3.712
50828W        W17369   9.850   5.419   2.341
50829W        W17370  28.029   3.455   1.718
50830W        W17371  41.215  32.634  11.547
50831W        W17372   7.832  31.323   0.321
50832W        W17373  34.400   9.336   0.021
50833W        W17374  12.688  41.348   2.177
50834W        W17375   2.172  33.480  14.538
50835W        W17376   6.190  21.847  12.648
50836W        W17377   3.424  38.992   1.968
50837W        W17378  38.397  34.851   4.540
50838W        W17379  21.581  23.094   4.498
50839W        W17380  13.137   9.676  12.857
50840W        W17381   4.011  14.243  14.700
50841W        W17382  11.673  29.477   3.460
50842W        W17383  18.239  40.261   3.794
50843W        W17384  35.812  31.564   1.844
50844W        W17385  34.546  26.426  11.469
50845W        W17386  31.726  26.476   0.521
50846W        W17387  14.843  43.833  14.817
50847W        W17388  17.210  43.384  11.225
50848W        W17389  12.153  14.620  12.590
50849W        W17390  30.683  42.782   4.639
50850W        W17391   1.351  10.170   4.309
50851W        W17392  12.671  36.334  14.065
50852W        W17393  32.756  42.831  13.351
50853W        W17394  37.946  41.362   3.938
50854W        W17395  20.260   4.900  13.416
50855W        W17396   7.431  26.059  11.442
50856W        W17397  42.586  28.236   1.855
50857W        W17398  11.586  31.626   4.299
50858W        W17399  32.888  17.129   3.223
50859W        W17400  34.742  40.331  13.987
50860W        W17401  43.915  13.163  12.456
50861W        W17402  42.061  33.709   0.737
50862W        W17403  23.564  13.633   3.221
50863W        W17404  21.866   2.250   0.071
50864W        W17405   9.899   3.418  10.538
50865W        W17406  19.781  27.680  12.591
50866W        W17407  21.520  43.611  13.385
50867W        W17408  18.888  15.727  12.800
50868W        W17409  15.534  41.810  14.865
50869W        W17410   4.325  20.029   0.880
50870W        W17411   8.310  35.085   2.086
50871W        W17412  20.260  18.232   3.263
50872W        W17413  20.069  12.948  13.981
50873W        W17414  32.810   0.826   4.131
50874W        W17415  14.841  29.266   5.344
50875W        W17416  28.778  20.079   2.237
50876W        W17417  16.010   5.661  11.222
50877W        W17418  15.437  10.121   4.885
50878W        W17419  29.705  17.791   4.116
50879W        W17420  27.234   8.662  11.581
50880W        W17421  25.217  42.844  11.668
50881W        W17422  19.717  18.123  11.110
50882W        W17423  11.407   4.856  10.605
50883W        W17424  40.237  40.206   1.738
50884W        W17425   0.272   9.420  12.944
50885W        W17426  24.558  10.350  11.844
50886W        W17427  24.298  41.543   1.340
50887W        W17428   5.157  11.683  12.120
50888W        W17429  44.509  30.578  10.707
50889W        W17430   6.964  25.577  10.328
50890W        W17431   2.612  29.487   0.433
50891W        W17432  14.110  39.292  13.876
50892W        W17433  22.824   0.100   0.291
50893W        W17434  28.551  14.379  14.164
50894W        W17435  34.705  27.648   2.841
50895W        W17436   8.956   8.785   2.320
50896W        W17437   2.217  35.011   1.460
50897W        W17438  31.892  22.773   1.822
50898W        W17439  39.417  23.091   3.317
50899W        W17440  35.120  41.578   1.233
50900W        W17441   6.259  43.232  10.592
50901W        W17442  23.730   8.149   1.457
50902W        W17443  30.048   9.826   5.105
50903W        W17444  32.373  14.701   4.334
50904W        W17445  23.194  16.977  11.079
50905W        W17446  19.272   5.217   4.618
50906W        W17447  29.574  25.499   1.704
50907W        W17448   6.465  20.487   1.367
50908W        W17449  20.097  23.455   2.646
50909W        W17450  41.503  14.178  13.880
50910W        W17451   4.693  35.471   1.900
50911W        W17452   2.204   0.362   0.257
50912W        W17453  24.384  15.871  13.766
50913W        W17454   3.404  39.887  10.737
50914W        W17455  16.132  12.247   3.710
50915W        W17456  28.190  27.547   1.729
50916W        W17457  22.061  22.918   4.654
50917W        W17458  16.735   6.772   0.243
50918W        W17459  19.100  30.962  10.533
50919W        W17460  15.283  22.326   2.313
50920W        W17461  19.543  28.712   2.991
50921W        W17462  25.714  44.253   3.468
50922W        W17463  13.561  42.792  12.285
50923W        W17464  25.268  15.547   4.627
50924W        W17465  32.583  43.926   3.664
50925W        W17466  42.862  14.159   1.408
50926W        W17467  30.912  32.117  10.677
50927W        W17468   2.889  14.217   0.250
50928W        W17469  10.345  41.734   0.952
50929W        W17470  22.123  18.817  13.486
50930W        W17471  31.962  22.831  10.573
50931W        W17472  32.307   4.999  11.901
50932W        W17473  22.904  12.403  14.097
50933W        W17474   5.013  20.149   2.831
50934W        W17475   7.923  24.079   0.494
50935W        W17476  25.515  24.540   3.710
50936W        W17477  15.778  40.861   4.887
50937W        W17478  31.334  37.471   3.020
50938W        W17479  10.735   2.229  12.239
50939W        W17480  34.134  25.046  12.858
50940W        W17481  16.991   5.907  11.487
50941W        W17482  14.625   2.175  10.909
50942W        W17483  24.880  32.670   2.866
50943W        W17484  40.588  10.730   3.157
50944W        W17485  44.881  30.576   4.702
50945W        W17486  10.582   4.630  13.845
50946W        W17487  15.634  35.092   2.995
50947W        W17488  41.305  20.044   4.512
50948W        W17489  14.329  10.332   1.598
50949W        W17490  15.745  33.689   4.094
50950W        W17491  43.388  20.302   1.678
50951W        W17492  30.486  43.750   0.972
50952W        W17493   6.181  21.062  11.134
50953W        W17494  22.773  44.033   0.499
50954W        W17495  21.228  40.281  13.885
50955W        W17496  24.088   3.883  13.668
50956W        W17497  21.681  17.697  10.325
50957W        W17498  43.308  17.329   3.237
50958W        W17499  20.538  19.798   1.005
50959W        W17500  34.260  29.615  12.453
50960W        W17501   9.656  30.127  12.989
50961W        W17502  16.973  34.788  12.070
50962W        W17503  27.696  22.921   3.727
50963W        W17504  19.988  28.297  10.304
50964W        W17505  10.735  32.387   3.748
50965W        W17506  20.760  16.477   4.145
50966W        W17507  24.226  12.299   2.814
50967W        W17508   6.614  20.648   3.254
50968W        W17509   8.259   7.961   0.751
50969W        W17510  17.369  28.133  12.203
50970W        W17511  11.768  13.899  14.773
50971W        W17512  11.078   7.486  11.005
50972W        W17513   9.658  14.979   0.839
50973W        W17514  39.053  11.662  11.224
50974W        W17515  15.715   5.727   1.004
50975W        W17516  36.395  37.962   2.295
50976W        W17517  38.297  35.132  12.846
50977W        W17518  38.566   0.198   3.177
50978W        W17519  28.389  14.665  12.884
50979W        W17520  18.055  29.748   2.987
50980W        W17521   4.463   0.455   4.952
50981W        W17522  26.002   7.447  13.850
50982W        W17523  14.723  42.257   4.414
50983W        W17524  27.149  28.417   3.540
50984W        W17525  30.683  36.018   3.288
50985W        W17526  15.728  11.016  14.928
50986W        W17527   1.405  12.283  13.663
50987W        W17528   9.392   4.077  10.741
50988W        W17529  25.352  19.948  13.537
50989W        W17530  30.933   2.390   1.787
50990W        W17531  13.120  12.872   1.877
50991W        W17532  44.975  27.192   3.355
50992W        W17533  29.077  34.680  14.591
50993W        W17534  26.391   1.980   0.711
50994W        W17535  15.149  41.513  12.486
50995W        W17536  27.905  19.155   2.595
50996W        W17537  34.542  39.912   1.348
50997W        W17538  27.567  19.047  14.488
50998W        W17539  31.990  43.979  13.844
50999W        W17540  30.193  42.418  14.400
51000W        W17541   9.795  44.578  11.938
51001W        W17542   0.882   7.121   2.275
51002W        W17543  10.337  24.500   3.224
51003W        W17544  10.459   6.610  14.798
51004W        W17545  15.123  36.320   3.609
51005W        W17546   6.758  14.395  14.427
51006W        W17547  17.322  13.613   3.573
51007W        W17548  22.208  35.353   4.234
51008W        W17549   6.121  42.752  12.091
51009W        W17550  19.180  28.394   4.246
51010W        W17551   4.742  19.092   0.942
51011W        W17552  29.989  28.122  13.133
51012W        W17553  41.937  20.715   0.048
51013W        W17554  43.472  12.047   2.255
51014W        W17555  32.874  11.713   3.282
51015W        W17556   8.367  42.693   3.156
51016W        W17557  17.764  14.663  12.698
51017W        W17558  26.581  41.052   2.720
51018W        W17559  11.573  35.527  13.340
51019W        W17560  28.569  32.723  14.062
51020W        W17561  14.232  41.245   0.514
51021W        W17562  26.094  40.589  13.414
51022W        W17563  18.211  37.708   5.101
51023W        W17564  34.957   3.741  14.914
51024W        W17565   3.916   9.354   3.216
51025W        W17566  22.408  10.640   1.741
51026W        W17567   5.668  44.691   4.775
51027W        W17568  22.073  20.787  11.840
51028W        W17569  12.044   0.922   2.265
51029W        W17570   2.368  35.152   0.526
51030W        W17571  25.901  13.676  10.796
51031W        W17572  36.801  40.744   3.715
51032W        W17573  11.304  23.673  12.987
51033W        W17574  21.560  34.354   2.704
51034W        W17575  19.333   5.114   1.192
51035W        W17576  10.300  12.094  12.590
51036W        W17577  15.146  22.658   1.193
51037W        W17578  18.781  19.274   3.589
51038W        W17579   1.862  10.571   1.497
51039W        W17580   1.135  17.016  14.650
51040W        W17581   3.113  38.579   3.370
51041W        W17582  42.392   3.577   1.461
51042W        W17583  12.448  39.966   3.612
51043W        W17584  42.300   8.210   0.377
51044W        W17585   1.724  41.681  11.261
51045W        W17586  17.105  11.091   1.918
51046W        W17587   2.435  17.487   1.640
51047W        W17588  24.653  20.770  13.474
51048W        W17589  25.427  19.097   0.738
51049W        W17590  14.664  43.489   3.212
51050W        W17591  29.630   1.959  13.463
51051W        W17592  37.046  35.625   0.249
51052W        W17593  39.371  17.563   1.237
51053W        W17594  18.469  41.383   3.107
51054W        W17595  18.740  14.341   0.259
51055W        W17596  40.825  43.998  12.454
51056W        W17597  24.008  34.127  11.666
51057W        W17598   8.762  15.193   1.795
51058W        W17599  25.424  38.744   4.767
51059W        W17600  35.909   1.206   1.979
51060W        W17601  38.471  21.540  12.085
51061W        W17602  23.285  36.849   2.732
51062W        W17603  44.807  43.896   1.876
51063W        W17604  41.051  33.107  10.700
51064W        W17605  36.023  29.165  14.423
51065W        W17606  44.032  31.109  14.974
51066W        W17607  40.332  28.552   0.691
51067W        W17608  40.084   1.754  13.025
51068W        W17609  32.825  33.060  11.596
51069W        W17610  27.152  37.049   1.440
51070W        W17611  39.127  17.210   3.251
51071W        W17612  35.074   8.119  11.419
51072W        W17613   5.413   4.498  12.689
51073W        W17614  32.421  30.424   3.791
51074W        W17615  43.777  42.523   3.253
51075W        W17616  40.580   8.886  13.370
51076W        W17617  28.410   0.792   1.326
51077W        W17618  33.418  11.790   0.313
51078W        W17619  32.422   8.298   0.739
51079W        W17620  33.147  19.297  11.039
51080W        W17621  31.921  19.910   1.562
51081W        W17622   5.817  13.704   2.442
51082W        W17623   8.224  39.376   4.503
51083W        W17624  41.614  19.599  14.852
51084W        W17625   0.519   0.315   1.752
51085W        W17626  12.073   7.301   0.783
51086W        W17627  21.362  36.400   4.958
51087W        W17628  20.752   7.661  14.649
51088W        W17629  35.139  44.716  11.418
51089W        W17630  23.723  26.428   3.772
51090W        W17631  25.670  16.990   5.047
51091W        W17632   7.379  42.006  11.684
51092W        W17633  11.146  21.270   4.203
51093W        W17634  34.554  42.996   0.322
51094W        W17635   9.761  43.266  12.962
51095W        W17636  39.997  12.919   4.920
51096W        W17637  16.005  25.813   2.659
51097W        W17638   0.731   7.532   4.995
51098W        W17639  23.379   2.850   2.758
51099W        W17640  10.248  42.722  11.056
51100W        W17641   1.557  12.880   1.380
51101W        W17642  35.615  33.150   1.878
51102W        W17643  24.260   2.997   3.785
51103W        W17644   9.934  28.329  12.397
51104W        W17645  42.624   6.221   0.881
51105W        W17646  14.265   7.187   1.687
51106W        W17647  25.096  25.746  11.615
51107W        W17648  11.786   4.664  12.852
51108W        W17649  10.781  31.918   0.943
51109W        W17650  25.903   1.743  12.542
51110W        W17651  33.680  23.185   1.509
51111W        W17652  35.910  23.578   3.586
51112W        W17653  27.650  10.684   5.348
51113W        W17654  35.443  19.251  11.967
51114W        W17655  26.221  10.829  10.918
51115W        W17656   1.525   6.340   2.143
51116W        W17657  22.544  36.631  13.381
51117W        W17658  41.177  11.213  12.325
51118W        W17659  23.606   9.624   2.671
51119W        W17660  21.257  29.570   3.697
51120W        W17661  28.405  25.115  13.832
51121W        W17662  22.723  27.646  12.022
51122W        W17663  41.291  20.528   0.915
51123W        W17664  29.017  21.670  11.823
51124W        W17665  20.681  13.128   4.596
51125W        W17666  24.625   8.602   0.890
51126W        W17667  22.226  30.586   1.515
51127W        W17668  39.900  21.110   4.639
51128W        W17669  30.396  35.053  10.872
51129W        W17670  19.889  13.115   2.359
51130W        W17671   2.780  30.425  14.468
51131W        W17672  38.380  39.696   2.390
51132W        W17673  19.231  23.580   3.225
51133W        W17674   9.425   4.945   1.800
51134W        W17675  10.656  34.319  11.764
51135W        W17676  17.040  26.974  12.557
51136W        W17677  30.663  16.667  14.618
51137W        W17678  37.893  39.577  11.174
51138W        W17679   0.095  39.518   1.000
51139W        W17680  26.932  12.197   3.693
51140W        W17681  21.621  35.702   0.463
51141W        W17682  20.650  27.444  14.866
51142W        W17683  44.894  27.175   0.586
51143W        W17684   9.145  33.262  10.792
51144W        W17685  43.814   8.243   2.733
51145W        W17686  37.542  18.986   3.108
51146W        W17687  20.423  12.868   2.439
51147W        W17688  22.162  44.510   4.995
51148W        W17689  37.418   9.647  11.128
51149W        W17690  26.637  20.108  13.878
51150W        W17691  14.789   4.396  11.594
51151W        W17692   5.256  30.053  10.703
51152W        W17693  20.496   6.663   2.290
51153W        W17694  33.583  18.285   0.374
51154W        W17695  13.276  39.489  11.068
51155W        W17696  35.666  13.221   2.821
51156W        W17697   7.794  12.549   1.867
51157W        W17698   9.764  33.124   2.387
51158W        W17699  16.851  28.877  12.016
51159W        W17700   9.604   0.573  14.249
51160W        W17701  41.521  35.959  10.678
51161W        W17702  38.381  39.085   4.288
51162W        W17703   1.444  21.063  11.967
51163W        W17704   1.443  19.721   1.438
51164W        W17705   7.422   3.454   2.780
51165W        W17706  21.588  18.759  12.192
51166W        W17707  27.398  34.636   4.499
51167W        W17708  35.891  24.899   0.994
51168W        W17709  40.237  11.098  12.416
51169W        W17710  17.639  31.503  13.282
51170W        W17711  41.433  29.262  13.339
51171W        W17712  41.549  39.876   4.828
51172W        W17713  39.369  15.837   0.771
51173W        W17714  23.688  18.161  10.453
51174W        W17715  24.453  16.198  11.546
51175W        W17716  32.573  20.673   3.098
51176W        W17717  41.191  27.398  12.057
51177W        W17718   2.061   6.588  13.849
51178W        W17719  18.535   6.495  14.125
51179W        W17720  43.758  31.039  14.486
51180W        W17721  40.344  19.803   2.084
51181W        W17722  20.126  19.293   0.032
51182W        W17723  44.555  31.606   4.116
51183W        W17724  42.518  23.676  14.109
51184W        W17725  30.178   0.766   3.203
51185W        W17726  41.020  27.982  14.271
51186W        W17727  30.188  18.092  14.195
51187W        W17728  34.647  11.894  11.618
51188W        W17729  20.758   1.794   4.487
51189W        W17730   8.690  24.991   4.266
51190W        W17731   9.866  13.986  14.327
51191W        W17732  18.279  25.100   0.447
51192W        W17733   4.881  33.515   0.364
51193W        W17734  32.891  18.988   3.271
51194W        W17735  36.391  29.923   0.621
51195W        W17736   8.329  10.313  12.570
51196W        W17737  33.403   3.227  12.455
51197W        W17738  33.646  13.132  13.569
51198W        W17739  32.073  24.723  12.096
51199W        W17740  25.508  36.555   4.834
51200W        W17741  38.443   9.286  10.630
51201W        W17742  18.982  42.224   1.207
51202W        W17743  11.351  18.735  14.602
51203W        W17744   9.429  29.030  13.326
51204W        W17745   8.770  12.806   3.765
51205W        W17746  28.848  19.758   1.075
51206W        W17747  38.688   0.859  12.850
51207W        W17748  43.405  15.754  14.791
51208W        W17749  34.591  33.945  13.586
51209W        W17750  26.623  20.835   2.259
51210W        W17751  10.407  12.142  10.593
51211W        W17752   2.352  42.957   0.785
51212W        W17753  18.699   3.461  12.622
51213W        W17754   8.702  10.835   1.281
51214W        W17755   8.084   1.857   4.488
51215W        W17756   8.930  39.274  13.068
51216W        W17757  24.527  21.288   2.261
51217W        W17758  41.256  37.511   3.569
51218W        W17759  24.343  37.847  12.440
51219W        W17760  17.353  33.135  13.292
51220W        W17761  21.072  40.492   2.846
51221W        W17762  20.473  11.203  14.305
51222W        W17763  29.359  19.149  12.568
51223W        W17764   7.757  21.589   3.713
51224W        W17765  27.031  32.462   1.118
51225W        W17766  27.809  29.375  11.980
51226W        W17767   3.019   0.039   3.089
51227W        W17768  29.104  39.030   3.088
51228W        W17769  14.149   7.246   2.181
51229W        W17770   0.826  42.860  14.500
51230W        W17771  33.154  41.306   3.114
51231W        W17772  32.100  44.694  14.551
51232W        W17773  40.527   2.964  13.491
51233W        W17774   2.922   8.895  10.996
51234W        W17775  18.547  28.016  14.416
51235W        W17776  38.864  33.688   0.791
51236W        W17777  17.573   2.084  13.119
51237W        W17778   8.784  11.470   4.546
51238W        W17779  30.431  20.887  12.966
51239W        W17780  25.539  34.189  10.717
51240W        W17781  34.270  32.044  13.767
51241W        W17782  28.512  36.608  13.390
51242W        W17783  40.760   4.346   2.183
51243W        W17784  16.108  24.268   0.454
51244W        W17785  33.716  32.925   3.682
51245W        W17786  34.378  42.511   4.906
51246W        W17787  12.910  12.004   4.368
51247W        W17788  27.362   6.636   2.249
51248W        W17789  30.171  35.839  13.398
51249W        W17790   2.027  38.440   3.244
51250W        W17791   4.637  23.361  10.962
51251W        W17792  41.817   2.288   0.325
51252W        W17793  42.438  21.610   1.921
51253W        W17794  36.660  41.542   3.342
51254W        W17795   1.867   2.834   0.417
51255W        W17796  24.667   9.167  12.029
51256W        W17797  40.161   0.714   0.496
51257W        W17798  35.184  17.729   2.232
51258W        W17799  23.569  12.926  10.439
51259W        W17800  30.037  44.824  13.109
51260W        W17801  27.561  11.535  13.430
51261W        W17802   2.357  31.105   1.221
51262W        W17803   0.828   6.002  11.714
51263W        W17804  40.937  13.089   2.637
51264W        W17805  17.338  10.657  14.502
51265W        W17806  36.601  22.189  13.948
51266W        W17807  41.902   1.739   2.160
51267W        W17808  20.643  10.260   2.958
51268W        W17809  34.435   2.802   4.501
51269W        W17810  29.973   7.608   3.647
51270W        W17811  37.022  21.563  13.471
51271W        W17812  40.954  31.682  13.926
51272W        W17813  25.215   3.760   1.345
51273W        W17814  11.272  31.876  14.826
51274W        W17815  20.415  28.491   3.249
51275W        W17816  38.377  18.513  14.832
51276W        W17817  11.561  17.937   2.279
51277W        W17818  16.877  27.462  11.782
51278W        W17819   7.449  18.259   0.068
51279W        W17820  39.038  15.952   2.739
51280W        W17821  30.724  13.935   4.668
51281W        W17822  17.490  19.088  14.411
51282W        W17823  44.243  33.404  12.868
51283W        W17824  44.038  12.832   4.211
51284W        W17825  18.644   5.818   2.749
51285W        W17826  10.498  33.406  13.421
51286W        W17827   9.404  17.124   0.606
51287W        W17828  18.101  10.927   1.702
51288W        W17829  13.790  37.151   1.768
51289W        W17830  31.892  22.384  10.875
51290W        W17831   1.793  19.687  13.865
51291W        W17832  38.008  35.356   4.414
51292W        W17833  43.798  35.658  11.565
51293W        W17834  40.805  29.630   3.630
51294W        W17835  32.995  15.488  11.766
51295W        W17836  16.134  15.313   4.520
51296W        W17837  16.754  34.095   3.644
51297W        W17838  12.706  29.725  14.118
51298W        W17839  23.386   0.320  13.357
51299W        W17840  19.402  15.398  12.810
51300W        W17841  35.919   5.749   4.214
51301W        W17842  37.505  20.203  13.946
51302W        W17843   0.746  38.882   4.840
51303W        W17844  38.579  17.058   3.280
51304W        W17845  29.445  37.280   4.145
51305W        W17846  12.903  35.231   1.779
51306W        W17847  30.859   1.170  13.320
51307W        W17848  20.006  14.155  12.430
51308W        W17849  36.906  18.661   0.962
51309W        W17850   6.362  32.926  12.464
51310W        W17851   6.986  14.632  13.356
51311W        W17852  37.089  19.244  13.847
51312W        W17853  12.212  26.625  14.689
51313W        W17854  17.559  30.560  13.822
51314W        W17855   7.222  24.210   1.881
51315W        W17856  13.908  29.719   4.290
51316W        W17857  25.303  33.013  11.591
51317W        W17858  37.831  39.939   1.173
51318W        W17859   8.376   9.131  11.541
51319W        W17860  38.336  28.643  12.389
51320W        W17861  17.804  20.406  14.523
51321W        W17862  44.374  41.850   3.539
51322W        W17863  18.691  17.814   4.825
51323W        W17864  44.945  18.127   1.179
51324W        W17865  24.060   3.045  13.584
51325W        W17866   3.897  25.198   1.988
51326W        W17867  28.366   3.304  13.831
51327W        W17868  43.603   4.415  11.169
51328W        W17869  42.870  14.115  12.014
51329W        W17870  28.466  32.776  12.071
51330W        W17871  28.234  16.579   4.426
51331W        W17872  11.221  12.884   0.967
51332W        W17873   9.358   2.803   1.168
51333W        W17874  15.301  41.812   1.709
51334W        W17875  39.051   1.883  12.160
51335W        W17876  24.268   0.207   3.254
51336W        W17877  20.225  39.710  11.200
51337W        W17878  30.533   2.984  12.398
51338W        W17879  43.556  20.170  10.743
51339W        W17880  43.496  21.268  12.862
51340W        W17881  41.574  41.382  14.910
51341W        W17882  21.186  20.642  12.352
51342W        W17883  19.606  12.893   4.696
51343W        W17884  33.016  34.620   3.651
51344W        W17885  10.117  35.337   1.262
51345W        W17886  23.403   3.166  13.642
51346W        W17887  31.153   0.113   1.084
51347W        W17888   8.753  12.398   4.763
51348W        W17889   5.743   8.431  12.856
51349W        W17890  35.541  25.202   0.504
51350W        W17891  43.912   4.477   3.664
51351W        W17892  18.811   7.033  14.877
51352W        W17893  12.705  15.383  14.778
51353W        W17894  23.316  34.585  11.169
51354W        W17895   9.909  37.826   3.643
51355W        W17896  27.525  22.307  14.812
51356W        W17897  23.136  19.286   1.954
51357W        W17898  20.732  29.852  13.980
51358W        W17899  41.855  33.421  14.389
51359W        W17900  18.758   1.858   1.680
51360W        W17901  31.007  17.785   2.080
51361W        W17902  42.200   7.604  10.736
51362W        W17903  37.168  11.415   0.848
51363W        W17904  32.493  31.590   3.238
51364W        W17905  13.776  41.533   2.449
51365W        W17906  40.558  27.746  13.764
51366W        W17907  38.863   8.324   2.645
51367W        W17908  12.412  27.180  10.813
51368W        W17909   7.811   6.505  13.803
51369W        W17910  21.753  38.904  11.574
51370W        W17911  36.357  10.615  11.614
51371W        W17912   4.364  12.129   4.150
51372W        W17913  19.578  28.465  14.300
51373W        W17914  24.691  42.638  11.618
51374W        W17915  21.221  31.415  14.201
51375W        W17916  10.069  35.303   5.071
51376W        W17917  20.840  30.496   1.923
51377W        W17918  27.495  38.864   0.256
51378W        W17919  24.497  31.030  11.027
51379W        W17920  29.964  11.450   4.164
51380W        W17921  38.597  23.460   3.801
51381W        W17922  10.385   8.007  10.772
51382W        W17923  36.087  33.016  12.591
51383W        W17924  25.059  38.497  14.312
51384W        W17925  36.791   9.352   3.313
51385W        W17926   6.714  20.698  12.489
51386W        W17927  16.670  37.016  11.463
51387W        W17928  31.692  35.008  13.834
51388W        W17929  15.749  42.268  14.832
51389W        W17930  40.772   3.263   1.393
51390W        W17931  18.444   1.823   5.042
51391W        W17932  42.005  15.945  11.893
51392W        W17933  19.378   7.051   4.410
51393W        W17934  40.362   4.499  14.370
51394W        W17935  33.426  42.008  14.268
51395W        W17936   7.791  42.880  13.503
51396W        W17937  38.565  36.894   1.398
51397W        W17938  28.036  29.724  11.435
51398W        W17939  36.468  34.549  13.059
51399W        W17940  13.724  14.856  11.992
51400W        W17941   3.279  14.686  11.207
51401W        W17942  29.397  22.464   4.763
51402W        W17943  27.044  28.547   0.211
51403W        W17944   8.646   3.645   0.871
51404W        W17945  22.992  34.885  14.323
51405W        W17946   2.949  41.201  12.461
51406W        W17947   2.475   5.508   4.159
51407W        W17948  38.132   1.067   2.297
51408W        W17949  32.635  10.376  13.415
51409W        W17950  29.749  37.564  11.373
51410W        W17951  42.368  16.949  12.736
51411W        W17952   2.346  22.967   2.132
51412W        W17953  20.165  24.237   4.632
51413W        W17954  40.840  36.910  10.649
51414W        W17955  33.976  39.248   0.514
51415W        W17956  10.147   9.372   0.829
51416W        W17957  14.289  36.566  11.874
51417W        W17958  14.883  42.340  11.492
51418W        W17959  21.750  24.212   3.276
51419W        W17960  13.456   8.755  13.094
51420W        W17961  16.150  15.607   3.111
51421W        W17962  30.328  42.571   1.198
51422W        W17963  42.998  34.420   4.457
51423W        W17964  41.036  33.971   3.146
51424W        W17965   5.348   3.428   1.736
51425W        W17966  14.848  30.490   5.065
51426W        W17967  31.658  21.773   1.992
51427W        W17968  36.847   8.701   4.741
51428W        W17969  29.658  12.361   0.061
51429W        W17970   3.422  30.591   4.182
51430W        W17971   3.208  36.606  13.358
51431W        W17972   3.606  15.017  10.980
51432W        W17973   3.768  40.908  10.421
51433W        W17974   8.741  21.245  10.778
51434W        W17975  32.475  42.745   1.258
51435W        W17976  18.264  19.114   2.843
51436W        W17977  18.042  40.913   4.596
51437W        W17978  37.037  23.626   1.581
51438W        W17979  18.340  37.006   0.339
51439W        W17980   6.238   1.460  11.820
51440W        W17981  20.633  14.886  12.137
51441W        W17982   0.186   0.309   3.616
51442W        W17983  19.796  42.329  13.555
51443W        W17984   1.695   9.259  13.308
51444W        W17985  31.406  33.044  14.882
51445W        W17986  21.050  26.987   2.275
51446W        W17987  17.453  38.122  14.719
51447W        W17988  33.843  33.771  10.933
51448W        W17989  27.276  32.089   0.848
51449W        W17990  39.466  34.597  11.285
51450W        W17991  36.311  42.478  11.682
51451W        W17992  44.236  19.646   4.324
51452W        W17993  25.244  27.762  14.554
51453W        W17994  41.852  20.240   0.262
51454W        W17995  23.622  37.968  11.676
51455W        W17996  34.452  34.523   3.141
51456W        W17997  10.650  44.281   3.389
51457W        W17998  41.361   7.449  10.808
51458W        W17999  10.990   3.392   1.591
51459W        W18000  38.553  40.844  13.762
51460W        W18001  20.508  27.602   4.856
51461W        W18002  13.098  36.835   1.278
51462W        W18003  19.797  17.783  12.324
51463W        W18004  36.045   3.912   4.558
51464W        W18005  38.837  19.099   3.891
51465W        W18006  29.727   9.498   2.333
51466W        W18007  16.110  32.890  13.845
51467W        W18008  42.746   6.622  14.936
51468W        W18009  44.217  19.687   4.878
51469W        W18010   8.299  27.612   3.184
51470W        W18011  21.108  22.645  11.481
51471W        W18012  41.206  24.205  11.592
51472W        W18013  16.358   9.074  11.098
51473W        W18014  35.910   0.220  12.894
51474W        W18015  38.550   7.567  14.299
51475W        W18016  23.158  24.652  12.501
51476W        W18017  23.183  33.393  14.104
51477W        W18018   3.740  26.059  14.172
51478W        W18019  19.437  17.258  14.974
51479W        W18020  29.014   0.790  12.332
51480W        W18021  35.172  14.378  12.941
51481W        W18022  29.472  15.846  12.642
51482W        W18023  12.620  23.028  13.589
51483W        W18024  13.177  18.525  11.053
51484W        W18025  21.677  27.433   0.445
51485W        W18026  35.871  43.277  11.820
51486W        W18027   9.786  12.734  12.880
51487W        W18028  10.746  18.771   2.798
51488W        W18029   4.680  19.125  11.489
51489W        W18030   5.995  44.504   3.644
51490W        W18031  33.504   6.422  12.628
51491W        W18032  35.374   2.374   2.854
51492W        W18033  15.368   3.417  11.577
51493W        W18034  35.875  26.111   4.599
51494W        W18035  12.638  19.174  14.935
51495W        W18036  20.922   6.854   4.617
51496W        W18037  10.250   3.128   0.415
51497W        W18038   8.350  23.904  12.763
51498W        W18039   6.475  25.501  13.748
51499W        W18040  22.605  12.898  13.379
51500W        W18041  17.204  29.827   0.926
51501W        W18042  27.755  14.633   4.182
51502W        W18043  28.642  34.175   0.963
51503W        W18044  20.315  21.163  11.956
51504W        W18045  26.967  20.016   3.957
51505W        W18046  38.893  35.907   0.897
51506W        W18047  30.929  27.804   1.438
51507W        W18048  27.923  19.291   1.363
51508W        W18049  42.581   6.645  13.319
51509W        W18050  24.567  24.108  10.658
51510W        W18051  38.062  16.308  12.526
51511W        W18052   5.028  36.164  12.097
51512W        W18053   8.205  21.750   2.392
51513W        W18054  44.264   5.368  14.595
51514W        W18055   4.822  21.748  12.297
51515W        W18056  27.977   9.171  10.585
51516W        W18057  28.514  23.627  12.388
51517W        W18058  13.018  18.725   3.248
51518W        W18059  17.668  41.955  11.717
51519W        W18060  23.098  35.584  11.277
51520W        W18061  22.711  25.611   3.010
51521W        W18062  17.606   4.928  13.491
51522W        W18063  40.775   7.132   9.881
51523W        W18064   3.730  18.366  11.680
51524W        W18065   8.011  23.606   0.740
51525W        W18066  40.400  44.778  11.060
51526W        W18067  43.447  35.202  14.997
51527W        W18068   6.403   2.920   9.845
51528W        W18069  44.696  28.995   1.131
51529W        W18070   6.846  10.495   3.234
51530W        W18071  36.038   3.514   4.125
51531W        W18072  20.356  36.589  13.918
51532W        W18073  34.345  36.168   3.702
51533W        W18074  19.254  30.080  13.716
51534W        W18075  23.361  22.673   1.784
51535W        W18076  44.842  12.484   3.504
51536W        W18077  26.571   7.359   3.100
51537W        W18078  34.840  30.690  11.475
51538W        W18079   9.907   7.862  12.659
51539W        W18080   2.526  42.330   1.940
51540W        W18081  44.850  42.809  14.271
51541W        W18082  40.632  27.251   1.424
51542W        W18083  37.436   3.539   9.781
51543W        W18084  12.180  41.059  12.396
51544W        W18085  17.204  42.021  11.549
51545W        W18086  34.552   9.691  14.213
51546W        W18087  12.840   8.406  11.140
51547W        W18088  37.576  36.137   4.685
51548W        W18089  37.065  13.830   4.095
51549W        W18090  21.031   2.418  12.904
51550W        W18091  30.955  44.835  10.261
51551W        W18092  16.831   2.344   3.142
51552W        W18093  28.936  18.428   0.878
51553W        W18094  31.652  33.365  13.907
51554W        W18095  14.833  32.117   1.832
51555W        W18096  18.142   8.176  10.817
51556W        W18097  15.705  22.392   1.180
51557W        W18098  15.696   4.434  13.386
51558W        W18099  42.933  30.955  10.561
51559W        W18100  36.646  41.870   2.585
51560W        W18101  38.035   7.634  12.463
51561W        W18102  40.572   5.270   2.222
51562W        W18103  20.714  15.588   4.041
51563W        W18104  29.172   2.439  14.879
51564W        W18105  43.894   2.473   3.722
51565W        W18106   4.842  10.591   1.870
51566W        W18107  19.177  36.135   2.252
51567W        W18108  17.856  26.978   2.262
51568W        W18109  27.712  33.682  12.434
51569W        W18110  10.914   6.124  12.906
51570W        W18111   2.094  27.045   1.264
51571W        W18112  25.483  27.645  12.408
51572W        W18113  31.224  13.232   0.953
51573W        W18114  20.834  20.964  11.595
51574W        W18115  22.215  23.654   3.823
51575W        W18116   5.942   3.217  10.598
51576W        W18117   7.265  34.694  10.887
51577W        W18118  18.234  19.679  14.895
51578W        W18119  17.050  20.923  14.234
51579W        W18120  29.058  12.214  11.302
51580W        W18121  43.596  21.235  10.189
51581W        W18122   0.964   0.424   4.097
51582W        W18123  15.715   4.183  14.851
51583W        W18124   2.464  40.851   2.916
51584W        W18125  10.717  22.699  13.584
51585W        W18126  21.715  40.360  11.524
51586W        W18127   3.884  38.365  13.514
51587W        W18128  40.272  36.532   3.685
51588W        W18129  39.440  35.052   0.907
51589W        W18130   2.737  15.601   4.849
51590W        W18131   5.923  26.947   3.268
51591W        W18132  36.815   5.390   2.745
51592W        W18133   3.308   2.922   1.820
51593W        W18134  22.529   6.079   0.655
51594W        W18135  15.702  14.765   4.941
51595W        W18136  19.705  35.189   2.213
51596W        W18137  41.649  12.694   4.824
51597W        W18138  18.595  31.154  10.612
51598W        W18139  18.506  14.576   3.893
51599W        W18140   6.854  16.194   2.442
51600W        W18141  38.331  29.710  11.465
51601W        W18142  33.359  41.720   1.621
51602W        W18143  31.722   7.221   2.495
51603W        W18144  25.022  20.435   0.481
51604W        W18145  36.892  44.553  12.660
51605W        W18146  28.672   0.717  14.514
51606W        W18147   4.179  31.963   1.765
51607W        W18148  44.312  21.748   2.108
51608W        W18149   5.495  16.500   3.333
51609W        W18150  10.663  28.164   3.276
51610W        W18151   4.159  42.367  13.992
51611W        W18152  19.003  17.321   1.829
51612W        W18153  34.153  34.604  10.791
51613W        W18154  32.848  20.453   0.586
51614W        W18155  26.562   4.679  14.758
51615W        W18156  39.091  15.781  14.389
51616W        W18157  20.230  10.957   4.957
51617W        W18158  34.560   0.514  13.572
51618W        W18159  16.489  21.597   3.669
51619W        W18160   7.310   9.887   0.503
51620W        W18161  42.984  18.221   0.855
51621W        W18162  38.963  23.148   3.597
51622W        W18163  30.647   5.396  11.758
51623W        W18164  44.799  44.357   4.536
51624W        W18165  22.084  37.845   4.490
51625W        W18166  15.796  41.290  11.576
51626W        W18167   5.201  37.400   4.103
51627W        W18168  40.901  13.574   2.831
51628W        W18169  39.167  25.520  11.854
51629W        W18170  36.635   1.719  12.006
51630W        W18171  28.012  10.520   2.868
51631W        W18172  42.281  44.735  10.712
51632W        W18173  12.106  41.217  13.362
51633W        W18174  28.398  28.675  10.810
51634W        W18175  32.176   7.843  13.630
51635W        W18176   9.163   6.045   1.362
51636W        W18177   0.289  17.054   4.055
51637W        W18178  28.317  14.087  10.289
51638W        W18179   2.651  17.203   0.011
51639W        W18180   5.257  16.720   2.679
51640W        W18181   7.411  34.364  12.310
51641W        W18182   6.808  44.850   2.764
51642W        W18183   9.865   3.245   4.297
51643W        W18184   1.731  42.680   0.737
51644W        W18185  14.699  40.032  11.192
51645W        W18186   2.792  15.533   3.431
51646W        W18187  12.344  31.062   3.256
51647W        W18188  31.096   8.276  12.050
51648W        W18189  34.973  19.033  11.997
51649W        W18190  35.469  34.305  14.261
51650W        W18191  43.085  34.432  12.578
51651W        W18192  15.875  29.142  14.440
51652W        W18193   3.771   1.118   2.700
51653W        W18194  18.187  17.766   4.740
51654W        W18195  21.096  36.357   0.247
51655W        W18196  28.627  11.219  10.934
51656W        W18197  25.393  19.124   3.662
51657W        W18198   2.975  11.854   3.523
51658W        W18199   2.612  22.059   3.593
51659W        W18200  29.421  38.543  13.542
51660W        W18201  23.508  29.497   0.240
51661W        W18202  32.187  37.516  11.129
51662W        W18203  29.026  31.492   3.279
51663W        W18204  17.240  33.504   4.216
51664W        W18205   7.215  29.864  14.305
51665W        W18206  40.986  24.817  11.736
51666W        W18207   2.424   5.727   1.002
51667W        W18208  40.796  39.402  10.781
51668W        W18209   3.362  31.723  14.387
51669W        W18210  17.421  15.848   4.739
51670W        W18211  18.362  23.973   4.141
51671W        W18212  31.644  12.604   2.783
51672W        W18213   1.707  23.900   3.477
51673W        W18214   1.632  12.555  11.205
51674W        W18215  22.238  20.590   1.688
51675W        W18216   6.769  18.245   0.797
51676W        W18217  38.359   3.066   0.695
51677W        W18218  22.229   4.029   2.776
51678W        W18219  29.238  13.268  12.163
51679W        W18220   5.162   0.275  11.132
51680W        W18221   5.102  24.123  14.895
51681W        W18222  12.097  34.584   4.001
51682W        W18223   0.323  16.897  13.376
51683W        W18224   2.733   0.300   3.900
51684W        W18225  26.185  18.050   2.886
51685W        W18226  33.841  32.985  14.469
51686W        W18227  15.536  44.971   2.896
51687W        W18228   0.848  25.599   3.160
51688W        W18229   7.239  44.267  12.658
51689W        W18230  27.196   5.671   3.082
51690W        W18231  15.385  27.046   4.080
51691W        W18232  33.389  27.740  10.598
51692W        W18233   9.269   6.130  11.709
51693W        W18234  31.530  13.879  12.861
51694W        W18235  22.109  33.463  14.045
51695W        W18236  26.010  42.546  12.875
51696W        W18237  29.640  27.662   2.210
51697W        W18238  44.259  34.973   2.807
51698W        W18239  36.093  27.098  11.616
51699W        W18240  10.663  29.487  10.609
51700W        W18241   8.588  18.218   0.818
51701W        W18242   0.426   2.061   9.802
51702W        W18243  23.611  32.078  10.063
51703W        W18244  11.400  28.419   3.802
51704W        W18245   9.087  35.693   4.899
51705W        W18246  19.272  26.477   2.244
51706W        W18247  20.478  14.085  11.673
51707W        W18248  22.596   0.568   0.808
51708W        W18249  35.987  19.083  14.373
51709W        W18250  11.496  18.171   1.222
51710W        W18251  34.380  30.253   2.583
51711W        W18252  31.538  39.999  10.978
51712W        W18253  37.114  27.888  11.986
51713W        W18254   0.344  10.393   2.305
51714W        W18255  17.314  24.192  12.952
51715W        W18256  10.440  33.970   4.064
51716W        W18257   8.666   5.832   0.387
51717W        W18258  29.100  22.164  11.634
51718W        W18259  42.465  17.460  12.735
51719W        W18260  18.572   1.229   3.018
51720W        W18261  29.091  39.012  14.344
51721W        W18262  29.942  22.950   4.038
51722W        W18263  24.937   3.638   0.877
51723W        W18264  25.785   7.267  10.026
51724W        W18265  31.792  11.480   4.938
51725W        W18266  32.364  14.534  13.004
51726W        W18267  25.498  44.226  13.921
51727W        W18268  27.167  21.621  10.721
51728W        W18269  43.795  28.508  12.817
51729W        W18270  38.930  23.630  13.018
51730W        W18271  43.172  15.580   1.524
51731W        W18272  42.052  12.608  11.618
51732W        W18273  26.970  41.462  10.999
51733W        W18274   0.646   7.204  10.124
51734W        W18275  39.568  10.779   1.698
51735W        W18276  44.949  32.754   0.441
51736W        W18277   4.741   3.833   0.836
51737W        W18278  43.420  39.995   0.411
51738W        W18279  40.083  44.368  12.774
51739W        W18280  19.466   8.383  11.152
51740W        W18281  37.621  30.645  13.910
51741W        W18282  38.640  36.958   4.396
51742W        W18283  29.151  26.195   4.473
51743W        W18284  25.622  44.706   3.236
51744W        W18285  24.012   8.706   2.697
51745W        W18286  10.528  41.401   4.112
51746W        W18287   9.191   7.178  10.566
51747W        W18288  26.002  18.828  13.882
51748W        W18289  27.801  32.552  13.729
51749W        W18290  26.094   1.022   3.375
51750W        W18291  40.371   4.903  12.111
51751W        W18292  25.236  17.131   0.472
51752W        W18293  31.358  10.579   3.060
51753W        W18294  29.582  16.061   2.381
51754W        W18295  14.136  32.682   4.589
51755W        W18296   1.836   5.303   0.619
51756W        W18297  35.582   0.121   1.193
51757W        W18298  20.086   6.616   9.903
51758W        W18299   5.649  24.951   1.288
51759W        W18300  32.005  43.372   3.234
51760W        W18301  23.179  28.700   3.511
51761W        W18302  33.882  41.567   3.507
51762W        W18303  21.552   4.461   1.333
51763W        W18304  20.680  36.080   2.779
51764W        W18305  27.594  10.450  10.868
51765W        W18306  25.174  40.493  13.332
51766W        W18307  34.961   6.283  12.412
51767W        W18308  17.278  42.770  12.069
51768W        W18309  38.342  13.374  11.239
51769W        W18310   6.322  14.766  10.669
51770W        W18311  21.264   2.023   1.734
51771W        W18312  32.981   4.768  11.119
51772W        W18313  10.398  41.438  13.837
51773W        W18314  37.517   8.378  13.334
51774W        W18315   0.358  30.825   4.745
51775W        W18316  33.831  38.318   0.246
51776W        W18317  15.768  35.105   1.963
51777W        W18318  37.253   7.619  12.056
51778W        W18319  21.290  24.638  14.727
51779W        W18320   4.202   0.519  13.890
51780W        W18321  21.962  43.983   2.377
51781W        W18322  35.817  21.561   2.766
51782W        W18323  44.812  40.447  12.651
51783W        W18324  30.338  16.297   2.815
51784W        W18325  15.691  31.825   3.577
51785W        W18326  42.514  42.830   4.242
51786W        W18327  31.851  43.437  14.055
51787W        W18328   6.726  12.542  11.155
51788W        W18329   5.707   2.110  11.632
51789W        W18330  41.466  11.237  11.014
51790W        W18331  11.212  14.331   3.735
51791W        W18332  26.733  30.019  14.434
51792W        W18333  41.408  24.045   4.140
51793W        W18334   4.692   9.312   0.141
51794W        W18335  22.514  35.118   0.935
51795W        W18336  10.170  28.414  11.211
51796W        W18337   2.589  33.634  10.304
51797W        W18338  18.641  40.548  13.148
51798W        W18339  16.234  44.819  14.601
51799W        W18340   4.711  26.719  10.067
51800W        W18341  31.043  37.395   2.240
51801W        W18342  40.804  38.444  10.742
51802W        W18343  27.994   7.217   2.803
51803W        W18344  27.502  12.539   5.387
51804W        W18345  34.933  23.555  11.217
51805W        W18346  29.215  44.355  11.637
51806W        W18347  12.662  40.921  13.847
51807W        W18348  39.339  12.615   0.793
51808W        W18349   7.102  35.577   1.241
51809W        W18350  41.004  15.333   4.262
51810W        W18351  36.504  41.708  10.731
51811W        W18352   3.208  30.192   2.625
51812W        W18353  31.089  26.683  13.321
51813W        W18354  25.827  17.695   2.684
51814W        W18355  44.639  30.264  14.379
51815W        W18356   8.009   7.215  11.602
51816W        W18357  44.768  31.485  11.611
51817W        W18358  27.139   0.308   2.847
51818W        W18359  16.621  40.087   0.352
51819W        W18360  20.567  41.076  11.167
51820W        W18361  41.902  22.362  11.587
51821W        W18362  31.430   1.477  11.469
51822W        W18363  43.709  24.084   0.836
51823W        W18364  12.152   3.289  14.346
51824W        W18365   2.095  38.001   1.409
51825W        W18366  38.583  31.247  12.180
51826W        W18367  12.573  14.387  11.550
51827W        W18368  13.241  26.691   1.722
51828W        W18369   1.476   9.180   0.302
51829W        W18370  17.341   6.366  13.043
51830W        W18371  22.112  20.205   2.974
51831W        W18372  24.628  42.976  12.980
51832W        W18373  36.638  33.095   1.683
51833W        W18374  36.109  13.936   1.349
51834W        W18375  23.989   5.840  11.599
51835W        W18376  42.011  25.019   4.421
51836W        W18377  44.398  33.049   4.153
51837W        W18378  15.718   3.891  12.150
51838W        W18379   0.869  36.997  12.378
51839W        W18380  35.652  40.472  10.702
51840W        W18381   5.863  38.017  11.718
51841W        W18382   9.375   1.320   4.907
51842W        W18383  44.962  27.298  10.790
51843W        W18384  10.335  27.047  11.980
51844W        W18385  20.665   1.388  13.366
51845W        W18386   0.364  35.313   4.663
51846W        W18387   2.447  11.906   4.148
51847W        W18388  38.911  33.191   4.111
51848W        W18389  19.424   2.678   4.063
51849W        W18390   3.979  37.441   0.454
51850W        W18391   5.329   8.882  12.043
51851W        W18392  19.557  19.619   0.789
51852W        W18393   0.225   0.843   0.446
51853W        W18394   5.826  42.507  14.511
51854W        W18395  25.655  34.077   0.463
51855W        W18396  43.718   3.498  13.895
51856W        W18397   7.751  15.236   2.652
51857W        W18398  24.528   4.280  10.740
51858W        W18399   1.632  33.444  10.191
51859W        W18400  35.710   7.163  11.090
51860W        W18401  31.120  20.294  14.017
51861W        W18402  19.025  13.193   4.516
51862W        W18403  39.833  13.263  14.551
51863W        W18404  12.335  32.589   1.376
51864W        W18405  24.695  20.838   1.200
51865W        W18406  38.941  40.209  11.748
51866W        W18407  13.432   6.645   0.962
51867W        W18408  37.264  25.219  13.422
51868W        W18409  28.711  16.151   0.736
51869W        W18410  38.833   6.705  14.452
51870W        W18411  25.961  20.271   4.149
51871W        W18412  41.952  17.285  13.532
51872W        W18413  44.039  34.485   1.852
51873W        W18414   0.936  44.923   2.320
51874W        W18415  13.793  23.524  12.915
51875W        W18416  39.392  19.266   4.606
51876W        W18417  21.578   0.498  11.868
51877W        W18418   9.381  29.906  13.362
51878W        W18419   0.503  34.311   1.684
51879W        W18420  30.906  37.892   2.383
51880W        W18421   0.910  37.622   0.826
51881W        W18422  10.799   2.955   1.798
51882W        W18423  18.529  30.381   2.427
51883W        W18424  26.748  14.715   2.010
51884W        W18425  10.386   0.581   3.243
51885W        W18426  28.074  19.826   4.049
51886W        W18427   2.875   1.515  13.046
51887W        W18428   7.631   5.209  14.351
51888W        W18429  42.604  11.149   3.762
51889W        W18430  10.322  42.972   2.383
51890W        W18431  26.563  17.697  13.930
51891W        W18432  31.886  34.789   4.618
51892W        W18433  36.011  20.216   3.233
51893W        W18434  29.576  16.808  13.486
51894W        W18435  14.782   5.052  12.686
51895W        W18436  11.621  19.134   4.151
51896W        W18437   0.710  12.160   0.041
51897W        W18438  39.484  10.459  14.362
51898W        W18439  24.044  13.095  11.250
51899W        W18440   0.689  23.996  11.164
51900W        W18441  36.013  31.863  13.892
51901W        W18442  37.033  37.450  11.171
51902W        W18443  11.349  14.689  13.584
51903W        W18444  24.577  21.964  13.069
51904W        W18445  43.186  24.469   3.792
51905W        W18446  33.131   4.818   2.737
51906W        W18447   9.673  12.711   1.730
51907W        W18448  12.057  25.403  12.456
51908W        W18449  18.636  27.485   4.732
51909W        W18450  34.857  43.357   0.061
51910W        W18451  39.938  44.554  11.803
51911W        W18452  34.643  20.069   3.819
51912W        W18453  21.764  23.580   1.831
51913W        W18454  39.719   1.982   0.839
51914W        W18455   3.721   0.337  13.974
51915W        W18456   4.427  35.331   1.200
51916W        W18457  40.247  31.156  14.302
51917W        W18458  32.935  18.699   0.895
51918W        W18459  38.135  22.642  10.272
51919W        W18460  28.216  40.956  13.872
51920W        W18461  32.372   1.279   2.673
51921W        W18462  31.112  30.589   0.339
51922W        W18463  27.802  26.946  10.364
51923W        W18464  22.119  21.788  11.445
51924W        W18465   7.808  33.860   3.229
51925W        W18466  11.271  28.632   2.669
51926W        W18467  39.494  43.777  13.026
51927W        W18468  23.189  11.703   3.647
51928W        W18469  18.763  23.218   3.798
51929W        W18470   9.950   9.418  14.414
51930W        W18471   5.722  38.530   2.869
51931W        W18472  35.201  43.584   4.125
51932W        W18473  24.460  39.525   2.794
51933W        W18474  14.357  17.114   0.286
51934W        W18475  11.659  22.533  10.718
51935W        W18476   1.457  21.190  13.346
51936W        W18477  22.479  27.495   0.041
51937W        W18478   3.638  43.419   3.906
51938W        W18479  39.967   0.938   3.166
51939W        W18480  44.880  20.100  13.190
51940W        W18481  23.237  39.419  11.409
51941W        W18482  41.030   4.548   3.714
51942W        W18483  31.425  20.314   2.348
51943W        W18484  38.879   4.383  12.432
51944W        W18485  36.457  28.870   1.407
51945W        W18486  11.996  18.075  10.170
51946W        W18487  25.682  21.216  12.946
51947W        W18488  34.933  35.718  11.099
51948W        W18489  40.112  30.334   2.142
51949W        W18490  21.806  44.999   3.845
51950W        W18491  22.833   0.908   3.205
51951W        W18492   1.783  34.016   4.215
51952W        W18493   6.440  24.247   2.291
51953W        W18494  17.939   0.873   1.596
51954W        W18495  34.724  39.925   0.457
51955W        W18496  44.553  18.748   2.491
51956W        W18497  33.535  14.240  13.333
51957W        W18498  27.221  37.173  13.747
51958W        W18499  18.003  26.172   3.902
51959W        W18500  18.207  39.007  13.606
51960W        W18501  12.494   2.024   1.223
51961W        W18502   5.673  27.004  12.455
51962W        W18503   6.638  34.067   4.053
51963W        W18504   3.151  21.973   2.794
51964W        W18505  10.613  28.723  14.894
51965W        W18506  34.204   1.489  13.891
51966W        W18507   6.928  43.491   4.119
51967W        W18508  26.477  24.143   2.216
51968W        W18509  32.083  31.132   2.883
51969W        W18510  20.162  31.030   2.182
51970W        W18511  15.300   5.760   0.020
51971W        W18512  21.550   5.239  13.476
51972W        W18513   6.395  19.341  12.440
51973W        W18514   8.845  15.046   1.281
51974W        W18515   4.001  35.100   4.074
51975W        W18516  39.066  34.958   1.935
51976W        W18517  27.170  24.919  12.655
51977W        W18518   6.318   9.352   4.698
51978W        W18519  26.064   7.672  10.746
51979W        W18520   9.113  24.104   1.457
51980W        W18521  11.689   3.182  13.473
51981W        W18522  22.225  38.296   1.920
51982W        W18523  24.419  30.057  13.362
51983W        W18524  38.995   9.628   4.303
51984W        W18525  22.784  11.263  10.294
51985W        W18526  30.679  18.649   1.250
51986W        W18527   2.756  30.392   2.752
51987W        W18528  19.006  19.608  13.554
51988W        W18529  41.826  34.945   2.113
51989W        W18530  36.511  39.040   2.647
51990W        W18531  42.985  17.517   0.570
51991W        W18532  33.390   9.883  14.979
51992W        W18533   1.575  37.352  13.805
51993W        W18534  39.090  34.561   2.654
51994W        W18535  36.576  11.855   4.588
51995W        W18536   2.852  44.521  11.051
51996W        W18537  14.264  13.050  12.327
51997W        W18538  42.029   4.541   1.558
51998W        W18539  42.870  39.384  13.944
51999W        W18540  37.923   6.321   4.222
52000W        W18541   7.709  17.678  11.017
52001W        W18542  23.364  10.966  14.900
52002W        W18543  13.630  32.710  13.337
52003W        W18544  33.379   6.144   4.792
52004W        W18545   5.975  35.926  12.036
52005W        W18546  29.009  26.044   2.161
52006W        W18547  31.452  32.361  10.945
52007W        W18548  23.068   6.241   2.758
52008W        W18549  35.545  22.809  11.587
52009W        W18550  36.541  34.813  12.583
52010W        W18551  32.621  27.865  11.622
52011W        W18552  10.216  39.942   4.996
52012W        W18553  43.685  15.627  14.283
52013W        W18554  22.925  11.865   3.233
52014W        W18555  39.844  19.259  10.800
52015W        W18556  28.386  23.277  14.413
52016W        W18557   5.598  37.413  12.434
52017W        W18558  15.596   7.868   1.940
52018W        W18559  14.804   7.746   4.844
52019W        W18560  29.868  23.007   4.540
52020W        W18561   8.935   5.354  10.274
52021W        W18562  42.811  10.233  14.421
52022W        W18563  43.014  26.699   3.385
52023W        W18564   8.058  30.504   3.377
52024W        W18565  22.615  31.572   3.622
52025W        W18566  41.269   6.842   4.108
52026W        W18567  32.541  37.804  12.018
52027W        W18568  24.510  15.711  14.783
52028W        W18569  33.034  21.131  11.081
52029W        W18570   6.854  43.492  14.793
52030W        W18571  42.431  44.868   1.822
52031W        W18572   8.851  18.079   3.764
52032W        W18573   3.561  29.017  14.403
52033W        W18574   1.337  42.865  14.482
52034W        W18575   4.193  33.883   4.338
52035W        W18576  22.519   5.250   2.232
52036W        W18577  40.253   7.762  13.994
52037W        W18578   2.940  14.365   1.086
52038W        W18579  27.360  34.474  12.532
52039W        W18580   7.735  12.368  13.842
52040W        W18581  26.906  28.386  13.731
52041W        W18582   7.110  41.386  12.503
52042W        W18583  33.476  11.304  12.066
52043W        W18584  35.402  24.423   3.246
52044W        W18585  44.418  22.035  12.993
52045W        W18586  25.340  22.107  14.991
52046W        W18587  28.709  43.981  13.392
52047W        W18588  23.083  12.330   1.818
52048W        W18589   0.988  17.655   3.154
52049W        W18590  38.246  23.825  12.953
52050W        W18591  25.631  35.840  10.553
52051W        W18592  43.283   5.250   3.137
52052W        W18593  31.534  26.440  11.994
52053W        W18594  36.653  12.191   9.863
52054W        W18595   7.620  39.052  12.093
52055W        W18596  35.803   7.651   2.356
52056W        W18597   6.827  39.083   2.353
52057W        W18598  23.521  15.025   4.522
52058W        W18599  15.996   7.356   4.161
52059W        W18600  33.616  22.520   5.040
52060W        W18601  13.349  18.818   5.043
52061W        W18602  15.263  30.834   1.826
52062W        W18603  12.879  26.666   1.305
52063W        W18604  22.146   2.455   2.269
52064W        W18605  14.915   4.432   3.626
52065W        W18606  37.380   9.404  11.703
52066W        W18607   5.916  11.507   0.894
52067W        W18608  42.332  11.225   2.373
52068W        W18609  20.705  44.508  10.974
52069W        W18610  15.661  37.818  13.657
52070W        W18611  12.067  29.008  11.669
52071W        W18612  33.190  40.193  10.519
52072W        W18613  42.319  36.159  13.677
52073W        W18614  36.038   4.083   1.527
52074W        W18615   5.367  12.241  13.896
52075W        W18616  25.641   9.845   2.753
52076W        W18617  31.475  42.848  11.532
52077W        W18618  15.691  24.958   2.674
52078W        W18619  20.250  23.985  12.060
52079W        W18620  19.966  19.228  11.537
52080W        W18621  30.591  10.195   1.777
52081W        W18622  36.332  37.521  14.277
52082W        W18623  39.296  10.383  11.453
52083W        W18624  32.878  35.988  14.407
52084W        W18625   3.358  29.439   4.149
52085W        W18626  40.379  17.794   2.071
52086W        W18627  24.395  28.390   1.697
52087W        W18628  39.422   4.994   2.385
52088W        W18629  19.225   9.331   3.709
52089W        W18630  43.062  10.873   2.289
52090W        W18631  44.399   4.190  12.468
52091W        W18632  22.307  25.610   4.803
52092W        W18633  15.439  38.807  10.748
52093W        W18634  13.238   7.987  14.319
52094W        W18635  23.148   2.430   4.088
52095W        W18636   4.158   9.674   4.112
52096W        W18637  29.716   8.084  11.439
52097W        W18638  22.604  44.872  10.993
52098W        W18639  39.507  26.844  12.435
52099W        W18640  13.761  23.983   4.648
52100W        W18641  32.660   1.285   3.964
52101W        W18642   1.933   9.334   4.263
52102W        W18643  11.249  12.642   0.491
52103W        W18644  12.255  16.473   4.058
52104W        W18645  26.987  35.787   2.134
52105W        W18646  28.081  40.292   0.823
52106W        W18647  22.160  27.597   2.690
52107W        W18648  44.508  29.610  12.623
52108W        W18649  10.359  40.511   1.287
52109W        W18650  18.310  42.463   0.974
52110W        W18651   7.770  26.725   3.199
52111W        W18652  11.249  19.157  10.960
52112W        W18653  31.973  17.290   0.147
52113W        W18654   6.011  26.300   3.627
52114W        W18655  23.010  44.465  14.819
52115W        W18656  42.061  12.125  12.898
52116W        W18657   6.127  38.165   4.586
52117W        W18658  33.696   0.426   3.716
52118W        W18659  22.209  16.215  13.931
52119W        W18660  33.025  35.554   4.767
52120W        W18661  29.959   4.470  12.921
52121W        W18662  18.227  25.569  13.558
52122W        W18663  26.269  31.212  12.795
52123W        W18664  28.827  36.544   3.324
52124W        W18665  19.027  15.094  11.625
52125W        W18666  29.121  21.088   4.598
52126W        W18667   2.725  15.217   4.486
52127W        W18668  32.131  26.979  11.600
52128W        W18669   3.873  25.500   3.689
52129W        W18670  12.862   8.704  12.438
52130W        W18671  34.932  33.152   0.297
52131W        W18672   1.131  30.012   2.311
52132W        W18673   3.317  14.292   4.744
52133W        W18674  20.250  25.664   0.639
52134W        W18675  25.732   6.601   2.823
52135W        W18676  20.213  31.332  14.252
52136W        W18677  27.789  21.366  11.408
52137W        W18678  14.708  26.753   0.249
52138W        W18679   8.885   6.976   2.666
52139W        W18680  42.456   0.836   0.401
52140W        W18681   2.787  12.107  11.519
52141W        W18682  35.708  13.743   1.628
52142W        W18683  15.011   5.858  14.585
52143W        W18684  43.319   5.153  11.753
52144W        W18685   7.954  19.192   4.643
52145W        W18686   0.194   3.414   4.975
52146W        W18687  35.460  22.252   1.722
52147W        W18688   9.221  38.604  11.425
52148W        W18689   2.120  20.052   1.188
52149W        W18690  14.660   6.169  13.920
52150W        W18691  10.376   3.263  10.433
52151W        W18692  44.958   4.310   4.570
52152W        W18693  22.989  28.633  10.672
52153W        W18694   6.233   4.073   4.096
52154W        W18695  38.913  41.791  13.955
52155W        W18696  15.513  31.547  14.724
52156W        W18697   2.791  39.417  14.352
52157W        W18698  32.526   2.701  13.478
52158W        W18699  13.349  37.913  12.415
52159W        W18700   9.746  15.822  14.548
52160W        W18701   7.241   5.339   4.628
52161W        W18702  29.999  41.457  12.360
52162W        W18703  21.669  16.628  14.738
52163W        W18704  31.091  15.060   1.480
52164W        W18705  23.096   0.376   0.652
52165W        W18706  41.760  28.637  14.407
52166W        W18707   8.229  41.273  14.325
52167W        W18708  30.718  40.216  10.825
52168W        W18709  40.183   0.493  13.754
52169W        W18710  20.661  28.029   4.598
52170W        W18711  23.933  33.893  14.285
52171W        W18712  39.517  26.410  13.323
52172W        W18713  29.975  40.602   0.248
52173W        W18714  27.136  27.528  13.813
52174W        W18715  18.255  11.731  11.626
52175W        W18716  19.983   6.525   2.329
52176W        W18717   2.362  36.625  12.031
52177W        W18718  23.281  16.222   0.240
52178W        W18719   0.241  43.682  11.625
52179W        W18720   4.782  41.825  14.413
52180W        W18721  38.647  12.863  13.289
52181W        W18722  25.217  39.072  14.475
52182W        W18723  43.060  13.778   4.687
52183W        W18724  33.838  33.340   0.993
52184W        W18725   8.698   2.283   3.161
52185W        W18726  27.186  21.931   3.708
52186W        W18727   7.609  41.535  12.464
52187W        W18728  19.724  32.685  12.487
52188W        W18729   6.855   9.148  14.977
52189W        W18730  21.114  38.568   3.299
52190W        W18731  20.159  42.799   1.093
52191W        W18732   1.390   9.167   4.108
52192W        W18733   7.889  32.603   4.685
52193W        W18734  35.137  31.382  12.527
52194W        W18735   9.302   6.116  10.631
52195W        W18736  29.172  16.432   4.430
52196W        W18737  37.061  13.341   4.271
52197W        W18738  36.073   4.518   3.580
52198W        W18739  17.111   9.213   3.392
52199W        W18740  28.497  31.426  11.909
52200W        W18741   3.183  39.628  12.303
52201W        W18742  41.541  39.973   1.301
52202W        W18743  21.653  12.471  10.708
52203W        W18744  29.184   9.993   3.433
52204W        W18745   8.244  15.709   1.869
52205W        W18746  16.896  19.805  14.765
52206W        W18747  35.913  14.595   4.524
52207W        W18748   3.298  19.430  12.159
52208W        W18749  22.474  10.355   0.322
52209W        W18750  31.663  10.194  13.973
52210W        W18751  26.052   2.488   4.145
52211W        W18752  24.871  34.464   4.949
52212W        W18753  40.697   9.341  13.139
52213W        W18754  27.179   7.782   0.843
52214W        W18755   9.779  15.609   4.236
52215W        W18756  23.566   4.290  14.471
52216W        W18757  10.211  38.118   0.965
52217W        W18758  29.481   5.452  14.794
52218W        W18759  42.793   1.610  11.090
52219W        W18760  19.822   2.162   3.238
52220W        W18761  19.004  33.934  13.560
52221W        W18762  16.568  41.526  11.130
52222W        W18763   0.168   1.447  13.818
52223W        W18764  25.217  37.987   1.414
52224W        W18765  20.325   2.854  14.680
52225W        W18766   2.317   6.729   1.982
52226W        W18767  31.571  33.249  10.425
52227W        W18768  32.428   1.333  11.120
52228W        W18769  23.970  18.583  11.152
52229W        W18770  16.022  12.808  14.766
52230W        W18771  40.437  10.318   3.996
52231W        W18772  14.579  43.638   4.524
52232W        W18773  34.637  23.210   3.315
52233W        W18774  42.184  42.972  11.150
52234W        W18775   6.325   3.938  14.048
52235W        W18776  31.336   4.909  12.853
52236W        W18777  12.669   6.905  12.640
52237W        W18778  27.319  10.596   3.659
52238W        W18779   4.272  23.737  14.738
52239W        W18780  34.672   5.479   0.885
52240W        W18781  12.852   2.430  12.411
52241W        W18782  20.554  20.290   1.179
52242W        W18783  37.462  31.155   0.455
52243W        W18784   5.720   0.328  13.965
52244W        W18785  44.617  22.593   2.612
52245W        W18786  16.491  25.678   4.560
52246W        W18787  16.001  36.407  10.739
52247W        W18788   8.361  33.073   1.401
52248W        W18789  41.067  42.453  13.322
52249W        W18790  27.381  32.047  11.520
52250W        W18791   5.245  33.024   3.564
52251W        W18792  20.316  17.975   4.127
52252W        W18793   5.765   1.820   0.740
52253W        W18794  21.792  33.486   3.850
52254W        W18795  15.032  26.429  13.470
52255W        W18796  12.877  10.391   0.456
52256W        W18797   0.175  19.503   0.801
52257W        W18798  43.435  35.914   0.706
52258W        W18799   2.686  25.932  12.648
52259W        W18800   1.402  38.135  12.033
52260W        W18801   9.036  26.392  13.435
52261W        W18802  12.283  32.433  12.090
52262W        W18803  23.178  39.431  10.897
52263W        W18804  40.348   4.404   2.914
52264W        W18805  29.880   1.564  11.855
52265W        W18806  11.253   0.701  13.741
52266W        W18807  13.035  31.994   2.928
52267W        W18808  13.369  44.954  13.874
52268W        W18809  38.635  41.579  10.509
52269W        W18810  21.455  41.978  12.459
52270W        W18811  22.101  30.836  14.989
52271W        W18812  12.233  44.769   1.725
52272W        W18813   0.352   9.634   3.659
52273W        W18814  27.919   7.805  10.651
52274W        W18815  40.524  41.190  11.460
52275W        W18816  10.351  43.853   4.123
52276W        W18817  19.223   2.050  12.037
52277W        W18818  16.401  27.484  14.099
52278W        W18819  28.725  36.573   4.050
52279W        W18820   1.580  24.331   9.753
52280W        W18821  37.469  17.540   2.487
52281W        W18822   1.947  30.513  10.322
52282W        W18823   3.451  16.834  14.064
52283W        W18824  18.448  11.381  13.402
52284W        W18825  17.820  44.927   3.102
52285W        W18826  40.522  40.107  13.872
52286W        W18827  18.992   4.673   2.247
52287W        W18828  30.381  17.211  12.989
52288W        W18829  21.148  35.841   0.242
52289W        W18830   8.509   4.366   4.688
52290W        W18831  38.094   9.960   0.057
52291W        W18832  29.726  32.784  12.887
52292W        W18833  10.421  42.911   1.420
52293W        W18834   1.389  27.951   0.012
52294W        W18835   8.848  21.330   1.926
52295W        W18836   8.757  11.918  12.103
52296W        W18837   9.256   8.442   2.640
52297W        W18838  41.510   0.371  11.415
52298W        W18839  26.731  22.056   4.587
52299W        W18840   5.705  22.096  12.471
52300W        W18841  39.313  19.727   0.411
52301W        W18842  26.791  44.491  13.678
52302W        W18843  27.503  11.953   2.390
52303W        W18844  19.235  31.838   4.505
52304W        W18845  18.719  13.465   3.981
52305W        W18846  37.150  11.163  11.475
52306W        W18847  42.254  22.648   0.889
52307W        W18848  42.595  16.998   3.699
52308W        W18849  18.037  13.047  12.594
52309W        W18850   8.948  22.566   3.179
52310W        W18851   9.268  26.708  11.291
52311W        W18852  35.946  19.323  12.726
52312W        W18853  31.518  17.137  11.662
52313W        W18854   5.702  44.520  11.659
52314W        W18855  21.474  44.092  11.982
52315W        W18856  42.452  37.010  10.586
52316W        W18857   6.445  15.351  11.487
52317W        W18858   1.350  23.941   1.277
52318W        W18859  21.387  36.134   3.232
52319W        W18860   5.419  30.816   2.641
52320W        W18861  30.404  23.104  13.807
52321W        W18862  37.982  32.782   2.915
52322W        W18863  19.598  23.719   0.499
52323W        W18864  19.073  43.455  13.802
52324W        W18865   2.456   7.587   2.751
52325W        W18866   8.091  15.787   3.704
52326W        W18867   8.155   9.981   0.799
52327W        W18868  24.219   9.690   4.514
52328W        W18869  36.601  18.298   0.760
52329W        W18870  17.642  37.338   1.762
52330W        W18871   2.213  26.682  11.676
52331W        W18872  26.058  35.780   0.789
52332W        W18873   6.120  35.863   5.234
52333W        W18874  39.135  11.810  13.374
52334W        W18875  12.389  41.222  12.937
52335W        W18876  16.344  24.933  14.936
52336W        W18877  14.733  44.228  13.979
52337W        W18878  10.737  23.386  14.376
52338W        W18879  38.994   6.354   5.334
52339W        W18880  34.312  18.554  12.480
52340W        W18881  20.882  27.739  11.846
52341W        W18882  26.980   5.006   1.550
52342W        W18883   6.126  38.921   1.712
52343W        W18884   6.225  12.309   0.757
52344W        W18885   9.157  28.674   1.439
52345W        W18886  33.941   6.279  14.443
52346W        W18887  41.275  23.565   3.317
52347W        W18888  37.289  21.293   0.554
52348W        W18889  18.435  36.776   1.950
52349W        W18890   8.243  24.956   2.506
52350W        W18891  19.541  25.242  12.901
52351W        W18892  30.357  33.920   0.348
52352W        W18893  16.273  41.000  10.652
52353W        W18894  35.849  30.164   4.185
52354W        W18895  43.001  28.907  11.527
52355W        W18896   6.628   4.949  13.118
52356W        W18897  33.993  14.975  11.044
52357W        W18898   9.868   9.866   1.782
52358W        W18899  26.058  16.052  11.894
52359W        W18900  39.896  34.191   2.875
52360W        W18901  43.204  14.295   4.569
52361W        W18902  26.057  21.452   0.354
52362W        W18903   1.869   5.152  11.635
52363W        W18904   2.225  21.096  14.801
52364W        W18905  15.466  42.595  14.514
52365W        W18906  22.549   7.371  11.208
52366W        W18907   7.870  13.873   4.092
52367W        W18908  22.492  24.568   1.183
52368W        W18909  13.087  10.257   0.913
52369W        W18910  20.682  17.186   3.645
52370W        W18911  39.444  21.730   1.440
52371W        W18912  41.665  21.676  10.935
52372W        W18913  27.290   8.819  14.451
52373W        W18914  15.327  31.953  10.220
52374W        W18915  33.734  13.921   4.227
52375W        W18916  30.311  12.893  11.593
52376W        W18917  24.016  13.846   4.031
52377W        W18918   2.757   8.187   3.332
52378W        W18919  38.111  12.595   0.499
52379W        W18920  23.686  24.666  10.777
52380W        W18921  34.673  26.544   2.840
52381W        W18922  38.472  34.320  13.816
52382W        W18923  19.664  16.395   4.544
52383W        W18924   4.223  23.791   3.273
52384W        W18925  27.008   9.854  14.955
52385W        W18926  42.469  41.902   4.454
52386W        W18927  14.823   5.755   2.307
52387W        W18928  32.966  21.210   2.826
52388W        W18929  17.129   8.283   0.365
52389W        W18930   0.656  20.969   3.132
52390W        W18931  19.296  10.717   4.230
52391W        W18932  31.114  39.805   1.516
52392W        W18933   2.376  26.477  10.950
52393W        W18934  37.964  32.785  12.003
52394W        W18935  41.979  32.150   4.953
52395W        W18936  41.109  37.117   1.466
52396W        W18937  35.362  17.213   4.583
52397W        W18938  37.809   8.893   2.296
52398W        W18939  40.955  44.457  13.677
52399W        W18940   2.731  24.493   0.886
52400W        W18941  18.020  39.954  11.545
52401W        W18942  35.550  39.767  13.061
52402W        W18943  41.904  12.580   3.075
52403W        W18944  11.899   1.394   0.285
52404W        W18945   8.836  42.898  12.387
52405W        W18946  12.597  42.772  11.000
52406W        W18947  22.942  43.852  12.097
52407W        W18948  19.222  11.584  13.504
52408W        W18949  14.804  36.572   2.665
52409W        W18950  20.531  26.488   4.618
52410W        W18951  44.847  11.822  14.926
52411W        W18952  19.251  41.801   1.358
52412W        W18953  44.842   2.506   3.735
52413W        W18954  44.801   2.919   2.139
52414W        W18955  31.517  29.822   3.762
52415W        W18956  42.451  33.460   2.187
52416W        W18957   5.225  33.328  12.550
52417W        W18958  28.011  12.608   4.268
52418W        W18959  17.478  17.649  13.045
52419W        W18960   3.258   3.392  12.243
52420W        W18961   0.026  39.394  13.099
52421W        W18962   5.138  23.197  13.487
52422W        W18963  14.985  24.414  14.931
52423W        W18964  27.833   9.646  10.740
52424W        W18965  41.583  44.910  11.673
52425W        W18966  11.849   2.445   3.709
52426W        W18967  44.656  33.573   3.677
52427W        W18968  34.386  39.328  14.895
52428W        W18969  28.222   3.205   3.143
52429W        W18970  26.320  29.843  11.601
52430W        W18971  25.963  18.599   2.205
52431W        W18972  32.930  20.040  11.607
52432W        W18973  39.681   1.334  11.041
52433W        W18974   1.026  24.548   3.308
52434W        W18975  13.329  15.034   3.971
52435W        W18976  31.522  41.955   2.824
52436W        W18977  27.172  20.184   0.846
52437W        W18978   5.263  39.877   4.650
52438W        W18979   0.381  23.725   0.383
52439W        W18980  24.223  32.070   3.434
52440W        W18981  21.487   9.613  13.044
52441W        W18982   2.201  30.558  12.141
52442W        W18983   5.420  20.477   2.763
52443W        W18984  20.152  26.598   2.667
52444W        W18985  34.758   4.126  11.092
52445W        W18986  28.364  20.112  13.394
52446W        W18987  24.732  39.472   1.860
52447W        W18988  30.015   5.537  11.679
52448W        W18989  34.216   0.542  13.953
52449W        W18990  21.200  15.325  13.539
52450W        W18991  34.525   8.980   3.193
52451W        W18992  42.938  36.691  13.518
52452W        W18993  28.610   8.214  12.607
52453W        W18994  27.506  17.102   4.123
52454W        W18995  31.090  16.665  10.634
52455W        W18996   7.687   4.443   0.706
52456W        W18997  41.067  29.755  11.161
52457W        W18998  25.236  29.309  14.364
52458W        W18999  12.295  36.505  12.514
52459W        W19000  22.058  25.372   0.821
52460W        W19001  19.672  35.971  13.073
52461W        W19002  34.888  41.841  12.535
52462W        W19003  35.205  39.510   4.618
52463W        W19004  38.534   5.718   0.766
52464W        W19005   8.765   6.737  11.459
52465W        W19006  37.955   4.150   2.142
52466W        W19007  17.642  30.047  13.922
52467W        W19008  12.675  23.009   3.709
52468W        W19009   4.364  26.068   1.652
52469W        W19010  26.629  21.145   3.592
52470W        W19011  30.213  15.734  10.260
52471W        W19012  20.567  21.167   3.146
52472W        W19013  24.899  33.309  11.888
52473W        W19014  14.367  27.505  13.762
52474W        W19015  13.002   7.430   0.389
52475W        W19016   4.888  36.165   4.138
52476W        W19017  14.031   6.027  14.402
52477W        W19018  36.465  17.405   2.288
52478W        W19019  35.151   7.256  12.296
52479W        W19020   8.944  18.423   1.155
52480W        W19021  21.239  32.091  10.627
52481W        W19022  15.733  32.679  13.426
52482W        W19023  31.509  38.827   1.795
52483W        W19024  24.088  37.706  11.973
52484W        W19025  25.453  16.653   3.131
52485W        W19026  33.692  17.886   2.105
52486W        W19027  35.875  18.524  11.999
52487W        W19028   6.189  36.973   2.777
52488W        W19029  27.648  41.817   4.538
52489W        W19030   8.748  16.798  12.460
52490W        W19031  34.461  23.070   2.368
52491W        W19032  36.864  42.948  13.085
52492W        W19033   0.228  43.909  13.389
52493W        W19034   7.336   8.323   0.809
52494W        W19035  28.102  37.362  10.694
52495W        W19036  12.649  32.929   2.331
52496W        W19037  25.122  25.626  14.033
52497W        W19038  43.954  33.235  11.025
52498W        W19039  15.816  20.191  11.199
52499W        W19040  26.774   6.702  14.845
52500W        W19041  18.557  31.637  10.410
52501W        W19042   8.779  28.481  14.457
52502W        W19043  16.077  27.396  13.356
52503W        W19044  39.873  38.535   4.394
52504W        W19045  44.319   1.457  13.937
52505W        W19046  18.618  24.903  11.852
52506W        W19047  39.057   5.687  11.506
52507W        W19048  42.550  10.772   2.234
52508W        W19049  33.947  25.392  13.693
52509W        W19050  41.839  25.742   0.266
52510W        W19051   3.006   5.342   2.499
52511W        W19052  12.374   4.987  13.609
52512W        W19053  22.697  13.088  11.551
52513W        W19054  40.868  22.803   4.735
52514W        W19055  13.178  24.129  14.359
52515W        W19056  21.680  41.903   1.901
52516W        W19057  24.323  28.886   4.608
52517W        W19058   8.628  33.631   4.602
52518W        W19059  26.643   9.014   2.595
52519W        W19060  36.063  18.269  11.541
52520W        W19061  19.792  43.266   2.330
52521W        W19062  33.463  12.488   3.065
52522W        W19063  22.111  39.406   2.833
52523W        W19064  43.273  33.966   1.764
52524W        W19065   5.715  14.145   3.154
52525W        W19066  26.199  16.689  12.064
52526W        W19067  13.853  29.943  14.487
52527W        W19068  29.703   1.216   2.210
52528W        W19069  27.593  17.334   3.645
52529W        W19070  22.871  32.898   2.930
52530W        W19071  34.479  13.519   3.323
52531W        W19072  30.497  24.955  13.417
52532W        W19073  38.267  19.512   4.826
52533W        W19074   7.812  25.273  10.562
52534W        W19075   4.386  22.432  10.204
52535W        W19076  20.712  10.511   9.962
52536W        W19077  31.914   2.724   3.575
52537W        W19078  32.632  35.535  14.483
52538W        W19079  39.371  38.310  14.888
52539W        W19080  41.119   4.733   4.234
52540W        W19081  35.093  43.255   1.779
52541W        W19082  24.985  16.001   3.761
52542W        W19083   0.735   2.750   3.547
52543W        W19084  14.247  14.819  12.162
52544W        W19085  10.277  43.414   1.490
52545W        W19086  10.273  36.917  13.870
52546W        W19087   2.572  41.182   3.772
52547W        W19088   6.215  33.969   0.021
52548W        W19089   0.277   6.122   1.821
52549W        W19090  29.045  24.596   3.654
52550W        W19091  36.118  19.208  11.493
52551W        W19092  17.619  44.530   3.420
52552W        W19093  13.203  13.898  11.984
52553W        W19094  42.930  25.217   3.388
52554W        W19095  19.704  41.056  12.910
52555W        W19096  27.108  42.328   4.727
52556W        W19097  36.657   5.269  12.579
52557W        W19098  36.499  26.599  14.211
52558W        W19099  36.290  19.661  12.422
52559W        W19100   3.953   2.824  14.041
52560W        W19101  34.111  16.209  13.974
52561W        W19102   3.503  43.104   3.116
52562W        W19103   3.723  32.934  13.410
52563W        W19104   3.277  14.884  10.602
52564W        W19105   0.027  17.708  13.958
52565W        W19106  17.125  29.170  14.886
52566W        W19107  26.367  41.721   4.062
52567W        W19108  42.829   0.754   4.751
52568W        W19109   6.228   1.570   0.907
52569W        W19110  39.762  33.123  14.937
52570W        W19111   8.484  36.792  13.369
52571W        W19112  20.252   6.469   2.762
52572W        W19113  42.233   5.388  11.915
52573W        W19114   6.191  24.965   3.657
52574W        W19115  27.070   9.669   1.431
52575W        W19116  15.285  33.230  11.176
52576W        W19117  30.227   0.325   3.934
52577W        W19118  34.224  16.825   2.726
52578W        W19119  43.875   7.167  14.247
52579W        W19120  38.763  41.105  13.336
52580W        W19121  33.047  26.117   1.910
52581W        W19122   9.737  21.954  11.003
52582W        W19123  27.272  27.128   0.486
52583W        W19124  11.579   5.932   3.606
52584W        W19125  36.215  19.393   2.848
52585W        W19126  39.146  40.789   3.734
52586W        W19127  41.490  37.946   3.388
52587W        W19128  13.381  40.586  12.177
52588W        W19129   5.282  40.136   3.122
52589W        W19130  31.856   2.444  10.268
52590W        W19131  24.713  38.322  13.379
52591W        W19132  32.674   1.291  13.987
52592W        W19133  29.892   7.206   2.231
52593W        W19134  23.432   6.898   1.242
52594W        W19135   7.006   9.555  14.095
52595W        W19136  44.841  14.619  14.474
52596W        W19137  44.531   6.884  12.043
52597W        W19138   0.641  29.623   2.942
52598W        W19139   8.009   5.247   3.691
52599W        W19140  22.208  32.568  12.316
52600W        W19141  10.763  15.265   4.599
52601W        W19142  25.704  12.452  14.019
52602W        W19143  13.798   6.316  13.828
52603W        W19144  30.604  41.448  14.901
52604W        W19145   4.968  41.328   3.665
52605W        W19146  14.358   5.204   1.079
52606W        W19147  37.374  44.465   4.029
52607W        W19148   0.266   7.333   4.848
52608W        W19149  21.999  41.890  13.320
52609W        W19150  21.639  19.269  10.471
52610W        W19151  39.698   8.720   4.232
52611W        W19152  23.585   7.730  11.628
52612W        W19153   2.929   4.808  13.413
52613W        W19154  12.585  24.997   2.865
52614W        W19155  23.056  12.193  11.378
52615W        W19156  34.820  11.470   0.188
52616W        W19157  17.780  31.537   4.158
52617W        W19158   2.660   5.104  12.379
52618W        W19159  15.193  13.417   2.119
52619W        W19160  36.957  42.546  12.277
52620W        W19161  11.970  15.083   2.269
52621W        W19162  35.008  39.619   2.386
52622W        W19163  24.096  29.697   5.066
52623W        W19164   2.416  16.981   0.766
52624W        W19165  36.672  37.979  13.051
52625W        W19166  42.065   6.967   3.221
52626W        W19167   6.687  22.220   2.426
52627W        W19168  32.359  24.650  14.981
52628W        W19169  40.136   5.360  13.976
52629W        W19170   1.424  34.508  11.209
52630W        W19171  26.166  26.048   2.145
52631W        W19172  17.282   6.112   0.785
52632W        W19173  18.725   6.219   0.421
52633W        W19174  31.217  28.724   2.544
52634W        W19175   4.361  23.768   4.116
52635W        W19176   2.165  29.220   0.477
52636W        W19177  43.294  44.521   0.416
52637W        W19178  22.158  41.037   0.736
52638W        W19179  33.743   0.334  13.948
52639W        W19180  40.845   6.478   4.425
52640W        W19181  12.863  32.364   3.280
52641W        W19182  17.301  23.430  14.770
52642W        W19183  27.458  34.244   1.432
52643W        W19184  25.078  24.705   0.675
52644W        W19185   5.420  40.727  11.898
52645W        W19186  43.524  15.129  13.142
52646W        W19187  25.208  11.591  12.154
52647W        W19188  31.433  31.672   3.226
52648W        W19189  43.488   9.812   2.792
52649W        W19190  11.381  24.970  13.455
52650W        W19191  16.499  16.520   4.043
52651W        W19192  11.695  34.855   1.314
52652W        W19193  39.427  27.217  11.561
52653W        W19194   9.196   8.174   2.188
52654W        W19195  14.251  19.708   4.667
52655W        W19196   0.547  28.451  14.819
52656W        W19197  42.040  38.359   4.208
52657W        W19198  25.982   1.771  14.692
52658W        W19199   0.933  38.143  12.263
52659W        W19200   6.439  27.994  13.409
52660W        W19201  30.561   3.023  14.444
52661W        W19202  20.529  44.583   2.690
52662W        W19203   2.176  24.765   0.058
52663W        W19204  10.693   9.440   1.455
52664W        W19205  15.365  41.065  14.048
52665W        W19206  33.958  40.007  14.886
52666W        W19207  16.042  21.826  12.470
52667W        W19208  25.545  10.074   3.205
52668W        W19209  21.209  44.380  12.330
52669W        W19210  11.894  26.236  11.050
52670W        W19211  44.981  43.387  13.457
52671W        W19212  25.440  21.671  11.269
52672W        W19213  43.887   1.535   3.184
52673W        W19214  23.117  42.762   0.605
52674W        W19215  16.360  30.996  14.106
52675W        W19216  38.675   4.861  12.438
52676W        W19217  42.045   7.403  14.222
52677W        W19218  25.202   1.872  11.116
52678W        W19219  24.550  38.477   0.939
52679W        W19220  11.298  38.994  11.536
52680W        W19221  25.142  41.545  11.185
52681W        W19222  27.277  14.125   2.156
52682W        W19223  18.290  36.750   2.713
52683W        W19224  20.169  25.388   4.021
52684W        W19225   7.029  13.610  13.911
52685W        W19226  12.685  22.046   1.375
52686W        W19227  26.003  38.448  11.552
52687W        W19228  26.690   2.859   4.620
52688W        W19229  13.343   5.920   2.183
52689W        W19230   0.729  27.512   2.441
52690W        W19231  13.257  38.741  11.207
52691W        W19232  32.996  22.125   4.637
52692W        W19233  28.310  19.845   2.177
52693W        W19234  11.908  39.960   4.493
52694W        W19235  39.501  24.703  12.964
52695W        W19236  35.152  21.534  14.002
52696W        W19237  15.728  41.498   0.313
52697W        W19238  18.974  18.294  11.638
52698W        W19239  12.358   6.496   4.147
52699W        W19240  35.177  18.173  11.090
52700W        W19241  38.046  43.167  13.474
52701W        W19242  37.896   6.127   2.107
52702W        W19243   2.303  18.324  14.754
52703W        W19244  19.632   9.425  12.037
52704W        W19245   1.739  42.556   3.830
52705W        W19246  38.937   4.350   9.923
52706W        W19247  22.158  38.090  11.446
52707W        W19248  42.772  22.580  10.947
52708W        W19249   9.910   4.156  12.045
52709W        W19250   0.268   8.389   0.796
52710W        W19251  41.305  43.136   4.822
52711W        W19252   3.039  34.036   5.172
52712W        W19253  29.990  29.913   1.199
52713W        W19254  39.465  23.440   2.864
52714W        W19255  26.205  28.006   0.452
52715W        W19256  15.342   0.327   3.232
52716W        W19257  20.289  20.738   4.526
52717W        W19258  31.522  29.594   2.917
52718W        W19259  29.058  34.145   1.933
52719W        W19260  19.521  40.288   4.440
52720W        W19261  10.955  43.071   3.716
52721W        W19262   3.487  27.596   0.270
52722W        W19263  19.832   1.048  14.058
52723W        W19264  42.922  10.635   1.839
52724W        W19265  41.911  14.825   4.583
52725W        W19266  41.537   9.932  13.504
52726W        W19267   8.816  26.511  12.874
52727W        W19268  20.456  28.658   4.591
52728W        W19269  10.143  44.745   1.926
52729W        W19270   9.796  31.233  13.905
52730W        W19271   1.767   2.152  11.379
52731W        W19272  29.988  18.220   2.256
52732W        W19273  42.898  44.048  13.843
52733W        W19274  27.043  11.912  11.878
52734W        W19275  22.076  25.144  12.331
52735W        W19276  36.383  23.124  11.924
52736W        W19277  27.721  20.208   0.891
52737W        W19278   0.995  32.858   2.224
52738W        W19279  40.475  12.088  14.426
52739W        W19280   1.176  21.830   0.469
52740W        W19281  32.490  32.493   2.825
52741W        W19282   2.025   8.302   1.676
52742W        W19283  14.210  20.223  13.115
52743W        W19284   8.191   5.935   0.215
52744W        W19285  31.088  11.118   5.428
52745W        W19286  16.213  35.349  12.161
52746W        W19287  18.684  25.438  14.912
52747W        W19288  14.501  42.464  14.305
52748W        W19289  24.681  17.025   3.744
52749W        W19290  33.212  18.676   2.325
52750W        W19291  29.021   9.088   3.713
52751W        W19292  39.081   5.247  12.231
52752W        W19293   7.342  16.284   2.655
52753W        W19294  29.572  43.834   2.201
52754W        W19295  21.928  35.557  14.031
52755W        W19296   8.952  14.176   1.862
52756W        W19297  44.286  39.031   0.846
52757W        W19298   4.340   8.269  13.280
52758W        W19299  44.702  28.734  11.682
52759W        W19300  32.238  11.872   0.948
52760W        W19301   9.258  28.460   4.117
52761W        W19302  25.607  29.487  14.017
52762W        W19303   1.905  42.031   0.564
52763W        W19304   4.087  26.258  13.847
52764W        W19305  17.710  28.214  11.832
52765W        W19306  11.236  20.057  14.234
52766W        W19307  14.662  43.819   3.598
52767W        W19308  42.977   8.715   3.382
52768W        W19309   9.200  14.445   5.006
52769W        W19310  38.961  39.756  13.015
52770W        W19311  28.814  15.308   2.419
52771W        W19312  15.588  11.808   1.022
52772W        W19313  34.162   0.188   3.625
52773W        W19314   2.541  21.657   2.142
52774W        W19315  22.522  24.132  13.468
52775W        W19316  30.964  30.193   3.182
52776W        W19317  44.111  17.323   2.739
52777W        W19318  39.033  19.052  13.508
52778W        W19319  20.721  26.982  12.965
52779W        W19320  27.959  42.847   4.575
52780W        W19321  25.246  44.446   0.705
52781W        W19322   3.724   5.515   1.245
52782W        W19323   2.975  38.972   0.591
52783W        W19324   7.106   9.340   2.292
52784W        W19325  19.072  37.098   3.249
52785W        W19326  26.105  12.220   0.974
52786W        W19327  32.448   5.895  12.893
52787W        W19328  27.432  16.638  12.642
52788W        W19329   3.094   8.511  11.528
52789W        W19330  19.747   1.745   0.808
52790W        W19331  10.453  44.316  10.240
52791W        W19332  19.932  27.682   2.324
52792W        W19333  10.997  28.652  11.555
52793W        W19334  42.968  23.973  11.113
52794W        W19335   6.365  35.298  10.674
52795W        W19336  15.393  35.944   3.068
52796W        W19337  26.559  31.017  10.444
52797W        W19338  11.722  44.746   3.576
52798W        W19339  32.673  19.309  11.204
52799W        W19340  10.785  19.715  12.287
52800W        W19341  38.989   1.370  11.572
52801W        W19342  13.327  39.765   2.736
52802W        W19343  13.607  20.418   1.251
52803W        W19344  17.551  20.579   3.668
52804W        W19345  11.369  27.060   3.358
52805W        W19346  24.645  17.057  10.699
52806W        W19347  24.593   3.245   2.537
52807W        W19348  12.349  21.275  11.744
52808W        W19349  26.424  40.977  14.196
52809W        W19350  26.713  44.748   2.356
52810W        W19351   4.285  43.066  14.518
52811W        W19352  30.925  29.596   4.043
52812W        W19353  16.662   9.416   2.397
52813W        W19354  44.202  22.755   2.889
52814W        W19355  43.397  30.625  14.679
52815W        W19356  44.739   7.214  12.367
52816W        W19357   2.646   1.834  12.226
52817W        W19358  39.474  12.868  13.297
52818W        W19359  43.228  15.210  14.066
52819W        W19360  25.768  14.855  11.072
52820W        W19361  34.014  10.448  13.549
52821W        W19362  26.634  10.642  11.188
52822W        W19363  40.013   6.316  14.757
52823W        W19364  39.414  41.971   0.378
52824W        W19365  32.106  15.507  12.524
52825W        W19366  23.733  26.201  10.479
52826W        W19367  27.607  38.990   4.804
52827W        W19368  36.102  21.250   2.255
52828W        W19369  12.119  13.203   3.949
52829W        W19370  26.984  42.754  14.424
52830W        W19371  18.126  30.024   2.281
52831W        W19372  36.388  11.422   9.964
52832W        W19373  31.182  26.966   3.701
52833W        W19374  36.681  20.749   1.327
52834W        W19375  39.172  16.213   4.106
52835W        W19376  17.154  35.374   1.798
52836W        W19377  16.828   7.186   0.609
52837W        W19378  38.289  24.337   3.888
52838W        W19379   3.164  15.209   1.453
52839W        W19380  17.780  32.732   2.996
52840W        W19381  32.216  30.650   3.027
52841W        W19382  21.062   6.743  13.430
52842W        W19383   9.630  40.985   0.748
52843W        W19384  33.078  11.471   0.743
52844W        W19385   8.263  39.933  10.756
52845W        W19386  37.055  39.842  10.734
52846W        W19387  36.719  19.957  12.545
52847W        W19388  31.654  27.579  11.143
52848W        W19389  32.022  26.447   3.629
52849W        W19390  34.176  41.837  11.139
52850W        W19391  41.690  19.107   1.543
52851W        W19392  16.954  19.685   2.754
52852W        W19393  40.929  31.155  12.593
52853W        W19394   5.714  10.510   0.784
52854W        W19395  27.973  22.101  14.902
52855W        W19396  38.628  26.615   0.811
52856W        W19397  16.205  25.151   1.720
52857W        W19398  11.377  40.380   1.284
52858W        W19399  18.337   0.686   2.341
52859W        W19400  18.063   5.438  10.936
52860W        W19401  34.145  11.208   3.376
52861W        W19402   4.175   7.405  10.988
52862W        W19403  15.821  17.658   4.782
52863W        W19404  10.578  23.107   0.827
52864W        W19405   6.962  34.982  11.924
52865W        W19406  17.257  11.842  14.977
52866W        W19407  29.555  38.005   1.356
52867W        W19408  17.614  16.733  10.913
52868W        W19409  16.355  34.063  11.078
52869W        W19410  10.173   5.415  13.315
52870W        W19411  33.065  12.834  11.687
52871W        W19412  25.640  13.932  14.849
52872W        W19413  14.664  29.424  11.544
52873W        W19414  20.256  26.097   0.267
52874W        W19415  13.824  18.514   3.485
52875W        W19416  43.201  24.179   0.753
52876W        W19417  34.399  24.905  10.759
52877W        W19418  31.115  19.843  11.296
52878W        W19419   1.309  39.347  11.654
52879W        W19420  40.230   8.583   4.368
52880W        W19421  41.424   7.292   4.495
52881W        W19422  17.340  33.412  10.589
52882W        W19423  11.533  15.224  14.388
52883W        W19424  39.967  40.762   3.604
52884W        W19425   2.226  14.120  10.344
52885W        W19426  30.736  33.666   3.566
52886W        W19427  26.111  43.316   1.708
52887W        W19428   5.205  39.522  10.281
52888W        W19429  36.602  39.951   2.724
52889W        W19430  39.181   0.378  14.027
52890W        W19431   1.747  42.928  11.596
52891W        W19432  28.707  30.488  14.770
52892W        W19433  13.285  10.125   4.043
52893W        W19434   5.690   8.702  12.396
52894W        W19435   7.662  31.951   4.104
52895W        W19436  36.942  12.401  14.434
52896W        W19437   5.645  40.889   4.123
52897W        W19438  23.664   6.466  13.029
52898W        W19439  29.512  13.394   3.382
52899W        W19440  43.241  18.663  12.659
52900W        W19441  33.814  37.079   4.232
52901W        W19442   1.798  44.064  11.562
52902W        W19443  30.592   6.009  11.069
52903W        W19444  18.135   3.223   4.386
52904W        W19445  14.060  26.717  13.709
52905W        W19446   5.399  21.574  12.720
52906W        W19447  21.286  36.840   1.149
52907W        W19448  18.665  32.022  13.019
52908W        W19449   7.983  13.147  14.878
52909W        W19450  14.805  20.996   1.448
52910W        W19451   8.891  29.411   3.218
52911W        W19452  22.870   5.194   4.017
52912W        W19453  14.336  17.304   3.207
52913W        W19454  10.015  20.913   4.953
52914W        W19455  42.875  36.892  14.012
52915W        W19456  16.598  22.675  13.850
52916W        W19457  17.628  18.326   0.363
52917W        W19458  34.880  40.441  12.904
52918W        W19459  19.688  15.685   1.772
52919W        W19460  17.040  23.682   4.252
52920W        W19461  38.835   7.989  14.107
52921W        W19462  27.491  14.140   3.869
52922W        W19463  31.121  27.633  12.283
52923W        W19464  24.034  28.469   3.668
52924W        W19465  28.628  43.243   2.083
52925W        W19466  18.566  16.226  14.053
52926W        W19467  17.201  30.623   1.122
52927W        W19468   5.457  27.169   1.917
52928W        W19469  37.053   0.893  14.723
52929W        W19470  13.760  26.856  11.629
52930W        W19471  15.201  33.430   4.929
52931W        W19472  36.212   1.410   4.998
52932W        W19473  31.361  16.124   4.331
52933W        W19474  13.932  19.249  13.503
52934W        W19475  39.771   0.385   1.821
52935W        W19476  16.723  18.707   4.571
52936W        W19477  13.807  33.441   1.502
52937W        W19478  38.896  13.606  12.532
52938W        W19479  34.589   9.204   3.665
52939W        W19480  37.366   2.223  14.332
52940W        W19481  21.980  38.032  12.426
52941W        W19482  16.935  21.127  11.180
52942W        W19483   5.232  44.506   3.396
52943W        W19484   0.832  34.030  11.594
52944W        W19485  14.295  28.877  12.950
52945W        W19486   9.468  15.225  13.348
52946W        W19487  16.369   3.374   3.449
52947W        W19488   7.977  29.250  10.708
52948W        W19489  13.748  25.929  14.388
52949W        W19490  37.096  39.817   2.670
52950W        W19491  42.177  32.100  12.073
52951W        W19492  34.455  23.753   4.956
52952W        W19493   7.077  11.886  14.400
52953W        W19494  23.315  37.912  13.457
52954W        W19495  25.889  41.016  14.220
52955W        W19496  31.151  30.988   4.542
52956W        W19497  15.794  36.075   3.879
52957W        W19498  20.734  44.413   3.126
52958W        W19499  22.803  41.848  10.549
52959W        W19500   4.031  17.104  13.371
52960W        W19501  30.118  40.918   4.646
52961W        W19502  37.407  39.122   1.744
52962W        W19503  23.500  11.933  12.529
52963W        W19504  22.487  34.466   4.546
52964W        W19505  43.964  16.116  14.548
52965W        W19506  32.683  16.601  11.137
52966W        W19507  15.791  17.354  13.344
52967W        W19508  26.078  20.431  11.110
52968W        W19509  24.685   4.474   1.359
52969W        W19510   9.763  32.396   1.251
52970W        W19511  31.510  21.808  12.547
52971W        W19512   6.702  25.039  11.252
52972W        W19513   8.232   8.735   4.563
52973W        W19514   1.025  41.923   0.268
52974W        W19515  15.418  32.189  13.371
52975W        W19516  44.458  24.141   2.358
52976W        W19517  41.896  44.331   4.597
52977W        W19518  13.526  42.490  10.450
52978W        W19519  10.662  23.024  14.000
52979W        W19520  33.664  23.071   0.289
52980W        W19521  25.186  17.506  13.834
52981W        W19522  32.219  28.040   3.037
52982W        W19523  14.032  32.985  11.995
52983W        W19524  13.319   7.490  14.401
52984W        W19525  17.210  25.534  10.819
52985W        W19526  22.465  33.909   2.838
52986W        W19527  20.500  31.475   3.763
52987W        W19528   1.897  38.614  12.630
52988W        W19529  20.258  38.291  10.371
52989W        W19530  23.027  30.523  12.428
52990W        W19531   7.638  18.764   2.247
52991W        W19532   9.206  36.350  10.653
52992W        W19533   0.597   3.002   5.230
52993W        W19534  13.386  20.616   3.138
52994W        W19535  10.710  24.506  12.998
52995W        W19536  43.543  12.576  12.730
52996W        W19537  16.714  27.136   1.198
52997W        W19538  27.948   7.332  12.608
52998W        W19539  16.855  33.977  12.663
52999W        W19540  20.113  10.170  11.159
53000W        W19541  40.887  23.304   1.792
53001W        W19542  11.373  28.521  10.656
53002W        W19543  43.303  37.797   2.934
53003W        W19544  28.642  26.974  11.559
53004W        W19545  23.304  40.480  12.518
53005W        W19546  29.054  39.741  14.933
53006W        W19547   5.960  39.378   1.950
53007W        W19548  14.200  30.862   0.451
53008W        W19549   9.831  37.778  13.044
53009W        W19550  14.744   4.934  13.505
53010W        W19551  34.975   7.343   4.642
53011W        W19552  18.748   4.362   4.298
53012W        W19553  25.732  36.989  11.923
53013W        W19554  44.010   9.436   3.198
53014W        W19555  28.908  14.322   4.109
53015W        W19556  29.584  23.595  12.006
53016W        W19557  41.982   0.649   0.254
53017W        W19558  21.250  34.898  14.101
53018W        W19559   3.948  44.932   2.940
53019W        W19560  36.986  14.800   0.419
53020W        W19561   1.263  38.404   2.198
53021W        W19562  17.768  15.272  13.526
53022W        W19563   4.987  23.181   0.358
53023W        W19564  30.871   3.028  13.823
53024W        W19565  27.913   2.896   4.222
53025W        W19566  11.169  14.556  14.935
53026W        W19567  37.693  34.171  11.941
53027W        W19568  36.975  26.807   0.766
53028W        W19569   7.696  37.289   0.792
53029W        W19570  14.185  15.065  14.411
53030W        W19571  23.085  32.900   2.445
53031W        W19572  27.133   7.014  12.098
53032W        W19573  15.850  23.255  12.960
53033W        W19574  43.400  45.000   0.247
53034W        W19575  12.375  23.035  12.209
53035W        W19576  21.647  32.666  11.072
53036W        W19577  39.602  30.645   4.029
53037W        W19578  10.095   7.713   4.536
53038W        W19579  33.943  30.494  13.997
53039W        W19580   8.623  13.536  12.325
53040W        W19581   3.357  43.754  14.031
53041W        W19582  19.773   1.332   3.685
53042W        W19583  23.978  32.445   2.727
53043W        W19584   4.755  19.185  13.791
53044W        W19585  19.639  36.399  13.791
53045W        W19586  28.242   7.422  13.022
53046W        W19587  26.474  25.000   0.099
53047W        W19588  41.404   7.544   0.483
53048W        W19589  43.170  23.545  12.646
53049W        W19590  13.382  17.804  10.651
53050W        W19591   6.185  37.885  11.325
53051W        W19592  34.299  42.383   2.677
53052W        W19593  42.564   0.403   2.979
53053W        W19594  18.371  16.581  11.941
53054W        W19595  33.972  12.156   2.376
53055W        W19596   5.573  15.310  11.226
53056W        W19597  27.553  18.732  14.002
53057W        W19598  10.737  37.936   3.927
53058W        W19599  25.194  26.031  10.674
53059W        W19600  41.359   7.947  11.677
53060W        W19601  30.736  36.892  11.987
53061W        W19602   5.158   1.821   1.150
53062W        W19603  42.446   7.139  13.434
53063W        W19604  41.198   7.246   1.400
53064W        W19605  40.072  12.813   2.670
53065W        W19606  22.139  43.283  10.950
53066W        W19607  21.926  43.748   3.808
53067W        W19608  36.900  10.048  13.809
53068W        W19609  31.648  14.602  11.905
53069W        W19610   4.312  36.566  14.985
53070W        W19611  28.710   3.909   2.276
53071W        W19612  12.123  32.153   0.387
53072W        W19613   2.294  29.266  10.282
53073W        W19614  17.698  13.326   1.710
53074W        W19615   0.912  28.168  10.793
53075W        W19616  10.174  16.688   0.933
53076W        W19617  15.562  33.534  13.083
53077W        W19618  23.093  15.976   1.670
53078W        W19619  17.258  17.395  14.390
53079W        W19620   0.754   4.349  13.855
53080W        W19621  41.106  13.860  13.821
53081W        W19622   9.988   0.861  14.442
53082W        W19623  26.765   1.026  12.510
53083W        W19624  19.784  40.577   2.826
53084W        W19625  26.878  26.185  12.848
53085W        W19626  40.215  39.027   0.284
53086W        W19627  13.008  27.856   3.840
53087W        W19628   4.389  24.296   4.128
53088W        W19629  38.351  37.091  11.884
53089W        W19630  26.966  22.804   2.355
53090W        W19631   1.893  34.524   3.023
53091W        W19632  11.303   9.343   3.584
53092W        W19633  44.935   6.817   3.209
53093W        W19634   0.909  10.679  12.410
53094W        W19635  28.852  18.621  10.657
53095W        W19636  38.725  27.334   3.152
53096W        W19637  21.643   8.701   4.839
53097W        W19638  38.504   0.479   1.462
53098W        W19639  24.022  19.052   3.148
53099W        W19640  22.445   3.311  12.021
53100W        W19641  16.345  16.179   0.470
53101W        W19642  18.750  29.028  14.406
53102W        W19643  30.914  37.030   1.738
53103W        W19644  11.503  36.753   1.124
53104W        W19645  39.844  17.304   0.948
53105W        W19646  36.169  12.229  13.093
53106W        W19647  17.836   1.021   0.312
53107W        W19648  31.173  41.047   3.826
53108W        W19649  11.140  10.310   0.714
53109W        W19650  14.851  17.640   3.287
53110W        W19651  33.322  32.055  11.100
53111W        W19652  33.177  33.233   2.983
53112W        W19653  36.369   1.433   1.148
53113W        W19654  12.133  26.002   2.934
53114W        W19655  39.952  39.366  12.344
53115W        W19656   5.282   2.997   0.761
53116W        W19657  34.482  38.839  10.744
53117W        W19658  20.125   2.241   4.391
53118W        W19659  34.597  39.567   0.922
53119W        W19660  34.099   6.670   4.660
53120W        W19661   2.274  16.089  11.785
53121W        W19662   6.048   8.479  10.439
53122W        W19663  24.979   0.214   4.602
53123W        W19664  34.918  27.610   1.500
53124W        W19665   4.634  43.413  13.370
53125W        W19666  29.075  31.941  11.151
53126W        W19667  18.020  38.064  13.952
53127W        W19668   0.475  19.658  11.948
53128W        W19669  37.038  19.070  11.183
53129W        W19670  32.446   1.251  10.599
53130W        W19671  20.684  20.135  12.048
53131W        W19672  33.869   7.774  11.290
53132W        W19673   2.427  21.038   2.693
53133W        W19674  11.671  31.163  12.449
53134W        W19675  10.434  12.372   2.368
53135W        W19676  36.303   1.757  11.141
53136W        W19677  36.490  16.369   2.222
53137W        W19678   2.293  21.418   3.856
53138W        W19679  38.558  16.852   1.184
53139W        W19680  22.109  10.767  14.042
53140W        W19681  17.931  40.875   1.667
53141W        W19682  10.871  15.329   0.082
53142W        W19683  40.558  29.031   0.798
53143W        W19684  15.833   6.423   1.750
53144W        W19685  44.917  10.861   4.759
53145W        W19686  31.083   4.018  11.989
53146W        W19687  27.801  26.284  11.507
53147W        W19688   5.825   9.632  13.565
53148W        W19689  19.690  25.230   2.785
53149W        W19690  13.443  35.769  13.618
53150W        W19691  14.723  21.385   2.366
53151W        W19692  19.624  23.585   2.869
53152W        W19693  10.252  16.889  13.949
53153W        W19694  27.328  29.154   2.257
53154W        W19695   0.838  30.703  12.070
53155W        W19696  34.342   7.488   1.759
53156W        W19697   9.300  44.430  12.009
53157W        W19698  26.208  41.999   1.379
53158W        W19699  18.252  44.695   0.371
53159W        W19700  27.933  15.822  10.165
53160W        W19701   0.270   2.359  12.516
53161W        W19702  40.091  17.346  10.810
53162W        W19703  38.245   0.802  11.949
53163W        W19704  37.471  17.459   1.918
53164W        W19705  30.535  25.624   4.208
53165W        W19706  20.247  26.428   4.134
53166W        W19707  33.470  30.690  12.103
53167W        W19708  36.489  39.895   3.227
53168W        W19709   4.856   3.027  11.481
53169W        W19710  24.300   4.463   0.907
53170W        W19711  40.525  23.110   3.722
53171W        W19712  23.964   8.629  11.232
53172W        W19713   2.569   6.785  10.830
53173W        W19714   2.950   4.139  12.035
53174W        W19715   5.685  32.570   4.015
53175W        W19716  38.242  12.235   4.791
53176W        W19717   6.878  14.770  13.940
53177W        W19718   7.881   4.982   0.127
53178W        W19719  27.426   6.124  13.064
53179W        W19720  35.890  29.465   1.715
53180W        W19721  18.762  10.747   2.676
53181W        W19722   5.913  24.098  13.359
53182W        W19723  26.417  23.960   0.337
53183W        W19724  14.984  23.594   4.096
53184W        W19725  30.383  23.108   3.286
53185W        W19726  35.962  33.431   3.258
53186W        W19727  32.890   7.799   0.229
53187W        W19728  40.888   6.804   2.212
53188W        W19729   9.989  10.772  12.469
53189W        W19730  10.653   7.419  13.988
53190W        W19731  18.042  15.519   1.441
53191W        W19732  11.235  32.171   0.274
53192W        W19733  42.390  19.759  14.053
53193W        W19734  36.819  27.460   3.261
53194W        W19735  17.928  22.105  11.205
53195W        W19736  33.836   8.116   1.603
53196W        W19737  42.975  12.679  10.877
53197W        W19738  14.464  17.062  10.140
53198W        W19739  11.509   6.384   4.483
53199W        W19740   3.923  33.434  11.147
53200W        W19741  38.509  36.316  14.887
53201W        W19742  34.086   9.129   1.712
53202W        W19743   6.848   2.955   4.607
53203W        W19744   0.380  41.613  11.548
53204W        W19745  12.280   2.943  12.891
53205W        W19746  18.511  10.369   0.768
53206W        W19747  40.449  22.137  13.581
53207W        W19748  18.910  34.356  10.768
53208W        W19749  34.975  28.496  14.546
53209W        W19750  37.140  27.125  13.404
53210W        W19751  30.509  42.015   2.714
53211W        W19752  39.037   6.511  12.547
53212W        W19753  25.531  12.781   1.688
53213W        W19754  17.801   1.345  14.874
53214W        W19755  29.841  19.585  13.054
53215W        W19756  14.757   1.380  11.247
53216W        W19757  29.474  31.320  12.419
53217W        W19758  25.864  37.645  11.159
53218W        W19759  19.730  41.841  14.909
53219W        W19760   2.459   6.684   2.908
53220W        W19761  22.462   3.638   0.404
53221W        W19762  20.958  19.752   1.968
53222W        W19763  17.618  11.351   3.153
53223W        W19764  36.528  27.123   1.798
53224W        W19765   6.473  13.288  13.308
53225W        W19766  36.890  15.250  11.294
53226W        W19767  31.630  27.083   4.368
53227W        W19768  31.591  39.276   3.629
53228W        W19769   8.964  12.383  12.095
53229W        W19770  14.772  10.684  10.934
53230W        W19771  31.189  26.299   1.706
53231W        W19772  31.261  38.018   2.027
53232W        W19773  17.595  10.157   0.357
53233W        W19774  33.908  17.563   3.562
53234W        W19775  41.762  12.768   2.137
53235W        W19776  24.309   6.665  11.133
53236W        W19777  26.097  35.509   3.255
53237W        W19778  18.618   3.346  13.477
53238W        W19779   4.010  25.130  13.851
53239W        W19780  13.441   1.848  11.228
53240W        W19781   3.930  19.674  10.859
53241W        W19782  19.550  27.114   2.182
53242W        W19783  12.711  13.328   0.040
53243W        W19784   2.252  20.298  14.450
53244W        W19785  16.415  17.668  11.657
53245W        W19786   2.867  15.764  13.403
53246W        W19787   5.690   6.189   2.537
53247W        W19788   7.235   7.837   2.764
53248W        W19789  36.310  40.339  14.810
53249W        W19790  25.181  39.312   2.318
53250W        W19791   6.349  13.888  10.329
53251W        W19792  42.196  17.244  12.361
53252W        W19793   1.673   4.416  13.015
53253W        W19794   5.275  27.619   1.173
53254W        W19795   5.211  29.361   2.681
53255W        W19796   2.910  35.512  12.385
53256W        W19797  29.477  28.839  14.004
53257W        W19798  29.478   8.331  10.468
53258W        W19799  32.350  15.637   3.873
53259W        W19800  18.700  20.514   2.799
53260W        W19801   6.997   3.714  11.224
53261W        W19802  18.543  19.925   3.591
53262W        W19803   8.697  40.349   2.573
53263W        W19804  40.821  41.776   1.235
53264W        W19805   2.476  40.027  14.791
53265W        W19806  32.593  12.069  10.650
53266W        W19807  28.128   0.209  14.840
53267W        W19808   7.933  13.310  12.005
53268W        W19809   7.966  27.671   2.297
53269W        W19810  22.904  44.441  13.968
53270W        W19811  10.618  12.613  10.583
53271W        W19812  16.346   0.904   3.364
53272W        W19813  22.091  40.856   1.295
53273W        W19814   5.310  26.871  11.133
53274W        W19815  38.350   0.235   4.605
53275W        W19816  39.537  41.405  11.496
53276W        W19817   7.390   8.724  10.661
53277W        W19818  30.096  26.163   3.673
53278W        W19819   9.768  37.566  11.143
53279W        W19820   6.658  12.333  13.282
53280W        W19821   7.520   2.848  10.368
53281W        W19822   8.468   4.700   0.843
53282W        W19823  41.645   5.423   1.640
53283W        W19824  17.002  34.269  11.540
53284W        W19825   7.165  25.799  12.561
53285W        W19826  16.695  13.566  11.017
53286W        W19827  33.783  20.002   2.870
53287W        W19828  28.417  10.583  14.029
53288W        W19829   9.150   8.808   1.818
53289W        W19830  34.060  15.171  11.539
53290W        W19831   5.028  24.720   2.746
53291W        W19832   5.179  11.745   0.448
53292W        W19833  11.880  20.500   2.347
53293W        W19834  33.303   8.674  10.956
53294W        W19835  28.003  20.559  11.091
53295W        W19836  32.275  36.411  11.212
53296W        W19837  11.722  29.943   3.685
53297W        W19838  33.837  41.682   1.407
53298W        W19839  42.995   1.721   0.479
53299W        W19840  37.567  16.539  14.987
53300W        W19841   8.497  37.557  12.497
53301W        W19842   3.096  35.392   4.171
53302W        W19843  40.124  18.646  12.264
53303W        W19844  36.839  25.497   1.025
53304W        W19845  41.245   9.814   1.825
53305W        W19846  37.054  38.049   3.361
53306W        W19847  30.074  42.781  11.509
53307W        W19848  16.189  11.615   3.739
53308W        W19849   2.015  32.151   9.842
53309W        W19850  30.445   7.793   3.729
53310W        W19851  11.335  13.608   2.136
53311W        W19852  19.941  20.670  13.136
53312W        W19853   9.611  25.776  14.323
53313W        W19854  40.856  22.685  14.428
53314W        W19855  34.368  35.683   3.607
53315W        W19856  14.751  20.453   0.416
53316W        W19857  14.879  20.132  11.951
53317W        W19858  18.181  43.950   1.723
53318W        W19859  34.397  43.477   1.949
53319W        W19860  13.559  39.522  14.455
53320W        W19861  12.796  39.437   2.701
53321W        W19862  20.873  40.066   3.586
53322W        W19863  42.944  32.287   4.285
53323W        W19864  22.737   6.815   4.845
53324W        W19865  32.074  32.880  12.484
53325W        W19866  10.816  13.552  12.540
53326W        W19867   8.793  41.829   1.695
53327W        W19868  32.422   9.258  11.817
53328W        W19869   2.868  35.972   0.719
53329W        W19870   4.986  29.787  10.352
53330W        W19871  15.502  16.537   4.320
53331W        W19872   9.719  22.679  11.539
53332W        W19873  12.080  13.046   0.727
53333W        W19874   6.408   5.917   0.961
53334W        W19875   6.210   0.320  14.116
53335W        W19876   5.622  34.735   2.697
53336W        W19877  38.394  19.789  11.872
53337W        W19878  12.114  40.967  11.890
53338W        W19879  40.275  27.615  10.754
53339W        W19880  33.608  12.601  14.895
53340W        W19881  40.136  29.369   4.214
53341W        W19882  17.174  19.289  11.238
53342W        W19883   1.832  40.951  12.076
53343W        W19884  31.230   8.973  11.263
53344W        W19885  18.565  10.719   1.737
53345W        W19886  14.541  41.381  12.411
53346W        W19887  43.722  11.437  10.712
53347W        W19888   0.752  19.613   2.610
53348W        W19889  42.816  36.660   2.288
53349W        W19890  17.619  15.175   1.470
53350W        W19891  23.869  37.711   2.690
53351W        W19892  11.807  10.966   2.820
53352W        W19893  43.139  12.052  14.026
53353W        W19894  22.517  39.503   1.109
53354W        W19895  44.016  34.599  10.719
53355W        W19896  27.737   4.826  12.564
53356W        W19897  18.117  43.596  11.591
53357W        W19898   6.395  30.714   5.063
53358W        W19899  39.042  39.513  14.659
53359W        W19900  24.609  42.751  10.841
53360W        W19901   2.261  20.773  11.099
53361W        W19902  22.999   3.144  10.180
53362W        W19903  11.360  35.380   2.768
53363W        W19904  13.531  18.710  14.297
53364W        W19905  22.358  18.830   2.211
53365W        W19906  18.167   3.339  14.981
53366W        W19907  23.648  32.799  14.837
53367W        W19908  40.831  17.233  12.140
53368W        W19909  33.910  43.746  11.140
53369W        W19910  37.829  41.805   0.824
53370W        W19911  43.243  19.195  10.629
53371W        W19912  34.631   2.792   0.260
53372W        W19913   0.397   5.858  14.027
53373W        W19914  43.632  31.442   2.972
53374W        W19915  42.300  19.264  14.243
53375W        W19916   2.794   6.879   1.241
53376W        W19917  31.519  38.325   0.780
53377W        W19918   0.201  40.799   4.858
53378W        W19919  42.573  17.554   3.770
53379W        W19920   4.699  24.688   4.236
53380W        W19921  33.203  24.244   3.920
53381W        W19922  13.561  39.421   4.442
53382W        W19923  42.341  29.076  12.952
53383W        W19924  28.836  24.686  14.618
53384W        W19925   7.802  24.697   1.270
53385W        W19926  13.640   9.868  12.025
53386W        W19927  36.848  38.948  12.907
53387W        W19928  43.784  18.177  12.483
53388W        W19929  44.057  35.193  11.564
53389W        W19930  10.943  39.840  10.301
53390W        W19931  34.025  25.443   4.162
53391W        W19932  25.709   0.731   1.294
53392W        W19933  23.441  27.414  10.953
53393W        W19934   7.299  12.616  13.982
53394W        W19935   7.706  31.379   3.312
53395W        W19936  40.933  35.437   3.470
53396W        W19937  20.953   6.908  10.720
53397W        W19938  24.042  12.265  11.711
53398W        W19939   7.121  10.225  11.077
53399W        W19940   3.761  34.327   4.688
53400W        W19941  44.863  39.787  14.371
53401W        W19942  31.130  31.069  11.024
53402W        W19943  18.355  10.710   0.350
53403W        W19944  13.664  37.432   2.325
53404W        W19945  40.446  40.100  12.116
53405W        W19946  26.045  28.513   0.813
53406W        W19947  31.536   7.456  11.245
53407W        W19948   4.055  32.652  12.539
53408W        W19949  10.930  21.126   3.022
53409W        W19950  10.776  20.058  13.452
53410W        W19951  12.267  32.369   1.880
53411W        W19952   7.049   4.591  11.171
53412W        W19953  37.810  40.227  13.775
53413W        W19954  38.816   0.576   0.474
53414W        W19955  36.901  41.874   3.030
53415W        W19956  42.449  19.774  12.176
53416W        W19957  39.440  14.026   0.818
53417W        W19958   2.849  38.026  12.937
53418W        W19959  36.107   4.988   1.707
53419W        W19960  25.506   6.218   0.716
53420W        W19961  28.173  31.078  12.035
53421W        W19962  24.189  15.646   4.832
53422W        W19963  39.079   4.609  11.567
53423W        W19964   7.409  23.258   1.472
53424W        W19965  32.119  17.655   1.322
53425W        W19966  16.175  31.095   2.822
53426W        W19967   3.923  39.608  12.928
53427W        W19968  20.512  40.485  14.221
53428W        W19969   4.962  20.960   3.881
53429W        W19970  27.472  38.420   3.654
53430W        W19971  16.105  41.300   1.775
53431W        W19972   7.920  40.981  10.360
53432W        W19973  19.488  39.742  11.617
53433W        W19974  11.753  30.963   2.764
53434W        W19975  14.752   1.199  11.720
53435W        W19976  11.862  40.895   2.620
53436W        W19977  21.290   8.175   2.636
53437W        W19978  33.035  33.342  13.326
53438W        W19979  18.099  30.878  12.083
53439W        W19980  13.103  28.624  14.051
53440W        W19981  16.675  14.766  11.132
53441W        W19982  35.434  34.474  11.115
53442W        W19983  24.995  37.599   4.178
53443W        W19984   2.543  36.492  14.046
53444W        W19985  21.970  35.460   1.791
53445W        W19986  40.914  42.069   0.781
53446W        W19987   0.755  40.313  10.629
53447W        W19988  38.023  16.247   2.759
53448W        W19989  28.934  10.497  11.001
53449W        W19990  40.659  18.330  12.905
53450W        W19991   1.297  40.994  10.792
53451W        W19992   0.369  18.527   3.511
53452W        W19993   2.970   5.909  11.669
53453W        W19994  29.492  29.526   3.702
53454W        W19995  42.865  14.303   2.714
53455W        W19996   1.447   6.611   3.006
53456W        W19997   6.315  35.048  11.160
53457W        W19998  29.081  38.844  13.293
53458W        W19999  41.403   9.880   2.717
53459W        W20000  28.198  35.100  14.487
53460W        W20001  10.575  17.520  10.573
53461W        W20002  44.976  35.672   4.583
53462W        W20003  37.536  32.955   1.623
53463W        W20004  23.498   5.902  10.721
53464W        W20005  38.464  10.441  12.040
53465W        W20006   1.290  25.836   2.253
53466W        W20007  19.814  27.797   3.218
53467W        W20008  22.135  38.491  14.826
53468W        W20009   9.243  16.430   4.118
53469W        W20010  20.036  21.533   3.800
53470W        W20011  14.503  21.284  14.572
53471W        W20012  34.823   6.364   0.341
53472W        W20013  15.160  11.681   3.367
53473W        W20014  11.751  20.721  12.533
53474W        W20015  43.463  23.079  11.171
53475W        W20016   3.463  11.869  12.350
53476W        W20017  20.679  28.315   0.954
53477W        W20018   7.799  32.445   4.170
53478W        W20019   7.930   7.103  14.556
53479W        W20020  44.861  43.141  11.891
53480W        W20021  23.696  30.939  13.887
53481W        W20022  16.044  37.444  13.824
53482W        W20023  29.851  21.196  10.679
53483W        W20024  14.347   9.337  12.071
53484W        W20025  40.775  14.234  14.488
53485W        W20026  31.948  16.834  10.783
53486W        W20027   1.513  33.899  10.464
53487W        W20028  35.901   0.578   0.921
53488W        W20029  29.167  10.654   1.224
53489W        W20030  42.197  10.897  11.524
53490W        W20031  17.934   9.351  12.895
53491W        W20032  34.872  16.054   2.687
53492W        W20033  28.671   2.923  14.020
53493W        W20034   3.625  33.696   3.195
53494W        W20035  31.984  33.596   0.878
53495W        W20036  18.324   9.104   1.303
53496W        W20037  37.418  10.664   0.745
53497W        W20038  16.007  19.841   9.931
53498W        W20039  23.709  16.279  10.719
53499W        W20040   6.215   6.209   5.000
53500W        W20041  24.731   5.790   0.220
53501W        W20042  21.429  16.525   3.330
53502W        W20043  38.982  23.035   3.078
53503W        W20044  20.343  17.274   1.398
53504W        W20045  22.794  31.272   4.065
53505W        W20046  23.089   1.931  14.749
53506W        W20047  17.414   1.813   3.718
53507W        W20048  11.653  42.823  12.503
53508W        W20049  22.130  42.527   0.256
53509W        W20050  37.996  39.447   3.563
53510W        W20051  10.873   7.437  14.896
53511W        W20052  12.176  19.232  14.733
53512W        W20053  37.063   9.038  10.736
53513W        W20054  30.078  28.028   3.214
53514W        W20055  23.495  13.304   0.369
53515W        W20056  30.972  41.800   0.453
53516W        W20057  42.929   7.274   2.688
53517W        W20058   5.993  10.319  14.683
53518W        W20059  44.075   9.040   0.860
53519W        W20060  33.831  20.897   1.992
53520W        W20061   0.705   2.757   4.055
53521W        W20062   8.013  42.729  14.866
53522W        W20063  32.042  38.384  11.552
53523W        W20064  14.813  37.281   1.880
53524W        W20065   9.376   5.646  11.923
53525W        W20066  26.391  19.962  13.456
53526W        W20067   4.658  36.435   2.165
53527W        W20068   4.692  35.612  11.217
53528W        W20069   4.489   9.374  12.613
53529W        W20070  11.905  33.086  13.729
53530W        W20071  12.422  27.921   4.124
53531W        W20072  34.301  21.032  10.735
53532W        W20073  17.208  38.869  13.406
53533W        W20074   4.716   9.348   0.985
53534W        W20075  41.422  31.032   0.563
53535W        W20076  41.084  39.955   0.391
53536W        W20077  41.773  13.462  13.041
53537W        W20078   6.363  22.193   2.895
53538W        W20079  23.962  41.901   0.296
53539W        W20080  24.306  13.670  14.313
53540W        W20081   5.679  38.466  11.509
53541W        W20082  30.163  18.602   1.320
53542W        W20083  29.751  11.003   3.879
53543W        W20084   6.826  38.867  11.776
53544W        W20085  35.070  25.776  11.711
53545W        W20086  12.698  25.604  13.898
53546W        W20087  38.437  14.631  10.726
53547W        W20088  38.616  10.492  13.344
53548W        W20089   9.798  42.688  10.168
53549W        W20090  24.526  11.785   3.197
53550W        W20091  41.948  36.962   1.847
53551W        W20092   2.948   8.377   1.822
53552W        W20093  40.345  36.839  14.911
53553W        W20094  33.426  41.635   1.075
53554W        W20095  27.561  43.486   0.985
53555W        W20096  30.521   9.637   4.037
53556W        W20097   2.232  25.991  11.852
53557W        W20098  20.251  15.593  12.582
53558W        W20099  13.838  16.445  14.008
53559W        W20100  11.099   7.301  10.521
53560W        W20101  14.147   1.925   4.660
53561W        W20102  44.698  40.996  14.069
53562W        W20103  37.045  20.091  12.156
53563W        W20104  25.013  31.923  10.739
53564W        W20105  25.903  40.032   2.007
53565W        W20106  41.524   1.186   0.865
53566W        W20107  12.242  25.681  13.590
53567W        W20108   3.958  16.651  14.014
53568W        W20109   3.427  15.336   4.797
53569W        W20110  26.039  16.104   1.413
53570W        W20111   0.946  36.827  13.409
53571W        W20112  42.063  14.865   4.076
53572W        W20113   7.935  16.702   4.776
53573W        W20114  36.950  18.277  10.754
53574W        W20115  41.322   3.961  11.027
53575W        W20116  31.494  23.285  11.603
53576W        W20117  22.568  23.714  13.132
53577W        W20118  33.171   6.830   0.153
53578W        W20119  34.728   6.617  14.109
53579W        W20120  31.954   8.392  14.255
53580W        W20121  12.628   2.226  14.873
53581W        W20122  13.330  27.885   4.237
53582W        W20123  22.629   6.780   0.246
53583W        W20124   0.536  27.236  14.353
53584W        W20125   0.885  39.122  13.851
53585W        W20126   0.812   9.351   1.666
53586W        W20127  44.809  26.097  14.784
53587W        W20128  28.335  20.591  11.563
53588W        W20129   6.516  27.690   5.301
53589W        W20130  13.907  39.033  13.036
53590W        W20131  28.691  28.075  11.543
53591W        W20132  23.186  22.429   3.225
53592W        W20133  28.717   6.967  13.474
53593W        W20134  18.589  44.997   1.786
53594W        W20135  40.859  14.110   2.755
53595W        W20136  39.398  31.457   4.053
53596W        W20137   0.734  38.493  11.912
53597W        W20138  20.354  27.717   0.210
53598W        W20139  39.899  13.596  12.359
53599W        W20140  19.748  13.353  14.886
53600W        W20141  10.245   1.944   2.691
53601W        W20142  15.284  31.234   2.348
53602W        W20143  19.276   2.545  13.372
53603W        W20144  18.539  36.464   0.689
53604W        W20145  16.647  40.662   1.953
53605W        W20146  17.566  18.179  12.194
53606W        W20147   1.991  16.381   3.781
53607W        W20148  28.991  37.009   2.180
53608W        W20149  21.591  37.876   3.092
53609W        W20150  21.208   5.890  14.460
53610W        W20151  31.104  42.520   9.988
53611W        W20152  11.632  27.957   3.682
53612W        W20153  34.958   6.401   1.961
53613W        W20154  18.645  14.590  14.280
53614W        W20155  43.218  20.858  13.013
53615W        W20156  18.099  19.664   3.715
53616W        W20157  39.893   3.309   0.779
53617W        W20158  33.043  24.110   4.694
53618W        W20159   9.349  20.540  12.590
53619W        W20160  13.307  11.924  13.385
53620W        W20161   6.333  21.337  10.708
53621W        W20162  32.094  22.887   2.322
53622W        W20163  12.113  37.914  12.813
53623W        W20164  22.978  37.381  14.823
53624W        W20165  17.731  20.947   2.732
53625W        W20166   4.218  20.544   0.713
53626W        W20167  29.673  14.938   2.955
53627W        W20168  25.759  41.740   1.417
53628W        W20169  28.134  13.106   2.378
53629W        W20170  16.448  28.982   0.376
53630W        W20171   6.111  13.264   2.410
53631W        W20172  18.494   4.888   3.678
53632W        W20173  24.970  21.533   2.346
53633W        W20174   0.807  11.777   4.560
53634W        W20175  18.570  14.178  13.007
53635W        W20176  35.254  12.239   3.160
53636W        W20177  18.297  28.570  12.252
53637W        W20178  17.711   1.337  11.100
53638W        W20179  33.372   2.357  14.583
53639W        W20180  17.961  35.497  11.680
53640W        W20181  44.608  29.583   1.405
53641W        W20182  26.363   7.592  13.500
53642W        W20183  10.705  22.179   3.665
53643W        W20184   9.314  16.613   2.126
53644W        W20185  36.001  19.657  13.626
53645W        W20186  15.168  21.689   1.517
53646W        W20187  31.417  16.267  14.484
53647W        W20188  22.940  23.992   1.174
53648W        W20189  26.074   5.174   5.580
53649W        W20190  35.309  10.920  14.977
53650W        W20191  28.410  34.078   2.635
53651W        W20192  37.909  26.976   3.127
53652W        W20193   5.247  34.911  13.450
53653W        W20194  23.125  40.767   2.808
53654W        W20195   4.389   5.999   4.626
53655W        W20196   1.628   7.336   0.481
53656W        W20197  25.949  15.923   3.307
53657W        W20198  34.977   1.541   4.485
53658W        W20199  12.212   0.750  12.222
53659W        W20200   0.812   9.636   4.107
53660W        W20201  22.603   3.212  10.520
53661W        W20202  13.128  19.296   0.020
53662W        W20203  17.832  39.883  12.945
53663W        W20204  39.865   3.782   4.879
53664W        W20205   5.374   8.104   4.483
53665W        W20206  42.995  14.345   4.122
53666W        W20207   8.417  13.246  11.896
53667W        W20208   2.831  22.571  13.558
53668W        W20209  34.144   0.732  10.631
53669W        W20210  20.294   3.662   3.151
53670W        W20211  10.212   0.526   2.281
53671W        W20212   5.695  12.461  13.506
53672W        W20213  31.862   8.352  14.748
53673W        W20214   0.416  21.689   3.623
53674W        W20215  11.146  35.175   0.299
53675W        W20216  19.280  40.861  12.518
53676W        W20217  29.508   6.660  10.394
53677W        W20218  21.524  26.920  12.602
53678W        W20219  31.984  40.762   2.927
53679W        W20220  43.893  17.689   1.755
53680W        W20221  41.015  26.509   4.016
53681W        W20222   7.149  41.557  14.780
53682W        W20223  38.558  20.007  12.608
53683W        W20224  42.794  27.557   2.727
53684W        W20225  37.305  37.869   4.648
53685W        W20226  16.651  43.070  11.124
53686W        W20227  35.339   7.137  11.473
53687W        W20228  34.780   5.884  11.667
53688W        W20229  13.149  17.648  14.310
53689W        W20230  37.495   6.047  13.025
53690W        W20231  17.149  12.709  11.580
53691W        W20232  17.604  10.168   4.497
53692W        W20233  11.705  18.654   1.283
53693W        W20234  21.455  22.532   0.512
53694W        W20235   9.605  22.803   1.697
53695W        W20236  43.381  11.196  11.597
53696W        W20237   5.193  41.611   2.926
53697W        W20238  17.555  27.712  14.431
53698W        W20239  13.058  35.963   3.715
53699W        W20240  22.542   4.129   0.292
53700W        W20241   2.125   0.899  11.537
53701W        W20242  33.186  29.538   2.366
53702W        W20243   9.187  11.822   3.288
53703W        W20244  13.064  38.705   5.413
53704W        W20245  23.144  44.009   4.571
53705W        W20246  26.857   4.758  13.378
53706W        W20247  41.003  18.732  13.992
53707W        W20248   6.242  14.763   1.831
53708W        W20249  13.363   5.962  12.018
53709W        W20250  19.730  24.415   3.452
53710W        W20251  25.328  44.518   2.655
53711W        W20252  15.289  11.274  14.905
53712W        W20253   4.079  19.326  11.203
53713W        W20254  15.122  21.594   0.084
53714W        W20255  17.631   9.850  10.878
53715W        W20256  44.353  27.970  10.948
53716W        W20257  10.126  31.435  11.627
53717W        W20258  41.818  27.225  11.983
53718W        W20259  36.485   9.213  14.403
53719W        W20260  31.718  23.775  12.627
53720W        W20261  16.838  26.979   3.093
53721W        W20262  10.808   7.340   2.414
53722W        W20263  35.011   8.387   4.501
53723W        W20264  26.682  34.893  10.625
53724W        W20265  28.480   9.694  13.548
53725W        W20266  42.242  34.897   0.239
53726W        W20267  36.728  18.379  10.305
53727W        W20268   5.769  32.355  10.513
53728W        W20269  17.811  39.835  11.028
53729W        W20270  38.727  13.213   1.510
53730W        W20271  18.090  37.082   3.267
53731W        W20272  40.978  14.218   3.660
53732W        W20273  19.535  22.862  10.773
53733W        W20274  18.658  31.983   0.366
53734W        W20275  22.164  38.518  14.173
53735W        W20276  33.379   7.625   2.247
53736W        W20277  17.273  28.170   3.241
53737W        W20278   8.928  29.180   3.663
53738W        W20279   8.919   7.663  10.705
53739W        W20280  39.902  22.872  12.957
53740W        W20281   3.302  19.260  11.638
53741W        W20282   9.293  40.984   4.559
53742W        W20283   8.644  26.745   4.462
53743W        W20284  29.099  40.885   2.756
53744W        W20285  24.963   6.728  14.368
53745W        W20286   3.924  25.550  14.434
53746W        W20287  29.065  33.927  14.945
53747W        W20288  17.347  42.052   2.835
53748W        W20289  44.541  34.358  12.543
53749W        W20290  42.512  31.123  10.822
53750W        W20291   4.352  14.780   1.936
53751W        W20292   4.727  16.279  12.480
53752W        W20293   1.615  40.481  12.022
53753W        W20294  25.066  25.246  11.722
53754W        W20295   9.527  14.111   1.167
53755W        W20296   3.184   2.229  14.202
53756W        W20297  27.441  39.074  13.848
53757W        W20298  14.000  21.505  12.070
53758W        W20299   5.951  25.145  13.999
53759W        W20300  43.822  22.644   4.162
53760W        W20301  24.555  24.295  13.138
53761W        W20302  42.230  38.551   3.702
53762W        W20303  16.409   7.278  13.386
53763W        W20304  22.986   9.129  10.807
53764W        W20305  25.289  12.874  10.716
53765W        W20306  34.376  42.889   2.181
53766W        W20307  28.405  31.908  12.803
53767W        W20308  21.871  38.608   4.150
53768W        W20309  41.323  29.623   4.230
53769W        W20310  36.053  35.483  14.865
53770W        W20311   3.798  27.284   4.157
53771W        W20312  44.526  25.566  10.563
53772W        W20313  42.904  43.545  12.085
53773W        W20314  12.085   3.534  13.452
53774W        W20315   0.737  28.536   3.797
53775W        W20316   5.987  27.333  12.077
53776W        W20317  24.147   6.278  12.811
53777W        W20318  27.623  33.437   3.687
53778W        W20319  21.326  29.399  12.506
53779W        W20320   2.394   5.007   4.165
53780W        W20321  27.566  33.885   4.756
53781W        W20322   9.920  41.723   0.235
53782W        W20323   9.316  16.134   0.216
53783W        W20324  11.486  17.709   1.437
53784W        W20325  16.036   8.682   4.678
53785W        W20326  40.786   4.754   4.628
53786W        W20327  30.360  23.452  12.503
53787W        W20328  23.950  13.092   2.493
53788W        W20329  33.114  38.448  12.952
53789W        W20330  20.517  11.659  10.495
53790W        W20331   2.694   3.859  14.477
53791W        W20332  10.146  37.378   2.366
53792W        W20333  37.363  44.086  13.775
53793W        W20334  27.569  26.325  14.939
53794W        W20335   8.193  12.804   2.097
53795W        W20336   6.476   6.763   0.480
53796W        W20337  26.583  34.886   4.151
53797W        W20338  14.357  40.754  11.998
53798W        W20339  34.205  37.334   3.993
53799W        W20340  44.089  16.423  10.085
53800W        W20341  42.690  16.636  14.347
53801W        W20342  44.779  25.212   0.667
53802W        W20343   9.201  38.605   1.843
53803W        W20344  14.409  12.921  13.961
53804W        W20345  26.011  28.573  13.480
53805W        W20346  11.876  12.935   1.238
53806W        W20347  29.927   1.399   1.774
53807W        W20348  35.624  29.177   0.863
53808W        W20349  29.152  29.967  13.082
53809W        W20350  10.149   7.400   4.935
53810W        W20351  25.720  37.746  13.566
53811W        W20352  37.170  27.386  12.088
53812W        W20353  36.642  31.582   0.759
53813W        W20354  37.530  23.364  14.736
53814W        W20355  39.746   4.292   4.146
53815W        W20356  32.880  12.086   4.216
53816W        W20357  41.018   3.058  12.854
53817W        W20358   0.514   4.305   1.229
53818W        W20359  29.852  33.085   0.010
53819W        W20360  18.161  34.137   0.280
53820W        W20361   4.395  42.778   3.408
53821W        W20362  37.376  31.629  13.321
53822W        W20363  16.140   6.848  13.499
53823W        W20364  16.184  21.613   1.381
53824W        W20365  34.665  41.459   1.452
53825W        W20366  32.213   9.173   2.853
53826W        W20367   6.197  43.499  12.042
53827W        W20368  31.055   5.669  12.477
53828W        W20369  20.178   5.652   5.065
53829W        W20370  24.886  36.743  10.901
53830W        W20371   4.392   5.367  14.150
53831W        W20372  33.656  36.725  12.999
53832W        W20373  29.568   4.533  11.480
53833W        W20374  31.507  21.097   3.516
53834W        W20375   7.955  14.847  12.890
53835W        W20376  10.175  44.748  10.713
53836W        W20377  22.316  42.103  11.107
53837W        W20378  20.626  17.307   1.849
53838W        W20379  19.514  10.584  14.542
53839W        W20380   0.353  18.984  14.506
53840W        W20381  29.781   5.738  12.067
53841W        W20382  11.713  24.729  11.332
53842W        W20383  24.950  34.083   0.024
53843W        W20384   3.861  19.259   1.290
53844W        W20385  38.682  28.734   3.134
53845W        W20386  30.166   0.209   1.309
53846W        W20387  25.745   9.684   0.252
53847W        W20388  14.309  12.650  13.084
53848W        W20389  38.252  21.083   3.995
53849W        W20390  31.109  23.530  13.043
53850W        W20391  33.984  35.488  14.845
53851W        W20392  19.708  28.383  13.677
53852W        W20393  23.812  20.297   3.370
53853W        W20394   3.009  34.510  11.020
53854W        W20395  10.326  44.090  12.481
53855W        W20396  19.683   6.771  10.197
53856W        W20397  35.065  12.662   3.807
53857W        W20398  30.690   3.409   3.250
53858W        W20399  19.063  16.035   2.322
53859W        W20400   4.190  42.744   1.065
53860W        W20401  37.388  38.481   3.461
53861W        W20402   2.604  22.958  13.843
53862W        W20403   5.749  38.386  12.413
53863W        W20404  34.681  13.643   4.252
53864W        W20405  43.740   4.953  12.593
53865W        W20406  33.050  25.423  13.963
53866W        W20407  39.519  27.765   1.808
53867W        W20408  32.058  37.062   3.879
53868W        W20409   1.841  28.334   3.315
53869W        W20410  18.053  32.055  12.329
53870W        W20411  23.171  18.227  10.652
53871W        W20412  31.409   7.716  12.583
53872W        W20413   3.338  39.318   4.082
53873W        W20414  13.165  16.763   4.737
53874W        W20415  44.054   3.857   1.210
53875W        W20416   2.741  18.700   1.869
53876W        W20417  33.667  24.246  11.952
53877W        W20418  13.723  22.470   4.313
53878W        W20419  39.861  25.374   4.998
53879W        W20420  30.155  23.212  14.856
53880W        W20421  19.336   5.032   0.459
53881W        W20422   6.885  42.448  11.067
53882W        W20423  27.943  10.892  12.032
53883W        W20424   7.360   9.985  12.510
53884W        W20425  42.272  29.903   0.243
53885W        W20426  39.958  27.803   2.822
53886W        W20427  30.330  41.003   0.229
53887W        W20428   4.663  23.542   0.648
53888W        W20429   5.757  34.863  12.924
53889W        W20430  32.542   6.375  13.066
53890W        W20431   8.292   5.558   4.035
53891W        W20432  39.441   3.997  14.519
53892W        W20433   1.444   6.609  12.652
53893W        W20434  37.892  34.865   1.785
53894W        W20435   7.147   7.952   0.465
53895W        W20436  31.147  22.144   0.914
53896W        W20437  11.388  22.594  13.550
53897W        W20438  20.251  31.474  11.667
53898W        W20439   6.823  22.451   0.072
53899W        W20440  44.468  42.096  13.258
53900W        W20441   0.937  15.578  11.952
53901W        W20442   6.733  12.171   0.728
53902W        W20443   2.855  32.394  12.113
53903W        W20444  28.277  27.028   1.849
53904W        W20445   2.036  18.073   1.418
53905W        W20446   5.662  12.543   4.198
53906W        W20447  19.588  38.762  11.783
53907W        W20448  44.798  18.225   4.712
53908W        W20449   1.766  35.081   2.868
53909W        W20450   0.523  22.210  13.424
53910W        W20451  17.498  35.341   4.577
53911W        W20452   2.927  44.054   3.902
53912W        W20453   8.840  18.215  10.675
53913W        W20454  36.720  10.585   1.325
53914W        W20455  25.556  39.542  14.043
53915W        W20456   2.005  42.930   0.388
53916W        W20457   6.176  11.061   1.179
53917W        W20458  28.704   1.392   0.246
53918W        W20459  18.574  32.573   5.365
53919W        W20460  41.822  30.982   2.323
53920W        W20461  16.018  40.928   0.253
53921W        W20462  40.816   1.900  11.674
53922W        W20463  35.411  28.435  11.215
53923W        W20464   6.177  32.934   2.799
53924W        W20465  24.723  41.858   4.595
53925W        W20466  15.356   9.944   1.189
53926W        W20467  15.695  18.528  10.755
53927W        W20468  36.659  32.501  12.867
53928W        W20469  28.995  42.015  12.338
53929W        W20470  13.469  31.507  12.874
53930W        W20471  18.678  41.239   0.917
53931W        W20472  34.955  33.581  11.363
53932W        W20473  27.837  21.136   2.721
53933W        W20474   7.701  28.521   1.242
53934W        W20475  23.117  30.543  11.909
53935W        W20476  29.236  22.125  13.013
53936W        W20477   5.262  28.374  13.916
53937W        W20478  40.402  24.646  13.375
53938W        W20479   4.554  21.267   3.663
53939W        W20480   4.309  42.547   4.135
53940W        W20481  21.547  28.634  13.369
53941W        W20482  40.349   0.408  11.819
53942W        W20483   0.365   5.160   2.171
53943W        W20484  11.851  40.265  10.653
53944W        W20485   8.584   0.798  13.546
53945W        W20486  30.143  40.422   3.303
53946W        W20487  16.881  15.389   4.742
53947W        W20488  36.758  29.557   1.853
53948W        W20489  32.967  36.408   0.966
53949W        W20490  43.575  37.895   1.405
53950W        W20491  29.072  16.580  12.251
53951W        W20492   5.948  15.399   4.562
53952W        W20493  13.030  18.526   1.291
53953W        W20494  43.441  15.229  10.183
53954W        W20495   8.139  35.591  11.398
53955W        W20496  19.672  18.408  13.887
53956W        W20497  40.469  24.910  12.520
53957W        W20498  18.569  34.614  14.539
53958W        W20499  43.449  14.771  12.391
53959W        W20500  38.526  19.753  13.056
53960W        W20501  24.698  38.829  13.381
53961W        W20502  14.175  35.225   0.902
53962W        W20503  10.347   2.400   2.212
53963W        W20504   5.267  31.516   0.880
53964W        W20505  43.171   8.808   1.258
53965W        W20506  28.056  24.498   2.752
53966W        W20507  36.486  15.263  12.589
53967W        W20508  20.788  26.215   2.372
53968W        W20509   2.302  40.834   2.430
53969W        W20510  34.478  18.834   3.690
53970W        W20511  20.828   3.704  10.452
53971W        W20512   0.381  28.019   0.901
53972W        W20513   8.595  36.502   0.542
53973W        W20514  21.862   2.356  12.458
53974W        W20515   0.377  44.178  11.590
53975W        W20516   3.905  42.971  14.844
53976W        W20517  15.282   0.508   3.734
53977W        W20518  24.500  21.674  12.540
53978W        W20519  18.567  11.351   3.248
53979W        W20520  13.838  36.926   0.855
53980W        W20521  24.916  23.342  10.744
53981W        W20522   1.984  39.531  13.078
53982W        W20523  44.208   5.455   4.533
53983W        W20524  10.650  37.885  10.524
53984W        W20525   0.382   8.653  13.373
53985W        W20526  25.642  12.425   2.846
53986W        W20527  31.050  30.633   3.759
53987W        W20528   4.826   5.759   1.740
53988W        W20529   0.276  13.914  10.674
53989W        W20530  40.042  35.450  12.677
53990W        W20531  18.531  36.955   1.413
53991W        W20532   0.547  14.630   2.331
53992W        W20533   5.219   3.287   0.314
53993W        W20534   9.446   4.466   1.908
53994W        W20535  39.372  19.724   2.366
53995W        W20536  38.243  39.241  13.854
53996W        W20537  25.038  11.912   1.923
53997W        W20538  33.633  14.426   3.024
53998W        W20539  24.241  26.319  12.126
53999W        W20540  31.781  29.552  12.446
54000W        W20541  34.831  30.533   2.632
54001W        W20542  31.607  31.787  13.259
54002W        W20543  25.957  33.084  13.892
54003W        W20544  28.432  29.433  12.609
54004W        W20545  35.869  27.271  14.289
54005W        W20546  30.939  33.503   1.769
54006W        W20547  17.978  12.863  13.260
54007W        W20548  39.405   8.086  12.884
54008W        W20549  29.613  24.799  14.372
54009W        W20550  37.924  18.237   3.252
54010W        W20551  23.707  44.469  11.518
54011W        W20552  37.552  39.322   2.275
54012W        W20553  29.040  25.575   2.844
54013W        W20554  22.699  22.222  12.525
54014W        W20555  16.654   3.654   2.335
54015W        W20556  36.621  23.624   1.269
54016W        W20557  30.377  25.654  12.008
54017W        W20558  39.748  42.392   1.779
54018W        W20559  11.852  13.643   3.880
54019W        W20560  27.516   3.140   2.886
54020W        W20561  37.339  15.357  11.071
54021W        W20562   8.619  19.934  12.614
54022W        W20563  21.231  17.268   1.351
54023W        W20564  25.618  41.126  12.923
54024W        W20565  15.271   1.498   0.852
54025W        W20566  24.051  11.625   9.673
54026W        W20567  39.918   1.264  13.128
54027W        W20568  34.550  18.425   1.629
54028W        W20569  34.563  22.300   4.137
54029W        W20570  37.384  10.241   1.812
54030W        W20571  33.784  42.492   0.172
54031W        W20572   0.685  35.958   2.341
54032W        W20573  15.114  23.694   2.746
54033W        W20574  44.252   3.350  10.622
54034W        W20575  13.853   3.844  13.795
54035W        W20576  18.580  41.411  10.395
54036W        W20577  39.928  34.595   4.203
54037W        W20578  15.392  41.392  12.926
54038W        W20579  30.549  43.600   1.473
54039W        W20580  11.401  20.790   4.010
54040W        W20581  12.659  28.542   1.348
54041W        W20582   8.156  33.637  12.447
54042W        W20583   3.703  38.908   4.114
54043W        W20584  38.812  12.729  10.221
54044W        W20585  26.666   3.266  14.460
54045W        W20586   1.481  23.026  11.925
54046W        W20587  14.119  28.683  11.611
54047W        W20588  21.455  27.913  12.974
54048W        W20589  25.699  10.955   1.348
54049W        W20590  22.867  36.181  12.500
54050W        W20591  11.246  21.910  14.370
54051W        W20592  32.594  26.718   0.364
54052W        W20593  15.055  23.787  12.634
54053W        W20594  19.777  42.779  13.837
54054W        W20595  30.673  35.518   2.258
54055W        W20596  19.479  39.964   3.985
54056W        W20597  39.514  20.544   3.246
54057W        W20598  27.399  19.266   2.588
54058W        W20599  19.588   8.170  10.115
54059W        W20600  18.051  40.340  13.652
54060W        W20601  41.320   9.629  14.416
54061W        W20602  32.540  17.728   3.352
54062W        W20603   3.193  29.082   1.063
54063W        W20604  20.056  16.839   5.373
54064W        W20605  28.348  24.173   3.292
54065W        W20606  28.080   7.510  14.714
54066W        W20607  10.712   3.588   4.273
54067W        W20608  18.961  41.525   3.064
54068W        W20609  28.375  33.147  13.460
54069W        W20610   6.039  43.748  11.123
54070W        W20611   3.281  32.064  14.818
54071W        W20612   4.360  16.640   4.666
54072W        W20613  34.058  31.607   3.270
54073W        W20614  27.472   9.278   3.770
54074W        W20615  35.501  19.840  12.047
54075W        W20616  10.235  37.716  12.452
54076W        W20617  23.121  37.420   3.430
54077W        W20618  18.332  21.541  11.686
54078W        W20619   7.368  42.092   0.826
54079W        W20620   6.453  44.994  13.800
54080W        W20621   5.242  22.458  11.634
54081W        W20622  31.003  16.771  12.928
54082W        W20623  23.072   7.786  12.965
54083W        W20624  21.114  31.627   1.329
54084W        W20625   4.292  39.396   4.703
54085W        W20626  17.276   9.209   1.216
54086W        W20627  16.455  22.279   4.097
54087W        W20628   0.213  18.481   0.931
54088W        W20629  23.104   1.969  12.899
54089W        W20630  44.747   5.003   3.719
54090W        W20631  14.163   3.507  11.158
54091W        W20632  36.970  12.702   3.627
54092W        W20633  32.003  29.258  11.204
54093W        W20634  15.402  17.230   1.735
54094W        W20635  40.825  11.578  10.284
54095W        W20636  35.944   4.006  13.300
54096W        W20637  29.078  44.240   4.120
54097W        W20638   0.209  21.730   0.403
54098W        W20639   1.785  20.462   2.932
54099W        W20640  16.587  25.937  12.937
54100W        W20641  27.529  19.163   1.690
54101W        W20642  11.349  18.114  14.320
54102W        W20643  27.066  43.510  13.897
54103W        W20644   0.109  24.675  10.718
54104W        W20645  43.500  29.889   3.681
54105W        W20646  34.639  22.182   3.263
54106W        W20647  10.032  20.247   3.193
54107W        W20648   6.729   6.060  12.023
54108W        W20649  40.214  25.959   4.239
54109W        W20650  12.169  18.356  14.527
54110W        W20651  15.205  38.519   4.524
54111W        W20652  25.675  17.284   2.294
54112W        W20653   0.156  18.292  13.920
54113W        W20654  31.343   1.898  14.300
54114W        W20655  12.628  41.936  12.479
54115W        W20656  10.271   5.424   0.347
54116W        W20657  19.507  36.515   4.018
54117W        W20658  37.629  17.722  13.540
54118W        W20659  28.688  43.053   4.609
54119W        W20660   2.912  24.721  11.924
54120W        W20661  26.352  10.933   1.760
54121W        W20662  12.348   3.558  11.173
54122W        W20663   2.366  30.901   3.818
54123W        W20664   7.154  15.500   4.612
54124W        W20665  30.823  35.450  11.100
54125W        W20666  18.836  28.672   0.370
54126W        W20667   2.217  43.198   0.016
54127W        W20668  17.012  14.918  13.301
54128W        W20669  33.710  34.568  11.132
54129W        W20670  30.492  36.996  11.467
54130W        W20671   9.779  39.275  11.531
54131W        W20672  21.212  23.044  14.846
54132W        W20673  41.879  24.262   1.990
54133W        W20674  33.936  43.885   1.188
54134W        W20675  35.856   9.037   2.233
54135W        W20676   6.010  27.047  11.546
54136W        W20677  17.576  30.607  14.332
54137W        W20678   4.942  13.660  12.035
54138W        W20679  29.154  10.327  12.991
54139W        W20680  10.745  25.924  14.349
54140W        W20681  15.897  36.245  12.896
54141W        W20682  25.525  24.990   1.201
54142W        W20683  34.690  23.470  10.740
54143W        W20684   9.231  34.145  12.727
54144W        W20685   2.470  27.162  11.702
54145W        W20686  29.909   2.770  11.624
54146W        W20687  24.238  26.122   0.524
54147W        W20688  27.224  28.826   3.196
54148W        W20689   2.249  33.657   5.222
54149W        W20690   4.629   8.483   0.627
54150W        W20691  30.861  26.649  13.785
54151W        W20692  34.867  17.317   4.460
54152W        W20693  41.011  21.589  11.473
54153W        W20694  42.361  23.026   3.628
54154W        W20695  35.920  31.578  13.471
54155W        W20696  40.933  31.418  13.026
54156W        W20697  39.023  27.387   2.267
54157W        W20698  18.015  31.891  14.727
54158W        W20699  24.976  34.674  11.851
54159W        W20700  33.995  23.037   3.668
54160W        W20701   1.524  30.035  13.792
54161W        W20702   7.932  12.392  11.146
54162W        W20703  30.029   1.995   0.933
54163W        W20704  34.998   4.881   4.146
54164W        W20705  37.347  36.432  11.580
54165W        W20706  15.564  27.340  12.404
54166W        W20707  39.415  12.373  11.139
54167W        W20708  29.481  18.623   4.064
54168W        W20709  41.298  23.513  12.928
54169W        W20710  35.468  27.083  13.552
54170W        W20711  17.019   5.644   0.687
54171W        W20712  18.113  40.613   1.257
54172W        W20713   7.870  29.678  10.408
54173W        W20714  18.121   3.207   3.865
54174W        W20715  31.042   2.126   0.476
54175W        W20716   7.374  25.551  10.644
54176W        W20717  35.022   6.313   4.690
54177W        W20718  38.330   4.280  11.608
54178W        W20719  18.026   4.956   3.887
54179W        W20720  38.156   2.414  13.558
54180W        W20721   0.764  40.563   2.453
54181W        W20722  39.472  26.412   2.106
54182W        W20723  27.540  40.039   4.707
54183W        W20724  12.287  25.363  14.532
54184W        W20725  17.559  27.256   4.744
54185W        W20726  13.351  26.139  11.234
54186W        W20727  30.489  27.559   0.631
54187W        W20728  19.283  18.532   1.445
54188W        W20729  35.022  32.269   5.104
54189W        W20730  22.091  22.239   4.093
54190W        W20731   8.173   6.931  12.452
54191W        W20732  25.317  38.994  10.736
54192W        W20733   7.169  22.733  10.867
54193W        W20734   5.866  21.957  14.417
54194W        W20735  38.995  30.936  11.586
54195W        W20736  13.557  18.538   1.321
54196W        W20737   3.331  28.315  11.639
54197W        W20738   4.495  15.914  12.145
54198W        W20739   3.000  13.601  10.794
54199W        W20740  31.990   8.843   3.822
54200W        W20741  16.833  21.146   2.358
54201W        W20742  33.399  39.438   4.491
54202W        W20743  15.322   6.170  12.257
54203W        W20744  24.528  26.111  13.391
54204W        W20745  39.219  34.632  14.909
54205W        W20746  34.970  19.260   1.746
54206W        W20747  37.967  25.188   2.683
54207W        W20748   9.234  36.557  14.807
54208W        W20749   8.329  15.599  14.363
54209W        W20750   5.897  26.068  11.533
54210W        W20751  10.567  19.254   2.788
54211W        W20752  42.740  44.264  13.367
54212W        W20753   0.009  32.370   3.135
54213W        W20754  27.466  39.938  12.101
54214W        W20755  23.988  27.177   1.742
54215W        W20756  18.001  39.252   3.707
54216W        W20757  26.542   8.894   2.093
54217W        W20758  13.431   0.517  11.644
54218W        W20759  11.147  31.874   4.116
54219W        W20760   3.485  25.030  14.771
54220W        W20761  29.951  34.846  10.694
54221W        W20762  44.198  25.308  11.167
54222W        W20763   6.908  13.243  12.055
54223W        W20764  11.421  36.185  12.992
54224W        W20765  42.935  41.369   1.260
54225W        W20766  24.795  12.678   3.577
54226W        W20767   5.315  34.480  10.676
54227W        W20768   5.915  25.152   4.052
54228W        W20769  42.623   4.824  11.145
54229W        W20770  11.884  19.673   2.824
54230W        W20771   6.383  11.292   0.755
54231W        W20772  33.310   5.941  12.573
54232W        W20773   1.219   1.670  11.916
54233W        W20774  34.125  22.545   4.292
54234W        W20775   6.053  17.247   1.543
54235W        W20776  37.884  34.306  10.990
54236W        W20777  23.415  35.453  12.955
54237W        W20778  40.968  16.657  12.791
54238W        W20779  10.854  15.194   3.560
54239W        W20780  44.117  39.524   0.722
54240W        W20781  40.781  17.218  14.454
54241W        W20782  18.053  11.781   0.837
54242W        W20783   9.459   5.187  11.138
54243W        W20784  38.281  29.073  12.122
54244W        W20785   4.103  20.538  13.911
54245W        W20786  33.510  22.767  12.078
54246W        W20787  39.619  17.299   3.627
54247W        W20788   5.518  29.602  10.777
54248W        W20789  28.256  40.079   3.355
54249W        W20790  19.052  18.779  13.064
54250W        W20791  30.162  11.955  11.506
54251W        W20792  37.873  25.960   4.201
54252W        W20793  20.784  34.367  10.681
54253W        W20794  21.708  36.976  13.846
54254W        W20795  39.928  36.406  10.641
54255W        W20796  23.552  30.546  11.637
54256W        W20797  23.994   6.117   1.324
54257W        W20798  15.681  27.566   4.826
54258W        W20799  30.168  15.670   2.982
54259W        W20800  12.326  39.182  10.957
54260W        W20801  38.474  36.930   0.433
54261W        W20802   7.220  43.431  10.729
54262W        W20803  25.613  11.360   3.773
54263W        W20804  23.756  26.161  13.873
54264W        W20805  36.395  15.267   0.983
54265W        W20806  34.155  39.545  12.991
54266W        W20807  19.986  28.366   2.895
54267W        W20808  36.058  18.749  13.969
54268W        W20809  23.463  42.492   2.759
54269W        W20810  40.280   6.429  11.019
54270W        W20811  41.558  10.200   1.951
54271W        W20812  23.003  40.617   1.934
54272W        W20813  24.329  28.854   0.899
54273W        W20814   0.820   6.621   2.328
54274W        W20815  16.638  15.539   2.858
54275W        W20816  22.662  12.363  13.427
54276W        W20817  28.024  31.562  12.124
54277W        W20818  37.145  36.880   0.211
54278W        W20819   4.885  23.138   2.735
54279W        W20820  24.091   5.715  13.525
54280W        W20821  19.036  40.822   2.490
54281W        W20822  42.995  40.470  13.154
54282W        W20823  25.192   4.977  10.584
54283W        W20824  36.362  40.084   2.303
54284W        W20825  29.047  22.775  10.455
54285W        W20826  23.786  44.779   3.841
54286W        W20827  35.362  20.433   2.336
54287W        W20828   2.670  23.747   1.323
54288W        W20829  12.670   8.793  13.407
54289W        W20830  28.785  14.655  13.801
54290W        W20831  36.864  25.818  11.155
54291W        W20832  20.576  30.115   4.617
54292W        W20833  25.813  19.765   4.068
54293W        W20834  12.396   5.518  13.860
54294W        W20835   6.695  44.034   0.432
54295W        W20836  11.275  35.970  12.140
54296W        W20837  14.805  31.000  14.476
54297W        W20838  12.546  10.595   4.559
54298W        W20839  39.849  25.581   3.502
54299W        W20840  11.322  27.130  13.565
54300W        W20841  41.805  11.878   0.838
54301W        W20842  42.232  19.165  11.396
54302W        W20843  36.648  20.447  12.711
54303W        W20844  23.185  40.314  12.027
54304W        W20845  39.273  26.158  11.766
54305W        W20846  41.956   8.055  10.773
54306W        W20847  17.059  22.964   1.733
54307W        W20848  10.916  29.634  11.943
54308W        W20849  22.733  28.954   4.203
54309W        W20850  19.838  25.505  12.521
54310W        W20851  44.483   3.644  14.466
54311W        W20852   5.784  39.820  12.322
54312W        W20853  41.555  23.693   1.258
54313W        W20854  36.438  20.766   0.175
54314W        W20855   9.746  27.401  13.937
54315W        W20856  18.684  25.251  13.196
54316W        W20857  20.372  16.896  10.244
54317W        W20858  27.921  22.048  12.090
54318W        W20859   0.254   9.803  13.834
54319W        W20860   8.086  28.456  11.220
54320W        W20861  27.502  42.871   2.748
54321W        W20862  30.510  19.302  11.068
54322W        W20863  26.590  43.824   1.348
54323W        W20864  33.081  22.697   4.601
54324W        W20865  16.826  25.014  11.995
54325W        W20866  23.468   1.329   3.286
54326W        W20867  27.024  44.481  11.462
54327W        W20868  18.502  24.655   0.316
54328W        W20869  18.570  41.951  11.282
54329W        W20870  43.704  19.030   1.779
54330W        W20871  20.879  25.478  11.057
54331W        W20872  27.521  34.592  10.759
54332W        W20873   5.340  39.927  12.570
54333W        W20874  27.074  18.243   3.899
54334W        W20875  24.577  10.092  10.733
54335W        W20876  14.654  29.520   2.402
54336W        W20877   2.494  35.937   5.367
54337W        W20878  44.354  32.471  11.580
54338W        W20879  10.013  40.031  10.444
54339W        W20880  15.759  26.967  10.858
54340W        W20881  39.999  41.931   0.881
54341W        W20882  22.613  18.157  14.873
54342W        W20883   0.313  35.293   0.056
54343W        W20884  10.744  11.500  12.012
54344W        W20885  44.729  22.721   0.712
54345W        W20886  18.762  40.935  11.136
54346W        W20887  16.110   5.116   0.564
54347W        W20888  10.202  23.607   4.652
54348W        W20889  29.788  11.855  14.074
54349W        W20890  16.547  18.541  14.331
54350W        W20891  13.623  36.285  13.032
54351W        W20892  41.416  17.735   0.315
54352W        W20893  17.031   7.644  13.047
54353W        W20894  33.857   4.306   2.400
54354W        W20895  44.787  28.063   1.279
54355W        W20896  30.907  18.685  12.306
54356W        W20897  33.393  23.786   2.307
54357W        W20898  36.818  17.170   1.970
54358W        W20899  12.255  29.580  14.324
54359W        W20900  38.356  37.327   4.604
54360W        W20901  35.530   3.973   4.735
54361W        W20902  27.663   1.871  13.540
54362W        W20903  26.943  15.642   4.088
54363W        W20904  32.647  13.806   4.007
54364W        W20905   8.892   6.556   1.727
54365W        W20906   1.008  24.911  10.122
54366W        W20907  12.267  15.181  12.489
54367W        W20908   3.515  27.698  14.382
54368W        W20909   0.946  33.120   2.677
54369W        W20910  33.113   3.023   3.180
54370W        W20911  34.344  37.866  11.527
54371W        W20912   7.659  15.945  10.831
54372W        W20913   4.301  27.120  11.704
54373W        W20914  28.651  20.948   3.770
54374W        W20915  12.827   5.918   1.262
54375W        W20916  34.142   7.053  11.858
54376W        W20917  38.474  28.108  14.425
54377W        W20918   1.749   0.885  14.747
54378W        W20919  38.898  42.330   1.157
54379W        W20920  36.666  12.641  11.152
54380W        W20921  31.936  20.933   4.936
54381W        W20922  10.596   8.921   1.464
54382W        W20923  36.494  29.123  10.803
54383W        W20924  39.360   4.464   2.385
54384W        W20925  27.021  35.555   0.230
54385W        W20926  34.630  20.325  14.465
54386W        W20927   1.914  24.628  12.372
54387W        W20928  35.328  12.331   1.295
54388W        W20929   6.254  25.064  14.444
54389W        W20930   7.622  19.788   3.115
54390W        W20931   9.652  41.999   4.899
54391W        W20932  19.074  42.318  12.900
54392W        W20933  25.031  17.809   3.590
54393W        W20934   7.823  31.211  13.589
54394W        W20935   2.800  35.162   2.664
54395W        W20936  36.792  37.348  14.489
54396W        W20937  32.512  28.099   0.733
54397W        W20938  38.964  19.097   2.844
54398W        W20939  23.941  26.106  14.351
54399W        W20940  44.229  29.230   1.160
54400W        W20941  42.965  23.383  14.028
54401W        W20942  18.063  12.621   1.258
54402W        W20943  29.058  27.396   4.146
54403W        W20944  23.671   3.395  11.287
54404W        W20945   4.255  10.208  13.053
54405W        W20946  21.087   2.730   2.206
54406W        W20947   5.295  28.448   5.337
54407W        W20948  10.907  28.348  10.913
54408W        W20949  23.990  19.154   0.495
54409W        W20950  26.364   1.824  13.796
54410W        W20951   2.752   8.854  10.519
54411W        W20952  40.412  14.086  10.219
54412W        W20953  43.852  20.809  13.837
54413W        W20954  24.649  27.941   1.772
54414W        W20955   5.523  18.833   3.866
54415W        W20956  33.851   9.417  13.509
54416W        W20957   4.936  30.264  10.130
54417W        W20958   7.223   6.299  11.510
54418W        W20959   8.105  36.606   4.668
54419W        W20960  11.073  44.232  14.880
54420W        W20961  27.062   4.001   0.171
54421W        W20962  29.256  38.117  14.401
54422W        W20963  42.291  29.212   4.040
54423W        W20964  36.490  41.045   3.423
54424W        W20965  10.329  25.359   2.334
54425W        W20966  36.104  42.938   0.489
54426W        W20967  22.715  12.473   2.775
54427W        W20968  26.389  37.838   3.626
54428W        W20969  12.382   0.411  10.794
54429W        W20970   5.249  22.866   3.948
54430W        W20971  11.885  37.498  10.737
54431W        W20972   4.891  35.063   0.687
54432W        W20973  35.795  40.211  11.170
54433W        W20974   3.008  22.697  14.565
54434W        W20975  28.719  21.544  10.542
54435W        W20976   7.191  15.387  13.920
54436W        W20977  31.434  43.020   3.603
54437W        W20978  16.048  37.649  13.347
54438W        W20979  36.567  36.625   1.934
54439W        W20980  30.091   1.704  13.375
54440W        W20981  37.454  24.392  12.065
54441W        W20982   5.257  29.378  13.968
54442W        W20983   5.832  30.627   1.854
54443W        W20984   9.442  39.318  13.077
54444W        W20985  38.791  18.062  14.084
54445W        W20986  27.071   7.193   4.052
54446W        W20987  39.694  23.097  14.661
54447W        W20988   7.690  35.986   0.160
54448W        W20989  12.223   8.497   2.254
54449W        W20990  27.255  39.203  12.562
54450W        W20991   5.773  24.287   3.758
54451W        W20992  11.742  18.141   3.998
54452W        W20993  24.414   8.710  11.997
54453W        W20994  18.532  36.907  13.455
54454W        W20995  27.099  12.842  13.037
54455W        W20996   1.662  36.498   4.676
54456W        W20997   0.479   4.285   2.202
54457W        W20998  18.268   6.337  11.143
54458W        W20999  37.359  17.084  12.566
54459W        W21000  30.904   6.582   4.949
54460W        W21001   2.076  26.956   2.341
54461W        W21002  18.977   9.981  10.786
54462W        W21003  23.490   8.842  14.006
54463W        W21004  34.041  38.858  13.600
54464W        W21005  12.070   4.648   3.908
54465W        W21006  27.208  24.330  11.599
54466W        W21007  28.208  23.689   0.649
54467W        W21008   4.499  22.734   0.881
54468W        W21009  30.396  37.651   0.965
54469W        W21010  24.880  23.129  11.706
54470W        W21011   5.463  40.844  11.090
54471W        W21012  26.532  10.883  13.533
54472W        W21013   7.931  25.132   0.309
54473W        W21014   4.502  34.833   4.141
54474W        W21015  12.369  21.113   1.725
54475W        W21016  17.037  13.792  11.937
54476W        W21017  13.833  17.822  13.335
54477W        W21018   4.435  18.274   4.117
54478W        W21019   7.608  36.808  10.882
54479W        W21020  29.765  41.075   3.803
54480W        W21021  41.077  10.143   3.710
54481W        W21022  32.671  13.069  11.922
54482W        W21023  22.855  30.783   3.179
54483W        W21024  30.378  27.855  12.038
54484W        W21025   9.103  22.793   1.650
54485W        W21026   0.534  36.580  12.577
54486W        W21027  10.483  20.027  11.531
54487W        W21028  21.753   3.281   0.899
54488W        W21029  34.577  42.249  14.890
54489W        W21030  24.557  14.044   2.687
54490W        W21031  44.767   2.515  14.794
54491W        W21032  27.864  12.292  12.021
54492W        W21033  30.378  17.941  13.495
54493W        W21034  37.004  18.707  13.901
54494W        W21035  21.741   0.905  10.655
54495W        W21036  22.755  14.255  12.113
54496W        W21037  44.854  18.332  12.286
54497W        W21038   9.854  37.282   2.828
54498W        W21039  36.299  27.457   1.428
54499W        W21040  14.356  29.363  13.874
54500W        W21041  29.194  31.287  13.869
54501W        W21042  40.580  39.566  11.236
54502W        W21043  15.107  16.795   1.710
54503W        W21044  28.556   8.660   2.732
54504W        W21045  33.101  37.055  12.130
54505W        W21046  11.342  37.017   1.998
54506W        W21047  31.710  24.000  13.428
54507W        W21048   1.188  18.892   2.029
54508W        W21049  20.380  19.225  12.935
54509W        W21050  42.941  29.089  12.531
54510W        W21051  40.325  32.524  13.987
54511W        W21052  26.321  34.403  11.548
54512W        W21053  33.708  15.177   1.849
54513W        W21054  25.890  21.940   2.235
54514W        W21055  16.524  33.628   3.745
54515W        W21056  34.178   5.495  10.834
54516W        W21057  18.586  38.352   0.499
54517W        W21058  25.393  37.928  13.944
54518W        W21059   7.236   2.743   4.339
54519W        W21060  20.043  24.433  13.339
54520W        W21061  17.372  31.017   5.405
54521W        W21062  41.988  44.750   0.434
54522W        W21063  20.828  28.028  10.714
54523W        W21064  44.298  25.179  12.996
54524W        W21065  40.861  15.234  11.983
54525W        W21066  18.591  23.844  14.291
54526W        W21067  16.874   3.991  12.490
54527W        W21068  19.632  10.840   4.623
54528W        W21069  40.701   7.248  11.066
54529W        W21070  15.598  44.816   2.063
54530W        W21071  32.033   5.939   4.348
54531W        W21072  28.236  44.929   2.225
54532W        W21073  36.869  25.097   4.130
54533W        W21074  39.818  30.655   2.608
54534W        W21075  37.197  22.256  11.191
54535W        W21076  28.367   4.597  11.723
54536W        W21077  32.798  14.084   2.280
54537W        W21078  40.455   3.226  11.583
54538W        W21079   7.153   5.845   2.813
54539W        W21080  16.165   7.927   0.407
54540W        W21081  27.157  39.278   4.499
54541W        W21082  32.007  31.154   4.400
54542W        W21083  15.719  42.745   0.938
54543W        W21084  13.403  23.277   2.197
54544W        W21085  29.440  29.718  12.473
54545W        W21086   6.861  42.459  12.859
54546W        W21087  17.211  17.253  12.184
54547W        W21088  11.897  34.411  14.819
54548W        W21089  15.884  42.273   3.285
54549W        W21090  23.261   6.777  12.871
54550W        W21091  11.146  42.455   0.286
54551W        W21092  43.813  32.992   2.190
54552W        W21093  28.681  42.270  11.492
54553W        W21094  18.676   4.745   0.640
54554W        W21095  18.104  18.990  12.988
54555W        W21096   7.450  24.042   3.222
54556W        W21097   1.947   2.778  13.927
54557W        W21098  12.985  25.580   1.592
54558W        W21099   7.878  15.040  10.406
54559W        W21100  26.107  21.952  14.132
54560W        W21101  11.284  42.196  12.302
54561W        W21102   8.455  42.971  14.825
54562W        W21103  42.878  15.090  12.340
54563W        W21104   3.197  41.340  13.387
54564W        W21105   3.293   5.704  13.163
54565W        W21106  11.227  31.109  12.190
54566W        W21107   6.292  19.972   1.324
54567W        W21108  17.135   9.777  13.134
54568W        W21109  22.827  41.925  11.957
54569W        W21110  19.717  12.561  11.271
54570W        W21111  25.822  33.858   0.016
54571W        W21112  28.208  20.735  10.658
54572W        W21113  40.636  11.211   2.028
54573W        W21114   1.923   0.245   1.151
54574W        W21115  19.470  35.284  12.466
54575W        W21116  44.498   8.395  13.245
54576W        W21117  25.982  31.567   1.223
54577W        W21118  17.296   7.281   0.383
54578W        W21119  31.095  28.785   0.424
54579W        W21120   2.129  28.203   4.631
54580W        W21121  14.623  19.253   1.852
54581W        W21122  40.327  31.918  14.453
54582W        W21123  36.467   3.337  13.933
54583W        W21124  33.216  40.875   2.814
54584W        W21125   5.625  42.850   1.286
54585W        W21126  23.203  42.331   1.378
54586W        W21127  44.480  26.411  12.776
54587W        W21128  10.040  12.314  13.875
54588W        W21129   9.208  22.101  11.793
54589W        W21130  33.237   3.683  11.152
54590W        W21131  35.762  28.882   0.009
54591W        W21132  26.079  11.843   4.724
54592W        W21133  33.799  33.342   4.915
54593W        W21134  33.084  44.770   4.220
54594W        W21135  18.096  40.807  11.895
54595W        W21136  31.956  29.635   3.960
54596W        W21137  29.729  13.332  12.427
54597W        W21138  30.072  34.524   4.385
54598W        W21139  25.074  38.318  11.080
54599W        W21140   2.828  21.514   1.708
54600W        W21141  22.705  31.159  12.961
54601W        W21142  31.427  18.501   3.337
54602W        W21143  25.047  19.950   0.778
54603W        W21144  38.546  11.602   3.779
54604W        W21145  23.790  25.659  11.162
54605W        W21146  19.996  10.926  12.852
54606W        W21147   8.237   9.349  12.480
54607W        W21148  30.587  44.708   2.171
54608W        W21149  26.917  32.020   1.796
54609W        W21150  38.150  23.149   1.675
54610W        W21151   7.301  10.679  11.927
54611W        W21152  28.898  14.727  13.036
54612W        W21153   4.433   2.000  14.357
54613W        W21154  37.577  29.968   1.384
54614W        W21155  41.006   1.719   2.208
54615W        W21156  15.353  43.046  12.405
54616W        W21157  27.218  30.908  12.454
54617W        W21158  12.783  17.683   1.443
54618W        W21159   7.815  34.652   3.844
54619W        W21160  24.911  40.238   0.800
54620W        W21161  19.127  18.918   0.242
54621W        W21162  14.389  35.521  14.302
54622W        W21163  26.926  23.574  13.311
54623W        W21164   6.585  15.366   3.115
54624W        W21165   7.437   3.973   1.360
54625W        W21166  21.663  27.881  10.665
54626W        W21167  24.496  15.522   0.653
54627W        W21168  33.875   2.832   2.710
54628W        W21169  28.136  25.740   0.832
54629W        W21170   8.439  35.801   2.793
54630W        W21171  16.024  32.045   0.121
54631W        W21172  30.402  12.724  14.901
54632W        W21173  25.324  29.949  13.794
54633W        W21174   7.475  32.650  10.676
54634W        W21175   5.874  19.755  10.924
54635W        W21176  34.564  12.771   4.814
54636W        W21177  24.460   1.746  12.667
54637W        W21178  10.347   7.309  11.306
54638W        W21179  39.956  18.803  13.483
54639W        W21180  21.060  43.333   2.840
54640W        W21181  10.401  38.464   2.782
54641W        W21182  20.576  25.476   1.951
54642W        W21183  28.950   8.371  14.882
54643W        W21184  36.768  17.302  10.608
54644W        W21185  28.265  32.425   1.502
54645W        W21186  25.499   4.579  10.715
54646W        W21187  27.781   3.702  10.003
54647W        W21188  44.353  43.318   0.855
54648W        W21189  18.716  28.242  12.060
54649W        W21190  28.927  20.828   2.421
54650W        W21191  23.977   0.893  14.889
54651W        W21192  17.916  41.009  13.888
54652W        W21193   3.010  41.034   4.191
54653W        W21194  27.077  17.786  14.007
54654W        W21195  21.071  29.080   2.974
54655W        W21196  32.139  38.385   2.278
54656W        W21197  14.140  40.950   1.936
54657W        W21198  11.925  36.468  10.531
54658W        W21199  12.549  15.724   0.390
54659W        W21200   5.202  31.001  12.462
54660W        W21201  32.535  42.041  14.283
54661W        W21202  27.201  32.944  12.121
54662W        W21203  15.639  44.744  13.858
54663W        W21204  31.198  17.689   4.587
54664W        W21205  30.999  20.639   1.934
54665W        W21206  33.213  11.029  11.106
54666W        W21207  33.682  28.973   1.634
54667W        W21208  20.563  23.264   4.613
54668W        W21209  23.198  28.294  11.051
54669W        W21210  13.298  29.158   3.721
54670W        W21211  12.870  13.038  10.731
54671W        W21212  17.841  15.778   9.929
54672W        W21213  15.470  11.684   4.217
54673W        W21214  20.690  32.636   3.157
54674W        W21215  38.443  18.727  12.861
54675W        W21216  34.423  36.335   0.768
54676W        W21217  27.480  22.107   2.849
54677W        W21218   5.494  44.659   0.317
54678W        W21219   2.418  36.556   3.159
54679W        W21220  41.194  31.940   0.332
54680W        W21221  27.525  38.342  12.196
54681W        W21222  41.873  23.101  13.726
54682W        W21223  14.009  31.571   2.665
54683W        W21224   1.808  16.171   1.196
54684W        W21225  23.238  26.146   0.773
54685W        W21226  41.503  17.628   3.420
54686W        W21227  24.098   3.458   2.621
54687W        W21228  11.844   2.783  13.102
54688W        W21229   0.740  34.013   4.140
54689W        W21230   0.315   2.974  11.965
54690W        W21231   5.163  19.532  14.982
54691W        W21232  33.602  41.053   4.561
54692W        W21233  14.785  37.003  13.837
54693W        W21234  39.630  28.178  13.743
54694W        W21235   1.322   1.817  13.353
54695W        W21236   6.607   6.746  12.529
54696W        W21237   0.343  33.913  14.398
54697W        W21238   2.383  33.437   4.233
54698W        W21239  10.235  29.328   4.940
54699W        W21240  13.250  20.311  11.599
54700W        W21241   1.731  10.137  11.598
54701W        W21242  18.094  32.592  13.598
54702W        W21243  44.380  44.365   2.318
54703W        W21244   3.572  31.375   5.468
54704W        W21245  32.884  26.050   4.692
54705W        W21246   5.767  16.597   0.725
54706W        W21247  44.063   7.376   3.645
54707W        W21248   1.210   8.398   3.664
54708W        W21249  28.922   0.343  13.722
54709W        W21250  34.240  33.540  13.513
54710W        W21251   6.277  19.853  14.590
54711W        W21252   6.818  16.266  12.908
54712W        W21253  12.122   4.764   2.501
54713W        W21254  36.845  12.905  14.396
54714W        W21255  39.554  20.213   2.311
54715W        W21256  15.867  33.199  13.500
54716W        W21257  11.248  14.452  12.419
54717W        W21258  36.807  14.774  14.314
54718W        W21259  12.039  29.852   1.874
54719W        W21260  35.522  19.365   3.364
54720W        W21261  40.459  16.084   1.893
54721W        W21262  34.663  21.883   3.854
54722W        W21263  13.289   6.803   4.814
54723W        W21264  37.689  12.186   3.837
54724W        W21265  12.121   6.702  14.335
54725W        W21266  29.089   6.873  11.036
54726W        W21267  11.588  29.644   0.031
54727W        W21268  11.326  25.263  13.002
54728W        W21269   0.380  35.172   1.390
54729W        W21270  17.841  25.735   4.627
54730W        W21271   4.104  23.340  10.292
54731W        W21272  28.243  36.127  12.639
54732W        W21273   8.369  19.190   3.869
54733W        W21274  30.376  10.956   4.715
54734W        W21275  10.422  16.501   1.802
54735W        W21276  27.216  37.344  10.358
54736W        W21277  21.214   7.125  12.042
54737W        W21278  29.164  25.209   0.020
54738W        W21279   2.374  36.289   3.665
54739W        W21280  23.350  44.510   3.308
54740W        W21281   4.231  24.794  12.539
54741W        W21282   3.343  17.284  13.845
54742W        W21283   5.976   7.433  13.032
54743W        W21284  11.130  10.970  12.097
54744W        W21285  39.397  30.954   0.986
54745W        W21286  38.301  21.773  14.877
54746W        W21287  44.887  41.414  13.818
54747W        W21288  41.781  17.561   0.686
54748W        W21289  42.319  30.894   2.166
54749W        W21290  18.629  25.212  10.987
54750W        W21291  31.073  34.159  12.596
54751W        W21292  35.462  43.539  11.563
54752W        W21293  22.581   1.208  10.515
54753W        W21294  37.032  44.235   1.772
54754W        W21295  25.088  17.045  10.447
54755W        W21296  42.625  12.389   4.045
54756W        W21297   4.712  15.027   4.426
54757W        W21298  39.591  40.309   0.665
54758W        W21299   5.977  38.012  10.744
54759W        W21300  10.191   7.179  13.317
54760W        W21301  39.419  14.934   3.320
54761W        W21302   8.178  10.976  12.874
54762W        W21303  33.241  37.598  11.062
54763W        W21304   5.065  26.491  13.584
54764W        W21305  22.626  28.585  12.910
54765W        W21306  33.966  43.200  13.524
54766W        W21307  35.019  16.595  13.828
54767W        W21308  24.217  19.057   2.670
54768W        W21309  25.279   4.549  10.248
54769W        W21310  25.371  22.856   2.369
54770W        W21311  22.973  40.309   4.501
54771W        W21312  40.787  27.139  11.230
54772W        W21313  14.134   4.432  14.181
54773W        W21314  38.278  36.601  11.064
54774W        W21315   4.666   1.381   0.280
54775W        W21316  20.815  32.908  10.978
54776W        W21317  36.107  35.828   4.160
54777W        W21318  26.834  16.227   1.842
54778W        W21319   4.876  27.516  14.301
54779W        W21320  31.384  36.782   1.794
54780W        W21321  38.621   3.673  11.603
54781W        W21322  32.646  27.580  13.054
54782W        W21323  24.557  18.143  11.615
54783W        W21324  34.079   6.909   2.336
54784W        W21325   1.917  38.935   0.173
54785W        W21326  35.128  44.216  11.228
54786W        W21327   7.998  12.767  10.770
54787W        W21328  42.920  22.416  13.616
54788W        W21329  19.611  14.037   0.937
54789W        W21330   3.351  40.055   0.706
54790W        W21331   7.368   8.407   2.152
54791W        W21332   8.416  24.058  10.569
54792W        W21333   0.832  15.793   1.352
54793W        W21334  34.859   8.857  10.287
54794W        W21335  14.281   2.791  13.438
54795W        W21336  42.381  14.333  11.908
54796W        W21337  30.976  40.021   2.395
54797W        W21338  15.474   9.289   4.543
54798W        W21339  12.274  13.261   4.770
54799W        W21340   6.960   5.846   2.343
54800W        W21341  35.518  31.164   3.334
54801W        W21342   9.802  44.430   3.897
54802W        W21343  11.819   7.770   0.755
54803W        W21344  27.591   4.697   3.754
54804W        W21345  38.254  22.015  12.103
54805W        W21346  40.220  33.699   2.804
54806W        W21347  37.857  42.463  12.372
54807W        W21348  41.754  10.654   2.805
54808W        W21349  40.863   8.079   4.492
54809W        W21350  18.252  11.100   2.190
54810W        W21351  38.571   9.773   0.829
54811W        W21352  16.221   6.138  11.203
54812W        W21353  35.827   6.711  13.428
54813W        W21354   7.750  38.574   2.283
54814W        W21355   4.729  26.868   1.384
54815W        W21356  42.884  29.151   1.794
54816W        W21357  38.830  37.732  11.137
54817W        W21358  31.955  29.830  13.432
54818W        W21359   3.852  26.567   0.405
54819W        W21360   5.252  40.390  10.518
54820W        W21361  22.916   3.383  13.309
54821W        W21362  42.838  44.801  13.344
54822W        W21363  44.461  40.101  14.477
54823W        W21364   2.896   7.424  10.721
54824W        W21365  21.932   1.189  14.061
54825W        W21366  19.745  39.900  11.197
54826W        W21367  11.905  25.930   0.167
54827W        W21368  34.570  27.098  13.627
54828W        W21369   4.022  13.601   2.851
54829W        W21370  38.893   6.943  13.956
54830W        W21371  39.074  24.189  13.753
54831W        W21372  35.790  26.325  13.252
54832W        W21373   8.451  41.312   1.242
54833W        W21374  23.470  11.847   2.391
54834W        W21375  15.842  18.377  10.199
54835W        W21376  20.656  39.930  13.280
54836W        W21377  17.096  26.330   4.960
54837W        W21378  34.606   2.238  10.781
54838W        W21379  16.534   8.917   0.929
54839W        W21380   3.975   2.861  14.573
54840W        W21381  19.681  34.024  13.032
54841W        W21382  19.990   9.531   4.174
54842W        W21383   8.898  44.260  11.175
54843W        W21384  12.160  15.633  11.537
54844W        W21385  27.194  16.141   3.195
54845W        W21386   1.272  30.941  11.933
54846W        W21387   0.819   1.771  14.874
54847W        W21388   0.725  27.997  14.585
54848W        W21389  21.972   9.088   0.262
54849W        W21390   2.928  13.214   0.369
54850W        W21391  24.117  19.140  14.462
54851W        W21392  34.812  33.525  10.878
54852W        W21393  20.506  43.964  12.524
54853W        W21394  30.683  28.256   4.513
54854W        W21395  31.293  17.413  12.515
54855W        W21396   5.313  35.534   4.540
54856W        W21397  25.478   4.809  12.853
54857W        W21398  42.519  42.440  14.252
54858W        W21399  17.831  24.438   0.784
54859W        W21400  42.401  14.705  11.539
54860W        W21401  31.882  19.066   1.273
54861W        W21402  30.213  42.403  10.246
54862W        W21403  16.093  21.325   1.893
54863W        W21404   3.939  11.944   2.558
54864W        W21405  19.194  24.335   4.570
54865W        W21406   6.062   5.313  12.012
54866W        W21407  31.287  42.453   2.329
54867W        W21408   7.868  21.749  10.636
54868W        W21409  40.577  25.738   1.874
54869W        W21410  25.442  24.168   2.281
54870W        W21411  29.990  35.565  12.070
54871W        W21412  24.458  34.052  13.970
54872W        W21413  30.694  34.026  14.367
54873W        W21414  39.994  13.329   0.050
54874W        W21415   0.766  14.299   0.897
54875W        W21416  25.195  23.959  11.137
54876W        W21417   4.975  17.753   2.248
54877W        W21418   8.210  23.677   3.659
54878W        W21419   7.709  16.719   1.271
54879W        W21420   6.229  22.625  13.933
54880W        W21421  12.998  42.665   2.214
54881W        W21422   7.737   0.982  13.282
54882W        W21423  25.690  43.501  11.458
54883W        W21424   8.386   9.036   3.180
54884W        W21425   8.964  17.032   1.792
54885W        W21426  32.586   3.815  14.385
54886W        W21427  43.104  24.560   4.678
54887W        W21428  35.448  37.251  12.949
54888W        W21429  25.540  28.365  13.210
54889W        W21430  21.450   4.847   3.411
54890W        W21431  12.275  42.975   1.511
54891W        W21432  29.449  36.374  10.749
54892W        W21433  10.133   9.143   0.316
54893W        W21434  27.140   1.349   4.853
54894W        W21435  25.681  44.354   1.473
54895W        W21436  10.401  38.643   4.660
54896W        W21437  35.981  22.555   2.803
54897W        W21438  16.534  17.076  10.995
54898W        W21439   1.817  23.495  10.650
54899W        W21440  39.828  38.188  11.534
54900W        W21441  24.270  10.594  10.771
54901W        W21442  14.589   7.041  14.396
54902W        W21443  24.619  36.815   2.743
54903W        W21444  43.503  34.819   2.428
54904W        W21445   4.283  14.004   3.110
54905W        W21446  11.268   2.522  11.151
54906W        W21447  32.507   3.167  11.324
54907W        W21448  32.645  33.979   3.315
54908W        W21449  20.684  24.075  13.883
54909W        W21450  10.193  22.933  11.427
54910W        W21451   3.259  43.248   3.582
54911W        W21452  32.971  36.131   4.295
54912W        W21453  36.603  19.342  14.983
54913W        W21454  11.377  21.148   2.758
54914W        W21455  36.490  10.340   4.415
54915W        W21456  17.402   1.526   0.773
54916W        W21457  28.936  31.121  10.737
54917W        W21458  27.339  13.763   1.827
54918W        W21459   3.709  25.580  13.963
54919W        W21460  10.257  44.263   4.653
54920W        W21461   0.900   4.628   0.298
54921W        W21462   1.945  27.957  14.322
54922W        W21463  11.412  21.822  12.995
54923W        W21464  30.364  35.667  11.709
54924W        W21465  36.081  40.536   2.279
54925W        W21466  13.262  37.567  10.569
54926W        W21467  31.702   2.675  11.911
54927W        W21468  21.862  23.039  13.073
54928W        W21469  29.012  34.229   3.166
54929W        W21470  26.533  16.562   3.646
54930W        W21471  18.265   6.989  14.966
54931W        W21472  10.135  25.498  14.686
54932W        W21473  37.563   4.461  13.126
54933W        W21474   5.696  44.373  14.892
54934W        W21475  19.613   3.933  11.163
54935W        W21476  20.001   2.827  14.279
54936W        W21477   3.020  35.529  10.181
54937W        W21478  44.547  25.480  11.541
54938W        W21479   7.853   4.989   4.992
54939W        W21480  33.158   5.384   1.137
54940W        W21481  36.018  32.635   1.640
54941W        W21482  27.804  39.641   2.606
54942W        W21483  28.529  21.437  11.982
54943W        W21484  32.900  13.207  13.922
54944W        W21485  38.101   3.553  11.698
54945W        W21486  11.681  24.786   4.754
54946W        W21487   0.241  38.888   3.094
54947W        W21488  24.184  44.529  11.765
54948W        W21489  41.943  15.290   4.333
54949W        W21490  22.640  23.059  11.874
54950W        W21491  28.029   4.976  12.971
54951W        W21492   1.246  43.685  12.103
54952W        W21493  43.120  37.421  14.107
54953W        W21494  24.057  43.788   1.684
54954W        W21495  30.933  10.242  13.564
54955W        W21496   0.856  14.091   1.810
54956W        W21497  22.908  19.107  11.546
54957W        W21498  32.485  16.803   4.846
54958W        W21499   3.779  17.279   1.922
54959W        W21500  15.601  16.331   0.875
54960W        W21501  39.074  41.227  10.553
54961W        W21502  38.483   4.934  12.911
54962W        W21503  38.474  26.628   4.317
54963W        W21504  17.632  11.013   0.491
54964W        W21505  11.825  15.944  14.880
54965W        W21506  13.467   7.762   1.237
54966W        W21507  25.577  13.066   0.436
54967W        W21508  22.979   3.123   3.695
54968W        W21509  33.544  28.558   1.899
54969W        W21510  12.043  17.785   0.411
54970W        W21511  17.807  35.423   3.142
54971W        W21512  24.647  28.378   2.939
54972W        W21513   8.933   9.715  11.522
54973W        W21514   5.544  28.251   9.775
54974W        W21515  32.545   1.618   3.067
54975W        W21516  33.165  22.820  14.283
54976W        W21517  24.833  29.866  13.108
54977W        W21518  21.555  44.735  13.043
54978W        W21519   3.619   6.693   4.710
54979W        W21520   1.877  34.665   1.723
54980W        W21521  27.437  10.332   4.104
54981W        W21522  20.819  12.345   0.379
54982W        W21523  30.971   7.226  13.437
54983W        W21524   2.132  25.034  14.345
54984W        W21525  17.572  33.028  12.108
54985W        W21526  31.972   3.237   3.644
54986W        W21527  32.139  18.746  10.652
54987W        W21528  29.081  10.655   1.756
54988W        W21529  40.990  10.620  11.056
54989W        W21530  36.013  13.777  11.202
54990W        W21531  44.919  27.033  12.262
54991W        W21532  39.247  41.502  11.921
54992W        W21533  37.931   4.446   0.790
54993W        W21534  29.945  44.996  13.981
54994W        W21535   1.441   0.941  13.893
54995W        W21536  27.075  29.433  10.593
54996W        W21537  43.426  15.365  13.604
54997W        W21538  10.133   2.488  13.906
54998W        W21539   6.217  20.669   4.861
54999W        W21540  28.126  23.776  10.330
55000W        W21541   2.185   7.658   4.377
55001W        W21542  34.017  41.972   2.884
55002W        W21543  22.593  16.882   2.786
55003W        W21544  38.258   0.215   1.889
55004W        W21545  38.588  10.704   4.213
55005W        W21546   3.307   7.607   2.687
55006W        W21547  27.543   8.525   1.257
55007W        W21548   4.165  40.589   1.827
55008W        W21549  20.374  15.069  12.716
55009W        W21550  41.580   6.054   1.207
55010W        W21551  29.504  41.341  12.407
55011W        W21552  14.572  16.997  11.635
55012W        W21553  25.979  22.795   0.896
55013W        W21554  12.341  24.629  14.787
55014W        W21555  39.351  18.302   4.180
55015W        W21556  27.770   2.642  11.081
55016W        W21557  15.845  19.275   0.452
55017W        W21558  18.951  24.205  10.757
55018W        W21559  44.074  31.915  14.991
55019W        W21560  10.653  29.120   2.887
55020W        W21561   2.204  14.640   1.927
55021W        W21562   1.481  37.128   1.919
55022W        W21563   8.512  23.858   5.292
55023W        W21564   2.321  30.753  14.409
55024W        W21565  16.795  36.326   3.187
55025W        W21566  25.190  24.098  12.447
55026W        W21567  30.988  44.696  10.758
55027W        W21568   3.607  25.592   1.784
55028W        W21569  21.263   6.766  13.907
55029W        W21570  29.883  36.430   3.037
55030W        W21571  33.319  14.357  13.792
55031W        W21572   2.479  37.383   0.048
55032W        W21573  42.286  30.108  14.766
55033W        W21574  42.787  18.063   2.685
55034W        W21575  16.761  35.572  11.141
55035W        W21576  10.366  43.758   1.872
55036W        W21577  37.430  39.325  14.824
55037W        W21578  19.261  37.939  11.520
55038W        W21579   7.201  20.701   0.572
55039W        W21580  14.791  13.691   0.510
55040W        W21581  23.249   7.226   4.934
55041W        W21582  38.538  31.160  11.679
55042W        W21583   7.774   5.559   1.879
55043W        W21584  18.654  23.203  10.516
55044W        W21585   6.880  11.896   2.737
55045W        W21586  37.935  38.569  11.135
55046W        W21587  35.323  28.752  14.228
55047W        W21588  31.903  34.849   0.211
55048W        W21589   9.621  43.596  14.813
55049W        W21590   9.375  43.524   1.371
55050W        W21591  22.769  10.711   1.275
55051W        W21592   7.916   8.418  10.931
55052W        W21593  35.631  38.414  11.538
55053W        W21594  34.424  33.906   0.848
55054W        W21595  14.243  25.515   4.493
55055W        W21596  32.867  43.683  11.075
55056W        W21597  37.632   2.125  10.311
55057W        W21598  16.723  33.604  13.917
55058W        W21599  17.761  22.044  12.386
55059W        W21600  16.224  25.137  10.725
55060W        W21601   1.343  22.210  12.306
55061W        W21602  36.968   2.842  10.711
55062W        W21603   5.173   6.628  12.360
55063W        W21604  39.984  30.923   3.396
55064W        W21605   3.793   9.853   3.120
55065W        W21606   5.797   7.702   0.199
55066W        W21607   6.144  22.828   2.318
55067W        W21608  24.565  10.222   3.223
55068W        W21609  17.561   1.888   2.313
55069W        W21610  15.205   4.285  10.654
55070W        W21611  23.276  41.441   2.335
55071W        W21612  36.951  10.448   4.172
55072W        W21613  43.885   0.900   3.928
55073W        W21614   7.347  23.065  10.514
55074W        W21615  42.693  36.214  12.852
55075W        W21616  35.436   8.406   3.283
55076W        W21617  41.580  13.214  13.482
55077W        W21618  27.409  40.542  14.927
55078W        W21619  39.740  10.653  11.417
55079W        W21620  35.128  21.002  13.070
55080W        W21621  12.729  18.605  11.671
55081W        W21622  42.504  32.747  11.922
55082W        W21623  19.026  40.870   4.194
55083W        W21624  13.360  16.693  11.630
55084W        W21625  40.353  38.405   0.778
55085W        W21626  16.632   3.544  12.377
55086W        W21627  41.915  30.092  12.525
55087W        W21628  26.590  29.574  10.453
55088W        W21629  25.436  32.385   0.096
55089W        W21630  33.951  42.025   0.423
55090W        W21631   0.389  15.314  10.657
55091W        W21632  19.475  37.431  13.385
55092W        W21633  26.084  34.895   1.444
55093W        W21634  44.476  10.919  14.017
55094W        W21635  11.175  41.561  14.835
55095W        W21636  38.802   2.322  11.279
55096W        W21637   6.749  10.185  11.425
55097W        W21638   4.177  36.085  13.409
55098W        W21639  35.079  44.995   1.008
55099W        W21640  27.737  44.762   1.810
55100W        W21641  31.352  37.369   3.513
55101W        W21642  15.737  31.323   3.658
55102W        W21643  17.269  11.341   4.687
55103W        W21644  43.465   3.375  14.688
55104W        W21645  21.026   8.661   3.204
55105W        W21646  36.585  28.083  12.848
55106W        W21647  25.071  26.298  12.486
55107W        W21648  11.631  31.034   0.932
55108W        W21649  27.105  17.525   4.799
55109W        W21650  29.590   3.841   2.845
55110W        W21651  40.972  11.915   1.735
55111W        W21652   2.320  27.936  11.223
55112W        W21653  19.471  24.634   2.693
55113W        W21654  40.487   1.189   4.311
55114W        W21655   1.863  38.299  13.915
55115W        W21656   7.639  20.101   2.486
55116W        W21657  35.805  31.005  11.987
55117W        W21658  35.438  42.004   2.408
55118W        W21659   1.164   6.603  12.222
55119W        W21660  32.705  42.564   4.333
55120W        W21661   5.869  30.680   0.869
55121W        W21662   0.473  31.594   3.134
55122W        W21663   3.636  25.645  11.778
55123W        W21664  40.615  21.462   4.211
55124W        W21665  40.978  33.980   2.614
55125W        W21666  21.842   1.262  11.215
55126W        W21667  31.104  14.136  14.868
55127W        W21668  42.925  31.970   3.862
55128W        W21669  39.584  21.704  12.980
55129W        W21670  11.749  32.889   2.167
55130W        W21671  11.065  39.244  10.287
55131W        W21672  16.192   8.345   1.722
55132W        W21673  31.936   0.402  10.312
55133W        W21674  41.508  43.043  13.485
55134W        W21675  30.910  33.770  14.776
55135W        W21676  21.149  37.837  12.059
55136W        W21677  11.318  40.776  12.566
55137W        W21678  32.893  25.053  11.372
55138W        W21679  22.028  29.022  13.098
55139W        W21680  43.907   9.111  10.799
55140W        W21681   9.485  22.236  12.640
55141W        W21682   0.753  28.230   4.587
55142W        W21683  32.124  14.168   2.874
55143W        W21684  25.499  21.566   3.659
55144W        W21685   8.583  19.876  13.474
55145W        W21686  23.905  40.338   4.072
55146W        W21687   5.016   0.944  10.702
55147W        W21688  33.453   5.757   3.914
55148W        W21689  31.016  44.401   2.181
55149W        W21690   0.606  13.168  13.980
55150W        W21691  38.813  17.030  10.702
55151W        W21692  26.569  28.165   0.817
55152W        W21693  36.149  33.468   2.695
55153W        W21694  19.693  21.724   2.869
55154W        W21695  26.362  23.489  13.529
55155W        W21696  37.482  44.984   4.002
55156W        W21697  18.797  28.474   2.303
55157W        W21698  29.383  22.100   2.253
55158W        W21699  22.432  11.552   2.303
55159W        W21700   2.889   5.134   4.204
55160W        W21701  14.321  36.869  14.063
55161W        W21702  33.526  10.341   0.177
55162W        W21703  20.734  37.410   4.401
55163W        W21704  25.146  13.278  13.650
55164W        W21705  11.223   9.760  14.786
55165W        W21706  29.006   2.452   0.885
55166W        W21707  31.964  36.302  11.642
55167W        W21708  32.921   3.623   5.188
55168W        W21709  12.419  20.586  11.026
55169W        W21710  39.739  14.160   0.391
55170W        W21711  36.288  15.253   2.833
55171W        W21712  14.575  38.038   4.061
55172W        W21713  23.048  15.839   4.163
55173W        W21714  15.536  23.099  11.080
55174W        W21715  15.317  32.445  11.897
55175W        W21716   9.915  37.293  13.836
55176W        W21717  11.394  14.089  12.086
55177W        W21718   3.219  27.678  14.824
55178W        W21719   6.658  19.366  12.877
55179W        W21720  42.659  26.140  11.337
55180W        W21721   2.307  37.914   4.335
55181W        W21722  14.215  41.489   4.204
55182W        W21723  34.912  25.984  12.430
55183W        W21724  24.785  12.780  12.688
55184W        W21725   9.771  21.129  13.549
55185W        W21726  18.590   6.889   4.827
55186W        W21727  41.937  26.786  12.227
55187W        W21728   2.024  44.032  13.957
55188W        W21729  41.998  20.339  11.602
55189W        W21730  12.873  11.662  14.966
55190W        W21731   8.882  30.153   0.501
55191W        W21732  12.066  44.423   1.343
55192W        W21733  27.414  36.886   1.017
55193W        W21734  32.058  30.988  10.756
55194W        W21735   1.997  29.440  12.416
55195W        W21736   2.048  23.219   4.103
55196W        W21737   3.633  31.106  13.091
55197W        W21738   6.330  37.698  14.462
55198W        W21739  17.320  12.218  13.035
55199W        W21740  23.930  37.337   3.076
55200W        W21741   5.643  19.094  12.045
55201W        W21742  20.562  25.574   0.039
55202W        W21743   0.862  31.442  14.770
55203W        W21744  31.829  15.269  12.107
55204W        W21745  36.572   2.868   1.000
55205W        W21746  11.691  21.016   3.663
55206W        W21747   1.448  32.788  11.918
55207W        W21748  23.494  20.003   0.929
55208W        W21749  11.059  34.124  14.975
55209W        W21750  23.499  36.825   1.309
55210W        W21751  21.162  15.620  12.429
55211W        W21752  38.583  32.039  14.327
55212W        W21753   4.692  29.557   3.755
55213W        W21754  36.323  35.552  14.428
55214W        W21755  30.504  28.916   3.555
55215W        W21756  15.086  18.122  13.516
55216W        W21757  29.557  40.461  13.375
55217W        W21758   9.506  42.705   1.705
55218W        W21759  37.432  16.336   4.807
55219W        W21760   0.950  14.290   2.301
55220W        W21761  43.212  42.999   1.833
55221W        W21762   8.460   3.928   1.286
55222W        W21763  19.511  30.248   2.159
55223W        W21764   1.280  30.002  12.452
55224W        W21765  24.014   2.549   0.964
55225W        W21766  37.922  17.773   2.417
55226W        W21767  44.892  27.746   3.337
55227W        W21768   5.408  15.763  10.575
55228W        W21769  27.049  37.116   4.862
55229W        W21770  33.053  34.918   4.236
55230W        W21771  30.924  14.765   4.520
55231W        W21772   6.546  35.967  11.988
55232W        W21773  40.124  20.730   0.915
55233W        W21774  19.013  21.254   0.462
55234W        W21775  15.879  34.573   0.300
55235W        W21776  40.422  31.969  14.972
55236W        W21777   3.178  30.567  10.613
55237W        W21778  33.434   8.196   4.505
55238W        W21779   3.536  18.007  13.447
55239W        W21780  12.136  14.771   1.283
55240W        W21781  13.862  30.293   5.356
55241W        W21782   1.546  24.961   1.139
55242W        W21783  25.162  35.899   1.725
55243W        W21784  12.127  31.322   3.685
55244W        W21785  42.961   6.982  12.080
55245W        W21786  36.054  25.699  14.907
55246W        W21787  44.931  22.999  11.165
55247W        W21788  18.589   1.600  14.336
55248W        W21789  42.401   9.438   4.880
55249W        W21790  11.152   4.231   3.331
55250W        W21791  27.524  23.529  13.942
55251W        W21792  44.625   0.493  12.470
55252W        W21793  43.441   6.424  11.096
55253W        W21794  43.678  11.475   4.082
55254W        W21795  15.219  23.131   0.910
55255W        W21796  42.941  20.264   1.389
55256W        W21797  32.095  21.485   2.304
55257W        W21798  29.062  33.321   4.860
55258W        W21799  30.594   0.181  11.010
55259W        W21800   3.526  34.585   0.502
55260W        W21801  17.209  32.064   5.186
55261W        W21802  43.547  37.278  11.519
55262W        W21803  13.903  26.582   1.153
55263W        W21804  32.613   6.251  12.129
55264W        W21805  43.672  37.883  12.347
55265W        W21806   0.844  12.707  10.805
55266W        W21807  11.301  34.102  11.206
55267W        W21808  21.615  17.005  11.420
55268W        W21809   0.446  30.168   3.066
55269W        W21810  17.014  23.622  13.945
55270W        W21811  27.514   1.729  14.952
55271W        W21812  14.636  43.885   0.869
55272W        W21813  39.848   5.853  11.805
55273W        W21814  31.668  29.877  14.958
55274W        W21815  23.452  34.967   2.375
55275W        W21816   4.972   7.719   3.656
55276W        W21817  30.373  33.125  12.921
55277W        W21818  20.539  31.890   2.661
55278W        W21819  28.767  32.657   3.687
55279W        W21820  38.906  39.915  10.436
55280W        W21821  16.122  26.234   1.433
55281W        W21822   6.905  19.269  13.329
55282W        W21823  30.271  14.714   3.725
55283W        W21824  16.569  38.297   1.857
55284W        W21825  37.500  15.321   4.597
55285W        W21826  20.988  28.769   1.307
55286W        W21827  40.380  13.536   3.584
55287W        W21828  11.279   6.859   3.457
55288W        W21829  42.280  12.249  13.919
55289W        W21830  13.990  40.061   3.676
55290W        W21831  40.183  21.963   1.268
55291W        W21832  24.232  10.705  12.538
55292W        W21833  30.270  13.720   0.309
55293W        W21834  20.529  21.138   2.209
55294W        W21835  22.919   3.866   0.526
55295W        W21836   5.174  37.049   0.948
55296W        W21837  10.343  12.615   2.850
55297W        W21838  40.906   7.703   1.434
55298W        W21839  28.159  43.209   4.172
55299W        W21840  31.174  13.712   1.678
55300W        W21841  28.998  43.505  12.131
55301W        W21842  29.055  12.701  14.666
55302W        W21843  44.090  44.978   4.668
55303W        W21844  14.296   9.815   2.270
55304W        W21845  10.255  10.372   2.451
55305W        W21846  25.756  23.029   3.792
55306W        W21847   9.753   8.778   0.381
55307W        W21848  19.039  41.499   2.283
55308W        W21849  29.808  15.167  12.280
55309W        W21850  17.442   2.698   2.789
55310W        W21851   2.935  19.178  10.654
55311W        W21852  36.181  17.576   3.129
55312W        W21853  14.605  29.737   5.496
55313W        W21854  26.195   8.982   2.847
55314W        W21855  41.317  27.713  12.438
55315W        W21856  44.086   2.233  14.299
55316W        W21857  27.420   2.793  14.782
55317W        W21858  13.807   2.700  12.068
55318W        W21859  19.593  41.188   0.560
55319W        W21860  17.562  17.820  14.515
55320W        W21861  35.016   9.911  11.193
55321W        W21862  33.674  33.982   0.229
55322W        W21863  15.320  15.754  10.557
55323W        W21864  13.269  41.863   4.767
55324W        W21865  28.749  11.341  11.679
55325W        W21866  36.403  32.611   3.450
55326W        W21867  13.684  21.556   3.801
55327W        W21868   4.434  35.193   3.770
55328W        W21869  20.225   3.893   2.191
55329W        W21870  13.725  33.939  11.606
55330W        W21871   6.690  40.007  14.467
55331W        W21872  42.390  33.697   0.239
55332W        W21873  17.226  34.314   2.184
55333W        W21874   6.369   8.077  14.440
55334W        W21875  18.609   3.221   4.089
55335W        W21876  42.778  31.619  12.831
55336W        W21877  14.119  25.688  10.650
55337W        W21878  35.066  27.563   0.499
55338W        W21879   8.263  37.858   4.068
55339W        W21880  42.934   9.786   4.259
55340W        W21881  24.164  16.793  12.485
55341W        W21882  14.061  26.611  12.656
55342W        W21883  12.212  30.684  14.317
55343W        W21884  28.826  18.171  12.494
55344W        W21885   5.946   1.043  14.426
55345W        W21886  39.228  17.853   4.396
55346W        W21887  32.396  44.951   2.287
55347W        W21888  29.620  18.744   3.083
55348W        W21889  29.213  41.584  12.072
55349W        W21890  31.465  32.363  14.183
55350W        W21891  34.858  38.936  14.073
55351W        W21892   3.850  43.936  14.891
55352W        W21893  38.494   6.753  13.641
55353W        W21894   6.892  25.727  10.816
55354W        W21895  17.264  12.355   1.028
55355W        W21896  41.772  39.513   1.445
55356W        W21897  19.096  42.464  10.568
55357W        W21898   0.254  19.045   0.438
55358W        W21899  42.991  23.714  10.627
55359W        W21900  10.876  12.733   1.900
55360W        W21901  28.738  33.030   4.083
55361W        W21902  19.568  30.646  13.482
55362W        W21903  22.563  28.708  14.821
55363W        W21904  31.725  43.832  11.988
55364W        W21905  38.686  10.286   3.094
55365W        W21906  11.769  31.438  10.726
55366W        W21907   5.373   7.968   0.338
55367W        W21908  16.476  16.785  13.436
55368W        W21909   2.432   0.831   3.249
55369W        W21910   0.383  21.777   1.239
55370W        W21911   4.321   0.573   2.271
55371W        W21912  30.015   8.925   3.303
55372W        W21913  18.827  41.041  11.640
55373W        W21914  36.833  35.623  14.392
55374W        W21915  39.901  12.169   1.270
55375W        W21916  36.071  36.164  13.433
55376W        W21917   9.864  40.971   3.687
55377W        W21918  33.835  31.678   4.137
55378W        W21919   8.740  39.805   0.787
55379W        W21920  17.401   8.398   4.912
55380W        W21921  14.326  19.819  14.727
55381W        W21922   2.488  16.801  14.745
55382W        W21923  29.120  36.623  14.314
55383W        W21924  24.067  38.434   2.247
55384W        W21925  28.760   4.717  13.522
55385W        W21926  22.660   9.854   1.186
55386W        W21927  15.476  32.201   4.892
55387W        W21928   7.517  31.573  12.450
55388W        W21929  44.488  43.007   2.066
55389W        W21930  18.490  13.157  12.387
55390W        W21931  10.551  35.013  13.073
55391W        W21932  34.150  33.449   1.803
55392W        W21933  34.345   3.353   1.664
55393W        W21934  29.655  13.015  12.012
55394W        W21935  14.181  23.258  10.675
55395W        W21936  29.392  24.232  12.052
55396W        W21937   4.699  27.892  11.980
55397W        W21938  37.109  14.901   3.829
55398W        W21939  24.978  16.062   1.138
55399W        W21940   7.682  36.265   1.082
55400W        W21941  27.687  28.279   1.874
55401W        W21942  18.375  35.354  13.824
55402W        W21943  24.518   0.471   4.557
55403W        W21944  39.862  26.799   0.065
55404W        W21945  39.880  30.126   1.320
55405W        W21946  37.563  44.833  11.120
55406W        W21947  38.104  37.143   1.332
55407W        W21948  27.078  34.887  13.882
55408W        W21949  29.430   4.674   3.160
55409W        W21950  32.404  18.116   1.488
55410W        W21951  16.350  34.376   0.446
55411W        W21952  37.315  29.587  14.275
55412W        W21953  39.747  40.406   3.261
55413W        W21954  35.084   9.437   2.763
55414W        W21955   9.938  32.141   5.005
55415W        W21956  41.830  21.333  14.405
55416W        W21957  21.558  34.202   4.315
55417W        W21958  36.770   3.755  12.950
55418W        W21959  41.224  17.390  11.005
55419W        W21960  40.910  15.817  12.139
55420W        W21961   1.119  19.061  13.774
55421W        W21962  16.112  41.261  11.090
55422W        W21963  38.640  25.639   4.960
55423W        W21964  21.163  29.254   1.552
55424W        W21965   3.511   7.730   3.583
55425W        W21966  23.185  11.100  11.060
55426W        W21967  36.975  11.282   0.250
55427W        W21968  22.640  37.343   3.241
55428W        W21969  26.050   4.345   0.753
55429W        W21970   5.721  19.878  12.767
55430W        W21971   7.131  27.420  14.419
55431W        W21972   5.682  21.309   1.445
55432W        W21973   2.851  12.699   2.222
55433W        W21974  43.283   8.598  11.244
55434W        W21975   5.174  42.892   0.923
55435W        W21976  30.500  15.792  13.739
55436W        W21977   0.807  40.615  13.904
55437W        W21978  44.262  13.837  14.817
55438W        W21979   1.782  13.161  10.778
55439W        W21980   5.345  41.772  11.145
55440W        W21981  27.245   1.646  12.503
55441W        W21982  27.593   5.885   1.791
55442W        W21983  31.603  34.907  12.775
55443W        W21984  11.771  37.816   0.006
55444W        W21985  11.630  14.573  12.066
55445W        W21986   2.574  24.685   2.668
55446W        W21987   2.209   7.188   2.194
55447W        W21988  30.659  17.886  14.356
55448W        W21989  20.115  29.031   0.013
55449W        W21990  19.603  34.317   1.449
55450W        W21991  12.744  42.939   0.721
55451W        W21992  39.962   0.474   0.915
55452W        W21993   9.998  17.023   2.332
55453W        W21994  42.305  42.865   0.022
55454W        W21995  25.789  40.325  12.206
55455W        W21996  13.529   1.322  12.691
55456W        W21997  44.761  35.818  10.549
55457W        W21998  18.339   3.185  11.162
55458W        W21999  29.243   1.269  12.371
55459W        W22000  35.832   9.790  13.817
55460W        W22001  44.297  13.172   3.078
55461W        W22002  37.527  11.200   0.541
55462W        W22003  19.010  28.253  11.651
55463W        W22004  35.985  32.344   3.685
55464W        W22005  16.529  29.919  11.192
55465W        W22006  39.374   5.365  12.660
55466W        W22007  15.685   9.191  14.811
55467W        W22008  23.508   0.017   2.088
55468W        W22009   8.525   7.829  14.447
55469W        W22010  43.138   6.945   4.202
55470W        W22011  30.523   0.706  10.964
55471W        W22012  10.386  43.260  14.500
55472W        W22013   0.244  44.748  11.047
55473W        W22014  43.076  40.043  12.850
55474W        W22015  11.584  37.814   0.496
55475W        W22016   0.235  33.889  13.536
55476W        W22017  18.344   9.679  12.582
55477W        W22018  20.081  18.288   2.386
55478W        W22019  18.010  37.891  13.337
55479W        W22020   8.904   5.071   3.711
55480W        W22021  31.491  29.571  13.535
55481W        W22022   0.215  28.628  11.611
55482W        W22023  30.033  23.470   2.228
55483W        W22024  28.737  13.246   4.858
55484W        W22025  28.512   2.031   4.814
55485W        W22026  25.706  17.125  11.043
55486W        W22027  16.572   7.410  14.113
55487W        W22028  20.245  44.489  12.832
55488W        W22029  42.597   8.349   3.912
55489W        W22030  33.377  19.239  13.350
55490W        W22031   4.934  41.505  11.381
55491W        W22032  28.663  16.142   0.195
55492W        W22033  14.595  44.371  13.502
55493W        W22034  30.911  13.176   0.038
55494W        W22035  14.500  10.912  13.262
55495W        W22036  27.061   3.262  10.686
55496W        W22037  35.179  28.247   3.187
55497W        W22038  32.669  38.410   2.272
55498W        W22039  42.574  23.490   1.415
55499W        W22040   4.837  20.110  10.658
55500W        W22041   9.837  21.412  13.123
55501W        W22042  42.094  27.028   0.424
55502W        W22043  19.374  31.953  14.008
55503W        W22044  13.815  44.778  14.102
55504W        W22045  28.461  41.676  10.840
55505W        W22046  44.548  15.272  11.641
55506W        W22047  42.800  44.901  10.676
55507W        W22048  28.599  43.337   3.605
55508W        W22049  12.635  39.035   4.541
55509W        W22050  13.088  25.672  10.603
55510W        W22051  27.088  31.228   4.480
55511W        W22052  27.603   5.941   0.888
55512W        W22053  40.269  23.436   5.240
55513W        W22054  27.701  33.441  11.476
55514W        W22055  41.220  23.074  14.506
55515W        W22056  23.244  15.232   1.316
55516W        W22057  21.438   4.990  13.029
55517W        W22058  35.975  13.308  13.410
55518W        W22059  16.257  38.854   0.324
55519W        W22060  37.432  20.542   2.428
55520W        W22061  22.310  36.747   2.722
55521W        W22062  38.305  18.347  13.970
55522W        W22063  37.563  33.100  12.037
55523W        W22064   1.432   3.609   2.789
55524W        W22065  10.150  16.360   4.070
55525W        W22066   2.321   0.405  11.964
55526W        W22067  38.059   0.642   3.978
55527W        W22068  31.905   6.351   4.646
55528W        W22069  31.337  36.542  12.388
55529W        W22070  44.781  34.232   0.809
55530W        W22071  25.772  10.362  14.403
55531W        W22072  15.674  41.506  11.096
55532W        W22073  43.392  12.821   3.652
55533W        W22074  40.428   6.864  11.261
55534W        W22075  17.224  26.434  11.450
55535W        W22076   6.004  20.091   2.931
55536W        W22077  23.686   6.003   2.864
55537W        W22078  10.298  44.891  14.819
55538W        W22079  44.268  33.587   4.197
55539W        W22080   7.875  11.339   2.592
55540W        W22081   2.316   7.678   1.729
55541W        W22082  37.397  10.939  13.506
55542W        W22083  16.065  30.475  12.382
55543W        W22084   8.982   0.070  10.805
55544W        W22085  42.927  15.554  12.868
55545W        W22086  23.905  37.193  11.918
55546W        W22087  34.325  38.169   0.285
55547W        W22088  15.830  29.962  14.958
55548W        W22089   6.837   3.240   1.371
55549W        W22090  13.633  35.836  10.805
55550W        W22091  30.070   7.243   0.349
55551W        W22092  14.753  13.639  14.886
55552W        W22093  11.674  30.003  11.741
55553W        W22094  37.485  13.699   1.230
55554W        W22095  37.904  29.500   2.828
55555W        W22096  11.000  38.590  11.540
55556W        W22097  17.032  10.802   1.211
55557W        W22098  30.365  18.848   0.891
55558W        W22099   3.629  13.771   3.794
55559W        W22100  27.189  14.866  11.711
55560W        W22101  40.281  21.840   4.015
55561W        W22102  42.270  37.864  10.829
55562W        W22103  25.989  24.592  12.903
55563W        W22104   6.167  37.137   0.772
55564W        W22105  39.580   9.723   4.976
55565W        W22106  27.047   7.612  14.277
55566W        W22107  27.445  15.785  10.966
55567W        W22108   1.902   5.286   1.640
55568W        W22109  31.401  11.854  13.464
55569W        W22110  25.521  22.279  14.400
55570W        W22111  32.468  19.974  13.301
55571W        W22112  14.819  42.183  13.983
55572W        W22113  28.360  29.064  11.169
55573W        W22114  44.033  22.575  12.028
55574W        W22115  22.371  22.790  11.175
55575W        W22116  40.871  22.056  13.860
55576W        W22117   3.599  26.779   3.321
55577W        W22118  30.197  41.258  11.940
55578W        W22119  33.244  18.960  10.199
55579W        W22120  20.300  19.182  10.257
55580W        W22121  42.465   7.971   2.502
55581W        W22122  23.642  11.103  11.261
55582W        W22123  35.725  30.040  12.508
55583W        W22124  37.018  19.552   0.438
55584W        W22125  24.164  12.606   0.449
55585W        W22126  12.066  14.665   3.468
55586W        W22127  11.187  17.838   3.619
55587W        W22128  34.419  43.445  13.642
55588W        W22129   1.008  29.107   3.553
55589W        W22130  24.289  11.106   4.727
55590W        W22131   7.811  20.723  11.537
55591W        W22132   6.739   1.663  14.783
55592W        W22133  14.921  38.405   0.435
55593W        W22134   9.638  37.481   2.418
55594W        W22135  32.831  18.038  13.272
55595W        W22136  28.726   7.261   3.388
55596W        W22137  33.846  15.417   0.804
55597W        W22138   4.513  13.643   2.776
55598W        W22139  25.049   0.386  12.163
55599W        W22140   9.415   9.740   0.457
55600W        W22141   8.018  26.357   2.822
55601W        W22142  33.983   8.616   1.694
55602W        W22143   9.915   0.451  10.422
55603W        W22144  27.258   0.385  12.925
55604W        W22145  22.537  44.434  10.708
55605W        W22146   1.905  21.407   1.831
55606W        W22147  24.516  12.171  12.514
55607W        W22148  18.412  11.727   2.621
55608W        W22149  38.232  37.533  11.682
55609W        W22150  17.875  31.874   0.913
55610W        W22151  44.291  33.380  10.652
55611W        W22152  36.047   3.027  13.796
55612W        W22153  26.009   3.527   3.658
55613W        W22154  28.863  38.475  11.190
55614W        W22155  31.951  29.458  10.732
55615W        W22156  17.196  36.424   4.131
55616W        W22157   3.926   3.004   3.184
55617W        W22158  17.794  44.983   0.354
55618W        W22159  14.712  30.211  11.119
55619W        W22160   3.354  32.464  11.988
55620W        W22161  32.451  36.153  11.628
55621W        W22162  38.270  27.192  14.035
55622W        W22163   5.370  11.617  14.975
55623W        W22164  29.228  24.258  10.685
55624W        W22165  31.020  35.355  13.244
55625W        W22166  14.069  41.558  12.249
55626W        W22167   6.826   7.771   3.088
55627W        W22168  32.486  10.448  12.554
55628W        W22169  18.633  20.686  12.494
55629W        W22170  22.231  23.764   1.296
55630W        W22171  28.033  37.910   2.451
55631W        W22172   8.183  23.163   2.491
55632W        W22173  27.914  35.533   1.871
55633W        W22174   4.360  27.155  11.206
55634W        W22175  15.023  35.454  12.411
55635W        W22176  44.718  43.943   2.390
55636W        W22177  43.094  29.428   0.622
55637W        W22178  12.563  12.676  14.247
55638W        W22179   0.704  25.742  11.204
55639W        W22180  32.395  22.255   3.891
55640W        W22181  19.229  37.396  11.572
55641W        W22182  27.428  35.187  12.102
55642W        W22183  25.108  13.225  14.178
55643W        W22184  20.483  12.598  11.617
55644W        W22185   6.838  36.981   0.273
55645W        W22186  36.895  41.328  14.504
55646W        W22187  31.922  12.706  12.525
55647W        W22188  18.135   6.517   3.613
55648W        W22189  42.510  22.512  12.465
55649W        W22190  10.653  41.896   2.745
55650W        W22191  26.945   0.490   0.518
55651W        W22192  10.388  27.063   0.908
55652W        W22193   6.522  10.101   3.153
55653W        W22194  29.545   9.186   3.181
55654W        W22195   9.389  23.295   1.839
55655W        W22196  28.369  21.644   0.410
55656W        W22197  37.840  14.204   9.964
55657W        W22198  31.393  10.369  14.878
55658W        W22199  18.242  32.482  10.123
55659W        W22200  23.249  23.046  11.158
55660W        W22201  29.225  37.411  13.793
55661W        W22202   8.352  42.080   3.675
55662W        W22203   6.784  37.551  13.677
55663W        W22204  24.127  10.593   1.194
55664W        W22205  28.182  32.909   3.246
55665W        W22206  42.343   8.894  11.722
55666W        W22207  17.270  36.136  13.830
55667W        W22208  17.521  15.906   4.216
55668W        W22209  19.827  16.030   4.194
55669W        W22210   7.871  35.361  12.951
55670W        W22211  18.270  28.191   0.747
55671W        W22212  28.445  43.817   0.137
55672W        W22213  42.029  38.537   1.763
55673W        W22214  33.471  34.065  11.139
55674W        W22215  34.601  27.588  13.383
55675W        W22216   2.334   3.820   0.809
55676W        W22217  26.704  34.431  13.945
55677W        W22218  44.570  28.122   3.561
55678W        W22219  12.283   6.724   4.625
55679W        W22220  34.326   7.988   4.619
55680W        W22221  28.040   8.928  14.898
55681W        W22222  24.491  20.640  14.244
55682W        W22223  44.933  37.610  14.943
55683W        W22224  21.331   3.200   2.268
55684W        W22225  24.465  32.178   4.325
55685W        W22226  17.005   2.203  10.743
55686W        W22227  25.028   6.418   0.772
55687W        W22228   9.161  26.980   1.235
55688W        W22229  32.064  31.190  12.066
55689W        W22230  27.015  31.401  13.443
55690W        W22231  38.081  37.122   0.124
55691W        W22232  41.929  24.297   4.964
55692W        W22233  34.624   9.581  11.066
55693W        W22234  29.073  43.990  13.754
55694W        W22235  27.102  25.039   2.982
55695W        W22236   6.004   5.713   5.025
55696W        W22237  19.564  40.130  10.776
55697W        W22238   2.152  12.786   2.756
55698W        W22239   9.066   3.869  14.345
55699W        W22240  18.038  35.055   1.723
55700W        W22241   7.228   4.184   0.831
55701W        W22242   2.513   6.320  11.051
55702W        W22243  30.008  43.356   2.938
55703W        W22244  27.381  20.277  10.796
55704W        W22245   4.267  36.885   1.407
55705W        W22246  12.506  33.877  13.873
55706W        W22247  15.067  28.221  11.649
55707W        W22248  36.834  34.932   3.890
55708W        W22249   0.252  43.870   2.420
55709W        W22250  31.911  21.591  11.109
55710W        W22251  17.455   0.676   1.597
55711W        W22252   0.299  27.450  13.920
55712W        W22253  40.425  13.168   2.523
55713W        W22254  18.320  12.516  11.861
55714W        W22255  14.879  24.089   2.478
55715W        W22256  35.346  41.583  10.490
55716W        W22257  33.875  28.928   2.112
55717W        W22258   3.426   9.817  12.981
55718W        W22259  10.827  42.395  12.956
55719W        W22260  27.025  43.825   0.821
55720W        W22261  11.697  14.426   0.472
55721W        W22262  21.204  33.403  11.585
55722W        W22263  44.834  23.381   4.094
55723W        W22264   2.261  11.147  10.235
55724W        W22265  20.067  36.800  11.008
55725W        W22266  35.879  20.342   0.983
55726W        W22267   8.680  40.884   5.575
55727W        W22268   8.771  30.672  14.644
55728W        W22269  34.043  38.999  11.236
55729W        W22270   5.767  12.717  14.949
55730W        W22271  18.664   0.714  12.424
55731W        W22272   7.261  11.107  11.124
55732W        W22273  34.000  25.096   2.340
55733W        W22274  35.533  34.609  10.640
55734W        W22275  44.661  35.124   0.950
55735W        W22276   2.572  33.041   3.692
55736W        W22277   7.774  37.493   4.924
55737W        W22278  16.595  29.553   3.717
55738W        W22279   8.102  33.499  10.769
55739W        W22280  37.273  28.014   4.565
55740W        W22281  15.296  19.745   1.469
55741W        W22282  21.720  35.468  12.067
55742W        W22283  27.499  28.269   4.245
55743W        W22284  16.945  29.998   4.606
55744W        W22285  25.611  12.018   0.239
55745W        W22286  21.567  16.500   1.109
55746W        W22287  17.575   5.229  10.709
55747W        W22288  25.273  34.452  11.453
55748W        W22289  35.848   3.311  14.825
55749W        W22290   7.205  20.588   4.807
55750W        W22291  23.027  11.395   4.767
55751W        W22292  17.111  32.441   0.550
55752W        W22293   0.450   7.926  10.939
55753W        W22294  11.114   1.917  12.370
55754W        W22295   4.457   8.944  14.856
55755W        W22296  29.080  20.574   3.716
55756W        W22297  37.326  33.604  14.875
55757W        W22298  32.395  22.275  14.500
55758W        W22299   4.971   3.308  12.189
55759W        W22300  17.822  10.271  12.392
55760W        W22301  26.451   9.437   2.854
55761W        W22302  43.910  14.923   4.081
55762W        W22303  19.730  23.301  14.013
55763W        W22304   3.439  13.344  13.435
55764W        W22305  19.668   5.382   3.442
55765W        W22306  20.075  42.527  10.850
55766W        W22307   7.117  27.891   1.305
55767W        W22308  30.435  11.857   2.272
55768W        W22309  26.562  22.403  10.686
55769W        W22310  28.692   2.388   4.462
55770W        W22311   4.414  26.717  10.933
55771W        W22312  44.072  27.887   2.762
55772W        W22313   3.624   0.136   3.956
55773W        W22314   0.328  26.725  13.396
55774W        W22315  35.531  20.731  13.313
55775W        W22316  42.019  30.297   4.499
55776W        W22317  37.532  16.737   3.531
55777W        W22318   4.288  18.974   1.391
55778W        W22319  17.292   0.316   1.237
55779W        W22320  11.862  26.403   2.738
55780W        W22321  35.988  37.980   1.674
55781W        W22322  27.104  29.498  11.153
55782W        W22323  21.993  20.656  12.315
55783W        W22324  29.883  44.330   9.762
55784W        W22325  32.397   9.963  14.901
55785W        W22326  24.720  34.574   1.296
55786W        W22327  33.622  14.651  11.202
55787W        W22328  43.496  29.113  11.638
55788W        W22329  33.361  18.787  14.382
55789W        W22330  30.931  23.246   0.270
55790W        W22331   8.185  15.537   2.732
55791W        W22332  19.266  25.645  11.881
55792W        W22333  44.323  18.029  10.624
55793W        W22334  12.088  12.256  12.981
55794W        W22335  42.148  31.336   1.416
55795W        W22336   8.277  43.936  14.297
55796W        W22337  10.711  12.181   2.799
55797W        W22338  16.164  43.542  12.348
55798W        W22339  43.753   6.317  13.143
55799W        W22340   7.609  21.172   4.294
55800W        W22341  41.859  15.731   4.563
55801W        W22342   5.741  35.052  13.414
55802W        W22343  21.045  15.068   3.391
55803W        W22344  24.089  18.270   4.936
55804W        W22345   2.486  37.178   2.106
55805W        W22346   6.709  10.213   0.765
55806W        W22347  24.240  42.370  13.195
55807W        W22348  33.556  16.676  12.105
55808W        W22349  17.590  28.588  12.825
55809W        W22350   3.839  33.312   3.707
55810W        W22351  14.302  37.596   1.250
55811W        W22352   2.807  30.369  13.016
55812W        W22353  36.039  21.234   0.990
55813W        W22354  12.118   3.815  14.389
55814W        W22355   3.309  22.428   2.208
55815W        W22356  22.125   2.281  12.024
55816W        W22357  26.054  28.137  10.658
55817W        W22358  35.628  25.361   1.872
55818W        W22359  13.692  44.879  10.739
55819W        W22360   2.999  12.898   3.427
55820W        W22361   6.117  21.030   1.322
55821W        W22362   3.799   7.135   4.957
55822W        W22363   4.524  27.940  13.229
55823W        W22364  21.750   9.200   4.744
55824W        W22365   0.296  21.257  10.180
55825W        W22366  42.541   0.398  12.689
55826W        W22367   8.969  33.073   3.179
55827W        W22368   7.887  41.433   4.660
55828W        W22369  16.026  29.973  12.456
55829W        W22370  17.581  36.604  13.507
55830W        W22371  28.063   7.456  13.989
55831W        W22372   3.051  42.384  11.527
55832W        W22373  26.443  34.069   1.795
55833W        W22374  30.142  17.024  10.868
55834W        W22375  22.238  32.395   4.255
55835W        W22376  18.612  35.227  10.996
55836W        W22377  31.838   2.741  11.312
55837W        W22378  12.272  23.888  14.209
55838W        W22379  20.649  15.203  13.178
55839W        W22380  21.207  37.420   4.159
55840W        W22381  30.450   6.721  14.870
55841W        W22382  35.459  34.114   3.838
55842W        W22383   7.176   4.716  12.106
55843W        W22384   7.289  13.584   2.929
55844W        W22385  20.050   3.329  14.962
55845W        W22386  18.765  13.636  13.634
55846W        W22387  10.344   7.278   4.475
55847W        W22388  26.085  12.732   0.303
55848W        W22389  40.872  34.556  13.120
55849W        W22390  31.010  23.259  12.078
55850W        W22391  32.334  16.763  13.004
55851W        W22392   9.904  10.181  13.064
55852W        W22393  26.358  39.638   0.270
55853W        W22394   7.475  23.520  14.212
55854W        W22395   7.217  13.874   0.439
55855W        W22396  22.074   5.733  12.289
55856W        W22397  15.736  31.330  10.763
55857W        W22398  31.313   6.332  13.264
55858W        W22399  11.248  43.467  14.293
55859W        W22400  20.112   2.272   1.279
55860W        W22401  22.133  14.820  12.504
55861W        W22402  32.385   0.303  10.571
55862W        W22403  13.843  23.200  11.126
55863W        W22404  22.961   5.431   2.678
55864W        W22405  28.092  14.841   2.730
55865W        W22406   3.076  32.931   3.644
55866W        W22407   1.820   6.500  12.994
55867W        W22408  34.546  41.243  12.578
55868W        W22409  43.886  42.548   4.612
55869W        W22410   1.789   3.475  13.411
55870W        W22411   9.134  40.420   2.839
55871W        W22412  43.822  38.545  11.619
55872W        W22413   1.051   7.310   0.388
55873W        W22414  26.605  10.144   1.008
55874W        W22415  31.369   1.323   1.701
55875W        W22416  44.634  32.533   4.073
55876W        W22417  22.793  11.860  11.085
55877W        W22418   3.322  42.995   0.876
55878W        W22419  17.647   4.189  12.133
55879W        W22420  23.355  18.111   0.908
55880W        W22421   7.419  24.491  11.520
55881W        W22422  24.455  37.593  13.917
55882W        W22423  14.215  29.624   2.153
55883W        W22424   3.703  19.062   3.218
55884W        W22425   4.390  21.988   4.617
55885W        W22426  13.322  17.853   2.645
55886W        W22427   6.706  26.267   0.733
55887W        W22428   7.753   6.366   1.182
55888W        W22429  24.272  26.956   2.347
55889W        W22430  30.410  42.403   4.901
55890W        W22431  36.501  29.936  11.190
55891W        W22432  25.366  28.646   4.219
55892W        W22433  28.336  32.895  14.963
55893W        W22434  16.632  29.569   4.592
55894W        W22435   3.975  13.561  13.948
55895W        W22436  12.656  30.167  10.954
55896W        W22437  26.720  34.986  11.751
55897W        W22438   1.388   5.601   2.772
55898W        W22439  30.580  17.024   2.310
55899W        W22440  19.742  43.025   2.796
55900W        W22441   4.348   6.751  11.801
55901W        W22442  22.751  22.581   2.123
55902W        W22443  12.002  28.562  11.445
55903W        W22444  38.040  27.723   1.322
55904W        W22445  26.618   0.373  12.554
55905W        W22446   7.694  22.425   1.903
55906W        W22447  21.210  26.884  14.540
55907W        W22448  13.739   2.389   2.591
55908W        W22449  44.219  11.867  13.252
55909W        W22450  26.725  36.113  14.849
55910W        W22451  38.712  23.725  13.950
55911W        W22452  40.940  44.462  12.650
55912W        W22453  14.142  17.651   0.815
55913W        W22454  11.472  40.517   2.391
55914W        W22455  34.996  40.271   3.005
55915W        W22456   1.496   8.395   2.375
55916W        W22457   4.729   9.644  14.362
55917W        W22458  10.557  34.876   2.669
55918W        W22459   4.059  31.880   2.567
55919W        W22460  12.159  39.735   1.378
55920W        W22461  44.176  21.253   2.218
55921W        W22462  35.754  38.052  12.507
55922W        W22463  20.509  40.243   3.270
55923W        W22464  34.940  39.896  14.921
55924W        W22465  26.181  10.759  11.931
55925W        W22466   0.401  10.707   4.581
55926W        W22467  37.901  40.809   0.956
55927W        W22468  26.613  13.962   4.985
55928W        W22469  14.624   0.244   0.539
55929W        W22470  32.915  37.190   1.971
55930W        W22471  22.866  37.768  12.475
55931W        W22472   6.961   7.267  14.862
55932W        W22473  33.203   1.380   5.088
55933W        W22474   8.352  36.345   5.075
55934W        W22475  28.009  42.012   1.143
55935W        W22476  31.695   2.843   0.326
55936W        W22477  39.114  20.773  13.967
55937W        W22478  29.969  20.632  12.927
55938W        W22479   8.086  34.439  11.261
55939W        W22480  22.788   5.358  10.399
55940W        W22481  13.820   2.049   0.238
55941W        W22482  19.987   6.034   2.635
55942W        W22483  20.203   8.893  10.686
55943W        W22484  19.485  42.729  13.414
55944W        W22485  26.431  34.136  14.955
55945W        W22486  15.396  37.811   0.834
55946W        W22487   7.811  40.598   2.168
55947W        W22488  11.965  23.433  10.586
55948W        W22489  24.588  18.080  14.906
55949W        W22490   5.973   6.219   1.036
55950W        W22491  39.390   3.239  14.971
55951W        W22492  37.787  12.489   4.606
55952W        W22493   8.250  20.780   2.018
55953W        W22494  40.704   1.827   0.796
55954W        W22495  19.635  23.229  11.242
55955W        W22496  15.755  19.566  10.591
55956W        W22497  14.796  18.801   4.906
55957W        W22498  42.034  15.533  14.206
55958W        W22499  34.381  22.604  14.059
55959W        W22500  36.823  26.523   1.167
55960W        W22501  31.189   3.232   3.263
55961W        W22502  24.084  14.326   4.253
55962W        W22503  11.958  28.185  13.972
55963W        W22504   7.810  13.574   0.257
55964W        W22505   7.669  25.631   0.258
55965W        W22506  36.884   7.771  13.048
55966W        W22507  30.174  19.758  14.370
55967W        W22508  26.129  35.803  14.389
55968W        W22509  40.337  19.632  13.419
55969W        W22510  39.422  41.697  11.102
55970W        W22511  29.612  39.971   2.984
55971W        W22512  20.021  28.098  12.802
55972W        W22513  12.153  20.975  13.443
55973W        W22514   4.314  14.425   3.391
55974W        W22515  26.226  43.173  11.177
55975W        W22516  38.826  31.027   4.620
55976W        W22517   9.133  26.083  10.679
55977W        W22518  34.464   1.033  14.289
55978W        W22519  21.643  43.903   3.383
55979W        W22520  21.644  29.449   1.956
55980W        W22521  34.608   5.249  10.520
55981W        W22522  11.276   4.375  11.248
55982W        W22523  12.365   9.736   0.171
55983W        W22524  10.137  14.653   3.589
55984W        W22525  22.570  33.458  10.558
55985W        W22526  29.235  32.609   2.735
55986W        W22527  38.544  23.540   0.983
55987W        W22528  28.727  22.708  13.580
55988W        W22529  18.418  21.180   1.140
55989W        W22530  34.010   3.805  13.594
55990W        W22531   5.853   0.839  12.541
55991W        W22532  20.019  17.961   3.671
55992W        W22533  10.403  27.325   0.292
55993W        W22534  35.856   2.240  13.071
55994W        W22535  33.254   1.733   2.495
55995W        W22536  39.350   9.211  10.430
55996W        W22537   9.407   9.691  13.483
55997W        W22538  39.587  22.639   1.440
55998W        W22539   8.363  10.091   4.548
55999W        W22540  32.487  43.774  13.844
56000W        W22541  11.070  10.846  14.809
56001W        W22542  39.274  23.898  13.359
56002W        W22543  34.875   5.959  13.043
56003W        W22544   1.980  37.852  13.060
56004W        W22545  40.830   7.717   2.310
56005W        W22546  44.169  15.921  12.671
56006W        W22547   6.400   0.005  11.266
56007W        W22548  31.262  29.649  11.470
56008W        W22549  32.139  17.556   4.700
56009W        W22550  37.684  42.904   2.129
56010W        W22551  24.560   1.201   0.175
56011W        W22552  38.943  30.918  13.999
56012W        W22553  29.948  29.841  13.554
56013W        W22554   4.861  22.767  12.480
56014W        W22555  18.283  20.033  13.897
56015W        W22556  42.430  12.362   0.318
56016W        W22557   9.833   2.525  11.819
56017W        W22558   6.696  42.406  10.570
56018W        W22559  44.730  28.122  12.922
56019W        W22560  27.549   0.261  11.642
56020W        W22561  34.176   2.331   2.052
56021W        W22562  15.137  33.391   3.186
56022W        W22563  25.306  12.381   4.155
56023W        W22564   6.188  20.851   3.033
56024W        W22565  33.483   7.694  12.807
56025W        W22566  10.931  36.911   0.399
56026W        W22567  36.181   7.713   1.962
56027W        W22568  25.268  15.294   4.173
56028W        W22569  41.569  25.010   4.119
56029W        W22570  38.992  43.282   4.148
56030W        W22571  42.015  26.046  13.574
56031W        W22572  21.808   9.341  11.398
56032W        W22573  19.204  23.291   2.309
56033W        W22574  18.082   4.483  10.714
56034W        W22575  19.978  38.254   2.791
56035W        W22576   3.296  10.285   2.691
56036W        W22577  40.320  31.473  11.062
56037W        W22578  22.791   4.159   5.358
56038W        W22579  36.859  39.087  11.167
56039W        W22580   4.286  41.706  13.848
56040W        W22581  34.411  40.136  11.225
56041W        W22582  35.992  34.789  12.011
56042W        W22583  26.054  25.489  14.084
56043W        W22584  30.467  10.071   4.905
56044W        W22585  28.221  12.538   2.679
56045W        W22586  30.568  42.030   4.580
56046W        W22587  11.580   8.415   2.765
56047W        W22588  30.840  34.804  14.642
56048W        W22589  11.937  18.536  12.981
56049W        W22590  13.156  13.180  14.776
56050W        W22591  23.907  30.580   4.946
56051W        W22592  24.190   2.041  13.908
56052W        W22593   5.299  23.559   2.367
56053W        W22594  11.210  35.100   3.200
56054W        W22595  10.383   2.470  13.452
56055W        W22596  12.239  12.193  14.965
56056W        W22597   9.937  37.443  14.815
56057W        W22598   2.567  37.921  11.838
56058W        W22599  43.766   9.892   3.230
56059W        W22600  17.411  21.588   4.570
56060W        W22601  16.190  35.437  14.089
56061W        W22602  10.887  44.442   1.902
56062W        W22603  35.698  43.402  12.963
56063W        W22604  18.639  38.405  12.541
56064W        W22605   1.845  42.714   2.628
56065W        W22606  38.368  21.580  12.584
56066W        W22607   8.607  15.272   3.753
56067W        W22608  34.942   6.165  14.335
56068W        W22609  16.627  33.839  11.612
56069W        W22610  28.971  28.727   2.790
56070W        W22611   2.479   9.296  11.659
56071W        W22612   3.100  42.250  10.823
56072W        W22613  12.663  34.264  14.375
56073W        W22614  18.657  24.055   3.409
56074W        W22615   0.001  42.316  12.545
56075W        W22616  18.275   9.784   3.654
56076W        W22617  14.847   5.458  12.395
56077W        W22618  30.019  27.161   4.179
56078W        W22619  30.161  12.600  12.876
56079W        W22620  17.498  13.710   1.001
56080W        W22621  35.137   8.413   0.306
56081W        W22622  12.748  37.072  12.207
56082W        W22623  11.296  18.794  12.387
56083W        W22624  20.742   2.358  13.374
56084W        W22625   9.063   0.220   2.824
56085W        W22626  31.052  29.080  10.594
56086W        W22627  38.482  44.982  10.894
56087W        W22628  18.473  19.074  11.491
56088W        W22629   6.319   5.369  10.163
56089W        W22630  16.708   4.841  12.478
56090W        W22631  44.880  39.324  13.610
56091W        W22632  33.250  31.547  11.061
56092W        W22633  25.192  11.377  12.619
56093W        W22634  32.463  29.726  11.999
56094W        W22635  31.963  15.142   4.690
56095W        W22636  34.859   3.641  13.205
56096W        W22637  25.480   9.503  14.455
56097W        W22638  28.595   9.861   4.613
56098W        W22639   6.304  43.349  12.532
56099W        W22640  43.965  25.629   1.136
56100W        W22641  40.408  32.921  14.346
56101W        W22642  44.924  17.778   2.742
56102W        W22643   2.220  31.491  12.774
56103W        W22644  19.971   4.786  13.839
56104W        W22645  14.609  20.601   4.238
56105W        W22646  18.263  34.261   3.877
56106W        W22647  20.278  18.983  11.193
56107W        W22648  32.036  24.135   2.247
56108W        W22649  31.589   9.308  14.946
56109W        W22650  40.802  21.639  13.555
56110W        W22651  23.228  36.418  14.435
56111W        W22652  10.362  36.037  14.425
56112W        W22653   8.670  13.444   3.125
56113W        W22654   9.331   2.328  11.630
56114W        W22655  37.024   5.841   2.869
56115W        W22656  15.733   0.740   3.641
56116W        W22657  12.282  23.667   0.501
56117W        W22658  25.038  42.576   0.749
56118W        W22659  35.648  14.014  10.723
56119W        W22660  11.482  44.667   2.208
56120W        W22661  36.233   1.836   4.405
56121W        W22662  44.158   7.623   0.919
56122W        W22663  37.432   7.813   2.865
56123W        W22664   3.613  43.185  13.504
56124W        W22665  25.199  24.014   4.486
56125W        W22666   0.314   4.157  14.174
56126W        W22667  32.231  22.031  13.068
56127W        W22668  39.612   6.673  14.700
56128W        W22669  21.135  31.489   1.981
56129W        W22670  23.063  18.223   4.522
56130W        W22671  19.671  33.320   1.230
56131W        W22672  42.249   7.245  11.101
56132W        W22673   5.343  19.735   4.256
56133W        W22674  10.816  39.546   3.391
56134W        W22675   5.151  12.123  10.554
56135W        W22676  11.184  36.175   0.492
56136W        W22677  36.088  20.041   4.650
56137W        W22678  37.328  33.530   3.271
56138W        W22679  41.693  38.534   2.611
56139W        W22680  35.017  21.642  11.427
56140W        W22681  14.196   6.594   4.549
56141W        W22682  27.017  15.114  13.659
56142W        W22683  24.549   5.872   3.634
56143W        W22684  23.582  24.154  13.585
56144W        W22685  10.533   4.926   3.716
56145W        W22686   7.979  24.839  14.856
56146W        W22687  19.815  39.733  12.695
56147W        W22688  42.722   7.669  10.763
56148W        W22689  34.207  40.884  12.433
56149W        W22690  31.096  30.876  12.021
56150W        W22691  40.023  27.289   2.856
56151W        W22692   8.475   1.556   2.390
56152W        W22693   5.662   2.393   2.386
56153W        W22694  40.494  27.258   4.372
56154W        W22695  11.775  39.889  11.673
56155W        W22696  40.866   7.515  12.553
56156W        W22697   6.715  43.475  13.275
56157W        W22698  37.050  19.271  14.689
56158W        W22699  38.791  12.239  14.820
56159W        W22700  24.798   9.280   4.537
56160W        W22701  19.997  33.917   0.996
56161W        W22702  35.045  12.102  12.485
56162W        W22703  11.330  23.759  13.824
56163W        W22704  38.873  20.803   4.352
56164W        W22705  29.193   6.828  12.395
56165W        W22706   9.246  11.687  10.801
56166W        W22707  43.432   9.643   4.143
56167W        W22708  31.936  42.449  11.125
56168W        W22709  10.889  10.539  12.964
56169W        W22710  22.150  24.958  10.925
56170W        W22711   8.877   5.453   2.719
56171W        W22712   4.565  43.759  14.953
56172W        W22713  40.566   9.245  13.729
56173W        W22714  26.794  38.422  13.963
56174W        W22715  22.472  31.070   4.461
56175W        W22716  34.049  44.219  13.378
56176W        W22717  13.271  27.214  13.812
56177W        W22718  36.590  31.854  14.445
56178W        W22719   0.470   5.981   0.918
56179W        W22720  10.418  28.449   3.619
56180W        W22721  10.168  19.627  14.043
56181W        W22722  11.475  34.433  10.494
56182W        W22723  21.609  14.793   1.781
56183W        W22724  33.901  41.116   3.259
56184W        W22725  35.139  36.431  14.402
56185W        W22726  19.623  30.094   0.919
56186W        W22727  44.521  18.605  10.708
56187W        W22728  18.065  42.740   2.210
56188W        W22729  36.570  42.427   0.847
56189W        W22730  14.101  25.923  13.923
56190W        W22731  28.284   2.928  12.949
56191W        W22732  40.613  17.501   2.893
56192W        W22733  36.312   3.742  11.601
56193W        W22734  25.212  21.749  11.905
56194W        W22735  10.618   3.859   1.847
56195W        W22736  37.637  24.049   0.742
56196W        W22737  42.794   0.959   1.869
56197W        W22738  25.695  20.537  13.011
56198W        W22739  39.398   1.731  10.638
56199W        W22740  11.578  35.154   4.310
56200W        W22741   2.714  35.079  10.222
56201W        W22742  18.713  42.953   4.926
56202W        W22743  17.947  42.891  12.809
56203W        W22744  29.920  12.855  12.491
56204W        W22745  30.117  25.018   2.316
56205W        W22746  33.658  31.963   4.528
56206W        W22747   1.719  19.312   3.656
56207W        W22748  20.638  44.841   3.984
56208W        W22749  37.810  18.566  13.370
56209W        W22750   4.205  18.747   1.860
56210W        W22751  37.562  36.629   1.392
56211W        W22752  14.152   9.332  13.006
56212W        W22753  21.000  33.863   1.457
56213W        W22754  25.838  31.890  13.307
56214W        W22755  26.440  44.516  14.021
56215W        W22756  27.593  26.030   1.885
56216W        W22757  10.107  25.629   0.185
56217W        W22758  15.625   2.961   2.941
56218W        W22759   4.295   4.453  14.087
56219W        W22760  38.461  25.153   1.485
56220W        W22761  36.436  33.278   3.125
56221W        W22762  32.814   5.545  10.867
56222W        W22763  37.903  21.776  12.520
56223W        W22764  15.329  19.238   0.351
56224W        W22765   8.302  41.604   4.998
56225W        W22766  39.739  33.740   2.664
56226W        W22767   5.004  15.560   2.345
56227W        W22768  34.504   2.722  12.944
56228W        W22769  17.635  38.352   4.048
56229W        W22770  35.795   5.526  13.323
56230W        W22771  18.266   7.166  10.732
56231W        W22772  32.684  37.752  14.222
56232W        W22773  20.756  39.987   4.086
56233W        W22774   5.177  36.398  13.560
56234W        W22775   0.917  13.101  11.599
56235W        W22776  44.805  36.873  14.383
56236W        W22777  40.986  44.033   2.853
56237W        W22778  11.674   0.195   2.228
56238W        W22779  31.697  15.441   5.018
56239W        W22780   7.355  31.757  13.982
56240W        W22781   2.997  27.935  14.099
56241W        W22782  41.428  38.025   0.358
56242W        W22783   7.970  29.583   3.775
56243W        W22784  26.051  42.774   4.059
56244W        W22785  15.593  16.856   0.005
56245W        W22786   1.818  32.257  11.072
56246W        W22787  12.138   7.610  14.429
56247W        W22788  16.258  44.546   0.045
56248W        W22789   2.648  11.057  14.959
56249W        W22790  23.515  43.406   2.990
56250W        W22791  41.813  11.240  11.624
56251W        W22792   4.295  18.262   3.611
56252W        W22793   6.877   9.823   2.281
56253W        W22794  27.176  15.275   1.990
56254W        W22795  28.558   1.819  11.944
56255W        W22796   6.365  36.959  12.359
56256W        W22797  34.092  41.743  11.872
56257W        W22798  35.522   1.977   2.011
56258W        W22799  41.276   0.569   3.433
56259W        W22800  13.628  25.124  11.103
56260W        W22801   6.232  42.882  13.540
56261W        W22802  13.800  33.423  14.931
56262W        W22803  37.790  27.430   4.946
56263W        W22804  25.630   6.912  12.014
56264W        W22805   3.989  27.170  10.396
56265W        W22806  14.915  10.834   2.800
56266W        W22807  29.563  24.730   0.286
56267W        W22808  25.274   3.946  12.121
56268W        W22809  22.633  40.006   1.185
56269W        W22810  35.660   5.286   4.164
56270W        W22811   4.794   7.440   1.050
56271W        W22812  23.932  22.349  11.004
56272W        W22813   0.179  22.715  10.821
56273W        W22814   2.405  12.811  10.532
56274W        W22815   8.775   7.221  12.162
56275W        W22816   4.800  39.008  12.005
56276W        W22817   3.375  23.760   2.853
56277W        W22818  26.408  19.120  13.735
56278W        W22819   7.948  12.686  12.451
56279W        W22820  20.660  35.096  10.729
56280W        W22821  17.853  22.253   2.396
56281W        W22822  44.519   6.328   0.888
56282W        W22823  26.147   2.242   4.585
56283W        W22824  10.691  29.969   3.814
56284W        W22825  27.434  14.270   2.608
56285W        W22826   7.813  35.725  10.077
56286W        W22827  36.477   9.160   3.699
56287W        W22828   5.707  27.945   1.318
56288W        W22829  33.907  32.902  13.945
56289W        W22830  25.590  34.457  12.865
56290W        W22831  24.793  28.949   4.875
56291W        W22832  26.160  38.430   4.397
56292W        W22833  10.216  28.192   4.792
56293W        W22834  42.123   7.861  14.490
56294W        W22835  14.565  11.847   1.791
56295W        W22836  25.584  13.855  13.681
56296W        W22837  11.874   0.508   0.429
56297W        W22838  23.151  42.538   4.556
56298W        W22839  36.452  28.481   2.903
56299W        W22840   0.195  12.329  14.861
56300W        W22841  34.480  13.850   1.024
56301W        W22842  32.453  31.689   0.379
56302W        W22843  33.458  27.912   5.213
56303W        W22844  31.601  31.817  11.111
56304W        W22845   9.332  20.786  13.579
56305W        W22846  34.025  44.554   1.728
56306W        W22847  19.040  30.310   5.144
56307W        W22848  34.385  10.632   0.004
56308W        W22849   8.404  22.149   2.673
56309W        W22850  10.242   4.183   1.988
56310W        W22851  34.797   5.799   5.050
56311W        W22852   0.810  44.081   3.357
56312W        W22853  20.062   3.424  10.036
56313W        W22854  29.776  20.575  13.913
56314W        W22855  27.080   8.391  14.760
56315W        W22856  31.972  42.517  14.544
56316W        W22857   3.094   2.311   3.337
56317W        W22858  19.799  10.032   3.366
56318W        W22859   0.590   2.405  14.372
56319W        W22860  11.647  25.805  12.487
56320W        W22861   6.567  10.765   0.958
56321W        W22862   2.332  35.893   2.718
56322W        W22863  38.223  34.324   3.671
56323W        W22864  25.271  18.618  13.135
56324W        W22865  25.203  31.456   1.789
56325W        W22866  30.295   5.688  13.361
56326W        W22867  28.383  12.270  11.967
56327W        W22868  30.432  37.598   1.789
56328W        W22869   3.912   5.239  14.008
56329W        W22870  35.281  29.155   0.014
56330W        W22871  25.436  36.389   1.815
56331W        W22872  15.359  32.995   2.742
56332W        W22873  35.604  16.184  12.603
56333W        W22874  44.810   8.144   4.385
56334W        W22875   8.306  30.631   1.228
56335W        W22876  35.159  44.187   0.359
56336W        W22877  16.908  36.830  10.577
56337W        W22878  26.400  20.538   1.842
56338W        W22879   2.194  38.252   3.684
56339W        W22880  29.866  40.944  12.443
56340W        W22881  12.290  10.104  14.755
56341W        W22882  40.438   1.305  11.885
56342W        W22883  33.977  19.328   1.330
56343W        W22884  31.394   2.275  10.114
56344W        W22885   3.341  13.324  14.451
56345W        W22886  36.245   2.999  10.225
56346W        W22887  30.611  32.544   4.599
56347W        W22888  41.964  44.820  13.054
56348W        W22889  37.051  39.901  11.641
56349W        W22890  10.544  20.011   0.598
56350W        W22891  28.586  26.502  10.855
56351W        W22892   3.530  30.407   2.278
56352W        W22893   1.757  16.220  14.717
56353W        W22894  43.280   6.684   2.180
56354W        W22895  39.931  17.359  12.155
56355W        W22896  21.724  15.923   2.676
56356W        W22897   1.192   4.681   1.810
56357W        W22898   5.720  16.761   2.918
56358W        W22899  17.766  40.596  12.227
56359W        W22900  19.847  42.666   2.418
56360W        W22901  20.523  19.564   2.365
56361W        W22902  38.456  15.223  11.645
56362W        W22903   3.363   4.837   0.041
56363W        W22904  25.931   9.423   2.739
56364W        W22905  16.265   5.706   4.250
56365W        W22906  36.887  32.450   2.695
56366W        W22907  28.033  12.574  12.835
56367W        W22908  36.119  14.109  13.049
56368W        W22909   6.892  14.340   3.733
56369W        W22910  21.016  13.314  11.103
56370W        W22911  41.473  38.544   1.305
56371W        W22912  39.654   0.027  11.941
56372W        W22913  12.874  44.402  11.618
56373W        W22914  24.009  43.074  14.446
56374W        W22915  15.495   5.884  14.354
56375W        W22916  28.942  41.259  12.428
56376W        W22917  31.465   0.939   3.761
56377W        W22918  18.666  13.822  12.626
56378W        W22919  41.674   4.880   1.701
56379W        W22920  11.431  10.732  11.725
56380W        W22921  16.634  37.310  12.993
56381W        W22922   1.871   3.757  12.208
56382W        W22923  33.518  10.787   2.826
56383W        W22924   5.803  31.752   3.522
56384W        W22925  28.228  17.045   0.386
56385W        W22926   8.237  34.600   1.885
56386W        W22927  29.585   9.651   5.343
56387W        W22928  20.589  38.156   4.875
56388W        W22929   8.208  33.351   4.767
56389W        W22930  44.390  34.902  12.536
56390W        W22931  14.985  35.880  13.215
56391W        W22932  34.484  42.868   2.718
56392W        W22933  27.091  19.217   0.374
56393W        W22934  33.586  14.687  12.113
56394W        W22935  32.186  24.695   2.693
56395W        W22936  24.804   9.732   2.203
56396W        W22937  36.814  41.293  10.673
56397W        W22938   4.773   3.772   3.594
56398W        W22939  14.241  39.010  12.434
56399W        W22940  23.144   9.180  13.151
56400W        W22941  22.049  34.081   0.349
56401W        W22942  44.831  15.068  12.033
56402W        W22943  39.449  25.984   4.778
56403W        W22944  16.077  18.807  14.257
56404W        W22945  13.146  22.296  10.660
56405W        W22946  10.846  37.043   3.303
56406W        W22947  15.201  15.331   0.457
56407W        W22948   8.739  26.409   0.862
56408W        W22949  14.828   9.841  11.519
56409W        W22950  19.626   8.335  14.212
56410W        W22951  41.912   5.842   0.392
56411W        W22952  19.591  31.574   4.232
56412W        W22953  42.280   0.333  13.150
56413W        W22954  10.330  42.388   1.513
56414W        W22955  26.656  12.258   5.041
56415W        W22956  19.660   6.974   5.035
56416W        W22957  19.561  21.138   1.372
56417W        W22958  21.283   0.723   3.258
56418W        W22959  28.703  30.633  10.714
56419W        W22960  36.332  16.036   1.847
56420W        W22961  11.267  16.210  14.427
56421W        W22962  39.216   7.188   0.311
56422W        W22963   6.670  33.333  13.986
56423W        W22964  39.378   8.872   3.234
56424W        W22965  12.759  34.242   5.443
56425W        W22966   4.998   4.025   3.047
56426W        W22967  28.152  21.707   4.443
56427W        W22968  39.433  30.155   4.198
56428W        W22969  11.787  24.249   2.439
56429W        W22970   0.996  23.084   5.009
56430W        W22971   0.343  30.637  12.624
56431W        W22972  18.250  39.989  12.408
56432W        W22973   2.115   3.058  13.450
56433W        W22974  15.187  27.261  11.440
56434W        W22975   2.723  18.037  14.831
56435W        W22976  40.870  16.596  14.902
56436W        W22977  44.236   2.525   3.287
56437W        W22978  37.095  24.240  11.166
56438W        W22979   1.401   7.859   2.298
56439W        W22980   9.979  32.666   0.856
56440W        W22981  12.325  29.314  11.358
56441W        W22982  10.737  16.897  11.916
56442W        W22983  22.493  38.573  12.087
56443W        W22984   5.021  32.111   0.908
56444W        W22985  14.180  29.198  11.581
56445W        W22986   3.994  30.842  11.583
56446W        W22987   3.876   1.337  13.423
56447W        W22988  36.904  34.474   3.619
56448W        W22989  13.652   4.693   3.229
56449W        W22990  17.976  23.791   4.425
56450W        W22991  11.775  44.947  11.061
56451W        W22992  25.919   1.787   0.827
56452W        W22993   5.643  16.661   3.796
56453W        W22994  18.483  26.463   4.653
56454W        W22995  44.241   3.861  13.112
56455W        W22996  38.729  34.792   4.972
56456W        W22997  16.227   3.447  14.532
56457W        W22998  32.895  21.238  13.540
56458W        W22999   0.488  33.699  11.132
56459W        W23000  37.549  31.680   1.326
56460W        W23001  30.088  17.264   0.298
56461W        W23002  39.727  15.967  14.878
56462W        W23003   5.107  22.284   0.332
56463W        W23004   9.859   8.996  14.890
56464W        W23005  33.112  41.424   3.614
56465W        W23006   1.155  40.067  11.177
56466W        W23007  19.680  22.478   0.778
56467W        W23008  16.457  21.173   1.408
56468W        W23009  25.290  17.437   1.256
56469W        W23010  36.013   0.029  11.593
56470W        W23011   7.152   4.926  13.159
56471W        W23012  15.932  24.010   0.021
56472W        W23013  39.021  33.801  14.900
56473W        W23014  11.191  43.192   2.716
56474W        W23015  10.226   2.353   0.976
56475W        W23016  43.947  43.909   0.255
56476W        W23017  17.960  26.658   4.048
56477W        W23018  44.407   5.646   1.607
56478W        W23019  10.607  40.031   2.192
56479W        W23020  21.211  17.800   4.117
56480W        W23021  39.800  21.616  10.980
56481W        W23022  26.624  40.970  12.839
56482W        W23023  37.740  15.393  12.364
56483W        W23024  22.431  17.363   2.805
56484W        W23025  10.788  13.300  13.638
56485W        W23026  33.391  42.597   1.136
56486W        W23027  11.385  36.543  13.405
56487W        W23028  14.332   3.977   1.147
56488W        W23029  21.749  12.853   9.840
56489W        W23030  36.355  25.194   2.344
56490W        W23031  13.558  41.068  13.439
56491W        W23032  17.313  20.487  13.398
56492W        W23033   5.833  23.345  10.641
56493W        W23034  36.505  13.890   0.386
56494W        W23035  26.543  25.713  14.036
56495W        W23036  44.360  41.708  12.366
56496W        W23037  36.913  42.047   4.035
56497W        W23038  26.962   1.998   4.141
56498W        W23039  38.548  33.018   3.767
56499W        W23040   6.995  14.162   2.157
56500W        W23041  37.986   6.685   2.206
56501W        W23042  36.032  10.359  12.442
56502W        W23043  24.837   8.389   3.734
56503W        W23044  32.004  38.558  13.907
56504W        W23045  44.845  16.331  13.831
56505W        W23046   9.682   8.821   1.710
56506W        W23047  15.838   4.193   4.505
56507W        W23048  31.535  35.428   1.643
56508W        W23049  31.361   0.325  13.660
56509W        W23050  30.517   4.443   3.655
56510W        W23051  41.883  42.350  12.843
56511W        W23052  14.019  10.749   3.664
56512W        W23053  20.541  39.065   0.257
56513W        W23054  11.780  15.007  14.826
56514W        W23055  38.551  20.793   3.641
56515W        W23056  10.656  26.944   1.771
56516W        W23057  22.270  24.154  12.076
56517W        W23058  25.454  18.072   3.666
56518W        W23059  38.071  23.957   4.163
56519W        W23060  25.234  24.565   0.196
56520W        W23061  36.594  13.580   4.155
56521W        W23062  33.900  20.591  11.992
56522W        W23063  25.544  34.506   2.680
56523W        W23064  43.821   8.069  12.254
56524W        W23065  32.001  20.040  13.011
56525W        W23066  11.753  15.910   4.165
56526W        W23067  16.083   9.760  12.055
56527W        W23068  12.748  41.079   2.643
56528W        W23069  18.835   8.844  11.594
56529W        W23070  14.247  27.068   1.535
56530W        W23071  36.619   0.181  14.525
56531W        W23072  27.984  43.386  10.610
56532W        W23073  20.553  13.158  12.633
56533W        W23074  21.921   2.163   0.961
56534W        W23075  10.759   8.409  12.576
56535W        W23076   0.423  22.497   0.754
56536W        W23077   0.223   3.954  12.104
56537W        W23078   6.356  19.211   0.894
56538W        W23079  34.616  23.770  11.581
56539W        W23080  36.480  38.941   1.406
56540W        W23081  14.217  41.337   1.514
56541W        W23082  21.088  10.218   1.668
56542W        W23083  36.356  29.222   5.010
56543W        W23084   5.294  15.826   2.768
56544W        W23085  10.435  37.729   3.537
56545W        W23086  41.661  40.347   0.944
56546W        W23087  42.465  32.013   3.548
56547W        W23088  44.467  34.897  13.078
56548W        W23089  24.594  13.230   4.675
56549W        W23090  34.865  25.209  10.760
56550W        W23091  17.402   3.236  12.727
56551W        W23092  11.163  22.990   4.704
56552W        W23093   9.267  15.967   2.681
56553W        W23094  27.095  40.710  11.503
56554W        W23095  29.348  22.902  14.394
56555W        W23096   1.466   0.681   2.332
56556W        W23097   8.343  14.241   4.784
56557W        W23098  30.636  37.563   4.170
56558W        W23099  26.100  30.038  14.250
56559W        W23100  43.038   3.368   3.265
56560W        W23101  20.303  13.395  13.037
56561W        W23102  25.019  40.052   4.860
56562W        W23103  30.704   9.597   0.322
56563W        W23104  33.924   5.456  12.914
56564W        W23105  40.990  12.194   0.371
56565W        W23106  41.237  12.033   2.406
56566W        W23107  26.099  21.047  12.432
56567W        W23108  37.704  22.048  11.137
56568W        W23109  32.588  37.254  14.011
56569W        W23110  32.337  13.735   2.670
56570W        W23111   9.838  20.621  13.554
56571W        W23112  34.976  20.016   4.854
56572W        W23113  21.202  30.045  14.317
56573W        W23114  10.163  13.476   1.741
56574W        W23115  13.355  27.004  11.011
56575W        W23116  30.537  26.592   2.665
56576W        W23117  36.387  38.649   3.327
56577W        W23118  22.329  37.525  14.299
56578W        W23119  31.486  17.545   3.281
56579W        W23120  40.347   5.001   3.100
56580W        W23121   0.665   9.092  14.872
56581W        W23122  21.064  16.445   3.705
56582W        W23123  44.462  38.955   1.937
56583W        W23124  12.134   2.334  12.841
56584W        W23125  10.767   5.354   4.705
56585W        W23126   2.691  32.942  13.773
56586W        W23127   8.895  21.277  12.018
56587W        W23128  19.740  20.124   4.143
56588W        W23129  19.838  27.083  14.909
56589W        W23130   7.169  12.244  10.672
56590W        W23131  22.781  26.131   1.684
56591W        W23132  44.628  25.677   0.449
56592W        W23133  19.760   9.959   2.031
56593W        W23134  37.154  13.538   2.031
56594W        W23135  34.868   3.343  12.550
56595W        W23136  18.796   7.317   3.597
56596W        W23137  24.101  24.743  14.300
56597W        W23138   0.884  35.068  13.898
56598W        W23139  22.226   6.718  12.792
56599W        W23140  20.451  20.588  11.988
56600W        W23141   2.570   0.550  14.898
56601W        W23142   4.574  23.479  10.112
56602W        W23143  27.193  20.040   2.187
56603W        W23144  43.276   1.830  14.453
56604W        W23145  15.195   3.834  10.898
56605W        W23146   3.245   6.610  13.614
56606W        W23147  28.702  32.912   3.231
56607W        W23148  33.955  41.417  10.934
56608W        W23149  42.190  13.126  10.337
56609W        W23150  13.088  30.967   0.930
56610W        W23151  35.272  11.914  10.998
56611W        W23152  23.068   0.788   1.698
56612W        W23153  32.091  27.018  14.079
56613W        W23154  41.102  41.613  10.607
56614W        W23155   3.379  12.937   0.473
56615W        W23156  35.078   5.304   2.879
56616W        W23157  28.947  15.760  12.528
56617W        W23158  37.724  31.013  11.154
56618W        W23159  25.967  20.367  10.593
56619W        W23160  19.072   2.683  11.469
56620W        W23161   2.136  38.966   3.299
56621W        W23162  34.010  33.921  13.828
56622W        W23163  34.049  31.970   4.878
56623W        W23164  21.248   3.067   1.726
56624W        W23165  12.620  34.319   3.043
56625W        W23166   3.552  42.217   2.160
56626W        W23167  32.664   4.675   1.803
56627W        W23168  32.976  14.853   0.961
56628W        W23169  22.532  39.410   3.164
56629W        W23170  26.150  16.169  11.064
56630W        W23171  15.832  37.773  12.373
56631W        W23172   8.218  38.364   4.756
56632W        W23173  31.943  15.820  10.748
56633W        W23174  13.247  12.370  10.488
56634W        W23175  14.119  16.776   1.746
56635W        W23176  27.218  24.963  10.976
56636W        W23177  16.540  23.501  14.141
56637W        W23178  10.330  19.223  14.379
56638W        W23179  28.190  28.970   1.507
56639W        W23180  18.786  33.728  11.471
56640W        W23181  38.139  41.857   2.946
56641W        W23182  33.480  17.074   2.629
56642W        W23183  19.051  22.970   1.317
56643W        W23184  23.761  42.903   2.849
56644W        W23185   0.844  22.190  13.864
56645W        W23186  19.188   0.704   0.366
56646W        W23187  15.670  41.524  12.459
56647W        W23188   4.204  44.463  11.607
56648W        W23189  38.940  14.010   1.886
56649W        W23190   8.866  40.236  13.435
56650W        W23191   3.025   9.334  10.657
56651W        W23192  12.229  22.643   4.877
56652W        W23193  41.931  18.691   3.851
56653W        W23194  43.585  16.419  12.008
56654W        W23195  27.070  12.854   3.311
56655W        W23196  21.202  10.367   4.646
56656W        W23197   6.898  38.113  11.140
56657W        W23198  35.602  37.809  14.229
56658W        W23199  13.891  15.741  11.314
56659W        W23200  35.989  41.842   3.506
56660W        W23201  23.534  38.564   4.537
56661W        W23202  30.356  22.849   4.645
56662W        W23203   0.947   5.457   1.464
56663W        W23204  19.200   9.141   1.281
56664W        W23205  30.481  13.641  11.927
56665W        W23206   5.133  19.504   1.774
56666W        W23207   2.500  42.178   3.666
56667W        W23208  32.668  19.938  14.378
56668W        W23209  35.184  20.476   2.810
56669W        W23210  40.075  16.123  11.942
56670W        W23211   2.261  27.966   2.204
56671W        W23212  42.914   8.889  13.914
56672W        W23213  35.257  21.013   1.141
56673W        W23214   9.137  29.009   1.881
56674W        W23215  14.535  16.087  10.814
56675W        W23216  32.033  28.939   3.348
56676W        W23217  18.532  38.898  12.729
56677W        W23218  32.151  17.064   4.534
56678W        W23219  27.257  37.988  13.169
56679W        W23220  23.973  34.943   2.388
56680W        W23221  10.577  26.717   3.196
56681W        W23222  36.738  41.903  13.465
56682W        W23223  28.549  17.813  11.831
56683W        W23224  39.402  22.697  10.386
56684W        W23225   0.288  20.985  14.953
56685W        W23226  33.912  11.032  12.157
56686W        W23227  28.951  41.053   0.969
56687W        W23228   1.399  25.771  10.493
56688W        W23229  26.555  17.085  11.586
56689W        W23230  24.546   1.942   3.940
56690W        W23231  38.951  19.592   3.626
56691W        W23232  20.516   8.698  12.415
56692W        W23233  23.302  43.523  11.610
56693W        W23234  41.481  12.452   4.165
56694W        W23235   4.155  44.897  10.124
56695W        W23236   1.784  11.776  14.324
56696W        W23237   9.833  18.653   2.478
56697W        W23238  37.977  24.070  10.752
56698W        W23239  18.948   5.179  10.846
56699W        W23240   0.743   0.776  10.904
56700W        W23241  37.304  27.016   4.399
56701W        W23242  15.324  13.359   2.662
56702W        W23243  34.190   2.396  13.855
56703W        W23244   9.105  38.775   2.350
56704W        W23245   9.238  41.874  10.294
56705W        W23246  24.293  23.244  11.298
56706W        W23247  18.206   4.898   0.781
56707W        W23248  11.387  37.840   3.538
56708W        W23249  28.088  30.252   3.113
56709W        W23250  37.550   0.377   3.137
56710W        W23251  20.758  38.399  11.998
56711W        W23252  35.770  37.441   0.519
56712W        W23253  31.182  19.746  14.462
56713W        W23254  25.082   1.337   0.220
56714W        W23255  32.190  22.005  11.117
56715W        W23256  16.752  26.169  13.361
56716W        W23257   3.220  37.029   0.724
56717W        W23258  25.863  39.936  10.783
56718W        W23259  11.794  16.172   3.169
56719W        W23260  16.699  34.958   0.726
56720W        W23261  38.714  35.873  12.486
56721W        W23262   7.957   8.936   1.348
56722W        W23263  33.962  23.559   3.493
56723W        W23264  13.920  18.922   1.275
56724W        W23265  35.977  12.576  14.697
56725W        W23266  33.096  30.381   3.195
56726W        W23267  17.286  14.011  12.355
56727W        W23268  28.884   5.176  11.698
56728W        W23269  23.757   5.459   0.840
56729W        W23270  16.901  25.057   5.168
56730W        W23271  15.615  25.139  12.895
56731W        W23272  24.378   6.785   1.319
56732W        W23273   4.397  31.734   3.683
56733W        W23274   9.573  18.652  13.314
56734W        W23275  16.085  23.631   3.651
56735W        W23276  32.244   2.356   2.295
56736W        W23277  19.762   6.290   3.372
56737W        W23278   3.906  26.704  10.782
56738W        W23279  26.959   7.020   3.080
56739W        W23280  12.535  10.170  14.017
56740W        W23281  10.660  29.039   0.687
56741W        W23282  32.379   8.750  13.570
56742W        W23283  41.714   8.397   0.250
56743W        W23284  40.482  27.759   4.190
56744W        W23285  18.311   7.473   3.706
56745W        W23286  31.556  31.409  12.892
56746W        W23287  19.187   9.878  14.769
56747W        W23288  36.684   0.698  10.670
56748W        W23289  24.117  32.559   2.223
56749W        W23290   1.310  13.538   2.441
56750W        W23291  11.008  26.493   0.398
56751W        W23292  17.121   7.842   1.894
56752W        W23293   1.240  20.982   0.866
56753W        W23294  34.331   1.208  10.699
56754W        W23295  13.978  15.819   4.053
56755W        W23296   3.373  17.560   4.382
56756W        W23297   1.783  20.092   2.116
56757W        W23298   9.257  23.771   4.137
56758W        W23299   4.800  42.702   4.154
56759W        W23300   9.173  16.020  11.562
56760W        W23301  17.026  17.200   2.672
56761W        W23302   4.812  19.032  12.881
56762W        W23303  26.966  13.193   4.693
56763W        W23304  38.982   3.912   3.032
56764W        W23305  10.061  27.508   3.645
56765W        W23306   8.417  37.332   4.140
56766W        W23307  15.334  12.311   1.308
56767W        W23308  42.041  44.321   0.712
56768W        W23309  10.143  26.166  13.900
56769W        W23310  22.332  44.804  12.399
56770W        W23311   9.463  24.425  14.291
56771W        W23312  21.869   8.746   3.501
56772W        W23313   8.272  13.127   2.901
56773W        W23314  31.178  12.283  14.170
56774W        W23315  21.671  11.781  12.028
56775W        W23316   7.042  36.034   4.198
56776W        W23317   3.869  10.668  12.410
56777W        W23318  40.615  22.825  14.881
56778W        W23319   2.181   1.153  14.924
56779W        W23320  21.517  26.749   4.792
56780W        W23321   7.224  28.440  12.503
56781W        W23322  13.776   8.274   0.191
56782W        W23323  15.587  25.055  13.464
56783W        W23324  10.768  14.926  14.705
56784W        W23325  22.196  30.150   4.010
56785W        W23326  24.174  33.899   2.280
56786W        W23327  40.496   7.323  13.849
56787W        W23328  30.124   2.630   4.052
56788W        W23329  20.756   2.842   2.897
56789W        W23330  12.734  29.483  12.603
56790W        W23331   6.152   0.748  14.822
56791W        W23332   2.375  33.938   4.074
56792W        W23333  27.140  34.923  10.834
56793W        W23334  19.790  21.632   1.434
56794W        W23335  18.781   7.818  14.277
56795W        W23336  21.702  35.111  13.882
56796W        W23337   5.465  15.772   2.286
56797W        W23338  42.782   2.917  12.574
56798W        W23339  32.620  26.602  12.993
56799W        W23340  43.470  16.061   3.809
56800W        W23341  16.618  12.036   2.956
56801W        W23342  23.679  20.258  12.656
56802W        W23343  27.089   3.205  12.636
56803W        W23344  37.468   1.418   4.430
56804W        W23345   3.754  24.611   0.943
56805W        W23346   8.315  29.464   0.167
56806W        W23347  16.475  31.856   2.489
56807W        W23348  29.384  32.666  14.807
56808W        W23349  25.254  34.548  13.914
56809W        W23350  24.974   6.812  10.754
56810W        W23351  16.604  24.004   4.144
56811W        W23352  40.453  35.439   4.233
56812W        W23353   8.340   4.877   0.348
56813W        W23354  12.967  22.121   3.344
56814W        W23355   0.324  24.400  11.130
56815W        W23356  34.967  21.209  11.117
56816W        W23357  28.958   9.663   2.717
56817W        W23358  17.482  24.208  14.004
56818W        W23359   1.851   1.586   1.816
56819W        W23360  29.923  35.367   3.901
56820W        W23361  44.390  19.227  14.075
56821W        W23362   8.741  29.419  13.577
56822W        W23363  33.976   0.695  12.585
56823W        W23364   8.735  40.566  11.349
56824W        W23365   5.287  29.665   2.153
56825W        W23366  13.595  28.607   0.431
56826W        W23367  22.590  40.432   4.181
56827W        W23368  44.054   6.550   4.874
56828W        W23369  37.211   2.228  12.083
56829W        W23370  41.279  34.804  13.995
56830W        W23371  23.314  19.721  12.970
56831W        W23372   0.439  43.807   4.603
56832W        W23373  24.709  44.465   3.692
56833W        W23374  25.795  22.788  13.993
56834W        W23375  38.393   0.249  12.408
56835W        W23376  34.565  34.569   1.372
56836W        W23377   0.478  34.267  14.764
56837W        W23378  41.461  33.414   0.546
56838W        W23379   5.689  41.137  14.703
56839W        W23380   4.124  26.448   1.886
56840W        W23381  19.053   0.195   2.554
56841W        W23382  42.889  32.880   4.201
56842W        W23383  14.341  38.292  11.592
56843W        W23384  21.284  42.022   3.301
56844W        W23385   6.280  35.059   4.705
56845W        W23386  22.802   4.417  13.894
56846W        W23387  36.253  23.218  13.520
56847W        W23388  17.716   2.539   0.519
56848W        W23389  44.201  39.009  12.950
56849W        W23390  43.967  26.464   4.042
56850W        W23391  12.345  41.717  13.067
56851W        W23392  36.377  37.535  10.775
56852W        W23393  16.052   5.220  13.112
56853W        W23394  35.340  44.478  11.813
56854W        W23395  18.505   5.327  10.595
56855W        W23396  26.137   7.234   4.857
56856W        W23397  22.924  18.731  13.881
56857W        W23398   5.592   3.990   3.600
56858W        W23399  33.588  18.992  11.147
56859W        W23400  28.636  23.348   1.939
56860W        W23401  26.971  24.218   4.442
56861W        W23402  13.962  12.719  11.993
56862W        W23403  32.389  40.827   3.245
56863W        W23404   9.813  25.021  10.713
56864W        W23405   0.746  44.390   2.950
56865W        W23406  29.411   3.353  13.717
56866W        W23407  20.084  44.180   1.399
56867W        W23408  35.385   6.771  11.103
56868W        W23409  38.518  27.623  12.553
56869W        W23410  14.208  33.538  13.806
56870W        W23411  21.631  22.118  10.791
56871W        W23412  25.641  40.520   4.197
56872W        W23413  44.698  43.838   3.300
56873W        W23414   6.281   3.816   0.988
56874W        W23415  32.097  20.452  11.597
56875W        W23416   7.711  32.991  12.666
56876W        W23417  30.141  23.042  11.594
56877W        W23418  27.663   4.670   2.830
56878W        W23419   2.261  24.625  10.205
56879W        W23420  25.557   2.153   0.963
56880W        W23421  38.542  26.602   2.849
56881W        W23422   4.773  37.135   4.212
56882W        W23423  16.545  13.618   4.209
56883W        W23424   9.330  42.200   1.692
56884W        W23425  44.871  30.982  10.716
56885W        W23426   4.725   8.061   1.741
56886W        W23427   0.776  43.387   3.677
56887W        W23428  17.066   5.492  14.576
56888W        W23429  34.453  10.647  13.270
56889W        W23430  40.013   8.126  10.511
56890W        W23431   0.945   6.443  12.671
56891W        W23432  15.459  30.730   2.284
56892W        W23433  17.464   8.895  11.697
56893W        W23434   2.398  29.587   5.008
56894W        W23435  39.622   3.462   0.376
56895W        W23436  18.133  27.614   3.990
56896W        W23437   0.823  26.683  12.643
56897W        W23438  33.462   5.092  14.742
56898W        W23439  40.826  33.051   0.867
56899W        W23440   5.082   4.742   1.509
56900W        W23441  31.370  36.587  14.616
56901W        W23442  24.245  36.789  12.539
56902W        W23443  11.118  41.025  10.751
56903W        W23444  30.099  23.750  14.893
56904W        W23445   2.872  33.484   0.713
56905W        W23446   5.817  35.199  11.176
56906W        W23447  17.779  10.384  10.336
56907W        W23448  13.645  28.925  12.385
56908W        W23449   2.687   6.522   0.901
56909W        W23450  21.827   1.924  12.759
56910W        W23451  44.960  29.918   1.173
56911W        W23452  14.615  36.038   4.627
56912W        W23453   2.380  14.001   2.192
56913W        W23454  11.275   5.523   4.662
56914W        W23455  40.440  21.010   3.711
56915W        W23456  39.547  27.055   3.331
56916W        W23457  23.660  22.693   1.357
56917W        W23458  41.901  24.227  12.919
56918W        W23459  35.356  41.559   0.278
56919W        W23460   5.675  11.421   2.772
56920W        W23461   6.204   4.438  13.889
56921W        W23462   9.862  11.304  14.440
56922W        W23463  28.412  42.055  14.856
56923W        W23464  19.775  19.025  11.068
56924W        W23465  30.717  16.635   0.129
56925W        W23466  35.786  44.517  13.494
56926W        W23467   1.357  15.662   1.421
56927W        W23468  18.125  44.442   2.630
56928W        W23469  11.332  21.545  11.609
56929W        W23470   0.416  13.124   0.957
56930W        W23471  30.453  44.800  12.267
56931W        W23472   0.037  23.155   4.578
56932W        W23473  35.936  21.459   0.517
56933W        W23474  42.977   8.262   4.229
56934W        W23475   3.437  36.277  13.856
56935W        W23476  38.827  22.937  10.727
56936W        W23477   9.387  12.311   2.334
56937W        W23478  39.840   0.918  10.760
56938W        W23479  24.132   9.770   0.707
56939W        W23480  40.527  30.540  11.215
56940W        W23481  29.634  19.678   3.621
56941W        W23482  11.705  12.268   1.818
56942W        W23483  33.020  21.960   2.375
56943W        W23484  44.519   5.130   1.359
56944W        W23485  16.719   4.364   4.196
56945W        W23486  17.538  38.030   4.731
56946W        W23487  42.107  29.155  10.366
56947W        W23488  23.693  13.400  13.321
56948W        W23489  32.420  25.143  10.684
56949W        W23490  21.769  16.532   4.247
56950W        W23491   9.099  29.168  14.489
56951W        W23492   3.404  21.005  13.019
56952W        W23493   9.130  11.352  13.846
56953W        W23494  27.243  19.783  12.472
56954W        W23495  13.888  39.111   2.193
56955W        W23496  33.440  35.413   3.207
56956W        W23497   1.812  20.112  10.589
56957W        W23498  29.174  31.851   4.181
56958W        W23499  14.798  34.567   3.049
56959W        W23500  22.410  28.543   3.343
56960W        W23501  37.842  23.106  14.366
56961W        W23502  21.632  13.534   1.413
56962W        W23503   5.199  39.863   0.847
56963W        W23504  22.303  28.559  13.338
56964W        W23505  16.729  22.710   4.194
56965W        W23506   3.462  29.914  12.453
56966W        W23507   4.830  33.037  14.497
56967W        W23508  40.593  19.714   1.613
56968W        W23509   8.139  31.615   1.278
56969W        W23510   5.204  33.569   1.695
56970W        W23511  16.214   4.833  11.119
56971W        W23512  35.471  13.615   2.515
56972W        W23513  19.661  32.581  11.163
56973W        W23514  35.443   4.189   3.770
56974W        W23515   6.862  31.358  11.580
56975W        W23516  12.060  35.269  11.992
56976W        W23517   5.830  10.840  10.534
56977W        W23518  17.781  25.078  13.557
56978W        W23519   0.790  32.850  11.193
56979W        W23520  16.697  30.844   3.756
56980W        W23521   7.309  18.339  13.433
56981W        W23522  18.513  27.381   3.730
56982W        W23523   6.864   7.355   4.815
56983W        W23524  22.782  18.680   1.324
56984W        W23525  23.215  37.411  12.427
56985W        W23526   2.734   1.623  11.263
56986W        W23527  22.526   2.770  13.847
56987W        W23528  35.589  39.093   1.518
56988W        W23529  31.683  10.596  11.079
56989W        W23530  25.753   4.195   1.898
56990W        W23531  42.268   9.728  12.060
56991W        W23532  30.372  34.738   5.082
56992W        W23533  18.497  31.183  12.536
56993W        W23534  22.175   4.973   1.302
56994W        W23535   5.418   5.778  14.982
56995W        W23536   5.520  19.717  10.547
56996W        W23537  16.861  36.797   3.984
56997W        W23538  10.681  23.171  11.133
56998W        W23539  44.281  41.428  14.535
56999W        W23540  18.787   9.383  13.510
57000W        W23541  39.461  10.816  13.301
57001W        W23542   9.820  35.632  11.586
57002W        W23543  29.166  29.211  12.055
57003W        W23544  13.273  42.846  14.563
57004W        W23545   6.252  32.414  10.658
57005W        W23546  42.960  44.547   2.672
57006W        W23547  24.911  44.320   4.141
57007W        W23548   2.463   8.240   4.832
57008W        W23549  35.688  44.899  14.384
57009W        W23550  30.931  42.362  11.427
57010W        W23551  17.241   7.203  10.785
57011W        W23552  12.722  42.113   2.635
57012W        W23553  21.610  38.611   3.697
57013W        W23554  21.292  24.340   2.695
57014W        W23555   0.623  43.057  13.932
57015W        W23556  29.089  30.483   1.913
57016W        W23557  23.500   8.298   9.808
57017W        W23558  20.842  40.641  13.869
57018W        W23559  28.934  25.486   1.383
57019W        W23560  19.560  33.423   1.722
57020W        W23561  29.392  23.537  11.465
57021W        W23562  28.135  18.341  10.191
57022W        W23563  21.805  34.197   3.156
57023W        W23564  37.454  13.533  11.496
57024W        W23565  12.784  29.046   3.749
57025W        W23566  20.084  35.061  13.000
57026W        W23567  37.566   1.391   3.333
57027W        W23568  40.874  15.695   1.052
57028W        W23569  15.559   1.653  14.476
57029W        W23570  16.574   8.186   3.477
57030W        W23571  36.466  30.326   3.131
57031W        W23572  35.973   9.923  14.793
57032W        W23573   0.870  17.331  12.596
57033W        W23574  15.825   9.330   0.310
57034W        W23575  19.491  18.655   2.837
57035W        W23576  24.502  43.456   1.857
57036W        W23577  27.730  11.054  13.384
57037W        W23578  14.372   8.168   1.332
57038W        W23579  16.758  11.172   4.765
57039W        W23580   8.628  16.600   0.891
57040W        W23581  12.620  12.346   1.301
57041W        W23582  28.212  21.813   0.894
57042W        W23583  30.609   6.204   0.000
57043W        W23584  16.570  21.089   1.907
57044W        W23585  44.781  23.454   1.272
57045W        W23586  38.598  44.831  10.421
57046W        W23587  37.827  38.474   0.954
57047W        W23588  36.882   8.602   0.334
57048W        W23589  33.187  34.874   0.093
57049W        W23590  39.672  35.996   2.033
57050W        W23591   5.974   9.889  13.127
57051W        W23592  23.352   8.133   4.190
57052W        W23593  15.375  22.126  13.634
57053W        W23594  13.127  18.294  11.494
57054W        W23595  44.238  17.223  13.766
57055W        W23596  32.910  31.205   2.831
57056W        W23597   3.431   2.811   1.324
57057W        W23598  16.214   8.223   2.699
57058W        W23599   8.517  13.701   4.684
57059W        W23600  21.302  22.406  13.344
57060W        W23601  15.860   4.455  14.332
57061W        W23602   8.283  14.125   2.690
57062W        W23603  22.193  24.645   0.285
57063W        W23604  43.964  42.850   2.602
57064W        W23605  18.764  15.089  12.098
57065W        W23606  26.860  32.789  14.791
57066W        W23607   5.280   8.599  14.953
57067W        W23608  17.809  25.527  14.310
57068W        W23609   9.083  44.873   0.010
57069W        W23610  37.700  20.620  10.767
57070W        W23611  18.696  20.751   1.325
57071W        W23612   7.635  39.594   2.216
57072W        W23613  35.850  40.777   2.681
57073W        W23614  37.050  44.777   3.784
57074W        W23615  42.021  29.606   3.753
57075W        W23616   8.651  24.645  13.118
57076W        W23617  27.503  44.058  14.816
57077W        W23618  29.950  15.039   0.847
57078W        W23619   2.294  34.032   1.237
57079W        W23620  37.293   9.170  12.996
57080W        W23621  10.399  27.156   3.442
57081W        W23622   1.692  29.547   0.011
57082W        W23623  44.664  28.455  13.319
57083W        W23624  22.636  30.434   0.782
57084W        W23625  18.535  18.216  12.541
57085W        W23626  26.971   2.633   0.007
57086W        W23627  28.182  27.550   0.181
57087W        W23628  21.426  35.570  13.108
57088W        W23629  15.234  15.503   4.554
57089W        W23630  38.257  14.753   0.783
57090W        W23631  35.871  11.300  12.046
57091W        W23632  23.701  38.541   3.161
57092W        W23633  40.717  25.978  12.408
57093W        W23634  35.777  26.780   4.595
57094W        W23635  11.562  42.736   3.153
57095W        W23636  38.862  24.092   1.375
57096W        W23637  39.684   5.767   1.032
57097W        W23638  22.994  13.515   0.445
57098W        W23639   6.221  27.209   3.610
57099W        W23640  41.367  40.828  13.389
57100W        W23641  12.078  23.724   3.701
57101W        W23642  35.282  20.617   0.669
57102W        W23643  11.664  24.789  10.839
57103W        W23644   3.378  37.417   3.978
57104W        W23645  32.425  12.257  12.041
57105W        W23646  30.084  44.415   2.908
57106W        W23647   8.807  35.327  14.400
57107W        W23648  23.144  13.835   4.379
57108W        W23649  20.116  24.646  11.686
57109W        W23650  37.052  32.844  12.062
57110W        W23651  38.867  29.798  14.899
57111W        W23652  33.444   6.747   1.030
57112W        W23653  19.949  36.273  10.494
57113W        W23654  25.608  42.124   0.015
57114W        W23655  14.373  41.440   4.703
57115W        W23656  11.110  38.414   2.226
57116W        W23657  16.256  22.072   3.660
57117W        W23658  33.762  31.765   3.651
57118W        W23659  41.011  39.765   2.558
57119W        W23660  18.701  19.542  11.505
57120W        W23661  19.778  24.256   1.351
57121W        W23662   9.730   2.602  13.014
57122W        W23663  40.628  34.930  13.404
57123W        W23664  43.387  15.298  14.563
57124W        W23665  31.480  36.064  12.496
57125W        W23666  10.865  31.511   2.785
57126W        W23667  33.948  23.667  14.862
57127W        W23668  32.939  31.542   1.386
57128W        W23669  10.041  11.214  12.936
57129W        W23670  17.250   4.666   0.884
57130W        W23671  27.185  26.234   0.719
57131W        W23672  39.676  30.479   4.525
57132W        W23673  43.765  29.331   4.061
57133W        W23674  35.038  31.884   3.279
57134W        W23675   9.573  21.998   3.625
57135W        W23676  24.591   7.211   2.907
57136W        W23677  39.580  18.216  14.465
57137W        W23678  16.058  27.918  13.443
57138W        W23679  26.813  14.816  12.904
57139W        W23680  21.169  21.573   2.761
57140W        W23681   5.571  11.647  14.491
57141W        W23682  22.105  23.310  14.516
57142W        W23683   2.918  32.744   0.024
57143W        W23684   7.542  31.301  14.850
57144W        W23685  29.113  19.656  12.614
57145W        W23686   8.246  14.703  13.297
57146W        W23687  43.019  25.561  11.593
57147W        W23688  32.430  31.957   4.379
57148W        W23689  25.163   4.651   1.427
57149W        W23690  36.646   2.339   9.787
57150W        W23691  41.773  17.777   1.169
57151W        W23692   5.118  13.835   4.606
57152W        W23693  11.631  18.119  12.924
57153W        W23694  33.028   6.421   0.936
57154W        W23695  17.210  32.594  12.674
57155W        W23696  34.330  27.517   4.116
57156W        W23697  23.267   4.982   2.689
57157W        W23698   5.841  37.851  14.451
57158W        W23699   8.391  35.411  14.719
57159W        W23700  15.897  11.340  12.814
57160W        W23701  40.370  34.341  12.570
57161W        W23702  34.957  25.114  12.406
57162W        W23703  32.012   6.274  10.457
57163W        W23704   2.210  39.422  10.538
57164W        W23705  26.904  12.248   0.567
57165W        W23706   1.906  31.699  10.192
57166W        W23707   4.223   3.168   4.653
57167W        W23708  31.033  12.706   2.647
57168W        W23709  22.738  34.104   2.457
57169W        W23710  12.414  10.140   4.295
57170W        W23711  30.765  13.789   3.750
57171W        W23712  33.543   1.282   3.979
57172W        W23713  22.553  20.493   4.312
57173W        W23714   8.220  21.045  12.537
57174W        W23715  24.519  12.695   4.012
57175W        W23716   0.368  34.571   3.126
57176W        W23717   9.259  35.668   1.893
57177W        W23718  11.841  23.439   0.373
57178W        W23719  35.511  15.325   4.766
57179W        W23720  36.917   3.023   0.350
57180W        W23721  15.677  12.773   0.941
57181W        W23722   1.404  29.503  13.905
57182W        W23723  14.409  37.418  12.370
57183W        W23724   2.814  16.804   2.108
57184W        W23725  10.604  34.993  13.977
57185W        W23726  27.457  20.168   1.763
57186W        W23727  25.932  11.087   0.112
57187W        W23728  14.810  38.532  13.854
57188W        W23729  32.984   9.237  14.942
57189W        W23730  27.452  23.657  11.093
57190W        W23731  22.662  33.573  13.188
57191W        W23732  11.843   1.870  12.913
57192W        W23733  27.060  28.580  14.681
57193W        W23734  40.488  11.551  14.412
57194W        W23735  27.734   1.917   1.284
57195W        W23736  16.967  25.240   2.304
57196W        W23737  22.301  11.671  11.708
57197W        W23738  30.344  20.752  11.230
57198W        W23739   8.872  18.492  11.096
57199W        W23740  17.263  44.240   0.314
57200W        W23741  37.557  37.810  14.632
57201W        W23742  33.588  44.490  13.439
57202W        W23743  25.149  34.211   0.500
57203W        W23744  42.449   7.758   1.616
57204W        W23745   9.146  36.045  13.122
57205W        W23746  23.681  14.428   2.224
57206W        W23747  30.450  31.394   0.317
57207W        W23748   7.118  12.241   3.845
57208W        W23749  38.963  13.209   5.556
57209W        W23750  30.366  34.067   4.304
57210W        W23751   7.030  16.106  14.482
57211W        W23752  22.620  29.723  10.041
57212W        W23753  35.635  39.255  13.061
57213W        W23754   6.236  39.976  12.551
57214W        W23755  31.010   9.528   4.386
57215W        W23756   6.335  11.966  14.821
57216W        W23757   5.248  26.119   0.482
57217W        W23758  42.180  40.398   1.788
57218W        W23759   5.202   2.013   0.663
57219W        W23760  32.627  36.309   2.473
57220W        W23761  32.403  20.023   5.090
57221W        W23762  44.996   4.227   1.267
57222W        W23763   7.266  34.110   2.283
57223W        W23764   5.328  13.556   1.758
57224W        W23765  25.295  41.945   1.509
57225W        W23766  19.757  17.752   2.430
57226W        W23767  31.906  33.491   1.793
57227W        W23768  43.260  27.959   3.342
57228W        W23769  11.103  33.370  12.118
57229W        W23770  10.229  10.733  14.713
57230W        W23771  26.487  24.977  11.555
57231W        W23772   8.167  19.101  13.852
57232W        W23773  22.586  28.224   1.009
57233W        W23774  39.560  28.187   2.845
57234W        W23775  17.317  37.060   3.727
57235W        W23776  13.209  20.161  14.453
57236W        W23777  44.400  41.850   4.441
57237W        W23778  21.036  22.264   0.425
57238W        W23779   6.122  26.071   3.167
57239W        W23780   6.237  30.517  11.722
57240W        W23781   5.088   0.677   2.532
57241W        W23782   4.853  37.361  12.051
57242W        W23783  27.412  22.167   0.346
57243W        W23784   0.059  31.219  14.366
57244W        W23785  43.370  23.025  13.918
57245W        W23786  20.773  38.620   3.691
57246W        W23787  18.128  23.317   3.672
57247W        W23788  28.746  24.503  10.686
57248W        W23789   4.520  37.324   1.243
57249W        W23790  39.239  43.989  12.630
57250W        W23791  11.267  27.075   4.868
57251W        W23792  32.475  19.597   0.091
57252W        W23793   2.536   2.994   5.695
57253W        W23794  35.895  39.429  14.919
57254W        W23795  13.375  20.806   4.260
57255W        W23796  13.075  33.232   2.331
57256W        W23797   2.600  29.488  12.983
57257W        W23798  24.894  33.142   1.193
57258W        W23799  20.818  22.683   4.653
57259W        W23800  43.424  24.664  14.866
57260W        W23801   0.313  19.633  12.908
57261W        W23802   9.238   1.936  12.650
57262W        W23803  38.620  14.850   5.031
57263W        W23804  39.821   7.667  13.051
57264W        W23805  16.904  33.947   1.625
57265W        W23806  14.092  30.017   1.839
57266W        W23807  39.736  29.412  11.078
57267W        W23808  10.706  34.356   0.519
57268W        W23809  20.909  10.411   1.212
57269W        W23810  27.495   1.032  12.986
57270W        W23811  12.820  25.819  12.129
57271W        W23812  19.551  28.126   1.182
57272W        W23813  39.805   9.980  12.985
57273W        W23814  13.526  13.954  14.114
57274W        W23815  15.549   0.864   2.154
57275W        W23816   6.739   1.701   1.444
57276W        W23817  35.180   7.703   2.035
57277W        W23818  33.046  13.640   2.117
57278W        W23819  21.699  19.510   2.794
57279W        W23820  39.976   3.615  12.745
57280W        W23821  37.831  16.235  13.408
57281W        W23822  10.356  25.744  12.114
57282W        W23823   1.944  13.259   2.190
57283W        W23824  43.305  14.694   1.714
57284W        W23825  14.608  35.500   4.592
57285W        W23826  10.562  11.260  10.303
57286W        W23827  20.751  11.194   1.868
57287W        W23828   2.368  40.555  12.155
57288W        W23829  17.530  10.171  11.262
57289W        W23830  15.653  27.010   0.380
57290W        W23831  40.324  32.836  13.499
57291W        W23832  12.292  16.281   2.152
57292W        W23833  11.330  22.439   1.495
57293W        W23834  25.183  24.115   0.918
57294W        W23835   8.904  16.986  13.069
57295W        W23836  15.596  43.788   2.298
57296W        W23837   7.842  23.163  13.918
57297W        W23838  21.780  20.035  14.813
57298W        W23839  29.558  24.271   2.285
57299W        W23840  13.836  18.427  13.042
57300W        W23841  36.427  18.653   1.134
57301W        W23842  13.681   3.024   0.448
57302W        W23843   1.424  30.836   5.234
57303W        W23844  37.485  28.964   0.873
57304W        W23845  31.023  12.781   1.151
57305W        W23846  44.144   4.315   0.922
57306W        W23847   5.838  27.382  13.381
57307W        W23848  33.393   9.077   3.548
57308W        W23849  29.514  35.642  14.829
57309W        W23850   2.517  43.476  12.157
57310W        W23851   3.862  36.409  14.710
57311W        W23852  28.779  11.339  12.946
57312W        W23853  12.677  37.724  14.027
57313W        W23854  28.562  21.643  11.034
57314W        W23855   1.731  30.947  11.582
57315W        W23856   3.051  35.606  11.063
57316W        W23857  17.614   3.775   1.084
57317W        W23858  44.382  41.422  14.012
57318W        W23859  27.546  37.449   3.200
57319W        W23860  12.633  36.212   1.755
57320W        W23861   8.705   5.445   4.495
57321W        W23862  24.584  14.622   3.296
57322W        W23863  44.814   6.941   1.924
57323W        W23864   4.487   9.753  13.856
57324W        W23865  27.653   7.644  14.990
57325W        W23866   8.577  24.688   3.556
57326W        W23867   6.681  44.411   4.074
57327W        W23868  18.659  20.504  13.569
57328W        W23869  17.860  18.027  10.954
57329W        W23870  38.965   3.099   1.360
57330W        W23871   1.710  29.169  12.086
57331W        W23872  44.865  29.246   2.271
57332W        W23873  36.912  28.907   3.336
57333W        W23874  31.666   1.209   3.361
57334W        W23875   8.824   3.350   0.487
57335W        W23876  43.056  39.026   1.210
57336W        W23877  16.202  22.092  11.711
57337W        W23878   1.668  28.466   0.471
57338W        W23879   4.816   2.010  11.688
57339W        W23880  10.669  17.050  14.264
57340W        W23881  22.187  23.411  12.893
57341W        W23882  35.466   4.022  14.474
57342W        W23883  24.617  41.634  14.821
57343W        W23884  18.612   7.488   0.737
57344W        W23885  30.010  26.362  11.575
57345W        W23886  40.001  29.228  12.054
57346W        W23887  30.534  21.502   0.491
57347W        W23888   1.262   9.696   3.855
57348W        W23889  22.120   8.883   4.994
57349W        W23890  14.934  26.500  11.654
57350W        W23891   8.716  10.449  13.385
57351W        W23892   5.511   8.237  13.508
57352W        W23893  30.290   5.235  13.596
57353W        W23894  41.625  39.519  12.015
57354W        W23895   9.816  20.475   0.861
57355W        W23896  28.387  11.150  14.897
57356W        W23897   6.433   4.914  14.924
57357W        W23898  37.591  38.473  10.746
57358W        W23899  36.027  33.537  10.462
57359W        W23900  35.440   0.190  14.808
57360W        W23901  31.028  40.499  12.910
57361W        W23902  15.534  32.841  14.695
57362W        W23903  11.827  24.144  11.956
57363W        W23904  33.115  35.623  12.237
57364W        W23905  30.572   2.874   3.885
57365W        W23906  36.535  16.029  14.537
57366W        W23907  10.956  31.948  10.723
57367W        W23908  40.305   9.859   2.805
57368W        W23909  40.364  15.038  14.174
57369W        W23910  39.210  23.241  11.491
57370W        W23911   8.795   2.817   0.462
57371W        W23912   7.814  17.568   2.927
57372W        W23913   7.560  23.549  14.744
57373W        W23914   0.739  14.743   3.624
57374W        W23915  19.068  35.095   0.252
57375W        W23916  39.126  10.359  12.593
57376W        W23917  35.454  14.617   0.545
57377W        W23918  17.605  10.116  14.315
57378W        W23919   1.249  13.667  12.159
57379W        W23920  31.894  26.372   2.756
57380W        W23921  19.258  44.504   4.422
57381W        W23922  33.947  16.732  13.962
57382W        W23923   5.353  13.335  12.024
57383W        W23924  13.351  35.013  13.508
57384W        W23925  29.185  23.457  13.273
57385W        W23926  31.068  21.739   3.641
57386W        W23927   1.325  41.790   4.623
57387W        W23928  11.260  38.623   5.105
57388W        W23929  23.708  33.351   3.225
57389W        W23930   0.911   3.716   0.751
57390W        W23931  43.470   6.092  11.514
57391W        W23932   4.800  33.354  10.477
57392W        W23933  22.015  31.618  13.506
57393W        W23934  17.618  18.042  13.340
57394W        W23935  25.768  15.901   5.026
57395W        W23936  10.488  22.930   4.137
57396W        W23937  21.479  39.006  13.888
57397W        W23938  42.281  32.392  14.840
57398W        W23939  12.393  20.062  13.319
57399W        W23940   6.118  43.085   2.749
57400W        W23941   4.174   5.197   1.369
57401W        W23942  25.034  39.648  11.075
57402W        W23943  32.499   7.703  11.886
57403W        W23944  24.693  44.924  12.530
57404W        W23945   3.966  43.205  10.647
57405W        W23946  38.357  28.298  13.105
57406W        W23947  41.126  12.944  11.651
57407W        W23948  15.398  27.933   0.486
57408W        W23949  27.463  24.630  11.946
57409W        W23950  34.287  22.109  14.210
57410W        W23951  30.230  38.063   1.944
57411W        W23952  37.792   9.124   4.475
57412W        W23953  20.675  18.622   4.768
57413W        W23954  21.532  10.146  13.076
57414W        W23955  20.496  15.887  11.657
57415W        W23956  22.569   5.894   1.950
57416W        W23957  25.749  27.322   2.196
57417W        W23958  17.278   1.534   2.041
57418W        W23959  28.682  23.855   1.934
57419W        W23960   7.130   4.455   2.714
57420W        W23961  33.510   0.531  14.370
57421W        W23962  14.373   6.009   2.304
57422W        W23963  31.671  29.435   4.837
57423W        W23964  11.879  26.201   0.591
57424W        W23965  39.965  16.499   2.305
57425W        W23966   8.495  27.597   2.360
57426W        W23967  23.132  30.476   1.436
57427W        W23968   3.271  14.271   2.781
57428W        W23969   9.796   3.312  14.044
57429W        W23970  22.191   9.266   4.159
57430W        W23971  12.376  44.283   1.746
57431W        W23972  30.519   2.486  12.557
57432W        W23973  15.367   3.973   4.280
57433W        W23974  32.049   0.293   3.314
57434W        W23975  42.792  27.654  13.426
57435W        W23976  32.018   6.228   2.376
57436W        W23977  25.001  16.573   4.387
57437W        W23978  10.188  24.754   0.452
57438W        W23979  24.533  27.036   4.408
57439W        W23980  40.809  42.740   2.820
57440W        W23981  34.866  26.047   1.908
57441W        W23982   9.746  31.658  10.702
57442W        W23983  10.774  31.436   4.404
57443W        W23984  43.277  15.088   1.380
57444W        W23985  24.788  13.722   0.596
57445W        W23986  29.990  42.533   2.409
57446W        W23987  37.777   4.768   1.215
57447W        W23988  25.649  23.035   4.679
57448W        W23989   2.648   0.802   1.603
57449W        W23990  23.628  27.051   0.450
57450W        W23991  23.053  29.665  10.550
57451W        W23992  11.645  11.820   0.494
57452W        W23993  41.398  42.309   0.783
57453W        W23994  44.299  34.172   4.024
57454W        W23995  38.974  10.883  13.480
57455W        W23996  44.334  44.557   2.809
57456W        W23997  11.345  35.723  10.415
57457W        W23998  36.599  24.187   3.159
57458W        W23999   0.789  19.556   3.144
57459W        W24000   6.952  25.048   3.265
57460W        W24001   2.184   1.300  11.837
57461W        W24002   6.090   1.021  10.778
57462W        W24003  31.129  39.268  10.706
57463W        W24004  44.054   8.195  13.977
57464W        W24005   2.327  22.512   4.559
57465W        W24006  28.465  38.412  13.326
57466W        W24007  19.701  30.164  13.464
57467W        W24008   8.261  26.625  14.393
57468W        W24009  13.833  10.379   4.912
57469W        W24010  38.898  26.590   9.889
57470W        W24011  20.176   8.747   2.138
57471W        W24012  25.195  11.710   0.348
57472W        W24013  22.010  13.174  10.228
57473W        W24014   2.063  25.029  12.041
57474W        W24015  32.197  17.611  14.795
57475W        W24016   5.240  32.926   5.426
57476W        W24017  14.327  29.941  13.942
57477W        W24018  26.024  40.124  14.334
57478W        W24019  33.034   9.713   3.140
57479W        W24020  18.032  23.771   4.934
57480W        W24021  18.277  20.971  10.746
57481W        W24022   1.246  28.596  13.574
57482W        W24023  11.709   5.861   4.513
57483W        W24024   8.735   9.673   2.405
57484W        W24025  33.772   4.517  12.059
57485W        W24026  37.605  34.156   1.345
57486W        W24027  10.938  44.030  11.635
57487W        W24028  14.826  30.681  12.040
57488W        W24029   5.623  27.535   3.137
57489W        W24030  19.226  34.908  13.336
57490W        W24031   0.169  35.200   0.880
57491W        W24032   3.962   2.680  11.268
57492W        W24033  25.680  28.569  12.169
57493W        W24034   5.435  12.562  12.599
57494W        W24035  33.248  18.043  11.104
57495W        W24036  21.533  35.363   0.877
57496W        W24037   4.442  18.142  10.670
57497W        W24038  34.023  26.156   2.465
57498W        W24039  15.192  19.269   4.568
57499W        W24040  22.529  34.243  10.873
57500W        W24041  16.371  17.462  12.506
57501W        W24042  10.886   0.214   1.742
57502W        W24043  43.879   0.521  13.874
57503W        W24044  15.258  36.220  14.871
57504W        W24045  14.964   3.539   3.630
57505W        W24046  36.047  16.151   4.528
57506W        W24047  38.947   7.585   4.575
57507W        W24048  34.516   4.832   4.331
57508W        W24049   9.459  11.787   0.489
57509W        W24050   0.971  36.092  13.987
57510W        W24051  27.599  39.993  12.610
57511W        W24052   0.046   3.829   5.383
57512W        W24053   2.009  40.010  11.409
57513W        W24054   5.567  36.649   3.450
57514W        W24055  29.220  10.137  10.665
57515W        W24056   9.619   1.213   0.111
57516W        W24057  40.423  29.733  14.239
57517W        W24058  38.762  33.403   2.207
57518W        W24059  39.616  34.591  10.787
57519W        W24060  16.270  42.211   2.545
57520W        W24061   6.473  35.075  11.951
57521W        W24062   7.171  40.883   0.474
57522W        W24063  24.464  37.005   4.166
57523W        W24064  15.826   2.057  12.652
57524W        W24065   2.911  38.094   3.196
57525W        W24066  25.199  23.987   3.602
57526W        W24067  33.263  35.019  12.966
57527W        W24068   5.759  37.441   0.724
57528W        W24069  13.852  23.490   1.404
57529W        W24070   9.128  16.634  14.912
57530W        W24071   2.762  44.195   9.738
57531W        W24072  20.787   7.866  10.962
57532W        W24073  26.266   8.247   3.542
57533W        W24074  15.167  25.986  14.966
57534W        W24075  39.183  11.865   3.043
57535W        W24076  25.091  41.235  12.933
57536W        W24077  25.227  30.761   0.718
57537W        W24078  18.138  41.316  13.529
57538W        W24079  31.172  32.616  12.794
57539W        W24080  23.963   4.309   2.648
57540W        W24081  13.081  37.480  12.293
57541W        W24082  13.233   3.061   0.838
57542W        W24083   1.033   3.402   1.339
57543W        W24084  20.782  42.368  13.333
57544W        W24085  31.350  15.969  14.917
57545W        W24086  33.701  11.624   2.707
57546W        W24087   9.850  41.183   0.248
57547W        W24088  25.140  18.633   2.868
57548W        W24089   3.202   4.344   3.287
57549W        W24090  27.091  12.833  11.151
57550W        W24091  25.795   9.461   3.700
57551W        W24092  38.066  13.119   0.490
57552W        W24093   6.505  23.574  13.849
57553W        W24094  39.383  18.098   2.244
57554W        W24095  29.643  17.161   0.767
57555W        W24096  30.159  32.922  14.539
57556W        W24097  40.677  10.521   0.816
57557W        W24098  25.929   6.243   3.201
57558W        W24099   8.426   9.269   2.667
57559W        W24100  22.214  32.626  14.737
57560W        W24101  21.686  43.758  12.901
57561W        W24102  44.432   0.507   2.758
57562W        W24103   0.759  33.901   1.464
57563W        W24104   3.809  13.554  12.568
57564W        W24105   1.963  20.657   0.385
57565W        W24106  38.239  13.062   1.397
57566W        W24107  17.519  38.769   3.299
57567W        W24108  14.878   6.500   3.660
57568W        W24109   0.391  36.116   4.045
57569W        W24110   4.361  29.484   1.413
57570W        W24111  15.541  22.453   0.270
57571W        W24112  13.918  38.508  13.036
57572W        W24113  38.102   6.266  12.241
57573W        W24114  12.757  14.807  14.049
57574W        W24115  41.990  26.064   2.013
57575W        W24116  21.426   0.385  13.319
57576W        W24117  29.553   7.345   3.567
57577W        W24118  11.814   5.674   3.235
57578W        W24119  43.098   4.629   4.600
57579W        W24120  36.523  27.630   3.694
57580W        W24121  23.303  25.996   1.666
57581W        W24122  23.337   9.795  10.428
57582W        W24123  30.195  16.070   1.692
57583W        W24124   2.913  27.920   0.861
57584W        W24125  17.027  37.585  13.954
57585W        W24126  41.127  26.563   1.936
57586W        W24127   8.650   9.103  13.446
57587W        W24128  15.831  28.856  13.923
57588W        W24129  43.021  27.185   0.366
57589W        W24130  24.442   3.546  12.937
57590W        W24131  13.682  15.805   2.674
57591W        W24132  28.534   4.339  10.576
57592W        W24133  23.526  43.923  13.333
57593W        W24134  23.660   1.606  11.315
57594W        W24135  10.575  41.921  12.428
57595W        W24136  35.681   6.730   2.438
57596W        W24137  27.568  41.543  13.543
57597W        W24138  12.146  15.927  14.460
57598W        W24139  39.611  11.682   4.527
57599W        W24140  14.751  28.289   1.003
57600W        W24141  35.668  24.018   3.414
57601W        W24142  42.389  14.309   2.952
57602W        W24143  21.285  38.326  14.287
57603W        W24144  36.080  41.268   0.314
57604W        W24145  42.773  10.352  10.801
57605W        W24146  35.020  41.967  13.532
57606W        W24147  35.079  30.991   0.594
57607W        W24148  25.479  20.544   4.954
57608W        W24149  20.758  24.087  12.928
57609W        W24150  32.614  15.115  13.012
57610W        W24151   3.336  10.707  12.486
57611W        W24152   9.791  39.567  14.339
57612W        W24153  12.062  40.171   0.949
57613W        W24154  31.074   5.128  11.593
57614W        W24155   1.544  25.043  12.074
57615W        W24156  10.404   8.223   1.960
57616W        W24157   5.068  31.979   3.431
57617W        W24158  14.448  32.694   1.313
57618W        W24159  26.031  41.874   3.576
57619W        W24160  26.244   8.397  14.047
57620W        W24161   8.146  23.159   0.976
57621W        W24162  13.079   3.888  11.997
57622W        W24163  19.496  33.047  11.663
57623W        W24164  16.350  16.541  10.270
57624W        W24165  34.158   6.318   2.889
57625W        W24166   1.271  12.076   0.424
57626W        W24167  12.090   9.138  11.578
57627W        W24168  27.801  33.368   9.952
57628W        W24169   7.328   5.271  12.009
57629W        W24170  24.201  12.151  13.071
57630W        W24171  43.725  11.586   2.376
57631W        W24172  24.254  31.903  11.613
57632W        W24173  16.355  32.232   4.958
57633W        W24174   0.989   8.828  14.570
57634W        W24175  16.623  21.696  10.787
57635W        W24176  10.107  28.596  14.968
57636W        W24177   1.664  18.095  11.072
57637W        W24178  33.590  27.501   2.887
57638W        W24179  15.304   5.218  11.900
57639W        W24180  12.766  29.187  13.396
57640W        W24181  31.235  26.111  14.957
57641W        W24182  18.989  15.187   0.874
57642W        W24183  44.120  30.299  14.490
57643W        W24184   7.582  37.666   4.509
57644W        W24185  23.106  24.747  14.270
57645W        W24186  44.379   5.876   0.075
57646W        W24187  20.690  19.340   3.661
57647W        W24188  24.508  19.166  13.342
57648W        W24189  33.143  27.868  11.738
57649W        W24190  26.695  34.466  13.423
57650W        W24191  13.134  22.653  14.978
57651W        W24192  39.869  15.481   2.414
57652W        W24193   5.451  27.732   3.694
57653W        W24194  22.894   1.905   0.769
57654W        W24195   9.250  18.291  13.453
57655W        W24196  22.485  13.368  11.176
57656W        W24197  28.858   9.643  10.710
57657W        W24198  27.149  13.323   4.170
57658W        W24199  28.503  23.023  10.644
57659W        W24200  41.085   2.930   3.168
57660W        W24201  10.457  31.058   4.266
57661W        W24202  31.803   2.783  14.819
57662W        W24203  19.096  44.174   2.780
57663W        W24204  14.519  43.702  14.440
57664W        W24205   8.192  37.026  13.736
57665W        W24206  36.361  32.726  11.050
57666W        W24207  44.532  22.295  10.721
57667W        W24208  33.011  29.245  12.343
57668W        W24209  15.233   2.180   2.582
57669W        W24210  41.271  19.690   1.473
57670W        W24211  38.508  21.260   0.684
57671W        W24212  15.237   6.366  14.242
57672W        W24213  19.212  33.231  13.078
57673W        W24214  24.495  33.645  12.629
57674W        W24215  11.735  19.669   5.241
57675W        W24216  24.249  23.028   0.463
57676W        W24217   5.022  34.057   1.736
57677W        W24218   8.942  22.729  13.135
57678W        W24219  30.227   9.147  11.137
57679W        W24220  15.221  40.093   3.787
57680W        W24221   7.810   2.212   4.747
57681W        W24222  14.745  34.075   2.274
57682W        W24223  10.897  24.547  11.159
57683W        W24224  26.782  26.501   0.933
57684W        W24225   3.774   7.436   2.941
57685W        W24226  23.441  31.466  11.625
57686W        W24227  34.398  27.238   0.545
57687W        W24228  29.159   3.319  14.836
57688W        W24229  32.179  21.645  12.053
57689W        W24230  17.838  19.501  11.943
57690W        W24231  12.127  36.711  13.887
57691W        W24232  44.697  44.222  13.260
57692W        W24233  37.942  14.067   3.389
57693W        W24234  31.310  26.721  12.411
57694W        W24235  12.900   5.489  14.985
57695W        W24236  19.302  37.400  12.445
57696W        W24237  29.418  15.071  11.932
57697W        W24238  42.107  34.912   1.123
57698W        W24239  25.999  38.779  12.973
57699W        W24240  33.932  22.985   2.346
57700W        W24241  38.346  37.845  10.875
57701W        W24242  44.590  18.439   9.986
57702W        W24243   0.167  11.353  14.000
57703W        W24244  16.780  35.472   2.160
57704W        W24245  31.859   2.177   1.835
57705W        W24246  16.509  25.124   3.795
57706W        W24247  26.116  27.355  14.247
57707W        W24248  25.411   0.355  12.529
57708W        W24249  22.917  25.725  11.445
57709W        W24250  12.313  41.270  14.002
57710W        W24251  29.789  24.180  11.215
57711W        W24252  27.278   9.604  11.476
57712W        W24253  15.050   8.864   2.684
57713W        W24254  12.184  34.724  11.930
57714W        W24255  22.712  30.188   2.227
57715W        W24256   1.986  26.414  12.041
57716W        W24257  20.034  13.116  14.476
57717W        W24258  17.293   3.663  12.494
57718W        W24259  20.301   7.090  14.063
57719W        W24260  21.118  28.650  13.055
57720W        W24261   8.388  28.930  10.733
57721W        W24262  24.299   6.410  14.153
57722W        W24263   1.200  15.003  13.063
57723W        W24264   5.703  41.445  13.048
57724W        W24265   4.209  42.276   4.588
57725W        W24266   7.492  33.543  14.214
57726W        W24267  18.544  39.831   1.240
57727W        W24268  19.025   6.328  12.871
57728W        W24269   3.831  13.431   4.180
57729W        W24270   5.688  40.947   3.209
57730W        W24271  40.521  37.562  13.869
57731W        W24272   8.967  30.437  13.386
57732W        W24273  13.556   4.454  13.485
57733W        W24274  31.513   9.681   9.869
57734W        W24275   5.049  27.605  14.762
57735W        W24276  37.249  26.376   0.863
57736W        W24277  36.584  17.861   4.603
57737W        W24278   6.189  13.356  10.447
57738W        W24279  30.483  44.108   1.426
57739W        W24280  38.410  14.303   3.648
57740W        W24281  15.603  34.292  14.964
57741W        W24282  14.180   3.465  12.587
57742W        W24283  14.319  17.272   1.772
57743W        W24284  10.359  22.812   0.448
57744W        W24285  13.606   9.403   4.794
57745W        W24286  40.354  23.524   4.598
57746W        W24287  33.065  31.487  10.540
57747W        W24288  36.382  42.475  11.180
57748W        W24289  44.409  26.112  10.538
57749W        W24290  10.975  29.662  10.998
57750W        W24291  19.660  16.322   0.706
57751W        W24292  26.869  11.195   2.954
57752W        W24293  44.902  23.499   0.394
57753W        W24294  28.749  21.728   0.824
57754W        W24295  14.476  21.468   3.744
57755W        W24296  39.149  28.191  13.538
57756W        W24297  30.785  31.745   1.691
57757W        W24298  10.038  30.640  10.708
57758W        W24299  39.041  42.456  13.359
57759W        W24300   5.953   8.665   0.846
57760W        W24301  44.119  13.333   3.953
57761W        W24302  39.382  42.151  14.832
57762W        W24303   2.463  24.111  11.086
57763W        W24304  17.262  29.674  12.049
57764W        W24305  16.703   4.620  11.084
57765W        W24306  34.925  18.125   0.247
57766W        W24307  42.905   7.285   4.550
57767W        W24308  42.696  36.058   4.873
57768W        W24309  23.984  17.218  13.869
57769W        W24310  40.906  33.247  12.426
57770W        W24311  11.877  23.554  14.451
57771W        W24312   8.183  28.542   2.442
57772W        W24313  17.521  39.100   3.690
57773W        W24314  14.637  33.980   3.786
57774W        W24315   3.340  18.204  14.282
57775W        W24316  25.376   8.206  11.368
57776W        W24317  10.331  18.748  11.071
57777W        W24318   6.602  37.299   3.741
57778W        W24319   7.453  12.870  14.416
57779W        W24320  42.348  19.466  13.642
57780W        W24321   4.899  13.086  11.192
57781W        W24322  21.027  35.499   2.825
57782W        W24323  22.065  18.763   4.490
57783W        W24324  44.285  24.593   2.690
57784W        W24325  34.066  41.034  11.257
57785W        W24326   4.741   7.080   1.443
57786W        W24327  32.495  16.730   1.477
57787W        W24328   1.251   6.174  14.084
57788W        W24329  41.298  34.476  12.837
57789W        W24330  10.706  26.757   4.212
57790W        W24331  30.515   4.862   4.029
57791W        W24332  32.013  15.825  14.020
57792W        W24333  43.756  39.327  10.539
57793W        W24334  31.043  33.869  13.404
57794W        W24335  14.630   0.341  13.746
57795W        W24336  41.857   5.193   2.062
57796W        W24337   0.935   5.798  13.441
57797W        W24338   2.983  44.431   1.894
57798W        W24339   4.896  43.427  13.817
57799W        W24340  17.835  38.006   2.902
57800W        W24341  17.536  11.680  13.116
57801W        W24342  16.814  33.357  11.573
57802W        W24343  28.341   9.747  10.659
57803W        W24344  30.451  34.983  12.517
57804W        W24345  20.998  22.131   3.176
57805W        W24346  39.216   9.295  14.421
57806W        W24347  22.474  23.576  11.496
57807W        W24348  39.882  40.242  12.529
57808W        W24349  19.798  18.996   5.069
57809W        W24350  34.158  22.536  14.517
57810W        W24351  26.955  13.235   3.008
57811W        W24352  30.214  29.693  13.971
57812W        W24353  40.812  32.551   0.475
57813W        W24354  36.327  12.753   2.430
57814W        W24355  20.599  32.522   2.092
57815W        W24356   2.528  43.769  12.955
57816W        W24357  28.089  17.184  14.897
57817W        W24358  20.568   5.129  14.339
57818W        W24359  10.236  22.730  13.997
57819W        W24360  21.195  17.822  13.059
57820W        W24361  30.905  44.318  14.439
57821W        W24362  23.522  28.120  12.217
57822W        W24363  29.714   1.729   2.139
57823W        W24364  35.563  34.952   1.386
57824W        W24365   6.691   1.245   1.748
57825W        W24366  20.161  43.313   2.701
57826W        W24367   3.325   5.154  10.209
57827W        W24368  34.905  36.641   2.961
57828W        W24369  34.008  34.782  14.455
57829W        W24370  23.999   6.906   2.264
57830W        W24371  19.141   6.528   0.292
57831W        W24372  20.681  19.273  14.985
57832W        W24373   2.560  13.153   3.595
57833W        W24374   7.345   4.785  10.683
57834W        W24375  42.707   6.390   0.391
57835W        W24376  22.796  20.610   0.874
57836W        W24377   1.658   6.880  11.205
57837W        W24378  40.215  40.747  12.768
57838W        W24379  17.079  41.750   3.285
57839W        W24380  32.898  22.561  10.516
57840W        W24381  41.806   4.298   2.348
57841W        W24382  38.615  18.326   2.715
57842W        W24383  17.024  11.330  14.435
57843W        W24384  28.913  42.430   1.214
57844W        W24385  16.622   2.213   1.844
57845W        W24386  25.968   6.343   0.529
57846W        W24387  26.297  26.506   0.751
57847W        W24388   6.891  44.746  13.762
57848W        W24389  12.429  37.855  11.140
57849W        W24390  24.210  38.945   5.447
57850W        W24391  36.718   1.146   0.165
57851W        W24392  37.550  21.464  12.764
57852W        W24393  36.177  32.366  12.981
57853W        W24394  12.811   7.403   3.224
57854W        W24395  37.356  25.312  10.852
57855W        W24396  28.488  42.846   2.368
57856W        W24397  12.784  13.399   1.298
57857W        W24398  37.557  17.559   3.000
57858W        W24399  15.572  28.897  12.474
57859W        W24400  32.931  32.025  13.832
57860W        W24401  19.061   1.390   4.354
57861W        W24402  19.595  14.821  11.156
57862W        W24403  36.931   6.367   1.224
57863W        W24404  10.198   7.392   2.287
57864W        W24405  20.695  18.853  10.911
57865W        W24406   5.361   7.436   0.443
57866W        W24407   3.056  19.565   3.674
57867W        W24408  37.044  18.131   4.564
57868W        W24409   4.495   4.009  12.843
57869W        W24410  31.223  40.999   1.433
57870W        W24411  38.556  13.188  12.181
57871W        W24412  41.978  27.937   3.694
57872W        W24413  12.243  34.867  12.842
57873W        W24414  31.193  26.057  13.934
57874W        W24415   6.765  43.111  10.411
57875W        W24416  15.868  16.462   1.328
57876W        W24417   0.428  35.042  13.146
57877W        W24418  31.961  43.965   1.414
57878W        W24419  31.113  14.802  14.651
57879W        W24420   5.282  36.057   4.628
57880W        W24421  34.959  13.154   3.653
57881W        W24422  41.808  37.827  13.001
57882W        W24423  19.065   5.277  14.548
57883W        W24424   2.171   0.770   1.844
57884W        W24425  32.610  15.813   1.896
57885W        W24426  40.893  15.205   2.847
57886W        W24427  24.139  34.548  10.840
57887W        W24428  40.514  39.716  12.963
57888W        W24429  19.649  20.571   2.858
57889W        W24430  43.738  33.714  11.792
57890W        W24431  39.337  42.208  11.159
57891W        W24432  39.490   7.648   1.825
57892W        W24433  33.058  12.378   3.790
57893W        W24434   0.433  19.812  14.258
57894W        W24435  24.238  22.503  11.848
57895W        W24436  30.714  16.269  13.799
57896W        W24437  40.517   5.361   0.847
57897W        W24438  12.029   3.449  10.786
57898W        W24439  10.729  42.020   3.676
57899W        W24440  32.849   5.092   1.462
57900W        W24441  31.016  15.818   5.082
57901W        W24442   5.314  44.929   1.668
57902W        W24443  39.496  41.077  12.114
57903W        W24444   7.853  34.904   2.381
57904W        W24445  31.986  24.197   1.210
57905W        W24446  15.849  16.680  10.360
57906W        W24447  31.524  22.472  13.298
57907W        W24448   7.594  33.534  10.668
57908W        W24449   9.063  26.244  11.161
57909W        W24450  38.625  32.028  12.822
57910W        W24451  18.609  43.254  11.640
57911W        W24452  18.829  40.907   0.544
57912W        W24453   4.895  28.479   2.824
57913W        W24454  19.039   7.068   1.450
57914W        W24455  22.314  17.778   0.043
57915W        W24456  40.831  25.993  13.853
57916W        W24457   4.879   8.401  12.490
57917W        W24458  20.671   1.861  13.592
57918W        W24459  34.659  36.823   0.761
57919W        W24460  19.787  26.522   0.838
57920W        W24461   8.353  14.694  13.797
57921W        W24462  38.420  21.033   4.502
57922W        W24463  14.381  14.247  13.120
57923W        W24464  26.437  12.845   4.005
57924W        W24465  13.719   5.319   2.577
57925W        W24466  29.773  28.563  14.848
57926W        W24467   6.213  38.206  14.455
57927W        W24468  33.129  42.028  11.390
57928W        W24469   2.996  41.389   4.623
57929W        W24470  25.085  29.870   0.879
57930W        W24471  34.638   3.972  11.896
57931W        W24472  27.522  38.445   3.084
57932W        W24473  38.882  39.616   2.200
57933W        W24474  39.481  10.826  12.770
57934W        W24475   0.859  35.928  12.861
57935W        W24476  12.554  44.984  11.540
57936W        W24477  15.696  17.685   0.769
57937W        W24478  15.248   6.840  13.987
57938W        W24479   6.842  30.519   0.982
57939W        W24480   9.105  24.585  12.847
57940W        W24481   4.771  12.867   4.597
57941W        W24482  10.306  43.836  14.451
57942W        W24483   1.114  41.184   2.696
57943W        W24484  39.666   5.607  12.316
57944W        W24485  36.787  42.071  11.000
57945W        W24486   5.509  36.444   1.635
57946W        W24487  23.285   5.422  14.018
57947W        W24488  34.649  32.301   1.995
57948W        W24489   0.145  44.244  11.107
57949W        W24490  14.206   5.462  14.017
57950W        W24491   9.803   7.504   1.124
57951W        W24492  22.648  38.398   0.791
57952W        W24493  30.479  29.994  14.351
57953W        W24494  23.936  11.865  14.408
57954W        W24495   7.140  31.829  13.020
57955W        W24496   7.914   0.212  14.690
57956W        W24497  25.155  44.039  12.374
57957W        W24498  28.481  13.336  12.635
57958W        W24499  28.703  12.383  12.893
57959W        W24500   4.016  34.365  11.076
57960W        W24501  44.331  33.457   3.302
57961W        W24502  21.071  22.672   5.114
57962W        W24503   5.303   6.818   4.565
57963W        W24504  38.126  39.534   0.544
57964W        W24505  13.760  32.322   4.511
57965W        W24506  35.147   2.822  11.228
57966W        W24507  24.309   1.898   2.294
57967W        W24508   2.927  14.741   2.306
57968W        W24509  21.006  20.212  12.613
57969W        W24510  31.963  18.576   4.561
57970W        W24511  18.040   6.142   2.799
57971W        W24512  42.390  39.873  11.713
57972W        W24513  43.332  43.572   0.482
57973W        W24514  38.154  10.709  10.705
57974W        W24515  36.498   2.841   9.793
57975W        W24516  15.699  16.141   2.903
57976W        W24517  20.637  25.271   1.473
57977W        W24518  31.739  32.975   1.752
57978W        W24519  29.435   2.136   1.889
57979W        W24520  15.995   3.817   3.265
57980W        W24521   4.133  39.822   1.268
57981W        W24522  42.325  22.345  12.005
57982W        W24523  27.990  23.423  13.287
57983W        W24524  35.619  12.920  13.472
57984W        W24525  22.376  33.026   4.980
57985W        W24526   1.398  19.227   0.267
57986W        W24527  30.879   1.688  14.392
57987W        W24528  27.311  23.696   1.169
57988W        W24529  25.167   0.195   1.476
57989W        W24530  28.441   7.580   0.440
57990W        W24531   0.429  25.922  14.297
57991W        W24532  16.321  33.923   3.245
57992W        W24533  43.774   6.564  12.460
57993W        W24534  27.349   4.910  13.494
57994W        W24535  35.624   6.877   2.969
57995W        W24536  15.537  17.662  12.348
57996W        W24537  28.222  42.409   2.436
57997W        W24538  22.203  28.246   4.456
57998W        W24539  24.983   0.546  11.260
57999W        W24540  17.840   0.795   3.663
58000W        W24541   5.636  43.335   2.399
58001W        W24542   0.749  35.203  14.797
58002W        W24543  20.670  26.234  13.464
58003W        W24544  32.879  41.984   2.010
58004W        W24545  19.184  41.703  13.506
58005W        W24546  33.777   3.117  14.831
58006W        W24547  42.641  17.826   0.926
58007W        W24548   7.716  12.913  13.916
58008W        W24549   8.265  32.801   0.866
58009W        W24550   0.000  14.349   4.614
58010W        W24551  38.498  13.705  13.840
58011W        W24552   0.482  20.750   1.282
58012W        W24553   1.840  10.689  13.413
58013W        W24554  30.970  44.672   3.346
58014W        W24555  11.190  12.737  14.472
58015W        W24556  40.818  16.762  10.674
58016W        W24557  20.532  21.631  10.906
58017W        W24558  28.341  30.527  12.933
58018W        W24559  31.249  18.186   2.896
58019W        W24560  29.861  24.777  12.056
58020W        W24561  21.007  28.168   2.885
58021W        W24562  14.228  34.127  14.717
58022W        W24563  42.037  17.608   3.669
58023W        W24564  21.509  26.957  11.586
58024W        W24565  21.711  33.676   3.344
58025W        W24566  36.731  10.070   1.372
58026W        W24567  25.977   2.069  14.241
58027W        W24568  25.203   3.103  12.421
58028W        W24569  36.083  28.820   2.760
58029W        W24570  30.379   6.338  14.538
58030W        W24571  37.962   0.272  10.702
58031W        W24572   6.121   6.960  11.201
58032W        W24573   4.769  19.394  11.949
58033W        W24574  26.952   6.149   0.468
58034W        W24575  40.400  13.323   1.218
58035W        W24576  44.266  33.224   2.147
58036W        W24577  17.537  28.571   0.943
58037W        W24578   8.257  22.444  12.002
58038W        W24579  43.295  29.930  12.460
58039W        W24580   0.239  20.020   0.421
58040W        W24581   4.416   0.075   2.201
58041W        W24582   9.914  43.352   0.714
58042W        W24583   2.702  30.429  12.040
58043W        W24584  12.710  44.952   1.887
58044W        W24585  43.266  40.489   0.493
58045W        W24586   7.667  10.477   2.789
58046W        W24587  38.183  23.865   3.654
58047W        W24588  40.842  25.553   5.016
58048W        W24589  18.880   0.748   2.187
58049W        W24590  12.301  26.127   0.898
58050W        W24591   3.499  21.663  13.784
58051W        W24592  25.982  30.583  11.148
58052W        W24593  20.829  35.112   3.824
58053W        W24594  44.884  41.780  13.461
58054W        W24595  31.173  22.439  12.373
58055W        W24596  24.801  18.389  12.416
58056W        W24597  17.633   9.364  12.486
58057W        W24598  34.956  24.068   4.212
58058W        W24599   5.273  34.233   5.136
58059W        W24600  12.203  21.599   0.811
58060W        W24601  31.486  42.651  13.835
58061W        W24602   5.434  30.902   1.667
58062W        W24603  17.717  18.993  13.359
58063W        W24604  20.784   3.361   4.120
58064W        W24605   6.305  31.400  11.505
58065W        W24606  12.841  28.852  11.980
58066W        W24607   5.457  35.409  11.518
58067W        W24608   2.119  29.132   2.000
58068W        W24609  16.135  19.667   0.827
58069W        W24610  39.332   9.253   0.821
58070W        W24611  28.195  14.562  14.825
58071W        W24612  39.897   9.691   4.566
58072W        W24613  25.529  33.340  11.181
58073W        W24614  18.044   9.703  11.667
58074W        W24615  31.468  21.318  12.668
58075W        W24616  42.394   4.475  10.636
58076W        W24617  15.237  18.519   3.595
58077W        W24618  34.013  26.207  12.142
58078W        W24619  36.885  42.323  14.279
58079W        W24620   1.177  40.066  13.972
58080W        W24621  17.481  25.962  13.921
58081W        W24622  23.246   4.308  13.003
58082W        W24623   9.111   6.803  12.375
58083W        W24624  39.932  33.169  13.440
58084W        W24625   6.119  33.301  10.558
58085W        W24626  37.571  43.679   2.424
58086W        W24627   2.753   2.598   9.368
58087W        W24628  31.692   5.262  13.031
58088W        W24629  28.714  24.007  14.068
58089W        W24630  27.626  28.616   2.850
58090W        W24631   9.309  43.775   2.740
58091W        W24632  11.761  37.322   0.453
58092W        W24633  15.404  15.777  11.944
58093W        W24634   5.389  35.527   1.226
58094W        W24635   7.346  11.367   3.386
58095W        W24636   2.382  30.100   4.931
58096W        W24637   8.719   7.139  14.892
58097W        W24638   1.207  27.716   3.703
58098W        W24639  20.036   8.325   0.389
58099W        W24640  17.505  22.186   4.146
58100W        W24641   1.315   4.035  12.958
58101W        W24642   8.248  13.742   1.115
58102W        W24643  31.380  24.495   2.281
58103W        W24644  25.957  34.197   0.898
58104W        W24645   4.914  24.975  13.917
58105W        W24646   5.280  12.599  10.727
58106W        W24647  42.927  15.793  11.027
58107W        W24648  41.467  17.977  10.464
58108W        W24649  33.864  39.268   3.809
58109W        W24650  15.255  42.030   4.275
58110W        W24651  17.612  42.072  12.212
58111W        W24652  38.841  37.497   4.499
58112W        W24653  35.433  10.337   2.731
58113W        W24654  24.677  40.547   4.568
58114W        W24655  42.678  33.179  14.362
58115W        W24656  43.108  30.243   2.439
58116W        W24657  19.935  30.297  12.696
58117W        W24658  38.367  29.646  14.344
58118W        W24659  23.599  15.675  14.313
58119W        W24660  28.737  30.823   0.739
58120W        W24661  21.817  42.892   3.352
58121W        W24662   5.983  19.135  14.549
58122W        W24663  31.684  27.455  13.434
58123W        W24664  38.869  40.972   4.192
58124W        W24665  20.217   2.904  11.893
58125W        W24666  18.612   0.428  10.719
58126W        W24667  14.247  12.152  11.929
58127W        W24668  38.876  27.893   3.130
58128W        W24669  15.108  14.360   4.456
58129W        W24670  33.877  25.358  12.534
58130W        W24671  44.224   7.743   3.307
58131W        W24672   1.814  36.619  11.232
58132W        W24673   2.921  18.132   0.307
58133W        W24674  40.071  36.399  14.922
58134W        W24675  29.933  27.941  11.124
58135W        W24676  15.122  39.418   2.672
58136W        W24677  26.451  34.521  10.891
58137W        W24678  43.247  22.697  12.953
58138W        W24679   1.913   8.371  10.791
58139W        W24680  27.815   4.483   3.303
58140W        W24681  17.202  25.901   0.382
58141W        W24682  19.666  21.518   4.185
58142W        W24683  41.730  29.201   3.393
58143W        W24684  15.512  34.831   4.852
58144W        W24685   8.015  13.205   2.447
58145W        W24686   0.188  28.930   2.575
58146W        W24687   7.181  41.935   1.288
58147W        W24688  30.373  10.222  11.613
58148W        W24689   6.225  30.487   4.198
58149W        W24690  35.407  17.502  10.489
58150W        W24691  35.544   7.407   3.023
58151W        W24692  30.537  36.019   4.866
58152W        W24693  14.236  25.047  12.105
58153W        W24694  11.596   1.382   3.226
58154W        W24695  43.180   4.185  10.975
58155W        W24696   9.980  22.194   3.334
58156W        W24697  29.522  29.873  13.857
58157W        W24698  18.821  12.384  11.161
58158W        W24699   6.953   7.441   2.267
58159W        W24700   6.337  31.614   3.242
58160W        W24701   7.991  18.274   0.013
58161W        W24702   0.024  40.471   1.875
58162W        W24703  13.835  15.183  14.755
58163W        W24704  19.125   2.337   2.852
58164W        W24705   4.189   5.718   1.385
58165W        W24706   6.065  31.652   0.114
58166W        W24707  39.068  32.990   0.426
58167W        W24708  11.678  27.672  11.139
58168W        W24709  35.873   0.572  13.288
58169W        W24710  11.784  19.987  11.193
58170W        W24711  41.089   7.864   1.899
58171W        W24712  39.378  22.580   3.329
58172W        W24713  34.318  31.537   4.192
58173W        W24714   7.342  24.121  12.013
58174W        W24715  26.393   4.291  10.831
58175W        W24716   3.767  29.727   2.083
58176W        W24717  30.500  41.812  14.012
58177W        W24718  42.916  27.897  10.909
58178W        W24719  17.835  12.081  13.039
58179W        W24720   2.934  20.239   4.393
58180W        W24721  26.959  36.248   1.907
58181W        W24722  15.284  22.639  11.119
58182W        W24723  37.403  24.247   4.417
58183W        W24724   3.169   4.991  12.091
58184W        W24725  40.233  39.234   2.823
58185W        W24726  25.012  30.977   4.598
58186W        W24727  33.449  37.376  10.581
58187W        W24728  39.276  30.995   4.273
58188W        W24729  33.914  43.937  12.458
58189W        W24730  37.275  20.156  13.471
58190W        W24731  19.761  31.014   4.058
58191W        W24732  16.090   4.103   0.704
58192W        W24733  37.914  11.791   2.882
58193W        W24734  13.006  35.728   2.446
58194W        W24735  18.932  10.551  11.030
58195W        W24736  24.212  28.773   0.375
58196W        W24737  18.847   3.938   1.652
58197W        W24738  18.625  16.104  10.289
58198W        W24739  38.056  37.020  14.163
58199W        W24740  18.242  26.938  13.212
58200W        W24741  23.482  26.735   0.056
58201W        W24742  23.951  25.108  12.699
58202W        W24743   6.842  27.706  14.734
58203W        W24744  20.851  39.348  11.190
58204W        W24745  12.228  24.703   4.209
58205W        W24746  19.206  18.628  10.721
58206W        W24747   4.182  18.536  12.466
58207W        W24748  37.365  38.450   2.415
58208W        W24749   5.823  43.755   4.127
58209W        W24750   9.841   5.972   3.792
58210W        W24751  23.260  36.902  12.472
58211W        W24752  18.628  41.074  13.170
58212W        W24753  39.196   8.935  11.737
58213W        W24754  33.385   2.781  14.872
58214W        W24755  19.814  16.031  14.413
58215W        W24756  44.599  29.391  14.373
58216W        W24757  10.694   9.458  10.823
58217W        W24758  26.904   8.409   5.007
58218W        W24759  33.616  27.937   3.648
58219W        W24760  44.374   7.678   1.917
58220W        W24761  30.037  11.014   0.644
58221W        W24762  43.768  22.668   3.153
58222W        W24763  15.594  43.893   4.568
58223W        W24764  27.041  30.838  11.370
58224W        W24765   8.326  43.779  10.897
58225W        W24766  34.159  14.083  12.884
58226W        W24767   1.388  10.699  13.173
58227W        W24768   3.726   4.257   2.384
58228W        W24769  13.053  21.179   0.153
58229W        W24770   9.108  19.244   1.688
58230W        W24771  34.076  34.070   1.300
58231W        W24772  38.293  42.942  11.053
58232W        W24773  25.090  28.740  11.013
58233W        W24774   2.377   2.915   0.286
58234W        W24775  34.080  15.908  11.825
58235W        W24776  22.127   0.788   2.163
58236W        W24777  14.064  11.149   0.633
58237W        W24778   2.523  36.143  11.585
58238W        W24779  17.085  17.745   3.435
58239W        W24780  12.196  34.884   1.420
58240W        W24781  22.474  40.531   1.920
58241W        W24782  11.122  30.233   0.490
58242W        W24783   7.903   8.441   1.435
58243W        W24784  13.692  42.530  10.929
58244W        W24785   9.901   0.791  14.988
58245W        W24786  16.348   1.849   3.939
58246W        W24787  43.963  29.183  11.112
58247W        W24788  44.718  15.384   4.102
58248W        W24789  42.566  38.262  14.809
58249W        W24790  38.056  32.913  11.517
58250W        W24791   3.335  26.850  10.760
58251W        W24792  42.846  41.029   3.104
58252W        W24793  11.725  11.736  12.533
58253W        W24794   1.486  28.636   2.110
58254W        W24795  18.758  41.890   2.764
58255W        W24796  30.374  28.665   0.996
58256W        W24797  10.445  21.955   3.278
58257W        W24798  41.949   5.332  10.938
58258W        W24799  17.600   0.406  10.920
58259W        W24800  29.090  29.951   1.207
58260W        W24801  33.586  36.666   3.191
58261W        W24802  31.812  11.955  10.203
58262W        W24803  12.142  11.296  14.498
58263W        W24804  39.511  32.067   2.293
58264W        W24805  23.566  32.536   3.037
58265W        W24806  34.278  21.162  13.542
58266W        W24807  19.061   0.432  14.931
58267W        W24808  42.106   9.260  14.889
58268W        W24809  43.264  39.468   0.028
58269W        W24810   5.738  28.067  10.697
58270W        W24811   1.748  27.782   2.419
58271W        W24812  41.552   3.832   1.845
58272W        W24813   4.595  25.125   3.980
58273W        W24814   4.627  30.508   0.399
58274W        W24815  29.087  29.908  14.489
58275W        W24816  14.393  29.967   1.405
58276W        W24817  33.013  17.279   2.714
58277W        W24818   4.912  36.456   0.790
58278W        W24819  13.698  36.377  12.510
58279W        W24820  41.840  37.702   1.382
58280W        W24821  15.379   2.844  13.568
58281W        W24822  13.133   2.701   1.222
58282W        W24823  16.509   5.738  11.396
58283W        W24824  34.713  19.268   0.758
58284W        W24825  20.247  28.474  13.085
58285W        W24826  34.322  22.572   2.405
58286W        W24827  31.955  41.516  10.200
58287W        W24828  15.692  28.093   1.680
58288W        W24829  36.993  38.494   4.682
58289W        W24830  12.550   9.767  11.126
58290W        W24831  40.459  39.239  13.110
58291W        W24832   2.150  40.269  13.533
58292W        W24833  31.426  21.706   1.044
58293W        W24834  28.744  17.919  11.367
58294W        W24835  18.187  23.735   2.861
58295W        W24836  41.549  31.566   0.447
58296W        W24837   4.104  30.013   0.749
58297W        W24838  27.161  23.007   3.662
58298W        W24839  17.730  43.288   4.473
58299W        W24840  33.583   0.899   5.356
58300W        W24841  14.029  31.304  14.461
58301W        W24842  34.957  22.935  13.317
58302W        W24843  16.563  14.329  13.904
58303W        W24844  40.790  30.086  14.957
58304W        W24845  18.043   7.728  13.852
58305W        W24846  37.458   0.347  11.881
58306W        W24847  14.314  39.982  14.762
58307W        W24848  16.726  19.221   0.554
58308W        W24849   4.052  13.422   0.853
58309W        W24850   4.797  10.709  12.172
58310W        W24851  27.672  30.046  14.775
58311W        W24852  33.055  12.010   1.502
58312W        W24853  30.621  16.220   5.117
58313W        W24854   0.452  28.132   2.451
58314W        W24855   9.198  25.783  12.491
58315W        W24856  21.752  14.224   4.164
58316W        W24857  42.877  34.470  14.880
58317W        W24858  25.938  33.801   4.016
58318W        W24859  15.134  20.744   3.547
58319W        W24860  42.303  34.586  11.500
58320W        W24861  21.740  30.860  14.491
58321W        W24862  26.040   7.682   2.296
58322W        W24863  14.260  35.415   0.397
58323W        W24864  13.571  30.880  11.611
58324W        W24865  20.273  37.432  11.538
58325W        W24866  36.386  34.549  10.845
58326W        W24867  19.882   3.395  13.711
58327W        W24868  36.062  38.878  10.708
58328W        W24869  32.892   6.472  10.320
58329W        W24870  14.028   3.878   0.289
58330W        W24871  34.805  35.748  12.977
58331W        W24872  33.895  11.143  13.999
58332W        W24873  25.599  29.436  13.106
58333W        W24874  44.436  42.778   4.029
58334W        W24875   6.144  21.701   4.594
58335W        W24876   5.354  13.348  11.168
58336W        W24877  40.057  12.707   3.583
58337W        W24878  28.971  18.591  12.002
58338W        W24879  16.086  11.118   0.508
58339W        W24880  22.319   5.409  11.141
58340W        W24881  44.136  34.561   0.369
58341W        W24882  34.154   6.589  10.302
58342W        W24883  24.446  13.378  11.064
58343W        W24884  34.161  40.659   3.230
58344W        W24885   9.321  13.084   1.941
58345W        W24886  42.438   9.406   3.081
58346W        W24887  25.088   6.923   0.711
58347W        W24888   9.186  40.826   4.045
58348W        W24889  28.325  18.739   0.822
58349W        W24890   0.327  31.641   3.625
58350W        W24891  35.832  17.060  12.042
58351W        W24892  39.619  24.975  12.119
58352W        W24893  29.111  35.348   2.107
58353W        W24894  21.603  43.697   4.217
58354W        W24895  29.724  33.513   0.826
58355W        W24896  11.374  30.950  11.732
58356W        W24897  12.186   1.324  14.868
58357W        W24898  34.574   3.265   3.194
58358W        W24899  32.980  24.632   3.177
58359W        W24900   9.904  15.670  12.535
58360W        W24901  16.856  10.709   2.767
58361W        W24902  15.086  23.995   1.341
58362W        W24903  26.687  16.068   3.664
58363W        W24904  10.415  24.526  14.458
58364W        W24905  17.172  16.123  13.829
58365W        W24906  15.355  23.059  11.948
58366W        W24907   6.159  27.109   0.578
58367W        W24908  38.673  43.307   3.284
58368W        W24909  15.783  34.128   2.340
58369W        W24910  17.557  34.537   2.515
58370W        W24911  41.441  31.358  10.692
58371W        W24912  39.103  22.227  13.850
58372W        W24913  23.581   6.941   3.931
58373W        W24914  14.057   2.020  14.732
58374W        W24915  19.297   9.646   1.255
58375W        W24916  17.117  34.908  13.524
58376W        W24917   6.933   6.734  13.570
58377W        W24918  30.374  39.397   3.302
58378W        W24919  16.521  35.625   0.111
58379W        W24920  37.902  24.448   4.304
58380W        W24921  40.945   7.218   3.670
58381W        W24922   8.923  17.771  12.854
58382W        W24923  27.629  41.744   0.395
58383W        W24924  19.371  28.609   0.399
58384W        W24925  30.253  38.869   4.404
58385W        W24926  41.828  15.369   2.374
58386W        W24927  40.102  17.880   3.594
58387W        W24928  37.012   1.424   2.041
58388W        W24929  26.271  33.487   0.149
58389W        W24930  12.716   4.370   4.625
58390W        W24931   3.363  17.096   0.411
58391W        W24932  14.169  38.011  12.008
58392W        W24933  32.654   6.675   1.772
58393W        W24934  37.049  35.688   3.374
58394W        W24935  25.506  14.697   1.268
58395W        W24936  14.429  34.324  10.701
58396W        W24937  22.084   0.099  14.489
58397W        W24938  42.336   1.314   1.238
58398W        W24939  43.427  18.625   3.141
58399W        W24940  32.513  23.656   2.850
58400W        W24941  23.148  17.992  11.108
58401W        W24942  38.437  44.957  13.865
58402W        W24943   3.888  35.899  14.410
58403W        W24944  41.265  21.616  14.540
58404W        W24945  33.935  43.677   0.699
58405W        W24946  21.716  39.574  11.026
58406W        W24947  37.706  38.423   0.018
58407W        W24948  18.774   5.102  13.696
58408W        W24949   1.796  30.427  10.792
58409W        W24950  26.626  39.028  10.349
58410W        W24951  41.491  38.522   0.451
58411W        W24952  29.995  26.690  10.592
58412W        W24953   2.337  21.427  12.436
58413W        W24954  16.615   9.242  11.657
58414W        W24955  42.928  40.820   3.574
58415W        W24956  36.109  25.089   1.885
58416W        W24957  24.564  20.315  11.595
58417W        W24958  28.405  14.898   3.146
58418W        W24959  39.411  38.098  12.320
58419W        W24960  10.374  32.006   4.664
58420W        W24961  14.151  40.978   0.952
58421W        W24962  20.452  19.832   1.913
58422W        W24963  35.322   7.162   1.740
58423W        W24964  10.426  38.108  11.333
58424W        W24965   7.773  36.108  14.305
58425W        W24966  12.359   4.911  14.441
58426W        W24967  10.736   7.650   4.572
58427W        W24968   8.879  43.689  13.876
58428W        W24969  32.624  19.660   0.637
58429W        W24970  41.510   5.940   1.709
58430W        W24971  24.063  30.079   2.753
58431W        W24972  18.605  17.378   2.197
58432W        W24973  27.633  18.488   0.363
58433W        W24974  39.797  23.402  10.660
58434W        W24975  42.140  14.413   4.306
58435W        W24976  39.419  13.107   0.970
58436W        W24977  13.153  33.461   1.884
58437W        W24978  35.901   8.631   3.244
58438W        W24979   2.500  33.182   5.035
58439W        W24980  28.827   4.406   2.364
58440W        W24981  27.195  29.879   3.221
58441W        W24982  42.990  26.019  14.493
58442W        W24983  25.121   8.820   0.806
58443W        W24984  25.539  18.664  14.499
58444W        W24985  40.549  11.325   4.658
58445W        W24986  11.536  17.321  11.360
58446W        W24987  39.274  10.206   1.072
58447W        W24988  39.486  31.978   0.504
58448W        W24989  27.608  11.091  14.408
58449W        W24990  31.717   4.311  13.608
58450W        W24991  40.008  34.640  11.126
58451W        W24992  37.381   5.959   4.336
58452W        W24993  26.104  23.476  14.029
58453W        W24994   4.893  31.623   3.091
58454W        W24995  17.773   8.263   1.573
58455W        W24996   9.623  21.530  14.439
58456W        W24997  15.401  29.255   0.221
58457W        W24998  44.778  22.957   1.356
58458W        W24999  41.123  32.848   1.255
58459W        W25000  17.323  41.511   4.565
58460W        W25001  26.753   9.281  13.816
58461W        W25002   3.991  15.899  12.116
58462W        W25003  27.658  12.525  14.905
58463W        W25004   1.449  15.727  11.240
58464W        W25005  37.705  16.295   4.067
58465W        W25006  14.981   2.778  12.669
58466W        W25007   6.702  22.507  12.970
58467W        W25008  29.157  15.696   4.659
58468W        W25009  40.100   9.359   3.411
58469W        W25010  14.361   5.298  11.517
58470W        W25011  20.962  23.291   2.784
58471W        W25012   5.692  38.689   1.532
58472W        W25013  28.449   9.124  13.943
58473W        W25014  20.643  43.061   2.708
58474W        W25015   3.795  24.570  11.725
58475W        W25016  32.631  31.967  12.366
58476W        W25017  30.040   2.937  11.034
58477W        W25018  31.809  16.001  13.531
58478W        W25019   3.448  37.612  13.346
58479W        W25020  13.311  26.962   0.400
58480W        W25021  13.673  21.956  14.562
58481W        W25022  27.011  23.325  14.614
58482W        W25023  29.159  19.749  13.534
58483W        W25024  28.207  35.479   4.124
58484W        W25025   7.657  40.483  10.691
58485W        W25026   1.922   3.895   4.776
58486W        W25027  31.476  13.414   2.244
58487W        W25028  33.352  23.514   2.778
58488W        W25029  11.621   9.090   0.271
58489W        W25030  24.627  14.350   0.413
58490W        W25031  32.824  14.700  11.671
58491W        W25032  27.876  43.825  12.973
58492W        W25033   3.572   1.213   4.841
58493W        W25034  32.119  26.927   0.431
58494W        W25035   8.267  32.128   2.298
58495W        W25036   6.859  19.104  12.469
58496W        W25037  37.660   3.709  12.448
58497W        W25038   9.084  11.894   2.287
58498W        W25039  15.041  16.145  10.762
58499W        W25040  13.316  38.981   4.209
58500W        W25041  24.778  36.328   0.766
58501W        W25042  24.984   2.891  13.708
58502W        W25043  36.436  31.387   4.871
58503W        W25044  44.469   8.717   3.704
58504W        W25045   1.750  30.809   3.566
58505W        W25046  15.649  19.700  11.095
58506W        W25047  33.661   0.926  13.315
58507W        W25048  39.048  35.476   4.762
58508W        W25049   0.874  16.393  11.507
58509W        W25050  35.795   4.956  11.236
58510W        W25051  35.999  25.947   0.655
58511W        W25052   3.633  10.485  11.085
58512W        W25053  30.250  30.297   4.230
58513W        W25054  38.989   1.216  13.396
58514W        W25055  32.824  37.685   1.855
58515W        W25056  40.483  43.873  11.137
58516W        W25057   1.957  33.886   2.199
58517W        W25058  10.887  39.752  13.783
58518W        W25059  37.452  21.624  13.760
58519W        W25060  17.046  28.968   4.562
58520W        W25061  36.104  12.141  11.489
58521W        W25062  29.246  11.056  13.486
58522W        W25063  41.778  33.880  12.588
58523W        W25064   6.663  13.044  11.144
58524W        W25065   0.819  13.403   2.658
58525W        W25066  33.030   7.698  13.612
58526W        W25067   7.761  31.487   4.353
58527W        W25068  10.673  41.530  14.698
58528W        W25069  36.055  10.482  14.748
58529W        W25070   8.263  15.208   1.727
58530W        W25071  19.552  37.065   1.095
58531W        W25072  29.930   3.995  13.855
58532W        W25073  33.578   4.023  10.258
58533W        W25074  22.502  15.174   0.476
58534W        W25075   9.685   0.893  13.429
58535W        W25076  16.406  26.033   2.953
58536W        W25077  20.211  36.273  12.480
58537W        W25078  40.944  39.383  12.958
58538W        W25079  17.073  35.401  13.091
58539W        W25080   8.713  24.810  11.957
58540W        W25081  41.525  31.973  12.511
58541W        W25082  27.656   7.485   4.651
58542W        W25083  18.074  44.967   1.739
58543W        W25084  15.068  40.955   0.725
58544W        W25085  24.246   1.557  14.851
58545W        W25086  41.457  40.318   5.062
58546W        W25087  37.345  37.771   1.329
58547W        W25088  35.106  36.592   4.809
58548W        W25089  39.842  32.670  13.336
58549W        W25090  34.873   5.771  11.188
58550W        W25091  18.067   5.175   2.917
58551W        W25092  32.866  19.516  11.642
58552W        W25093  28.666   6.124  13.756
58553W        W25094  10.896  11.954  13.977
58554W        W25095   9.255  15.846   4.121
58555W        W25096  25.391   8.550   3.724
58556W        W25097  40.558  21.091  14.691
58557W        W25098  37.692  39.504   0.836
58558W        W25099  22.178  16.670  10.715
58559W        W25100  24.649  27.828  12.992
58560W        W25101  29.514  21.240   4.241
58561W        W25102  31.266   0.452   0.327
58562W        W25103  32.094  33.069  14.015
58563W        W25104  36.507  35.862  12.590
58564W        W25105   1.195   5.276  13.399
58565W        W25106  33.459  21.209   3.203
58566W        W25107  10.928  34.520   4.734
58567W        W25108  12.442  34.439   1.343
58568W        W25109  34.178   2.865   0.039
58569W        W25110  37.382  39.473  13.893
58570W        W25111   6.414   1.523   5.147
58571W        W25112  39.614  10.644  10.354
58572W        W25113   6.534  26.782  13.949
58573W        W25114  26.556  16.074  11.590
58574W        W25115  27.140  23.810   4.166
58575W        W25116  15.651  12.205  10.682
58576W        W25117  21.069  26.606   2.649
58577W        W25118  32.237  42.871   3.192
58578W        W25119  18.975  35.812   2.817
58579W        W25120  10.380  25.874   2.295
58580W        W25121  11.375  37.069  13.524
58581W        W25122  18.122  12.253  14.883
58582W        W25123  31.793  41.514  14.156
58583W        W25124  22.989  12.384  14.941
58584W        W25125  33.700  11.229  10.412
58585W        W25126  24.288  10.319   2.796
58586W        W25127  20.574  35.366  12.999
58587W        W25128  18.291  27.498  14.339
58588W        W25129  20.358  34.057   2.326
58589W        W25130  35.070  38.386   1.453
58590W        W25131  39.947   7.426   4.725
58591W        W25132  44.771   1.462  13.028
58592W        W25133  26.467  24.393  12.857
58593W        W25134  19.679  18.353   5.088
58594W        W25135  30.676   2.972   0.574
58595W        W25136   6.652   4.709  12.132
58596W        W25137  22.823   1.636   4.461
58597W        W25138  26.690  27.578   3.326
58598W        W25139   2.114  20.161  12.019
58599W        W25140   0.314  13.799  12.056
58600W        W25141  28.193   0.688  13.323
58601W        W25142  17.188  34.075   4.603
58602W        W25143   6.515  15.198   1.756
58603W        W25144  42.071  19.294   4.488
58604W        W25145   8.951  36.920   1.786
58605W        W25146  18.081  15.594   0.431
58606W        W25147  33.438  19.735  11.958
58607W        W25148  44.023  27.470  11.552
58608W        W25149   9.324  20.107   1.883
58609W        W25150  28.174  31.414   4.898
58610W        W25151  18.052  39.055  12.531
58611W        W25152  43.926  22.258   0.676
58612W        W25153   7.116  28.157   0.469
58613W        W25154   4.508  14.311  11.686
58614W        W25155  28.011   7.507   5.032
58615W        W25156  11.701  43.219  14.368
58616W        W25157  32.562  33.082  14.289
58617W        W25158  29.462   8.462  14.979
58618W        W25159  20.393  41.856   2.152
58619W        W25160  17.689  10.425  10.846
58620W        W25161  26.389  43.945  12.970
58621W        W25162  37.915  24.687   2.486
58622W        W25163   7.313  14.832  11.549
58623W        W25164  35.430  11.248  12.367
58624W        W25165  25.901  15.533   1.778
58625W        W25166  36.333  13.273   3.700
58626W        W25167  42.036  41.617   5.377
58627W        W25168  32.107  36.961   3.387
58628W        W25169  38.824  34.288  14.977
58629W        W25170  17.114  36.283   2.756
58630W        W25171  10.447  41.458   3.255
58631W        W25172  24.370  30.186  14.453
58632W        W25173  23.748  37.795  11.194
58633W        W25174   4.505  31.417   4.567
58634W        W25175  29.072  19.368   3.247
58635W        W25176  43.280  20.830  10.299
58636W        W25177  25.254  37.199  11.990
58637W        W25178   2.265  41.884   3.296
58638W        W25179  11.737  32.023   5.053
58639W        W25180  16.670  26.631   3.437
58640W        W25181  15.445   4.264  12.398
58641W        W25182   3.149   6.647   3.775
58642W        W25183  22.163  10.213  10.941
58643W        W25184  40.441  37.560  10.908
58644W        W25185  16.896  17.068  11.377
58645W        W25186  38.329  34.332   4.538
58646W        W25187  11.307  16.895  13.884
58647W        W25188   4.225  26.591   9.949
58648W        W25189   7.027  35.763  12.270
58649W        W25190   5.614  17.217   4.222
58650W        W25191   7.693  22.623  14.884
58651W        W25192  34.177  26.591   3.680
58652W        W25193  34.915  14.753   4.621
58653W        W25194  11.573  15.664   1.207
58654W        W25195  12.822  27.358   4.854
58655W        W25196  31.417  27.003   2.862
58656W        W25197  37.784  42.640  12.854
58657W        W25198  20.314   8.191  13.552
58658W        W25199  42.940  13.549  13.427
58659W        W25200  15.723  15.869  14.934
58660W        W25201   5.138  21.691  10.774
58661W        W25202  18.712  12.424   2.191
58662W        W25203  12.161   5.328  11.769
58663W        W25204  22.692  16.041  11.971
58664W        W25205  43.957  14.660  12.516
58665W        W25206   2.477   9.827   3.811
58666W        W25207  16.619  36.365  12.035
58667W        W25208  39.010  14.692   1.157
58668W        W25209   2.258  29.047   3.710
58669W        W25210  25.230  28.788  14.478
58670W        W25211  30.025  33.514  10.445
58671W        W25212  38.024  19.061   2.863
58672W        W25213  41.532  14.531  13.042
58673W        W25214   3.998  23.161   5.462
58674W        W25215   0.469  35.667  11.620
58675W        W25216  11.352  17.285   4.169
58676W        W25217  13.586  24.459  14.927
58677W        W25218  28.570   1.471  12.967
58678W        W25219  37.365  12.933   1.947
58679W        W25220  19.144  19.531   2.198
58680W        W25221  14.476  25.733   0.924
58681W        W25222  36.426  19.183   0.989
58682W        W25223  39.320  10.351  10.053
58683W        W25224   4.652  29.435  14.617
58684W        W25225  38.833   7.913   0.008
58685W        W25226  38.488   8.276   0.203
58686W        W25227  11.787   9.304  11.964
58687W        W25228  22.502   0.803   4.589
58688W        W25229  32.132  34.359   0.193
58689W        W25230  14.360   9.298  14.884
58690W        W25231  36.080  11.344   3.118
58691W        W25232  23.516  41.937  12.554
58692W        W25233  18.037  33.391   4.604
58693W        W25234  20.610  10.746  10.463
58694W        W25235  21.516  25.219  13.547
58695W        W25236  27.804  26.238  13.962
58696W        W25237  13.294   0.962  11.475
58697W        W25238  41.517   6.173   0.711
58698W        W25239  15.237   8.961   1.473
58699W        W25240  31.493  44.352  14.422
58700W        W25241  15.569  29.134   1.068
58701W        W25242   7.457   3.945  14.990
58702W        W25243  38.925  33.304  12.462
58703W        W25244  27.275   7.859   4.705
58704W        W25245   3.525  44.601   3.083
58705W        W25246  23.001  18.708   2.716
58706W        W25247  17.150  26.703  13.751
58707W        W25248  31.466   6.940  11.370
58708W        W25249  33.034   7.832   3.773
58709W        W25250  21.516  32.719  10.522
58710W        W25251   2.996  42.903   0.482
58711W        W25252   0.032  20.862  13.794
58712W        W25253  20.312  40.932  14.010
58713W        W25254  28.760   6.792   2.695
58714W        W25255  41.859  34.192  14.825
58715W        W25256  23.461   1.346   2.324
58716W        W25257  16.276  38.792   1.839
58717W        W25258  13.586  34.407  10.895
58718W        W25259  32.098   1.381   4.791
58719W        W25260  33.114  42.318   4.568
58720W        W25261  36.837  11.204  11.038
58721W        W25262   2.992   7.726   0.432
58722W        W25263  39.355  16.350  14.837
58723W        W25264  37.974   4.473  14.904
58724W        W25265  38.978  22.905   5.097
58725W        W25266  12.893  10.192  12.561
58726W        W25267  35.522  38.386  12.832
58727W        W25268   3.965  32.746   2.805
58728W        W25269   3.439   3.733   1.330
58729W        W25270  29.439   9.456   3.649
58730W        W25271  37.018  25.946   0.246
58731W        W25272  37.048  27.608   3.695
58732W        W25273   3.167  40.431   4.704
58733W        W25274  19.814  33.901  11.530
58734W        W25275  33.884   8.094  13.886
58735W        W25276  35.275  36.602   3.752
58736W        W25277  15.146  35.945  14.439
58737W        W25278  10.092  34.944  13.997
58738W        W25279  12.664  38.068  10.733
58739W        W25280   6.204   0.172  10.823
58740W        W25281  40.868  19.296  10.838
58741W        W25282  43.462  19.096  13.507
58742W        W25283  35.670  40.599  13.988
58743W        W25284  40.560  17.869   3.244
58744W        W25285   0.406   4.327  10.861
58745W        W25286   3.848  35.602  13.042
58746W        W25287  29.193  20.590   1.506
58747W        W25288   0.381   2.931   2.864
58748W        W25289  17.438   6.786   3.059
58749W        W25290   3.781  40.390  13.842
58750W        W25291  35.665  33.147  10.546
58751W        W25292   4.152  30.061   2.347
58752W        W25293   3.554  17.201   5.087
58753W        W25294  25.512  33.978  12.633
58754W        W25295  35.542   6.073  10.692
58755W        W25296   5.482  38.538  14.384
58756W        W25297  12.741  26.315  11.960
58757W        W25298  12.810   9.825   3.100
58758W        W25299  34.282  25.719  13.923
58759W        W25300  27.417  44.324  10.686
58760W        W25301  10.017  14.158  11.541
58761W        W25302  29.871  43.800   1.253
58762W        W25303   4.798  30.096  12.338
58763W        W25304  32.121  17.583  14.255
58764W        W25305  41.849  13.565  11.747
58765W        W25306  42.336   5.254   3.220
58766W        W25307  20.903  37.785  13.622
58767W        W25308  19.821  26.836   3.424
58768W        W25309  31.420  12.875  12.494
58769W        W25310  13.805  30.191  12.924
58770W        W25311  25.711   8.322  12.303
58771W        W25312  31.075  18.643  14.539
58772W        W25313  28.416  16.793   1.876
58773W        W25314  35.390  41.730  12.651
58774W        W25315  34.903  39.374   1.901
58775W        W25316  33.254  39.357  10.888
58776W        W25317  32.836  10.201  10.323
58777W        W25318  10.725   5.668   4.309
58778W        W25319  11.694   0.590   3.478
58779W        W25320   4.075  42.331   3.216
58780W        W25321  15.334  37.485   1.233
58781W        W25322  43.802  22.619  14.654
58782W        W25323  44.322   2.974  12.866
58783W        W25324   7.543  43.651   1.923
58784W        W25325  34.618  40.760   4.545
58785W        W25326  40.993  19.305   2.357
58786W        W25327  31.540   0.914  10.747
58787W        W25328  40.590  37.638  14.761
58788W        W25329   0.839  18.815  14.371
58789W        W25330  24.277  24.768   4.077
58790W        W25331  41.437   7.221   3.781
58791W        W25332   7.042  12.175   2.284
58792W        W25333  11.698  11.211  12.463
58793W        W25334  18.307   1.912   4.053
58794W        W25335  42.233  28.470  14.343
58795W        W25336   5.117  43.888  13.989
58796W        W25337  38.462  40.555  10.507
58797W        W25338  22.590  35.022   2.804
58798W        W25339  29.663  15.569   3.905
58799W        W25340  24.904  43.269   2.163
58800W        W25341   6.811   5.600   0.246
58801W        W25342  29.675  31.476  13.918
58802W        W25343  15.165  38.439  10.507
58803W        W25344  42.914  30.088  13.618
58804W        W25345  22.979  23.391  13.098
58805W        W25346  30.252  22.600   2.135
58806W        W25347  41.799  18.287   0.397
58807W        W25348  43.302  38.655  11.934
58808W        W25349  29.683  26.671  13.397
58809W        W25350  31.453  35.002  11.501
58810W        W25351  24.583  11.494   2.771
58811W        W25352  24.711   3.602  14.146
58812W        W25353  10.123  10.855   2.187
58813W        W25354  30.934  30.072   2.658
58814W        W25355  12.395  37.654   3.650
58815W        W25356  28.542   8.438  11.585
58816W        W25357  27.773  26.762  14.761
58817W        W25358  44.312  15.838   3.176
58818W        W25359   7.349  43.384  14.919
58819W        W25360  27.533   5.283   3.848
58820W        W25361  11.573   6.638   1.346
58821W        W25362  30.648  22.749  13.551
58822W        W25363  27.213  33.805  14.795
58823W        W25364  41.437  32.727  12.013
58824W        W25365  27.618  15.020   2.866
58825W        W25366  39.368  29.233   3.566
58826W        W25367  14.374  29.074   1.422
58827W        W25368   6.340  42.833   1.767
58828W        W25369  15.566  40.794  14.925
58829W        W25370  36.586  17.462  11.748
58830W        W25371  36.713  42.324   2.870
58831W        W25372  20.462  18.658   2.849
58832W        W25373   3.694  16.639   0.412
58833W        W25374  40.372  37.096  14.443
58834W        W25375   5.445   4.349  14.365
58835W        W25376  25.585   7.702   2.028
58836W        W25377  20.451   9.506   1.693
58837W        W25378  34.561  34.372  11.091
58838W        W25379  35.132  20.233   1.493
58839W        W25380  22.610  32.103  12.427
58840W        W25381  37.443   9.889   4.808
58841W        W25382   6.756  17.304  13.028
58842W        W25383   8.597  44.970  13.513
58843W        W25384  36.479  35.823   2.223
58844W        W25385  20.121   8.349  12.468
58845W        W25386  43.168  36.925   4.609
58846W        W25387  40.493  26.616   2.152
58847W        W25388  21.097  42.422  11.116
58848W        W25389  20.763   3.271   1.764
58849W        W25390  13.649  43.522   4.370
58850W        W25391  38.389  32.671  12.626
58851W        W25392   0.423   2.022   2.828
58852W        W25393   7.861  32.906   2.225
58853W        W25394  16.712  40.989  11.972
58854W        W25395  36.449  23.741  13.453
58855W        W25396  36.996   5.276  10.697
58856W        W25397  12.365  16.100  13.975
58857W        W25398  28.427  35.799  12.990
58858W        W25399   2.643  16.387  14.986
58859W        W25400  19.641  28.456  14.888
58860W        W25401  42.779  34.570   3.045
58861W        W25402  16.610   4.502   0.355
58862W        W25403  28.027  29.532  12.926
58863W        W25404  12.255  12.751  11.221
58864W        W25405   1.477  13.060   2.344
58865W        W25406   6.246  19.063  14.088
58866W        W25407  23.892   0.720   2.222
58867W        W25408  15.146  19.152  14.468
58868W        W25409  26.582  24.570  14.715
58869W        W25410   7.112  44.522   1.853
58870W        W25411   2.475  26.160   3.607
58871W        W25412  15.375  24.230   2.332
58872W        W25413  13.948  17.049   4.548
58873W        W25414  16.558  30.440  13.011
58874W        W25415  14.693  12.870  13.530
58875W        W25416  11.832  23.496   5.001
58876W        W25417  15.189   2.514  14.365
58877W        W25418  30.482  43.159  13.889
58878W        W25419  20.733  31.407   1.593
58879W        W25420   1.907   4.034   3.009
58880W        W25421  17.829  38.484   1.146
58881W        W25422   4.291  34.914   1.474
58882W        W25423  22.080   9.778   0.598
58883W        W25424  34.649   6.134   4.350
58884W        W25425  33.891  10.012   3.925
58885W        W25426  32.346  44.366  13.071
58886W        W25427  23.604   8.502  12.101
58887W        W25428  25.969  37.359   0.818
58888W        W25429  29.966  20.044   2.775
58889W        W25430   0.228  17.018   1.011
58890W        W25431  23.041  26.732   0.380
58891W        W25432  42.817  41.635  14.344
58892W        W25433  38.004  14.252  14.875
58893W        W25434  23.259   0.151   1.339
58894W        W25435   3.430  18.976   1.127
58895W        W25436  11.686  22.120  14.740
58896W        W25437  15.017  13.653  11.223
58897W        W25438  19.129  24.005  13.501
58898W        W25439  33.214   7.673   0.601
58899W        W25440  10.355   9.104  11.594
58900W        W25441  40.989  32.623   3.363
58901W        W25442  15.870  21.109   2.487
58902W        W25443   8.730  19.515  12.301
58903W        W25444   0.955  38.627   0.775
58904W        W25445   8.350  44.425  12.016
58905W        W25446  27.729  17.185  11.254
58906W        W25447  11.529   8.256  10.732
58907W        W25448  37.530  25.647  13.523
58908W        W25449  42.428  18.630   2.614
58909W        W25450  19.650   4.353  12.942
58910W        W25451  17.142  19.066   4.737
58911W        W25452  29.047  37.590   4.020
58912W        W25453  35.635  34.031  12.906
58913W        W25454  35.552  39.979  11.550
58914W        W25455  23.520  21.570  14.387
58915W        W25456   4.733  21.729  11.792
58916W        W25457  38.645   2.188  13.575
58917W        W25458  43.023  25.521  12.151
58918W        W25459  36.153   4.133   1.019
58919W        W25460   0.296   0.285  14.030
58920W        W25461  34.527  14.911   0.934
58921W        W25462   1.878  41.585   3.747
58922W        W25463   0.835  35.493   1.429
58923W        W25464   0.531  12.651   3.801
58924W        W25465  14.722  44.262   3.856
58925W        W25466   8.217  21.686  14.438
58926W        W25467  16.320  19.640  12.998
58927W        W25468  31.701  25.534   0.520
58928W        W25469   1.744  14.499  13.869
58929W        W25470  43.770   0.955   1.773
58930W        W25471  15.082  22.554   3.580
58931W        W25472   5.311  43.855  12.028
58932W        W25473  17.405  44.322  11.317
58933W        W25474   1.338  17.396  10.631
58934W        W25475  27.664  40.954  13.780
58935W        W25476  27.485   3.010  14.283
58936W        W25477  26.678  26.276  11.279
58937W        W25478  20.188   2.407   3.922
58938W        W25479  22.200   7.227  10.118
58939W        W25480   6.183  44.269   4.074
58940W        W25481   6.324  16.702   1.419
58941W        W25482   0.281   5.801   3.486
58942W        W25483   6.933  29.972  11.948
58943W        W25484  20.648   5.224   3.846
58944W        W25485  17.234  44.430  13.926
58945W        W25486  43.693   2.503  13.380
58946W        W25487   8.591  13.316  13.427
58947W        W25488  21.066   7.137   1.755
58948W        W25489  19.969  30.582  10.689
58949W        W25490  37.591   6.660  10.659
58950W        W25491  27.254  27.906   4.570
58951W        W25492  27.443  16.648  11.226
58952W        W25493  37.634  10.078  14.790
58953W        W25494  23.051  18.997  11.084
58954W        W25495   7.639  29.891   2.713
58955W        W25496  37.324  39.889   1.329
58956W        W25497  39.601   9.420   2.384
58957W        W25498  20.295   0.442   0.900
58958W        W25499  44.342  34.905  14.495
58959W        W25500  14.858  26.413  14.851
58960W        W25501  15.011  25.763   4.065
58961W        W25502  34.831  39.320  13.414
58962W        W25503  22.143  27.679   4.594
58963W        W25504  11.348   7.966   1.795
58964W        W25505   0.821  39.443  10.358
58965W        W25506  13.787  14.037  12.035
58966W        W25507  43.706  34.131   0.742
58967W        W25508   3.935  33.566  14.027
58968W        W25509  36.745   5.008   5.010
58969W        W25510  43.833  44.715  11.102
58970W        W25511  10.468  27.640   2.096
58971W        W25512  30.743   2.019  10.367
58972W        W25513  31.183  44.722  14.591
58973W        W25514  23.436  44.998  12.955
58974W        W25515   5.056  34.122   4.139
58975W        W25516  14.230  16.427  12.604
58976W        W25517   2.312   4.438  12.574
58977W        W25518   1.155  17.082   1.938
58978W        W25519  12.724  38.458   0.728
58979W        W25520  41.607  32.966   0.347
58980W        W25521   8.435  44.444  14.120
58981W        W25522  25.152  15.093   1.176
58982W        W25523  15.283   8.459   1.330
58983W        W25524   3.850  42.458   1.348
58984W        W25525  19.263  14.549   2.424
58985W        W25526  36.034  24.067   1.743
58986W        W25527   3.279   8.866  14.804
58987W        W25528  26.379  14.816  13.236
58988W        W25529   7.574  37.359  11.093
58989W        W25530  23.577  32.418  11.400
58990W        W25531   9.573   5.990  13.951
58991W        W25532  11.761  17.951   3.503
58992W        W25533  17.172   9.580  14.014
58993W        W25534  19.386  29.478   5.094
58994W        W25535   1.085  11.557   5.000
58995W        W25536  11.608  33.454   3.623
58996W        W25537  44.209   7.471  13.457
58997W        W25538   6.700  35.152  11.503
58998W        W25539  30.476  38.469  14.445
58999W        W25540  16.051  42.435   1.756
59000W        W25541  15.827  28.686  11.258
59001W        W25542  43.776  37.653   2.433
59002W        W25543  32.480  28.653  11.114
59003W        W25544  39.029   2.000   0.404
59004W        W25545  34.111  40.431  13.521
59005W        W25546  23.497   2.456   4.539
59006W        W25547  15.363   0.146  14.486
59007W        W25548  21.649  39.099   3.887
59008W        W25549  22.807   2.598  12.134
59009W        W25550  42.905  35.924   3.854
59010W        W25551  44.411  10.604   0.840
59011W        W25552  27.662  17.783   3.995
59012W        W25553  40.062   4.225  13.320
59013W        W25554   6.980  28.826   1.669
59014W        W25555   3.400  29.804  14.103
59015W        W25556  22.686  16.259  14.153
59016W        W25557  13.693  16.179  11.050
59017W        W25558   1.195   0.725  11.734
59018W        W25559  44.490  41.994  11.025
59019W        W25560  40.739   2.476  10.710
59020W        W25561  29.013  26.692  12.607
59021W        W25562  38.792   9.288   0.822
59022W        W25563   3.704   8.696   3.612
59023W        W25564  37.265   6.105  14.667
59024W        W25565  23.382  32.973   2.849
59025W        W25566  13.351  30.013  13.623
59026W        W25567  14.718  40.241  14.995
59027W        W25568   0.428   9.204  12.487
59028W        W25569   3.640  41.406  12.056
59029W        W25570   1.514  33.428   4.121
59030W        W25571  28.949  38.369  13.470
59031W        W25572  34.976  39.889   1.942
59032W        W25573  35.151  26.594  13.960
59033W        W25574   4.664  24.938  13.467
59034W        W25575  29.932  17.183  10.408
59035W        W25576  38.843  35.932  14.737
59036W        W25577  21.181  29.310  11.419
59037W        W25578   3.249  38.894   2.935
59038W        W25579   7.428   7.144   0.285
59039W        W25580  41.018  18.752  13.472
59040W        W25581  17.344   6.424   4.667
59041W        W25582   7.904  34.793   1.295
59042W        W25583   9.319  29.091  14.947
59043W        W25584   9.789  30.564   3.302
59044W        W25585  11.462   8.706  10.172
59045W        W25586  39.068  28.926   9.892
59046W        W25587   4.054  39.267   4.247
59047W        W25588  33.384  21.097  13.848
59048W        W25589  12.108  11.848   3.188
59049W        W25590  29.198  38.556  14.880
59050W        W25591  40.946  26.945  14.101
59051W        W25592  32.332  11.133  14.126
59052W        W25593   4.428  29.091   2.235
59053W        W25594   9.384  19.438  14.672
59054W        W25595  19.291   6.302  14.836
59055W        W25596  20.467   5.824  13.324
59056W        W25597  44.420  19.266  13.043
59057W        W25598  16.050  40.628  14.821
59058W        W25599  27.181   6.728  12.589
59059W        W25600  28.610  21.682   4.183
59060W        W25601  15.334  38.416  12.799
59061W        W25602   6.438   2.388   4.109
59062W        W25603   4.559  19.562   0.858
59063W        W25604  38.408  35.988  13.887
59064W        W25605  13.275  25.704   2.534
59065W        W25606  33.385  33.129  14.691
59066W        W25607  39.485  21.803   0.374
59067W        W25608  15.762  38.998   3.225
59068W        W25609   2.771  36.826  13.612
59069W        W25610   2.866  17.663  11.514
59070W        W25611  21.128  40.031   0.894
59071W        W25612  42.594  33.101  10.936
59072W        W25613  20.670  44.773  12.945
59073W        W25614  27.595  33.472  14.907
59074W        W25615  33.266   2.109   2.118
59075W        W25616  16.997  18.852   3.324
59076W        W25617  44.754  27.653  11.126
59077W        W25618   9.798  33.869   0.434
59078W        W25619  25.717  33.597   4.693
59079W        W25620   4.259   1.762   2.457
59080W        W25621   7.064  15.225   1.114
59081W        W25622  23.948  33.395  13.465
59082W        W25623   3.991  15.377  13.415
59083W        W25624   9.864  38.142   0.477
59084W        W25625  16.312  16.200  13.947
59085W        W25626   8.706  35.646   0.788
59086W        W25627   6.931  21.189   2.279
59087W        W25628  42.404  16.586   4.570
59088W        W25629  44.381   9.908  14.013
59089W        W25630  22.102   3.484   9.817
59090W        W25631  37.077  38.802  10.793
59091W        W25632  42.956  15.748  12.405
59092W        W25633  20.950   1.746   0.359
59093W        W25634  41.683  24.767  11.147
59094W        W25635  26.557  27.612   1.953
59095W        W25636  39.329  42.469  14.348
59096W        W25637  39.912  43.746   4.493
59097W        W25638  42.696  44.260   3.120
59098W        W25639   3.227   4.530   4.195
59099W        W25640  16.261  28.558   4.695
59100W        W25641  37.319  39.714  10.298
59101W        W25642   6.403   4.457  12.908
59102W        W25643  14.255  23.944   1.793
59103W        W25644  20.258   9.678   0.288
59104W        W25645  20.663   6.223  11.471
59105W        W25646  39.013  33.875  11.583
59106W        W25647  28.148  34.139  12.443
59107W        W25648  30.168  42.826  10.990
59108W        W25649  28.126  42.100  12.539
59109W        W25650  41.833  33.520  10.751
59110W        W25651  26.949  13.320   0.446
59111W        W25652  25.541  43.799   4.529
59112W        W25653  16.753   6.015  13.505
59113W        W25654  18.025  34.645  14.368
59114W        W25655  42.023   9.247  10.701
59115W        W25656   9.887  10.455  14.376
59116W        W25657  39.974  21.981   2.274
59117W        W25658   9.768  30.627   2.263
59118W        W25659  20.018  43.460  14.000
59119W        W25660  32.658  16.130  12.893
59120W        W25661  23.435  26.518  11.262
59121W        W25662  24.516  28.499  13.556
59122W        W25663  30.978  24.273   0.304
59123W        W25664  24.725   8.146   2.432
59124W        W25665  26.535  22.410   4.006
59125W        W25666  40.310  42.450   1.776
59126W        W25667   3.544   6.170  14.894
59127W        W25668  27.022  10.785   1.216
59128W        W25669  16.225   3.507   1.366
59129W        W25670  10.675   4.727   1.230
59130W        W25671  36.423  36.376  12.599
59131W        W25672  11.396  28.128  13.489
59132W        W25673   0.779  15.329  13.811
59133W        W25674  31.820  20.622  11.142
59134W        W25675  32.594  44.549   1.984
59135W        W25676  29.067  12.452  12.470
59136W        W25677  42.757  38.512   2.823
59137W        W25678  40.093   1.173   3.606
59138W        W25679  31.879   9.234   3.273
59139W        W25680  38.895  15.773  11.770
59140W        W25681   6.377   4.510   3.184
59141W        W25682  35.144  39.724  11.707
59142W        W25683  27.180  41.846  13.929
59143W        W25684   6.484  39.930  13.045
59144W        W25685  10.635   6.336  11.685
59145W        W25686  19.785  42.319  11.666
59146W        W25687  27.445  17.790  14.925
59147W        W25688  36.047  28.320   2.609
59148W        W25689   8.102   4.715   4.619
59149W        W25690  11.899   3.285  12.988
59150W        W25691   2.743  41.112   2.450
59151W        W25692  20.194   8.373  10.684
59152W        W25693  24.777  13.022   2.726
59153W        W25694  42.377  31.172   0.786
59154W        W25695  35.576  23.180   0.366
59155W        W25696  35.994  38.874   1.270
59156W        W25697  21.718  27.565   3.867
59157W        W25698  33.962  17.538  11.998
59158W        W25699  18.158  43.132  14.121
59159W        W25700   4.799  38.346   1.090
59160W        W25701   0.023   9.842   4.494
59161W        W25702  11.618  42.501   4.017
59162W        W25703   8.781  24.140   4.078
59163W        W25704  18.159  24.553  13.983
59164W        W25705  35.996  25.507   3.172
59165W        W25706  41.088  23.792  13.737
59166W        W25707  28.965  25.639  11.722
59167W        W25708  30.708  30.019   4.252
59168W        W25709   5.853  29.006   1.195
59169W        W25710   0.509   6.749   4.060
59170W        W25711  31.595   9.595  14.490
59171W        W25712  23.436   0.649   1.373
59172W        W25713  37.629  20.851  11.548
59173W        W25714  42.975  30.893  14.876
59174W        W25715  37.782  15.408   2.535
59175W        W25716  24.261  39.464  13.825
59176W        W25717   3.791  16.651   4.034
59177W        W25718  33.558  43.488   2.142
59178W        W25719  13.246  29.115  13.255
59179W        W25720   6.077  19.896   5.081
59180W        W25721  16.551  27.851   4.188
59181W        W25722  40.754   2.529   3.169
59182W        W25723  36.616  24.182   5.051
59183W        W25724  38.665  20.320  14.799
59184W        W25725  24.226  42.420   1.248
59185W        W25726  39.776  13.750  14.847
59186W        W25727   4.279   2.716  11.680
59187W        W25728   9.647  20.978  10.404
59188W        W25729  14.286  23.761   2.361
59189W        W25730   8.933  30.953  13.479
59190W        W25731   4.344  33.556   0.475
59191W        W25732  41.910  21.365   3.529
59192W        W25733  17.533  22.665  13.396
59193W        W25734  27.804  21.083  12.517
59194W        W25735  24.574  38.522   1.450
59195W        W25736  29.503  31.557   0.496
59196W        W25737  16.120  31.206   0.068
59197W        W25738  17.206  21.262  12.143
59198W        W25739  35.698   7.557  11.389
59199W        W25740   0.583  35.064  10.043
59200W        W25741  36.327  35.026   1.857
59201W        W25742  31.783  16.826   0.214
59202W        W25743  28.883  42.892   3.620
59203W        W25744  34.869   5.390  11.870
59204W        W25745  43.935  37.043   3.105
59205W        W25746  24.075   2.496  13.613
59206W        W25747   9.177   2.750  12.095
59207W        W25748   9.906   2.772   2.854
59208W        W25749   4.370  37.849  11.622
59209W        W25750  24.262  26.527  14.378
59210W        W25751   0.524  27.005   4.575
59211W        W25752  13.520  29.915  12.603
59212W        W25753  22.055  40.574  11.199
59213W        W25754  39.552  10.137  11.094
59214W        W25755  34.426   5.071  10.070
59215W        W25756  15.801  16.257  11.177
59216W        W25757   9.043  39.352   3.093
59217W        W25758  42.538  40.067   2.348
59218W        W25759   4.195  17.838   3.326
59219W        W25760  33.209  35.141  12.065
59220W        W25761   6.431  27.581   3.901
59221W        W25762  13.053  23.010   3.364
59222W        W25763  15.156  26.502   1.747
59223W        W25764   0.018   7.699   3.675
59224W        W25765  44.692  25.081  11.223
59225W        W25766  19.081  21.626  10.897
59226W        W25767  16.304   2.018  11.403
59227W        W25768  27.068  23.382  11.824
59228W        W25769   2.191  29.999   2.747
59229W        W25770  10.380   1.213   0.294
59230W        W25771   7.265   6.325   3.987
59231W        W25772  37.963  30.595   2.391
59232W        W25773  26.931  15.762  10.946
59233W        W25774  18.669  36.752   3.309
59234W        W25775  25.337  41.530   1.208
59235W        W25776   0.372  14.379  10.432
59236W        W25777  25.598  25.021   0.683
59237W        W25778  38.075  26.281  12.663
59238W        W25779   4.891  15.799  12.476
59239W        W25780  31.390  28.515  14.731
59240W        W25781  18.727   2.008  12.097
59241W        W25782   2.546  17.652  12.476
59242W        W25783   5.565  34.638  12.030
59243W        W25784  19.077  29.388   1.139
59244W        W25785  15.471  22.134   3.306
59245W        W25786  40.122  40.164  14.208
59246W        W25787  11.248  38.309  10.130
59247W        W25788  32.570  23.591   1.792
59248W        W25789  18.654  25.749  13.332
59249W        W25790  41.074  34.046  13.088
59250W        W25791  21.672   7.717   3.675
59251W        W25792   6.955   7.150  12.444
59252W        W25793  42.908  20.894  12.611
59253W        W25794  29.460  15.999  11.732
59254W        W25795  25.844  41.558  13.110
59255W        W25796  24.983  21.683  14.837
59256W        W25797   9.141  21.068   0.995
59257W        W25798  40.743   9.378  10.613
59258W        W25799  33.747   6.761   2.887
59259W        W25800  28.114  21.351  14.392
59260W        W25801  44.730  13.120   2.740
59261W        W25802  29.831   5.767   4.800
59262W        W25803  22.170  37.248   2.742
59263W        W25804   4.212   2.028  14.838
59264W        W25805  16.584   6.486  12.684
59265W        W25806  13.785  10.314  13.445
59266W        W25807  17.816  16.115  13.529
59267W        W25808   4.641   4.647   0.290
59268W        W25809  10.418  28.486  10.754
59269W        W25810  20.679  20.057  10.637
59270W        W25811  14.372  43.437   0.837
59271W        W25812  41.548  35.411   2.204
59272W        W25813  11.285  42.276   1.803
59273W        W25814   6.406   6.753  14.035
59274W        W25815  33.614   0.800  11.398
59275W        W25816   2.841  32.351   2.127
59276W        W25817  22.330  39.284  13.867
59277W        W25818  34.313   1.873  12.610
59278W        W25819  10.094  43.736  11.885
59279W        W25820   6.764  41.261   1.924
59280W        W25821  19.465  41.415  13.177
59281W        W25822  40.811   5.231   0.446
59282W        W25823  40.719  26.446   4.630
59283W        W25824   7.946  29.275  11.699
59284W        W25825  20.829  18.132  13.314
59285W        W25826  44.427  33.493  12.396
59286W        W25827  17.171  22.917  14.662
59287W        W25828  34.103   1.552  14.863
59288W        W25829   9.252  43.226   3.868
59289W        W25830  27.975  13.715  10.149
59290W        W25831  40.760  27.111  14.953
59291W        W25832  20.335  43.405   4.541
59292W        W25833  24.505  28.221  10.711
59293W        W25834   1.318  16.091   1.692
59294W        W25835   2.727  40.872  11.604
59295W        W25836  43.716   5.289  13.012
59296W        W25837  19.163  24.624  13.971
59297W        W25838  39.065  38.400  11.996
59298W        W25839   7.547   1.069  13.789
59299W        W25840  29.867  28.850   0.968
59300W        W25841  38.977   1.026   3.761
59301W        W25842  25.148   3.805  11.319
59302W        W25843   5.927  42.587   4.621
59303W        W25844   1.898  40.217  12.362
59304W        W25845  33.353  41.383  11.633
59305W        W25846   0.300  10.960  14.953
59306W        W25847  18.162   6.147  14.186
59307W        W25848   2.337  34.618  14.610
59308W        W25849   3.314  35.476  11.493
59309W        W25850  33.887  26.627   2.640
59310W        W25851  14.148  41.949  13.653
59311W        W25852  29.370   7.758  11.654
59312W        W25853  33.959  28.697   0.442
59313W        W25854  26.680   1.809   2.240
59314W        W25855  12.752  33.851   3.142
59315W        W25856  32.116   8.527   1.452
59316W        W25857  39.893  25.032   0.030
59317W        W25858  17.701  16.674  14.272
59318W        W25859  32.559  24.841   3.658
59319W        W25860  38.517  26.229   3.240
59320W        W25861  42.327  38.529   4.609
59321W        W25862  11.071  19.620  14.021
59322W        W25863  24.887   2.802  12.685
59323W        W25864  22.719  28.118  11.092
59324W        W25865   5.149  28.071  11.809
59325W        W25866  44.778  27.066  14.882
59326W        W25867  27.405  23.916   3.198
59327W        W25868   9.083  40.441  13.908
59328W        W25869  16.562  13.040  14.294
59329W        W25870  19.238  43.919   0.844
59330W        W25871  16.774  14.020  14.263
59331W        W25872   4.399  25.658   2.850
59332W        W25873  23.588  33.274  11.543
59333W        W25874  13.934  25.674   0.962
59334W        W25875  39.976  29.071   2.646
59335W        W25876  37.259  26.846  14.604
59336W        W25877  25.566  31.876   1.450
59337W        W25878  41.041   7.101   0.184
59338W        W25879  16.835  32.689   2.955
59339W        W25880  43.727  42.775  11.128
59340W        W25881  40.894  16.332   1.708
59341W        W25882  27.153  17.061  12.528
59342W        W25883   1.929  19.275  12.651
59343W        W25884  32.865   8.577   0.763
59344W        W25885  38.785  29.052   4.735
59345W        W25886  10.863  23.126   2.110
59346W        W25887  35.522   9.940   1.224
59347W        W25888  39.544   6.908  10.611
59348W        W25889  17.036  42.779   2.408
59349W        W25890  26.330   3.120   1.188
59350W        W25891   0.877   1.998  13.537
59351W        W25892  41.961  28.512   4.390
59352W        W25893  42.243   5.918   3.840
59353W        W25894  42.479   2.840   3.587
59354W        W25895  44.832   7.257  11.833
59355W        W25896  37.683  28.452  12.397
59356W        W25897  32.987   8.480   4.595
59357W        W25898  14.692  40.514   0.420
59358W        W25899   7.284   0.895   3.254
59359W        W25900   8.108  28.486   0.932
59360W        W25901   1.409  23.211  10.523
59361W        W25902  32.671  11.296   4.631
59362W        W25903  34.169  17.758   1.244
59363W        W25904   2.673  24.225  11.865
59364W        W25905  11.969  12.058  14.521
59365W        W25906  42.440   3.814   1.924
59366W        W25907  22.924  35.435  13.078
59367W        W25908  12.665   5.459  13.060
59368W        W25909   2.799  40.385  11.877
59369W        W25910  40.321  10.604  12.188
59370W        W25911  39.601   2.369   2.411
59371W        W25912   9.249  27.932   3.958
59372W        W25913  38.727  12.255  14.045
59373W        W25914  21.163  33.625  12.970
59374W        W25915   8.153  21.081  11.419
59375W        W25916   1.785  12.006   0.335
59376W        W25917  20.120  43.378   4.073
59377W        W25918   5.208  34.869   1.540
59378W        W25919  10.691  18.627   1.384
59379W        W25920  18.072  25.993   0.402
59380W        W25921  38.520  32.507   3.675
59381W        W25922  43.478  41.230  13.461
59382W        W25923  23.291  44.447   0.823
59383W        W25924   9.616  25.099   2.839
59384W        W25925  20.026  35.853   2.657
59385W        W25926  12.169  30.058  14.037
59386W        W25927   2.255  30.545   2.767
59387W        W25928  22.207  13.213  10.733
59388W        W25929  37.325   0.354  12.861
59389W        W25930  38.518  34.572   4.108
59390W        W25931  15.623  37.323  13.490
59391W        W25932  35.103  39.787   2.866
59392W        W25933  37.978   0.473  10.221
59393W        W25934  38.162  25.583  13.464
59394W        W25935  33.935  27.574  12.072
59395W        W25936  40.492  32.473   3.458
59396W        W25937  26.477  32.404   4.338
59397W        W25938  20.089  15.936   5.136
59398W        W25939  10.199  32.171  13.992
59399W        W25940   3.643   1.136  10.618
59400W        W25941  27.498  16.592   1.870
59401W        W25942  33.210  36.468  11.160
59402W        W25943  11.760  32.363   2.044
59403W        W25944  33.005  20.939   2.383
59404W        W25945  39.391  16.226  10.548
59405W        W25946  16.971  15.700  12.023
59406W        W25947  36.305  33.783   3.069
59407W        W25948  15.651  17.037  12.940
59408W        W25949  12.589  35.823  10.742
59409W        W25950  34.633   5.373  11.003
59410W        W25951  43.281  21.970  14.883
59411W        W25952  43.244  29.055  10.346
59412W        W25953  28.338   4.257   2.371
59413W        W25954  31.965  39.609   1.827
59414W        W25955   3.716  28.095  11.918
59415W        W25956  20.799  25.999  14.883
59416W        W25957  41.977   3.794  11.911
59417W        W25958  32.941  19.742   2.882
59418W        W25959  10.838  42.005  14.831
59419W        W25960  14.638   7.866   1.664
59420W        W25961  27.018  12.218  14.493
59421W        W25962  29.466  11.217  13.943
59422W        W25963  20.987  16.792   3.259
59423W        W25964   1.362   1.472  12.571
59424W        W25965  38.148  24.925   3.402
59425W        W25966  17.639  24.637   2.229
59426W        W25967  28.696  28.600  13.589
59427W        W25968  22.817  39.946  12.027
59428W        W25969   2.173   3.965  10.972
59429W        W25970  42.842  27.928  14.825
59430W        W25971   1.437  14.968   2.070
59431W        W25972  29.202  41.347  12.857
59432W        W25973   8.261  16.296   4.870
59433W        W25974  14.922  12.772   1.923
59434W        W25975  34.953  38.941  10.590
59435W        W25976  35.495  11.283  13.357
59436W        W25977   7.289  24.573  12.911
59437W        W25978  35.676   2.435   1.880
59438W        W25979  36.851  25.073   3.138
59439W        W25980  18.240  30.868  13.760
59440W        W25981  38.936   4.132  10.710
59441W        W25982  39.491  13.599   2.646
59442W        W25983   2.216  19.845   4.556
59443W        W25984  34.829  22.083   4.972
59444W        W25985  34.259  13.780  11.567
59445W        W25986  36.627  22.711   1.314
59446W        W25987   3.275  39.199  14.360
59447W        W25988  43.807  44.648   0.261
59448W        W25989  30.298  27.262   2.820
59449W        W25990   5.219  15.017   3.168
59450W        W25991   3.181  36.122   4.689
59451W        W25992  13.391  38.785  14.911
59452W        W25993  17.739   0.756  14.886
59453W        W25994  36.868   0.394  13.097
59454W        W25995  37.565  14.233   1.132
59455W        W25996  27.541  18.992   0.403
59456W        W25997  20.068  12.632   2.151
59457W        W25998  13.051  31.413  14.259
59458W        W25999   1.204  44.127  14.766
59459W        W26000  34.053  42.376   0.778
59460W        W26001  15.665   3.339   4.819
59461W        W26002  16.798  22.509   2.891
59462W        W26003  37.137  10.208  11.770
59463W        W26004  22.948  32.610  13.581
59464W        W26005  39.050   6.373   0.409
59465W        W26006  29.877   6.266  14.522
59466W        W26007  37.899  36.337   1.738
59467W        W26008  17.415  36.825  10.674
59468W        W26009  23.472  26.452  11.776
59469W        W26010  21.212  40.930   5.157
59470W        W26011  34.978   1.088  11.240
59471W        W26012  10.388  37.561  14.592
59472W        W26013  20.530  30.016   2.133
59473W        W26014  28.189  34.700  13.156
59474W        W26015  30.112   5.289  12.144
59475W        W26016   1.430  21.422   2.696
59476W        W26017   6.207  39.084  14.398
59477W        W26018  30.996   7.719   2.902
59478W        W26019  39.962  14.689   0.369
59479W        W26020  34.611   5.287   1.764
59480W        W26021   8.576  41.606  13.647
59481W        W26022  43.002  27.409   1.858
59482W        W26023  18.865  38.981   1.734
59483W        W26024  42.456   6.237   2.417
59484W        W26025  18.415  25.161  12.757
59485W        W26026  18.200  41.887   4.501
59486W        W26027   0.834  16.279  12.401
59487W        W26028  39.761   2.397   1.900
59488W        W26029  41.342  27.758  13.315
59489W        W26030   8.848   9.956   1.307
59490W        W26031  10.651  13.589   2.697
59491W        W26032  28.653  23.021  15.000
59492W        W26033  38.322  27.765   4.162
59493W        W26034  25.513   4.996  11.011
59494W        W26035  23.639  13.770  12.467
59495W        W26036  11.732  18.480  11.522
59496W        W26037  39.948  21.172   2.948
59497W        W26038  29.434  14.834   0.058
59498W        W26039  27.179  36.075  11.206
59499W        W26040  30.959  12.782  11.125
59500W        W26041  32.036  20.199   1.153
59501W        W26042  19.274  34.523   2.835
59502W        W26043   1.468  44.333  11.152
59503W        W26044  34.298  37.526  13.324
59504W        W26045  43.473   8.676   3.557
59505W        W26046  10.931  37.598  14.606
59506W        W26047   2.502  22.635   2.764
59507W        W26048  35.128  35.596   1.478
59508W        W26049  12.032  38.882   1.987
59509W        W26050  41.992  28.637   2.741
59510W        W26051  36.557   7.831   3.243
59511W        W26052  15.574  36.973   4.745
59512W        W26053  30.093   7.170   2.714
59513W        W26054  17.599  42.902   0.289
59514W        W26055  23.799  32.413   3.537
59515W        W26056  37.969   7.117  12.483
59516W        W26057   9.839  23.057   1.281
59517W        W26058  10.606  14.786   1.517
59518W        W26059   2.386  32.545  13.556
59519W        W26060  19.236  17.953   2.350
59520W        W26061  28.017   3.936   1.937
59521W        W26062  20.224  18.096  11.192
59522W        W26063  36.699  24.923   2.632
59523W        W26064  30.775  13.143  10.747
59524W        W26065  30.331  16.524   1.898
59525W        W26066  18.527  27.591  14.806
59526W        W26067  39.842  39.303   3.633
59527W        W26068   5.262  39.334   2.703
59528W        W26069  37.021  22.748   3.770
59529W        W26070  15.671  10.490  12.417
59530W        W26071  42.887   9.808  11.564
59531W        W26072  34.967  13.307  12.006
59532W        W26073  28.178   5.068  11.645
59533W        W26074  39.597  38.099   3.230
59534W        W26075  25.025  19.016   4.194
59535W        W26076  28.612  25.475   0.975
59536W        W26077  40.517  22.635   0.845
59537W        W26078   2.471   7.574  14.920
59538W        W26079  40.013   2.281  11.674
59539W        W26080  19.612   0.054   2.647
59540W        W26081   2.361  26.995   4.232
59541W        W26082  32.143  35.111   2.147
59542W        W26083  41.114   9.306   1.816
59543W        W26084  32.775  31.038  14.455
59544W        W26085  22.074  41.815  11.495
59545W        W26086   6.665  17.653  11.421
59546W        W26087  39.452  42.836   0.614
59547W        W26088  40.455  26.633   3.322
59548W        W26089  44.747  19.151   1.837
59549W        W26090  21.401  41.311   2.983
59550W        W26091  34.952  30.985   1.964
59551W        W26092   4.304  23.142  14.481
59552W        W26093   3.660  11.848   1.710
59553W        W26094  36.804  38.601   1.181
59554W        W26095  11.278  21.412  14.541
59555W        W26096   3.777  12.878   3.878
59556W        W26097  23.373  19.160  13.050
59557W        W26098  22.158   6.639  11.435
59558W        W26099  26.152   9.793  12.900
59559W        W26100  25.579   0.481   2.883
59560W        W26101  27.615  17.150  13.367
59561W        W26102  29.071  11.532  13.394
59562W        W26103  41.773   4.287  13.963
59563W        W26104  40.942  20.287  13.376
59564W        W26105  24.803  22.752   2.321
59565W        W26106   5.577  24.517  12.346
59566W        W26107   8.101  26.127  13.571
59567W        W26108  28.238  36.068   3.772
59568W        W26109  20.948  41.409  13.021
59569W        W26110  18.825  31.409   4.719
59570W        W26111  18.752  39.354  13.498
59571W        W26112   9.740  23.974   0.964
59572W        W26113  36.365  34.477  11.348
59573W        W26114  31.213  14.878  10.594
59574W        W26115  26.790  19.016  12.434
59575W        W26116  25.301  35.161   5.147
59576W        W26117  16.530  13.677   0.734
59577W        W26118  18.201   9.692   2.599
59578W        W26119  42.400  36.504   2.645
59579W        W26120  16.169  37.483   2.295
59580W        W26121   4.149   1.810   4.365
59581W        W26122  34.333  39.035   4.386
59582W        W26123  22.120  32.434   3.332
59583W        W26124  43.234  26.752  12.357
59584W        W26125   5.887  39.056   4.096
59585W        W26126  25.615   3.816   3.183
59586W        W26127  37.060  30.587  14.692
59587W        W26128  24.144  23.906   4.530
59588W        W26129  15.948  43.389   3.750
59589W        W26130  28.750  40.593  13.103
59590W        W26131   9.673  20.848  13.996
59591W        W26132  29.053  13.451   2.211
59592W        W26133   1.550  12.284   3.175
59593W        W26134  13.590  39.370  10.651
59594W        W26135   6.140  26.497   4.099
59595W        W26136  23.996  14.405  11.336
59596W        W26137  15.393  10.147   2.963
59597W        W26138  20.584  37.479   0.783
59598W        W26139  41.346  41.685  14.526
59599W        W26140  39.288  18.843   0.100
59600W        W26141  17.272   8.947   0.757
59601W        W26142  10.454  19.051  14.855
59602W        W26143  25.010  10.460   3.147
59603W        W26144  41.191  21.592  13.197
59604W        W26145  35.686   1.755   5.317
59605W        W26146  37.676  21.094  12.000
59606W        W26147  33.870  40.917   1.987
59607W        W26148   2.861  23.207   2.314
59608W        W26149  10.316  36.548   1.795
59609W        W26150  18.524  35.472  12.367
59610W        W26151  31.937  30.648  11.688
59611W        W26152   8.740   5.672  12.089
59612W        W26153  13.837  19.141  14.342
59613W        W26154  30.646  11.575   1.888
59614W        W26155  40.378  34.973   2.403
59615W        W26156  13.090  43.751  13.493
59616W        W26157  30.362  30.270   1.944
59617W        W26158  32.513  19.701   3.189
59618W        W26159  30.995  19.425  11.038
59619W        W26160  24.577  15.560  12.455
59620W        W26161  27.043  30.377   3.185
59621W        W26162  33.031  18.492  13.400
59622W        W26163   9.675   5.400   3.134
59623W        W26164  22.371  34.680  11.063
59624W        W26165  18.025  23.532  13.944
59625W        W26166  37.731  14.698  14.903
59626W        W26167   2.026  30.374   2.340
59627W        W26168  20.465  37.103  11.190
59628W        W26169  31.942  43.051   3.636
59629W        W26170  15.839  26.173   2.277
59630W        W26171  42.283   1.829  14.288
59631W        W26172  34.576  13.373  11.628
59632W        W26173  27.616   2.232   0.451
59633W        W26174  32.877   5.764  10.103
59634W        W26175   8.325  14.190  14.004
59635W        W26176  16.119  37.454  10.471
59636W        W26177  37.567   8.409   2.707
59637W        W26178  15.176  36.044   1.292
59638W        W26179  12.223   5.225  10.776
59639W        W26180  44.537   4.707  12.208
59640W        W26181  12.905  39.460   0.234
59641W        W26182   4.036  37.909   2.388
59642W        W26183  18.600   0.981   4.182
59643W        W26184   2.173  13.671   0.909
59644W        W26185  38.726  13.011  11.078
59645W        W26186   6.700  43.881   4.388
59646W        W26187  42.641  26.001  13.151
59647W        W26188  31.916  15.317   2.423
59648W        W26189  44.007  25.835   2.602
59649W        W26190   3.518  32.639  10.148
59650W        W26191  43.989  22.426   1.642
59651W        W26192  36.185   4.408   0.335
59652W        W26193   2.614  27.040  13.258
59653W        W26194  41.754  41.542   1.812
59654W        W26195  43.456  37.753  13.095
59655W        W26196  15.222  39.565   3.802
59656W        W26197  23.749  26.952   3.119
59657W        W26198   9.646   3.159  14.505
59658W        W26199  26.115  10.120   3.713
59659W        W26200  14.225  24.609   2.902
59660W        W26201  19.541  30.911  13.000
59661W        W26202  37.833  29.547  12.839
59662W        W26203  29.227  43.079  11.859
59663W        W26204   5.667  10.202  12.310
59664W        W26205   4.442  24.765   0.679
59665W        W26206  33.507   6.802  13.918
59666W        W26207  34.882  33.575  12.778
59667W        W26208  38.321  40.236  13.889
59668W        W26209  21.207   8.781  14.227
59669W        W26210   9.190  32.188  14.737
59670W        W26211  24.916  36.786   1.670
59671W        W26212  38.745  42.767  13.953
59672W        W26213  44.885  16.025   2.335
59673W        W26214  23.550  28.348   3.384
59674W        W26215  12.348  30.401  12.436
59675W        W26216  20.796   3.697  14.258
59676W        W26217  42.284  39.632   1.416
59677W        W26218   4.858  29.275  10.473
59678W        W26219  37.443   7.173  14.842
59679W        W26220  19.150  21.696   0.723
59680W        W26221  16.185   7.215   4.647
59681W        W26222  13.205  27.929   2.984
59682W        W26223  28.652   0.818  13.511
59683W        W26224  13.525   0.917   1.117
59684W        W26225  34.404  39.846  12.621
59685W        W26226  26.568  29.474   4.376
59686W        W26227  13.185  14.417   2.704
59687W        W26228   6.178  13.887   0.143
59688W        W26229  38.355  31.960   3.188
59689W        W26230   1.898  33.368   2.217
59690W        W26231  17.759   5.852   0.841
59691W        W26232  42.957  28.815   1.345
59692W        W26233   0.703  37.091  14.840
59693W        W26234  36.827   4.404  12.616
59694W        W26235  41.876   7.957  13.354
59695W        W26236   9.192   2.358   3.669
59696W        W26237  35.027  29.986  14.683
59697W        W26238  25.034  14.643   0.930
59698W        W26239  34.783  43.503   3.279
59699W        W26240  25.573  18.183  11.607
59700W        W26241   0.786   2.873  11.659
59701W        W26242  12.355  23.589   3.290
59702W        W26243  32.245  31.721   0.859
59703W        W26244  26.564  18.644   4.237
59704W        W26245  28.466  24.041   1.253
59705W        W26246   0.925   5.779  13.961
59706W        W26247   4.434  10.881  14.302
59707W        W26248  14.931  11.245   4.162
59708W        W26249   7.800  21.420   2.356
59709W        W26250  11.896  27.518   4.891
59710W        W26251  37.570  24.776  13.427
59711W        W26252  38.808   5.450   0.409
59712W        W26253  13.363  18.373   2.588
59713W        W26254  11.106  36.141  10.617
59714W        W26255  35.318  21.566   3.902
59715W        W26256  26.692  22.391   3.156
59716W        W26257  26.027  42.689   2.895
59717W        W26258  11.969  32.663   1.017
59718W        W26259  15.172  32.829   0.715
59719W        W26260  36.441  18.947  14.634
59720W        W26261  44.456   4.039  13.535
59721W        W26262  22.564   0.562   0.300
59722W        W26263  10.657   4.368   2.689
59723W        W26264   6.740  14.849   2.439
59724W        W26265  38.755   2.183  14.330
59725W        W26266  44.042   2.356   2.629
59726W        W26267   4.505  44.690   1.424
59727W        W26268  20.765  14.288  11.298
59728W        W26269  12.183  41.846  11.653
59729W        W26270  33.137  28.016  14.393
59730W        W26271  19.782  44.288   4.563
59731W        W26272  36.304  14.304   0.699
59732W        W26273  13.712  19.718   4.779
59733W        W26274   9.630  15.100  12.818
59734W        W26275  25.642  36.049   0.886
59735W        W26276  29.657  27.048  14.742
59736W        W26277  19.476   1.946  14.444
59737W        W26278   1.557  38.551  14.948
59738W        W26279   0.374   3.385   3.125
59739W        W26280  21.615  34.497  13.110
59740W        W26281  12.829   4.735   3.169
59741W        W26282  22.730  15.837  12.494
59742W        W26283  23.725  38.064   3.363
59743W        W26284  20.798   3.602  12.087
59744W        W26285  41.765   0.676   3.328
59745W        W26286   1.314  11.395   2.811
59746W        W26287  40.022  14.323   2.210
59747W        W26288  38.453  37.998   2.883
59748W        W26289   4.456  16.235   0.407
59749W        W26290  19.679  22.776  13.882
59750W        W26291  40.063  42.843   1.509
59751W        W26292   7.781  11.809  11.771
59752W        W26293  15.371  32.622   2.371
59753W        W26294   0.506  41.353  12.440
59754W        W26295  14.399  37.494   2.800
59755W        W26296  42.773  27.160  12.354
59756W        W26297  33.458  35.357   0.755
59757W        W26298   4.574  32.661  14.840
59758W        W26299  25.571  33.199  14.432
59759W        W26300   2.300  30.850   1.790
59760W        W26301   8.914  24.903   3.224
59761W        W26302  10.313  26.549   2.770
59762W        W26303   7.668  36.755   0.874
59763W        W26304  40.122  32.354   1.852
59764W        W26305  44.842  42.672   4.341
59765W        W26306  24.954  14.828  14.997
59766W        W26307  26.638  32.446   0.740
59767W        W26308  20.105  44.445  14.724
59768W        W26309  29.140  26.488  11.096
59769W        W26310   9.116   4.907  13.746
59770W        W26311  24.099  35.886   3.778
59771W        W26312  10.871  42.912  13.115
59772W        W26313  16.234   0.918  13.073
59773W        W26314   7.390  25.027  10.644
59774W        W26315  18.112  29.233  11.698
59775W        W26316   3.843  29.860  11.525
59776W        W26317  39.817   4.949   1.476
59777W        W26318  31.866  23.422   3.460
59778W        W26319  37.782   4.496   1.733
59779W        W26320  25.439  31.974   0.461
59780W        W26321  14.164   5.473  14.522
59781W        W26322  11.854   0.935   0.027
59782W        W26323  41.900  34.231   0.802
59783W        W26324  32.459  44.562  12.127
59784W        W26325  19.671  32.753   3.329
59785W        W26326  42.816  42.959  14.998
59786W        W26327  33.274  29.855  11.208
59787W        W26328  33.415  33.222  13.677
59788W        W26329  36.161  24.089  11.577
59789W        W26330  39.453   5.525   3.269
59790W        W26331  32.918  10.607   2.836
59791W        W26332  25.964  44.974   1.205
59792W        W26333  31.620  16.127   0.701
59793W        W26334  19.714  18.107   4.075
59794W        W26335   3.799   9.637  14.950
59795W        W26336  43.841  30.686   1.330
59796W        W26337   3.021  37.299   2.279
59797W        W26338  10.145  30.569  12.478
59798W        W26339  33.842  44.081  14.721
59799W        W26340  40.802   3.023   2.663
59800W        W26341   8.727   3.992  11.316
59801W        W26342  29.024   4.725   0.928
59802W        W26343  35.624  23.185   3.149
59803W        W26344  34.055  29.651   4.117
59804W        W26345  29.420  42.306   1.196
59805W        W26346  28.085  10.348  10.202
59806W        W26347  34.486   1.326   3.698
59807W        W26348  40.402  19.424   0.348
59808W        W26349   6.876  19.245   4.668
59809W        W26350   2.025   3.343   0.328
59810W        W26351  44.706  35.093   1.855
59811W        W26352  23.680  38.879   1.307
59812W        W26353   8.823  10.143   4.846
59813W        W26354  17.851  11.182   1.310
59814W        W26355   5.243   5.631   4.053
59815W        W26356  14.309   1.059  11.498
59816W        W26357   7.229  17.303  10.781
59817W        W26358  20.030  30.718  14.124
59818W        W26359  37.269  26.103   2.930
59819W        W26360   8.189  39.787  13.108
59820W        W26361  44.066  20.319  13.879
59821W        W26362  39.336  24.546   1.736
59822W        W26363  33.086  28.296   1.765
59823W        W26364  38.309  37.261   3.583
59824W        W26365  14.851  32.413  12.496
59825W        W26366  37.190  10.270   1.324
59826W        W26367  20.315  13.841  12.109
59827W        W26368  23.909  16.889  11.116
59828W        W26369  33.202  19.314   2.941
59829W        W26370  23.285  22.329   4.430
59830W        W26371  40.006  14.629  14.065
59831W        W26372  33.077  15.278  12.829
59832W        W26373  13.917  31.753  13.038
59833W        W26374   5.644  24.205   4.378
59834W        W26375   0.337  24.772   1.262
59835W        W26376  21.753  35.194   0.431
59836W        W26377  22.185  44.724  13.467
59837W        W26378  40.367  19.459  10.789
59838W        W26379  14.180  13.020  13.445
59839W        W26380  39.307  12.265   3.761
59840W        W26381  25.974  18.224   1.846
59841W        W26382  18.778  14.651  13.004
59842W        W26383  19.232  36.095  12.000
59843W        W26384  16.345  22.796  11.910
59844W        W26385   2.763  24.989   0.640
59845W        W26386   6.262  31.634  12.937
59846W        W26387  11.812   2.277  11.555
59847W        W26388   0.947  16.566  14.813
59848W        W26389  11.788  12.351   4.260
59849W        W26390  19.775  42.433   4.386
59850W        W26391  25.262  25.203  12.944
59851W        W26392  32.145  16.655   2.813
59852W        W26393  36.412  42.201   4.168
59853W        W26394  33.665  34.668   2.436
59854W        W26395  25.379  21.211   2.328
59855W        W26396  22.186   0.791   3.650
59856W        W26397  36.892  31.459  13.428
59857W        W26398  29.062  28.984  14.715
59858W        W26399  11.834  23.707  13.955
59859W        W26400  32.384  37.970  10.990
59860W        W26401  13.791  14.801   0.786
59861W        W26402  15.594  36.517   3.728
59862W        W26403  14.558  14.058   0.192
59863W        W26404  31.543  38.864   0.762
59864W        W26405  36.064  40.575  14.353
59865W        W26406  10.186   1.909   0.682
59866W        W26407   1.906  36.299   4.267
59867W        W26408  41.795  12.104  13.907
59868W        W26409   0.464  17.066   0.496
59869W        W26410  20.670  29.602   4.570
59870W        W26411  27.286  16.366  14.480
59871W        W26412  43.424   1.218   1.296
59872W        W26413  33.693  36.829  14.275
59873W        W26414  10.609  22.101  10.525
59874W        W26415  18.103  24.640   4.621
59875W        W26416  33.511  10.179  12.203
59876W        W26417   4.370  10.816   0.311
59877W        W26418  15.570  13.608  11.214
59878W        W26419  38.117   7.141  14.337
59879W        W26420  13.708  21.603   3.268
59880W        W26421  19.225   7.337   0.070
59881W        W26422  13.632   5.222   3.098
59882W        W26423   5.209  20.344  10.912
59883W        W26424  30.332  13.754   2.613
59884W        W26425  42.979  24.763  13.156
59885W        W26426  17.225  32.192   1.271
59886W        W26427  25.915   4.793  14.106
59887W        W26428   5.476  29.603  14.932
59888W        W26429  23.736  44.775   2.473
59889W        W26430  42.866  41.309  10.616
59890W        W26431  17.013  19.614   3.620
59891W        W26432  24.859  43.094   3.597
59892W        W26433   7.437  42.262  11.141
59893W        W26434  11.360  32.468  13.482
59894W        W26435  44.006  29.712   3.834
59895W        W26436  13.309  17.583   1.428
59896W        W26437  26.623   8.727   3.027
59897W        W26438  24.692  41.773  11.188
59898W        W26439   7.185  28.587   4.523
59899W        W26440  13.047  10.889   0.445
59900W        W26441  18.633   3.420   3.079
59901W        W26442  43.070   6.745  13.225
59902W        W26443  36.095   5.457   3.295
59903W        W26444   5.216  40.117   0.392
59904W        W26445  10.061   0.336   4.894
59905W        W26446  35.561  43.481  14.259
59906W        W26447  27.204  36.522  10.782
59907W        W26448   4.098  41.492   2.407
59908W        W26449  44.920  39.245   2.891
59909W        W26450  25.186  43.302   3.252
59910W        W26451  33.656  44.143   4.214
59911W        W26452  31.592  41.172   2.894
59912W        W26453   8.766  35.444   4.097
59913W        W26454  32.654  37.111  12.466
59914W        W26455   7.491  29.496  12.973
59915W        W26456  41.690  11.283  12.420
59916W        W26457  18.726  17.613   0.471
59917W        W26458   1.363  31.099   3.409
59918W        W26459   8.093  10.734   1.824
59919W        W26460  44.822   7.349  13.961
59920W        W26461   3.939   4.636   2.143
59921W        W26462  32.695   6.779  11.497
59922W        W26463  39.685  20.961   5.081
59923W        W26464  25.637  31.601  10.698
59924W        W26465   5.984  20.529   2.652
59925W        W26466  27.673  21.575  10.720
59926W        W26467  14.645  41.887  11.591
59927W        W26468   2.271  28.694   4.669
59928W        W26469  35.040   8.287   0.818
59929W        W26470  23.231   2.582  12.439
59930W        W26471  32.465  31.438   2.690
59931W        W26472  18.427  22.271  11.093
59932W        W26473  18.461  28.559  10.671
59933W        W26474  23.528  33.844  14.960
59934W        W26475  20.044  34.494  14.217
59935W        W26476   4.666  23.500   3.146
59936W        W26477  43.035  22.142  14.442
59937W        W26478   6.439  13.451   3.151
59938W        W26479   6.288   9.185  11.897
59939W        W26480   9.661  19.592   4.751
59940W        W26481   3.273  25.956  14.001
59941W        W26482  41.889  12.369   1.792
59942W        W26483  38.356   2.237  14.004
59943W        W26484  15.596  31.704  13.406
59944W        W26485   1.300  23.994   0.730
59945W        W26486  41.126  23.734   2.225
59946W        W26487  16.898   6.364   0.524
59947W        W26488   2.223  24.301  10.620
59948W        W26489  13.279   5.423   4.167
59949W        W26490  27.830  39.696  11.496
59950W        W26491  37.220  35.810   1.435
59951W        W26492   4.399  18.010  14.463
59952W        W26493  26.688  25.472   0.958
59953W        W26494   2.716  33.855   1.478
59954W        W26495  29.084  10.195   0.951
59955W        W26496  12.702  20.233  11.998
59956W        W26497  13.601   8.840   4.717
59957W        W26498   6.876  11.010  12.004
59958W        W26499  42.262  19.146   0.685
59959W        W26500   1.866  13.742   1.901
59960W        W26501  40.307  40.318  11.658
59961W        W26502   8.982   6.942  10.996
59962W        W26503  41.445  41.313   0.853
59963W        W26504   2.327   4.523   1.906
59964W        W26505  31.660  24.622   2.711
59965W        W26506  17.176   2.955   1.861
59966W        W26507  34.374  31.558  10.334
59967W        W26508  39.840  14.783  13.433
59968W        W26509  26.498  38.182   3.248
59969W        W26510  26.123  29.661   3.954
59970W        W26511  15.044   7.343   5.111
59971W        W26512  44.893  17.468   2.298
59972W        W26513  35.673  10.962  10.747
59973W        W26514  13.310   3.755  13.822
59974W        W26515   2.498  18.306  11.655
59975W        W26516  19.710  32.941  10.779
59976W        W26517   9.336  32.124   1.434
59977W        W26518   9.960  22.448  14.320
59978W        W26519   6.025  16.569  10.638
59979W        W26520   0.909  30.918  14.854
59980W        W26521  37.929  28.157  12.038
59981W        W26522   7.381  23.193   3.597
59982W        W26523  43.040  14.863   4.165
59983W        W26524  44.438   0.190   9.846
59984W        W26525  28.094   0.378   1.259
59985W        W26526  24.776  29.040   0.007
59986W        W26527  20.032  19.499  11.096
59987W        W26528   0.356  28.490   4.389
59988W        W26529   4.247  40.009  13.048
59989W        W26530   4.537  22.063   2.611
59990W        W26531  22.514  36.508  14.771
59991W        W26532   8.186  16.839  11.552
59992W        W26533  31.677  25.749   4.158
59993W        W26534  29.191  42.564   3.863
59994W        W26535  39.970   5.091  10.147
59995W        W26536  36.414  16.892   2.165
59996W        W26537   5.681  34.322   4.808
59997W        W26538  31.388  43.218  10.754
59998W        W26539  22.219  31.949   3.563
59999W        W26540   2.412  14.821  14.504
60000W        W26541   5.736  30.257   4.383
60001W        W26542  43.250  19.084   1.991
60002W        W26543  40.519   5.944  11.270
60003W        W26544  12.135  31.483   4.528
60004W        W26545  43.404  44.211   2.831
60005W        W26546  34.616  22.152   0.156
60006W        W26547  20.553  23.505   0.386
60007W        W26548  28.907  13.558   0.729
60008W        W26549   9.326  15.715   3.133
60009W        W26550  30.013  20.719  14.357
60010W        W26551  38.500  35.044  11.546
60011W        W26552  14.888  18.775   3.915
60012W        W26553   1.702  28.598  13.833
60013W        W26554  40.744  14.666   0.837
60014W        W26555  35.045  27.106  13.855
60015W        W26556  29.648  24.779   2.255
60016W        W26557   4.393  27.990   0.261
60017W        W26558  13.128  16.676   1.689
60018W        W26559  28.002   0.166   0.342
60019W        W26560  12.309  16.423  14.377
60020W        W26561  42.343  12.758  13.776
60021W        W26562   2.903  44.947   3.572
60022W        W26563   7.346  10.489  14.829
60023W        W26564  25.392   2.004   3.531
60024W        W26565  20.151  19.034   1.704
60025W        W26566  21.022  11.527   1.020
60026W        W26567  26.969  24.140   2.436
60027W        W26568  42.790   0.464  14.575
60028W        W26569  25.588   4.226   0.932
60029W        W26570  35.638  42.679  13.903
60030W        W26571  26.069  37.293  10.378
60031W        W26572  22.254  14.883  11.594
60032W        W26573  10.281   5.811   3.050
60033W        W26574  38.326  38.976  11.969
60034W        W26575   3.892   0.858  12.635
60035W        W26576  34.959   8.604  12.656
60036W        W26577  32.116  33.965  14.272
60037W        W26578  12.268  36.433   0.394
60038W        W26579  33.928  42.371  13.183
60039W        W26580   0.424  32.022   0.455
60040W        W26581   5.388  22.742  11.204
60041W        W26582  24.393   3.397  14.937
60042W        W26583  11.334  33.547  11.547
60043W        W26584  36.115  42.905   4.328
60044W        W26585  13.619   1.872   2.632
60045W        W26586  33.491  42.011   0.194
60046W        W26587  17.562  37.429   4.151
60047W        W26588   3.010   2.827  14.875
60048W        W26589  37.410  13.971  13.303
60049W        W26590  32.037   5.279  11.545
60050W        W26591  32.436  20.541   4.136
60051W        W26592   5.281  38.362   0.860
60052W        W26593   7.368   7.606   3.225
60053W        W26594  21.448   9.881  13.875
60054W        W26595  27.430  33.194  12.567
60055W        W26596   9.379  42.216   0.686
60056W        W26597  37.995  11.201  13.773
60057W        W26598   2.494  20.516   2.586
60058W        W26599  28.926  28.212  11.968
60059W        W26600  26.511  22.899  10.807
60060W        W26601  41.513   3.427   0.564
60061W        W26602  13.724  35.502  14.835
60062W        W26603   2.087  41.973  13.385
60063W        W26604   5.125  44.853  14.951
60064W        W26605  12.786   6.831  13.993
60065W        W26606  34.686   3.425  14.597
60066W        W26607   8.383  28.773  13.536
60067W        W26608  28.060  38.915   0.405
60068W        W26609  13.281  14.243   3.378
60069W        W26610  37.298   0.437  13.897
60070W        W26611   5.376  22.557  14.963
60071W        W26612  19.990  13.017   0.195
60072W        W26613  32.465  22.028  13.561
60073W        W26614  32.064  17.997   3.725
60074W        W26615   4.886  15.846  13.363
60075W        W26616  43.254   7.754  10.806
60076W        W26617  21.668  38.541  14.002
60077W        W26618  44.464  28.236   0.494
60078W        W26619  44.079  34.814   3.751
60079W        W26620  21.220   8.175  14.065
60080W        W26621   7.254  11.851  13.566
60081W        W26622  18.560  44.739   4.884
60082W        W26623  14.611  34.464  13.394
60083W        W26624  25.724  32.970  12.107
60084W        W26625  16.684  22.953   0.386
60085W        W26626  17.191  38.086   0.173
60086W        W26627   3.782  23.523   2.649
60087W        W26628   1.551   3.475   4.592
60088W        W26629  30.911  29.875  11.066
60089W        W26630  44.537  12.135  12.956
60090W        W26631  15.144  42.311   2.775
60091W        W26632  44.975  43.740   0.121
60092W        W26633  12.080  39.080   3.687
60093W        W26634  36.445  16.641  12.706
60094W        W26635  18.780  10.846   1.266
60095W        W26636  33.914  26.872  14.351
60096W        W26637  25.223  36.481   0.469
60097W        W26638  13.150   6.324  13.294
60098W        W26639   4.324  44.788   2.598
60099W        W26640  19.711  28.393   0.768
60100W        W26641  22.289  25.905  14.914
60101W        W26642   4.492  38.541   3.605
60102W        W26643   5.634  19.830   4.698
60103W        W26644  25.607  27.515  14.854
60104W        W26645   9.146   4.224   2.848
60105W        W26646  25.211  22.987  10.922
60106W        W26647  40.316   2.468  13.387
60107W        W26648  42.628  44.271   2.386
60108W        W26649  11.558   4.809  11.176
60109W        W26650   8.621  37.276  13.570
60110W        W26651  30.235   7.823  12.000
60111W        W26652  10.933   1.208   3.693
60112W        W26653  41.509  31.928   0.850
60113W        W26654   6.763  16.798  12.947
60114W        W26655  34.412  12.385   4.133
60115W        W26656   1.721  15.123  13.017
60116W        W26657  36.469  36.343   0.944
60117W        W26658   9.775  21.572  12.091
60118W        W26659  12.440  19.163  13.248
60119W        W26660  25.458  37.091  12.862
60120W        W26661  43.417  22.461  14.925
60121W        W26662   1.497   2.288  14.173
60122W        W26663  16.011  16.203   4.934
60123W        W26664   9.664  29.871  14.370
60124W        W26665  20.086   7.413   2.318
60125W        W26666  29.131   1.657  10.699
60126W        W26667   4.022  21.254   3.618
60127W        W26668  38.873  41.575  12.306
60128W        W26669  43.308  14.637  10.570
60129W        W26670  26.457  39.407  11.158
60130W        W26671  39.154  38.953   0.428
60131W        W26672  30.899  17.783   0.754
60132W        W26673   7.713  19.034   2.728
60133W        W26674  23.000  23.969   1.790
60134W        W26675  27.290  36.131  13.670
60135W        W26676  41.500  39.828  11.385
60136W        W26677  20.801  31.460  10.796
60137W        W26678   9.652  41.215  10.629
60138W        W26679  20.046  11.626  14.332
60139W        W26680  17.979  19.157  11.507
60140W        W26681  44.954   6.461   0.103
60141W        W26682  10.606  39.123   4.789
60142W        W26683  14.577  18.118   4.162
60143W        W26684   3.758  26.361   4.997
60144W        W26685  15.736  21.358   1.239
60145W        W26686  30.435  44.193  11.116
60146W        W26687  19.875  44.351   1.830
60147W        W26688  23.157  39.574   0.503
60148W        W26689  26.502  27.273  13.445
60149W        W26690  11.170  27.009   4.367
60150W        W26691   7.525  36.103  11.609
60151W        W26692  24.473  16.058   3.684
60152W        W26693   8.959  38.911  12.440
60153W        W26694  15.591  29.606   2.756
60154W        W26695  30.514   8.897   2.454
60155W        W26696  19.780  44.935  11.202
60156W        W26697   0.729   4.979   3.796
60157W        W26698  34.884  19.605   3.657
60158W        W26699  33.393   6.703  12.064
60159W        W26700  34.959  11.094  10.155
60160W        W26701  37.877  29.647   0.133
60161W        W26702  42.953   6.851   0.397
60162W        W26703   3.798  34.834   2.384
60163W        W26704  38.958  38.255  11.160
60164W        W26705  14.736  17.162   4.135
60165W        W26706   2.571  44.670   9.881
60166W        W26707  24.383  35.068   4.713
60167W        W26708  34.193  17.784  11.624
60168W        W26709  15.390   9.608  13.220
60169W        W26710   4.082   2.253   3.140
60170W        W26711  31.218   7.739   4.183
60171W        W26712   9.181  15.560  10.642
60172W        W26713  25.969  17.310   3.602
60173W        W26714   5.300   1.345   1.897
60174W        W26715  11.371  30.170   0.954
60175W        W26716  22.044  24.778  12.716
60176W        W26717  43.035  25.696   3.706
60177W        W26718   1.896  24.234  13.975
60178W        W26719  23.217  42.075   3.656
60179W        W26720   4.796   2.156   0.983
60180W        W26721  14.341  20.459  11.337
60181W        W26722  39.385  43.821   1.903
60182W        W26723  11.696   5.172  11.602
60183W        W26724  24.989   9.603  14.264
60184W        W26725  29.623  13.049   2.433
60185W        W26726  44.895  38.993  11.014
60186W        W26727   0.394  13.589   2.409
60187W        W26728   0.954  28.173   4.115
60188W        W26729  26.190  41.490   1.381
60189W        W26730   2.023  43.705  11.260
60190W        W26731  34.814  17.362   2.322
60191W        W26732   6.329  23.074   4.526
60192W        W26733   8.388  12.766   1.619
60193W        W26734  20.002  27.080   1.896
60194W        W26735   7.593   8.981  11.976
60195W        W26736  16.800  13.419  12.918
60196W        W26737  14.894  28.047   3.290
60197W        W26738  29.662  18.738  12.488
60198W        W26739  43.021  40.912  11.848
60199W        W26740  17.624  15.897  12.060
60200W        W26741   2.757  19.993  13.578
60201W        W26742  31.929   2.152  12.089
60202W        W26743  23.562  21.195  11.629
60203W        W26744  31.041  34.876   3.948
60204W        W26745  29.809  40.459  14.696
60205W        W26746   9.772  21.628   1.563
60206W        W26747  32.193  18.291  11.955
60207W        W26748  38.314  41.023   4.123
60208W        W26749  25.486  16.623   3.667
60209W        W26750  39.153  32.269   3.999
60210W        W26751  10.736  24.866   3.163
60211W        W26752  36.447  44.282   0.525
60212W        W26753  30.568  14.163  11.021
60213W        W26754  39.469  16.776   1.768
60214W        W26755   4.608   8.901   3.247
60215W        W26756  31.454  24.765   0.025
60216W        W26757  25.893  28.518  13.974
60217W        W26758   8.123  37.562   4.517
60218W        W26759   9.453  27.674   1.257
60219W        W26760  16.531   8.716   0.358
60220W        W26761  37.104  24.707  11.421
60221W        W26762  26.959  33.510  11.013
60222W        W26763  31.417  35.833   3.077
60223W        W26764  41.906  23.437   2.641
60224W        W26765  17.509   3.951  14.351
60225W        W26766  10.202  11.030  13.389
60226W        W26767  29.063  33.599  11.149
60227W        W26768  23.968  11.791   3.184
60228W        W26769  25.943   8.815  12.816
60229W        W26770  20.084  38.907   4.566
60230W        W26771  26.103  13.697  14.925
60231W        W26772  32.802  30.741  11.588
60232W        W26773  15.094  40.347  11.052
60233W        W26774  22.150  30.316   0.003
60234W        W26775  16.748  12.922  13.028
60235W        W26776  33.930  33.423  12.381
60236W        W26777   7.191  12.394  14.425
60237W        W26778  44.434  20.639  12.462
60238W        W26779  29.599  12.438  12.573
60239W        W26780   5.016   5.157  13.076
60240W        W26781   4.765   7.460  13.667
60241W        W26782  17.761  17.371   3.373
60242W        W26783  22.261  40.006   3.572
60243W        W26784  23.381  32.405  12.957
60244W        W26785  38.013  27.500  12.489
60245W        W26786  24.699  28.905  13.266
60246W        W26787   9.051  23.023   2.125
60247W        W26788  11.249  16.293  12.177
60248W        W26789  16.304  30.982  14.640
60249W        W26790  34.710  28.648   2.016
60250W        W26791  21.624  27.111   0.049
60251W        W26792  27.957   5.818  11.925
60252W        W26793  37.038  24.309  14.008
60253W        W26794  20.337  36.651   1.251
60254W        W26795  19.324  10.824   0.378
60255W        W26796   2.886  41.063  14.529
60256W        W26797  43.135  26.049   1.624
60257W        W26798  19.215  30.143   4.650
60258W        W26799   4.541  36.444   0.433
60259W        W26800   1.308  18.890   2.535
60260W        W26801  30.425  15.736  13.232
60261W        W26802  40.359  20.610  14.747
60262W        W26803  26.983  23.622  10.844
60263W        W26804  17.879  27.732  11.596
60264W        W26805   9.104  27.715  14.544
60265W        W26806  14.169  22.078   1.787
60266W        W26807  41.220  43.375   1.809
60267W        W26808  10.239  28.839   2.787
60268W        W26809  27.767  42.420   2.679
60269W        W26810  16.979   0.540   0.508
60270W        W26811  27.450  22.765  12.923
60271W        W26812  20.329  40.875  11.643
60272W        W26813   3.264  36.763  11.095
60273W        W26814  13.720  16.616   2.332
60274W        W26815   8.421  12.472  14.322
60275W        W26816   5.898  39.911  13.829
60276W        W26817  32.132  35.472  11.169
60277W        W26818  17.777  42.975  11.940
60278W        W26819  31.033   4.591  13.192
60279W        W26820  36.125  23.121  14.028
60280W        W26821  39.316  21.658   3.231
60281W        W26822   1.509  26.477   0.804
60282W        W26823  29.358  20.172  14.462
60283W        W26824  20.688   5.637   5.421
60284W        W26825  37.688  15.294   1.263
60285W        W26826  24.763  43.455  13.605
60286W        W26827   6.767  34.631  11.564
60287W        W26828  28.909  32.494  12.899
60288W        W26829  41.252  28.406  13.074
60289W        W26830  29.968  13.773   3.374
60290W        W26831  15.681  41.055  14.467
60291W        W26832  42.929  11.550  14.019
60292W        W26833  30.570  17.661  13.895
60293W        W26834  15.528  14.129  13.863
60294W        W26835  36.497  12.219   1.216
60295W        W26836  41.893  35.849   4.584
60296W        W26837   6.738  34.395  13.837
60297W        W26838  40.040  13.595  11.883
60298W        W26839  17.485  11.361   0.082
60299W        W26840   3.573   1.793   1.314
60300W        W26841  14.753  33.302   1.969
60301W        W26842  18.366  42.496  11.452
60302W        W26843   5.899   3.945   2.272
60303W        W26844   2.106  28.456  14.106
60304W        W26845  12.263  33.942  14.344
60305W        W26846   7.094  40.335   0.407
60306W        W26847  33.105  28.631  10.666
60307W        W26848  30.200  29.647   0.719
60308W        W26849  39.515  25.193  11.556
60309W        W26850  23.433   7.360  13.943
60310W        W26851  31.440   7.301  14.517
60311W        W26852  28.715  36.244  12.447
60312W        W26853  26.754  13.407  10.848
60313W        W26854   5.121  40.368   4.622
60314W        W26855   3.330   8.647   0.285
60315W        W26856  20.601  35.453   3.215
60316W        W26857  26.032   4.731   1.878
60317W        W26858   6.213  14.194  12.657
60318W        W26859  29.285   0.903   2.190
60319W        W26860  26.196  26.397   1.245
60320W        W26861  24.727  36.781  14.355
60321W        W26862  42.899   3.791  11.219
60322W        W26863  15.031   3.475  10.081
60323W        W26864  40.706  36.887   2.448
60324W        W26865  18.072   7.322   1.363
60325W        W26866   8.847   5.173   3.217
60326W        W26867  34.991   5.278   2.376
60327W        W26868  23.453   6.455   0.952
60328W        W26869  33.583  32.915   1.182
60329W        W26870   9.083  16.679  13.450
60330W        W26871  36.443  39.818   0.994
60331W        W26872  42.077  14.179   0.905
60332W        W26873   8.324  40.295  11.120
60333W        W26874  24.607  24.037  12.187
60334W        W26875   3.565   0.531   0.510
60335W        W26876  41.963  27.135   0.967
60336W        W26877  39.503   2.703  10.456
60337W        W26878  42.191   0.210   2.153
60338W        W26879  26.506  42.955  14.400
60339W        W26880  24.151   0.720   3.587
60340W        W26881  31.422  43.496   0.760
60341W        W26882  35.474  30.672   0.713
60342W        W26883  18.953   6.376   1.756
60343W        W26884  44.467  29.112   1.589
60344W        W26885  44.876   6.148  10.554
60345W        W26886  12.914  10.716  12.176
60346W        W26887  34.784  13.156   4.155
60347W        W26888  10.367  31.589   2.670
60348W        W26889  13.207  28.140  11.549
60349W        W26890  36.278  30.055   2.701
60350W        W26891  10.039   8.888  14.407
60351W        W26892   5.005   7.971   3.212
60352W        W26893  27.091  41.660   2.595
60353W        W26894  39.391  39.507   3.429
60354W        W26895  38.046  16.754   3.380
60355W        W26896  38.075   4.739  11.525
60356W        W26897  33.134  29.207   0.940
60357W        W26898  35.572  41.066   3.017
60358W        W26899  42.466   7.724   3.215
60359W        W26900  36.822  17.345   0.899
60360W        W26901   5.229  14.509   3.272
60361W        W26902  10.039  24.182   0.239
60362W        W26903  28.131  20.508   0.198
60363W        W26904  33.108   6.402   1.808
60364W        W26905  33.456  34.485  12.037
60365W        W26906  41.431  24.579   3.359
60366W        W26907  23.304  33.396   3.566
60367W        W26908  10.876  16.099   3.646
60368W        W26909  32.564  30.156  12.312
60369W        W26910   8.636  31.586  12.217
60370W        W26911  29.391  33.656   1.849
60371W        W26912  30.635  18.253  12.540
60372W        W26913  27.125  42.918   4.569
60373W        W26914  27.983  31.453  14.386
60374W        W26915   9.333  27.665   0.413
60375W        W26916   4.194  21.763   2.884
60376W        W26917  37.789  17.755   0.517
60377W        W26918  24.040  22.593  14.533
60378W        W26919  18.284  20.536  12.850
60379W        W26920  16.681  27.381  14.876
60380W        W26921  21.772  36.518   4.101
60381W        W26922   0.258   7.040  13.948
60382W        W26923   8.061  39.460   3.241
60383W        W26924  39.856  38.774   3.628
60384W        W26925  32.402   6.482   1.325
60385W        W26926  31.794  18.235   3.058
60386W        W26927  32.315  17.280   3.235
60387W        W26928  34.330  40.449  12.725
60388W        W26929  31.840  41.389  12.429
60389W        W26930   3.953  36.747   3.788
60390W        W26931  37.532  40.435  11.892
60391W        W26932  28.412  33.557  14.571
60392W        W26933  16.722  30.752   0.925
60393W        W26934  27.152  38.923   0.709
60394W        W26935  40.889  18.160  11.683
60395W        W26936   8.973  20.236  13.434
60396W        W26937  23.153  20.232   3.667
60397W        W26938  43.300   6.792  10.330
60398W        W26939  15.846  10.521  14.802
60399W        W26940  35.119   2.867  14.971
60400W        W26941  19.793  15.069  10.746
60401W        W26942  37.260  14.416   4.428
60402W        W26943  34.388  28.950  10.640
60403W        W26944  17.841  33.703   1.098
60404W        W26945  35.387  19.883   2.366
60405W        W26946  43.191  17.096   2.793
60406W        W26947  31.482   2.801   3.276
60407W        W26948  36.706   7.649  14.527
60408W        W26949  25.086  28.784   3.780
60409W        W26950  34.125  11.373  12.498
60410W        W26951  11.167  38.539  14.950
60411W        W26952  23.007  43.104  11.720
60412W        W26953   7.663  43.126   0.403
60413W        W26954  14.771  18.531  11.115
60414W        W26955  37.914   2.679   4.848
60415W        W26956  15.649   6.919   3.123
60416W        W26957  17.798  23.647  13.397
60417W        W26958  28.758  42.987   2.805
60418W        W26959  23.752   1.409   4.223
60419W        W26960  28.491  21.635   1.302
60420W        W26961  26.691  41.328   0.066
60421W        W26962  26.631  10.789  11.686
60422W        W26963   9.131  39.899   2.280
60423W        W26964  12.909  39.257  12.196
60424W        W26965   2.737  33.060  12.387
60425W        W26966  14.223  26.633   3.075
60426W        W26967  29.282   5.444  13.303
60427W        W26968   8.207  23.577   1.667
60428W        W26969  31.627  44.792   0.309
60429W        W26970   6.289  33.432   2.795
60430W        W26971  32.223  44.242   1.765
60431W        W26972  37.775  15.070  14.535
60432W        W26973  18.997   9.904   4.127
60433W        W26974  39.043  44.378   5.270
60434W        W26975  24.660  26.719   1.289
60435W        W26976  18.573  36.004  13.446
60436W        W26977  23.228  22.100  12.496
60437W        W26978  12.235   6.317   1.892
60438W        W26979  44.844  23.364  12.444
60439W        W26980   5.137  20.821   0.079
60440W        W26981  16.821  44.514  13.527
60441W        W26982  42.064  15.711  12.721
60442W        W26983   5.016  43.014   9.894
60443W        W26984  11.411  12.010   4.514
60444W        W26985  42.786  19.727  13.696
60445W        W26986  43.649  22.290  11.837
60446W        W26987   1.951  42.466   1.582
60447W        W26988  38.065  14.718  11.369
60448W        W26989  26.165  24.183   1.798
60449W        W26990  26.395  26.477   1.963
60450W        W26991   3.925   4.156  13.678
60451W        W26992  28.436  25.775  11.041
60452W        W26993  30.237   9.090   0.402
60453W        W26994  31.661  28.360  10.720
60454W        W26995  11.188   0.890  13.261
60455W        W26996  27.895  23.597   4.648
60456W        W26997   0.519  14.361   4.133
60457W        W26998  34.573  12.803   3.849
60458W        W26999  23.642   0.471  14.330
60459W        W27000  10.420  17.838   2.309
60460W        W27001  44.676  26.599   4.644
60461W        W27002  29.206  17.977   0.146
60462W        W27003  33.605  34.812  14.773
60463W        W27004  17.270   6.815   4.995
60464W        W27005  20.188  27.585   1.886
60465W        W27006  42.464  29.392   4.493
60466W        W27007  32.353  11.845   3.199
60467W        W27008   2.473   3.894  13.825
60468W        W27009  20.022  31.515  12.117
60469W        W27010  43.506  17.627  12.575
60470W        W27011  34.449  39.448   0.410
60471W        W27012   5.844  33.061  13.537
60472W        W27013   1.656   3.724   3.796
60473W        W27014   6.763  21.476  11.018
60474W        W27015   3.499  26.184  11.772
60475W        W27016   0.784  44.819  10.672
60476W        W27017  25.143  37.274   3.246
60477W        W27018  40.963  35.336   4.315
60478W        W27019  23.409   1.782   0.837
60479W        W27020  40.622  34.229   4.582
60480W        W27021  16.834  19.328  13.866
60481W        W27022   8.142  34.455   3.304
60482W        W27023  21.346  37.371  12.530
60483W        W27024  22.980  20.664  12.635
60484W        W27025  10.740  21.832   1.728
60485W        W27026  30.619  41.083  12.883
60486W        W27027  43.051  42.372  13.042
60487W        W27028  30.473  17.137  13.886
60488W        W27029   9.793  39.544  11.954
60489W        W27030  30.403  44.396   3.667
60490W        W27031  17.307  39.599   0.252
60491W        W27032  34.678  10.446   3.851
60492W        W27033  33.134  34.786  10.415
60493W        W27034  44.751   7.616  10.585
60494W        W27035  10.141   0.406  14.722
60495W        W27036   5.909  17.978   4.015
60496W        W27037  24.444   6.231  13.670
60497W        W27038  23.951  27.539   1.354
60498W        W27039  36.563  40.449   9.868
60499W        W27040  19.275  28.019   0.747
60500W        W27041  16.053   1.853   2.429
60501W        W27042  13.835  44.349  12.494
60502W        W27043  27.097  24.285   3.947
60503W        W27044  20.856   4.484   2.287
60504W        W27045  17.579  27.609  11.138
60505W        W27046  10.782  30.554   0.254
60506W        W27047  13.215  32.762  11.826
60507W        W27048  44.189  43.401  13.942
60508W        W27049  43.752  38.848   0.327
60509W        W27050  34.506  40.068  13.089
60510W        W27051  35.449  13.211   4.796
60511W        W27052  33.945  17.139   1.193
60512W        W27053  35.869   1.692   1.256
60513W        W27054  43.401   0.321  12.104
60514W        W27055  43.955  41.227   3.751
60515W        W27056   4.955   9.395  11.597
60516W        W27057  21.503   4.665   3.922
60517W        W27058  28.834  12.894   9.877
60518W        W27059   2.773  44.411  13.544
60519W        W27060   8.892  31.989   1.130
60520W        W27061  28.081  15.378  11.863
60521W        W27062  26.004   8.921  11.044
60522W        W27063   8.262  26.247  11.547
60523W        W27064  17.582  29.416  12.815
60524W        W27065  35.546  23.691   1.275
60525W        W27066  18.293  25.181   4.048
60526W        W27067  15.453  27.990  14.967
60527W        W27068   2.735  29.907  14.510
60528W        W27069   1.809  25.011  11.597
60529W        W27070  16.156  13.412  14.268
60530W        W27071  33.597  42.397   4.374
60531W        W27072  17.621  26.228   4.889
60532W        W27073  24.809   6.260  14.963
60533W        W27074  43.606  19.699   3.728
60534W        W27075  11.981   6.349  13.795
60535W        W27076  15.743   9.517   4.157
60536W        W27077  16.048  41.834   2.256
60537W        W27078   7.851  41.878   4.948
60538W        W27079  25.564  26.839  13.623
60539W        W27080  25.963  24.197   0.239
60540W        W27081  31.008  23.239  11.152
60541W        W27082  15.629  19.590   0.835
60542W        W27083   2.850   7.683  13.022
60543W        W27084  14.147   1.818  10.043
60544W        W27085   2.177   5.733  12.097
60545W        W27086   4.965  15.326  12.592
60546W        W27087   0.412  13.704  14.216
60547W        W27088  31.087  32.438  13.257
60548W        W27089  37.092  15.759  12.949
60549W        W27090  41.318   3.022  11.990
60550W        W27091  28.761  14.725   4.443
60551W        W27092  40.290  34.343   1.007
60552W        W27093  29.764  10.159   5.438
60553W        W27094  12.595   6.295   0.983
60554W        W27095   8.583   1.909   2.754
60555W        W27096  27.120  36.383  13.106
60556W        W27097   9.777  19.873  13.792
60557W        W27098  28.683  15.036   0.406
60558W        W27099  35.156  39.404   3.217
60559W        W27100   7.927  29.451   2.729
60560W        W27101  28.513   7.719   4.207
60561W        W27102   2.903   7.419  11.564
60562W        W27103  39.273  33.252  14.092
60563W        W27104   1.765  24.558   1.439
60564W        W27105   7.470   9.144   1.324
60565W        W27106   7.337  40.811   2.018
60566W        W27107  41.123  20.227  10.715
60567W        W27108   0.765  38.887   3.089
60568W        W27109  15.195  43.451   2.373
60569W        W27110  23.480  34.158  14.557
60570W        W27111  11.092  18.772  10.654
60571W        W27112  18.587  12.965   3.987
60572W        W27113  44.972  25.438   4.100
60573W        W27114   6.477  17.865  14.785
60574W        W27115  19.503  11.139  11.969
60575W        W27116  26.488  30.457  11.115
60576W        W27117  34.844  36.453   0.435
60577W        W27118  37.170   7.953   1.911
60578W        W27119  34.858  21.479   4.134
60579W        W27120  42.043  27.432   1.451
60580W        W27121   1.410  21.929   0.030
60581W        W27122  19.408  43.509  11.165
60582W        W27123  17.281   9.729   4.661
60583W        W27124  26.442  20.263  12.078
60584W        W27125  29.637  36.859   3.155
60585W        W27126   1.381  17.752   0.542
60586W        W27127  43.584  42.093   0.394
60587W        W27128  38.390  21.761   0.798
60588W        W27129  19.167  40.076   1.034
60589W        W27130   1.623  44.813   3.004
60590W        W27131  32.979   1.228   1.782
60591W        W27132  29.303  24.029  13.425
60592W        W27133   3.251  30.693   4.981
60593W        W27134  30.469  30.886   3.141
60594W        W27135  39.124  22.826  11.142
60595W        W27136  44.787  17.751  10.560
60596W        W27137  29.525  39.823   2.130
60597W        W27138  19.656   6.371  14.298
60598W        W27139  36.871  12.994  11.458
60599W        W27140  17.153  22.733  10.972
60600W        W27141  33.216  19.138  11.530
60601W        W27142  29.088  23.112  11.221
60602W        W27143  24.675  13.647  12.302
60603W        W27144  28.056   7.445   2.307
60604W        W27145  38.336  17.840  14.035
60605W        W27146  25.258  18.296  14.875
60606W        W27147   8.402  41.337  10.303
60607W        W27148  13.955  11.595  11.089
60608W        W27149  27.880  30.691  11.941
60609W        W27150  27.501  16.793  14.710
60610W        W27151  41.900  37.944   3.698
60611W        W27152   3.425  11.177   0.242
60612W        W27153  20.792  43.324   4.311
60613W        W27154  13.816   4.500   1.961
60614W        W27155  32.024  19.222  13.582
60615W        W27156  24.043  33.750  12.071
60616W        W27157  31.424  27.990   3.648
60617W        W27158  40.541   1.320   0.779
60618W        W27159  36.816  31.978   3.466
60619W        W27160  20.515  25.078  11.032
60620W        W27161  40.535   9.824   4.647
60621W        W27162  17.305   8.341  13.427
60622W        W27163  32.597  30.566  14.354
60623W        W27164  29.516   1.039   2.650
60624W        W27165  35.581  20.296   3.744
60625W        W27166  23.836  27.193  11.923
60626W        W27167  14.751  42.337   0.898
60627W        W27168  24.136  20.705  12.603
60628W        W27169  22.726  12.023   1.107
60629W        W27170  24.881  13.762   3.632
60630W        W27171  29.634   9.057  12.662
60631W        W27172  28.740  33.525   3.751
60632W        W27173   5.679  24.937  13.512
60633W        W27174   3.277   9.862  13.875
60634W        W27175  36.396  30.099  14.569
60635W        W27176  44.934  39.940   1.811
60636W        W27177  21.528  12.500   4.306
60637W        W27178  43.555  44.312   1.947
60638W        W27179  23.488  31.413  13.889
60639W        W27180  10.905  14.190   3.337
60640W        W27181  20.056  28.567  10.746
60641W        W27182  38.839  36.484   1.691
60642W        W27183   3.907  41.123   0.020
60643W        W27184  27.489  23.327  13.013
60644W        W27185  39.825   5.314   0.678
60645W        W27186   1.278   2.398   0.520
60646W        W27187  19.823  36.055   0.046
60647W        W27188   7.940   1.979   0.903
60648W        W27189  15.865   6.322   3.751
60649W        W27190  40.813  38.637  14.718
60650W        W27191  44.026  15.671   4.619
60651W        W27192  16.494   8.323  14.545
60652W        W27193  33.937  40.469   4.099
60653W        W27194   7.924  10.525  11.406
60654W        W27195  18.149  26.594  12.413
60655W        W27196   4.065   3.131  13.461
60656W        W27197  20.225  35.850  12.151
60657W        W27198  28.203  27.673   2.682
60658W        W27199  34.964  38.180   4.710
60659W        W27200  23.753  26.160  12.098
60660W        W27201  31.766   5.601   3.632
60661W        W27202  33.394  17.749   0.849
60662W        W27203   9.223  14.004   3.729
60663W        W27204  27.481   0.398   3.241
60664W        W27205   7.779   5.734   3.378
60665W        W27206  35.839  44.574  11.722
60666W        W27207  35.565  37.005   3.543
60667W        W27208  21.104   4.332   4.027
60668W        W27209  34.147  41.266  14.890
60669W        W27210  40.154   5.721   0.797
60670W        W27211  43.383  44.817   1.984
60671W        W27212  38.197  32.444   3.267
60672W        W27213  44.752  39.314   0.143
60673W        W27214   1.301  16.677  12.470
60674W        W27215  35.954  30.665   2.363
60675W        W27216   4.929  38.849  12.475
60676W        W27217   3.210  11.875  14.314
60677W        W27218  43.081   6.800   4.699
60678W        W27219  24.574  13.898   0.136
60679W        W27220  27.885  28.870  11.162
60680W        W27221   0.853  11.758  14.710
60681W        W27222   2.774  35.328   0.244
60682W        W27223  27.200  19.565   3.659
60683W        W27224  18.698  23.466  11.394
60684W        W27225  32.600   3.268   2.394
60685W        W27226   7.901  14.846  12.001
60686W        W27227  30.629  39.836   1.226
60687W        W27228   0.936  20.637   4.275
60688W        W27229  37.505  41.271   3.119
60689W        W27230  12.596  44.296  13.022
60690W        W27231  42.780  27.544  12.013
60691W        W27232  27.403  41.911  11.367
60692W        W27233  40.400  19.231   1.631
60693W        W27234   7.915  25.343  14.836
60694W        W27235   7.891   0.073  12.526
60695W        W27236  41.952  27.525   4.039
60696W        W27237  38.024  38.263  12.950
60697W        W27238  33.973  15.142   4.531
60698W        W27239  35.607   2.896  13.024
60699W        W27240  20.090  32.321  11.173
60700W        W27241  32.190  13.527   0.240
60701W        W27242  39.304  43.072  14.848
60702W        W27243  36.957  29.000  13.379
60703W        W27244  37.364  34.213  12.349
60704W        W27245  44.569  11.690   5.146
60705W        W27246  21.854  17.758  11.305
60706W        W27247  29.443  40.258   4.698
60707W        W27248  42.129  33.271  11.188
60708W        W27249  38.923  14.706  14.378
60709W        W27250  13.065  42.971  11.269
60710W        W27251  30.687  31.338   3.040
60711W        W27252  32.874   2.812  13.864
60712W        W27253  22.668  43.479  13.934
60713W        W27254  14.375   5.638  12.190
60714W        W27255  28.381  25.409   0.521
60715W        W27256   1.658  34.386  10.754
60716W        W27257   5.295  35.676  12.963
60717W        W27258   3.015  20.121   4.950
60718W        W27259  11.837  33.131  14.706
60719W        W27260  29.714  36.638   0.080
60720W        W27261  32.890  36.404  11.565
60721W        W27262  34.199  26.363   2.941
60722W        W27263  27.501   1.736   4.109
60723W        W27264  42.206  21.080  11.535
60724W        W27265  42.359   6.145   3.380
60725W        W27266   7.373  15.135   3.001
60726W        W27267  26.823  18.844  11.700
60727W        W27268  22.160  18.959  11.153
60728W        W27269  16.352   9.680   0.900
60729W        W27270  37.944  42.736   2.533
60730W        W27271  38.854   1.080   0.347
60731W        W27272  16.621  29.887   5.004
60732W        W27273   4.920  39.740  10.920
60733W        W27274  12.157  10.615  13.794
60734W        W27275  26.221  13.840   4.630
60735W        W27276   7.397  16.533  12.336
60736W        W27277  36.913  31.405  11.160
60737W        W27278   9.170  26.110  11.651
60738W        W27279  39.059  25.201  12.347
60739W        W27280  20.657  36.114  12.087
60740W        W27281  24.672  31.117  11.519
60741W        W27282   9.127   3.344  14.434
60742W        W27283  10.240  21.065   3.641
60743W        W27284  40.237   0.258  10.921
60744W        W27285  22.283  13.655   5.124
60745W        W27286  10.836  33.927  12.054
60746W        W27287   5.956  43.269   4.189
60747W        W27288  13.662  39.562  13.937
60748W        W27289  10.100   1.550  10.450
60749W        W27290  44.024  24.799  14.387
60750W        W27291  10.859  16.306  10.989
60751W        W27292  12.020  13.123  13.759
60752W        W27293  38.212  12.863   0.042
60753W        W27294  26.937   6.130  14.540
60754W        W27295  13.770  34.992  14.798
60755W        W27296  36.745  19.175  11.709
60756W        W27297  24.301  16.969   5.053
60757W        W27298  23.965  41.512  11.653
60758W        W27299  27.920   5.652  14.268
60759W        W27300  42.382  14.958  10.785
60760W        W27301   7.822  41.373  13.390
60761W        W27302  10.724   4.575  10.607
60762W        W27303  13.961  17.658  12.166
60763W        W27304  44.390  41.837  13.691
60764W        W27305  22.982  24.664   1.012
60765W        W27306   9.782   7.826  12.180
60766W        W27307  22.838  37.495  14.350
60767W        W27308   7.435  44.861  11.365
60768W        W27309  15.901  29.190  11.172
60769W        W27310   0.496  16.819  14.671
60770W        W27311  28.980   7.741   3.375
60771W        W27312  35.142  20.301   0.253
60772W        W27313  11.637   8.927   3.639
60773W        W27314  30.172   5.317   2.729
60774W        W27315   8.244  25.759  11.407
60775W        W27316   1.152  24.570   4.589
60776W        W27317   2.780  28.411   1.754
60777W        W27318  44.961  18.157  13.313
60778W        W27319  12.347  27.678   1.957
60779W        W27320   1.975   7.147  11.538
60780W        W27321  24.508  21.643  11.203
60781W        W27322   1.273  10.717   2.085
60782W        W27323  14.999  39.648  11.603
60783W        W27324  20.954  36.029   4.217
60784W        W27325  37.358  44.779   3.090
60785W        W27326  11.399  24.674   0.587
60786W        W27327  38.033  31.924   0.445
60787W        W27328  23.109  34.064  11.533
60788W        W27329  39.891  28.058   3.268
60789W        W27330   8.453  29.475   2.359
60790W        W27331  35.144   6.006   9.838
60791W        W27332  26.512  43.418   4.215
60792W        W27333   2.537  41.584   0.810
60793W        W27334   5.748  13.834  13.448
60794W        W27335  44.884  26.461  13.987
60795W        W27336  40.247  32.334  13.501
60796W        W27337   6.886  14.279   0.709
60797W        W27338  31.230   2.199   5.451
60798W        W27339  11.321  32.241   1.784
60799W        W27340  44.499  15.034   0.343
60800W        W27341  23.266   4.023   2.817
60801W        W27342  39.298   5.274   4.128
60802W        W27343   5.048  32.102  10.627
60803W        W27344   0.528  31.142  12.679
60804W        W27345  18.966  11.228  14.504
60805W        W27346  36.386  41.274  14.339
60806W        W27347  26.410   8.742  12.015
60807W        W27348  11.191   9.603   2.190
60808W        W27349   9.135  10.625   1.807
60809W        W27350  21.580  13.838  10.361
60810W        W27351  36.339   9.382  10.584
60811W        W27352   4.844  44.955  12.399
60812W        W27353   8.899  20.093   2.486
60813W        W27354  41.949  10.641   4.304
60814W        W27355  32.542  25.842   1.330
60815W        W27356  25.411  13.676  14.457
60816W        W27357  20.046  42.081  10.545
60817W        W27358  43.005  44.274   3.566
60818W        W27359  13.867  29.978   1.379
60819W        W27360  20.111  25.981  12.474
60820W        W27361  37.778  42.972  10.247
60821W        W27362  19.287  14.308   0.650
60822W        W27363  24.235  33.585   1.856
60823W        W27364  14.470  40.287   5.110
60824W        W27365  37.932  33.290   1.692
60825W        W27366  32.821  11.568   2.429
60826W        W27367  11.365  16.546   2.988
60827W        W27368  12.073  33.019  10.098
60828W        W27369   0.435  29.490   0.776
60829W        W27370  14.222  27.072  12.451
60830W        W27371  24.261   0.850  12.692
60831W        W27372  30.642  28.414  14.246
60832W        W27373  38.952   0.055  11.091
60833W        W27374  32.387  24.538   2.226
60834W        W27375  38.953   8.625   4.659
60835W        W27376  32.215  32.901   3.152
60836W        W27377   5.325  40.957   0.772
60837W        W27378  12.738  33.725  10.946
60838W        W27379  34.285  31.357   1.696
60839W        W27380  39.582  13.189  12.530
60840W        W27381  39.676  39.242  13.422
60841W        W27382  35.612  31.420   3.759
60842W        W27383  26.014   6.412   1.806
60843W        W27384  24.423  30.029  12.834
60844W        W27385  41.257  32.541   4.740
60845W        W27386  11.128  35.771  13.130
60846W        W27387   3.959   8.712  11.234
60847W        W27388  22.082  39.569   1.833
60848W        W27389  34.793  12.074   3.306
60849W        W27390  23.036  19.595  12.223
60850W        W27391  34.940   5.330  13.907
60851W        W27392   4.775  18.242   2.287
60852W        W27393  37.339   6.676  13.094
60853W        W27394  34.387  36.413  14.692
60854W        W27395  14.578  30.868   3.227
60855W        W27396  44.323   2.610  14.019
60856W        W27397  43.525  25.652  11.478
60857W        W27398  24.582  35.875   2.858
60858W        W27399  18.657   1.718   3.162
60859W        W27400   2.993   8.372   2.910
60860W        W27401  11.896  43.981  14.899
60861W        W27402  29.587  39.588  13.384
60862W        W27403  10.348  26.405   2.258
60863W        W27404   3.703  17.619  14.964
60864W        W27405  20.545  27.984   1.901
60865W        W27406  42.973  36.342  13.893
60866W        W27407   3.793  33.495  12.660
60867W        W27408  25.184  44.917  12.437
60868W        W27409   3.644  41.767   0.205
60869W        W27410  27.270  26.546   2.755
60870W        W27411  20.745   1.335  14.365
60871W        W27412  13.333  10.794  10.848
60872W        W27413  35.882  43.281   2.252
60873W        W27414   5.790  27.640   0.879
60874W        W27415  22.756  13.004   2.770
60875W        W27416  37.773  32.407   2.633
60876W        W27417  18.260  25.054  13.779
60877W        W27418  25.032  11.223   0.266
60878W        W27419  12.319  35.317   4.499
60879W        W27420  10.045  16.211   2.022
60880W        W27421  12.464  12.318   3.650
60881W        W27422  44.965  30.858  14.738
60882W        W27423   7.343  19.795  12.071
60883W        W27424  31.077   3.750  12.573
60884W        W27425  27.911  40.011   4.181
60885W        W27426  29.474   4.039   4.186
60886W        W27427  38.761  38.544  11.567
60887W        W27428  17.279   7.774  14.504
60888W        W27429   0.210  36.119  10.767
60889W        W27430  38.237  20.046  13.457
60890W        W27431  32.702  35.123  10.626
60891W        W27432   4.638   5.231  13.425
60892W        W27433  12.824  35.518   0.436
60893W        W27434  37.379  15.242   2.839
60894W        W27435   6.599  34.357  14.338
60895W        W27436  39.679   0.395  13.891
60896W        W27437  43.731  23.748   3.260
60897W        W27438   6.449  32.905  10.685
60898W        W27439   1.027  11.635   0.714
60899W        W27440   4.463  35.362   4.250
60900W        W27441  33.072   4.104  10.356
60901W        W27442  38.491  13.199   0.815
60902W        W27443  38.892  20.269  11.707
60903W        W27444  37.819  24.338   2.870
60904W        W27445   6.829  42.880  12.540
60905W        W27446  17.756  36.146  11.083
60906W        W27447  28.508  32.802  11.093
60907W        W27448  25.481  18.130   1.776
60908W        W27449  37.582  39.433   3.271
60909W        W27450   1.920   1.540   2.856
60910W        W27451  10.380  28.484  14.504
60911W        W27452   9.362  26.776  10.411
60912W        W27453  20.677  42.048   0.204
60913W        W27454  24.063   0.247  14.553
60914W        W27455  13.288   7.258   4.138
60915W        W27456  10.915  13.319   0.045
60916W        W27457  17.000  39.518   2.760
60917W        W27458  26.502  43.733   2.921
60918W        W27459  15.613  27.635  13.396
60919W        W27460  32.617  29.502  12.933
60920W        W27461   1.886   3.357   4.166
60921W        W27462  43.908   6.418   3.221
60922W        W27463   1.374   6.707   3.521
60923W        W27464   5.410   1.288  14.809
60924W        W27465  30.613  13.705  13.495
60925W        W27466  19.363  25.782   0.646
60926W        W27467   9.209   1.279   4.209
60927W        W27468  43.937   7.919  12.737
60928W        W27469  29.175   1.460  12.888
60929W        W27470   1.031  33.591   4.102
60930W        W27471   6.283  26.935   2.241
60931W        W27472  27.706   0.492  13.142
60932W        W27473  42.325   5.006   4.897
60933W        W27474  38.063  41.860  13.063
60934W        W27475  31.329  19.071   2.639
60935W        W27476  36.325  32.330   4.813
60936W        W27477   1.948   9.680  13.497
60937W        W27478  42.700  39.878  12.536
60938W        W27479  34.503   6.458   0.859
60939W        W27480  19.061  34.415   3.283
60940W        W27481  41.372   1.979   4.109
60941W        W27482  19.301  16.315  10.788
60942W        W27483  38.933  36.944  11.976
60943W        W27484   1.855  39.816   3.353
60944W        W27485  22.259   3.455   0.858
60945W        W27486  23.622  30.604   1.242
60946W        W27487  30.167  42.863   0.791
60947W        W27488   9.657  35.311   1.011
60948W        W27489  17.354  42.016  12.928
60949W        W27490  30.584   7.296  11.467
60950W        W27491  38.000   4.735   0.347
60951W        W27492   6.656  44.871   2.207
60952W        W27493  26.933  15.588  12.995
60953W        W27494  44.866  27.668  14.927
60954W        W27495   7.214  33.023  14.411
60955W        W27496   8.533  26.462  14.791
60956W        W27497  27.053  17.219   1.210
60957W        W27498  40.412  24.446   3.560
60958W        W27499  11.645  39.806   4.030
60959W        W27500  35.989  41.772   1.256
60960W        W27501  39.700  12.862   9.885
60961W        W27502  34.391  39.539   4.512
60962W        W27503  18.543  17.339  14.996
60963W        W27504  38.247  29.700  13.100
60964W        W27505  26.247  41.287  11.497
60965W        W27506  15.659  36.154  12.027
60966W        W27507  19.004  44.398   0.861
60967W        W27508   2.844   8.950   4.643
60968W        W27509  41.946  27.519   0.602
60969W        W27510  20.448  25.969  13.036
60970W        W27511  22.111  36.918   1.735
60971W        W27512  30.566  25.282   2.142
60972W        W27513  28.591  25.998   0.953
60973W        W27514  36.915  12.278   4.638
60974W        W27515  30.496  36.565  14.776
60975W        W27516   2.944   0.937   3.095
60976W        W27517   6.810   9.889  13.402
60977W        W27518  37.068  12.754   0.403
60978W        W27519   8.880  40.592  12.532
60979W        W27520  10.469  34.530   5.014
60980W        W27521   5.688   1.489   0.329
60981W        W27522  26.028  14.048  12.063
60982W        W27523  24.745  18.597  11.504
60983W        W27524  14.042  34.906   2.704
60984W        W27525  23.587  41.264  12.895
60985W        W27526  44.482  38.662   2.384
60986W        W27527   2.952  37.076  14.428
60987W        W27528  12.200  13.630   0.034
60988W        W27529  35.844   0.709   1.822
60989W        W27530  43.223  31.114  14.478
60990W        W27531  20.203  44.339   4.269
60991W        W27532  32.114   6.734  10.725
60992W        W27533  10.147  38.471  14.763
60993W        W27534   4.763   2.532  11.646
60994W        W27535  43.867  16.083  14.051
60995W        W27536  14.727  22.690  12.459
60996W        W27537  30.140  20.931   4.922
60997W        W27538  28.027  32.958   0.505
60998W        W27539  12.105  43.984   3.052
60999W        W27540  42.022   1.966  13.864
61000W        W27541  26.269  40.263  10.820
61001W        W27542  19.427  40.422  11.608
61002W        W27543  24.629   3.265   1.802
61003W        W27544   8.991  15.979  12.969
61004W        W27545  21.701  44.925   0.299
61005W        W27546  30.641  25.781  11.554
61006W        W27547  27.118  42.518   1.345
61007W        W27548  28.445  26.178  12.855
61008W        W27549  44.571  42.271   2.828
61009W        W27550  25.532  41.790   2.322
61010W        W27551   9.639  20.177   0.414
61011W        W27552  21.620  27.566   4.407
61012W        W27553  23.764  20.976   3.898
61013W        W27554   2.451  10.900  14.384
61014W        W27555   8.883  19.631  13.831
61015W        W27556  23.586  19.717  10.609
61016W        W27557  28.968  14.810   2.342
61017W        W27558  30.001   1.213  14.303
61018W        W27559  31.667  17.273  13.312
61019W        W27560   7.236  14.969   4.674
61020W        W27561  22.569  27.604  10.235
61021W        W27562   1.272   7.409  13.027
61022W        W27563  29.444  19.196   4.662
61023W        W27564  26.443  21.945  12.441
61024W        W27565  25.140  26.656  11.821
61025W        W27566  34.456   0.823   2.818
61026W        W27567  41.369  36.617   4.463
61027W        W27568  20.241  10.192  12.448
61028W        W27569   5.213  14.009   3.135
61029W        W27570  17.253   0.853   1.156
61030W        W27571  36.902  33.852  13.402
61031W        W27572  31.674  37.903  13.350
61032W        W27573  23.040  17.769   0.680
61033W        W27574  33.310   2.407  12.159
61034W        W27575  40.024  41.078  12.111
61035W        W27576  20.525  30.442  11.905
61036W        W27577   8.894   2.707   2.859
61037W        W27578   2.527  37.932   1.742
61038W        W27579   6.173   1.117   1.787
61039W        W27580  26.618   7.374   1.382
61040W        W27581   5.187  35.755  11.170
61041W        W27582  26.642   2.904  12.517
61042W        W27583  30.604  17.604   3.303
61043W        W27584  19.245   5.575   3.898
61044W        W27585   1.232  12.712   4.502
61045W        W27586   7.744  14.358  14.074
61046W        W27587  27.140  30.382   4.029
61047W        W27588   3.110  25.176   0.989
61048W        W27589  33.018  15.316   3.325
61049W        W27590  38.952   3.194   4.023
61050W        W27591  18.159   4.279   0.490
61051W        W27592  13.997  28.898   3.249
61052W        W27593   7.115  20.508   3.358
61053W        W27594  24.026  28.669   1.885
61054W        W27595  41.852  29.667   0.423
61055W        W27596   0.398  30.098  14.924
61056W        W27597  38.528  36.054  10.650
61057W        W27598   3.298  24.395   3.128
61058W        W27599  20.601   8.900  11.929
61059W        W27600  40.830   3.914   2.626
61060W        W27601   9.297  25.036   3.839
61061W        W27602  42.503  40.000   0.483
61062W        W27603  41.632  43.838   4.669
61063W        W27604   7.438  21.034   2.315
61064W        W27605   0.346   7.292   2.918
61065W        W27606  41.112  18.382   1.407
61066W        W27607  20.695   5.129  10.439
61067W        W27608  25.370  30.011  13.261
61068W        W27609  26.989  34.606  14.340
61069W        W27610   1.260  33.496  10.722
61070W        W27611  24.630  11.579   1.833
61071W        W27612  18.669  23.194   4.327
61072W        W27613  44.695  22.524   4.137
61073W        W27614  26.131  35.858  10.694
61074W        W27615   1.939  42.663   3.148
61075W        W27616  36.175  38.346   1.964
61076W        W27617  40.255  30.971  11.213
61077W        W27618   5.330  20.269   4.834
61078W        W27619   6.014  37.279   0.280
61079W        W27620  19.099  17.164   2.852
61080W        W27621  30.486   1.437  13.578
61081W        W27622  30.461  21.669  14.493
61082W        W27623  35.359  39.534   3.678
61083W        W27624  31.652  38.102   2.817
61084W        W27625   0.847  16.674  14.305
61085W        W27626  35.037  36.216  11.156
61086W        W27627  12.727  12.396  13.839
61087W        W27628  13.592  23.269  12.516
61088W        W27629  27.938  21.579   1.854
61089W        W27630  19.728   5.476  11.951
61090W        W27631  39.195  34.159  11.141
61091W        W27632  22.723  24.960  14.006
61092W        W27633  18.189   1.293  14.457
61093W        W27634  42.790  22.013   1.766
61094W        W27635   0.868   6.804   0.489
61095W        W27636  20.760   3.755   3.753
61096W        W27637  28.914  14.368   1.330
61097W        W27638  17.614  19.034   4.084
61098W        W27639  31.072  21.285   3.319
61099W        W27640   9.110   7.766  13.018
61100W        W27641  22.147  19.790  14.311
61101W        W27642   7.843  44.697  13.819
61102W        W27643  10.831  24.318   3.194
61103W        W27644  42.326   8.234  11.088
61104W        W27645   3.474  28.573   1.302
61105W        W27646   7.816   5.525  13.968
61106W        W27647  14.764  33.804  10.744
61107W        W27648  14.278  18.692   4.825
61108W        W27649  44.427   1.421   0.336
61109W        W27650   2.272  24.490  13.390
61110W        W27651  34.066  30.455   2.027
61111W        W27652  39.671   0.241   3.636
61112W        W27653  28.248  42.907   9.995
61113W        W27654  38.665  30.587   4.316
61114W        W27655  17.648  30.716   0.893
61115W        W27656  25.704   5.505   1.400
61116W        W27657  26.605   0.540   0.947
61117W        W27658  15.151  31.585  12.551
61118W        W27659  39.823  18.401   2.242
61119W        W27660  32.880  12.136  10.176
61120W        W27661  35.939  15.361   1.205
61121W        W27662  24.164  30.511  12.332
61122W        W27663  14.257  39.245   0.582
61123W        W27664  32.478  14.272   1.452
61124W        W27665  31.278   9.493  13.477
61125W        W27666  22.767  11.031  10.766
61126W        W27667  42.810  18.027  13.174
61127W        W27668  16.333  37.381  10.941
61128W        W27669  35.855   3.411  12.373
61129W        W27670  13.592   7.917  12.033
61130W        W27671  17.597  29.678  14.309
61131W        W27672   6.264  11.329   1.620
61132W        W27673  39.420   3.007   4.161
61133W        W27674  31.399   7.129  10.554
61134W        W27675  31.569  19.387  13.407
61135W        W27676  12.333  16.178   3.167
61136W        W27677  22.989  24.176   4.279
61137W        W27678  23.551   2.750   2.283
61138W        W27679   4.916  31.083  11.262
61139W        W27680   2.595   4.689  11.472
61140W        W27681  39.556  11.945  14.166
61141W        W27682  40.499  10.337  11.284
61142W        W27683  14.137  35.383   4.349
61143W        W27684   8.275  35.785  12.134
61144W        W27685  31.413  31.435   4.637
61145W        W27686   0.482   7.210  14.405
61146W        W27687   1.795  25.867   9.676
61147W        W27688  29.877  15.662   1.735
61148W        W27689  22.732  27.454   4.918
61149W        W27690  15.549  22.610  12.145
61150W        W27691  30.974  32.094  13.914
61151W        W27692  22.673   5.698   0.960
61152W        W27693   9.737  12.758  13.817
61153W        W27694  14.729  21.810  13.421
61154W        W27695  11.991   6.016   5.053
61155W        W27696   6.876   8.446  12.889
61156W        W27697   5.319   7.456   3.355
61157W        W27698   8.182  40.354  14.005
61158W        W27699  33.375  33.338   1.403
61159W        W27700   9.999  16.024   4.443
61160W        W27701  21.216  29.053   0.321
61161W        W27702  32.666  43.165  11.956
61162W        W27703   9.132  18.690  10.712
61163W        W27704  16.412  18.178  13.063
61164W        W27705   9.512  16.372  12.097
61165W        W27706  21.816  12.015   0.320
61166W        W27707  33.669  36.523  12.016
61167W        W27708  38.922  42.415   2.628
61168W        W27709  38.390   8.233  12.961
61169W        W27710  16.240  17.797  12.133
61170W        W27711   5.403  38.854   0.691
61171W        W27712  12.092  12.008  10.597
61172W        W27713   0.322  27.464  11.988
61173W        W27714  34.632   6.479   3.068
61174W        W27715  17.511   5.203   4.499
61175W        W27716  20.291  15.335   0.019
61176W        W27717  43.476  19.614   3.234
61177W        W27718   0.403  44.087   0.284
61178W        W27719  29.080   9.451  11.147
61179W        W27720  40.591  29.331  12.581
61180W        W27721  25.546  25.475  11.617
61181W        W27722  12.201  20.019  14.202
61182W        W27723  36.591  37.441   1.383
61183W        W27724  11.570  25.631  10.785
61184W        W27725  24.783  21.944  12.162
61185W        W27726   8.294   8.147   1.259
61186W        W27727   8.570  43.794   3.784
61187W        W27728  43.765  39.497  13.605
61188W        W27729  20.209   1.046  10.033
61189W        W27730  31.479   0.911   0.507
61190W        W27731  28.366  37.889  10.677
61191W        W27732  41.456   3.547  12.937
61192W        W27733  16.164  22.905  12.748
61193W        W27734  32.076  33.997  10.372
61194W        W27735  27.399  23.772   4.706
61195W        W27736   4.090  26.103   0.652
61196W        W27737  25.240  44.392   1.206
61197W        W27738  43.610  21.188   3.576
61198W        W27739  30.983   1.157   3.635
61199W        W27740  26.664   6.744   2.753
61200W        W27741  17.731  22.970   2.797
61201W        W27742   4.478  33.502  13.019
61202W        W27743  16.781  12.309   0.800
61203W        W27744   6.696  13.663  14.671
61204W        W27745  36.587   4.773  12.888
61205W        W27746   4.658  35.179  10.484
61206W        W27747  41.051  17.381   0.387
61207W        W27748   2.254  24.686   3.687
61208W        W27749  28.595  28.905  14.961
61209W        W27750   5.321  33.115  14.254
61210W        W27751  33.908  16.233   3.755
61211W        W27752  11.991  44.426   4.748
61212W        W27753  39.218  24.997   4.535
61213W        W27754  34.462  28.240   1.819
61214W        W27755  10.953  11.736  11.555
61215W        W27756  18.726   9.832   3.314
61216W        W27757  44.852  16.199   4.396
61217W        W27758   3.252   5.210  10.938
61218W        W27759   3.818  16.244   4.772
61219W        W27760  24.349  35.921  14.930
61220W        W27761  33.437   4.236   0.706
61221W        W27762  20.683  38.508  11.509
61222W        W27763  18.607  33.938  10.810
61223W        W27764  39.464   7.934  13.381
61224W        W27765   4.363  12.148   0.828
61225W        W27766  43.393  38.933   3.060
61226W        W27767   8.434  39.398   0.800
61227W        W27768  37.379  43.947  12.021
61228W        W27769  39.209  32.498   0.381
61229W        W27770  38.032  39.102   3.176
61230W        W27771  21.781  13.823   2.742
61231W        W27772  39.816  24.494   0.006
61232W        W27773  44.642  23.278   3.187
61233W        W27774   2.223  13.884  14.325
61234W        W27775  35.996  42.028   4.484
61235W        W27776  28.451   0.790   2.793
61236W        W27777   0.882  13.485  13.042
61237W        W27778  16.264  15.856  13.266
61238W        W27779  26.695  22.473  11.601
61239W        W27780   1.409   4.273   0.558
61240W        W27781  19.612  17.326  12.219
61241W        W27782  20.580   5.864   1.725
61242W        W27783  34.992  26.040  14.796
61243W        W27784   2.843  19.048   2.966
61244W        W27785  40.628  18.168  13.379
61245W        W27786  27.594   8.144  13.988
61246W        W27787   7.773  14.174  11.224
61247W        W27788  37.477  37.707  11.228
61248W        W27789  42.468  21.087  12.434
61249W        W27790  32.089  33.336   3.809
61250W        W27791  15.448  18.755   0.226
61251W        W27792   3.386  20.956  12.106
61252W        W27793   3.236  20.175  13.440
61253W        W27794  25.051  16.830   3.420
61254W        W27795   0.278  10.374  10.875
61255W        W27796   8.697   6.957   4.679
61256W        W27797  18.065   6.983   3.339
61257W        W27798   8.473  41.997   0.073
61258W        W27799  25.535  34.969  13.043
61259W        W27800  15.175  12.200  11.453
61260W        W27801  29.696  28.454   0.358
61261W        W27802  13.655  40.814   4.053
61262W        W27803  39.672   3.235  12.549
61263W        W27804   3.406  38.366  14.997
61264W        W27805  41.030  30.002   0.467
61265W        W27806  24.331  37.587   2.907
61266W        W27807  23.992  22.983  10.661
61267W        W27808  14.088  27.511   4.111
61268W        W27809   9.137  26.963  10.846
61269W        W27810  28.645   8.705   5.320
61270W        W27811  37.094  19.285  12.938
61271W        W27812  29.395  21.601   2.372
61272W        W27813  21.492   2.199  14.659
61273W        W27814  35.204  11.196  10.649
61274W        W27815  34.491   3.251  11.462
61275W        W27816  20.522  24.275  11.698
61276W        W27817  39.513  37.379  10.444
61277W        W27818   0.281   2.723   0.368
61278W        W27819   0.919   3.401  13.513
61279W        W27820   4.303  39.440   2.821
61280W        W27821  37.010  12.186  12.470
61281W        W27822  32.287  27.224   2.668
61282W        W27823  35.379  15.840   4.836
61283W        W27824  10.054  43.965  11.146
61284W        W27825  42.531  25.496  13.356
61285W        W27826  42.054  30.124  11.830
61286W        W27827  28.951  37.900  14.030
61287W        W27828  27.808  44.295  11.024
61288W        W27829  24.342  27.207  11.920
61289W        W27830  28.459  18.754  14.951
61290W        W27831  38.807  36.952   1.893
61291W        W27832  24.533  42.344   4.241
61292W        W27833  41.586  33.608   4.104
61293W        W27834  36.528  31.527   3.394
61294W        W27835  37.771  21.763  11.577
61295W        W27836  41.527   0.566   0.005
61296W        W27837  25.635   0.514   0.041
61297W        W27838  20.257  24.454   1.300
61298W        W27839  29.387  12.171  12.165
61299W        W27840  17.051  30.047  11.096
61300W        W27841  42.999  22.213  11.202
61301W        W27842  40.427  42.116   4.648
61302W        W27843  37.846  37.351   1.801
61303W        W27844  25.119  22.532  10.729
61304W        W27845  37.072  40.937   1.325
61305W        W27846  34.626  13.339   1.185
61306W        W27847  32.513  34.450   3.561
61307W        W27848   5.659  11.215  13.280
61308W        W27849   2.434  29.514   2.148
61309W        W27850  32.794   8.248   3.196
61310W        W27851  41.679   0.176   2.180
61311W        W27852  35.976  33.345   3.779
61312W        W27853  12.365  38.390  14.435
61313W        W27854  40.418  35.596   3.630
61314W        W27855  20.694   8.722  14.973
61315W        W27856   0.715  41.528  11.946
61316W        W27857   6.117   4.246  13.356
61317W        W27858   4.090   7.854   0.700
61318W        W27859   3.984  34.663  10.663
61319W        W27860   2.257  42.955   2.831
61320W        W27861   7.911  16.813  12.040
61321W        W27862  16.672  37.502  11.654
61322W        W27863  25.285   1.280  14.249
61323W        W27864  17.755  43.768  12.501
61324W        W27865  33.326  41.992   4.205
61325W        W27866  44.547  10.619  11.994
61326W        W27867  11.800  25.071  14.615
61327W        W27868  31.456  44.093  11.189
61328W        W27869  31.688  16.772   9.913
61329W        W27870  21.675  34.566  13.606
61330W        W27871  41.921  24.704   1.746
61331W        W27872  43.177  13.151   3.192
61332W        W27873  26.158  30.003  11.112
61333W        W27874  11.354  26.114   0.855
61334W        W27875   1.026  19.091  12.004
61335W        W27876  36.070  39.032  13.189
61336W        W27877  16.313  13.954   1.981
61337W        W27878  19.350   1.727   4.980
61338W        W27879   0.414  37.933   4.191
61339W        W27880  20.937  31.618  12.881
61340W        W27881  23.104   6.799   4.053
61341W        W27882   0.811  34.162  12.080
61342W        W27883   6.406  37.467  14.019
61343W        W27884  43.992  13.597  14.446
61344W        W27885   3.711  30.498   3.752
61345W        W27886  40.300  36.920   3.354
61346W        W27887   7.969  41.522   3.214
61347W        W27888  11.046  30.696   4.869
61348W        W27889   3.428  19.229   1.830
61349W        W27890  12.543   7.396   0.617
61350W        W27891  36.941   4.822  12.057
61351W        W27892   6.240  44.886   0.850
61352W        W27893   5.221  15.024   0.384
61353W        W27894  31.650  34.647   4.156
61354W        W27895  44.253  43.331  12.157
61355W        W27896  31.610  27.117  13.836
61356W        W27897  30.614  38.127   2.854
61357W        W27898  35.442  44.261  13.067
61358W        W27899  44.029  11.106  13.339
61359W        W27900  22.275   3.361   2.156
61360W        W27901  42.935  26.252  13.547
61361W        W27902  38.931  27.924  10.691
61362W        W27903  43.923  14.241  11.634
61363W        W27904   2.680  19.286   3.400
61364W        W27905  14.067  26.328   2.256
61365W        W27906   4.317  39.474  14.547
61366W        W27907  29.134  36.930   3.225
61367W        W27908  29.638  43.747  13.559
61368W        W27909  13.293  25.091   5.232
61369W        W27910  22.986  12.053  14.502
61370W        W27911  35.627  43.881  11.206
61371W        W27912  28.051  38.589   1.669
61372W        W27913  11.057  28.470   1.201
61373W        W27914  31.903  25.620  12.317
61374W        W27915  34.835  12.662   4.282
61375W        W27916  12.577   1.028   2.248
61376W        W27917   0.623  20.247   1.244
61377W        W27918  12.453  34.005  13.053
61378W        W27919  37.539   2.901  10.634
61379W        W27920   4.653  17.742   3.548
61380W        W27921  17.352  39.514   1.765
61381W        W27922  43.423  24.508   3.333
61382W        W27923   1.983   8.286  12.276
61383W        W27924   8.154  30.622   1.887
61384W        W27925   6.412  24.514   2.721
61385W        W27926  37.352  19.166  13.374
61386W        W27927  20.851  22.303  13.066
61387W        W27928  25.552  29.469   2.705
61388W        W27929  22.254  40.625  13.854
61389W        W27930  26.685  37.323   1.361
61390W        W27931  27.466  17.570  11.027
61391W        W27932  26.093  22.457  12.053
61392W        W27933  10.869   7.694  11.565
61393W        W27934  13.934   1.669  11.146
61394W        W27935  40.475  19.746   4.459
61395W        W27936   1.992  16.681  14.775
61396W        W27937   3.725  22.455  14.091
61397W        W27938  17.091  18.299  12.019
61398W        W27939  11.342   6.214   2.212
61399W        W27940  26.082  11.128  12.284
61400W        W27941   5.481   1.105   4.928
61401W        W27942  20.798  43.907   3.139
61402W        W27943  27.801   8.679   0.807
61403W        W27944  37.476  16.223   2.329
61404W        W27945  16.244  24.060   4.795
61405W        W27946  40.685  25.664  12.004
61406W        W27947  36.955   6.200  10.533
61407W        W27948   0.536  29.417   1.856
61408W        W27949  37.979  27.933   2.812
61409W        W27950  23.093  25.238   0.183
61410W        W27951  28.877  11.708  10.654
61411W        W27952  42.526  43.068   0.456
61412W        W27953  17.970  30.614   3.097
61413W        W27954  27.243  17.029   4.868
61414W        W27955  44.815  15.674  10.013
61415W        W27956  39.112  36.247  11.282
61416W        W27957   3.327   9.850  14.819
61417W        W27958  12.688  19.725   4.127
61418W        W27959  24.951  29.689   5.061
61419W        W27960  44.773  16.756   2.771
61420W        W27961   6.745  21.687   2.373
61421W        W27962  36.856  25.073  14.690
61422W        W27963  42.901  41.527   0.756
61423W        W27964   2.954  25.629   2.814
61424W        W27965   5.336  31.219   4.558
61425W        W27966  38.898  42.350   4.090
61426W        W27967  32.850   1.803  10.148
61427W        W27968  33.437  43.811   1.753
61428W        W27969  44.987  17.387  11.493
61429W        W27970  31.435  33.406   1.641
61430W        W27971  38.127  29.985   1.479
61431W        W27972  27.497  20.041   4.029
61432W        W27973   2.300  13.611  13.856
61433W        W27974  19.190  31.654   0.907
61434W        W27975   6.271  35.661  12.900
61435W        W27976   8.005  42.812  14.012
61436W        W27977   2.388  18.332  13.419
61437W        W27978  24.184  43.033  13.956
61438W        W27979  33.134  32.850   1.459
61439W        W27980  19.077  26.178   0.435
61440W        W27981   3.187  20.633  10.518
61441W        W27982  16.242  23.268   2.571
61442W        W27983  27.391  44.528   4.628
61443W        W27984  20.078  30.918   3.154
61444W        W27985   4.915  21.422  13.584
61445W        W27986  17.795  36.928  13.925
61446W        W27987  40.102  10.550   2.330
61447W        W27988   7.369  29.877  10.459
61448W        W27989   3.159  37.269  11.987
61449W        W27990  42.570   4.707   0.779
61450W        W27991  29.997   8.699   2.634
61451W        W27992   4.114  20.565  12.597
61452W        W27993  42.440  40.847   1.856
61453W        W27994  10.347  22.284  11.201
61454W        W27995   4.742   0.701   3.998
61455W        W27996  18.242  38.771   2.820
61456W        W27997  24.401  19.784  12.516
61457W        W27998  34.730   5.642   3.622
61458W        W27999  17.132  12.749   0.024
61459W        W28000  17.512  27.186  14.414
61460W        W28001  30.984   3.818  10.316
61461W        W28002  41.814   6.012  14.131
61462W        W28003  19.465  18.601  11.262
61463W        W28004  44.830  11.265  13.089
61464W        W28005  41.231  22.873  11.489
61465W        W28006  12.887   5.869   0.378
61466W        W28007  33.426   8.192  12.996
61467W        W28008  43.946   6.216  10.958
61468W        W28009  43.380  13.241  12.512
61469W        W28010  33.041   9.371   0.450
61470W        W28011  10.304  18.214  13.389
61471W        W28012  20.265  17.612  14.728
61472W        W28013  43.733  31.191  13.103
61473W        W28014   9.768  20.988   4.509
61474W        W28015  10.271  23.707  13.013
61475W        W28016  34.117  29.571  11.135
61476W        W28017  30.844  26.615   4.100
61477W        W28018  35.152  23.700  10.767
61478W        W28019  33.836  41.854  12.798
61479W        W28020   2.422  12.983  12.561
61480W        W28021  22.734   2.969  11.773
61481W        W28022  27.046  15.967   1.439
61482W        W28023  10.141   6.284   3.213
61483W        W28024  20.450  28.857   4.111
61484W        W28025   6.384  42.308  11.949
61485W        W28026  14.614  42.316  10.542
61486W        W28027  29.258  33.328  13.386
61487W        W28028  15.709  35.939   0.759
61488W        W28029  11.395  35.430  12.801
61489W        W28030  23.630  29.846  13.841
61490W        W28031   9.222  24.549   4.738
61491W        W28032  10.566  17.352  13.869
61492W        W28033   1.011  29.004  13.312
61493W        W28034  38.923   2.573   4.655
61494W        W28035  41.979  42.181  11.513
61495W        W28036   1.782  30.224  12.059
61496W        W28037  15.807  14.118  14.331
61497W        W28038  25.607  31.633   0.854
61498W        W28039   8.780  44.367  10.296
61499W        W28040  30.201   9.877  10.620
61500W        W28041  27.023  26.566   2.270
61501W        W28042   8.617  18.824   4.504
61502W        W28043   0.964  40.357  14.383
61503W        W28044  44.855  44.940  11.318
61504W        W28045  17.671  31.645  10.873
61505W        W28046  38.075  36.535  11.645
61506W        W28047  18.606  43.299   4.560
61507W        W28048  19.120   2.174  11.562
61508W        W28049   9.147  12.274  14.790
61509W        W28050  28.940   1.682   4.839
61510W        W28051   9.639   9.601   4.580
61511W        W28052   9.705   3.392  12.597
61512W        W28053  44.511   7.690  11.557
61513W        W28054  18.626  20.238  13.122
61514W        W28055  23.590  25.732  14.114
61515W        W28056  19.513  43.267  12.468
61516W        W28057  35.503  41.474  11.826
61517W        W28058  20.566  38.425   0.720
61518W        W28059  21.165  15.392   0.292
61519W        W28060   6.618  27.470   2.905
61520W        W28061   2.622   9.630  14.781
61521W        W28062  10.682  20.151  12.025
61522W        W28063   7.755  15.074  11.444
61523W        W28064  37.023  23.595   2.915
61524W        W28065  27.237  35.491   4.252
61525W        W28066  43.854  22.155   3.263
61526W        W28067  22.237  12.248   2.811
61527W        W28068  37.469  23.884  11.983
61528W        W28069  10.354  40.472  11.664
61529W        W28070  25.684  22.301   1.908
61530W        W28071   7.231  29.877  10.953
61531W        W28072  25.541   7.739  10.664
61532W        W28073  23.577   7.745   1.117
61533W        W28074  16.186  14.305   3.706
61534W        W28075  42.153  20.851   3.654
61535W        W28076   7.525  18.097  11.263
61536W        W28077   9.982  19.559  13.001
61537W        W28078  17.945  18.560  12.088
61538W        W28079  32.118   7.607  12.258
61539W        W28080   1.674  24.451   4.719
61540W        W28081  41.132  41.090  12.607
61541W        W28082  26.552  36.044   3.729
61542W        W28083  26.119  16.607   0.218
61543W        W28084  12.881  16.810   4.290
61544W        W28085  28.520  40.383  12.403
61545W        W28086  20.648  32.185  11.457
61546W        W28087  11.273  17.127   0.341
61547W        W28088  23.271  27.177  14.534
61548W        W28089  35.604  12.869  10.487
61549W        W28090   6.883  35.010   3.208
61550W        W28091  38.455  37.845  13.414
61551W        W28092  21.236  25.865  11.081
61552W        W28093  22.430   9.749   3.758
61553W        W28094  30.186  30.391   3.720
61554W        W28095  18.289  19.161   0.545
61555W        W28096  28.041  20.803   2.321
61556W        W28097  26.957  34.125   1.659
61557W        W28098  17.625  13.077  12.904
61558W        W28099  37.187  44.891  12.072
61559W        W28100   9.143  23.278  14.912
61560W        W28101  39.303   2.232  10.589
61561W        W28102   4.842  34.345   4.602
61562W        W28103  11.369  18.801   1.966
61563W        W28104  41.302  35.917  11.161
61564W        W28105  39.489  16.998  13.365
61565W        W28106   5.830  13.661   3.831
61566W        W28107   3.799  36.795   3.263
61567W        W28108  12.662  16.262  11.055
61568W        W28109  35.032   4.900  12.041
61569W        W28110  41.701  20.450  13.843
61570W        W28111  10.607  16.681   3.537
61571W        W28112  38.716  12.741  14.913
61572W        W28113  43.440   1.834   0.764
61573W        W28114  29.424  17.351   1.217
61574W        W28115  28.970  42.004  11.833
61575W        W28116   6.344  36.970  12.894
61576W        W28117  20.464  38.864   2.729
61577W        W28118  43.766  30.688   4.474
61578W        W28119   8.143  35.799   5.009
61579W        W28120  43.401   3.438  13.479
61580W        W28121  43.343   6.192   1.960
61581W        W28122  21.006  26.667  13.297
61582W        W28123  38.504  37.426  13.121
61583W        W28124  32.297  10.653   1.482
61584W        W28125  19.249  25.643   2.187
61585W        W28126  38.039   7.678  14.357
61586W        W28127  43.947  34.301  12.910
61587W        W28128  39.575  38.894   0.753
61588W        W28129  14.959   3.762   0.440
61589W        W28130  20.981   5.781  13.425
61590W        W28131   1.579   5.743  11.162
61591W        W28132  42.119  12.838  10.748
61592W        W28133  20.154   0.415  10.592
61593W        W28134  15.394   5.871   4.142
61594W        W28135  35.922   4.900   2.173
61595W        W28136  29.185  16.459   3.244
61596W        W28137  37.859  31.419   4.845
61597W        W28138  13.810   3.743  10.741
61598W        W28139  33.233  20.025  12.621
61599W        W28140  31.949  30.289  14.809
61600W        W28141  30.479   2.937   3.339
61601W        W28142  32.506  42.847  11.564
61602W        W28143   0.270  14.577  13.293
61603W        W28144  26.467  37.449   0.513
61604W        W28145   7.872  11.454   2.100
61605W        W28146  23.164   7.630   0.256
61606W        W28147   2.822   9.443   4.010
61607W        W28148   7.784   1.544  12.007
61608W        W28149  28.101  24.910   4.510
61609W        W28150  11.025   7.703  14.375
61610W        W28151  16.674   8.315   2.984
61611W        W28152   3.194  32.416   0.359
61612W        W28153  41.434  12.387  14.142
61613W        W28154   0.935   5.735   4.631
61614W        W28155  41.939   5.797   4.788
61615W        W28156  35.963  33.361   4.625
61616W        W28157   1.370   7.303   4.402
61617W        W28158  13.314  18.929   3.624
61618W        W28159   4.444  39.739  10.721
61619W        W28160  37.520  35.309   2.309
61620W        W28161  26.543  41.715   0.443
61621W        W28162  34.014  34.372  12.048
61622W        W28163  40.157  12.681  12.488
61623W        W28164  13.289  27.574   0.858
61624W        W28165  23.800  28.358   1.533
61625W        W28166  34.524  17.543  12.581
61626W        W28167  35.931  11.453   1.396
61627W        W28168  23.259  22.486  11.090
61628W        W28169   5.872  22.250  13.939
61629W        W28170  40.697  37.942  10.620
61630W        W28171  44.375  24.090  10.489
61631W        W28172  39.075  23.857  11.622
61632W        W28173  35.060  19.281  11.528
61633W        W28174  40.785  29.468   1.297
61634W        W28175  21.187  18.041  12.496
61635W        W28176  31.123   3.354  11.304
61636W        W28177  31.484  42.540  13.024
61637W        W28178   8.907  27.063   4.130
61638W        W28179   7.152  20.197   0.346
61639W        W28180  33.411  33.951  10.114
61640W        W28181  28.081  28.615  12.453
61641W        W28182  36.306   0.370  10.656
61642W        W28183  17.180  30.733   3.267
61643W        W28184  39.147  40.175   2.078
61644W        W28185  20.117  42.132   3.141
61645W        W28186  21.983   2.197  11.091
61646W        W28187   2.434  27.319   1.883
61647W        W28188  43.063  22.811   0.718
61648W        W28189  23.972  23.962   4.051
61649W        W28190  43.053   0.518  10.456
61650W        W28191  10.897   5.889   2.322
61651W        W28192  34.350  44.384  11.595
61652W        W28193   5.535   0.805   4.358
61653W        W28194  24.773   0.384  11.697
61654W        W28195  35.512  41.670  13.137
61655W        W28196  40.173  18.143  12.995
61656W        W28197  28.025  26.521   4.564
61657W        W28198  24.914  24.211   0.480
61658W        W28199   3.266  12.792   3.851
61659W        W28200  37.738  40.933   2.807
61660W        W28201  21.787   1.866  14.377
61661W        W28202  37.493   2.524  14.818
61662W        W28203  25.360  27.664   2.294
61663W        W28204  18.772  29.993  13.490
61664W        W28205  35.189  38.471  13.905
61665W        W28206   4.686  33.666   1.679
61666W        W28207   7.718  18.741  13.396
61667W        W28208  42.416   4.013  14.215
61668W        W28209  10.129  26.639   4.721
61669W        W28210   4.428  38.976   3.055
61670W        W28211  33.437  11.318  13.097
61671W        W28212   9.460   3.905  11.232
61672W        W28213  31.497  13.927   2.121
61673W        W28214  33.509  17.768   3.834
61674W        W28215  26.294   3.597  12.082
61675W        W28216  34.495  40.576  13.230
61676W        W28217   1.281  15.275   4.457
61677W        W28218  16.553   3.990   0.490
61678W        W28219  27.652  10.365   1.890
61679W        W28220  40.017  38.459  12.854
61680W        W28221  19.331  16.045   0.326
61681W        W28222   7.488   9.386   0.486
61682W        W28223   1.813   7.840  14.030
61683W        W28224  36.565   2.773  12.105
61684W        W28225  16.129  13.183   3.595
61685W        W28226  29.170   9.297  12.887
61686W        W28227  29.598   2.996  12.520
61687W        W28228  41.878   0.393   1.741
61688W        W28229   5.441  41.564  10.672
61689W        W28230  37.766  24.344  12.526
61690W        W28231  32.411  27.727  13.990
61691W        W28232  29.009  16.240  13.094
61692W        W28233  41.596  19.567   1.866
61693W        W28234  27.642  37.552  14.759
61694W        W28235   8.365  23.612   1.151
61695W        W28236   0.293   6.298   4.348
61696W        W28237  39.560  39.633   3.906
61697W        W28238  30.547  38.997   3.576
61698W        W28239  39.053  33.270  10.211
61699W        W28240  16.039  20.922  14.386
61700W        W28241  30.054  29.171  12.164
61701W        W28242  18.163  28.443   2.959
61702W        W28243  34.626  36.548  11.165
61703W        W28244  26.177  21.746  14.908
61704W        W28245   9.108  40.263  12.909
61705W        W28246  15.884  24.106   3.647
61706W        W28247  28.272  26.699  12.841
61707W        W28248  41.747  23.750   3.288
61708W        W28249  29.206  35.468  10.785
61709W        W28250  16.234  17.816  14.495
61710W        W28251  33.467   3.427  11.979
61711W        W28252   1.849  11.273   0.286
61712W        W28253  41.346   1.797  14.456
61713W        W28254  28.690  37.283  11.342
61714W        W28255  14.383  44.462   1.776
61715W        W28256  29.624  18.267  11.230
61716W        W28257   4.382  21.198   4.600
61717W        W28258  11.607   6.022  13.968
61718W        W28259  10.263  42.253   0.986
61719W        W28260  38.900  29.142   3.859
61720W        W28261  18.173  19.608   4.239
61721W        W28262  15.183  23.904   3.250
61722W        W28263  31.533  15.644   9.960
61723W        W28264  21.827  11.468   0.249
61724W        W28265  27.555  19.291  14.961
61725W        W28266  30.613  33.926  12.475
61726W        W28267   5.256  40.839  14.862
61727W        W28268  17.639  34.509   1.944
61728W        W28269  13.527  35.658   2.424
61729W        W28270  13.582  31.045  12.576
61730W        W28271  29.683   6.105  14.082
61731W        W28272  43.239   7.305   0.437
61732W        W28273   7.080  29.392   4.489
61733W        W28274   7.498  35.822  12.079
61734W        W28275  11.316  38.307   1.236
61735W        W28276  21.125   0.146  14.437
61736W        W28277  32.624  12.290  12.982
61737W        W28278  11.133  25.000   3.709
61738W        W28279  31.912  16.611   2.353
61739W        W28280   4.859  31.529   3.602
61740W        W28281  10.022  43.596   2.255
61741W        W28282   9.071  28.680   3.409
61742W        W28283  14.145  18.299   4.479
61743W        W28284  18.804  26.396   3.794
61744W        W28285  40.995  44.242  10.646
61745W        W28286  27.705  30.525  13.577
61746W        W28287  37.063  36.462  14.735
61747W        W28288  11.244  28.965   1.308
61748W        W28289   0.800  40.937   0.148
61749W        W28290  18.107   0.425  10.788
61750W        W28291  28.765  41.562   0.881
61751W        W28292  15.617  29.510  13.070
61752W        W28293  28.199  43.972  10.846
61753W        W28294  30.327   7.398   4.076
61754W        W28295  32.668  29.602  10.691
61755W        W28296  20.756   3.247  10.820
61756W        W28297  22.459  27.570   3.915
61757W        W28298   9.183  41.550  12.543
61758W        W28299   9.313  40.182   0.904
61759W        W28300   8.640  14.155  11.656
61760W        W28301  31.385   7.991   2.686
61761W        W28302   0.443   7.645  11.360
61762W        W28303   1.978   5.483  14.329
61763W        W28304  20.305  13.309  12.202
61764W        W28305   4.107  37.609  12.508
61765W        W28306   8.666  38.178   3.879
61766W        W28307  42.797  24.552   0.365
61767W        W28308  32.926   4.581   1.305
61768W        W28309  20.493   1.999   0.392
61769W        W28310  28.106  41.258  12.954
61770W        W28311  14.334  13.035   1.889
61771W        W28312  13.769  17.436  11.211
61772W        W28313  26.426   7.751  11.689
61773W        W28314  11.667  38.003  10.562
61774W        W28315   4.726  17.526   3.083
61775W        W28316  16.260   3.231   4.510
61776W        W28317  32.424  34.387   1.862
61777W        W28318  14.096   4.843  11.454
61778W        W28319  26.006  16.795   3.768
61779W        W28320  17.838  29.509  10.618
61780W        W28321   4.678   1.999   2.278
61781W        W28322  43.075  23.643   4.633
61782W        W28323  28.083   1.338  14.123
61783W        W28324  24.444  42.351  14.059
61784W        W28325  32.649  24.126   2.329
61785W        W28326  20.951  25.419  14.172
61786W        W28327  42.966  43.388  14.236
61787W        W28328   5.671  29.958   1.233
61788W        W28329  24.019  40.787  10.710
61789W        W28330  28.209  13.526   2.799
61790W        W28331  20.252   7.819   2.587
61791W        W28332  24.228  39.866  12.896
61792W        W28333   9.006  43.726  12.991
61793W        W28334   6.389  21.032  12.074
61794W        W28335  14.699   2.102  11.991
61795W        W28336  35.357  37.969  11.506
61796W        W28337   9.658  16.495  10.225
61797W        W28338  38.123  17.807  11.094
61798W        W28339  36.337  38.398   0.890
61799W        W28340  42.039  31.947   0.785
61800W        W28341  37.137  41.128  11.045
61801W        W28342  18.778  21.970   4.544
61802W        W28343   8.379   1.422  14.287
61803W        W28344  11.423  33.734   4.428
61804W        W28345   2.454  38.908   0.429
61805W        W28346  17.081  34.272   2.693
61806W        W28347  22.070   3.792   5.343
61807W        W28348   3.893  35.257   1.259
61808W        W28349   5.389  10.247   4.029
61809W        W28350  10.128  36.605   4.386
61810W        W28351  18.733  24.184   0.295
61811W        W28352  15.684  15.300  12.076
61812W        W28353   9.904  39.137   0.241
61813W        W28354  43.428  41.422   1.435
61814W        W28355  36.342  28.060  10.991
61815W        W28356  28.260  13.703   0.583
61816W        W28357  32.905  16.675   0.528
61817W        W28358   6.874  22.065   2.885
61818W        W28359   2.674   1.844   0.740
61819W        W28360  35.354   5.450   0.191
61820W        W28361  34.473  44.324   0.970
61821W        W28362   3.778  41.537   4.140
61822W        W28363  26.150  11.086   4.761
61823W        W28364   4.364  44.187   4.846
61824W        W28365  28.860  40.321  11.709
61825W        W28366   3.573  31.422  12.190
61826W        W28367   6.408  20.292  12.481
61827W        W28368  18.596   9.974   2.838
61828W        W28369   8.947  29.385   2.227
61829W        W28370  32.041  33.951  12.987
61830W        W28371  16.002  12.996   0.613
61831W        W28372  41.384  38.018   1.325
61832W        W28373   2.248  24.966   9.798
61833W        W28374  17.321  28.145  14.111
61834W        W28375  18.105  16.803   4.243
61835W        W28376   8.471  43.296  12.484
61836W        W28377  22.349  11.342   0.160
61837W        W28378  20.385   9.866   4.193
61838W        W28379  16.942  12.586  12.060
61839W        W28380   3.509  11.927  13.887
61840W        W28381  29.455  32.462   2.275
61841W        W28382   7.854  37.780  11.249
61842W        W28383  17.778   5.703   1.361
61843W        W28384  11.810  13.684   3.378
61844W        W28385  38.128  23.105  13.180
61845W        W28386  33.875  40.466  11.090
61846W        W28387  40.971  11.017   2.959
61847W        W28388  16.464  42.523  14.283
61848W        W28389  41.134  40.251   2.741
61849W        W28390  42.313  29.750  13.821
61850W        W28391  12.586   8.844  11.166
61851W        W28392   5.501  39.404   9.880
61852W        W28393  41.575  16.544   2.630
61853W        W28394  13.502  24.708  10.816
61854W        W28395  21.126   7.690  13.894
61855W        W28396  19.261  26.851  12.751
61856W        W28397  29.150  41.042  13.614
61857W        W28398  17.174  10.765  14.004
61858W        W28399  40.906  15.591   3.246
61859W        W28400  13.277   2.856  14.426
61860W        W28401  38.715   7.295   0.426
61861W        W28402  37.792  42.552  11.875
61862W        W28403  24.068  43.506  14.195
61863W        W28404  32.782  28.586   0.696
61864W        W28405   2.115   6.240  12.019
61865W        W28406  34.003  11.689   1.168
61866W        W28407  36.886  13.649   4.635
61867W        W28408  28.102  34.740  13.667
61868W        W28409   4.654  33.060   0.546
61869W        W28410   2.394  39.885  10.801
61870W        W28411  14.059  25.726  11.523
61871W        W28412  26.939  16.681  11.118
61872W        W28413  20.740  17.296  13.596
61873W        W28414  10.668  22.393   0.371
61874W        W28415  21.567   6.375  13.051
61875W        W28416  33.568  31.466   2.344
61876W        W28417  37.501  14.043   5.367
61877W        W28418  19.212  21.617  11.385
61878W        W28419   0.865  13.006  14.548
61879W        W28420  26.236  27.459   2.328
61880W        W28421  20.774  39.718  14.591
61881W        W28422  28.987  34.952  10.727
61882W        W28423  39.413  41.232   0.682
61883W        W28424  13.777  33.902   3.532
61884W        W28425  25.004   3.260  11.057
61885W        W28426  27.557   5.807   3.965
61886W        W28427  20.260  32.201  10.573
61887W        W28428  23.424  15.336  12.500
61888W        W28429  29.466  28.590  10.666
61889W        W28430  15.219  12.519  13.297
61890W        W28431  35.646  32.239  11.184
61891W        W28432  24.811   0.772   3.503
61892W        W28433  15.329  25.624  12.066
61893W        W28434  41.298  12.533   2.311
61894W        W28435  10.753   0.780  13.510
61895W        W28436  37.008  35.362   1.672
61896W        W28437  43.313   4.362  13.940
61897W        W28438  20.467  13.101   1.369
61898W        W28439   9.694  30.833  12.388
61899W        W28440  13.659  39.524   3.105
61900W        W28441  26.016  32.088  12.856
61901W        W28442  43.524  22.993  14.879
61902W        W28443  36.942  40.292   2.924
61903W        W28444  22.911  26.887  12.444
61904W        W28445  40.495  42.591  13.413
61905W        W28446   6.740  31.955  14.275
61906W        W28447  40.564  26.718  11.526
61907W        W28448  34.711   2.414  13.844
61908W        W28449  19.282   6.150   3.291
61909W        W28450  42.666   7.129   1.789
61910W        W28451   3.774  44.173  12.414
61911W        W28452  20.013  23.934   3.592
61912W        W28453   0.801  10.188   4.078
61913W        W28454  36.957  28.104  14.086
61914W        W28455  20.608   9.669  14.906
61915W        W28456   1.464   4.224   1.880
61916W        W28457  31.433  44.674  11.815
61917W        W28458  21.032  30.932  14.929
61918W        W28459   8.326   7.058  11.964
61919W        W28460  23.502  39.728  13.489
61920W        W28461   2.357  20.161   3.545
61921W        W28462  39.813  34.548   1.021
61922W        W28463  27.746  10.753   3.869
61923W        W28464  22.093   4.518  10.644
61924W        W28465  42.135  14.849   5.071
61925W        W28466  19.090   7.643   2.311
61926W        W28467   1.785  10.935   1.885
61927W        W28468  10.785  30.375  14.390
61928W        W28469  10.315   5.553   0.839
61929W        W28470  44.317  36.879  12.977
61930W        W28471   6.973  34.165  12.529
61931W        W28472   7.173  14.610  10.687
61932W        W28473  41.561  37.421   2.210
61933W        W28474  23.686  21.171  10.665
61934W        W28475  38.791  18.220  14.730
61935W        W28476  30.078   0.094  12.431
61936W        W28477  17.116  41.979  13.389
61937W        W28478   5.855  41.275   3.781
61938W        W28479   7.650  30.131   3.168
61939W        W28480   4.749   4.145   0.358
61940W        W28481   8.694  12.295   3.802
61941W        W28482   8.186  37.567   3.251
61942W        W28483  44.471   4.570   0.438
61943W        W28484  20.226  38.273  14.252
61944W        W28485  15.240  29.125  10.707
61945W        W28486   0.959  23.113  11.238
61946W        W28487  15.427  31.031   0.428
61947W        W28488   6.647  29.839  12.446
61948W        W28489  14.911  40.291   4.160
61949W        W28490  44.697   3.737   0.405
61950W        W28491  43.796  18.094   3.321
61951W        W28492  16.777  33.660   3.315
61952W        W28493  42.012  19.147   0.218
61953W        W28494   4.171   4.712  11.534
61954W        W28495   8.887  11.161  11.651
61955W        W28496  23.651   7.324   1.426
61956W        W28497  36.445  15.077  14.095
61957W        W28498  40.170  17.533   3.219
61958W        W28499  14.589  28.000   0.026
61959W        W28500   6.868  37.914  10.166
61960W        W28501   1.557  27.403   0.731
61961W        W28502  26.917  27.616  14.773
61962W        W28503  22.226   4.903  14.897
61963W        W28504   4.036   9.190   0.033
61964W        W28505  14.074  18.279  10.756
61965W        W28506  35.190   7.272  12.822
61966W        W28507   8.226  41.107  12.124
61967W        W28508   3.437  27.571   1.684
61968W        W28509  34.429  30.695  10.688
61969W        W28510  22.579  26.363  11.628
61970W        W28511  37.903  43.026   2.983
61971W        W28512  32.125   8.458   2.329
61972W        W28513   3.178  29.141  12.169
61973W        W28514  44.196  30.209  11.666
61974W        W28515  43.847  17.497  13.993
61975W        W28516  32.878   5.135   3.065
61976W        W28517  36.830  30.043   0.381
61977W        W28518  25.389  35.758  12.350
61978W        W28519  34.198  33.500   3.992
61979W        W28520  26.274  28.053   1.841
61980W        W28521   9.424  23.556  13.613
61981W        W28522  13.551   4.759   0.845
61982W        W28523  39.015  33.692   4.220
61983W        W28524  29.492   0.872  12.088
61984W        W28525   7.691  14.723  12.474
61985W        W28526  34.438  30.469   0.803
61986W        W28527  18.058  11.076   3.122
61987W        W28528   4.643   9.407   2.748
61988W        W28529  35.439  16.898  14.724
61989W        W28530  27.819   0.460  14.499
61990W        W28531  32.555  43.273   3.086
61991W        W28532  21.262  31.437  10.580
61992W        W28533   9.266  26.188   3.080
61993W        W28534   5.252  38.528   1.341
61994W        W28535  35.631  24.616  12.885
61995W        W28536   5.903  12.258   3.393
61996W        W28537  10.057   7.887  14.488
61997W        W28538   2.635  37.516  10.815
61998W        W28539   3.689  15.726  13.596
61999W        W28540  40.353  39.587  13.962
62000W        W28541  35.485   5.552   5.487
62001W        W28542  37.549  13.920  12.808
62002W        W28543  19.786  12.131  11.010
62003W        W28544  37.651   2.825  14.275
62004W        W28545   5.720  27.110   2.828
62005W        W28546  30.782   2.449  10.915
62006W        W28547  30.611  44.373   0.455
62007W        W28548  24.663  36.084   1.498
62008W        W28549  20.232  11.734  11.656
62009W        W28550  17.761  28.711  14.387
62010W        W28551   9.342  24.830  11.139
62011W        W28552  14.205  41.525   0.964
62012W        W28553   6.627  43.982  13.857
62013W        W28554  37.330  34.000  14.534
62014W        W28555  19.774  38.435  13.467
62015W        W28556   4.390  35.284   3.039
62016W        W28557  16.766  20.792   3.206
62017W        W28558   6.734  43.336  10.873
62018W        W28559  30.201  44.802  10.955
62019W        W28560  16.235  44.472  10.694
62020W        W28561  31.416  18.803   3.743
62021W        W28562  23.981  36.544   3.127
62022W        W28563  43.293  27.957   0.550
62023W        W28564  31.118  22.551  13.602
62024W        W28565   3.754  21.711  11.678
62025W        W28566  43.457  24.216  13.865
62026W        W28567  38.081  44.051   3.050
62027W        W28568  22.151  18.639  14.360
62028W        W28569  20.241  22.470   3.441
62029W        W28570  31.532  12.430   2.307
62030W        W28571  36.214  10.136   0.200
62031W        W28572  39.028   4.864  14.900
62032W        W28573  24.328  19.521  12.955
62033W        W28574  43.222   5.383   0.273
62034W        W28575  14.833  34.172  12.112
62035W        W28576  17.969  26.556  14.825
62036W        W28577  20.039  28.556  14.061
62037W        W28578  37.053  42.910   0.057
62038W        W28579  29.055   4.553   2.797
62039W        W28580  35.852  25.131   4.623
62040W        W28581  10.749  22.098   0.824
62041W        W28582  18.802  19.175   2.072
62042W        W28583  15.028   1.864   3.557
62043W        W28584  31.583   5.908   4.063
62044W        W28585  11.602  30.047  14.014
62045W        W28586  44.953   7.229   3.917
62046W        W28587  24.722  34.480  13.776
62047W        W28588  26.082  23.731   0.021
62048W        W28589  24.131  22.027   3.964
62049W        W28590  19.705  17.128   2.176
62050W        W28591   2.024  32.185   0.339
62051W        W28592  15.574   5.129  13.898
62052W        W28593   7.228  21.676   4.701
62053W        W28594   0.680  12.223  10.687
62054W        W28595  28.078  21.212   4.536
62055W        W28596  10.535  15.631  11.499
62056W        W28597  18.165  32.470   3.184
62057W        W28598  18.769  39.211   0.033
62058W        W28599  44.316  17.884  14.478
62059W        W28600  32.427  25.435  12.327
62060W        W28601  43.965   0.220  11.080
62061W        W28602  15.758  25.436  10.717
62062W        W28603  44.114  19.749   3.827
62063W        W28604  15.723  14.225  13.389
62064W        W28605  30.705   9.784  11.604
62065W        W28606  37.295  24.075   3.894
62066W        W28607  29.955  25.659  10.819
62067W        W28608  23.161  42.671   3.176
62068W        W28609  19.777  37.850  14.405
62069W        W28610  34.043  15.721  10.524
62070W        W28611  37.810  23.989   1.207
62071W        W28612  40.300   3.503   5.059
62072W        W28613  13.674   6.690  14.821
62073W        W28614  43.457  27.994   2.164
62074W        W28615   2.905  36.269  14.385
62075W        W28616  28.485   3.693   1.847
62076W        W28617   5.807   5.788   0.343
62077W        W28618  28.658  19.740   1.810
62078W        W28619   5.204   6.793   1.288
62079W        W28620   4.699  39.771   0.954
62080W        W28621  32.172  31.459   3.667
62081W        W28622  24.199  43.223   4.287
62082W        W28623  10.618  32.599  14.061
62083W        W28624  12.755  38.954   1.415
62084W        W28625  12.890  40.959   1.268
62085W        W28626  32.880  37.124   3.536
62086W        W28627  11.806  15.112   3.280
62087W        W28628  35.425  13.792   4.663
62088W        W28629  17.713  26.682  14.392
62089W        W28630  11.321  22.512   2.712
62090W        W28631  11.630  36.739  12.974
62091W        W28632  16.092   8.234  14.177
62092W        W28633  10.470  20.572   3.899
62093W        W28634   6.819  20.246  12.833
62094W        W28635   8.071  35.048   4.063
62095W        W28636  26.218  38.746   2.830
62096W        W28637  32.612  13.507   0.920
62097W        W28638  43.013  35.422   0.199
62098W        W28639   5.326  34.926   3.928
62099W        W28640   5.388  17.006  13.211
62100W        W28641  20.262  38.543   3.106
62101W        W28642  37.668  25.663  11.572
62102W        W28643  40.274  24.423   4.104
62103W        W28644  17.588  16.064  12.553
62104W        W28645   3.965  39.793  15.000
62105W        W28646  36.494  40.012   0.285
62106W        W28647  31.570  33.730  10.232
62107W        W28648  40.699   8.606  11.620
62108W        W28649  14.998  25.591   3.286
62109W        W28650  41.714   0.001   4.543
62110W        W28651  19.190  40.293  14.305
62111W        W28652  30.477   2.492  13.570
62112W        W28653   5.895  12.889   2.139
62113W        W28654  41.640  11.097   2.198
62114W        W28655  18.686   0.819  13.782
62115W        W28656  29.946  14.566  11.167
62116W        W28657  30.872  36.159   1.558
62117W        W28658  23.208  25.522  13.833
62118W        W28659  16.375   5.859  14.460
62119W        W28660  10.374   1.859   3.197
62120W        W28661  15.483   2.597   3.359
62121W        W28662  43.718  44.265   0.621
62122W        W28663  25.779   2.326  10.619
62123W        W28664  28.505  28.286   2.232
62124W        W28665  19.835  13.600  12.979
62125W        W28666   5.648  32.681   1.343
62126W        W28667  44.866  37.058   2.811
62127W        W28668  39.307  18.001  11.393
62128W        W28669  10.078  42.051  12.352
62129W        W28670  40.018   3.450  11.716
62130W        W28671  32.023  11.146   1.614
62131W        W28672   3.160  40.407  13.378
62132W        W28673  13.365   8.702  12.574
62133W        W28674  43.456  26.401   2.229
62134W        W28675  36.468  10.560   0.067
62135W        W28676  18.735   8.687   3.096
62136W        W28677  29.371  31.100  14.824
62137W        W28678  44.865   3.959   1.711
62138W        W28679  44.846  27.821  12.489
62139W        W28680  13.687  33.917   1.347
62140W        W28681  15.826  12.590  12.970
62141W        W28682  18.979  15.621  13.960
62142W        W28683   5.882  26.566  12.311
62143W        W28684   6.802  42.004   3.272
62144W        W28685  18.285   2.635  12.502
62145W        W28686  34.025  36.381  12.941
62146W        W28687  40.514  19.068  14.033
62147W        W28688   5.291  14.820  11.469
62148W        W28689   3.585   3.209   4.087
62149W        W28690  22.761  38.928   1.855
62150W        W28691  11.411  17.996  11.609
62151W        W28692  19.344  39.306  12.619
62152W        W28693  10.186  29.117  14.946
62153W        W28694  27.437  19.209  13.002
62154W        W28695  17.720  23.252  13.051
62155W        W28696  17.770  29.907  12.840
62156W        W28697   8.208  17.242  14.373
62157W        W28698  22.763  43.514   1.204
62158W        W28699   9.476  14.428   2.871
62159W        W28700  10.722   8.133   1.190
62160W        W28701  37.381  25.741  11.142
62161W        W28702  12.095   2.593   2.664
62162W        W28703  24.972  41.710  13.048
62163W        W28704  43.494  21.092   4.555
62164W        W28705   0.914  33.698  13.991
62165W        W28706   1.466  19.996   0.785
62166W        W28707  24.541  35.461  10.761
62167W        W28708  23.915  32.586  14.433
62168W        W28709  40.102  33.467   2.329
62169W        W28710  12.189  32.729  14.566
62170W        W28711  34.208  26.768   4.374
62171W        W28712  39.010  26.533   0.281
62172W        W28713  18.737  30.339  11.202
62173W        W28714  38.277  29.251  11.199
62174W        W28715  36.435  18.340   2.837
62175W        W28716  25.739  12.678  10.338
62176W        W28717  20.479   6.139   4.553
62177W        W28718  27.382  41.847   2.188
62178W        W28719   6.091  43.288   3.265
62179W        W28720   5.311   0.388  12.067
62180W        W28721  31.078  16.079   3.216
62181W        W28722   0.597   4.907   4.276
62182W        W28723   3.897  38.367   1.441
62183W        W28724  10.206   4.632  10.620
62184W        W28725  32.946  43.974  14.710
62185W        W28726   4.367  34.255  14.772
62186W        W28727  28.594  20.572  13.442
62187W        W28728  16.221   5.870  13.583
62188W        W28729  26.277   2.956  12.876
62189W        W28730  40.076  11.358  14.891
62190W        W28731  42.285  41.511  14.292
62191W        W28732   3.566   5.348   3.217
62192W        W28733  24.010   3.370   4.544
62193W        W28734   3.260  30.129  14.477
62194W        W28735  44.932  13.618   2.679
62195W        W28736   6.106  13.273   0.834
62196W        W28737   7.124  26.596   1.932
62197W        W28738  15.803   8.998  10.233
62198W        W28739   7.195   6.405  10.622
62199W        W28740  21.712  25.508  11.254
62200W        W28741  12.675   7.699  13.125
62201W        W28742  34.932  19.249  10.979
62202W        W28743  43.848   3.022   1.832
62203W        W28744   6.169   6.214  10.503
62204W        W28745  36.523  41.530   0.310
62205W        W28746   3.519  38.162   4.714
62206W        W28747  10.866  24.724  12.560
62207W        W28748  42.691   3.381   2.857
62208W        W28749   7.995  26.592   2.265
62209W        W28750  13.655   0.718   4.616
62210W        W28751   8.759  43.907  13.401
62211W        W28752  22.882  32.510  13.074
62212W        W28753   8.207  40.424   3.295
62213W        W28754  24.797   9.647  13.307
62214W        W28755  10.463  24.046   4.510
62215W        W28756  36.162  25.922   3.383
62216W        W28757  20.000   2.284  10.721
62217W        W28758  28.545  25.733   2.392
62218W        W28759  32.969  30.378   0.976
62219W        W28760  33.580   2.910   2.254
62220W        W28761  44.937  10.306  12.176
62221W        W28762  36.366   9.366   1.760
62222W        W28763  24.674  33.981   0.475
62223W        W28764  18.113  23.953   0.818
62224W        W28765  15.848  19.484   3.215
62225W        W28766  22.780  20.606  10.510
62226W        W28767  23.555  13.655   1.254
62227W        W28768   6.291   2.844   2.379
62228W        W28769  15.379  30.420   0.807
62229W        W28770  12.271  31.658  12.910
62230W        W28771   7.464  32.893  12.200
62231W        W28772  19.783  34.907  14.456
62232W        W28773  32.958  41.513   1.315
62233W        W28774  34.461  32.814  11.132
62234W        W28775  15.603  25.956  13.970
62235W        W28776  20.338  34.668  10.722
62236W        W28777  42.371  27.231   4.036
62237W        W28778  35.776   1.385  12.801
62238W        W28779  14.179  24.724   1.317
62239W        W28780   6.097  10.540   1.138
62240W        W28781  18.774  37.939  13.786
62241W        W28782   8.025  23.735  14.829
62242W        W28783  44.323   5.420  10.680
62243W        W28784   8.211  39.462   2.721
62244W        W28785  27.591  35.536  10.986
62245W        W28786  27.184   6.016   0.009
62246W        W28787  16.626  42.709  14.733
62247W        W28788  18.102   9.461   4.211
62248W        W28789  31.708  22.759   4.151
62249W        W28790  15.188  29.277  13.241
62250W        W28791   9.537  17.099  12.329
62251W        W28792  38.962  43.925   0.458
62252W        W28793   4.888  42.326  14.439
62253W        W28794  11.411  38.517  13.252
62254W        W28795  29.069  12.943   2.171
62255W        W28796  13.317  17.342   3.554
62256W        W28797   5.747  33.330  10.917
62257W        W28798  27.675  36.444  13.908
62258W        W28799  12.682  26.522   0.830
62259W        W28800  44.307  35.815  12.766
62260W        W28801   5.989  40.899  11.069
62261W        W28802  37.285  32.356  12.107
62262W        W28803  19.228  10.691   2.466
62263W        W28804   6.795  25.573   1.354
62264W        W28805  25.740  25.278  11.180
62265W        W28806  13.596  40.042  11.196
62266W        W28807  40.967  21.418   1.406
62267W        W28808  33.832  18.720  13.495
62268W        W28809  14.379  31.957  11.922
62269W        W28810  15.727  24.447   2.754
62270W        W28811  11.603   2.605   2.794
62271W        W28812  34.239   2.567  13.364
62272W        W28813  17.027  37.313  11.992
62273W        W28814  11.926  38.513  13.340
62274W        W28815  40.715  10.030   1.584
62275W        W28816   9.269   9.180   4.786
62276W        W28817  27.490   0.929   3.286
62277W        W28818  44.291   6.366   0.388
62278W        W28819  15.917   1.639   3.747
62279W        W28820   4.444   7.321  13.258
62280W        W28821   6.802  26.427   1.572
62281W        W28822  27.195  24.916   1.255
62282W        W28823  16.491  37.785  12.831
62283W        W28824  28.989  14.159  14.359
62284W        W28825  24.103  29.872  11.422
62285W        W28826   8.195  14.802  10.738
62286W        W28827  16.790  24.344  10.198
62287W        W28828  13.060  20.619  12.029
62288W        W28829  14.660   5.276  11.958
62289W        W28830  44.269  34.124  13.515
62290W        W28831  38.900   8.180  12.927
62291W        W28832  12.762  24.957  13.286
62292W        W28833  39.098  23.233  12.433
62293W        W28834  29.873  21.709  10.596
62294W        W28835  13.707  30.309  14.877
62295W        W28836  27.488  31.070   0.390
62296W        W28837   7.787  11.304  12.973
62297W        W28838  30.889  28.672   1.177
62298W        W28839   5.977  44.868  13.928
62299W        W28840  28.393   8.145  13.517
62300W        W28841  11.244   7.610   1.399
62301W        W28842  39.626   7.183  13.063
62302W        W28843   1.970  28.450  10.078
62303W        W28844  36.939  20.540  11.141
62304W        W28845  21.739  29.672  14.968
62305W        W28846  37.442  41.397   3.782
62306W        W28847  10.079  27.031  11.201
62307W        W28848  12.859  34.130  12.135
62308W        W28849  18.051  21.975  13.228
62309W        W28850  30.984  25.284   3.713
62310W        W28851   8.816  19.998  12.127
62311W        W28852   0.478  37.130   2.541
62312W        W28853  21.317   0.941  11.947
62313W        W28854  31.421   8.608   0.695
62314W        W28855  35.352  21.222  14.400
62315W        W28856  33.467  32.879   2.747
62316W        W28857  25.424  16.217   2.186
62317W        W28858  16.355  10.796   2.648
62318W        W28859   0.878  11.856  14.212
62319W        W28860  22.781  16.828  11.537
62320W        W28861  43.206   4.128   1.347
62321W        W28862  33.830  38.381   4.943
62322W        W28863  35.888  11.447  12.541
62323W        W28864  33.368  27.674   4.360
62324W        W28865  11.128  14.703   3.331
62325W        W28866  10.839  14.673  13.735
62326W        W28867  28.483  25.125   1.685
62327W        W28868   4.153  32.958   1.244
62328W        W28869  26.684  39.924  12.405
62329W        W28870  24.600  42.754   3.902
62330W        W28871  18.403  44.961  10.839
62331W        W28872  39.026   7.124   2.093
62332W        W28873  10.004  10.686  12.997
62333W        W28874  18.767  40.588   1.745
62334W        W28875  27.409   2.239   4.144
62335W        W28876  39.063  26.806   5.032
62336W        W28877  21.274  36.327  11.267
62337W        W28878  40.559  16.257   4.730
62338W        W28879  23.766  31.815  14.743
62339W        W28880  26.850  11.774  12.729
62340W        W28881  21.203  11.857   1.423
62341W        W28882   2.301  34.449   0.960
62342W        W28883  43.457   8.421   1.055
62343W        W28884  24.995  11.156  13.029
62344W        W28885  13.774  27.403   0.974
62345W        W28886  35.253  25.897  11.216
62346W        W28887   2.300  12.294  10.627
62347W        W28888  20.383  40.046   2.402
62348W        W28889  43.378   1.504   3.869
62349W        W28890   7.777  19.672   1.090
62350W        W28891  43.061   0.782  11.960
62351W        W28892  30.286  40.171  12.101
62352W        W28893  40.369  20.509   1.309
62353W        W28894   4.403  25.547   3.745
62354W        W28895   0.771  28.606  11.037
62355W        W28896  21.645  20.685  13.148
62356W        W28897  16.776  19.545   4.080
62357W        W28898   2.039  35.429   3.288
62358W        W28899  42.435  39.461   3.648
62359W        W28900  18.523  12.064  14.532
62360W        W28901  23.671  31.561  13.036
62361W        W28902  25.265   9.935  12.451
62362W        W28903  39.003  17.074   1.859
62363W        W28904  35.191   5.949   3.761
62364W        W28905  23.130  20.543   0.476
62365W        W28906  37.358  18.353   1.885
62366W        W28907  26.174   3.054  14.409
62367W        W28908  22.863   8.746  11.952
62368W        W28909  19.835  44.928   3.565
62369W        W28910  36.571  15.305   2.388
62370W        W28911  24.155  11.108   0.248
62371W        W28912  17.413  27.136  13.523
62372W        W28913  24.225   8.877   3.199
62373W        W28914  41.430  35.476  14.358
62374W        W28915  28.142  15.129  12.742
62375W        W28916  13.348   4.818  12.525
62376W        W28917  37.388   1.644   4.902
62377W        W28918  29.005  30.234   0.427
62378W        W28919  17.190   3.043  14.860
62379W        W28920  27.995  20.611  11.971
62380W        W28921  18.269  35.528   3.323
62381W        W28922  14.652  16.635  14.619
62382W        W28923  42.534   8.963   2.249
62383W        W28924   4.711  35.491  14.363
62384W        W28925  33.799   2.336   1.271
62385W        W28926  32.416   3.449   5.066
62386W        W28927  27.490  12.463   4.886
62387W        W28928  11.432  32.997  13.400
62388W        W28929  36.047  40.746  13.603
62389W        W28930  42.691  27.049   2.715
62390W        W28931   1.951   6.277  14.664
62391W        W28932  24.420   3.281   3.333
62392W        W28933  33.597  44.639   4.110
62393W        W28934  33.458  23.798  11.154
62394W        W28935  43.848   2.803   2.332
62395W        W28936  38.520  12.614  13.739
62396W        W28937   3.654  29.962  10.692
62397W        W28938   3.270  11.369  13.076
62398W        W28939  31.042   8.528   0.320
62399W        W28940   1.432   7.755   0.723
62400W        W28941  24.093  18.316  10.740
62401W        W28942  13.262  16.018  14.946
62402W        W28943  41.319  10.295  10.843
62403W        W28944  19.012  31.836  14.968
62404W        W28945  32.440  28.485   3.858
62405W        W28946  11.136  35.886  12.637
62406W        W28947  26.706  10.164  13.364
62407W        W28948  34.562  22.579  14.854
62408W        W28949  26.676  21.969  11.566
62409W        W28950  21.284  41.010  13.102
62410W        W28951   1.543  42.450  11.484
62411W        W28952  13.238  16.061  12.800
62412W        W28953  39.377  39.402   4.689
62413W        W28954  19.862  13.561  12.174
62414W        W28955  36.030  28.035   4.420
62415W        W28956  28.267   2.525  11.621
62416W        W28957  18.119   0.716  12.568
62417W        W28958  44.713   1.559   3.783
62418W        W28959  27.691  43.408  11.927
62419W        W28960  29.426   8.179   4.919
62420W        W28961   2.959  37.470  11.207
62421W        W28962  35.049   9.603  12.049
62422W        W28963  41.267  20.666  13.552
62423W        W28964  41.105  12.294   3.314
62424W        W28965  44.604  32.627  11.995
62425W        W28966  41.386  21.910  10.558
62426W        W28967  43.317  26.845   1.275
62427W        W28968  24.203  43.238   0.226
62428W        W28969  12.308   5.950  13.578
62429W        W28970  33.962  31.536   4.611
62430W        W28971   3.255  11.616   3.139
62431W        W28972  21.721   6.446  11.656
62432W        W28973  13.501  39.002  14.451
62433W        W28974  30.579  16.203  12.874
62434W        W28975  10.396  25.859   1.391
62435W        W28976  24.179  18.793   4.701
62436W        W28977   9.377   4.301   3.668
62437W        W28978  26.266  27.518   0.684
62438W        W28979  12.362  23.157   4.103
62439W        W28980  40.422  28.133   4.548
62440W        W28981  23.321  23.549  10.941
62441W        W28982  31.017  28.865  11.056
62442W        W28983  43.387   3.344   1.877
62443W        W28984  42.447  43.370  14.974
62444W        W28985  19.125  20.485  11.726
62445W        W28986  33.560  44.060  14.273
62446W        W28987  31.032  21.166   1.943
62447W        W28988  21.073   6.704   3.051
62448W        W28989  34.078   5.438   2.844
62449W        W28990  35.616  28.173  12.493
62450W        W28991   1.801  42.196  14.759
62451W        W28992   3.217   9.444   0.651
62452W        W28993   7.174  42.933   3.961
62453W        W28994   5.132   0.308   2.893
62454W        W28995   3.852  15.112   0.814
62455W        W28996  16.044  24.943   3.631
62456W        W28997  23.427   7.773   4.535
62457W        W28998  24.363   3.712  14.506
62458W        W28999  21.185  10.086  11.707
62459W        W29000   6.516   9.721   1.445
62460W        W29001   0.352  17.043  11.451
62461W        W29002  31.480  11.242  12.541
62462W        W29003   3.945   0.456   0.870
62463W        W29004  18.762  20.756  14.009
62464W        W29005   8.476  11.201   0.998
62465W        W29006   9.189  40.635   4.924
62466W        W29007  17.303  38.061  13.061
62467W        W29008  15.058   7.841  13.437
62468W        W29009   1.764   0.284  12.398
62469W        W29010  34.098  20.671  13.817
62470W        W29011  44.871  10.151  10.118
62471W        W29012  18.785   5.633  12.098
62472W        W29013  36.093   0.334   3.305
62473W        W29014  44.494  23.532   0.690
62474W        W29015  38.424  29.349   2.858
62475W        W29016  39.456  26.228   0.422
62476W        W29017   0.739  44.278  14.953
62477W        W29018  38.567  11.822   0.003
62478W        W29019   4.941  12.065  14.181
62479W        W29020  16.610  43.828   4.427
62480W        W29021  23.462   0.907  13.965
62481W        W29022  15.464  41.900  10.375
62482W        W29023  37.040  32.442   3.681
62483W        W29024  26.003   6.151  13.025
62484W        W29025   3.833   1.029  12.149
62485W        W29026  23.684  15.190   1.032
62486W        W29027  42.084  42.398  10.607
62487W        W29028  23.777  18.240   4.204
62488W        W29029  33.609   0.325  12.739
62489W        W29030  43.306  30.447   4.549
62490W        W29031   6.131  14.651   4.863
62491W        W29032  18.164   0.481  14.933
62492W        W29033   5.549  12.847  14.484
62493W        W29034  36.374  18.216  13.530
62494W        W29035  43.075  37.442  12.384
62495W        W29036  29.729  39.599  14.382
62496W        W29037   6.838  18.595  12.481
62497W        W29038  30.189   5.923  12.886
62498W        W29039  44.871  31.928  14.853
62499W        W29040   5.787  44.081  11.962
62500W        W29041  36.853  32.087  14.041
62501W        W29042  37.271   2.021   4.470
62502W        W29043  43.013  17.330   3.659
62503W        W29044   6.412  10.630   0.313
62504W        W29045  22.204  23.721  14.171
62505W        W29046  38.727  11.414   1.513
62506W        W29047  31.257  38.060   0.402
62507W        W29048  13.703  44.044   2.443
62508W        W29049   3.371  18.003  11.551
62509W        W29050   7.768  31.567   2.610
62510W        W29051  17.206  37.190   0.666
62511W        W29052  24.069  34.785   5.060
62512W        W29053   9.741  26.320   1.713
62513W        W29054  44.145   5.284   2.850
62514W        W29055  13.198  24.164  13.370
62515W        W29056  33.992  39.528  14.604
62516W        W29057  26.084  38.449  14.752
62517W        W29058  14.609  29.320  12.431
62518W        W29059   6.127  15.573   3.379
62519W        W29060  15.890   9.195   2.734
62520W        W29061   6.612   0.429  11.021
62521W        W29062  21.632  31.193  10.847
62522W        W29063  10.839  37.626  13.139
62523W        W29064  14.933  27.940   4.143
62524W        W29065   5.575   9.209  11.019
62525W        W29066  39.832  36.106   1.189
62526W        W29067  40.365  42.389   3.216
62527W        W29068   1.956  30.080  11.138
62528W        W29069   3.494   3.648   4.996
62529W        W29070  16.763   2.406   1.391
62530W        W29071  31.860   8.157  13.319
62531W        W29072  13.740  42.244   3.593
62532W        W29073  12.059  14.074   4.091
62533W        W29074  33.692  11.462   4.837
62534W        W29075  33.997  32.153   4.179
62535W        W29076  37.238   3.303  10.670
62536W        W29077  30.149   0.703  13.368
62537W        W29078  22.979  27.737   4.567
62538W        W29079  43.718  13.399  14.043
62539W        W29080   7.405   4.206  12.040
62540W        W29081  16.804  24.569   2.680
62541W        W29082  17.584  28.708  11.848
62542W        W29083  21.579   4.345  10.722
62543W        W29084  35.610  30.679   1.617
62544W        W29085  35.878  42.272  11.137
62545W        W29086  10.908  26.492  12.202
62546W        W29087  19.607  11.150  13.723
62547W        W29088  21.746  23.196   3.100
62548W        W29089  28.876   9.760   2.206
62549W        W29090  22.732  42.382  13.411
62550W        W29091  44.118  21.763   3.003
62551W        W29092   6.139  11.829   3.542
62552W        W29093  27.637  34.169  12.223
62553W        W29094  16.569  37.079  12.528
62554W        W29095  34.452   9.859  11.507
62555W        W29096   3.662   3.429   2.366
62556W        W29097  19.283  31.461  14.201
62557W        W29098  16.732  32.825   3.523
62558W        W29099  36.610  23.232   3.170
62559W        W29100  13.807  22.613   2.837
62560W        W29101  44.291   1.676   3.482
62561W        W29102  40.845  29.569  12.975
62562W        W29103  43.776  34.093  13.406
62563W        W29104  22.508  17.713   3.283
62564W        W29105  23.613  16.749  12.482
62565W        W29106   8.261   5.778  12.933
62566W        W29107   5.031   1.616   2.793
62567W        W29108  27.109  44.420  12.832
62568W        W29109  42.679  10.592   3.655
62569W        W29110  30.388  11.837   0.969
62570W        W29111  41.984  43.844  12.823
62571W        W29112  29.733  27.184  11.931
62572W        W29113  39.831  35.163   0.346
62573W        W29114  35.003  12.919   2.246
62574W        W29115  26.645  28.091  11.583
62575W        W29116  34.632  35.617   1.295
62576W        W29117  26.264   8.658  10.602
62577W        W29118  41.011  17.289  13.970
62578W        W29119   0.813  36.670  13.892
62579W        W29120  34.134  15.426  11.976
62580W        W29121  39.040  18.984   4.348
62581W        W29122  24.782  35.869  10.958
62582W        W29123  10.220  34.963  10.047
62583W        W29124  17.846  16.176   3.585
62584W        W29125  16.153  37.282   9.674
62585W        W29126  32.680   0.831  12.288
62586W        W29127  13.156  31.193  11.877
62587W        W29128   6.323  18.199   3.178
62588W        W29129   1.750  19.890   5.044
62589W        W29130  10.985  24.130   3.643
62590W        W29131  33.605  19.686  13.450
62591W        W29132  29.845   5.734  14.457
62592W        W29133  39.750   1.815  11.482
62593W        W29134   7.647  43.454  12.855
62594W        W29135  11.283   9.586   3.077
62595W        W29136  14.908   5.949   1.394
62596W        W29137  17.497  33.038  11.103
62597W        W29138   5.675   1.219   4.046
62598W        W29139   6.928   9.518   1.838
62599W        W29140  14.802   8.159   2.070
62600W        W29141  23.183  18.712  12.855
62601W        W29142  12.584  30.192   0.865
62602W        W29143  40.704  19.354   4.182
62603W        W29144   3.103  10.971  12.100
62604W        W29145  42.260  17.227   2.390
62605W        W29146  12.621  32.030  12.049
62606W        W29147   0.807   4.386   2.617
62607W        W29148  35.634   6.305  11.186
62608W        W29149  29.795   6.734   4.655
62609W        W29150  43.508  31.056  14.943
62610W        W29151   0.271  10.836  10.621
62611W        W29152  17.077   9.217  14.413
62612W        W29153   2.173  16.250   4.902
62613W        W29154  15.234  24.258  13.931
62614W        W29155  43.953  30.077   2.931
62615W        W29156  26.990   8.419   1.632
62616W        W29157  32.970   5.506   4.019
62617W        W29158  43.025  17.035  12.001
62618W        W29159  41.794  26.208   0.499
62619W        W29160   6.906  10.016  13.901
62620W        W29161  33.452  38.582   4.114
62621W        W29162   9.146  25.661  14.789
62622W        W29163  19.705  17.865  13.942
62623W        W29164  36.806  39.555  13.471
62624W        W29165  43.006  33.141  10.570
62625W        W29166  26.288  15.027   0.156
62626W        W29167  30.124   8.848  12.724
62627W        W29168   1.193  44.976   4.273
62628W        W29169  11.172  43.856  11.208
62629W        W29170  35.604  13.810  12.471
62630W        W29171   9.345  42.408  10.127
62631W        W29172   2.320  19.028   4.091
62632W        W29173   8.928  28.932   2.993
62633W        W29174  20.135  22.125  10.681
62634W        W29175  37.453   4.342  10.420
62635W        W29176   5.593  36.163  11.190
62636W        W29177  24.535  41.000   2.769
62637W        W29178   6.824  28.100   0.899
62638W        W29179  13.698  22.028   3.579
62639W        W29180   9.746  20.427  13.050
62640W        W29181  12.709  16.754  12.924
62641W        W29182  21.961  17.356   2.346
62642W        W29183  30.394   8.190  10.720
62643W        W29184  37.562   4.197   3.608
62644W        W29185  32.321  29.099  12.801
62645W        W29186  23.266  16.306   4.099
62646W        W29187   8.155  39.424  13.489
62647W        W29188   4.300  28.095   1.823
62648W        W29189   5.388  19.801   2.114
62649W        W29190   8.580  36.855  11.172
62650W        W29191  19.199  41.124   3.283
62651W        W29192  36.344   0.365  13.161
62652W        W29193   2.748  44.796   2.719
62653W        W29194  15.401   2.835   0.303
62654W        W29195   1.746   3.130  10.674
62655W        W29196  22.208   4.378   3.180
62656W        W29197  13.355  20.195  11.111
62657W        W29198   6.781  15.745  12.794
62658W        W29199  13.920  11.574   0.978
62659W        W29200  42.176   0.985  10.802
62660W        W29201  24.595  30.117   0.299
62661W        W29202  11.899  25.229  10.700
62662W        W29203  32.535  17.687   4.357
62663W        W29204   9.684  29.001   2.640
62664W        W29205  25.035   5.391   9.761
62665W        W29206  22.615  36.105   0.821
62666W        W29207  13.603  34.184   3.148
62667W        W29208  30.202  34.079   0.892
62668W        W29209   8.118  36.905   4.081
62669W        W29210  20.693  35.970  10.673
62670W        W29211  36.877  13.079   3.265
62671W        W29212   2.062   2.826   2.797
62672W        W29213  11.816   9.861   2.816
62673W        W29214  43.652  41.903   2.520
62674W        W29215  32.200  24.114  13.386
62675W        W29216  22.502  21.983   2.723
62676W        W29217  23.298   7.708   2.787
62677W        W29218  19.528  18.191  11.585
62678W        W29219   0.234  25.033  12.598
62679W        W29220  17.324  24.093   3.389
62680W        W29221  29.418  36.779  12.516
62681W        W29222   1.622  11.850  13.477
62682W        W29223  21.778  16.730   1.591
62683W        W29224  19.158  10.881  10.674
62684W        W29225  30.132  10.281   2.751
62685W        W29226   2.243   5.233  12.024
62686W        W29227  20.521  10.109   0.443
62687W        W29228  24.925  15.310  12.884
62688W        W29229  30.571  33.120  13.576
62689W        W29230   9.926  27.435   2.746
62690W        W29231  16.748  43.577  11.080
62691W        W29232  29.841  24.923  11.442
62692W        W29233  17.801  32.180  13.636
62693W        W29234  14.213  40.490   0.652
62694W        W29235   0.806   1.098  11.906
62695W        W29236   8.182  10.874   4.289
62696W        W29237  19.035  15.170  13.713
62697W        W29238  26.940   8.295   4.517
62698W        W29239  24.999   1.397   2.953
62699W        W29240  42.308  43.295  13.850
62700W        W29241  42.015  29.326   4.751
62701W        W29242  28.011  28.014   4.941
62702W        W29243  40.584  13.138  13.410
62703W        W29244  10.394  29.892  10.440
62704W        W29245  19.217   7.233  10.635
62705W        W29246   5.306  18.583   2.643
62706W        W29247  36.076  41.469   0.836
62707W        W29248   1.351   7.379   1.359
62708W        W29249  15.360  32.439  12.922
62709W        W29250  22.549   0.989   2.378
62710W        W29251   5.816  29.244  13.996
62711W        W29252  29.501  39.082  13.105
62712W        W29253  16.302  10.726  13.007
62713W        W29254  10.840  32.420   4.739
62714W        W29255   8.171  39.462  10.933
62715W        W29256  22.289  38.332   0.306
62716W        W29257  17.675   5.769  12.031
62717W        W29258  15.351  14.136   1.193
62718W        W29259  34.587   9.421   2.884
62719W        W29260   1.239  21.785   1.331
62720W        W29261  10.423  43.848   3.612
62721W        W29262   8.824  12.786  10.835
62722W        W29263  40.541  41.491   2.628
62723W        W29264  14.825  14.503   1.410
62724W        W29265   2.678  32.116  13.953
62725W        W29266  15.226  23.121   1.440
62726W        W29267  43.277  31.376  12.904
62727W        W29268  14.273  44.951  10.796
62728W        W29269   7.807   9.409  12.911
62729W        W29270   1.696   3.775  11.696
62730W        W29271  34.340   9.215  12.291
62731W        W29272   3.423  13.564   1.366
62732W        W29273  37.400  30.819   0.059
62733W        W29274  34.016  33.448   4.469
62734W        W29275   6.718  33.579   3.018
62735W        W29276  28.586  39.604   0.713
62736W        W29277  34.165  34.996   3.157
62737W        W29278  41.224  13.157   3.047
62738W        W29279   4.492  43.945  10.534
62739W        W29280  12.533  10.769  13.507
62740W        W29281  44.359  43.238   2.516
62741W        W29282  36.940  21.849   2.406
62742W        W29283  27.567  18.989  11.154
62743W        W29284  18.681  31.896   2.224
62744W        W29285  42.755   1.770  14.490
62745W        W29286  37.011   2.791  13.366
62746W        W29287   0.907  10.667  12.929
62747W        W29288   2.264  36.351  11.177
62748W        W29289  44.245  40.978  13.786
62749W        W29290  36.332   0.475   1.797
62750W        W29291  19.386  24.539   4.135
62751W        W29292  43.150  35.026  12.995
62752W        W29293  15.655  42.409   2.820
62753W        W29294   7.172   0.334   3.311
62754W        W29295  29.080  12.180  10.687
62755W        W29296  43.453   1.481   0.360
62756W        W29297  23.296  33.535  10.787
62757W        W29298  41.334  11.112   1.795
62758W        W29299  29.507  32.123   1.163
62759W        W29300  39.722  44.530   4.286
62760W        W29301   9.727   4.914   3.294
62761W        W29302  27.927  16.813   4.090
62762W        W29303   1.195  12.718   3.126
62763W        W29304   6.754  32.637  11.956
62764W        W29305   2.357  31.773  14.297
62765W        W29306  40.801  31.648  10.997
62766W        W29307  16.089  12.670  13.439
62767W        W29308  43.833  30.978  13.974
62768W        W29309   3.683  33.341   2.338
62769W        W29310   4.907  19.634   2.235
62770W        W29311  43.365  28.417   3.094
62771W        W29312  23.587  24.516   1.848
62772W        W29313   3.775  44.985  12.104
62773W        W29314   1.493  20.107   2.642
62774W        W29315  38.506   4.778   2.984
62775W        W29316   2.761  30.114  11.605
62776W        W29317   7.854  10.167  12.518
62777W        W29318  11.900  11.439  14.051
62778W        W29319  17.239  18.074   0.083
62779W        W29320  25.140  24.728  14.274
62780W        W29321  40.034  35.327  14.137
62781W        W29322  38.999  16.577   1.919
62782W        W29323  28.975   8.360   4.783
62783W        W29324   3.925  14.420  13.481
62784W        W29325  34.659   2.811   2.267
62785W        W29326   3.917  12.491   1.074
62786W        W29327  12.546   0.627   1.306
62787W        W29328  21.986  34.019  12.370
62788W        W29329  41.906  39.306   0.281
62789W        W29330  42.371  35.194  13.291
62790W        W29331  17.787  11.058  13.857
62791W        W29332  43.495  14.722   5.476
62792W        W29333  33.775   4.543   2.844
62793W        W29334  31.968  11.711  12.652
62794W        W29335  15.507  33.180   9.836
62795W        W29336  22.846  34.232   3.761
62796W        W29337  10.109  39.800  13.726
62797W        W29338   0.417   4.833   0.464
62798W        W29339  41.275  18.857   0.035
62799W        W29340   5.282  17.423  12.928
62800W        W29341  18.791  13.541  12.202
62801W        W29342  16.755  14.527  14.373
62802W        W29343   7.570  39.513   3.299
62803W        W29344  43.900  27.871  11.198
62804W        W29345  21.100  31.857  12.456
62805W        W29346  34.262   1.009   9.815
62806W        W29347  27.978   9.604  12.326
62807W        W29348  39.077  17.571  14.150
62808W        W29349   0.964   7.377  12.581
62809W        W29350  24.096  33.551  12.978
62810W        W29351  15.273  10.223   2.449
62811W        W29352  40.084  14.685  12.068
62812W        W29353   3.812  30.041  13.816
62813W        W29354  27.840  11.423  12.038
62814W        W29355  31.222   0.996   3.185
62815W        W29356   1.532  33.073  10.540
62816W        W29357  11.357   5.251  10.931
62817W        W29358  10.565  43.771   1.247
62818W        W29359  37.841  10.066   2.790
62819W        W29360  27.457  15.603   1.712
62820W        W29361  12.484  23.598  10.753
62821W        W29362  23.171   9.325   1.797
62822W        W29363  24.436  10.620   0.770
62823W        W29364  10.160  35.361  13.078
62824W        W29365   4.481   8.282   1.296
62825W        W29366  38.906  23.968   4.324
62826W        W29367   6.280  22.206   0.887
62827W        W29368   2.798  33.026   1.954
62828W        W29369  11.435  37.752  11.980
62829W        W29370  16.129  33.956  10.628
62830W        W29371  32.529   5.459  12.621
62831W        W29372   0.459  16.650   4.420
62832W        W29373  12.670  16.968  11.515
62833W        W29374  26.448  11.719   5.075
62834W        W29375  26.251  24.519   1.404
62835W        W29376   0.774  31.095  11.764
62836W        W29377  10.292  39.943  11.721
62837W        W29378   5.186  14.823   4.586
62838W        W29379  18.661  32.554  10.413
62839W        W29380  36.366   7.627   2.417
62840W        W29381  12.161  21.295  14.915
62841W        W29382  26.881  26.587  14.028
62842W        W29383  42.038  37.605  12.576
62843W        W29384  28.136  37.050  13.459
62844W        W29385  31.085  26.105   3.932
62845W        W29386   5.800  43.271  10.888
62846W        W29387  30.475  18.732   3.822
62847W        W29388  35.306  35.844   5.048
62848W        W29389  12.858  34.351  13.879
62849W        W29390  10.702  22.678  11.865
62850W        W29391  10.715   4.332  12.502
62851W        W29392  22.559  34.533  13.813
62852W        W29393   4.225  42.555  12.041
62853W        W29394  23.225  21.204   2.106
62854W        W29395  20.012   6.434   3.825
62855W        W29396  42.938  42.998   3.931
62856W        W29397  22.214  34.728  12.044
62857W        W29398  10.735  42.410   2.677
62858W        W29399   1.707  34.617   2.559
62859W        W29400   3.460  18.823  14.888
62860W        W29401  10.402   6.705   3.939
62861W        W29402  41.448  37.459  12.124
62862W        W29403  18.414  38.731   0.868
62863W        W29404  35.936   9.658   0.256
62864W        W29405  24.048  29.171  12.937
62865W        W29406  21.821  36.333  12.048
62866W        W29407  21.405  36.312   1.930
62867W        W29408  21.235   8.156   0.464
62868W        W29409  23.162  14.708   0.435
62869W        W29410  39.330  35.091  10.672
62870W        W29411   3.296  28.807  11.532
62871W        W29412  23.676  18.613   1.654
62872W        W29413  13.105  37.935   2.754
62873W        W29414  44.523  28.589  12.737
62874W        W29415  12.959  12.857   0.142
62875W        W29416  31.530  29.623   0.541
62876W        W29417  30.196  14.858  11.521
62877W        W29418  15.950  39.125   2.765
62878W        W29419  44.181  33.804   3.690
62879W        W29420  14.459   9.238   4.895
62880W        W29421   4.277  38.532   4.789
62881W        W29422  25.471  32.023  12.965
62882W        W29423   6.891   2.710   9.823
62883W        W29424   8.340   8.318  14.518
62884W        W29425  16.329   1.944  14.163
62885W        W29426  22.490   6.833  10.292
62886W        W29427  11.875  32.320  14.458
62887W        W29428  43.760  40.035  13.790
62888W        W29429  23.399   6.106  14.386
62889W        W29430   0.803  31.658   0.532
62890W        W29431  28.151   9.939   4.337
62891W        W29432  33.412  18.674   3.653
62892W        W29433  36.589  25.110  11.163
62893W        W29434   8.315  44.945  12.992
62894W        W29435  19.977  18.491   2.892
62895W        W29436   2.991  10.395  13.157
62896W        W29437  12.046  34.623  13.571
62897W        W29438   9.761  10.778  11.670
62898W        W29439  41.815  15.120  12.078
62899W        W29440  12.343   9.297  11.164
62900W        W29441  19.176  30.939  13.379
62901W        W29442  25.909  15.707  11.066
62902W        W29443  31.294  28.835   0.899
62903W        W29444  18.636  35.863  11.228
62904W        W29445   3.062  14.114  13.975
62905W        W29446   9.926  31.039   1.976
62906W        W29447  26.417  11.083   3.812
62907W        W29448  15.054  39.079  11.624
62908W        W29449   6.124  24.626   0.636
62909W        W29450   7.528   0.296  10.680
62910W        W29451  43.603  35.594   4.744
62911W        W29452  17.820  22.906   3.754
62912W        W29453  22.226   2.057  14.197
62913W        W29454  38.979  28.076   0.429
62914W        W29455  28.437  42.226   0.378
62915W        W29456  24.547  37.995   0.751
62916W        W29457  39.551  20.164   0.246
62917W        W29458  27.583  32.127   1.271
62918W        W29459   5.260  37.009   0.424
62919W        W29460   7.386  12.707  11.589
62920W        W29461  42.808  39.163  14.465
62921W        W29462   5.672  37.041  13.968
62922W        W29463   0.356   0.449   0.721
62923W        W29464  18.657  16.996  14.340
62924W        W29465  43.431   5.850  12.380
62925W        W29466  22.099  17.844  13.059
62926W        W29467  29.138   6.981   2.371
62927W        W29468  24.651  23.716  10.990
62928W        W29469  20.839  23.731   4.577
62929W        W29470  31.458  20.098   3.555
62930W        W29471  31.899  17.472  13.766
62931W        W29472  44.342  38.400   1.419
62932W        W29473  41.235  24.055   0.335
62933W        W29474   8.360  20.057   4.364
62934W        W29475  36.776  23.099  14.454
62935W        W29476  37.304  17.953  11.891
62936W        W29477   8.829  34.547  11.796
62937W        W29478  44.896   6.349  11.022
62938W        W29479  24.679  36.597   1.235
62939W        W29480   9.863   3.253   9.629
62940W        W29481  38.750   4.705   0.813
62941W        W29482   6.426  21.866   4.097
62942W        W29483  39.196  30.135  11.119
62943W        W29484   9.550  11.823   0.994
62944W        W29485   7.796  35.512  14.259
62945W        W29486  32.197   2.852   0.163
62946W        W29487  33.410  40.452  13.855
62947W        W29488   5.290  27.618  11.617
62948W        W29489  10.136  29.686  14.893
62949W        W29490  21.258  21.022  13.296
62950W        W29491   3.438  36.323  12.939
62951W        W29492   1.478  37.314   9.870
62952W        W29493  21.893  36.141   3.308
62953W        W29494  27.715   2.315   1.894
62954W        W29495  24.576  36.996   0.752
62955W        W29496  24.996   6.972   3.368
62956W        W29497  41.693  30.469   2.853
62957W        W29498  32.532  34.673  13.460
62958W        W29499  44.445  11.418  13.384
62959W        W29500  30.028   7.811  12.866
62960W        W29501   2.413  16.623  10.674
62961W        W29502  12.718  42.964  13.394
62962W        W29503  30.040  10.934   1.431
62963W        W29504  22.558   5.404  13.548
62964W        W29505   5.819   3.256  12.538
62965W        W29506  15.829   8.280   5.053
62966W        W29507  19.071  10.165   0.506
62967W        W29508  32.511  20.144   1.413
62968W        W29509  40.852  32.362   2.518
62969W        W29510   3.184  42.515  14.658
62970W        W29511  23.565  33.992  13.483
62971W        W29512  30.585   4.170   1.016
62972W        W29513   4.269   8.733   0.321
62973W        W29514  43.478   1.778  13.969
62974W        W29515  36.754  14.286  12.707
62975W        W29516  44.945  13.271   0.773
62976W        W29517  40.983  25.140  13.367
62977W        W29518  26.588   7.466   4.647
62978W        W29519  20.610   6.802   3.774
62979W        W29520  33.470  33.173  14.179
62980W        W29521   2.264  44.478   1.701
62981W        W29522   4.520  43.959  12.768
62982W        W29523  26.738  30.484   2.774
62983W        W29524  13.262   1.990  12.235
62984W        W29525  16.513  31.850   3.969
62985W        W29526   9.696  14.273   5.027
62986W        W29527  17.504   1.959  11.209
62987W        W29528  44.719  29.849  14.084
62988W        W29529  13.765   5.270  13.848
62989W        W29530  43.898  17.703  10.862
62990W        W29531  29.860  36.537  13.758
62991W        W29532  17.025   6.303  10.744
62992W        W29533  42.520   1.764  12.991
62993W        W29534  15.694  43.039  11.139
62994W        W29535  41.106  43.396  11.598
62995W        W29536  24.393  38.060  11.117
62996W        W29537  12.661  36.958  10.840
62997W        W29538  10.156   3.894  11.658
62998W        W29539   3.509  42.611   0.543
62999W        W29540  18.531  37.897  12.469
63000W        W29541  40.352  39.053  12.151
63001W        W29542  31.486   5.477   2.225
63002W        W29543   5.539   1.285  11.258
63003W        W29544  27.651  22.640   1.815
63004W        W29545  34.925  38.245  14.859
63005W        W29546  43.308  12.073   1.735
63006W        W29547  30.047  44.834  11.829
63007W        W29548  21.683  11.788  12.935
63008W        W29549  13.231   7.862   3.515
63009W        W29550  43.030  42.946   0.472
63010W        W29551  43.044  38.861  10.477
63011W        W29552  31.436  30.547   1.200
63012W        W29553  31.599  21.230  11.256
63013W        W29554  44.360   9.397  14.829
63014W        W29555  42.975  17.028  13.035
63015W        W29556  24.620  18.388  13.749
63016W        W29557  16.534  43.360  12.968
63017W        W29558  11.255  42.529  13.246
63018W        W29559  33.141  31.127   1.617
63019W        W29560  14.323  11.658  11.852
63020W        W29561  22.204   6.866   4.532
63021W        W29562   2.271  17.019   4.477
63022W        W29563   9.601  19.813   2.215
63023W        W29564  24.144  41.377   3.560
63024W        W29565  35.242  31.671  12.099
63025W        W29566  25.033  27.002   3.043
63026W        W29567  22.064   4.790  13.915
63027W        W29568   0.303  24.015   4.281
63028W        W29569  30.124  44.111  12.403
63029W        W29570   6.952  34.612  13.415
63030W        W29571  19.518  28.583  10.823
63031W        W29572   0.104  37.945   2.760
63032W        W29573  11.404  32.134  14.354
63033W        W29574  32.148   4.647  13.049
63034W        W29575   4.953  18.730  11.667
63035W        W29576  19.485  30.516  11.145
63036W        W29577  14.128  35.531  11.512
63037W        W29578  25.378  19.702  14.904
63038W        W29579  38.015  35.572  11.644
63039W        W29580  34.467  33.825   2.685
63040W        W29581  13.593  25.672  10.637
63041W        W29582  42.449  35.025  12.418
63042W        W29583  33.643  27.373  12.928
63043W        W29584  36.454  36.338   4.650
63044W        W29585  41.331  33.060  13.400
63045W        W29586  42.423  34.754  11.986
63046W        W29587  21.306   9.360  12.409
63047W        W29588  14.348  38.264  13.887
63048W        W29589  11.388  15.756   2.555
63049W        W29590  16.699  34.078   0.195
63050W        W29591  44.296  14.906   0.798
63051W        W29592   2.804  19.177  11.592
63052W        W29593  19.062  39.528  14.686
63053W        W29594  10.106  14.450  13.365
63054W        W29595  19.249   4.422   2.679
63055W        W29596   0.896  18.623   3.618
63056W        W29597   8.059   4.727  12.174
63057W        W29598  22.781  29.580  13.963
63058W        W29599  42.151  41.132   1.499
63059W        W29600  44.776  18.780   0.556
63060W        W29601  22.073  13.807  11.631
63061W        W29602  22.891  14.640   3.778
63062W        W29603  41.365  35.582  11.905
63063W        W29604  23.722  12.271   4.212
63064W        W29605   7.784  26.290  13.182
63065W        W29606   7.183  19.851  11.595
63066W        W29607  43.420  28.227   1.690
63067W        W29608  23.159  21.002   3.144
63068W        W29609  29.060  22.055  14.328
63069W        W29610  31.140  36.620   3.586
63070W        W29611   7.691  16.862   2.334
63071W        W29612  44.974  16.869  12.982
63072W        W29613  18.597  39.674  14.874
63073W        W29614  30.355  43.272  10.793
63074W        W29615  13.768  18.274  13.570
63075W        W29616   3.702  11.783  10.021
63076W        W29617  28.101  18.660   4.630
63077W        W29618  40.278  21.677  10.761
63078W        W29619  27.161  27.094  13.541
63079W        W29620  32.879  20.077   1.034
63080W        W29621  11.124  42.433  14.783
63081W        W29622  40.784  33.004  13.305
63082W        W29623  31.567  42.268   1.156
63083W        W29624  27.953  35.509  14.277
63084W        W29625  38.490   6.694  14.849
63085W        W29626  11.341  22.713   2.249
63086W        W29627  40.645   5.334   3.756
63087W        W29628   6.965  29.373  13.347
63088W        W29629  43.217  21.804   0.369
63089W        W29630  39.040  12.841   1.211
63090W        W29631  30.662   3.563  11.154
63091W        W29632  36.052   2.694   1.656
63092W        W29633  23.641   1.747   3.507
63093W        W29634  27.327  22.198  11.013
63094W        W29635  17.019  11.587   2.809
63095W        W29636  23.115  31.154   0.772
63096W        W29637  35.948   9.110  14.406
63097W        W29638   9.239  10.062   4.025
63098W        W29639   3.339  17.897   0.842
63099W        W29640   2.518  43.644   2.065
63100W        W29641  31.906  31.046  13.783
63101W        W29642  17.872  19.236   2.092
63102W        W29643  13.813   5.741   3.794
63103W        W29644   3.882  23.995  13.836
63104W        W29645  13.692  26.689   4.919
63105W        W29646  39.889  42.261  14.940
63106W        W29647  27.742  37.368  10.303
63107W        W29648  17.633  14.996   2.758
63108W        W29649  22.078   3.036  13.242
63109W        W29650  22.132  43.541   3.110
63110W        W29651  34.511  29.352  12.011
63111W        W29652   7.721  44.879  10.950
63112W        W29653  32.458   9.033  13.037
63113W        W29654  34.567  41.245  13.924
63114W        W29655   9.942  17.834  13.482
63115W        W29656   6.306   9.852   4.850
63116W        W29657  39.839  33.399   0.888
63117W        W29658  25.653   3.278   0.037
63118W        W29659  27.673  20.649   2.763
63119W        W29660  27.493  22.640  14.371
63120W        W29661   2.772  10.618   0.825
63121W        W29662   1.789  17.079   1.142
63122W        W29663  18.226   3.751   0.459
63123W        W29664  21.609  27.924   3.518
63124W        W29665   4.549  34.413  11.081
63125W        W29666  21.400  27.374  12.369
63126W        W29667  13.532   6.221  10.384
63127W        W29668  27.675  17.820   3.493
63128W        W29669   9.293  31.342  14.381
63129W        W29670   2.339  42.832  14.294
63130W        W29671   9.640  33.505  10.726
63131W        W29672  22.441  10.108   1.953
63132W        W29673   8.142   8.954  14.000
63133W        W29674  30.868  34.289  14.776
63134W        W29675  43.558  30.114   0.409
63135W        W29676   7.002  28.076  10.036
63136W        W29677  32.416  42.123  13.773
63137W        W29678  34.979   1.246  13.480
63138W        W29679  18.710  11.814   9.995
63139W        W29680  11.811   5.875  13.500
63140W        W29681   8.590  34.176   0.933
63141W        W29682  35.654  13.829  13.787
63142W        W29683   9.391   8.375   1.699
63143W        W29684  20.555  17.212  12.597
63144W        W29685  40.524  39.059  14.876
63145W        W29686  35.288  20.250  11.508
63146W        W29687  24.697  32.841  12.971
63147W        W29688   6.889  34.056  13.468
63148W        W29689  26.533  16.589  12.992
63149W        W29690  43.730  30.669  10.970
63150W        W29691  21.953  14.580  14.800
63151W        W29692  19.804   8.713  13.037
63152W        W29693  10.838   1.810  11.930
63153W        W29694  18.794  19.084   0.681
63154W        W29695  28.693   9.773   3.253
63155W        W29696  32.968  30.206  14.461
63156W        W29697  37.140  25.985   1.825
63157W        W29698  40.777  43.404  13.308
63158W        W29699  37.449  15.583  10.596
63159W        W29700   6.602  30.959  14.005
63160W        W29701  28.034  22.659  12.869
63161W        W29702  38.868  26.461  12.955
63162W        W29703   0.117   5.019  12.904
63163W        W29704   3.815  33.041  10.318
63164W        W29705  16.562  41.827   2.390
63165W        W29706  14.315  24.896   0.763
63166W        W29707  31.609  17.807   2.841
63167W        W29708  27.025  12.665   4.724
63168W        W29709  38.606  29.902  11.876
63169W        W29710  40.548   5.804   2.369
63170W        W29711  36.357  35.073  14.755
63171W        W29712  24.432  29.614  10.486
63172W        W29713  26.684  38.093   1.965
63173W        W29714  30.931  11.514   3.114
63174W        W29715  44.372  18.303   1.744
63175W        W29716  11.045  40.609  14.947
63176W        W29717   9.627  24.104   1.439
63177W        W29718  15.767   4.682  14.788
63178W        W29719  23.456  27.365  14.065
63179W        W29720  26.873   6.771   2.265
63180W        W29721  20.782  20.506   4.513
63181W        W29722  26.329  24.703   4.928
63182W        W29723  24.521  13.405   0.297
63183W        W29724  11.739  39.009  14.178
63184W        W29725   4.908  27.119  14.894
63185W        W29726   2.705  28.266  11.121
63186W        W29727  43.716  31.736  12.418
63187W        W29728  11.908  12.097   4.696
63188W        W29729  40.095  28.527   4.514
63189W        W29730  10.219  18.505  11.510
63190W        W29731  43.823  25.249   3.351
63191W        W29732   6.681  26.221  13.345
63192W        W29733  16.574  35.181  11.447
63193W        W29734  11.539   9.823  11.114
63194W        W29735  20.836  27.890   0.094
63195W        W29736  38.710  37.516  12.632
63196W        W29737  21.322  34.282   0.486
63197W        W29738  28.702  37.864   2.716
63198W        W29739  41.362  11.300   4.163
63199W        W29740  35.846  24.125   2.628
63200W        W29741   4.385  13.782   1.679
63201W        W29742  35.907  26.676   1.394
63202W        W29743   2.770  12.562   1.714
63203W        W29744  37.086  37.342   1.420
63204W        W29745  19.588  14.157   3.774
63205W        W29746   4.004  43.062  11.147
63206W        W29747   2.633  35.071  14.787
63207W        W29748  33.701  26.178   2.864
63208W        W29749  24.496  19.053   1.726
63209W        W29750   7.416  19.280  13.342
63210W        W29751  37.625  20.014  11.242
63211W        W29752  44.451  28.366  14.951
63212W        W29753  21.283  24.056   3.126
63213W        W29754  28.014  19.551  11.025
63214W        W29755  30.099  35.028   4.276
63215W        W29756   9.610  30.130   3.047
63216W        W29757  22.763   8.644  13.180
63217W        W29758  16.058  20.067   4.415
63218W        W29759  11.118   3.856   1.801
63219W        W29760   1.021   2.692  12.868
63220W        W29761  14.715  37.879  14.008
63221W        W29762   6.394  22.780  14.408
63222W        W29763  11.232   3.867  11.401
63223W        W29764  28.025  15.036  14.719
63224W        W29765  30.711   2.902  13.349
63225W        W29766   2.936  28.906  14.492
63226W        W29767  26.930   3.399   4.555
63227W        W29768  41.064  20.042  11.597
63228W        W29769  13.050  31.982  11.275
63229W        W29770  10.897   5.473  13.892
63230W        W29771  43.605  15.927  10.925
63231W        W29772  32.371  25.156  11.563
63232W        W29773  42.460  18.659   4.587
63233W        W29774  39.483  41.795  12.853
63234W        W29775  28.105  17.506  12.009
63235W        W29776  28.700  11.686  14.058
63236W        W29777  12.280  32.758   4.466
63237W        W29778  40.238   7.491  13.427
63238W        W29779  27.491   4.172   3.619
63239W        W29780  21.790  39.979   0.512
63240W        W29781  29.861  36.999   4.327
63241W        W29782  15.067   5.915   4.534
63242W        W29783   8.476  18.624   1.153
63243W        W29784  12.120  33.416  14.310
63244W        W29785  34.581  16.788  12.002
63245W        W29786  21.157  32.553   4.801
63246W        W29787  17.139  25.967  14.797
63247W        W29788   6.370  37.249   3.228
63248W        W29789   6.795  21.222  13.564
63249W        W29790  13.891   3.776   1.395
63250W        W29791  19.726   5.372   1.400
63251W        W29792   6.752  37.277   1.013
63252W        W29793  43.486  29.388  11.183
63253W        W29794  40.525  27.220  11.665
63254W        W29795   2.932  40.230  14.924
63255W        W29796  35.916  38.033  12.998
63256W        W29797  14.416   3.849   4.167
63257W        W29798   6.867  20.527   4.070
63258W        W29799  40.982  33.313  13.689
63259W        W29800  18.580  11.091  12.952
63260W        W29801  32.319  31.524  10.710
63261W        W29802   4.390  27.182   3.259
63262W        W29803  22.097   3.667   1.790
63263W        W29804  28.003   6.515  13.038
63264W        W29805   4.943   3.983   2.169
63265W        W29806  24.608  41.754  12.692
63266W        W29807  24.056  31.107   3.831
63267W        W29808  29.867  13.804   2.086
63268W        W29809   0.924   4.158  11.370
63269W        W29810  16.512  43.256   1.902
63270W        W29811  22.737  38.429   1.728
63271W        W29812  23.014   3.436   9.750
63272W        W29813  27.057  32.828  10.878
63273W        W29814  18.727  12.664  11.585
63274W        W29815  17.276  20.742  12.100
63275W        W29816  23.934   8.354  10.372
63276W        W29817  10.944   9.367   4.182
63277W        W29818  21.395  28.951   1.935
63278W        W29819  31.092  17.177  11.995
63279W        W29820  41.325  33.861  14.355
63280W        W29821  32.872  15.544   1.167
63281W        W29822   9.231  30.941  11.266
63282W        W29823  42.499  39.338   1.786
63283W        W29824  34.581  26.387  12.421
63284W        W29825  36.361  30.266   1.704
63285W        W29826  17.376  35.935   3.695
63286W        W29827  12.887  33.417  14.840
63287W        W29828  12.509  27.852   0.667
63288W        W29829  14.021   8.573   1.454
63289W        W29830  39.366  18.091  11.885
63290W        W29831   6.441  35.537  13.960
63291W        W29832   4.276   1.839   0.791
63292W        W29833   6.604  15.421   1.287
63293W        W29834  24.129  34.879  11.250
63294W        W29835   8.077   3.515  13.672
63295W        W29836  20.302  39.765  12.464
63296W        W29837   7.962  11.099  14.409
63297W        W29838  18.136   4.417  12.108
63298W        W29839  15.808  44.265   0.847
63299W        W29840  17.850   9.096  12.072
63300W        W29841  40.170  43.037   4.175
63301W        W29842  13.136  34.587  11.134
63302W        W29843   8.895  35.873  11.230
63303W        W29844  21.759   5.802   0.306
63304W        W29845  18.513  34.593  12.518
63305W        W29846   7.698  21.161   2.809
63306W        W29847   0.025  27.231  14.344
63307W        W29848  40.128   8.114   3.636
63308W        W29849  11.924  32.697   1.697
63309W        W29850   1.440   5.279  12.958
63310W        W29851   6.143  32.205   4.483
63311W        W29852  38.712  31.924   4.666
63312W        W29853  19.644  37.585   2.820
63313W        W29854  37.536  18.097   0.057
63314W        W29855  34.617   0.090   4.948
63315W        W29856  21.579  26.501  11.392
63316W        W29857  37.378  26.763  13.684
63317W        W29858  32.869   7.806   1.554
63318W        W29859  24.042   6.384  14.967
63319W        W29860  20.182  30.070   2.679
63320W        W29861  10.082  38.974   1.903
63321W        W29862  42.726  24.023   4.356
63322W        W29863   5.026   0.381   1.720
63323W        W29864  23.917  18.635  12.432
63324W        W29865  44.904  32.471  14.825
63325W        W29866   0.336  22.140  11.967
63326W        W29867  24.688  33.222   2.813
63327W        W29868  38.960   9.270  10.762
63328W        W29869   3.026  28.257  10.694
63329W        W29870  31.903   6.033   3.343
63330W        W29871  42.763  36.888  10.970
63331W        W29872   8.362  20.096   3.196
63332W        W29873  26.021   5.980   2.739
63333W        W29874  20.575  35.033   4.270
63334W        W29875  22.685  32.577   2.446
63335W        W29876   5.612  35.293   4.884
63336W        W29877  37.490  40.185   1.713
63337W        W29878  30.073  30.918   2.296
63338W        W29879  41.995  35.846   3.681
63339W        W29880  13.168  16.773  10.697
63340W        W29881  17.165  18.664  14.316
63341W        W29882  25.710  24.063  12.446
63342W        W29883  25.143  10.588  11.254
63343W        W29884  42.281  15.551  11.634
63344W        W29885   9.465  43.988   4.024
63345W        W29886  41.695   2.420   4.658
63346W        W29887   2.051  27.683   1.823
63347W        W29888  29.557  28.130  13.413
63348W        W29889   6.130  22.678   2.839
63349W        W29890  25.426   5.759   5.385
63350W        W29891  27.104  12.591  14.906
63351W        W29892  12.597   1.895  11.621
63352W        W29893  22.105   9.171  10.987
63353W        W29894  11.386  31.987  13.297
63354W        W29895  24.065   1.645   1.759
63355W        W29896   0.912   0.238   2.748
63356W        W29897  18.824  27.935   2.376
63357W        W29898  43.990  34.923  14.077
63358W        W29899  39.236   1.809   0.836
63359W        W29900  29.532  30.157  14.326
63360W        W29901  42.460   7.842  12.889
63361W        W29902  40.028  34.670   0.350
63362W        W29903  42.506  11.170   0.724
63363W        W29904  37.140  31.515   0.633
63364W        W29905  17.938   9.583   1.783
63365W        W29906  30.171  38.779   3.867
63366W        W29907  10.819   0.817  14.040
63367W        W29908  43.452  27.157   1.692
63368W        W29909  25.278   0.992   2.219
63369W        W29910   7.259   2.347   2.167
63370W        W29911  42.716  25.669   2.659
63371W        W29912  12.771   7.628   3.691
63372W        W29913  38.396  40.328  13.390
63373W        W29914  11.054   9.109   1.228
63374W        W29915  33.921  29.347   4.541
63375W        W29916  25.099  17.994   4.078
63376W        W29917  42.601  42.424  13.310
63377W        W29918  39.230  15.835  14.907
63378W        W29919   7.887   5.097   1.674
63379W        W29920  18.569   8.620  11.213
63380W        W29921  23.527  23.875   4.504
63381W        W29922  10.779   9.275   3.695
63382W        W29923  12.919  20.626  13.776
63383W        W29924  27.397   3.873   0.930
63384W        W29925   9.547   7.904   0.359
63385W        W29926   3.000  24.960  14.035
63386W        W29927   3.647  17.209   0.862
63387W        W29928  13.136  37.453   2.329
63388W        W29929  29.621  34.792  11.233
63389W        W29930  23.481  36.859  14.317
63390W        W29931  17.841  29.164   4.583
63391W        W29932   5.308  37.027   3.216
63392W        W29933   9.409   3.763   0.294
63393W        W29934  18.601  37.098  10.697
63394W        W29935   1.270  29.161   9.957
63395W        W29936  23.521  12.391  12.729
63396W        W29937   3.739  19.153  12.076
63397W        W29938  38.484   0.860   3.740
63398W        W29939  23.683  31.368   3.551
63399W        W29940  14.194  36.744   0.490
63400W        W29941  15.718  26.552   3.260
63401W        W29942  43.938   2.348  13.808
63402W        W29943   0.680  12.194   3.662
63403W        W29944  41.756  34.098   4.128
63404W        W29945  30.745  39.170  12.485
63405W        W29946  29.886  12.858  13.355
63406W        W29947  15.538  42.296  12.790
63407W        W29948  29.466  34.922   2.816
63408W        W29949   7.734  40.812   1.696
63409W        W29950   1.318  24.440   1.051
63410W        W29951  29.278  26.135   3.978
63411W        W29952  32.031  34.432   3.821
63412W        W29953   9.662  19.883  11.535
63413W        W29954  42.268  22.173   1.816
63414W        W29955  36.986  38.527  11.221
63415W        W29956  44.042  35.104   0.989
63416W        W29957  42.017  41.558  11.061
63417W        W29958  15.774   6.760  13.934
63418W        W29959  40.011  35.091   3.166
63419W        W29960  38.663   1.673  11.888
63420W        W29961  31.606  37.297   3.974
63421W        W29962  15.382  30.068   3.393
63422W        W29963   2.550  14.359   1.409
63423W        W29964  36.824  21.529   0.490
63424W        W29965  43.587  34.212  12.103
63425W        W29966   0.737  15.998   3.171
63426W        W29967  33.228  34.460  10.824
63427W        W29968  37.458   0.041   0.306
63428W        W29969  26.971  32.563   4.209
63429W        W29970  30.497  27.585   1.635
63430W        W29971   2.761  40.687   3.809
63431W        W29972  23.051   1.287   1.931
63432W        W29973  20.826  13.083   3.759
63433W        W29974  21.052  43.408  13.464
63434W        W29975  36.868  27.807   0.873
63435W        W29976  37.981  30.735  14.939
63436W        W29977  38.371  23.978   1.220
63437W        W29978  43.047   3.931  14.017
63438W        W29979  43.138   3.537   5.046
63439W        W29980  15.769  13.096  12.908
63440W        W29981  17.789  32.334   3.831
63441W        W29982   3.777   5.118  13.512
63442W        W29983   3.956  38.607  11.130
63443W        W29984  41.482   6.487   1.710
63444W        W29985  18.445   5.965  11.854
63445W        W29986  25.339  32.847   3.303
63446W        W29987  36.112  38.292   2.561
63447W        W29988  38.922   8.913  14.051
63448W        W29989  17.548   1.133  13.169
63449W        W29990  10.149   0.797  13.039
63450W        W29991  23.092   2.061  12.391
63451W        W29992  13.788   2.799   3.071
63452W        W29993  26.699  15.567  11.493
63453W        W29994  12.629  28.366   0.724
63454W        W29995  10.731  20.965  11.185
63455W        W29996  31.460   7.780   1.260
63456W        W29997  34.095  27.146  12.872
63457W        W29998   8.050  21.874  13.993
63458W        W29999  38.656  32.939  13.437
63459W        W30000   1.790  42.719  11.108
63460W        W30001  13.101   5.687   0.856
63461W        W30002  15.504  15.733  12.864
63462W        W30003  25.881  25.061  12.466
63463W        W30004  29.132  26.901  11.419
63464W        W30005  24.580  12.157  11.587
63465W        W30006  22.415  26.430   0.525
63466W        W30007  44.113  18.053  12.881
63467W        W30008  44.952  40.299  14.570
63468W        W30009  14.164   3.407   1.853
63469W        W30010  36.624   6.448   3.953
63470W        W30011  36.106  22.459   0.265
63471W        W30012   9.342  32.988   0.930
63472W        W30013  27.479  36.036  10.744
63473W        W30014  21.146  41.922   1.844
63474W        W30015  27.797  18.550  11.726
63475W        W30016  27.771  32.574   1.494
63476W        W30017  18.288  42.847  13.226
63477W        W30018   9.157  11.742   1.377
63478W        W30019  31.792  18.251  11.137
63479W        W30020  11.642  41.460   1.791
63480W        W30021  36.115  21.554   1.843
63481W        W30022  22.248   3.515  10.700
63482W        W30023  28.476  43.770  13.826
63483W        W30024   2.920   0.312  14.508
63484W        W30025   3.275   8.898   2.145
63485W        W30026  33.358  20.683  12.040
63486W        W30027  23.492  21.596  12.438
63487W        W30028  37.915  19.850   4.650
63488W        W30029   3.400  18.242   1.935
63489W        W30030   4.495  19.657   3.213
63490W        W30031  12.810  29.998   4.557
63491W        W30032   1.956  34.583  12.012
63492W        W30033  32.999  33.618  14.900
63493W        W30034  23.681  44.770  13.416
63494W        W30035   8.213  36.996  11.546
63495W        W30036  37.297  31.096   1.321
63496W        W30037  38.500  24.591  11.374
63497W        W30038  37.143   0.956   2.268
63498W        W30039  37.401  13.583  10.994
63499W        W30040   0.403   3.427   4.189
63500W        W30041  31.226  43.804   3.254
63501W        W30042  34.608  11.434  12.889
63502W        W30043  17.837   0.430  13.963
63503W        W30044   8.075  22.013   3.611
63504W        W30045  23.083  28.293   2.182
63505W        W30046  12.486  34.911  14.401
63506W        W30047  15.341  40.501  10.627
63507W        W30048  34.205  15.424  14.329
63508W        W30049  14.344   8.561  14.293
63509W        W30050  22.625  31.134  11.240
63510W        W30051  40.988  35.942  10.758
63511W        W30052  16.653  11.265  10.482
63512W        W30053  31.358   3.962  13.831
63513W        W30054  10.947  31.968  13.572
63514W        W30055  14.725  17.957   1.236
63515W        W30056   6.404  14.601   4.377
63516W        W30057   1.847  44.770  12.541
63517W        W30058  18.327  19.496  12.072
63518W        W30059   6.892  19.793   0.958
63519W        W30060  31.306  44.332  13.190
63520W        W30061  22.587   9.740  14.740
63521W        W30062  30.292  40.473  11.682
63522W        W30063  44.254   8.661  12.872
63523W        W30064  29.335  21.199   0.358
63524W        W30065  23.212   2.533   1.444
63525W        W30066  20.564   5.272   9.966
63526W        W30067  25.409  10.871   3.703
63527W        W30068   9.850  43.379   1.225
63528W        W30069  25.680  14.689  14.391
63529W        W30070  40.436  16.270   0.280
63530W        W30071  18.676  32.705   1.449
63531W        W30072  27.856   4.429  14.758
63532W        W30073   2.396  39.035   2.315
63533W        W30074  30.652  24.998   4.673
63534W        W30075   5.930  16.433   1.189
63535W        W30076  39.744  11.972  11.978
63536W        W30077  38.873  26.482   1.250
63537W        W30078  36.756  14.537   0.894
63538W        W30079   1.694   2.354   0.201
63539W        W30080  25.393  16.983  11.925
63540W        W30081  39.284  13.538   0.717
63541W        W30082  25.079  15.720   5.072
63542W        W30083  19.930   7.341  12.987
63543W        W30084  27.404  23.983  10.703
63544W        W30085  43.727   7.586  12.355
63545W        W30086   3.297  10.760  14.941
63546W        W30087  44.479  40.127   1.080
63547W        W30088  26.566  42.425  14.439
63548W        W30089  17.136  28.934   2.335
63549W        W30090   8.937   5.734  10.684
63550W        W30091  29.776  30.596  10.806
63551W        W30092  10.221   9.271   1.339
63552W        W30093  42.410  15.162  11.239
63553W        W30094   9.575  43.828   4.522
63554W        W30095  13.250   2.343  14.370
63555W        W30096  44.008  44.577  13.395
63556W        W30097   4.506  36.101   2.788
63557W        W30098  11.307   2.373  12.507
63558W        W30099  19.988   1.493   1.695
63559W        W30100  18.320  37.282   3.773
63560W        W30101  13.313  14.502   3.850
63561W        W30102  18.161  11.650   3.071
63562W        W30103  28.596   9.696  11.146
63563W        W30104  33.161  16.030   4.117
63564W        W30105  10.897  14.236  13.208
63565W        W30106  17.208  32.639   1.021
63566W        W30107  29.897   3.900  11.118
63567W        W30108   2.706  34.812   0.275
63568W        W30109  24.595   3.904  14.960
63569W        W30110   1.432  16.837   0.492
63570W        W30111   2.331  14.788   0.538
63571W        W30112   1.770   7.874  11.617
63572W        W30113   3.798  42.588  11.125
63573W        W30114  41.383  17.533   4.622
63574W        W30115  25.938  36.354   1.695
63575W        W30116  30.100  29.749  13.059
63576W        W30117  41.925  32.200   1.734
63577W        W30118  13.779  29.191  11.186
63578W        W30119  14.553   2.609  11.152
63579W        W30120   0.273  37.614  11.647
63580W        W30121  44.327  20.898   0.914
63581W        W30122  44.673  21.288   2.181
63582W        W30123  24.482  41.028   4.622
63583W        W30124  28.612  10.240  12.080
63584W        W30125  36.556  25.393   2.804
63585W        W30126  11.229  42.898   4.106
63586W        W30127  17.487  39.713  10.659
63587W        W30128  44.013  19.748  11.765
63588W        W30129   3.014  18.440  12.198
63589W        W30130  16.516  12.617   4.619
63590W        W30131  43.731  20.169   3.175
63591W        W30132  12.803  25.446  11.197
63592W        W30133  41.883   4.131   4.055
63593W        W30134  44.858  33.426   2.290
63594W        W30135   1.848  37.760  13.948
63595W        W30136   4.999  14.161  14.974
63596W        W30137   7.686  31.352   1.441
63597W        W30138  37.580  19.445  12.858
63598W        W30139   6.778  27.424  11.360
63599W        W30140  44.858   0.036  13.100
63600W        W30141   9.155  40.402   0.305
63601W        W30142   6.835  17.846  12.157
63602W        W30143   9.436  24.061   4.687
63603W        W30144  25.247   1.386   4.052
63604W        W30145  12.101  33.613   3.624
63605W        W30146  19.181  30.406   2.734
63606W        W30147   6.280  18.946   1.322
63607W        W30148  18.234  43.766  12.301
63608W        W30149  23.384  13.127  13.643
63609W        W30150  44.324  40.630  10.692
63610W        W30151  24.289   7.411   0.788
63611W        W30152  19.286  19.223   3.762
63612W        W30153  38.042  10.399  12.371
63613W        W30154   0.952  20.064   0.813
63614W        W30155   9.939   9.647   0.419
63615W        W30156   2.394  29.038  14.785
63616W        W30157  16.702  40.586   0.472
63617W        W30158   3.840  27.566  11.882
63618W        W30159  17.014  44.401  13.044
63619W        W30160   0.785   8.622  10.367
63620W        W30161  32.562  33.471   2.535
63621W        W30162   9.602  25.541   1.970
63622W        W30163   0.770  43.817  13.402
63623W        W30164  12.494  29.081   2.794
63624W        W30165  34.946  16.283  10.249
63625W        W30166  20.782  37.476   1.255
63626W        W30167  33.620  13.724  12.510
63627W        W30168  14.813  42.473   2.381
63628W        W30169   4.934   1.144   0.636
63629W        W30170   9.129  25.674   1.737
63630W        W30171   9.142  10.643  14.456
63631W        W30172  18.313  11.729   4.237
63632W        W30173  21.300  16.368   0.393
63633W        W30174  43.504   8.327  14.062
63634W        W30175   2.006   0.844   3.611
63635W        W30176   7.340  28.025   3.311
63636W        W30177  37.937  35.254  10.353
63637W        W30178   3.411  43.412  11.678
63638W        W30179  27.762  38.025  14.939
63639W        W30180  23.017  17.976   1.254
63640W        W30181  20.980  38.360   1.316
63641W        W30182  26.131   5.242  14.010
63642W        W30183  34.859  27.621   0.013
63643W        W30184  10.379  16.996   2.698
63644W        W30185  22.632  19.614   4.596
63645W        W30186  34.520   4.978   0.810
63646W        W30187  19.196  18.457  14.458
63647W        W30188  41.565  11.126   0.739
63648W        W30189  16.121   3.281   2.395
63649W        W30190  10.149  33.060   4.850
63650W        W30191  37.895  21.821  13.500
63651W        W30192   9.932  14.719  11.251
63652W        W30193  33.430  36.563   0.219
63653W        W30194   5.327  23.663  14.894
63654W        W30195  29.075  30.426   1.412
63655W        W30196  15.619  35.398  13.526
63656W        W30197   3.318   1.196  13.733
63657W        W30198   6.955   0.839   1.984
63658W        W30199  20.243  12.289  12.936
63659W        W30200  21.316  12.758   2.697
63660W        W30201  25.473   0.044  12.032
63661W        W30202  22.082  29.574   1.688
63662W        W30203  35.595  19.680   4.200
63663W        W30204  34.022  13.767   3.371
63664W        W30205  29.528  23.437   0.930
63665W        W30206  25.117  43.481   3.807
63666W        W30207  28.215  17.640  12.807
63667W        W30208   3.404  15.836  12.720
63668W        W30209  21.807  35.507  11.068
63669W        W30210  35.534  16.675  11.870
63670W        W30211  11.313  30.358  12.580
63671W        W30212  32.210  33.483  13.142
63672W        W30213   0.729  44.451   0.473
63673W        W30214  43.196  21.676  12.334
63674W        W30215   1.792  24.558  10.481
63675W        W30216  41.878   7.923  11.947
63676W        W30217  32.075  10.984  11.999
63677W        W30218  29.482  15.809   1.180
63678W        W30219  17.201  20.721  12.962
63679W        W30220  40.500  30.768  14.020
63680W        W30221  21.377   6.846  12.995
63681W        W30222  20.713  15.820  12.637
63682W        W30223  39.873  38.895  12.079
63683W        W30224  14.739   5.034   2.822
63684W        W30225  42.542  32.993   4.574
63685W        W30226  19.725  31.169  14.349
63686W        W30227  18.509  13.428  13.253
63687W        W30228  36.183   4.830  13.216
63688W        W30229  40.750  30.431   1.398
63689W        W30230   4.853   6.462  10.491
63690W        W30231  15.982   3.933  14.465
63691W        W30232  15.049  43.433   2.872
63692W        W30233  38.618  43.180  10.748
63693W        W30234  32.030  10.322   5.061
63694W        W30235   3.477   8.887   1.267
63695W        W30236   4.271  20.755   0.206
63696W        W30237  43.025  28.537   1.783
63697W        W30238   2.363   5.163  11.488
63698W        W30239  27.149  16.152   0.290
63699W        W30240  35.376  34.604  13.833
63700W        W30241  23.838  23.969   0.420
63701W        W30242   6.371  12.731   4.684
63702W        W30243   1.607   6.545   3.933
63703W        W30244   9.808  11.932   0.109
63704W        W30245  35.590  25.536   2.381
63705W        W30246  33.006  16.531   4.094
63706W        W30247   4.767  21.435   3.212
63707W        W30248  36.031  20.045   3.733
63708W        W30249  39.872  33.257  10.829
63709W        W30250  41.387   2.465   1.388
63710W        W30251  28.484  25.634  12.922
63711W        W30252  25.662   8.954  11.570
63712W        W30253  39.959  13.365   2.653
63713W        W30254  44.010  39.417   4.091
63714W        W30255  23.578   4.830   3.107
63715W        W30256   4.376  25.223  12.061
63716W        W30257  11.031  21.185   1.090
63717W        W30258  25.516  28.471   3.701
63718W        W30259   4.476  19.227   2.693
63719W        W30260  20.278  26.180   2.396
63720W        W30261  12.160  36.680  12.984
63721W        W30262   0.909  13.228  12.561
63722W        W30263  14.869  21.674   1.091
63723W        W30264   3.626  35.047  14.844
63724W        W30265  28.964  17.086   1.980
63725W        W30266  26.710  11.253   2.000
63726W        W30267  44.028  37.962   2.767
63727W        W30268  10.252  12.100  13.462
63728W        W30269  10.163  40.818  11.995
63729W        W30270   4.378   3.995  13.868
63730W        W30271  12.887  22.896   0.801
63731W        W30272  36.459  32.605   0.962
63732W        W30273  44.251  40.580   4.176
63733W        W30274  16.317  28.672   3.236
63734W        W30275  15.900  37.310  14.920
63735W        W30276   0.901  19.465  11.665
63736W        W30277   2.990  28.978   3.203
63737W        W30278  33.908  42.467   3.004
63738W        W30279   4.208  41.830  11.209
63739W        W30280  42.324   0.270   1.047
63740W        W30281  40.192  16.064   1.017
63741W        W30282  10.648  14.223   1.887
63742W        W30283  34.651  39.232   2.346
63743W        W30284  20.196  35.105   1.634
63744W        W30285   7.683   4.787   2.143
63745W        W30286  40.327  25.655  12.455
63746W        W30287  35.401  18.580  11.310
63747W        W30288  29.114  12.161   3.372
63748W        W30289   5.775  30.401  11.546
63749W        W30290  11.195   1.930   1.439
63750W        W30291   1.382   2.144   4.947
63751W        W30292   8.518  17.650   3.654
63752W        W30293   0.816  42.860   1.907
63753W        W30294  31.018   8.916  12.879
63754W        W30295  10.808  40.948  12.647
63755W        W30296  28.030   7.038  12.178
63756W        W30297  33.312  31.739   0.291
63757W        W30298  37.271  12.186  11.022
63758W        W30299  43.482  30.664   1.721
63759W        W30300  33.309   3.273  14.666
63760W        W30301  35.857  19.522  14.104
63761W        W30302  41.989   6.299  11.927
63762W        W30303  32.807   2.562   1.888
63763W        W30304  22.738   4.912  12.485
63764W        W30305   5.012  32.374  10.066
63765W        W30306  30.252  25.234   2.836
63766W        W30307  27.918  28.551  13.897
63767W        W30308  32.168  29.459   3.507
63768W        W30309   5.337  12.090  11.861
63769W        W30310  27.897   5.943  13.835
63770W        W30311  27.604   1.480   4.619
63771W        W30312   1.928  13.423   0.262
63772W        W30313  28.722  31.694   2.917
63773W        W30314   2.822   6.373   1.397
63774W        W30315  20.209  42.889  11.207
63775W        W30316  27.964  16.076   4.646
63776W        W30317  35.293  41.229   3.454
63777W        W30318  23.160   4.878   3.633
63778W        W30319  42.424  25.001  13.508
63779W        W30320  31.006   5.137  10.344
63780W        W30321  23.961  23.497   4.986
63781W        W30322  34.272  18.136  11.254
63782W        W30323   5.955  41.513  10.615
63783W        W30324  39.308  15.715   4.405
63784W        W30325   1.472  36.413   3.106
63785W        W30326   4.776   5.721  14.262
63786W        W30327  10.125  35.094   2.370
63787W        W30328  35.440  24.719   3.707
63788W        W30329  34.112  13.528  10.234
63789W        W30330  22.138  17.195   9.906
63790W        W30331   2.294   2.500   1.829
63791W        W30332  19.331   8.752  11.461
63792W        W30333   2.790  25.978   1.823
63793W        W30334   4.845  15.099  12.112
63794W        W30335  26.148  13.420   3.212
63795W        W30336  20.108   5.323  10.234
63796W        W30337  20.031  33.617   1.459
63797W        W30338  26.652  16.844   2.317
63798W        W30339  14.929  19.210  12.190
63799W        W30340  13.752  33.939  14.839
63800W        W30341   7.630   0.517   3.444
63801W        W30342  15.386  28.007   2.798
63802W        W30343  35.258   7.398   4.186
63803W        W30344  33.999  37.541   4.430
63804W        W30345  34.407   3.544  12.387
63805W        W30346  26.102   9.235  11.564
63806W        W30347  39.020  36.617   3.592
63807W        W30348   1.562   5.842   2.333
63808W        W30349   8.858  15.032  11.955
63809W        W30350  37.498   5.892   3.313
63810W        W30351  20.852  29.711   0.396
63811W        W30352  42.303  16.298  14.470
63812W        W30353  39.342  23.247  13.743
63813W        W30354  25.526  18.859   2.299
63814W        W30355  24.785  16.321   0.489
63815W        W30356  36.728  28.411   3.325
63816W        W30357  43.071  23.227  14.792
63817W        W30358  38.002  30.850   1.944
63818W        W30359  19.098   1.012  14.363
63819W        W30360  44.462  36.100  11.346
63820W        W30361   6.271  14.605  12.958
63821W        W30362  33.106   9.156  11.090
63822W        W30363  18.241  17.756   0.703
63823W        W30364  33.689  36.694   4.589
63824W        W30365  25.593   7.184   1.971
63825W        W30366   7.906  44.009  11.163
63826W        W30367  22.559  11.222   3.501
63827W        W30368  30.845  33.215   4.137
63828W        W30369   3.884   8.485  12.512
63829W        W30370  23.086  39.764   3.647
63830W        W30371  44.865  39.052   4.247
63831W        W30372  25.199  44.198  14.361
63832W        W30373   1.515  41.962   2.815
63833W        W30374  12.227  31.854   1.924
63834W        W30375   4.948  32.133   2.957
63835W        W30376  24.944  19.992  11.757
63836W        W30377  38.542  20.481  11.154
63837W        W30378   8.794  36.839  11.998
63838W        W30379   8.410  32.189   4.621
63839W        W30380  35.903  20.665  11.029
63840W        W30381   4.746  33.607   3.179
63841W        W30382   5.778  31.200   0.828
63842W        W30383  16.573  11.574  12.904
63843W        W30384  13.704  13.659  10.351
63844W        W30385  28.131  18.128   4.661
63845W        W30386  16.848  18.395  14.932
63846W        W30387   5.933  32.843  10.739
63847W        W30388  12.400  13.803   2.218
63848W        W30389  34.006  10.015  12.063
63849W        W30390  29.471  34.929   3.328
63850W        W30391  36.595  43.996   4.133
63851W        W30392   5.334  17.697   0.896
63852W        W30393  30.697  33.550   4.535
63853W        W30394  16.832  11.154  13.868
63854W        W30395  32.378  32.009  10.414
63855W        W30396  25.763  17.542   0.970
63856W        W30397  19.327  11.645  12.071
63857W        W30398  20.567  25.524  13.819
63858W        W30399   4.244  39.170  13.602
63859W        W30400  17.844  25.658   2.233
63860W        W30401  35.678  20.728  12.832
63861W        W30402   2.344   1.430   4.472
63862W        W30403  21.515  15.362  13.976
63863W        W30404  25.524   0.361   3.793
63864W        W30405   8.152  37.508  13.443
63865W        W30406  18.238  18.011   3.789
63866W        W30407  31.963  40.667  11.174
63867W        W30408  17.307  35.464   0.012
63868W        W30409  15.722   3.437   1.211
63869W        W30410  11.254  32.657  10.969
63870W        W30411  25.071  43.605  12.055
63871W        W30412   0.854  38.036   1.581
63872W        W30413  42.246   2.211  10.466
63873W        W30414   2.193  15.108  13.230
63874W        W30415  17.585  10.638   3.642
63875W        W30416  23.603  18.244  10.948
63876W        W30417   6.266  28.711   0.419
63877W        W30418  36.032   4.977  11.699
63878W        W30419  20.571  17.824  13.804
63879W        W30420  30.419   4.120   1.952
63880W        W30421  31.323  32.057   0.825
63881W        W30422  20.993  32.118  12.974
63882W        W30423  13.792  27.463   3.557
63883W        W30424   9.708  11.257  12.542
63884W        W30425  28.721  27.197  14.344
63885W        W30426  43.458  41.479   1.981
63886W        W30427  30.992   1.671   3.773
63887W        W30428  18.725   5.692   0.419
63888W        W30429  22.921   3.972   9.802
63889W        W30430  16.097  30.161  11.969
63890W        W30431  16.424  32.006  13.432
63891W        W30432  10.637  24.866   0.707
63892W        W30433   2.364   1.418   3.071
63893W        W30434   7.447   1.456  12.576
63894W        W30435  11.351  21.746  13.782
63895W        W30436  22.768  18.041  13.533
63896W        W30437   0.172  14.994   2.856
63897W        W30438  26.149  24.583  14.428
63898W        W30439   3.899  19.529  13.893
63899W        W30440  27.938  15.237   0.622
63900W        W30441   5.411  24.260  14.466
63901W        W30442  14.251  31.223   3.464
63902W        W30443   9.729  36.010   2.282
63903W        W30444  42.219  22.351  10.395
63904W        W30445   4.706  36.233   3.642
63905W        W30446  17.651  30.219   2.209
63906W        W30447  38.646   2.091   4.767
63907W        W30448   2.276  41.741   4.597
63908W        W30449  25.978  33.560  11.990
63909W        W30450  15.849   6.814   4.575
63910W        W30451  31.898  40.504   1.404
63911W        W30452  35.294  22.338   0.936
63912W        W30453   8.477  42.753  10.664
63913W        W30454   0.980  32.080  12.477
63914W        W30455   4.887  43.840  13.114
63915W        W30456  33.355  34.450   2.095
63916W        W30457   6.131  18.450   1.318
63917W        W30458  40.233   1.161  14.370
63918W        W30459  29.240   5.798  11.177
63919W        W30460  38.911  24.175  12.011
63920W        W30461  22.676  17.987   0.361
63921W        W30462   9.642  24.632  12.925
63922W        W30463  23.993  33.520   0.752
63923W        W30464  15.370   3.509   3.960
63924W        W30465  28.573  39.571   2.224
63925W        W30466   0.213  44.367  13.101
63926W        W30467  13.032   4.784   1.012
63927W        W30468  20.319   2.934   1.766
63928W        W30469  26.998  16.747   1.803
63929W        W30470  14.860  15.823  11.146
63930W        W30471  41.473  35.349   4.438
63931W        W30472   1.419   0.344  10.786
63932W        W30473  27.706  17.161  13.944
63933W        W30474  34.534  30.973  14.546
63934W        W30475  35.171  40.528  14.300
63935W        W30476   4.824   5.785   0.315
63936W        W30477  20.639  42.774   5.099
63937W        W30478  39.304  22.140  13.097
63938W        W30479  30.062  25.279   1.842
63939W        W30480  21.934   9.409  14.502
63940W        W30481  40.704  30.633   2.742
63941W        W30482  28.154  19.029   1.748
63942W        W30483   1.716  21.258   1.037
63943W        W30484  17.669  32.541  11.351
63944W        W30485  34.611  16.459  12.402
63945W        W30486  35.507  11.564  14.261
63946W        W30487  27.372  35.998   4.267
63947W        W30488  19.674  28.192   4.331
63948W        W30489  38.896   2.005   1.853
63949W        W30490   7.986  23.375  11.935
63950W        W30491  13.791  18.972  12.960
63951W        W30492  36.218   8.275   1.382
63952W        W30493   3.681   3.733   1.785
63953W        W30494  19.088  14.265  12.865
63954W        W30495   4.402  12.550   3.325
63955W        W30496   4.339   5.878   2.839
63956W        W30497  32.683  12.159   0.231
63957W        W30498  21.254  23.561  14.791
63958W        W30499   6.953  24.360   2.301
63959W        W30500  14.294  37.354   1.734
63960W        W30501  17.623  40.143  13.887
63961W        W30502  44.468  17.920   0.925
63962W        W30503  29.720  36.445   1.383
63963W        W30504  17.911  38.500   3.125
63964W        W30505   1.961  43.848   1.205
63965W        W30506  41.794   8.370   2.221
63966W        W30507  28.419   8.607  13.916
63967W        W30508  11.220  40.855  10.277
63968W        W30509  36.753   0.752  14.288
63969W        W30510  41.925  24.056  14.726
63970W        W30511  40.433  13.052   2.042
63971W        W30512  13.642   3.781   2.712
63972W        W30513  21.818   1.896   4.527
63973W        W30514  38.139  14.637   2.652
63974W        W30515  41.594  30.829  11.953
63975W        W30516  35.946   1.442   4.547
63976W        W30517  31.436  35.162   4.094
63977W        W30518  41.618   3.852  11.425
63978W        W30519  21.518  40.293  12.012
63979W        W30520  28.687  16.921  10.683
63980W        W30521  18.746  37.322  12.011
63981W        W30522   2.894  17.637   4.142
63982W        W30523  26.639  25.023   4.182
63983W        W30524  20.036   2.427  13.896
63984W        W30525   8.665  30.199  10.820
63985W        W30526   2.938  37.468  14.818
63986W        W30527  44.665  28.984   4.788
63987W        W30528  25.352  35.219  13.454
63988W        W30529  16.147  24.090  11.579
63989W        W30530  44.980  40.388  13.628
63990W        W30531  23.333   7.805   9.770
63991W        W30532   0.452  28.916   3.586
63992W        W30533  26.226  36.839   2.848
63993W        W30534  27.973   4.298   3.763
63994W        W30535  23.943  21.946   1.411
63995W        W30536  21.999  10.865  12.975
63996W        W30537  10.273  30.554   4.435
63997W        W30538  11.933   9.648  12.421
63998W        W30539   4.899  22.205  12.054
63999W        W30540  22.160  35.136  11.196
64000W        W30541  15.399  41.806   5.305
64001W        W30542  15.697  14.131  12.874
64002W        W30543  15.591   0.259   1.782
64003W        W30544  35.782  34.519   1.559
64004W        W30545  35.535  31.530   2.359
64005W        W30546  29.150   1.284   2.906
64006W        W30547  17.825   8.321  12.584
64007W        W30548  19.049  21.990  13.361
64008W        W30549  21.571  43.413   2.759
64009W        W30550  16.612  26.545   2.910
64010W        W30551  41.438  32.489  12.472
64011W        W30552  18.930  25.736  11.482
64012W        W30553   5.153  28.544  13.449
64013W        W30554  10.940  29.882   0.872
64014W        W30555   7.314  36.549   2.186
64015W        W30556   9.572  40.323  13.999
64016W        W30557   9.301  21.882  10.698
64017W        W30558  12.616   4.229  13.514
64018W        W30559   3.188  33.011   4.548
64019W        W30560  31.133   2.315   3.159
64020W        W30561  35.334  33.621  14.934
64021W        W30562  13.937   0.946   0.268
64022W        W30563  22.533  25.448  14.970
64023W        W30564  24.167  43.793  11.599
64024W        W30565  33.048  35.127   3.767
64025W        W30566   9.078  44.860  11.271
64026W        W30567  18.213   0.126  10.378
64027W        W30568  30.669  36.402  12.171
64028W        W30569  34.989  10.743   3.541
64029W        W30570  28.302  26.173  14.043
64030W        W30571  24.546  25.185   2.274
64031W        W30572  27.550  24.227  13.294
64032W        W30573  38.993   4.325  14.787
64033W        W30574  17.069  26.685   0.448
64034W        W30575  20.188  13.668  12.576
64035W        W30576  35.395  41.010  11.367
64036W        W30577  44.747  27.683  14.424
64037W        W30578  36.141   8.017  13.840
64038W        W30579  42.869   0.253   3.946
64039W        W30580  24.473   7.661   1.195
64040W        W30581   7.162  12.472   0.762
64041W        W30582  42.326  15.235  12.090
64042W        W30583   0.097  37.306   4.698
64043W        W30584   5.835   2.339  12.587
64044W        W30585   3.408  11.901   3.816
64045W        W30586  20.536  38.496   4.483
64046W        W30587  28.942  29.731   3.638
64047W        W30588  41.663  21.827   0.945
64048W        W30589  22.752  15.099  14.982
64049W        W30590   1.718   2.419   2.762
64050W        W30591  43.299  23.736   0.958
64051W        W30592   0.304  36.188   1.114
64052W        W30593  37.690  44.885   2.723
64053W        W30594   1.062  12.046  11.477
64054W        W30595   3.339  13.199  12.145
64055W        W30596  23.636   1.955   1.670
64056W        W30597  13.092  34.433   3.771
64057W        W30598  39.598  29.455   1.935
64058W        W30599  33.128  17.784   4.195
64059W        W30600  36.259  25.987   4.220
64060W        W30601   1.384  16.896  10.703
64061W        W30602  16.712   8.885   4.996
64062W        W30603  25.719  11.217   2.270
64063W        W30604  31.533  43.892  14.784
64064W        W30605  43.917   8.108  10.673
64065W        W30606   4.791  43.891   3.681
64066W        W30607  32.987  37.425  11.513
64067W        W30608  27.283  26.497  12.824
64068W        W30609   2.431  29.868  11.052
64069W        W30610   0.285  43.982   4.143
64070W        W30611  40.422  21.859   4.525
64071W        W30612  39.007  43.537   3.679
64072W        W30613  36.052  24.551   3.983
64073W        W30614   4.517  25.956  12.961
64074W        W30615  14.316  28.463   3.182
64075W        W30616   0.696   0.377   3.663
64076W        W30617  27.951  38.822   4.438
64077W        W30618   7.376  13.841  14.476
64078W        W30619  13.349  36.993   0.668
64079W        W30620  16.710  26.875  14.664
64080W        W30621  16.488  14.870  13.073
64081W        W30622   5.481  30.954   1.162
64082W        W30623  30.470  31.176  10.732
64083W        W30624  22.061  18.105  10.650
64084W        W30625   4.627   8.845  12.606
64085W        W30626   8.711  21.145  12.464
64086W        W30627  42.884  27.068   1.461
64087W        W30628   4.735  12.357   3.863
64088W        W30629   8.926  37.588  11.562
64089W        W30630  11.191   4.646   0.533
64090W        W30631  18.606  42.369  12.057
64091W        W30632   8.070  19.215   1.788
64092W        W30633  39.759  35.394   4.845
64093W        W30634  43.524  31.096   1.321
64094W        W30635  39.439  39.613   1.445
64095W        W30636   0.346  37.536   0.589
64096W        W30637  20.035  34.102   4.283
64097W        W30638  18.768  27.123  14.798
64098W        W30639  44.204  42.419   1.249
64099W        W30640  29.598  17.319   3.224
64100W        W30641  35.460  19.033   1.287
64101W        W30642  31.850   8.858  13.757
64102W        W30643  31.163  20.972   2.904
64103W        W30644  40.308  27.190   0.815
64104W        W30645  35.447  27.435  12.006
64105W        W30646  18.358  40.796  14.943
64106W        W30647   8.657  21.977  13.565
64107W        W30648  42.329  13.425  12.138
64108W        W30649  24.752   3.808   4.608
64109W        W30650  18.091  37.081   1.684
64110W        W30651   7.481  30.937   0.269
64111W        W30652  20.761  21.845   1.309
64112W        W30653  14.073  42.256  11.111
64113W        W30654  33.789  10.221  13.112
64114W        W30655  44.790  15.309   0.744
64115W        W30656  40.089  32.715   0.314
64116W        W30657  15.362  35.160  12.624
64117W        W30658  42.810  20.768   4.076
64118W        W30659  27.586  13.872  12.598
64119W        W30660  38.459   4.271   0.908
64120W        W30661  25.996  37.336   1.746
64121W        W30662   2.677  29.873  12.042
64122W        W30663   1.359  15.813   4.721
64123W        W30664  38.375  11.420  11.101
64124W        W30665   0.013  16.635   4.174
64125W        W30666   4.331   6.100  12.538
64126W        W30667  14.138  13.833  14.932
64127W        W30668  12.842  10.242   1.373
64128W        W30669   4.201  38.341  13.932
64129W        W30670  33.963  12.167  10.091
64130W        W30671  28.707  24.464  11.453
64131W        W30672  25.621  43.290  14.038
64132W        W30673  31.377   3.444   1.966
64133W        W30674  43.960  15.085   5.026
64134W        W30675   4.473  33.531  14.016
64135W        W30676  33.725  37.807   2.730
64136W        W30677  25.132  39.286  12.965
64137W        W30678   2.237  19.296   3.660
64138W        W30679   3.676  34.822  13.646
64139W        W30680  17.102  10.283   1.381
64140W        W30681  27.999   3.303   0.661
64141W        W30682  34.081  14.112   4.667
64142W        W30683   7.529  21.780   1.893
64143W        W30684  40.944  36.672   0.754
64144W        W30685   3.201  10.330  11.393
64145W        W30686  21.196  39.597   3.305
64146W        W30687  25.154  20.680   4.546
64147W        W30688   7.624   9.207   3.188
64148W        W30689  33.804  30.397   3.714
64149W        W30690  18.486   5.225  11.108
64150W        W30691  13.862  13.584  14.288
64151W        W30692  12.414  33.018  14.219
64152W        W30693  28.643  23.515   0.899
64153W        W30694  26.421  19.609   3.248
64154W        W30695  29.048  11.650  14.679
64155W        W30696   4.383  39.037   3.566
64156W        W30697  23.711  11.829  11.182
64157W        W30698  13.198  17.492   0.938
64158W        W30699  24.933   3.896   1.759
64159W        W30700   2.275  16.323  13.486
64160W        W30701   5.457  21.533  11.758
64161W        W30702   4.523  29.944   1.850
64162W        W30703  19.478  32.620  12.030
64163W        W30704  40.304  21.307  11.136
64164W        W30705  12.573   9.141  10.730
64165W        W30706  11.127  10.867  12.609
64166W        W30707  41.031  22.747   4.201
64167W        W30708  19.481   9.788   3.047
64168W        W30709   8.192  18.857   4.238
64169W        W30710  17.118   1.780   9.867
64170W        W30711  32.934   5.485   1.825
64171W        W30712   5.866  31.305   4.862
64172W        W30713  34.516  29.487   3.929
64173W        W30714  23.096   9.333   4.221
64174W        W30715  16.819  23.253  13.449
64175W        W30716  44.380  32.370  10.587
64176W        W30717  27.372  20.098   4.985
64177W        W30718  30.522  36.853   3.656
64178W        W30719   5.382  30.950  10.514
64179W        W30720  20.030  18.069  14.744
64180W        W30721  31.453  21.398   2.938
64181W        W30722  27.622  42.524   0.807
64182W        W30723  39.438  19.359   2.770
64183W        W30724  20.731   2.867   3.408
64184W        W30725  37.378  42.444  13.144
64185W        W30726   3.963   6.649  10.525
64186W        W30727  22.535   8.087   4.057
64187W        W30728  38.654  34.416  12.170
64188W        W30729   8.790  28.511   2.271
64189W        W30730  23.816   4.306  14.022
64190W        W30731  11.893  36.816  12.509
64191W        W30732  21.713   5.031  12.582
64192W        W30733  17.043  22.556   3.720
64193W        W30734   0.826  41.893  12.667
64194W        W30735  32.441  32.316  13.716
64195W        W30736  43.020  38.030  13.080
64196W        W30737   8.181  36.606   2.286
64197W        W30738   9.323  16.595   4.700
64198W        W30739  11.700  19.767  11.861
64199W        W30740   6.624  10.730  10.815
64200W        W30741  14.865  34.631  10.747
64201W        W30742  11.340  33.442  14.824
64202W        W30743  13.753  12.313   2.271
64203W        W30744   5.219  18.561   0.400
64204W        W30745  43.630  11.132  12.437
64205W        W30746  26.000   0.019  12.052
64206W        W30747  42.741  22.124  14.870
64207W        W30748  13.028   6.768  13.519
64208W        W30749  13.344  35.132   4.967
64209W        W30750  31.379  28.043  11.057
64210W        W30751  29.078   7.741   2.398
64211W        W30752  10.671  43.603  11.621
64212W        W30753  41.845  26.686  11.750
64213W        W30754  31.402   5.399   4.066
64214W        W30755   0.622  34.149  10.898
64215W        W30756  15.697   6.153  11.383
64216W        W30757  36.558   3.932   4.518
64217W        W30758  33.431  26.997  11.044
64218W        W30759  31.098  41.152   2.672
64219W        W30760  32.465  36.948   2.204
64220W        W30761  12.205  11.209   0.518
64221W        W30762  10.094   2.898  10.698
64222W        W30763   8.336   2.218   1.887
64223W        W30764  32.672  41.935  11.179
64224W        W30765  13.373  31.492  12.349
64225W        W30766  44.954   2.306   0.293
64226W        W30767  24.671  26.605   3.124
64227W        W30768  29.936   3.785  12.856
64228W        W30769  13.216  21.345  11.639
64229W        W30770   3.232  26.737  14.728
64230W        W30771   5.492  37.414   1.166
64231W        W30772  18.346  25.236  12.140
64232W        W30773  26.677  10.562  10.681
64233W        W30774   7.712  35.842   2.111
64234W        W30775  37.026  22.032   2.878
64235W        W30776  34.479  41.143  14.444
64236W        W30777  44.911  42.747  12.841
64237W        W30778  16.500  15.175  10.526
64238W        W30779   7.207  44.391   4.074
64239W        W30780   2.747  38.462  11.597
64240W        W30781  24.524   2.440  13.852
64241W        W30782   4.842  20.958   3.375
64242W        W30783  29.305  39.793   4.925
64243W        W30784   3.110  17.365  14.287
64244W        W30785  11.020  13.257  11.438
64245W        W30786  36.099   2.202   3.628
64246W        W30787   2.858   8.721   0.549
64247W        W30788  27.978  42.162  12.036
64248W        W30789   8.232  37.345   1.790
64249W        W30790  40.311  32.432  14.518
64250W        W30791  31.076   8.911  12.361
64251W        W30792  14.306  14.102   2.649
64252W        W30793  36.876  25.680  12.043
64253W        W30794   6.919  15.672  14.729
64254W        W30795  40.784  15.363   5.046
64255W        W30796  14.470   8.700   1.209
64256W        W30797   8.665  17.627   0.860
64257W        W30798  32.691  27.854   1.168
64258W        W30799  11.951  23.716  12.374
64259W        W30800  37.507   5.315  10.494
64260W        W30801  27.108  25.700   0.752
64261W        W30802  30.641  21.699  12.727
64262W        W30803  27.779  10.649  12.806
64263W        W30804  31.605  36.514   3.299
64264W        W30805  39.896   2.137  13.409
64265W        W30806   5.200  16.749  14.293
64266W        W30807  37.962  24.218  14.936
64267W        W30808  38.606  23.124   0.689
64268W        W30809  26.490  27.670  12.379
64269W        W30810  37.333  33.457  11.709
64270W        W30811  27.563   7.132  13.972
64271W        W30812  16.799  36.693   2.826
64272W        W30813   1.366  36.097  11.049
64273W        W30814  42.910  15.994  11.956
64274W        W30815  43.259  23.238   0.277
64275W        W30816  28.798   1.882  14.856
64276W        W30817  41.824  14.660  14.969
64277W        W30818  34.175  41.050  11.749
64278W        W30819   5.387  26.840   2.335
64279W        W30820  38.940  28.391   2.229
64280W        W30821  34.345  32.240   4.551
64281W        W30822  16.738   7.969  10.873
64282W        W30823  12.101  11.473  10.761
64283W        W30824  26.042  32.546  13.092
64284W        W30825   6.163  14.552  11.109
64285W        W30826  13.774  12.864   3.646
64286W        W30827  10.366   5.191   1.805
64287W        W30828   0.058   7.902   0.571
64288W        W30829  22.265  33.456  10.116
64289W        W30830  26.562   1.845   3.173
64290W        W30831   2.336  22.092  12.989
64291W        W30832  27.235  33.650  11.435
64292W        W30833  25.726  27.057  11.571
64293W        W30834  10.321  25.362   1.465
64294W        W30835  15.117  37.177   0.238
64295W        W30836   6.748  12.313  14.198
64296W        W30837   9.755  22.503   0.795
64297W        W30838  43.270  14.147  12.965
64298W        W30839  13.746  23.528  10.637
64299W        W30840  28.419   5.814  12.215
64300W        W30841  39.540  23.438   3.656
64301W        W30842  42.982  17.025  14.149
64302W        W30843   0.497  14.912  13.613
64303W        W30844  17.613  26.157  13.102
64304W        W30845  37.413  17.070  11.174
64305W        W30846  11.242  41.748   2.023
64306W        W30847   4.027   4.299   5.709
64307W        W30848  31.657  44.778  14.788
64308W        W30849  30.404   6.805  12.111
64309W        W30850  33.077  12.662   5.516
64310W        W30851  27.441  13.302   1.226
64311W        W30852   8.744   7.602  12.563
64312W        W30853  19.919  22.240  11.131
64313W        W30854  40.383  18.132  10.962
64314W        W30855  16.209  39.023  12.223
64315W        W30856  16.673  41.695   1.850
64316W        W30857  18.453  21.052   4.991
64317W        W30858   7.336   6.326   1.788
64318W        W30859   1.605  18.914   4.125
64319W        W30860  24.515   1.984  11.663
64320W        W30861  30.021  37.696  14.033
64321W        W30862  15.614  34.012   4.480
64322W        W30863  12.071   1.316  12.278
64323W        W30864   0.331   8.222   4.228
64324W        W30865  14.089  32.390   2.188
64325W        W30866   8.202   2.346  10.638
64326W        W30867  43.502  10.767   3.322
64327W        W30868  18.447   2.826  11.923
64328W        W30869  28.500  43.473  10.809
64329W        W30870  44.763  31.144   4.043
64330W        W30871  13.663   8.268   1.212
64331W        W30872  32.722  34.582  10.671
64332W        W30873   7.458  24.609   4.436
64333W        W30874   9.268  36.644  11.067
64334W        W30875   3.965  43.370   1.955
64335W        W30876   2.983  15.643   1.246
64336W        W30877  41.850  29.219  13.052
64337W        W30878  18.158  44.011   3.392
64338W        W30879  28.076   2.173  12.582
64339W        W30880  42.021  39.885  10.512
64340W        W30881  41.090  22.218  14.312
64341W        W30882  13.114  14.822  10.787
64342W        W30883  40.281  27.994  12.483
64343W        W30884  34.051  42.954  12.163
64344W        W30885  22.569   3.687   5.405
64345W        W30886  27.514  40.938  12.534
64346W        W30887  22.587   1.966   4.116
64347W        W30888  25.492  43.636  12.359
64348W        W30889   2.145  27.471   2.302
64349W        W30890  13.566  11.461  14.876
64350W        W30891  35.199  19.183   2.209
64351W        W30892  33.524  21.853   3.985
64352W        W30893   8.778   1.761   0.897
64353W        W30894  40.852  20.012   2.840
64354W        W30895  15.053  19.776   3.194
64355W        W30896  35.817  30.851  12.939
64356W        W30897   3.208  29.418  13.821
64357W        W30898  22.973  21.054  12.968
64358W        W30899   2.369   3.276   4.010
64359W        W30900  14.361  27.970   3.322
64360W        W30901  37.628  33.556  12.988
64361W        W30902   7.905  24.903   0.782
64362W        W30903  40.953   2.007   0.320
64363W        W30904  37.473  27.964   5.041
64364W        W30905  36.709  31.376   3.856
64365W        W30906  44.288   2.863   0.027
64366W        W30907   1.478  28.834   5.359
64367W        W30908  42.309  18.105  12.066
64368W        W30909   7.475  26.099  10.934
64369W        W30910  15.774  18.668  14.806
64370W        W30911  10.079   3.229  12.266
64371W        W30912  35.470  31.485  10.749
64372W        W30913  39.072  21.380   2.840
64373W        W30914  22.971  34.334   2.857
64374W        W30915  24.772  26.665  14.426
64375W        W30916  38.958  33.200  13.055
64376W        W30917  19.748  17.755  10.732
64377W        W30918  29.153  41.192   1.832
64378W        W30919  13.125  39.577  13.042
64379W        W30920   2.852  30.851  13.507
64380W        W30921  10.888   8.859   3.963
64381W        W30922   2.531   1.553   1.841
64382W        W30923  24.818  31.648   0.889
64383W        W30924  35.179  16.668  11.064
64384W        W30925  25.891  11.450   3.055
64385W        W30926  24.056  29.089   2.739
64386W        W30927  30.260  28.146  12.446
64387W        W30928  41.167  19.107  10.450
64388W        W30929  13.053  24.069  12.884
64389W        W30930  26.572  38.459   0.677
64390W        W30931   5.454  39.381   1.853
64391W        W30932  14.595  41.025   1.306
64392W        W30933  38.953  13.155   0.575
64393W        W30934  37.396  18.138  12.362
64394W        W30935  40.484   7.329  10.591
64395W        W30936  14.729   9.601  14.509
64396W        W30937  36.999  21.219   3.681
64397W        W30938  24.202  29.701   0.433
64398W        W30939  34.507   2.293   2.892
64399W        W30940  36.927   3.693  11.027
64400W        W30941  37.632   9.818  13.941
64401W        W30942   5.225  13.084  11.597
64402W        W30943  34.033  43.260  12.677
64403W        W30944  30.050  28.468   2.298
64404W        W30945   0.517  11.646  11.127
64405W        W30946  13.902  12.722  14.539
64406W        W30947  25.402  10.245  12.037
64407W        W30948  39.534  44.406   3.824
64408W        W30949  35.815   5.294  12.878
64409W        W30950  14.856  41.272   4.553
64410W        W30951  25.965  27.887   1.448
64411W        W30952  22.420  32.713   0.214
64412W        W30953  10.925  39.916   1.763
64413W        W30954  43.521  22.538  12.534
64414W        W30955  19.932  44.777  12.489
64415W        W30956  31.501  15.232  10.340
64416W        W30957  19.163  24.225  14.901
64417W        W30958   8.812  41.512   5.037
64418W        W30959  19.406  12.243   4.421
64419W        W30960  27.972   6.768   3.148
64420W        W30961  10.424   8.054   4.701
64421W        W30962  41.325  31.678   4.213
64422W        W30963  17.732  38.857   4.138
64423W        W30964  26.953  34.060   4.244
64424W        W30965  22.538  30.581   4.647
64425W        W30966   3.328   2.948   0.279
64426W        W30967  25.275  34.998   1.854
64427W        W30968  17.269  37.504   1.411
64428W        W30969   7.995  20.623   0.720
64429W        W30970  31.975  25.584  14.723
64430W        W30971  26.471  24.066   1.219
64431W        W30972  39.339  20.336   1.355
64432W        W30973  17.043  25.015  10.747
64433W        W30974   6.786  28.706  10.782
64434W        W30975   8.951  20.482  10.924
64435W        W30976  37.164   4.223   2.410
64436W        W30977  17.767  23.677  14.831
64437W        W30978  42.822   9.577   1.036
64438W        W30979  21.072  29.539  13.472
64439W        W30980  23.024  29.078   2.764
64440W        W30981   6.427   1.409  10.858
64441W        W30982  10.197  38.983  11.509
64442W        W30983   1.358   4.180   3.796
64443W        W30984  36.928  35.537  10.806
64444W        W30985   3.473  33.225  13.065
64445W        W30986  44.952  25.147   2.687
64446W        W30987   4.268  31.027   3.082
64447W        W30988  33.887  40.058   0.958
64448W        W30989   8.645  11.862   4.162
64449W        W30990  24.445   2.802   1.670
64450W        W30991  26.873  20.172  10.700
64451W        W30992  24.472  16.572   0.827
64452W        W30993  34.330   5.591   4.170
64453W        W30994  29.560  24.484   0.948
64454W        W30995  37.512  30.496  13.417
64455W        W30996  38.446  40.618  14.209
64456W        W30997   7.644  28.468   3.784
64457W        W30998   9.132  40.949   2.097
64458W        W30999  44.866   1.262   2.893
64459W        W31000   2.767  20.722  12.150
64460W        W31001  33.204  40.340  14.319
64461W        W31002  17.441  19.752  11.162
64462W        W31003  18.786  14.751   2.541
64463W        W31004  33.060  10.611  13.619
64464W        W31005   2.886  35.643  12.885
64465W        W31006   2.493   1.517  13.473
64466W        W31007  13.026  13.886  14.166
64467W        W31008  31.298  19.657   5.046
64468W        W31009  16.106  16.815   2.832
64469W        W31010  20.035  26.965  11.548
64470W        W31011  36.033   1.933   3.206
64471W        W31012  15.297   8.903  14.592
64472W        W31013   4.219  12.904   0.340
64473W        W31014   2.220  37.575  11.983
64474W        W31015   1.857  34.458   1.264
64475W        W31016  17.306   6.886   1.484
64476W        W31017  26.653  20.753   0.463
64477W        W31018  39.216  40.933   4.615
64478W        W31019  15.105   6.649   2.443
64479W        W31020   5.123  35.116   4.917
64480W        W31021  28.742  36.496   1.121
64481W        W31022  33.412  28.575   3.942
64482W        W31023  15.181   0.433  12.815
64483W        W31024  17.903  36.770  11.873
64484W        W31025  22.028  32.226  13.310
64485W        W31026  28.880  38.778   2.133
64486W        W31027  15.029  20.180   1.399
64487W        W31028  14.770  17.091  13.901
64488W        W31029  16.285  30.043  10.752
64489W        W31030  37.500  35.460   0.738
64490W        W31031  10.401  28.164  14.912
64491W        W31032  14.714  30.984  13.351
64492W        W31033  35.606  41.357  13.934
64493W        W31034  31.858  36.815  12.842
64494W        W31035   3.451  14.953  14.342
64495W        W31036  22.983  41.867   2.292
64496W        W31037  25.160  40.582  12.425
64497W        W31038  23.467  16.748   2.350
64498W        W31039  39.739   5.797   0.502
64499W        W31040  19.383  41.467  10.310
64500W        W31041  14.097   2.878  12.946
64501W        W31042  20.743  15.847   0.834
64502W        W31043   2.950  22.425   5.037
64503W        W31044  44.285  38.057   3.231
64504W        W31045  37.642   6.208  13.484
64505W        W31046  26.424  44.386  10.960
64506W        W31047   9.717  39.104  13.450
64507W        W31048  30.511  31.156  13.562
64508W        W31049  17.778   9.782   3.251
64509W        W31050  10.280   3.935  12.962
64510W        W31051  24.528  17.705   2.172
64511W        W31052  20.649   8.975  13.384
64512W        W31053  31.047   4.281   4.733
64513W        W31054  43.778  24.611  12.496
64514W        W31055  27.593  44.029  10.252
64515W        W31056  27.273   0.100  12.492
64516W        W31057  24.634  43.556   3.619
64517W        W31058   7.875  24.091   3.627
64518W        W31059  40.243  43.899   4.057
64519W        W31060   0.313   5.646  14.848
64520W        W31061  35.110   7.698  10.675
64521W        W31062  33.884  15.040   1.330
64522W        W31063  25.418  35.942  13.967
64523W        W31064  26.025  11.245  11.798
64524W        W31065   7.103  33.110   4.148
64525W        W31066   7.366  40.851  10.469
64526W        W31067  28.893   8.615   0.438
64527W        W31068  34.502  26.086   2.632
64528W        W31069   9.544  26.164  11.294
64529W        W31070  21.273   9.696  10.764
64530W        W31071  35.694   7.321  12.230
64531W        W31072  15.613  15.130   2.694
64532W        W31073  43.316  38.798   9.963
64533W        W31074   4.898  27.453  12.205
64534W        W31075  44.202  16.254   1.974
64535W        W31076  35.647  41.280   0.594
64536W        W31077  43.909  30.515   3.212
64537W        W31078   9.189   0.381  11.155
64538W        W31079  28.996  15.835   9.992
64539W        W31080   1.231  41.701  11.984
64540W        W31081  22.486   1.423   4.138
64541W        W31082  21.691  44.545  13.520
64542W        W31083   1.195  28.803  11.258
64543W        W31084  14.146  37.045  12.125
64544W        W31085  43.625   4.879   3.207
64545W        W31086  10.830  21.588   3.252
64546W        W31087  17.347  36.499  11.078
64547W        W31088   2.577  15.267  14.324
64548W        W31089  16.528   4.669   2.374
64549W        W31090  37.560  20.875   4.027
64550W        W31091   7.294   0.940   4.141
64551W        W31092  26.765  20.998  13.526
64552W        W31093  31.176  27.192   2.246
64553W        W31094   6.815  23.549   2.684
64554W        W31095  22.121  36.137   4.864
64555W        W31096  36.076  37.525   1.418
64556W        W31097  32.212  42.913  14.287
64557W        W31098   5.340  33.479   1.198
64558W        W31099  23.419  28.690  14.951
64559W        W31100  13.029   5.207  12.771
64560W        W31101   4.814   8.444  14.727
64561W        W31102  44.780  32.756  14.369
64562W        W31103  14.332  43.911  13.109
64563W        W31104   3.979  41.829   2.821
64564W        W31105  20.201  25.140  13.837
64565W        W31106  30.217  38.953   5.084
64566W        W31107   7.724  10.571   4.990
64567W        W31108  10.865  19.118  11.697
64568W        W31109  19.437  34.161  14.960
64569W        W31110   6.168   1.301   2.891
64570W        W31111  42.904  20.681   3.562
64571W        W31112  29.174  21.166   2.114
64572W        W31113  42.747  14.192  11.302
64573W        W31114   1.416  42.776   4.164
64574W        W31115  10.662  41.984   4.581
64575W        W31116  44.267  27.651  13.720
64576W        W31117   6.793  18.543  11.571
64577W        W31118  42.256  31.565  12.132
64578W        W31119   5.712  38.596   1.031
64579W        W31120  20.016   3.236   3.329
64580W        W31121   4.391  11.818  10.956
64581W        W31122  20.602  11.073  12.429
64582W        W31123  39.006  39.012  12.437
64583W        W31124  10.766  41.486   3.660
64584W        W31125  21.938  17.194   0.045
64585W        W31126  33.457   4.924  11.210
64586W        W31127  16.517  22.235   3.244
64587W        W31128  12.390   2.272   0.368
64588W        W31129  28.629  36.052   4.152
64589W        W31130  38.112  26.535  13.603
64590W        W31131   8.614  33.394  12.621
64591W        W31132  13.930   7.047  13.082
64592W        W31133  14.277  35.682  12.896
64593W        W31134  33.147  28.740  12.368
64594W        W31135  39.517  33.270   1.296
64595W        W31136   7.788  28.602  14.797
64596W        W31137   1.818  29.206   2.403
64597W        W31138  13.304  17.244   1.815
64598W        W31139  42.376  17.348   3.365
64599W        W31140   5.865  14.572   1.472
64600W        W31141  33.673   7.581   0.814
64601W        W31142  43.987  29.268  13.388
64602W        W31143  44.324  18.130   0.466
64603W        W31144  30.008  30.353  13.559
64604W        W31145  31.503   4.026   2.765
64605W        W31146  16.211  44.901  12.415
64606W        W31147  22.651  29.844  12.426
64607W        W31148  40.796  34.451   0.857
64608W        W31149  28.541   7.183   2.429
64609W        W31150  37.186  35.887  10.489
64610W        W31151  10.509  35.631   3.198
64611W        W31152  18.902   9.945   1.450
64612W        W31153   0.405   8.189  14.887
64613W        W31154   1.837  22.978  10.773
64614W        W31155  28.169  44.671   0.312
64615W        W31156  25.529   1.802  14.429
64616W        W31157  42.115  37.465   3.493
64617W        W31158   5.647  44.348   1.186
64618W        W31159  18.529  29.083  13.936
64619W        W31160  42.048  20.204  10.631
64620W        W31161  30.890   7.461   0.419
64621W        W31162   6.574  41.787  14.013
64622W        W31163   4.392   7.923  14.020
64623W        W31164  10.286  22.757  10.959
64624W        W31165  19.464  28.483  11.597
64625W        W31166  26.105  25.385   0.014
64626W        W31167  43.841  31.270   1.684
64627W        W31168   8.298  43.778  11.419
64628W        W31169  20.019  14.604  14.614
64629W        W31170  23.974  24.814   3.614
64630W        W31171  40.371  38.488   4.591
64631W        W31172  31.679  39.088   1.362
64632W        W31173  27.150  14.378  11.572
64633W        W31174   5.387  43.868   0.985
64634W        W31175   0.018  23.923   1.369
64635W        W31176   3.449  22.172   0.230
64636W        W31177  25.222   0.939  10.470
64637W        W31178  26.146  24.299   4.129
64638W        W31179  44.894  38.301   1.253
64639W        W31180  37.929  36.462   4.156
64640W        W31181  12.802  34.052   4.028
64641W        W31182  28.679  44.317  11.567
64642W        W31183  33.557   0.051   0.981
64643W        W31184  15.741  12.321   4.706
64644W        W31185  23.555  43.886   4.254
64645W        W31186  34.564  19.310   2.687
64646W        W31187  31.343  13.678   1.193
64647W        W31188  30.131   4.702  12.487
64648W        W31189  30.549  36.354  11.229
64649W        W31190  42.543  18.189   1.712
64650W        W31191  11.656  27.219  14.708
64651W        W31192   0.682  11.878   2.298
64652W        W31193  12.039  32.510   9.979
64653W        W31194  41.428  11.820  14.124
64654W        W31195  26.464   1.723  10.509
64655W        W31196  22.689  26.094   3.146
64656W        W31197  44.286  30.655  12.477
64657W        W31198  26.501  12.239   3.415
64658W        W31199  32.176  12.911  11.700
64659W        W31200  41.724  24.241  11.664
64660W        W31201  21.755  13.135  12.603
64661W        W31202   5.484  39.621   1.387
64662W        W31203   7.565   3.055  11.354
64663W        W31204  22.721  20.190  11.721
64664W        W31205  33.630  29.902  10.687
64665W        W31206  22.716  10.754   4.906
64666W        W31207   7.907  18.629  13.861
64667W        W31208   2.926  12.180   4.424
64668W        W31209  37.530  15.075  10.694
64669W        W31210  19.512  14.661   4.051
64670W        W31211   3.912  33.119  14.341
64671W        W31212  23.424   0.562  11.829
64672W        W31213  44.769   1.533   0.863
64673W        W31214   7.849  16.532   4.305
64674W        W31215  11.717  18.268   4.490
64675W        W31216  11.853  42.763   0.323
64676W        W31217  31.185  10.456  13.982
64677W        W31218  12.754  19.555   0.304
64678W        W31219  16.128  25.259   2.683
64679W        W31220   2.882   5.556   0.808
64680W        W31221  11.779   3.044   1.849
64681W        W31222  11.478  42.503   4.718
64682W        W31223  13.355  37.054   0.151
64683W        W31224   5.650  18.741   3.373
64684W        W31225  20.571  11.329   2.338
64685W        W31226  17.827  17.047  13.600
64686W        W31227  33.526  15.592  10.539
64687W        W31228   9.266  18.810   3.769
64688W        W31229   6.686  38.563  12.727
64689W        W31230  29.810  19.675   0.677
64690W        W31231  25.654  41.870  12.486
64691W        W31232  18.760  32.516  11.439
64692W        W31233  25.714  39.631  10.386
64693W        W31234   0.500  10.777  11.600
64694W        W31235  33.586   1.299  10.289
64695W        W31236   7.437  29.983  13.838
64696W        W31237   1.188  13.237   1.413
64697W        W31238  31.541  28.001   4.177
64698W        W31239   5.455  36.130   3.365
64699W        W31240   7.674   1.241   0.371
64700W        W31241  32.349  11.913  14.407
64701W        W31242   3.306  26.688   0.241
64702W        W31243  40.933  41.587   1.903
64703W        W31244  33.470  20.052  14.842
64704W        W31245  13.243   3.071  14.895
64705W        W31246  39.352  26.179   3.859
64706W        W31247  40.379  39.933  13.411
64707W        W31248  34.405  14.211  13.611
64708W        W31249  24.644  18.694   0.603
64709W        W31250  24.485  30.621   0.433
64710W        W31251   4.319  30.021   1.357
64711W        W31252  39.363  37.998  11.812
64712W        W31253  25.415  19.430   4.073
64713W        W31254   6.749  14.234   3.142
64714W        W31255   8.595  19.934   2.101
64715W        W31256   2.470  24.547   0.446
64716W        W31257  32.858  18.797  12.024
64717W        W31258  16.541  31.425  14.815
64718W        W31259  27.643   8.249  11.637
64719W        W31260   4.293  27.408   4.012
64720W        W31261  22.555  21.289   4.687
64721W        W31262   6.858  23.241  10.771
64722W        W31263  22.089   4.170  14.173
64723W        W31264  41.531   5.245  11.200
64724W        W31265   3.422  33.491  11.264
64725W        W31266  17.336  18.475  12.546
64726W        W31267  20.855  43.402   3.311
64727W        W31268   6.738  22.953   0.036
64728W        W31269  22.591  37.787  11.735
64729W        W31270  31.545  38.660  13.619
64730W        W31271  25.404   2.816  12.025
64731W        W31272  37.498   2.796  12.480
64732W        W31273  27.281   3.171   3.386
64733W        W31274  11.708  28.599   3.428
64734W        W31275  11.533  15.356   2.849
64735W        W31276  10.339  15.312   3.196
64736W        W31277  15.510  26.569   4.777
64737W        W31278  30.490   3.793   2.336
64738W        W31279  36.503  43.014   1.454
64739W        W31280  13.640  21.966   0.904
64740W        W31281  14.239   9.784  15.000
64741W        W31282   1.742   8.427  13.264
64742W        W31283   9.812  32.496   0.388
64743W        W31284  33.630   7.233   1.290
64744W        W31285   2.296  17.065  10.427
64745W        W31286  28.593  30.664   1.201
64746W        W31287   8.675  14.180  11.134
64747W        W31288  43.837  31.436   2.392
64748W        W31289  22.973  31.609   1.371
64749W        W31290  41.717  26.016   2.443
64750W        W31291  30.612  28.724   0.257
64751W        W31292  39.442  31.603  12.902
64752W        W31293   6.374   8.668  12.928
64753W        W31294   2.371   9.810   2.346
64754W        W31295  39.084  32.527   1.875
64755W        W31296  40.417   3.661   1.437
64756W        W31297  25.114   4.232   1.129
64757W        W31298  41.339  14.747  12.604
64758W        W31299  36.327  31.002  12.918
64759W        W31300  20.716  44.213  13.542
64760W        W31301  44.317  29.411  12.117
64761W        W31302  27.246  21.321   1.185
64762W        W31303  12.670   3.841   3.662
64763W        W31304  32.027  20.383  12.599
64764W        W31305  37.989  31.971  13.993
64765W        W31306  44.446  16.458  11.607
64766W        W31307   0.330  35.534  14.316
64767W        W31308  40.701   4.758  13.352
64768W        W31309  38.494  41.265   0.501
64769W        W31310  34.997  19.378  13.389
64770W        W31311   7.658   2.058  11.450
64771W        W31312  11.155  32.982   1.122
64772W        W31313  34.896   6.869   1.756
64773W        W31314  21.671  41.861   3.656
64774W        W31315  39.137  22.626  12.067
64775W        W31316  29.781  43.030  10.675
64776W        W31317  37.388  40.793  13.317
64777W        W31318   6.564  33.502   0.971
64778W        W31319  34.580   0.379  12.465
64779W        W31320   5.760  23.198  12.339
64780W        W31321  27.485  22.015  10.553
64781W        W31322  21.449   1.220  12.946
64782W        W31323   6.366   5.564   3.173
64783W        W31324   0.153   4.887  13.917
64784W        W31325  15.161   3.467   2.118
64785W        W31326  17.621  32.754  14.880
64786W        W31327  32.683  16.126   3.206
64787W        W31328  39.355  44.838   4.044
64788W        W31329  13.118   8.264   1.931
64789W        W31330   1.741  43.524   3.385
64790W        W31331  10.132  13.513   2.755
64791W        W31332  39.894  23.360   1.747
64792W        W31333  12.201  28.562   1.618
64793W        W31334  34.944  11.039  12.582
64794W        W31335  25.228  40.030   1.192
64795W        W31336   4.408  37.597  12.088
64796W        W31337  13.595  37.791  12.887
64797W        W31338  17.827  17.993  13.796
64798W        W31339  37.684  18.914   4.660
64799W        W31340  37.866   9.218  11.818
64800W        W31341   1.727  25.946  12.035
64801W        W31342  14.816  36.420   1.352
64802W        W31343  16.123   9.195  11.563
64803W        W31344   6.043  14.106   1.288
64804W        W31345  34.110  29.037   0.800
64805W        W31346   5.392  37.917   4.161
64806W        W31347  19.168  23.233  13.033
64807W        W31348   2.737   3.276   3.220
64808W        W31349  16.194  34.281  14.948
64809W        W31350  37.401   3.401   1.214
64810W        W31351  31.524  15.726  10.478
64811W        W31352  21.608  31.875   2.723
64812W        W31353  32.553  18.181  14.060
64813W        W31354  43.941  11.329   0.706
64814W        W31355   9.195  34.202  14.947
64815W        W31356  15.190   4.383  14.919
64816W        W31357  27.936  12.660  11.045
64817W        W31358  38.931  31.161   2.916
64818W        W31359  43.979  28.637  14.794
64819W        W31360  34.589  32.302   1.468
64820W        W31361  20.732  42.853   4.598
64821W        W31362   5.525  19.046   0.404
64822W        W31363  40.928  38.329   2.137
64823W        W31364   1.664  17.922   3.736
64824W        W31365  15.564   7.932  11.111
64825W        W31366  11.081  17.481   1.634
64826W        W31367  21.565   8.664  11.503
64827W        W31368  37.075  40.730  12.045
64828W        W31369  32.467  41.958  11.649
64829W        W31370  17.618  41.194   0.252
64830W        W31371  37.541  10.635   1.263
64831W        W31372  15.986  10.361  11.995
64832W        W31373   8.316  11.175   2.365
64833W        W31374  39.746  27.544   3.212
64834W        W31375  15.590  38.786  12.501
64835W        W31376  29.150  24.464   0.504
64836W        W31377  15.830  42.296   2.287
64837W        W31378  33.980  13.879  12.001
64838W        W31379  17.596  27.515   4.280
64839W        W31380  39.409   8.666   3.787
64840W        W31381  11.224   4.688   0.012
64841W        W31382   4.408  31.568   0.983
64842W        W31383  24.176  13.905   4.530
64843W        W31384  35.383  30.666  14.888
64844W        W31385  18.122  41.580  14.379
64845W        W31386  20.255   6.372   3.298
64846W        W31387   2.038   2.059   1.738
64847W        W31388  14.867  43.240  12.481
64848W        W31389  24.965  34.946   3.333
64849W        W31390  18.436  15.080  14.267
64850W        W31391  19.003  17.312   0.810
64851W        W31392   8.604  37.835   3.106
64852W        W31393   2.161   7.173  12.044
64853W        W31394  21.777  12.154   3.078
64854W        W31395  11.346  26.974  11.673
64855W        W31396  16.813  36.871   0.804
64856W        W31397  43.392  41.435  14.486
64857W        W31398  26.027   5.746   4.692
64858W        W31399  11.253  40.292   4.683
64859W        W31400   1.749   0.003  14.677
64860W        W31401  23.505  38.525  12.690
64861W        W31402  26.488  29.552   1.810
64862W        W31403  41.007   6.674   3.131
64863W        W31404  21.667   2.990   3.335
64864W        W31405  33.900  14.147  12.432
64865W        W31406  27.181  25.454   1.214
64866W        W31407  32.657  25.040   2.692
64867W        W31408  15.730   1.103  12.914
64868W        W31409  28.886  38.293   1.434
64869W        W31410  14.331  20.957   2.855
64870W        W31411  43.343  37.518   1.684
64871W        W31412  21.820  40.861  11.578
64872W        W31413   5.723  38.448  13.444
64873W        W31414   0.242   4.403  13.713
64874W        W31415  17.689   3.331   3.221
64875W        W31416  43.537   9.126  12.536
64876W        W31417  25.643  25.642  12.972
64877W        W31418  16.953  11.458   0.122
64878W        W31419  13.739  38.406  12.199
64879W        W31420   0.249  15.134  12.618
64880W        W31421   2.219  12.538  14.695
64881W        W31422  21.548   8.798   4.341
64882W        W31423  24.441   0.039  12.953
64883W        W31424  15.027   2.459  13.107
64884W        W31425  28.169  29.234   3.265
64885W        W31426  42.546   9.116  10.746
64886W        W31427  26.769  21.654   0.756
64887W        W31428  20.778  28.638   2.652
64888W        W31429  12.273  37.086   4.115
64889W        W31430  42.453   7.500   2.713
64890W        W31431  19.730  32.165  13.492
64891W        W31432  31.459  44.490  10.832
64892W        W31433  24.266  27.549  14.563
64893W        W31434   4.422  32.653   0.789
64894W        W31435  26.503  25.499  10.715
64895W        W31436  11.816  23.951   0.465
64896W        W31437  41.886  35.391   1.824
64897W        W31438  21.733  37.310   1.888
64898W        W31439  40.068  31.909  11.150
64899W        W31440   3.217  44.886  11.108
64900W        W31441  28.533   6.386   1.735
64901W        W31442  10.647  12.892   2.357
64902W        W31443  17.147  18.184   3.112
64903W        W31444  39.000  27.521  11.462
64904W        W31445  10.212  38.246  12.501
64905W        W31446  15.998   2.868   2.111
64906W        W31447  28.920  24.942  13.315
64907W        W31448   8.234  40.261   2.324
64908W        W31449  30.733  28.793  12.851
64909W        W31450  40.752  14.175  13.589
64910W        W31451  36.941  15.625   2.197
64911W        W31452  17.674  34.392  10.384
64912W        W31453  43.389  40.698  10.903
64913W        W31454   1.728  27.520  13.914
64914W        W31455   7.264  25.151  11.979
64915W        W31456  10.461  26.243  12.060
64916W        W31457  13.441   5.002  10.702
64917W        W31458  24.528  30.474  10.958
64918W        W31459   8.510   4.023  14.407
64919W        W31460  16.561  26.073  14.293
64920W        W31461  12.671  38.519   2.235
64921W        W31462   2.453  35.474  10.425
64922W        W31463   5.912  34.344  11.514
64923W        W31464  18.450  43.592   3.430
64924W        W31465   5.885  24.097  12.304
64925W        W31466  21.486   9.190   0.377
64926W        W31467   7.807  40.317   0.814
64927W        W31468   4.866  30.869   5.643
64928W        W31469  26.824  44.295   2.739
64929W        W31470  39.136  43.651   0.873
64930W        W31471   1.960  32.503  13.271
64931W        W31472   4.893  34.544   0.900
64932W        W31473  11.247  41.202  11.215
64933W        W31474  32.463  21.039  13.253
64934W        W31475   8.419   2.438  11.094
64935W        W31476  22.347   5.178  14.473
64936W        W31477   0.574   6.736  14.256
64937W        W31478  26.501  37.236   3.166
64938W        W31479   7.429   9.339  11.617
64939W        W31480  31.969   6.236  11.485
64940W        W31481  18.681  26.804  10.681
64941W        W31482  15.660  11.134  13.761
64942W        W31483   0.522   3.876  13.802
64943W        W31484  22.466  41.570   3.695
64944W        W31485  23.852  25.592   1.283
64945W        W31486  32.072  32.637   0.825
64946W        W31487  15.741  25.968   0.610
64947W        W31488   3.213  30.626   0.848
64948W        W31489  44.825  19.133   3.221
64949W        W31490  16.314  36.907  12.925
64950W        W31491  13.409  37.511   2.785
64951W        W31492  19.666  29.211  13.344
64952W        W31493  10.747  24.497   4.498
64953W        W31494  10.200   7.246  13.836
64954W        W31495  31.762  42.976  11.945
64955W        W31496  13.547  31.440   3.583
64956W        W31497  12.329  36.328   1.339
64957W        W31498  11.412  11.616   4.187
64958W        W31499  26.210   8.825   0.741
64959W        W31500  16.815  29.948  14.550
64960W        W31501  40.144  16.516   9.750
64961W        W31502  30.910  13.284   3.712
64962W        W31503  12.599  42.255   0.433
64963W        W31504   0.021   7.792  14.804
64964W        W31505   3.551  13.801   2.812
64965W        W31506   2.276  33.599   3.240
64966W        W31507  34.393  29.778  11.704
64967W        W31508   5.466  16.053   4.233
64968W        W31509  30.588  15.694  10.953
64969W        W31510   6.902   9.351   1.350
64970W        W31511  40.014  43.975  11.323
64971W        W31512  26.430  15.530  14.316
64972W        W31513  35.956  12.178  14.361
64973W        W31514   9.551  21.154  11.427
64974W        W31515  37.812  40.993   4.331
64975W        W31516  31.616   0.829  12.508
64976W        W31517  41.065  27.746  11.106
64977W        W31518  42.120  11.171  13.702
64978W        W31519  12.968   0.006   1.313
64979W        W31520  22.643  13.872  12.435
64980W        W31521  10.669  11.630  14.313
64981W        W31522   8.882  42.592   1.032
64982W        W31523  38.182  24.033   2.627
64983W        W31524  32.515  41.675  14.669
64984W        W31525   8.381  27.202  12.125
64985W        W31526  44.449  36.165   1.424
64986W        W31527  32.080  26.168  14.031
64987W        W31528  37.805  36.611   4.647
64988W        W31529  21.407  21.680   4.264
64989W        W31530  43.802  29.757  13.326
64990W        W31531   5.265  41.416   1.223
64991W        W31532  26.507   4.436   0.950
64992W        W31533  17.984  32.974  11.292
64993W        W31534  20.058  10.706  11.124
64994W        W31535  11.409   8.210   3.238
64995W        W31536   6.359  17.810   4.149
64996W        W31537   6.263  26.473  14.907
64997W        W31538  19.568  17.742   4.385
64998W        W31539  22.917  43.836   3.612
64999W        W31540  28.964  37.377   3.004
65000W        W31541   2.480   2.288   2.256
65001W        W31542  20.389  37.951  13.860
65002W        W31543  31.031  11.750   4.587
65003W        W31544  17.305   3.302   2.312
65004W        W31545   4.132  34.930  12.707
65005W        W31546  21.896  20.049   3.406
65006W        W31547  31.144   3.849   2.431
65007W        W31548  15.615   5.367  14.834
65008W        W31549  32.552   7.918  12.347
65009W        W31550  40.291  24.036   3.252
65010W        W31551  25.907  21.595  14.478
65011W        W31552  13.164   8.244   1.393
65012W        W31553  10.018  13.041   1.995
65013W        W31554  37.431   2.639   2.645
65014W        W31555  14.135  32.909   0.339
65015W        W31556  20.605  26.700   2.414
65016W        W31557   1.606  40.026   0.531
65017W        W31558   0.988   7.383  10.490
65018W        W31559   8.368  19.564  11.089
65019W        W31560  24.270  17.013  14.287
65020W        W31561  22.643  28.242  14.588
65021W        W31562  33.681  11.689  12.484
65022W        W31563  27.083  20.024  12.893
65023W        W31564  39.081  23.647   3.753
65024W        W31565  40.978  40.076  14.557
65025W        W31566   2.213  40.930   0.829
65026W        W31567  23.926  12.237  10.888
65027W        W31568  20.521   3.765  14.910
65028W        W31569  27.627  24.748  13.377
65029W        W31570  39.189  37.413   0.377
65030W        W31571  20.042  14.713  12.438
65031W        W31572  25.897  37.997   3.680
65032W        W31573  20.620  21.092  12.599
65033W        W31574  40.972  27.673   2.778
65034W        W31575  18.693  43.675  13.499
65035W        W31576  38.775  15.287   0.364
65036W        W31577  31.587   2.852  12.416
65037W        W31578   0.146  17.636   1.853
65038W        W31579  14.107  38.350  10.724
65039W        W31580  13.990  43.515   1.691
65040W        W31581  15.836  16.153   0.435
65041W        W31582  44.437  13.562   4.851
65042W        W31583  31.438  10.317  13.518
65043W        W31584  28.269  14.744  13.865
65044W        W31585  24.977   3.163  11.916
65045W        W31586   4.249  28.611   2.012
65046W        W31587  31.489  30.445   3.904
65047W        W31588  23.257  24.188   0.808
65048W        W31589  25.427   1.029  11.978
65049W        W31590  28.614  31.686  11.498
65050W        W31591  13.506  22.063   0.029
65051W        W31592  30.636  42.480   2.937
65052W        W31593  40.508  22.109  13.067
65053W        W31594   3.065  39.695  11.207
65054W        W31595  10.454  38.535   0.739
65055W        W31596  44.363  31.190  12.411
65056W        W31597  12.642   6.432  12.399
65057W        W31598  17.438  41.037   3.778
65058W        W31599  26.797  30.407   3.634
65059W        W31600  37.118  25.234   2.732
65060W        W31601  32.373  33.012  12.926
65061W        W31602  10.433  10.913  13.854
65062W        W31603  14.531  44.229  14.499
65063W        W31604  44.529   8.710  11.564
65064W        W31605  28.518  23.822  11.066
65065W        W31606  18.954  42.664  13.403
65066W        W31607  44.265  31.556   1.483
65067W        W31608  23.212  24.739  13.382
65068W        W31609  13.245  17.856   3.589
65069W        W31610  30.664  44.665  11.150
65070W        W31611  16.232  40.074   3.082
65071W        W31612  42.383   4.477  14.429
65072W        W31613  44.015  35.811  14.282
65073W        W31614  43.905  12.045   1.484
65074W        W31615   1.227   7.989  10.784
65075W        W31616  32.855  27.633   2.348
65076W        W31617   5.899  44.355  13.947
65077W        W31618   0.586  27.662  11.512
65078W        W31619  27.228  10.791   0.203
65079W        W31620  38.049  40.539   4.152
65080W        W31621  30.446  40.825   3.217
65081W        W31622  33.005  32.370   1.611
65082W        W31623  13.163  40.805   2.785
65083W        W31624  21.742  23.332  12.324
65084W        W31625  18.254  25.383  14.581
65085W        W31626  10.204  21.186  14.858
65086W        W31627  27.926  33.293  12.738
65087W        W31628   6.417  20.335   4.252
65088W        W31629  18.112  28.705  11.777
65089W        W31630  16.840  19.763  12.922
65090W        W31631  39.822  34.935  13.849
65091W        W31632  13.445   7.145   2.688
65092W        W31633  23.521  28.523  13.404
65093W        W31634  11.127  27.747  12.831
65094W        W31635  15.773   4.987   2.761
65095W        W31636  19.627  39.218   1.422
65096W        W31637  30.907   2.042  13.165
65097W        W31638   4.699  42.460   1.803
65098W        W31639  28.609  21.032  13.647
65099W        W31640   9.214   7.983   3.314
65100W        W31641  17.194  27.877   3.661
65101W        W31642   0.069  19.322  11.840
65102W        W31643   3.787  16.119   3.324
65103W        W31644  11.307   2.962   1.606
65104W        W31645  32.845  30.136  13.427
65105W        W31646  16.052  40.938  13.550
65106W        W31647  17.438   2.379   0.936
65107W        W31648  28.447  18.249   4.264
65108W        W31649  19.186  23.810   4.545
65109W        W31650  10.926  25.734  13.879
65110W        W31651   4.879  36.078  13.971
65111W        W31652  21.966  42.711   2.110
65112W        W31653  24.764  19.268   4.957
65113W        W31654   7.631   0.003   1.964
65114W        W31655  35.941  26.468   3.335
65115W        W31656  10.314  16.583  14.375
65116W        W31657  36.912  36.375  11.261
65117W        W31658  30.118  28.155   4.570
65118W        W31659  18.313  32.421   1.692
65119W        W31660   5.941  42.714  14.046
65120W        W31661  14.111  11.799  14.229
65121W        W31662  17.157  16.222  11.966
65122W        W31663  18.947  42.000  12.191
65123W        W31664  18.981  42.991   2.365
65124W        W31665  14.570  40.438  11.619
65125W        W31666  28.715  15.868   2.345
65126W        W31667   8.563  34.141   4.504
65127W        W31668  42.982  27.440  14.741
65128W        W31669  41.951   1.974  14.861
65129W        W31670  41.351  24.642  13.967
65130W        W31671  17.173   2.311   3.670
65131W        W31672   3.730  34.402   3.745
65132W        W31673  12.678  40.094  13.852
65133W        W31674  31.561  42.873   4.949
65134W        W31675  35.418  18.662  12.750
65135W        W31676  27.102  20.557   2.234
65136W        W31677  36.469   6.674  11.052
65137W        W31678  30.860  15.195   4.792
65138W        W31679  31.204   0.913  10.296
65139W        W31680  10.376  35.646  12.696
65140W        W31681   9.479  29.234   1.526
65141W        W31682  41.378  22.387  11.458
65142W        W31683  21.715  28.859   2.775
65143W        W31684   1.584  32.796  12.830
65144W        W31685  21.183  13.256   4.766
65145W        W31686  15.344  34.502   0.354
65146W        W31687  30.973  27.545   4.588
65147W        W31688   9.124  31.985  11.575
65148W        W31689  27.252  44.280   4.188
65149W        W31690  28.193  22.562   1.799
65150W        W31691  38.066  40.628  10.164
65151W        W31692  10.595  13.335  11.710
65152W        W31693   4.414  26.986   5.492
65153W        W31694  39.406  34.522  13.388
65154W        W31695  24.428  12.309  12.040
65155W        W31696  33.442  33.821   3.672
65156W        W31697  17.562  41.933  11.170
65157W        W31698  15.317  21.654  10.388
65158W        W31699  10.966  11.877   4.155
65159W        W31700  23.115  35.018   3.614
65160W        W31701   4.466  31.217  12.003
65161W        W31702   1.801   8.369  12.760
65162W        W31703  11.959   7.654  10.406
65163W        W31704  42.545  35.077   0.904
65164W        W31705  43.940  22.768   0.661
65165W        W31706  18.028  27.930  14.428
65166W        W31707  23.983  20.108  10.364
65167W        W31708  11.253  42.863  11.758
65168W        W31709  34.775  36.075  14.563
65169W        W31710  11.065  23.028   2.582
65170W        W31711   0.736   9.785  13.980
65171W        W31712  13.155   5.854   3.540
65172W        W31713  41.230  29.839  13.177
65173W        W31714  31.210  20.331  11.231
65174W        W31715  11.269  19.546   4.008
65175W        W31716  19.625  29.664   2.274
65176W        W31717  31.840   1.651   4.018
65177W        W31718   9.162  25.904   1.250
65178W        W31719  20.726  40.960   4.972
65179W        W31720  34.379   4.203  11.495
65180W        W31721  21.490  22.119   1.759
65181W        W31722  39.650  18.530  12.416
65182W        W31723  22.623  23.879   4.546
65183W        W31724   7.712  19.654   4.446
65184W        W31725  14.148  24.211  14.376
65185W        W31726  36.596  21.709  12.497
65186W        W31727  29.589  15.588   0.342
65187W        W31728   7.285   7.758  14.109
65188W        W31729  17.186  15.067  14.733
65189W        W31730  44.474  34.493  12.020
65190W        W31731  12.123  34.146   0.665
65191W        W31732  34.802  36.735  14.698
65192W        W31733  34.214  16.613   3.225
65193W        W31734  25.504  40.771   0.513
65194W        W31735  28.431  40.827  14.331
65195W        W31736  26.721  29.531  11.467
65196W        W31737  15.195   0.047  11.340
65197W        W31738   7.123  29.534  13.856
65198W        W31739   3.858  34.692   1.309
65199W        W31740  36.642  13.715  14.029
65200W        W31741  43.236  37.882  12.624
65201W        W31742  16.025  20.035  14.503
65202W        W31743  15.475   4.877   1.529
65203W        W31744  20.464  20.695  12.937
65204W        W31745  40.041  22.909   0.865
65205W        W31746  16.874  33.222   3.850
65206W        W31747  36.492   3.979   2.764
65207W        W31748  38.724   1.910   0.893
65208W        W31749  35.324  42.480   0.294
65209W        W31750   6.350  22.031   1.407
65210W        W31751  25.061  21.666   4.621
65211W        W31752   3.760  12.747   0.165
65212W        W31753   4.651   5.369   0.060
65213W        W31754  11.391  17.320  14.850
65214W        W31755  15.081  32.707  13.905
65215W        W31756   7.359  23.263  13.779
65216W        W31757  12.050  31.210  14.303
65217W        W31758  28.491  19.558   4.252
65218W        W31759  15.793  30.596  11.926
65219W        W31760  11.207  41.127  14.029
65220W        W31761  34.850  40.512  12.063
65221W        W31762  20.328  39.689   4.082
65222W        W31763  23.921   1.065  13.802
65223W        W31764   3.878  32.960   4.045
65224W        W31765   4.938  27.454   2.810
65225W        W31766   5.434  37.560   3.146
65226W        W31767   0.992  25.603   0.587
65227W        W31768  34.138  12.286  12.839
65228W        W31769   7.755  23.041  11.161
65229W        W31770  18.244   2.641   2.263
65230W        W31771  32.303  41.694  12.965
65231W        W31772  44.955  35.761  11.610
65232W        W31773  24.575  40.299  11.318
65233W        W31774   7.223  26.235   2.356
65234W        W31775  29.942  35.395   1.789
65235W        W31776  14.654  30.005   5.046
65236W        W31777   4.353  30.685  11.933
65237W        W31778  24.101  18.247   3.661
65238W        W31779  42.251  32.034   3.029
65239W        W31780   0.870  37.474   1.349
65240W        W31781  16.089  13.759  13.547
65241W        W31782  30.241   2.526   2.266
65242W        W31783  28.701  13.063   0.933
65243W        W31784  38.600  22.794  14.933
65244W        W31785  30.399  22.961  10.865
65245W        W31786  31.452  44.221  12.681
65246W        W31787  28.902  25.170  11.437
65247W        W31788  30.472  43.796  13.215
65248W        W31789  24.090  42.862  10.996
65249W        W31790  29.982  11.404   1.641
65250W        W31791  12.774   1.266   3.650
65251W        W31792  44.042   3.732   2.979
65252W        W31793  27.656  12.397  10.714
65253W        W31794  29.313   6.546   4.470
65254W        W31795  19.684   7.622  10.627
65255W        W31796   3.846  35.938  11.008
65256W        W31797   7.593  28.054   1.417
65257W        W31798  20.264  25.115   0.006
65258W        W31799  10.134  23.205   4.987
65259W        W31800  33.338  24.662  12.824
65260W        W31801  44.401   1.548   2.981
65261W        W31802  44.452  29.034  12.447
65262W        W31803  32.082   1.274   4.283
65263W        W31804   1.957  25.991   3.698
65264W        W31805  27.548  38.407   1.602
65265W        W31806  20.358   8.356  11.582
65266W        W31807   8.378  24.465  10.979
65267W        W31808  26.558  16.600   0.981
65268W        W31809   1.738  21.641   1.383
65269W        W31810  34.986   7.830   0.600
65270W        W31811  22.842  42.024   3.278
65271W        W31812  30.940  41.563  11.075
65272W        W31813   4.311  23.228   4.113
65273W        W31814  24.805   2.036  13.987
65274W        W31815  43.010  13.623   0.945
65275W        W31816  19.315  16.558   0.257
65276W        W31817  31.094   5.321  13.744
65277W        W31818  33.904  26.682  11.977
65278W        W31819  17.296  42.045  10.733
65279W        W31820  31.638  39.012   2.686
65280W        W31821  12.978  31.850   3.435
65281W        W31822  13.362   8.390  12.010
65282W        W31823  41.372  15.107  13.698
65283W        W31824  29.186  38.789   3.611
65284W        W31825  27.715   3.341  10.839
65285W        W31826  29.945  13.437   2.720
65286W        W31827  39.828   7.362   4.209
65287W        W31828  34.047  17.704   4.591
65288W        W31829   5.401  35.130   2.981
65289W        W31830  29.030  39.795   2.275
65290W        W31831  40.890  10.095   0.560
65291W        W31832   5.526  34.863  10.424
65292W        W31833  15.710  43.493  14.489
65293W        W31834  37.582  14.600  11.587
65294W        W31835   7.123   4.732   1.956
65295W        W31836  12.170  21.958  14.247
65296W        W31837  15.183  41.250   0.293
65297W        W31838  29.679  44.580   1.675
65298W        W31839  20.310  30.621   5.129
65299W        W31840  10.709  16.236  14.367
65300W        W31841  20.201  18.839   4.504
65301W        W31842  28.316  43.762   4.108
65302W        W31843  33.763   4.936  14.317
65303W        W31844  22.802  23.547   2.495
65304W        W31845  41.469  41.502   3.173
65305W        W31846  42.582  19.362   4.627
65306W        W31847  34.446   7.096   3.612
65307W        W31848   0.895  42.907  11.763
65308W        W31849  42.930  18.437   4.665
65309W        W31850  31.961  20.923  11.552
65310W        W31851   6.753  15.520  12.329
65311W        W31852   0.722  17.162   2.463
65312W        W31853   2.711  11.943  10.573
65313W        W31854  27.455  26.032  13.039
65314W        W31855  18.171  29.121   2.267
65315W        W31856  41.550  39.226   3.278
65316W        W31857   1.493  19.265   2.169
65317W        W31858  24.510  43.930  11.176
65318W        W31859  40.996   2.935  10.524
65319W        W31860  24.510   8.627   2.743
65320W        W31861   9.916  38.475  14.282
65321W        W31862  44.349  23.243   2.760
65322W        W31863  16.786  17.147  14.384
65323W        W31864  12.068  37.948   1.841
65324W        W31865  41.224   4.415  14.979
65325W        W31866  14.854   2.312  14.715
65326W        W31867   0.532   8.809   2.631
65327W        W31868   7.076   0.543  12.768
65328W        W31869  27.218  34.830   3.291
65329W        W31870  40.527  21.161   1.842
65330W        W31871  12.637   8.195   1.728
65331W        W31872  19.231  13.801  13.502
65332W        W31873   2.062   0.897  13.024
65333W        W31874  38.063  18.878   1.299
65334W        W31875  21.671  21.984  12.536
65335W        W31876  40.320   5.749  11.687
65336W        W31877  25.902  37.654  12.361
65337W        W31878  40.061  44.335   3.847
65338W        W31879  20.828  20.550   0.342
65339W        W31880  20.738  40.917  13.038
65340W        W31881   4.991  11.093   1.804
65341W        W31882   9.336  25.462  11.993
65342W        W31883  22.655  16.684  12.021
65343W        W31884   4.166   3.000  12.109
65344W        W31885  39.774  14.965   2.859
65345W        W31886  22.087  41.729  14.373
65346W        W31887  23.093   2.859   3.209
65347W        W31888  11.556  23.917   2.786
65348W        W31889  17.197  29.714   3.333
65349W        W31890   8.828  24.871   4.782
65350W        W31891  39.182  44.493  14.473
65351W        W31892   3.438   1.326  11.954
65352W        W31893   5.416  28.856  12.490
65353W        W31894  34.292  37.463  11.080
65354W        W31895  25.492  21.374   1.483
65355W        W31896  18.589   5.535  11.555
65356W        W31897   6.439  31.738  13.418
65357W        W31898  43.282  34.982   2.885
65358W        W31899  36.819  19.048  14.279
65359W        W31900   3.683  33.428  13.570
65360W        W31901  24.514  36.491  13.061
65361W        W31902  29.140   6.209   4.078
65362W        W31903  31.401   3.968   1.855
65363W        W31904   3.717  19.621   4.888
65364W        W31905  33.723  15.873  10.106
65365W        W31906  22.246  24.788   2.729
65366W        W31907   0.986  25.608   3.685
65367W        W31908  34.617  44.823   0.816
65368W        W31909  16.751  34.508  14.859
65369W        W31910   0.978  22.616   2.267
65370W        W31911   7.932  10.435   1.445
65371W        W31912  10.060  12.967   1.505
65372W        W31913  38.539   5.648   1.786
65373W        W31914  18.546   9.831  13.420
65374W        W31915  36.962  36.952  12.122
65375W        W31916   3.388  23.483  11.320
65376W        W31917  12.998  22.221   0.880
65377W        W31918  29.129  19.507   1.916
65378W        W31919  21.627  43.390   3.261
65379W        W31920  19.321   2.421  12.437
65380W        W31921  13.345  41.235  11.113
65381W        W31922  40.465   6.832  10.749
65382W        W31923  34.321  26.916   1.815
65383W        W31924  15.592  18.062  10.552
65384W        W31925   3.213  43.324   2.736
65385W        W31926  30.944  15.285  14.433
65386W        W31927  32.140  25.052   0.446
65387W        W31928  34.456  44.320   1.493
65388W        W31929  11.854   0.489  12.880
65389W        W31930  11.291  37.591   0.001
65390W        W31931   1.682   2.890   2.458
65391W        W31932   0.983  23.677   1.612
65392W        W31933   3.696   5.271   4.675
65393W        W31934  38.851  38.130   0.794
65394W        W31935  11.977  12.719  12.537
65395W        W31936  22.048  35.955  10.879
65396W        W31937  30.525   9.794  12.526
65397W        W31938  22.073  25.280   2.794
65398W        W31939  44.964  26.674   3.222
65399W        W31940  16.084  40.316  11.940
65400W        W31941  20.455   1.304   1.727
65401W        W31942  14.639   3.985   3.714
65402W        W31943  35.940   8.382  10.800
65403W        W31944  18.952  42.905  14.812
65404W        W31945  36.514  20.340  14.860
65405W        W31946   0.557  21.647  14.985
65406W        W31947  28.933  20.643  12.084
65407W        W31948  40.821  31.673   4.613
65408W        W31949  14.059   2.980  11.686
65409W        W31950  40.564  43.953   0.232
65410W        W31951  20.046   7.026  12.491
65411W        W31952  32.388  43.392   4.537
65412W        W31953  15.405  13.237   1.426
65413W        W31954  22.004  35.585   3.337
65414W        W31955  21.364   3.189  12.786
65415W        W31956  11.300   9.208  11.614
65416W        W31957  42.291  44.331  13.774
65417W        W31958   5.276  19.844  13.043
65418W        W31959   0.971  44.427   2.024
65419W        W31960  11.573   5.787  10.473
65420W        W31961  26.551  37.653  10.934
65421W        W31962  34.962   8.362   1.855
65422W        W31963  44.722  23.564  14.383
65423W        W31964  15.577   6.188   1.316
65424W        W31965  20.293  37.179   4.292
65425W        W31966  18.125  35.935  11.458
65426W        W31967   5.500  16.827  10.297
65427W        W31968  43.208  18.734   4.984
65428W        W31969  28.672  29.246   0.367
65429W        W31970  36.105  18.119   4.623
65430W        W31971  27.426  16.485  11.705
65431W        W31972  31.333  22.662   1.812
65432W        W31973  16.038  22.676  12.300
65433W        W31974  39.028  36.150   1.334
65434W        W31975  42.371   0.522   4.491
65435W        W31976   8.292  33.877   3.007
65436W        W31977   3.508  35.960  12.340
65437W        W31978  35.478  17.135  13.476
65438W        W31979   4.134   1.304  12.480
65439W        W31980  39.824  23.129   1.281
65440W        W31981  19.524  29.183   1.290
65441W        W31982  17.208  41.774  12.005
65442W        W31983  44.426  42.861  12.001
65443W        W31984   5.472  25.423   3.116
65444W        W31985  21.163  29.448   0.779
65445W        W31986  28.953  28.073  14.141
65446W        W31987  32.871  24.765   2.235
65447W        W31988  16.316  31.912  11.335
65448W        W31989  38.801  39.919   0.789
65449W        W31990  40.136   7.637   3.444
65450W        W31991  30.227  44.545  11.425
65451W        W31992   0.320   2.528  13.913
65452W        W31993  22.229  35.913   2.994
65453W        W31994  37.585  33.599   1.375
65454W        W31995  33.705  29.687   0.075
65455W        W31996  32.986  43.789   3.989
65456W        W31997  40.422  33.727  11.325
65457W        W31998  10.232  14.538   1.811
65458W        W31999  44.864  42.636  12.126
65459W        W32000   1.002  20.555   3.295
65460W        W32001   1.830  12.326  14.345
65461W        W32002  22.976  25.259  13.408
65462W        W32003  18.735  29.060  13.439
65463W        W32004  22.835   5.244  14.536
65464W        W32005  31.430  22.932  14.057
65465W        W32006   2.395  12.406   5.047
65466W        W32007  14.831  16.089  14.060
65467W        W32008  34.362  36.613   0.315
65468W        W32009  25.992  43.838   4.243
65469W        W32010  22.237  40.781   3.292
65470W        W32011   8.764  42.329   4.998
65471W        W32012  11.276  34.257   2.795
65472W        W32013   1.212   6.632  11.065
65473W        W32014   1.874   0.586  14.303
65474W        W32015  23.238  41.459   1.398
65475W        W32016  33.741   3.273  14.325
65476W        W32017  23.013  40.361  12.925
65477W        W32018  31.645   9.715   3.178
65478W        W32019  42.830   3.856  14.872
65479W        W32020   8.755  39.582  11.693
65480W        W32021  12.568   4.950  12.733
65481W        W32022  27.397  31.166   1.691
65482W        W32023  43.536  44.878   1.230
65483W        W32024   1.388  16.081  11.645
65484W        W32025   6.698  42.384   0.974
65485W        W32026  34.683  18.485   3.277
65486W        W32027  31.895  37.420   1.750
65487W        W32028  41.041   5.236  14.411
65488W        W32029  35.108  33.864  13.615
65489W        W32030   4.419  33.699  10.425
65490W        W32031  22.213   7.673   3.331
65491W        W32032  35.967   8.977   3.661
65492W        W32033  41.889  39.084  12.108
65493W        W32034  25.495   1.485  12.335
65494W        W32035  15.468  37.657  11.112
65495W        W32036  27.642  14.998  11.954
65496W        W32037  42.273  13.019   2.186
65497W        W32038  29.570  38.526  14.519
65498W        W32039  24.266  31.430  11.828
65499W        W32040  38.344  25.067  11.614
65500W        W32041  21.378  39.248  11.243
65501W        W32042  23.104  44.868   1.785
65502W        W32043  33.715   5.627  13.940
65503W        W32044  41.365   7.167  14.342
65504W        W32045  41.100  39.127  13.394
65505W        W32046  17.771   1.227   4.525
65506W        W32047  14.109  19.347  14.759
65507W        W32048  13.934  20.689  14.498
65508W        W32049  21.926  11.681   4.229
65509W        W32050  22.143  25.454  11.934
65510W        W32051  27.118  28.066   0.448
65511W        W32052  30.403  10.736  10.630
65512W        W32053  41.920   8.870  13.087
65513W        W32054  20.649   7.498   4.102
65514W        W32055   0.702  35.050  11.840
65515W        W32056  33.400  42.862  10.108
65516W        W32057  18.331  22.779  11.190
65517W        W32058  26.145  21.158  14.309
65518W        W32059  29.051  22.078   3.532
65519W        W32060   6.258   6.324  12.732
65520W        W32061  19.420  19.327  13.417
65521W        W32062   2.715  26.464  13.097
65522W        W32063  23.486  41.456  14.308
65523W        W32064  27.463   3.689   2.780
65524W        W32065  25.019  31.004   1.973
65525W        W32066  33.080  31.036  12.329
65526W        W32067   9.229  28.177  13.449
65527W        W32068   4.406   4.493   3.729
65528W        W32069  32.869  29.625   3.659
65529W        W32070  20.255  26.318  14.361
65530W        W32071  11.832  32.194   0.822
65531W        W32072   8.639  27.114  12.580
65532W        W32073   4.615  35.717   3.807
65533W        W32074   7.587  19.033   1.797
65534W        W32075  29.902  38.471  13.261
65535W        W32076   1.181  17.921  12.939
65536W        W32077  34.432  17.088   4.687
65537W        W32078  30.495  17.988   2.140
65538W        W32079  27.608  15.520  11.941
65539W        W32080  20.648  25.505   4.243
65540W        W32081  35.989   8.613   0.290
65541W        W32082  17.505  14.060  11.874
65542W        W32083  18.473  35.586  14.270
65543W        W32084   9.036  41.931  13.581
65544W        W32085  29.950  43.587  11.654
65545W        W32086  32.525  15.791  13.847
65546W        W32087  12.064  16.824  13.473
65547W        W32088  12.494   4.026   1.260
65548W        W32089  22.630  18.744  11.282
65549W        W32090  39.818  14.616   3.220
65550W        W32091  36.022  30.186   0.400
65551W        W32092   6.328  39.033  12.614
65552W        W32093  29.315   5.773  14.422
65553W        W32094  31.992  40.535   4.992
65554W        W32095  24.267   8.596   4.069
65555W        W32096  17.599   1.053   0.769
65556W        W32097  16.366  23.140   4.567
65557W        W32098  18.269   9.540  13.768
65558W        W32099  26.418  35.167  12.125
65559W        W32100  24.265   9.233   3.649
65560W        W32101  40.697  35.485   0.591
65561W        W32102   7.632   5.844  14.323
65562W        W32103  14.453  27.155  10.579
65563W        W32104  11.638  14.290   1.864
65564W        W32105  32.434  31.781  11.905
65565W        W32106  13.251  30.939  14.080
65566W        W32107  42.774  25.663  11.113
65567W        W32108  17.597  15.700   0.228
65568W        W32109  43.469   0.962   0.451
65569W        W32110  42.495  26.164   1.884
65570W        W32111  40.000  34.949  10.709
65571W        W32112  33.343  32.833  12.928
65572W        W32113  26.839  30.082  12.923
65573W        W32114  38.339  36.671   0.882
65574W        W32115  41.520  18.701   3.247
65575W        W32116  20.593   3.020  12.641
65576W        W32117  21.126   8.106  13.565
65577W        W32118  10.254   2.437  10.944
65578W        W32119   7.591  14.134  10.761
65579W        W32120   6.224  43.289   2.010
65580W        W32121   9.574   1.024   1.759
65581W        W32122  39.531  21.200  13.137
65582W        W32123  13.914  35.424   3.701
65583W        W32124  27.548  12.850   0.366
65584W        W32125  17.098  37.092   1.171
65585W        W32126  40.547  14.156   0.844
65586W        W32127  44.272  36.078  12.274
65587W        W32128  39.520   2.304  13.940
65588W        W32129  24.832  29.206  11.650
65589W        W32130  30.740  33.539   2.714
65590W        W32131  24.541  17.671   1.296
65591W        W32132  36.225  31.854   5.014
65592W        W32133  11.430  28.676   4.795
65593W        W32134  41.307  34.039  11.692
65594W        W32135  34.480  23.916   1.792
65595W        W32136  40.545  37.437  11.842
65596W        W32137   0.526  21.291  11.054
65597W        W32138  16.997  26.628   2.364
65598W        W32139  29.387   1.623  11.158
65599W        W32140  22.078  10.314   0.689
65600W        W32141  10.106  28.093   5.432
65601W        W32142  24.977  36.357  11.844
65602W        W32143  35.884  23.734  14.909
65603W        W32144  33.845  15.358  10.199
65604W        W32145  11.758  34.936  12.665
65605W        W32146  16.801  40.794   2.865
65606W        W32147  20.153  44.682   1.375
65607W        W32148  31.919  26.702  14.908
65608W        W32149  35.331  43.891   2.824
65609W        W32150  37.870  20.147   3.087
65610W        W32151  43.696  32.416   4.344
65611W        W32152  10.842  40.508   4.914
65612W        W32153  13.546  11.186   4.302
65613W        W32154  20.355   5.198  12.998
65614W        W32155  28.814   8.635  11.967
65615W        W32156  12.999  35.992  10.490
65616W        W32157  31.113  42.908  11.062
65617W        W32158   5.785   8.413  11.998
65618W        W32159   0.883  21.465   3.756
65619W        W32160  39.048  11.949   2.511
65620W        W32161  25.274  32.361  14.080
65621W        W32162   1.059   6.175   2.293
65622W        W32163  31.983  31.512  12.619
65623W        W32164  11.372  37.025   3.214
65624W        W32165  32.248  39.023  12.056
65625W        W32166   8.922   6.503   4.620
65626W        W32167  44.926  41.876  10.760
65627W        W32168  12.472  27.196  14.954
65628W        W32169  33.531  12.671  11.891
65629W        W32170  25.498  13.820  10.463
65630W        W32171   8.648  25.690  12.394
65631W        W32172   6.915  24.847  10.656
65632W        W32173  13.340  28.641   1.830
65633W        W32174  38.969  36.090   2.656
65634W        W32175  38.004   7.094  11.133
65635W        W32176  31.722  20.069  14.871
65636W        W32177  36.047  15.767  14.651
65637W        W32178  34.976  44.529   3.584
65638W        W32179   3.325  31.630   3.086
65639W        W32180  19.201  42.219   0.416
65640W        W32181   4.380  40.047   2.603
65641W        W32182   3.246  23.779  11.728
65642W        W32183  18.857  44.322   4.852
65643W        W32184  25.181   2.928   4.790
65644W        W32185   1.377   4.914   3.284
65645W        W32186  18.031  22.476  13.375
65646W        W32187  25.564  40.777   4.637
65647W        W32188  30.876  39.553   2.596
65648W        W32189  22.553   2.696   5.033
65649W        W32190  18.709  31.429   3.880
65650W        W32191  13.115  23.960  12.067
65651W        W32192  10.235   3.696  10.133
65652W        W32193  29.107  38.834   1.668
65653W        W32194   1.978  37.023  10.438
65654W        W32195   5.624  40.383   3.808
65655W        W32196   6.072  22.992   4.990
65656W        W32197  33.156  15.028   4.158
65657W        W32198  13.699   7.628   1.825
65658W        W32199  13.357  24.171  12.486
65659W        W32200  20.335  36.972  13.061
65660W        W32201  10.140  29.555  10.745
65661W        W32202   2.831  42.826  14.002
65662W        W32203  42.031  30.715  13.960
65663W        W32204  36.147  33.429   1.201
65664W        W32205  17.589  18.215  14.195
65665W        W32206  28.393  38.419   1.302
65666W        W32207  15.322  23.950  12.032
65667W        W32208  16.571   8.914  12.916
65668W        W32209  10.342  42.612   4.921
65669W        W32210  38.794  40.323  10.126
65670W        W32211  22.865   8.790   2.175
65671W        W32212  40.550  41.078  12.032
65672W        W32213  44.611  37.123  12.140
65673W        W32214   2.133  40.811  13.480
65674W        W32215  29.314  35.846  13.176
65675W        W32216   9.487  34.315   0.394
65676W        W32217  19.293  12.863   3.603
65677W        W32218   6.245  44.667  10.694
65678W        W32219  29.005  31.473  14.667
65679W        W32220  11.112  18.172  11.233
65680W        W32221  40.411  42.266   0.936
65681W        W32222  11.480  38.728  14.565
65682W        W32223   0.007  26.198   3.392
65683W        W32224  30.417  38.917  11.590
65684W        W32225  35.696  20.543   1.692
65685W        W32226  25.320   6.166  13.404
65686W        W32227  10.414  44.525   2.353
65687W        W32228  25.704  15.289   3.917
65688W        W32229  40.389  16.556   0.974
65689W        W32230  36.340  44.629  11.586
65690W        W32231  22.710  29.977   1.726
65691W        W32232  10.628  37.510  12.164
65692W        W32233  18.823  44.990  11.147
65693W        W32234  25.625   3.417  12.520
65694W        W32235  29.147  24.993   0.492
65695W        W32236  29.651  10.836  11.978
65696W        W32237  32.040  43.728  10.648
65697W        W32238  33.086  35.480   1.155
65698W        W32239   8.652   7.563   4.065
65699W        W32240  33.418  30.056  14.250
65700W        W32241   1.287  41.796   0.687
65701W        W32242  37.950  33.547   3.132
65702W        W32243  32.678   7.186   1.673
65703W        W32244  39.897  35.414  13.651
65704W        W32245   4.322   5.231  11.607
65705W        W32246  27.375  26.520   1.829
65706W        W32247  43.322  42.513   0.478
65707W        W32248  17.862   5.511   2.199
65708W        W32249   9.196  19.808   4.037
65709W        W32250  44.904  39.949  11.078
65710W        W32251  34.145  12.275   1.867
65711W        W32252  12.729  21.726  12.479
65712W        W32253  18.342  38.999  14.116
65713W        W32254  23.249   8.051  12.317
65714W        W32255  11.699   0.666   4.083
65715W        W32256   9.997  24.181   1.776
65716W        W32257   2.837  18.685  11.457
65717W        W32258  29.991  34.096   4.692
65718W        W32259  13.601  23.187   1.723
65719W        W32260  22.135   9.982   1.096
65720W        W32261  16.984  13.654   1.060
65721W        W32262   2.455   4.695   0.030
65722W        W32263  15.823  28.512   3.155
65723W        W32264  39.585  17.817   2.718
65724W        W32265  30.051  16.646  11.674
65725W        W32266  41.801  22.671   0.606
65726W        W32267   3.443  26.603   0.726
65727W        W32268  33.392  28.669  11.108
65728W        W32269  42.155  36.125   4.969
65729W        W32270  21.145   4.144  10.463
65730W        W32271   3.751   4.924  12.447
65731W        W32272  28.991  26.632  14.013
65732W        W32273  17.641   9.863  13.102
65733W        W32274  13.029   0.087   3.957
65734W        W32275   8.301  24.941  12.857
65735W        W32276  21.240  18.329  12.994
65736W        W32277  14.086   5.550   4.605
65737W        W32278   0.465  30.881   1.835
65738W        W32279  11.713   7.706  13.795
65739W        W32280  33.025  38.335  10.451
65740W        W32281  11.835  42.947  14.823
65741W        W32282  17.162  16.607   0.994
65742W        W32283  15.275  44.144  11.677
65743W        W32284   8.687   8.827  10.976
65744W        W32285   2.660  10.374   1.903
65745W        W32286  41.930  28.734  12.948
65746W        W32287   2.258   6.003  12.572
65747W        W32288  26.523  19.068   3.765
65748W        W32289  16.064  25.073  13.152
65749W        W32290  29.635   0.514   3.853
65750W        W32291  37.316  26.029   4.881
65751W        W32292   6.795   9.184   3.409
65752W        W32293   6.329  15.051   4.592
65753W        W32294  11.344  44.250   1.761
65754W        W32295   8.928  36.392   1.739
65755W        W32296  44.998  25.505  13.931
65756W        W32297  13.342   5.271   1.757
65757W        W32298   0.154  29.752   3.141
65758W        W32299  21.610  21.283   3.258
65759W        W32300  16.584  17.926   4.144
65760W        W32301  13.211  30.529   1.504
65761W        W32302  22.062  13.660   0.954
65762W        W32303  24.460  21.813  14.941
65763W        W32304   9.257   5.275   4.517
65764W        W32305   7.364  21.627  11.513
65765W        W32306  42.816  27.531   4.067
65766W        W32307  18.383  26.778   0.654
65767W        W32308  25.721  18.685  11.508
65768W        W32309   6.152  13.236  11.468
65769W        W32310  18.762  25.363   1.614
65770W        W32311  26.856  26.579   1.757
65771W        W32312   7.815  13.554   3.652
65772W        W32313   5.988  18.634  13.027
65773W        W32314  39.111  22.687   3.767
65774W        W32315  18.296  19.590   4.721
65775W        W32316  14.177  15.264  13.116
65776W        W32317  22.587  23.636   0.515
65777W        W32318  15.584  13.588   4.160
65778W        W32319   3.317  44.273   0.913
65779W        W32320  37.392   7.813   3.875
65780W        W32321   7.717  20.009  13.928
65781W        W32322   2.418  26.926  14.797
65782W        W32323   8.101  33.866   1.703
65783W        W32324  28.465   4.682   2.061
65784W        W32325  33.404  39.059   3.287
65785W        W32326  22.640   5.105   0.421
65786W        W32327  44.374  42.734  10.566
65787W        W32328  33.389   0.525   3.287
65788W        W32329  32.588  18.072   2.413
65789W        W32330  25.536   9.376   0.941
65790W        W32331  39.908  17.734   4.895
65791W        W32332  41.943   2.027   2.712
65792W        W32333  18.967  33.336  14.830
65793W        W32334   6.355   7.790  13.993
65794W        W32335   8.846  34.652  12.502
65795W        W32336   1.469  35.769  12.879
65796W        W32337  33.387  31.505  14.827
65797W        W32338  11.562  36.172  10.278
65798W        W32339  31.815   3.974  10.880
65799W        W32340   5.242  18.677  13.337
65800W        W32341  44.951  31.066   4.524
65801W        W32342  25.106  16.987   4.051
65802W        W32343  24.103  37.508  10.980
65803W        W32344  31.502  21.177  13.636
65804W        W32345  11.138   0.945  12.764
65805W        W32346  13.827   4.854   2.775
65806W        W32347  33.567  44.195  11.045
65807W        W32348   5.940  19.131   1.662
65808W        W32349  13.632  19.926   2.779
65809W        W32350  37.875  10.868  12.495
65810W        W32351  21.074  44.356   3.651
65811W        W32352  15.555  41.507  13.885
65812W        W32353  41.960  36.522   3.627
65813W        W32354  27.194   1.897   2.288
65814W        W32355  30.193  28.615   3.832
65815W        W32356  15.901  17.308  12.398
65816W        W32357  21.334  31.947   2.247
65817W        W32358   7.959   6.840   1.341
65818W        W32359  43.616  32.047  13.243
65819W        W32360  40.026  21.948   0.676
65820W        W32361  14.767  28.034   0.537
65821W        W32362  40.367  39.308   3.711
65822W        W32363  30.376   3.265   2.829
65823W        W32364   7.464  30.075  11.837
65824W        W32365  11.422  40.042   2.648
65825W        W32366  29.978  12.319  14.232
65826W        W32367  39.953  37.931   2.361
65827W        W32368  15.262  31.178  13.409
65828W        W32369   8.823  44.713  13.896
65829W        W32370  38.494  10.402   2.616
65830W        W32371  44.042  26.338   3.544
65831W        W32372  42.438  25.806   0.916
65832W        W32373   6.283  15.082   4.092
65833W        W32374  17.668  25.979   4.219
65834W        W32375  42.196  44.881  12.461
65835W        W32376   4.688   9.713   4.161
65836W        W32377  29.528  13.349   2.010
65837W        W32378  29.738   8.761  10.281
65838W        W32379  44.872   4.212   0.421
65839W        W32380  26.004   5.102  11.143
65840W        W32381  12.433   6.224  11.959
65841W        W32382  21.653  28.661  12.504
65842W        W32383  35.861  14.562   0.851
65843W        W32384  16.758  22.083   3.696
65844W        W32385  44.933  36.653  13.926
65845W        W32386  35.800  23.064   2.688
65846W        W32387  32.400  31.510  12.339
65847W        W32388  22.254  33.627  11.494
65848W        W32389  10.779  18.513   4.651
65849W        W32390   3.469  31.559  14.866
65850W        W32391  42.811   6.426  13.755
65851W        W32392  38.575  10.976  11.997
65852W        W32393  37.298   9.332   3.325
65853W        W32394  36.311  26.662  11.458
65854W        W32395   0.532  16.718  13.845
65855W        W32396  43.081  24.664   0.787
65856W        W32397  25.703  24.977   3.192
65857W        W32398   6.229   4.774  14.371
65858W        W32399  41.341  31.938  13.784
65859W        W32400  27.005  21.183  13.947
65860W        W32401  43.563  41.731   0.035
65861W        W32402  32.635  20.612   1.657
65862W        W32403  17.409  42.109   1.927
65863W        W32404  39.810  40.501  12.974
65864W        W32405  14.705  39.471   0.478
65865W        W32406   2.862  30.969   3.639
65866W        W32407  23.156  23.237  14.433
65867W        W32408  24.413  44.855   2.011
65868W        W32409  26.943  37.508   2.738
65869W        W32410   0.701   3.514  12.474
65870W        W32411  18.707   3.852   0.261
65871W        W32412   5.124  11.634  11.607
65872W        W32413   7.529  29.493  10.776
65873W        W32414  15.798   1.514   4.295
65874W        W32415  15.082  26.768   2.595
65875W        W32416  10.652  22.151   4.554
65876W        W32417   4.376  14.608  13.304
65877W        W32418  37.328  34.691   4.558
65878W        W32419  34.086  44.867   4.040
65879W        W32420   0.713  26.467  14.467
65880W        W32421   7.175  40.382   1.764
65881W        W32422  19.133  37.048   4.657
65882W        W32423  40.401  44.474   1.345
65883W        W32424   7.351  20.249  12.981
65884W        W32425  43.033   5.370   1.397
65885W        W32426  22.079  14.820   1.580
65886W        W32427   4.648  22.978   3.176
65887W        W32428  15.646   9.229  10.677
65888W        W32429  17.114   1.933  12.972
65889W        W32430  41.713   3.463  13.997
65890W        W32431  36.589  38.586  10.767
65891W        W32432  29.621  27.809  13.900
65892W        W32433  25.075  15.637  12.534
65893W        W32434  18.771  42.297   0.730
65894W        W32435   5.338  28.506   1.955
65895W        W32436  38.955   4.964   0.397
65896W        W32437   4.716  13.071  12.802
65897W        W32438  30.532  11.001  10.187
65898W        W32439  42.021  26.494   3.155
65899W        W32440  38.879  16.028   1.356
65900W        W32441  22.128  17.063  14.263
65901W        W32442   4.160  30.694  14.289
65902W        W32443   0.594  13.034  12.935
65903W        W32444  11.586  43.522  12.959
65904W        W32445   9.267  17.369  11.993
65905W        W32446  18.190  12.807   2.796
65906W        W32447  36.572   0.794  12.906
65907W        W32448   3.747  35.990   5.156
65908W        W32449   9.802   1.763  10.963
65909W        W32450   5.308  20.712   3.274
65910W        W32451  32.380  40.427   1.228
65911W        W32452  18.296  17.782   4.246
65912W        W32453  41.611  34.941   4.772
65913W        W32454  10.314  39.395   1.144
65914W        W32455  44.550  21.073  13.856
65915W        W32456  33.163  20.247  11.178
65916W        W32457   5.793  31.791  12.808
65917W        W32458  14.140  18.812  12.178
65918W        W32459  22.206  33.141   2.208
65919W        W32460  24.694   1.703   0.312
65920W        W32461  33.349  40.835   1.956
65921W        W32462  15.548  15.341  10.119
65922W        W32463  33.300   4.518   3.618
65923W        W32464  37.029  33.215   0.925
65924W        W32465  16.659  32.774   4.044
65925W        W32466  19.352  39.998  14.721
65926W        W32467  14.230  23.049  13.374
65927W        W32468  37.480   8.761   1.851
65928W        W32469  20.464  28.450  11.536
65929W        W32470  35.567  18.754  13.806
65930W        W32471  32.061  25.035   0.981
65931W        W32472  22.594   7.254  13.366
65932W        W32473  33.603  21.946   1.838
65933W        W32474  43.776  27.732   0.821
65934W        W32475  31.517  31.063   4.180
65935W        W32476  21.587   0.000   1.423
65936W        W32477  25.487   4.934  13.848
65937W        W32478  38.332  26.177  10.924
65938W        W32479  29.138  17.470   1.643
65939W        W32480  41.313  17.078  11.906
65940W        W32481   8.339  16.094  13.564
65941W        W32482  20.765  27.124   4.723
65942W        W32483  40.263  36.679  13.990
65943W        W32484  25.648  19.264   2.665
65944W        W32485  33.095  35.089   1.476
65945W        W32486  12.333  17.608   2.943
65946W        W32487   1.824  44.733   1.098
65947W        W32488  19.093  42.015  14.021
65948W        W32489  39.444   4.713   2.821
65949W        W32490  22.911  42.820  13.596
65950W        W32491  38.150  22.026   3.127
65951W        W32492   2.707   4.743   1.627
65952W        W32493  38.947  18.399  13.689
65953W        W32494   7.215  42.295   3.176
65954W        W32495  38.858   9.880  11.606
65955W        W32496  11.891   7.932   1.730
65956W        W32497   2.050  35.513  12.462
65957W        W32498  10.725  33.874   2.182
65958W        W32499  20.031  37.919  12.621
65959W        W32500  13.123  38.339  14.960
65960W        W32501  13.355  40.798   0.354
65961W        W32502  39.988  39.953   0.726
65962W        W32503  41.516  18.738  10.685
65963W        W32504  40.110  23.644  13.388
65964W        W32505  29.206  35.859  14.468
65965W        W32506  26.512  42.514  12.893
65966W        W32507  31.118  36.536  11.945
65967W        W32508  39.696  41.097   0.233
65968W        W32509  39.559  17.678  14.335
65969W        W32510  15.395  18.830  13.881
65970W        W32511  37.833   9.399   4.048
65971W        W32512  16.119   5.333   4.630
65972W        W32513  42.956  35.807   0.909
65973W        W32514  42.328  32.668  12.452
65974W        W32515  13.820  34.370  11.354
65975W        W32516  33.039  11.532   1.343
65976W        W32517  40.435   7.831  11.639
65977W        W32518   8.693  27.246   1.260
65978W        W32519  13.412  34.414   4.708
65979W        W32520   4.702  38.087   2.717
65980W        W32521  33.873   0.407   1.841
65981W        W32522  19.896   5.375  11.085
65982W        W32523  36.868  36.916   1.640
65983W        W32524  31.824  11.833   3.167
65984W        W32525  10.152  33.693  11.957
65985W        W32526   6.690  12.705   0.023
65986W        W32527  11.240  21.040  13.355
65987W        W32528  24.003  10.620   3.580
65988W        W32529  13.718  43.276  13.896
65989W        W32530  39.088  13.002   2.213
65990W        W32531   2.287  10.936  13.474
65991W        W32532  31.761   3.445   4.077
65992W        W32533  33.806  31.458   2.817
65993W        W32534   3.454   6.268  11.240
65994W        W32535  40.641   6.280   5.096
65995W        W32536  37.211  30.970  11.206
65996W        W32537  14.404  40.244  12.063
65997W        W32538  23.256  26.660  14.458
65998W        W32539  26.681   0.556   1.870
65999W        W32540  23.036  33.999  14.817
66000W        W32541  27.082  40.333   2.160
66001W        W32542  22.495  21.085  11.699
66002W        W32543   0.835   9.911   1.701
66003W        W32544  22.719  28.663   2.040
66004W        W32545  21.663  32.681   4.377
66005W        W32546  40.871  11.062   0.280
66006W        W32547  36.797  22.931  11.576
66007W        W32548  36.836  31.367  14.321
66008W        W32549  32.049  37.852  11.521
66009W        W32550   4.917  17.059   2.361
66010W        W32551   7.700  27.171  14.878
66011W        W32552  23.224  17.737   1.649
66012W        W32553  17.597  29.515   4.292
66013W        W32554  40.592  15.083  12.515
66014W        W32555  42.757  44.553  13.809
66015W        W32556  34.640  10.993   0.257
66016W        W32557   2.253  38.855   1.390
66017W        W32558  22.618   6.777  14.224
66018W        W32559  28.335  22.350  12.179
66019W        W32560  17.276  36.360  14.790
66020W        W32561  39.076  29.984   2.872
66021W        W32562   3.942  31.519   3.765
66022W        W32563  20.034  22.076  11.876
66023W        W32564  14.974  15.333  14.786
66024W        W32565  23.575  34.868  11.527
66025W        W32566   1.894  42.770  12.579
66026W        W32567  10.788   0.017  14.934
66027W        W32568  32.937  16.805   4.578
66028W        W32569  39.220  39.068  14.500
66029W        W32570  13.653   4.763   4.616
66030W        W32571  15.327  13.781  11.630
66031W        W32572  37.965   2.488  10.023
66032W        W32573  18.201  25.560  12.508
66033W        W32574  42.759  17.918  12.660
66034W        W32575  32.392  23.611   0.445
66035W        W32576  19.573  10.421   1.905
66036W        W32577  39.984   3.852   2.403
66037W        W32578   4.530   1.857  13.411
66038W        W32579  28.060  15.059  12.256
66039W        W32580  27.222  23.586   0.221
66040W        W32581  14.370  42.324  11.514
66041W        W32582  10.242  32.042   2.878
66042W        W32583  21.897  18.613  14.804
66043W        W32584  14.771  44.882  13.269
66044W        W32585  30.065  30.668  14.866
66045W        W32586  21.309  14.137   4.934
66046W        W32587  15.862  38.533  11.504
66047W        W32588  37.339  23.687   0.548
66048W        W32589  22.829  31.571   0.867
66049W        W32590  13.514  39.884  12.181
66050W        W32591  23.519  31.212   4.542
66051W        W32592  20.776  22.041  14.023
66052W        W32593  16.063  43.595   2.775
66053W        W32594  21.571  15.696   0.430
66054W        W32595  28.507  24.628  11.896
66055W        W32596   8.891  20.069  11.622
66056W        W32597  15.126  25.160  12.078
66057W        W32598  37.997  13.863   1.200
66058W        W32599   8.448  17.924   4.081
66059W        W32600  29.000  21.626   4.950
66060W        W32601  22.440  14.199   3.219
66061W        W32602  25.085  19.548   3.425
66062W        W32603  23.156   7.945   3.227
66063W        W32604  11.283  42.250   2.773
66064W        W32605  42.284  42.823   0.897
66065W        W32606  27.545   8.359  14.464
66066W        W32607  23.598   3.826  10.977
66067W        W32608  19.993   4.411  11.372
66068W        W32609  41.878  20.551  12.075
66069W        W32610  25.192  22.204  14.023
66070W        W32611  10.505   6.759  11.934
66071W        W32612  19.618  38.042   3.580
66072W        W32613  13.686  24.957  14.722
66073W        W32614  39.240  43.330  13.163
66074W        W32615   3.513  34.377  12.438
66075W        W32616  36.083  19.686   3.332
66076W        W32617   7.155  20.200   3.772
66077W        W32618  16.710  36.534   1.929
66078W        W32619   0.064  37.457   2.535
66079W        W32620   1.467  24.453   0.543
66080W        W32621  14.885  28.889   2.853
66081W        W32622  29.449  36.546   1.816
66082W        W32623  25.936   3.789   9.724
66083W        W32624  26.169   0.569   3.657
66084W        W32625  22.247  17.617  12.575
66085W        W32626  43.888  26.862   3.603
66086W        W32627  27.554   8.184   2.362
66087W        W32628  12.311  16.442  13.048
66088W        W32629  44.988  14.866   0.495
66089W        W32630  17.345   9.694  14.480
66090W        W32631  15.797  22.667  11.260
66091W        W32632  26.460   5.899   2.406
66092W        W32633  26.617  41.191  13.751
66093W        W32634  25.218   8.396  14.975
66094W        W32635  44.016  33.437  11.478
66095W        W32636  43.724   3.343  10.709
66096W        W32637  24.446  33.413  12.161
66097W        W32638   8.710  23.207  14.007
66098W        W32639  10.941  39.138   5.214
66099W        W32640   8.200  25.942  13.095
66100W        W32641   6.649   4.292  12.440
66101W        W32642  29.494   3.686   1.829
66102W        W32643  18.040  28.072   3.746
66103W        W32644  35.365  36.958  11.495
66104W        W32645  29.550  29.557   1.792
66105W        W32646  25.097  24.735  11.636
66106W        W32647   0.338  18.145  12.467
66107W        W32648  37.025  32.061   2.378
66108W        W32649  41.827  29.218  14.444
66109W        W32650  14.179  14.900   1.892
66110W        W32651   7.574  33.762  11.128
66111W        W32652  21.294  29.646   2.332
66112W        W32653  40.879   4.639  12.882
66113W        W32654   7.476  11.671  13.146
66114W        W32655  13.092  38.362  12.468
66115W        W32656  24.877   2.973   1.401
66116W        W32657  38.927  19.541   2.172
66117W        W32658  11.764  42.068  12.996
66118W        W32659  17.937  22.999   1.946
66119W        W32660   3.056  19.766   0.607
66120W        W32661  14.172   4.968  14.198
66121W        W32662   6.750   7.929   2.030
66122W        W32663  42.961  29.752   2.420
66123W        W32664  24.319   4.150  11.203
66124W        W32665  36.619  23.082   0.935
66125W        W32666  10.603  22.374  13.993
66126W        W32667   6.433  28.918   3.889
66127W        W32668  36.669  33.410   1.259
66128W        W32669  18.064   7.675  12.895
66129W        W32670  32.792   9.429  13.012
66130W        W32671   4.331  43.555   4.245
66131W        W32672  25.042  12.548  14.946
66132W        W32673   2.406  25.749  13.043
66133W        W32674   2.322  23.811  11.701
66134W        W32675  42.891  29.919   4.084
66135W        W32676  42.790   6.708   3.880
66136W        W32677  15.865   9.275  12.012
66137W        W32678  41.948  27.465  12.449
66138W        W32679  25.961  29.895  12.414
66139W        W32680  11.599   3.717  14.359
66140W        W32681  26.535  41.973  14.735
66141W        W32682  20.558  36.602   2.782
66142W        W32683  26.092  39.549  13.447
66143W        W32684  17.800  32.457   1.780
66144W        W32685  10.083  13.329   3.257
66145W        W32686   0.744  43.990  10.750
66146W        W32687   1.040   0.722  12.915
66147W        W32688   7.709  31.898  11.523
66148W        W32689  33.483  36.369   1.703
66149W        W32690  34.048  38.303  13.020
66150W        W32691  10.435  30.994   0.260
66151W        W32692  29.898  24.251  12.041
66152W        W32693   2.220  25.163   3.900
66153W        W32694   5.616  36.667  11.063
66154W        W32695  30.059  17.507  11.086
66155W        W32696  43.260  34.947   0.417
66156W        W32697  17.598  29.526   2.742
66157W        W32698   7.165   3.679  14.664
66158W        W32699  23.099  32.027   1.004
66159W        W32700  10.646   5.840  12.568
66160W        W32701  34.424  28.227  13.947
66161W        W32702  24.755  21.596   0.310
66162W        W32703  27.704  23.337   0.942
66163W        W32704  22.321  18.412  11.922
66164W        W32705  37.924  12.071  13.408
66165W        W32706  36.778  36.999   1.143
66166W        W32707  20.561  41.869   0.680
66167W        W32708   8.779  18.711   0.721
66168W        W32709   2.938  39.421   0.293
66169W        W32710  10.194  11.692  14.491
66170W        W32711   3.221  35.127   1.866
66171W        W32712  41.956  26.658   5.229
66172W        W32713  25.044  33.535   2.567
66173W        W32714   5.407  27.062   3.225
66174W        W32715  26.503  35.557   0.703
66175W        W32716  32.517  37.562   0.423
66176W        W32717   1.524  44.690  14.290
66177W        W32718  35.529  26.030  10.747
66178W        W32719  22.630  36.846   2.309
66179W        W32720  39.313  31.014  13.503
66180W        W32721  36.125   1.957  14.062
66181W        W32722  34.631  28.962   0.842
66182W        W32723  15.454   3.905  14.496
66183W        W32724  31.777  41.256  11.639
66184W        W32725  37.735  41.949  13.546
66185W        W32726   9.416  21.030   0.322
66186W        W32727  10.681   5.687   0.214
66187W        W32728  27.493  41.264   0.447
66188W        W32729  36.974  35.381   4.781
66189W        W32730  27.588  40.461   4.395
66190W        W32731  14.760  40.999  14.487
66191W        W32732  36.767  23.213  11.165
66192W        W32733  10.106  16.717   3.643
66193W        W32734   6.412  40.470  12.031
66194W        W32735   5.711   0.716  12.072
66195W        W32736  19.757  23.097  12.083
66196W        W32737  43.551  35.393   2.346
66197W        W32738  13.108  21.058  14.655
66198W        W32739  22.749  15.372   2.918
66199W        W32740  44.755  22.512  14.979
66200W        W32741  16.231  21.652  12.009
66201W        W32742  32.992  21.604   4.820
66202W        W32743   8.304   3.858  10.561
66203W        W32744  33.441  17.612   1.752
66204W        W32745  15.740   0.793  13.869
66205W        W32746  44.003  37.172   4.554
66206W        W32747   4.506  44.840   3.503
66207W        W32748  39.896  32.018   1.235
66208W        W32749  18.577   8.384   0.350
66209W        W32750  42.349  27.821   0.503
66210W        W32751  33.094  14.784   2.249
66211W        W32752  24.142  37.818   1.610
66212W        W32753  19.189  22.957  11.144
66213W        W32754   2.326  23.764   1.703
66214W        W32755  17.109  29.218   1.894
66215W        W32756   5.465  15.991  12.979
66216W        W32757  12.380   0.241  12.233
66217W        W32758  10.429  40.501   2.263
66218W        W32759   2.671  21.594   4.158
66219W        W32760  32.110  37.318   1.284
66220W        W32761  15.869  12.600  12.019
66221W        W32762  40.386  36.690   4.652
66222W        W32763  29.688  43.090   0.763
66223W        W32764   9.738  38.750  11.543
66224W        W32765  16.155  11.576  14.425
66225W        W32766   6.050  26.722   2.800
66226W        W32767  37.095  27.181  13.911
66227W        W32768  34.860  44.602   1.283
66228W        W32769  21.307   1.762   3.249
66229W        W32770  36.322  23.111  10.415
66230W        W32771   9.602  28.108   0.396
66231W        W32772  10.947  42.863   1.414
66232W        W32773   3.496  44.635   4.121
66233W        W32774  33.108  12.101  12.862
66234W        W32775  14.941  14.964   0.188
66235W        W32776  34.900   6.084   0.793
66236W        W32777  44.259  27.478  11.106
66237W        W32778  26.879  41.320   4.781
66238W        W32779  38.586  12.667   1.446
66239W        W32780   0.440  37.101  11.600
66240W        W32781  43.355   4.749   2.779
66241W        W32782  16.147   7.336  10.693
66242W        W32783  43.325   7.860   3.151
66243W        W32784  26.630  20.986  10.995
66244W        W32785  25.162  37.375   2.150
66245W        W32786  44.910  32.135   1.892
66246W        W32787  43.380  30.678   4.092
66247W        W32788  44.563  42.796  14.703
66248W        W32789  16.198  28.642  14.565
66249W        W32790  29.463  17.194  14.707
66250W        W32791  44.949  44.480  10.613
66251W        W32792   2.217  21.432  11.738
66252W        W32793  21.923   5.185   2.764
66253W        W32794  11.920  37.380   3.662
66254W        W32795  33.616  43.174  11.922
66255W        W32796  18.179  17.570   1.173
66256W        W32797  15.561  26.052  14.487
66257W        W32798  16.778  40.128  12.909
66258W        W32799   9.877   0.828  11.150
66259W        W32800  16.581  15.536   4.272
66260W        W32801  10.121  12.726   4.612
66261W        W32802  34.951  17.229  10.486
66262W        W32803  23.108   1.550  12.530
66263W        W32804   9.014  38.098   1.234
66264W        W32805  37.804   0.374   2.693
66265W        W32806  33.632  20.105   3.882
66266W        W32807  24.663  24.922   0.931
66267W        W32808  24.045   8.238  14.483
66268W        W32809  19.752  13.760   1.342
66269W        W32810  30.418   8.928  13.469
66270W        W32811  34.431  40.065   0.862
66271W        W32812  20.170  21.633   4.288
66272W        W32813  39.425  14.116   2.656
66273W        W32814  27.471  31.582  14.549
66274W        W32815  33.123  24.605  11.604
66275W        W32816  40.297  37.257   4.615
66276W        W32817  39.673  11.718   1.713
66277W        W32818   8.908  41.552  11.145
66278W        W32819  31.820  15.651  14.937
66279W        W32820  26.971  15.404   0.958
66280W        W32821   6.281  29.001   3.384
66281W        W32822   4.419  20.342  10.449
66282W        W32823   4.436  23.551   0.197
66283W        W32824  20.788  28.095   2.422
66284W        W32825  27.489   1.005   2.329
66285W        W32826  38.428  30.888   1.663
66286W        W32827  19.656  12.697   3.286
66287W        W32828  10.137   3.716   1.768
66288W        W32829  17.124  23.122   0.823
66289W        W32830  15.756   7.470   3.180
66290W        W32831  34.482  38.457   2.583
66291W        W32832  19.385  25.006   3.522
66292W        W32833   0.734  28.509  11.546
66293W        W32834  37.742  38.780  14.312
66294W        W32835   7.990  39.354  14.305
66295W        W32836  23.031  23.735  14.316
66296W        W32837  23.569  30.465  10.657
66297W        W32838  14.355  14.686   1.426
66298W        W32839   3.006  28.730   1.428
66299W        W32840  23.723  22.223  11.768
66300W        W32841  32.726  14.564   4.707
66301W        W32842  16.136  17.753   3.912
66302W        W32843  36.107   4.373  12.106
66303W        W32844  39.664  19.621   4.216
66304W        W32845   1.219  11.264  11.961
66305W        W32846  32.752  19.567  10.741
66306W        W32847   9.889  27.960   0.817
66307W        W32848  32.686  40.409   3.353
66308W        W32849   7.764  20.814  13.354
66309W        W32850  26.624   8.387   2.216
66310W        W32851  26.029  40.784   4.893
66311W        W32852  26.928  35.210  12.183
66312W        W32853   0.516  19.140  12.005
66313W        W32854  31.431  15.260  12.469
66314W        W32855  16.566  25.054  13.919
66315W        W32856  10.345  43.068  12.366
66316W        W32857  41.534   1.221   3.657
66317W        W32858  25.610  42.951   2.167
66318W        W32859  11.959  39.347  13.400
66319W        W32860   1.426  22.046  14.531
66320W        W32861   0.235   0.764   1.842
66321W        W32862  35.083  41.020   4.671
66322W        W32863  40.742  31.532   0.084
66323W        W32864  41.575  19.589   3.620
66324W        W32865  13.070  40.432   0.906
66325W        W32866   1.415   0.968  12.601
66326W        W32867  18.510   2.601  14.631
66327W        W32868  26.525  26.396  12.201
66328W        W32869  33.960  10.432   1.957
66329W        W32870  23.580   3.886   0.834
66330W        W32871  32.919  43.414   4.349
66331W        W32872  19.201  36.559   1.526
66332W        W32873  43.495  25.105   1.657
66333W        W32874  20.059  33.992   2.746
66334W        W32875  26.631  19.789  13.012
66335W        W32876  35.158   4.096   5.145
66336W        W32877  10.372  19.043  11.493
66337W        W32878  24.540  41.150   0.018
66338W        W32879  24.252   0.534   4.107
66339W        W32880  30.403  18.639  12.205
66340W        W32881  16.987  43.841  14.374
66341W        W32882  13.670  11.818  14.520
66342W        W32883  41.101  17.407   3.739
66343W        W32884  42.604  40.737  11.440
66344W        W32885  11.779  39.486  13.872
66345W        W32886  36.228  20.370  14.437
66346W        W32887  32.568  27.236   0.350
66347W        W32888  21.509  38.511   1.167
66348W        W32889   6.409   1.124  13.984
66349W        W32890   2.957  37.540  13.096
66350W        W32891  37.707  19.142   1.596
66351W        W32892   4.376   3.553  13.601
66352W        W32893  14.406  26.256   0.904
66353W        W32894  43.023  19.129  14.232
66354W        W32895  14.678  33.336   0.022
66355W        W32896  31.557  23.728  10.725
66356W        W32897  42.963   8.220  14.182
66357W        W32898  16.313  29.527   1.836
66358W        W32899  13.915  27.137  12.039
66359W        W32900  32.561   4.173  13.931
66360W        W32901   6.090  17.795  13.902
66361W        W32902  28.107  43.348   2.307
66362W        W32903  36.655  26.782  11.089
66363W        W32904  14.241  40.559  13.320
66364W        W32905  30.337  22.106  14.243
66365W        W32906  42.927  12.657  11.374
66366W        W32907   7.763  36.865  14.020
66367W        W32908  12.183   6.776  12.852
66368W        W32909  33.134  10.480  12.023
66369W        W32910  22.303  42.917   4.181
66370W        W32911   6.645  38.179   4.656
66371W        W32912  14.610  25.387  14.869
66372W        W32913  30.721  10.655  13.830
66373W        W32914  19.584  38.057   3.069
66374W        W32915  23.072   1.834   0.288
66375W        W32916   9.785  25.146  12.968
66376W        W32917  14.121  19.582   2.165
66377W        W32918  24.740  39.582   2.370
66378W        W32919  34.458  18.063  12.500
66379W        W32920  11.715  12.464   2.709
66380W        W32921  27.334  31.150  11.040
66381W        W32922  36.450  20.762  14.162
66382W        W32923   1.884  18.579  10.984
66383W        W32924   4.825  30.397  11.910
66384W        W32925  38.695  39.056  14.515
66385W        W32926  41.824   6.495   1.065
66386W        W32927   7.315   3.823   1.867
66387W        W32928  24.526  18.126   1.821
66388W        W32929  11.642  17.067  12.755
66389W        W32930  35.523  21.341   0.839
66390W        W32931  13.678  40.411  14.223
66391W        W32932   6.767  29.108  14.070
66392W        W32933   6.908  31.891   2.382
66393W        W32934  39.398  35.242  13.772
66394W        W32935  27.402  21.025  11.477
66395W        W32936  15.667   2.935   1.681
66396W        W32937  11.682   7.958  12.356
66397W        W32938   5.954  18.618  12.241
66398W        W32939  27.236  42.421   2.725
66399W        W32940  22.493  19.987   4.266
66400W        W32941  33.580  31.257  13.988
66401W        W32942  27.492  40.273   3.474
66402W        W32943  43.260  29.167  12.955
66403W        W32944  32.107   9.889  13.200
66404W        W32945  20.135  24.835  14.282
66405W        W32946  42.073  27.906   4.880
66406W        W32947  16.624   4.702  14.843
66407W        W32948  17.761   8.798   0.809
66408W        W32949  29.391  21.060   1.282
66409W        W32950  23.201  40.300  10.665
66410W        W32951   7.711  11.837  13.805
66411W        W32952  13.705  11.663  13.592
66412W        W32953  40.248  40.508   3.204
66413W        W32954  26.937   3.056   3.811
66414W        W32955  44.853  21.760   2.331
66415W        W32956  21.161  15.455  11.116
66416W        W32957  13.274  21.108   5.238
66417W        W32958  13.160   8.249  14.770
66418W        W32959  19.222  11.683   3.739
66419W        W32960  13.617   8.297  13.320
66420W        W32961   0.296  13.695  14.723
66421W        W32962  28.600  44.278   2.173
66422W        W32963   6.207  38.270   4.088
66423W        W32964  12.251  15.304  11.031
66424W        W32965  42.789   0.301   1.266
66425W        W32966  24.221  30.123  10.597
66426W        W32967  33.964  37.922   3.717
66427W        W32968  41.823  32.807   0.989
66428W        W32969   2.711  20.738  14.047
66429W        W32970  34.562  24.138  11.187
66430W        W32971   9.634  34.963   2.721
66431W        W32972   5.883  44.523  13.076
66432W        W32973  37.938   6.605  11.022
66433W        W32974   5.301   6.151  10.609
66434W        W32975  44.427  10.307  10.447
66435W        W32976   3.019  17.971   3.709
66436W        W32977  23.198   6.116  12.025
66437W        W32978  29.965  26.672  12.435
66438W        W32979  38.984  19.078  12.090
66439W        W32980  25.936  34.886   2.763
66440W        W32981  41.926   7.223   3.648
66441W        W32982   8.376  10.313  11.626
66442W        W32983  36.587   6.619   4.487
66443W        W32984   3.981   4.225   3.859
66444W        W32985   3.672  27.791  12.318
66445W        W32986  35.743  30.360   2.011
66446W        W32987  40.439  16.677   4.480
66447W        W32988  33.132  10.278   1.308
66448W        W32989   8.795  41.800  10.685
66449W        W32990  41.777  14.244  12.083
66450W        W32991  34.388  34.845  10.290
66451W        W32992  28.804  16.876   3.194
66452W        W32993   3.910  16.768   0.869
66453W        W32994  34.624   5.750  12.173
66454W        W32995  41.997   2.541   2.730
66455W        W32996  24.283  32.818  11.763
66456W        W32997   8.154  25.533  12.124
66457W        W32998   6.532  10.185  10.962
66458W        W32999  43.894  14.337   2.746
66459W        W33000   3.426   0.721   5.585
66460W        W33001   3.772   1.806   4.012
66461W        W33002   1.706   3.799  11.166
66462W        W33003  14.129  41.905  13.129
66463W        W33004   0.286  40.480  14.037
66464W        W33005   2.725  10.262  11.575
66465W        W33006   4.910   8.497  10.713
66466W        W33007  23.348  40.362  14.799
66467W        W33008  11.041   5.742   3.381
66468W        W33009  41.321  20.378   4.945
66469W        W33010  26.922   1.784   2.729
66470W        W33011  17.123  43.098  12.467
66471W        W33012  30.117   3.891   4.436
66472W        W33013  27.586  23.536   2.890
66473W        W33014  26.669  35.586  11.958
66474W        W33015  38.042  17.493  10.668
66475W        W33016  34.786   8.145  13.830
66476W        W33017  29.957  32.444   0.809
66477W        W33018  34.890  18.510   3.763
66478W        W33019  30.717  37.442  11.294
66479W        W33020   6.803  42.787   0.367
66480W        W33021  41.659   3.528   2.677
66481W        W33022  18.224  19.665  10.691
66482W        W33023  30.028  42.821  12.621
66483W        W33024  17.835  25.999  13.534
66484W        W33025  39.937  36.382   4.573
66485W        W33026  12.605  39.362  10.561
66486W        W33027  38.141   2.024  10.204
66487W        W33028  30.139  40.499  13.401
66488W        W33029  15.281  43.097   0.756
66489W        W33030  20.240   2.374   2.913
66490W        W33031  38.562  11.094  10.698
66491W        W33032  43.464  36.206  14.827
66492W        W33033  20.337  21.635   1.500
66493W        W33034  24.435   6.262  14.618
66494W        W33035  44.055  34.458  14.348
66495W        W33036  24.018  20.667  14.461
66496W        W33037  26.796  28.036  13.154
66497W        W33038  33.582  38.674   1.231
66498W        W33039   5.437  42.064   0.007
66499W        W33040  41.465   1.762  10.747
66500W        W33041  18.208  20.096  10.405
66501W        W33042  37.553  25.586   5.009
66502W        W33043  24.645  35.861  10.427
66503W        W33044  39.729   8.860  10.692
66504W        W33045  34.319  25.113  11.596
66505W        W33046  43.847  20.375   1.967
66506W        W33047   8.081   1.934   2.859
66507W        W33048  14.329   1.274  13.464
66508W        W33049   5.408  38.431  10.151
66509W        W33050  22.409   8.925   3.805
66510W        W33051  24.260  40.099  13.382
66511W        W33052  30.085  38.998  12.471
66512W        W33053  26.453  22.120   2.777
66513W        W33054  11.219  34.048   4.828
66514W        W33055   7.920  35.067   1.737
66515W        W33056   4.853   9.737  12.533
66516W        W33057   7.749  32.355   3.103
66517W        W33058   6.917  37.575  14.158
66518W        W33059  20.239  29.644   3.747
66519W        W33060  14.878   0.724   0.538
66520W        W33061  41.941  21.613   2.636
66521W        W33062   4.736   1.750  13.941
66522W        W33063  43.810  19.798   1.060
66523W        W33064  20.220  36.145   1.301
66524W        W33065  28.527  19.245   3.334
66525W        W33066  14.151  37.888   3.101
66526W        W33067  25.444  26.751   1.916
66527W        W33068   5.813   6.839  12.106
66528W        W33069  19.732  14.644   3.067
66529W        W33070  23.975  12.244   3.756
66530W        W33071  31.023   1.944   2.482
66531W        W33072  25.857  32.509   1.316
66532W        W33073   9.921  20.895  13.119
66533W        W33074  11.364   2.961   4.735
66534W        W33075  15.546  21.928  12.706
66535W        W33076  17.557  38.387  13.828
66536W        W33077  20.746  25.445  12.952
66537W        W33078   2.114  41.202  13.120
66538W        W33079  25.770  41.351   2.786
66539W        W33080  24.710   8.516  12.516
66540W        W33081  33.437   3.610   2.805
66541W        W33082  28.712  43.041  14.977
66542W        W33083   3.961  40.910   1.154
66543W        W33084   0.696  20.819  13.100
66544W        W33085  24.769  24.426   0.975
66545W        W33086  21.236  41.431   2.507
66546W        W33087  28.741  14.769   3.929
66547W        W33088   4.368  19.346  10.777
66548W        W33089  43.774  30.198   4.631
66549W        W33090  22.209  19.838  12.950
66550W        W33091  23.993  10.072   1.207
66551W        W33092   8.700   1.985   2.226
66552W        W33093   5.126  22.522   4.768
66553W        W33094  42.291   7.627  13.810
66554W        W33095   1.667   4.686   4.121
66555W        W33096  32.092  24.626  12.985
66556W        W33097  10.994  24.029   4.522
66557W        W33098  41.273  36.332   1.793
66558W        W33099   8.370  25.095  13.356
66559W        W33100  22.682  33.904   0.190
66560W        W33101  15.556  17.798   2.223
66561W        W33102  34.103   3.173   3.757
66562W        W33103  35.303  15.245   2.997
66563W        W33104  14.612  38.253   0.819
66564W        W33105  21.272  25.002  13.953
66565W        W33106  35.980  26.688  12.385
66566W        W33107  19.167   0.003  14.418
66567W        W33108  16.172  41.040  12.479
66568W        W33109  16.629   3.158  10.412
66569W        W33110  24.660   4.988   4.057
66570W        W33111  40.071  38.897  12.586
66571W        W33112  35.445  32.914   2.320
66572W        W33113  36.780  37.522  12.867
66573W        W33114  12.306   3.275   0.816
66574W        W33115   3.539  22.097  11.970
66575W        W33116  22.522  43.827  13.308
66576W        W33117  10.455   7.246   3.790
66577W        W33118   3.743  39.075  12.960
66578W        W33119  36.605  26.684   2.583
66579W        W33120  12.266  38.824  11.721
66580W        W33121  10.640  20.336   1.385
66581W        W33122  22.943   4.590  11.190
66582W        W33123  18.118  15.443  14.454
66583W        W33124  31.462  26.928  12.856
66584W        W33125  39.447   2.964   1.211
66585W        W33126   2.537  35.495  10.964
66586W        W33127  10.165  24.083   1.249
66587W        W33128  19.671  34.096   3.668
66588W        W33129   7.838   4.345   3.952
66589W        W33130  27.656  26.742   3.689
66590W        W33131   0.426  39.973  13.395
66591W        W33132  21.184  37.615  11.604
66592W        W33133  15.847  38.807   4.091
66593W        W33134  30.471   4.627  12.915
66594W        W33135  33.087  13.523  11.070
66595W        W33136  22.154   2.176   4.814
66596W        W33137  24.556  30.355   4.065
66597W        W33138  24.020  31.672  10.981
66598W        W33139  44.423  14.015   0.668
66599W        W33140  36.829  17.167   3.738
66600W        W33141  22.199  27.135   1.447
66601W        W33142  27.053  35.910  12.901
66602W        W33143  34.065  28.207  13.157
66603W        W33144  11.259  13.186   0.497
66604W        W33145  21.052  35.177   4.529
66605W        W33146   8.409   3.263  12.969
66606W        W33147   1.360  11.207   0.823
66607W        W33148   2.050  25.043   1.255
66608W        W33149  27.972  18.539  14.832
66609W        W33150  12.581  34.053   4.948
66610W        W33151  40.440  21.427   1.395
66611W        W33152  13.821  10.746   4.134
66612W        W33153  31.629  20.070  11.214
66613W        W33154  16.154   4.247  12.894
66614W        W33155  28.940   7.023  10.556
66615W        W33156  34.298   3.348  14.952
66616W        W33157  26.803   3.825  12.083
66617W        W33158  13.230  33.112   3.201
66618W        W33159   1.292   0.071  14.896
66619W        W33160  27.073   5.963   1.860
66620W        W33161  12.206   6.991   4.201
66621W        W33162  21.457   1.806   0.365
66622W        W33163  29.624  29.345  13.882
66623W        W33164  43.122  29.625   1.937
66624W        W33165   2.682  12.839   2.711
66625W        W33166  28.289  38.999   1.401
66626W        W33167  20.530   0.891  14.521
66627W        W33168   6.464  26.933   1.718
66628W        W33169  40.119  20.821  11.179
66629W        W33170   1.408  28.301   2.633
66630W        W33171  13.366  28.894  12.806
66631W        W33172  42.536   1.302  12.367
66632W        W33173  25.235  13.191   5.348
66633W        W33174  39.446  16.269   2.652
66634W        W33175   5.266  21.161  14.395
66635W        W33176  15.157  40.649  12.327
66636W        W33177   4.441  12.435   0.402
66637W        W33178   9.193  32.094  13.811
66638W        W33179  13.764   4.626  10.769
66639W        W33180  17.998   0.416  11.742
66640W        W33181  27.936  36.543  11.937
66641W        W33182   4.162  14.371   3.901
66642W        W33183  10.286  43.766   2.777
66643W        W33184  18.700  34.822   3.775
66644W        W33185  37.952   8.887   1.669
66645W        W33186  25.431   7.463  12.982
66646W        W33187   1.722  32.964   3.288
66647W        W33188  10.132  44.974  11.206
66648W        W33189  35.009  39.977   4.822
66649W        W33190  11.070   4.785  10.986
66650W        W33191   6.929  23.961   4.090
66651W        W33192  18.525  32.163  12.544
66652W        W33193  39.835   9.808   2.626
66653W        W33194   6.916  41.481   3.392
66654W        W33195  18.668  24.250  13.337
66655W        W33196   5.285  25.740  12.088
66656W        W33197  35.321  43.082   4.094
66657W        W33198   4.238   3.075  14.955
66658W        W33199  33.062  41.780   4.602
66659W        W33200   8.669  19.227   2.864
66660W        W33201   8.368  18.186   3.637
66661W        W33202  17.255  17.593  11.377
66662W        W33203  11.190  10.303  14.785
66663W        W33204  41.433  42.025   2.445
66664W        W33205  19.157  21.743  11.902
66665W        W33206  19.490   9.111   1.863
66666W        W33207  42.998  25.687  13.690
66667W        W33208  15.976  19.617   4.163
66668W        W33209  16.613  20.987   0.214
66669W        W33210  42.769  39.980   3.276
66670W        W33211  29.071   2.364  13.033
66671W        W33212  21.580  37.021   0.261
66672W        W33213  22.257  21.718  13.246
66673W        W33214  34.986   9.373  12.958
66674W        W33215  28.925   2.481   2.712
66675W        W33216  14.751  43.861  13.439
66676W        W33217  17.837  14.223   2.254
66677W        W33218  32.572  33.859  13.915
66678W        W33219  38.467  16.098   0.018
66679W        W33220  27.023  42.998   0.389
66680W        W33221  14.650  16.333  12.138
66681W        W33222  40.981  32.475   2.002
66682W        W33223  42.790  42.497   3.252
66683W        W33224   1.687   0.645   0.930
66684W        W33225  17.182   3.261   3.491
66685W        W33226  30.434   1.454  14.494
66686W        W33227   3.349  20.989   4.735
66687W        W33228  25.068   3.442   4.790
66688W        W33229  32.415  10.143   3.579
66689W        W33230  34.045   4.367   1.932
66690W        W33231  27.612   7.129  10.830
66691W        W33232  38.006   4.131   4.257
66692W        W33233   4.327   2.532   3.801
66693W        W33234  23.520  35.297   4.184
66694W        W33235  24.929   2.770   0.391
66695W        W33236  14.013  38.509   1.790
66696W        W33237  10.814  16.562   2.131
66697W        W33238  34.067   0.955   0.473
66698W        W33239  24.164  35.392   2.222
66699W        W33240   3.125  11.799   1.782
66700W        W33241   0.630  14.286  13.050
66701W        W33242   2.644  14.272   4.846
66702W        W33243  39.965  39.882  13.769
66703W        W33244  43.292  33.586   3.518
66704W        W33245  36.509  36.431  13.525
66705W        W33246   1.956  20.914  10.655
66706W        W33247  25.628  13.152   1.306
66707W        W33248  40.001   0.848   1.908
66708W        W33249  35.114  15.559   0.752
66709W        W33250  42.073   4.985  13.074
66710W        W33251   4.557  21.263  13.920
66711W        W33252  27.551  19.535  11.688
66712W        W33253  23.052  23.709   0.750
66713W        W33254   3.213  27.744  13.568
66714W        W33255  36.967  36.678  13.429
66715W        W33256  39.256  43.973   3.811
66716W        W33257   8.547   1.760   1.760
66717W        W33258   3.503   8.366   1.263
66718W        W33259  24.111   0.084   1.633
66719W        W33260  24.405  30.042   0.784
66720W        W33261  10.833   6.623  13.571
66721W        W33262   3.840  17.863  11.629
66722W        W33263  27.766  35.568  12.019
66723W        W33264  11.805  12.991   2.733
66724W        W33265  27.703  44.209   2.460
66725W        W33266  16.233  21.335  10.703
66726W        W33267   9.901  28.504  10.775
66727W        W33268   7.213   8.196   4.072
66728W        W33269   7.966  16.993   4.106
66729W        W33270  17.977  37.758   0.761
66730W        W33271   6.574  11.825  14.371
66731W        W33272  29.920  35.121   3.443
66732W        W33273   0.222  18.080  10.884
66733W        W33274  35.214  33.258   2.639
66734W        W33275   3.752  20.974   0.082
66735W        W33276   3.416  29.601  12.048
66736W        W33277  18.566   5.592  13.671
66737W        W33278  29.738  15.633  14.442
66738W        W33279  31.192   7.690  13.408
66739W        W33280   9.665  27.953  12.705
66740W        W33281  14.666  13.220   0.749
66741W        W33282  38.168  33.121  13.453
66742W        W33283  43.502  43.817   4.152
66743W        W33284  34.648  19.790   0.849
66744W        W33285   9.395  28.958   1.075
66745W        W33286  12.197   2.211   0.850
66746W        W33287  30.967   2.927   4.318
66747W        W33288   6.935  35.820  12.763
66748W        W33289  40.191  44.731   4.231
66749W        W33290  25.980   3.555   5.027
66750W        W33291  31.110  15.862   3.762
66751W        W33292  29.201  19.526  10.276
66752W        W33293  15.174  12.086  13.615
66753W        W33294   9.870  26.894   3.744
66754W        W33295  43.993   3.451   3.573
66755W        W33296  36.011   1.261   2.486
66756W        W33297  21.200  10.616  12.214
66757W        W33298  38.520  15.174  14.916
66758W        W33299  12.959  40.284   2.271
66759W        W33300   0.088  34.359  14.412
66760W        W33301   5.486  18.389   4.582
66761W        W33302  32.636  17.356  14.366
66762W        W33303  38.969   9.357  12.574
66763W        W33304  22.683  40.050  11.530
66764W        W33305  36.079  26.969   2.635
66765W        W33306  17.653  18.743   4.552
66766W        W33307  19.989  31.892  10.888
66767W        W33308  17.651  29.350   1.839
66768W        W33309  10.184  41.008   1.388
66769W        W33310   9.699  19.690  14.299
66770W        W33311  40.280  18.410   4.084
66771W        W33312   9.954   8.717   2.179
66772W        W33313  15.838  13.329  13.349
66773W        W33314   0.633  19.689  12.495
66774W        W33315   8.566  27.156   0.329
66775W        W33316  11.355   8.762   0.905
66776W        W33317  25.542  44.022  12.708
66777W        W33318  15.078  29.403  11.106
66778W        W33319  15.674   3.437  14.438
66779W        W33320  18.856   4.960   1.842
66780W        W33321  14.291  26.080  12.402
66781W        W33322   2.274  39.334  13.462
66782W        W33323  31.437  13.263  12.115
66783W        W33324   2.712  34.533   3.184
66784W        W33325  43.796  13.092   2.599
66785W        W33326  29.008  18.384   1.392
66786W        W33327   6.608  22.166  12.547
66787W        W33328  25.875  30.779  10.698
66788W        W33329   6.843  36.360   1.485
66789W        W33330  32.809   1.176  11.920
66790W        W33331  22.335  30.459   2.467
66791W        W33332  43.302  16.627  13.441
66792W        W33333  39.465  44.699   3.018
66793W        W33334   3.522  37.053   4.962
66794W        W33335  39.901  16.321  10.625
66795W        W33336  42.095  41.180  11.514
66796W        W33337  21.644  20.620   4.226
66797W        W33338  28.901  35.104  13.843
66798W        W33339  14.640  33.858  14.991
66799W        W33340  32.084   8.766   3.282
66800W        W33341  29.651   4.788   3.644
66801W        W33342  31.370  30.866  14.973
66802W        W33343  24.416   1.084  14.694
66803W        W33344  31.352  19.992   2.752
66804W        W33345  17.154  23.650  13.434
66805W        W33346  26.528  23.688   3.730
66806W        W33347   0.895  22.051   0.037
66807W        W33348  37.355  34.868   5.025
66808W        W33349  26.194   7.883   0.883
66809W        W33350   9.237  16.187  13.451
66810W        W33351  30.998  37.614   0.469
66811W        W33352  17.361  12.079   1.476
66812W        W33353  38.063  34.537  11.654
66813W        W33354  33.020  26.244   2.421
66814W        W33355   5.523  27.413  14.884
66815W        W33356  39.565  29.692   3.376
66816W        W33357  30.113  14.676  13.936
66817W        W33358  18.075   2.828   0.265
66818W        W33359  33.203  25.962   2.846
66819W        W33360  36.934   1.285  12.094
66820W        W33361  43.758   5.456  12.480
66821W        W33362   5.138  20.556   1.604
66822W        W33363   2.573  38.488  13.386
66823W        W33364  10.772  22.032  14.840
66824W        W33365  11.276  28.851   3.128
66825W        W33366  17.524   0.407   3.825
66826W        W33367  34.332  30.020  11.218
66827W        W33368  41.160   6.382   2.121
66828W        W33369   7.145   1.756   1.136
66829W        W33370  40.766  15.336  12.928
66830W        W33371   4.813  15.118   2.488
66831W        W33372  41.474  28.061   0.554
66832W        W33373  12.518  32.008   3.207
66833W        W33374  31.301  14.748   1.882
66834W        W33375  43.195   2.474  11.667
66835W        W33376  40.364  23.928   1.325
66836W        W33377  28.893  23.011   2.260
66837W        W33378  23.776  13.871   0.687
66838W        W33379  17.848  39.842  14.276
66839W        W33380  33.825  40.250  11.926
66840W        W33381  41.015  12.720  12.106
66841W        W33382  40.105   9.560  11.127
66842W        W33383  38.455  12.207   1.201
66843W        W33384   5.415  17.197   0.197
66844W        W33385  13.217  24.077   0.793
66845W        W33386  40.528  18.467  14.691
66846W        W33387  24.466   8.902  12.995
66847W        W33388   6.616   7.293  11.185
66848W        W33389  16.610  10.703  12.590
66849W        W33390  27.547  38.047   4.380
66850W        W33391  28.036  10.677  11.568
66851W        W33392  22.049  10.850  14.561
66852W        W33393   5.196  11.642  10.730
66853W        W33394  26.680  29.107  10.694
66854W        W33395   6.926  18.105  11.291
66855W        W33396  22.651  14.728   2.288
66856W        W33397  25.696   4.706   4.526
66857W        W33398  21.758  34.113  10.516
66858W        W33399  30.043  25.516   0.478
66859W        W33400   7.607  34.196   0.248
66860W        W33401  28.141   6.963  11.177
66861W        W33402  44.352  14.847  13.386
66862W        W33403  41.480  15.590   0.382
66863W        W33404  33.672   5.376   1.219
66864W        W33405  30.948  10.740   2.772
66865W        W33406  30.125  24.275  14.927
66866W        W33407   4.753  44.221   2.202
66867W        W33408   5.280   1.165   2.829
66868W        W33409  44.339  29.330  10.768
66869W        W33410  16.770   9.379   1.026
66870W        W33411  10.072  21.375   1.913
66871W        W33412  17.432  31.904   2.782
66872W        W33413  44.009   1.469   2.658
66873W        W33414  31.978  18.027  12.455
66874W        W33415  44.965  40.010  12.424
66875W        W33416  22.608   2.185   4.581
66876W        W33417  29.070  35.668  11.234
66877W        W33418  30.500  27.072   0.372
66878W        W33419  32.482   3.378   3.677
66879W        W33420  39.854   6.726   2.103
66880W        W33421  16.344  13.830  14.012
66881W        W33422   5.658  13.035   4.087
66882W        W33423   3.647  18.311   0.746
66883W        W33424  28.047  44.449   1.065
66884W        W33425  17.760   1.027  14.455
66885W        W33426  27.668  21.995   3.858
66886W        W33427  18.483   9.662  12.087
66887W        W33428  32.009  42.586  13.061
66888W        W33429  23.686  37.160   2.659
66889W        W33430   8.170   9.241  14.851
66890W        W33431  11.420  16.389  14.991
66891W        W33432  15.805  35.274  12.449
66892W        W33433  28.905  26.843   0.262
66893W        W33434  29.332  32.809  12.081
66894W        W33435  37.736  35.093   3.789
66895W        W33436  24.200   0.212   0.437
66896W        W33437  30.518  20.091  12.052
66897W        W33438  22.987  38.806   3.645
66898W        W33439  20.369  41.386  11.576
66899W        W33440  23.521  20.182   1.428
66900W        W33441  12.293  36.179  12.981
66901W        W33442   5.707  42.491   0.004
66902W        W33443  20.956  23.661  13.814
66903W        W33444  30.747   7.256   1.779
66904W        W33445  15.286  37.671  10.287
66905W        W33446  41.822  15.931   1.610
66906W        W33447  36.580  23.384   1.769
66907W        W33448  11.065  17.531  12.302
66908W        W33449  16.009  22.501  13.038
66909W        W33450  32.884  24.978  10.868
66910W        W33451  43.062  14.069  14.928
66911W        W33452  22.000  22.833  14.385
66912W        W33453  26.122  22.595   1.854
66913W        W33454  41.865  38.504  14.142
66914W        W33455  30.692  12.924   2.292
66915W        W33456  43.850  28.682   2.404
66916W        W33457  15.694  20.273   3.810
66917W        W33458  22.722  27.946   2.403
66918W        W33459  36.705  32.604  13.957
66919W        W33460   5.682  18.765  14.349
66920W        W33461  19.931   5.858  13.386
66921W        W33462  26.949   1.030  13.827
66922W        W33463  38.619  35.408  14.732
66923W        W33464  37.537  41.007  12.865
66924W        W33465   9.184  23.479  14.066
66925W        W33466  20.044  26.303  12.906
66926W        W33467   8.916  39.456   1.135
66927W        W33468  31.423  44.810  12.365
66928W        W33469  25.488   1.490   1.728
66929W        W33470  25.203  36.406   2.423
66930W        W33471   7.692  41.872   4.472
66931W        W33472  26.338  21.766   2.432
66932W        W33473  40.010  14.970   1.494
66933W        W33474   2.736  15.101  13.845
66934W        W33475   2.802  40.835   4.642
66935W        W33476  36.821  26.664  14.862
66936W        W33477  35.351  36.086  10.434
66937W        W33478  24.135  39.382  10.830
66938W        W33479  14.173  17.828  10.516
66939W        W33480   6.265   2.219  12.859
66940W        W33481  41.620  40.623  10.185
66941W        W33482   5.769  35.460  12.880
66942W        W33483  21.045   4.996  10.061
66943W        W33484   5.224  35.577  14.247
66944W        W33485   0.516  39.727  11.654
66945W        W33486  28.020   9.901  14.770
66946W        W33487   3.426  28.557  12.968
66947W        W33488  43.377  38.890  13.008
66948W        W33489  36.913  19.757  13.809
66949W        W33490  27.106  17.270   1.720
66950W        W33491   1.746  44.474  13.815
66951W        W33492  20.553   2.000   2.173
66952W        W33493   0.715  12.699   4.599
66953W        W33494   8.743  22.555  14.795
66954W        W33495  33.589  35.407  14.488
66955W        W33496  31.018  31.618  10.769
66956W        W33497  30.965  39.527  12.852
66957W        W33498  16.126  42.304   0.697
66958W        W33499   1.939  21.219  12.109
66959W        W33500   5.475   9.788   3.718
66960W        W33501  12.869  24.198  11.253
66961W        W33502  36.776  40.287   3.423
66962W        W33503  15.189  10.815  11.190
66963W        W33504  32.903  16.215   3.671
66964W        W33505   0.818   4.132  12.885
66965W        W33506  43.066  23.183  10.704
66966W        W33507  19.752   2.976   3.722
66967W        W33508  33.119  15.098  11.460
66968W        W33509  13.014  44.550   1.980
66969W        W33510  17.591  30.521  14.846
66970W        W33511  38.147  31.616  10.678
66971W        W33512  32.926  23.167  12.892
66972W        W33513  26.101  23.897   3.581
66973W        W33514  43.447  23.979  10.531
66974W        W33515  21.006   5.273   1.218
66975W        W33516  30.357  19.118   0.429
66976W        W33517   3.113  25.925   1.445
66977W        W33518  10.406  38.147   4.457
66978W        W33519  12.959  17.715  12.070
66979W        W33520  15.139   0.270   1.473
66980W        W33521   2.709  13.661  11.735
66981W        W33522  28.455  12.152  13.529
66982W        W33523  13.638  42.721   0.807
66983W        W33524   6.307  39.373   3.310
66984W        W33525  31.669  44.258   0.381
66985W        W33526   0.442  25.258   2.001
66986W        W33527  35.643  29.369   0.360
66987W        W33528   9.913  33.559   1.759
66988W        W33529  16.695   2.507   4.431
66989W        W33530  31.650  31.506   2.045
66990W        W33531  39.971  23.901  12.929
66991W        W33532  10.933  14.748   3.838
66992W        W33533  19.242  11.977   3.321
66993W        W33534  28.957   2.736   2.249
66994W        W33535   7.932  41.094  12.558
66995W        W33536  35.031   8.157  10.919
66996W        W33537  25.197  18.070  12.422
66997W        W33538  29.560  37.297   5.040
66998W        W33539   1.849  10.264   2.572
66999W        W33540   3.622   9.743   0.806
67000W        W33541  35.966   2.309  11.660
67001W        W33542  25.654   4.359   3.520
67002W        W33543  12.632  16.978   4.705
67003W        W33544  40.447  39.761   0.940
67004W        W33545  32.745  35.930   1.690
67005W        W33546  35.459  12.638   3.459
67006W        W33547  23.229  12.559   0.412
67007W        W33548  32.647  29.704  13.803
67008W        W33549  17.393  21.816  11.429
67009W        W33550   8.351  43.933  11.917
67010W        W33551   6.454  40.296  10.359
67011W        W33552  25.108  14.038  11.735
67012W        W33553   4.516  38.017   0.708
67013W        W33554  25.799  11.136  14.212
67014W        W33555  15.148  14.884  12.983
67015W        W33556   3.309   8.846  10.596
67016W        W33557  39.731  44.003   4.078
67017W        W33558  17.695  41.473  13.740
67018W        W33559  35.801  17.312   3.337
67019W        W33560   6.603  36.637  13.925
67020W        W33561  21.891  26.925   1.070
67021W        W33562  37.761   8.586  10.207
67022W        W33563  27.253  16.796  12.095
67023W        W33564  43.797  22.086  14.994
67024W        W33565   8.358   7.325   2.728
67025W        W33566  26.927  41.782   0.015
67026W        W33567  34.059  26.066   3.327
67027W        W33568  34.013  31.182  10.443
67028W        W33569  32.186  37.064  11.968
67029W        W33570  15.373  19.011  12.405
67030W        W33571  13.647  13.329  13.033
67031W        W33572  19.644  19.241  14.355
67032W        W33573  27.300  21.395  14.925
67033W        W33574  27.753  38.976  11.862
67034W        W33575  17.915  14.179  14.865
67035W        W33576  11.426  27.579  14.378
67036W        W33577   1.351  13.795   1.976
67037W        W33578  44.314  37.915   1.243
67038W        W33579  24.904  32.146   1.266
67039W        W33580  42.938  42.519  14.718
67040W        W33581  42.077  32.064   3.914
67041W        W33582  37.014  43.433  13.335
67042W        W33583  42.297  28.142  11.608
67043W        W33584  41.952  29.961  13.502
67044W        W33585  31.025  19.704   2.490
67045W        W33586  19.442  14.304  13.239
67046W        W33587  42.095   8.484  14.385
67047W        W33588  36.078  17.785  12.894
67048W        W33589  22.464   8.144   3.385
67049W        W33590  15.112  19.650  11.956
67050W        W33591  23.710  22.942   2.432
67051W        W33592  36.366  33.544  14.838
67052W        W33593  31.760   0.279   0.459
67053W        W33594  25.784   4.726   0.980
67054W        W33595   9.434  38.428   0.399
67055W        W33596  15.208  20.732   3.040
67056W        W33597  36.278  36.492  14.484
67057W        W33598  33.176  26.693  12.658
67058W        W33599  29.157  26.508  11.726
67059W        W33600   5.239  16.897  11.934
67060W        W33601  17.061  27.611  11.276
67061W        W33602   9.323  28.151  12.356
67062W        W33603  34.335  14.739  11.630
67063W        W33604  31.197  43.828   3.774
67064W        W33605  12.180  21.802  13.141
67065W        W33606  16.616  25.060  11.090
67066W        W33607  27.998  11.295   0.221
67067W        W33608   5.457   9.539   0.809
67068W        W33609  25.698  24.028   0.919
67069W        W33610  16.206  24.553  13.330
67070W        W33611   2.261  10.298   4.680
67071W        W33612  19.329  21.584   3.220
67072W        W33613   5.360  36.936   1.421
67073W        W33614  40.104   6.670   0.665
67074W        W33615  21.214  12.875   1.817
67075W        W33616  23.536   9.464  12.968
67076W        W33617  22.282   1.784  12.964
67077W        W33618  23.479  26.583  12.287
67078W        W33619  16.087   6.776   3.716
67079W        W33620  16.488  35.705  11.550
67080W        W33621  12.244  42.373   2.680
67081W        W33622  23.027  20.973  13.984
67082W        W33623  26.195   0.559  11.601
67083W        W33624  21.197  35.970   2.725
67084W        W33625  43.445   9.775  11.941
67085W        W33626  13.659  24.480  13.421
67086W        W33627  18.521  14.375   2.827
67087W        W33628   6.131  32.957   0.309
67088W        W33629  12.933   8.709   1.707
67089W        W33630  33.701  35.398  13.398
67090W        W33631  19.500   4.721   2.341
67091W        W33632  23.026   3.710   1.994
67092W        W33633  40.959  39.884   3.074
67093W        W33634  38.668  25.755  11.853
67094W        W33635  40.436  35.642  12.009
67095W        W33636  40.952  42.576   4.121
67096W        W33637  34.150  15.101  12.704
67097W        W33638  21.664  33.142   3.352
67098W        W33639  22.989   6.459   3.681
67099W        W33640  38.094  12.593  12.437
67100W        W33641   8.883  41.883   0.393
67101W        W33642  33.117  11.832  11.515
67102W        W33643  32.576  26.711  12.065
67103W        W33644  18.817  41.333  14.893
67104W        W33645  35.613  18.868   3.193
67105W        W33646  32.825  14.198  13.787
67106W        W33647  34.959  41.309   1.846
67107W        W33648  40.081  36.992  11.030
67108W        W33649   0.821  28.845  12.516
67109W        W33650  25.722  13.705  12.356
67110W        W33651  37.386  39.063   0.927
67111W        W33652  31.621  20.591  14.735
67112W        W33653  39.214  17.429  14.642
67113W        W33654   9.889  22.694  10.621
67114W        W33655  33.274  28.909  13.817
67115W        W33656   6.801  18.018  10.790
67116W        W33657  10.953  33.902  11.507
67117W        W33658  18.037  30.401  13.560
67118W        W33659  12.908  11.612   2.872
67119W        W33660  16.601  19.771   1.748
67120W        W33661  42.357  18.500   4.089
67121W        W33662  41.022  23.016  10.517
67122W        W33663  13.458  22.879  11.127
67123W        W33664   4.731  22.032   1.763
67124W        W33665  17.494   5.418   0.732
67125W        W33666   1.778  21.426  11.477
67126W        W33667   0.363   6.315  11.213
67127W        W33668  43.994   6.612   4.343
67128W        W33669  39.862  33.675  10.495
67129W        W33670  11.750  21.190   1.686
67130W        W33671  20.540  18.497   2.310
67131W        W33672  18.193   1.527   3.274
67132W        W33673  31.210  43.067  14.480
67133W        W33674   2.523  30.116   3.126
67134W        W33675   2.702   5.073  11.858
67135W        W33676  10.855  18.026   3.274
67136W        W33677  22.087  20.704   4.477
67137W        W33678  37.098   1.834   1.759
67138W        W33679  21.845  15.216  12.310
67139W        W33680  44.259  22.900   2.386
67140W        W33681  11.904  41.537  13.851
67141W        W33682  30.861   8.666  13.446
67142W        W33683  14.540  11.232   0.403
67143W        W33684  32.571   2.428  13.047
67144W        W33685  24.255   5.912  12.040
67145W        W33686  23.185  30.797   0.404
67146W        W33687  33.667  25.812   2.479
67147W        W33688  22.472   2.396  11.170
67148W        W33689  33.562   8.720   2.236
67149W        W33690  23.188  10.324   1.978
67150W        W33691  25.534  26.499  12.645
67151W        W33692  25.333  26.053  12.910
67152W        W33693  11.625  18.114  11.147
67153W        W33694  14.411  42.879  12.131
67154W        W33695  25.686  38.640   4.335
67155W        W33696  20.815  40.050   4.637
67156W        W33697  21.825   6.377   1.772
67157W        W33698   1.773  21.949  11.512
67158W        W33699  35.113  29.117  11.804
67159W        W33700  42.021   5.473   2.851
67160W        W33701  20.603  37.181  12.677
67161W        W33702  34.931  17.756  10.472
67162W        W33703  37.601  43.941   1.178
67163W        W33704  10.177   5.889  13.089
67164W        W33705  34.513  23.194   4.658
67165W        W33706  27.166  39.944  11.092
67166W        W33707  37.967  24.894  11.186
67167W        W33708  44.854   6.171  12.470
67168W        W33709  19.021  16.819   3.732
67169W        W33710  30.717   5.576   0.522
67170W        W33711  14.762  32.668  12.971
67171W        W33712  14.879  34.024  13.437
67172W        W33713  13.080  10.335   1.856
67173W        W33714  36.910  14.503   1.793
67174W        W33715  23.552  24.478   3.651
67175W        W33716   5.402  34.619   2.234
67176W        W33717  27.899   7.949  14.373
67177W        W33718   6.815   8.345   0.792
67178W        W33719   0.271  35.404  12.789
67179W        W33720  16.674  43.322   3.315
67180W        W33721  13.303  42.794   3.975
67181W        W33722   7.999  35.657  12.550
67182W        W33723  44.040  23.951   4.258
67183W        W33724   8.693  13.847  14.875
67184W        W33725  37.914  14.546  13.503
67185W        W33726  38.505  13.356   0.292
67186W        W33727   4.392  36.301  13.834
67187W        W33728  30.976   2.864   4.833
67188W        W33729  12.584  15.640   2.184
67189W        W33730  19.182  32.741  12.935
67190W        W33731  41.147   5.879   0.969
67191W        W33732   7.379  15.501   2.329
67192W        W33733  25.191   6.901  13.904
67193W        W33734  20.781  35.521   0.950
67194W        W33735  31.994  35.970  14.015
67195W        W33736   4.782  17.224  10.710
67196W        W33737  19.896  33.167  12.589
67197W        W33738   6.857  39.601   2.327
67198W        W33739  30.812  41.406  13.914
67199W        W33740  16.402  26.659  11.925
67200W        W33741  37.092  39.384   3.424
67201W        W33742  15.456  34.287   4.086
67202W        W33743  22.016   2.951  13.821
67203W        W33744  19.068  25.698  12.351
67204W        W33745  15.009  14.200  11.574
67205W        W33746  12.110  39.585   3.657
67206W        W33747  15.314   8.745   3.311
67207W        W33748  35.446  19.359  14.719
67208W        W33749  32.807  10.419   4.508
67209W        W33750  14.549  12.795  14.991
67210W        W33751  16.471  31.990  14.861
67211W        W33752  29.555  35.893  12.225
67212W        W33753  19.128  14.060  12.405
67213W        W33754  13.679  41.312  13.870
67214W        W33755  34.385  17.819   2.746
67215W        W33756   1.588   4.753  10.550
67216W        W33757  33.108   8.657   4.100
67217W        W33758  38.671  12.915   1.915
67218W        W33759  23.224  23.498   1.726
67219W        W33760   2.875   1.861  14.379
67220W        W33761  11.362  44.341  13.502
67221W        W33762  22.011  11.179   4.824
67222W        W33763  13.629  16.304   1.891
67223W        W33764  20.080   3.786   0.210
67224W        W33765  27.610  40.972  14.726
67225W        W33766  17.707  31.177   1.147
67226W        W33767   5.928  10.717  12.016
67227W        W33768  16.104  39.126   4.388
67228W        W33769  30.420  17.385   4.167
67229W        W33770  36.459  21.636  14.731
67230W        W33771  31.011   5.857   1.364
67231W        W33772  14.378  11.679   0.128
67232W        W33773  39.310  20.489  14.895
67233W        W33774  33.930  39.100   3.331
67234W        W33775   2.031   9.709  11.613
67235W        W33776   8.774  25.700  13.946
67236W        W33777  19.718  35.750   2.229
67237W        W33778  35.378  15.220   2.470
67238W        W33779  13.633   4.285  14.009
67239W        W33780  39.788  13.843  11.522
67240W        W33781  29.484  26.932  12.562
67241W        W33782   2.960  21.313   5.010
67242W        W33783   1.843  38.152   2.835
67243W        W33784   3.786  36.918  14.664
67244W        W33785   0.086  22.214  10.750
67245W        W33786   3.797   6.537   1.303
67246W        W33787  16.098   7.840   4.035
67247W        W33788  27.874  38.460   0.210
67248W        W33789  30.676  41.206   0.943
67249W        W33790  30.897  13.629   3.259
67250W        W33791  27.571  38.599   2.207
67251W        W33792   9.697  37.001  11.168
67252W        W33793  38.475  20.285  13.032
67253W        W33794  31.071  36.610   1.419
67254W        W33795  16.320  24.574  14.567
67255W        W33796   7.221  29.409  11.182
67256W        W33797  27.151  42.270   0.883
67257W        W33798  13.684  13.772   1.551
67258W        W33799  20.388  18.845  12.565
67259W        W33800  18.730  28.125   4.524
67260W        W33801  38.812  15.228  13.024
67261W        W33802  24.684   3.305   0.443
67262W        W33803  21.148  15.777   4.533
67263W        W33804  21.961   3.448   4.597
67264W        W33805  36.077  21.558  10.515
67265W        W33806  19.035  15.566  14.554
67266W        W33807  36.111  13.735   2.418
67267W        W33808  41.540  28.260   1.568
67268W        W33809  29.590  12.788  13.762
67269W        W33810  38.490  30.480  13.747
67270W        W33811  14.283   4.876  12.845
67271W        W33812  39.753   8.674  12.474
67272W        W33813  26.650  35.336  12.594
67273W        W33814  43.429  34.365   2.160
67274W        W33815  11.361  18.234  13.370
67275W        W33816   0.863  24.533   1.800
67276W        W33817  43.451  17.645  13.497
67277W        W33818  24.322  37.018   1.225
67278W        W33819  20.698  11.663  14.305
67279W        W33820  14.534   9.424   1.702
67280W        W33821  12.152  12.901  12.060
67281W        W33822  19.774  24.992  12.527
67282W        W33823  38.317   9.851   4.271
67283W        W33824  18.215  27.637   4.482
67284W        W33825  23.833  28.312   9.864
67285W        W33826  40.133   3.761   0.835
67286W        W33827  29.587  35.093  14.663
67287W        W33828  34.440   6.657  11.953
67288W        W33829  14.066  44.329  13.452
67289W        W33830  17.232  21.418  14.363
67290W        W33831  33.083  37.559  14.842
67291W        W33832  15.495  19.438   4.187
67292W        W33833  37.602   6.300   1.693
67293W        W33834  40.957  43.837  10.926
67294W        W33835  42.029  42.767   1.348
67295W        W33836  11.688  30.459  14.848
67296W        W33837  10.240  14.325  11.109
67297W        W33838   9.530  33.584   0.779
67298W        W33839   3.880  10.977   2.775
67299W        W33840  14.780  44.942  11.044
67300W        W33841   1.123   4.233  13.504
67301W        W33842  25.026  35.946   1.154
67302W        W33843  11.167  12.588   3.766
67303W        W33844  41.022   5.750  14.293
67304W        W33845  15.882  29.686  12.050
67305W        W33846  31.361  24.518   1.304
67306W        W33847  19.629  13.683   4.020
67307W        W33848  39.766  33.365  14.036
67308W        W33849  12.668  13.654  11.215
67309W        W33850  24.739  30.968   0.747
67310W        W33851  36.420   2.805   3.487
67311W        W33852  12.672  41.860  11.944
67312W        W33853  39.362  37.127  13.505
67313W        W33854  41.642  32.105   4.197
67314W        W33855  41.700  22.606   2.597
67315W        W33856   7.294  40.459   3.680
67316W        W33857  22.041  22.561  11.992
67317W        W33858  34.383  25.410  10.731
67318W        W33859  10.190  12.912  11.065
67319W        W33860  26.142  43.780   0.751
67320W        W33861   7.440  28.518   2.540
67321W        W33862  33.941  19.622  12.049
67322W        W33863  29.814  29.460  14.776
67323W        W33864  38.348  16.268   4.811
67324W        W33865   4.907   0.963  12.573
67325W        W33866  24.901  10.329   1.129
67326W        W33867  17.314  17.163  11.682
67327W        W33868  38.917   7.510  12.624
67328W        W33869   3.600  10.247   0.702
67329W        W33870  21.380  33.033   2.495
67330W        W33871  44.869   8.686  13.465
67331W        W33872  40.967  38.540   1.107
67332W        W33873  37.219  18.179  10.325
67333W        W33874   9.598  25.267  11.137
67334W        W33875  21.189  40.950   2.672
67335W        W33876  32.556  35.781   3.546
67336W        W33877   5.900  24.182   3.273
67337W        W33878   1.796  33.365  12.062
67338W        W33879   1.228  20.166  12.392
67339W        W33880  36.121  11.813  11.094
67340W        W33881  14.134  24.048  11.129
67341W        W33882  11.478  23.812  12.153
67342W        W33883  36.212  30.824  11.161
67343W        W33884  41.558  29.407   3.846
67344W        W33885   2.348  17.759   2.129
67345W        W33886  29.033  25.543   2.304
67346W        W33887  19.603  24.001   0.046
67347W        W33888  11.800  26.284  12.483
67348W        W33889  15.762   2.908  13.172
67349W        W33890  19.950  22.518  12.141
67350W        W33891   3.938  14.388  10.402
67351W        W33892  15.750   8.860  12.456
67352W        W33893  11.169  20.733   0.392
67353W        W33894  29.501  43.702  14.933
67354W        W33895   1.734  28.113   1.765
67355W        W33896  42.167   7.334  10.223
67356W        W33897  41.843  36.282  12.491
67357W        W33898  29.721  12.250  13.049
67358W        W33899  13.176  35.917  11.691
67359W        W33900   7.729  10.880  12.141
67360W        W33901  36.514   8.457   1.772
67361W        W33902  29.510  12.315  14.540
67362W        W33903  24.030  35.742   0.892
67363W        W33904  35.434  12.077  14.262
67364W        W33905  21.283  34.866   3.639
67365W        W33906  27.748  38.324   2.620
67366W        W33907  31.613  25.534  10.642
67367W        W33908  14.340  41.439  13.265
67368W        W33909   2.429  44.448  12.439
67369W        W33910   7.010  27.969  12.561
67370W        W33911  22.313  43.288  14.877
67371W        W33912   0.517  44.626   0.944
67372W        W33913   7.954  21.875   1.034
67373W        W33914  34.802  21.171  13.424
67374W        W33915  42.858  36.891   4.195
67375W        W33916  34.090  39.640  14.087
67376W        W33917  32.460  20.982   1.303
67377W        W33918  36.586   7.929  11.471
67378W        W33919  18.169  25.603   3.714
67379W        W33920   8.400  16.911   4.911
67380W        W33921  28.787  13.435   9.946
67381W        W33922  26.648   4.304  14.077
67382W        W33923  30.241  12.437  11.347
67383W        W33924  21.238  26.735  13.760
67384W        W33925  10.449  14.303  10.643
67385W        W33926  36.932   5.815   0.105
67386W        W33927  18.596  38.879   4.511
67387W        W33928  37.127  21.209   3.170
67388W        W33929  24.565  23.608  10.487
67389W        W33930   5.417  14.172   0.510
67390W        W33931  17.040  16.743  12.158
67391W        W33932  22.067  20.497  10.934
67392W        W33933   7.984  32.869   3.943
67393W        W33934  42.908  33.729   4.750
67394W        W33935  31.449  33.911  13.696
67395W        W33936  15.707  11.608  14.983
67396W        W33937  39.723  32.698  12.463
67397W        W33938  32.943  33.087  14.983
67398W        W33939  40.580   5.731  13.443
67399W        W33940  36.500  27.156   2.407
67400W        W33941  40.264   0.922  13.439
67401W        W33942  20.583  17.644  11.911
67402W        W33943  36.096  19.301  14.835
67403W        W33944   2.619   1.994  14.823
67404W        W33945  15.842  36.423   1.644
67405W        W33946   7.683   1.984   2.389
67406W        W33947  33.957  20.141  10.355
67407W        W33948   4.863  39.893   3.890
67408W        W33949  22.670  23.565   0.004
67409W        W33950  16.169   2.467  11.236
67410W        W33951  32.536   7.649   3.752
67411W        W33952  41.134  28.019   4.586
67412W        W33953  43.410  32.454   2.090
67413W        W33954  16.086   9.326   3.783
67414W        W33955  19.801  25.488  10.449
67415W        W33956  39.806  18.198   0.042
67416W        W33957  16.702  20.525   4.116
67417W        W33958  31.172  25.129  12.024
67418W        W33959  17.072  10.550   3.725
67419W        W33960  32.109  41.157  12.926
67420W        W33961  30.485  35.311  12.100
67421W        W33962   8.831  26.254   2.267
67422W        W33963  28.250  30.010  12.956
67423W        W33964  20.206  11.364  12.996
67424W        W33965  39.106  18.088   3.763
67425W        W33966   0.219  28.545  13.395
67426W        W33967  11.896  26.789  12.474
67427W        W33968  37.899  10.747  11.556
67428W        W33969  19.124   9.311  12.843
67429W        W33970  36.933  23.992  10.730
67430W        W33971  24.443  41.133  14.505
67431W        W33972  16.265  37.576   1.330
67432W        W33973   4.848  43.691  14.534
67433W        W33974  39.560   6.630   0.730
67434W        W33975  25.976   2.636   3.667
67435W        W33976  21.743  39.178   1.709
67436W        W33977   5.189  43.427  14.227
67437W        W33978  16.139  23.560   4.871
67438W        W33979  21.780  44.235  14.488
67439W        W33980  21.619  13.832  12.857
67440W        W33981  20.676  44.169   4.538
67441W        W33982  33.350  26.950  13.089
67442W        W33983  44.776  12.505   0.869
67443W        W33984  34.561  22.012  12.874
67444W        W33985  14.311  25.570   2.690
67445W        W33986  22.714  36.124  10.516
67446W        W33987  40.627  25.264   0.486
67447W        W33988  38.052  29.977   4.625
67448W        W33989  12.746  32.634  12.011
67449W        W33990  15.294  29.136   9.863
67450W        W33991   6.917  10.175  14.792
67451W        W33992   2.812  18.045   2.720
67452W        W33993  13.599  30.951   0.811
67453W        W33994  20.179  19.231   2.184
67454W        W33995  29.923  10.966   1.924
67455W        W33996   6.338  19.795   4.201
67456W        W33997  33.536  43.991   0.869
67457W        W33998  31.511  15.710   0.383
67458W        W33999  35.043  12.357   0.145
67459W        W34000   2.584   0.858   3.753
67460W        W34001  23.061   3.487  12.823
67461W        W34002  20.759  25.991  11.216
67462W        W34003  28.602   4.438  11.076
67463W        W34004  31.854   9.787   2.661
67464W        W34005  20.145  11.914  14.789
67465W        W34006  31.858  30.007   0.444
67466W        W34007  41.438   6.349   3.332
67467W        W34008  17.436  17.819  12.570
67468W        W34009  21.067  15.331  10.184
67469W        W34010  28.619  30.855   3.183
67470W        W34011   4.723  16.150   3.150
67471W        W34012  27.683  35.824   1.498
67472W        W34013  33.130  41.932  13.366
67473W        W34014  34.989   4.237   0.905
67474W        W34015   3.905  20.829  14.303
67475W        W34016  16.289  44.777  11.919
67476W        W34017  41.539   7.008  11.588
67477W        W34018  12.645  37.594   2.286
67478W        W34019   1.458   8.384  14.937
67479W        W34020   3.871  23.646   0.147
67480W        W34021  39.584   0.011   2.609
67481W        W34022  15.791  27.193  14.903
67482W        W34023  44.242  38.356  12.887
67483W        W34024  41.265  29.643   1.015
67484W        W34025  17.811  25.441   4.077
67485W        W34026  10.780  40.304  14.342
67486W        W34027  29.086  16.256   3.950
67487W        W34028  31.876  32.859  14.923
67488W        W34029  30.182  36.620  12.927
67489W        W34030   1.276  29.489   5.002
67490W        W34031  30.975   7.153  14.352
67491W        W34032  10.914  44.399   2.412
67492W        W34033  33.989  21.991  13.801
67493W        W34034  42.448  44.588   4.589
67494W        W34035  32.088  21.475   1.771
67495W        W34036  19.426  27.680   2.374
67496W        W34037   1.661  28.530  11.334
67497W        W34038  23.506  16.253  12.549
67498W        W34039  15.863  32.914   5.109
67499W        W34040  36.316  42.745   3.869
67500W        W34041  44.983  30.514  10.532
67501W        W34042  23.280  13.190   4.160
67502W        W34043  31.632  21.096   0.406
67503W        W34044  44.357  19.750   2.289
67504W        W34045   8.829  33.116  11.851
67505W        W34046  20.285   1.753   4.232
67506W        W34047  25.096  39.287  14.003
67507W        W34048  19.142  31.458   1.388
67508W        W34049  11.757  18.751  12.134
67509W        W34050  22.986  31.945   4.589
67510W        W34051   2.667  34.323  14.361
67511W        W34052  36.958  32.541  12.459
67512W        W34053   8.252   6.769  11.514
67513W        W34054  35.330   3.602   3.892
67514W        W34055  28.464  41.163   0.730
67515W        W34056  19.409   6.640   3.170
67516W        W34057  37.436  37.687   3.586
67517W        W34058   3.383   6.343  11.736
67518W        W34059  24.404  28.033  13.397
67519W        W34060  35.832  17.230   3.840
67520W        W34061  43.784   7.998   0.816
67521W        W34062  24.779  32.382  13.157
67522W        W34063   4.254  36.974  11.311
67523W        W34064  21.170  17.596  10.448
67524W        W34065   7.688  42.558   3.261
67525W        W34066  24.627  21.463  13.074
67526W        W34067  17.609   5.394   1.769
67527W        W34068  42.454  32.135  13.447
67528W        W34069  21.069  35.392   3.413
67529W        W34070  15.944  43.538   1.969
67530W        W34071  26.521   9.325   1.778
67531W        W34072  44.785  36.331  11.668
67532W        W34073  37.610  16.687  13.376
67533W        W34074  29.406  38.493   4.367
67534W        W34075   1.203   0.888   4.231
67535W        W34076  37.401  22.864  10.793
67536W        W34077  22.702  24.507   0.169
67537W        W34078  41.434   6.676   0.794
67538W        W34079   9.204  10.040   5.256
67539W        W34080  28.471  12.336   1.524
67540W        W34081   3.400  11.298  11.630
67541W        W34082  40.786   1.972  10.609
67542W        W34083  34.072  36.356   4.447
67543W        W34084  32.063  18.258   0.258
67544W        W34085   3.343   5.586   0.546
67545W        W34086  20.072  19.894  13.535
67546W        W34087  44.494  36.196   3.433
67547W        W34088  13.634   3.830   4.630
67548W        W34089  38.590  28.249   5.049
67549W        W34090  35.895  36.982  10.652
67550W        W34091  43.193  31.635  12.438
67551W        W34092   7.514   9.842  11.593
67552W        W34093  35.609  40.481  13.479
67553W        W34094  19.162  40.810  14.425
67554W        W34095   5.256  26.412   0.011
67555W        W34096  15.706  10.384  14.242
67556W        W34097  36.345   8.638   4.900
67557W        W34098  28.031  15.304   3.558
67558W        W34099  26.924  15.575  14.554
67559W        W34100  39.252  29.603  11.169
67560W        W34101  28.458  19.075  11.637
67561W        W34102  30.289   3.750  11.444
67562W        W34103   8.442  24.576   4.050
67563W        W34104  23.170  15.363  11.778
67564W        W34105  18.118  37.076  11.080
67565W        W34106  30.660   4.605   4.833
67566W        W34107  10.211  34.042   4.533
67567W        W34108  14.801   6.909  10.787
67568W        W34109  19.496  15.787  11.888
67569W        W34110  13.689  17.138  12.670
67570W        W34111  23.243  16.604   3.697
67571W        W34112  18.645  19.112  12.805
67572W        W34113  34.277   3.885  11.066
67573W        W34114   2.804  26.192   4.011
67574W        W34115   8.228  23.971  11.897
67575W        W34116  26.616  18.926  14.877
67576W        W34117  27.444  28.606   0.546
67577W        W34118  36.082  25.617   4.611
67578W        W34119   7.099  16.056  12.521
67579W        W34120  28.915  20.871   1.157
67580W        W34121  38.131  22.636  14.282
67581W        W34122  16.904  38.487   2.865
67582W        W34123  10.759   9.525  14.549
67583W        W34124   1.733  17.319  14.249
67584W        W34125  41.117  33.010  14.091
67585W        W34126  41.861  23.553  14.903
67586W        W34127  10.666  31.099   4.802
67587W        W34128  19.745   2.342   1.658
67588W        W34129  11.863  37.178   4.437
67589W        W34130   1.567   3.326   0.011
67590W        W34131  41.305  26.081   4.151
67591W        W34132   3.895  23.142   0.383
67592W        W34133  31.378  38.701  14.868
67593W        W34134  10.920  38.490   3.083
67594W        W34135  31.416  44.152  13.883
67595W        W34136  31.110  13.649  13.097
67596W        W34137  18.330   2.455   3.357
67597W        W34138  33.433   1.308  13.567
67598W        W34139   4.410  36.241  11.605
67599W        W34140   6.831   6.227   0.033
67600W        W34141  11.389  44.580  11.069
67601W        W34142  42.984   7.812   4.524
67602W        W34143  32.090  18.519  11.482
67603W        W34144  11.300  15.208   3.285
67604W        W34145  27.750  44.317  14.043
67605W        W34146  29.368  16.087   1.921
67606W        W34147  25.356  37.289   1.307
67607W        W34148  22.163   7.531  11.753
67608W        W34149  38.545  27.392   2.449
67609W        W34150  37.619   7.232  13.555
67610W        W34151   7.733   3.694   5.536
67611W        W34152   8.650  10.525   4.463
67612W        W34153  18.463  21.433  14.468
67613W        W34154  35.802  20.212   2.236
67614W        W34155  35.334   0.206  13.053
67615W        W34156  25.967  14.026  11.189
67616W        W34157  20.519  13.528   3.117
67617W        W34158  41.364  27.543   4.687
67618W        W34159  29.900  40.943   0.870
67619W        W34160   8.992  14.546  10.973
67620W        W34161  27.512  41.438  12.369
67621W        W34162  15.192   1.000  10.461
67622W        W34163  13.297  27.623  12.940
67623W        W34164   4.619  34.592   2.913
67624W        W34165  32.409   0.330  11.076
67625W        W34166  15.001  40.985   1.940
67626W        W34167  23.052  30.186  10.697
67627W        W34168  17.681  35.046  14.315
67628W        W34169  20.517  26.719  13.442
67629W        W34170   9.939  42.301   4.186
67630W        W34171  19.740  36.066  12.193
67631W        W34172  38.255  33.498  10.664
67632W        W34173   8.796  25.364   4.665
67633W        W34174  35.833  38.272   3.994
67634W        W34175   6.699  25.699   2.384
67635W        W34176   0.959  42.057   2.362
67636W        W34177  14.687  15.531  12.548
67637W        W34178  21.331   6.833  11.607
67638W        W34179  23.582  31.307   4.035
67639W        W34180   0.387  25.250   4.362
67640W        W34181  15.292  40.576  12.817
67641W        W34182   4.918  26.398   1.386
67642W        W34183  33.586  22.193  10.709
67643W        W34184  18.165  29.475   1.026
67644W        W34185  37.284   8.613   2.331
67645W        W34186   3.678  42.386   4.553
67646W        W34187  13.662  32.770  13.843
67647W        W34188  10.535  38.690   9.912
67648W        W34189  13.658  39.639   2.138
67649W        W34190   1.356  25.787   1.351
67650W        W34191  25.022  17.853  11.061
67651W        W34192  17.051  12.214  10.726
67652W        W34193   4.432  18.741   4.461
67653W        W34194  41.404  25.909  13.015
67654W        W34195  11.582  22.691  14.028
67655W        W34196   0.380  22.978  13.193
67656W        W34197   0.911   8.088  14.982
67657W        W34198   4.423  10.698   1.310
67658W        W34199   2.339  17.818   0.610
67659W        W34200  11.831   8.809   1.801
67660W        W34201  27.061  23.235   1.166
67661W        W34202   4.243  27.219  12.674
67662W        W34203  30.147  37.846  13.551
67663W        W34204  38.222  22.213   4.428
67664W        W34205  38.441  30.737   3.840
67665W        W34206  44.299   1.197   0.847
67666W        W34207  44.242   4.694   4.309
67667W        W34208  12.568   4.912   0.242
67668W        W34209   0.857   1.505  14.411
67669W        W34210  28.199  32.160  13.451
67670W        W34211  10.824  42.987  12.536
67671W        W34212   2.258  15.173  12.198
67672W        W34213  10.729  38.219  10.135
67673W        W34214   8.433  16.352   2.378
67674W        W34215  12.984  18.121  10.804
67675W        W34216  15.363   3.376   0.812
67676W        W34217  35.487  43.299   1.173
67677W        W34218   6.243   3.962  14.570
67678W        W34219  24.943  12.491  10.742
67679W        W34220  41.697  33.289   2.849
67680W        W34221  39.438   5.017   3.226
67681W        W34222  13.797   7.746  12.470
67682W        W34223   5.615  21.881  10.770
67683W        W34224  30.885  16.537  13.374
67684W        W34225   8.779  28.054  13.142
67685W        W34226  22.277   7.779   1.497
67686W        W34227  21.099  42.062  14.887
67687W        W34228  18.945  17.568   2.546
67688W        W34229   4.175  43.793   0.296
67689W        W34230  19.087  36.084  14.360
67690W        W34231  27.646   3.111  11.844
67691W        W34232  11.406  25.477  14.690
67692W        W34233   0.821  27.195  11.278
67693W        W34234  42.260  41.901  12.007
67694W        W34235   8.750   3.135  11.367
67695W        W34236  27.318  26.168   5.054
67696W        W34237  17.238  43.734   0.284
67697W        W34238  39.716  18.309  11.508
67698W        W34239  36.613   9.857   3.326
67699W        W34240  14.135  21.134  14.897
67700W        W34241  25.068  15.189  13.363
67701W        W34242  20.721  23.974   2.324
67702W        W34243  31.101   2.545  13.327
67703W        W34244  36.109  30.693   1.853
67704W        W34245  35.497  39.962   4.602
67705W        W34246   3.781   1.776   3.132
67706W        W34247   5.912  15.430   0.470
67707W        W34248  15.343  24.752  13.853
67708W        W34249  27.981   5.682  12.435
67709W        W34250  36.468  32.433  13.401
67710W        W34251   0.712  12.210  13.854
67711W        W34252   7.294  25.582  11.630
67712W        W34253  40.206  21.638   1.957
67713W        W34254  23.522  35.296  10.722
67714W        W34255  41.352  15.044  11.852
67715W        W34256  34.890  13.355  12.921
67716W        W34257  29.342  29.032   3.556
67717W        W34258  24.962  24.438   2.719
67718W        W34259  29.476  39.808   0.741
67719W        W34260  16.754  21.613   1.428
67720W        W34261  21.750  16.291   0.668
67721W        W34262  31.464  34.101   4.163
67722W        W34263  17.260  21.939  14.279
67723W        W34264  30.401  40.605   4.325
67724W        W34265  44.087  17.082   1.856
67725W        W34266  33.094  25.727  14.863
67726W        W34267  20.750  37.814   3.079
67727W        W34268  25.598   0.654  13.317
67728W        W34269  27.688  27.164  14.455
67729W        W34270  41.945   6.558   1.958
67730W        W34271  35.504  13.703  11.108
67731W        W34272  23.540  10.150   4.185
67732W        W34273  30.091  18.172   0.279
67733W        W34274  25.621  16.715  11.397
67734W        W34275   9.287  12.332   4.666
67735W        W34276  17.281  23.195  12.757
67736W        W34277  26.286  19.115  12.487
67737W        W34278  27.341  27.062   2.887
67738W        W34279  12.168  20.189   0.229
67739W        W34280  33.466   5.678  11.144
67740W        W34281   2.773  20.167  12.078
67741W        W34282  19.288  39.331  13.495
67742W        W34283  29.555  10.350  12.021
67743W        W34284   4.428   2.168  10.843
67744W        W34285  23.973  37.310  13.297
67745W        W34286  18.807  31.948  11.679
67746W        W34287  29.458   5.863  13.570
67747W        W34288  14.798  34.157   4.810
67748W        W34289   6.340  21.277   0.396
67749W        W34290  14.601   7.442  12.017
67750W        W34291  39.503  41.774   0.846
67751W        W34292   9.821  26.756  10.703
67752W        W34293   7.682  33.602   1.890
67753W        W34294  34.460   5.603  10.187
67754W        W34295   0.281  44.357   2.727
67755W        W34296  11.397  17.355   3.508
67756W        W34297   0.979  38.616  13.749
67757W        W34298  44.838  24.477  14.404
67758W        W34299  30.419  23.976  13.216
67759W        W34300  10.190  27.172   1.398
67760W        W34301  24.012  30.814   1.894
67761W        W34302  34.213  35.908   4.139
67762W        W34303  25.839   9.262  13.603
67763W        W34304  15.445  37.002   1.063
67764W        W34305  39.875  19.623  13.112
67765W        W34306  22.589  41.042   1.016
67766W        W34307  38.055   6.958  10.638
67767W        W34308  38.708  44.260  11.381
67768W        W34309   2.269  23.282  10.745
67769W        W34310   4.126  12.370   2.201
67770W        W34311  17.270  18.688   1.418
67771W        W34312  15.823  33.106  14.328
67772W        W34313  42.793  24.714  12.688
67773W        W34314  41.219  22.256   4.256
67774W        W34315  36.004  27.659  13.470
67775W        W34316   4.291   8.400   2.312
67776W        W34317  10.430  40.089  14.004
67777W        W34318  12.821  22.930   4.188
67778W        W34319  42.034  17.580  13.945
67779W        W34320   9.101  23.794  14.954
67780W        W34321  11.901  19.355   1.499
67781W        W34322  22.179  29.909  14.673
67782W        W34323  37.003  27.867  12.521
67783W        W34324  38.252   5.804   1.203
67784W        W34325  23.445  35.277   3.312
67785W        W34326   5.879  42.292  11.892
67786W        W34327   1.033  15.600  10.968
67787W        W34328   7.766  18.023   2.674
67788W        W34329  26.056  13.402   1.664
67789W        W34330   9.424  19.655  12.407
67790W        W34331  21.634   0.438  10.379
67791W        W34332   3.773  23.226  13.326
67792W        W34333  30.387   9.974  14.389
67793W        W34334  32.126  25.598  10.705
67794W        W34335   1.669  21.408  12.914
67795W        W34336  18.768  37.639  11.585
67796W        W34337  23.834  31.675  13.529
67797W        W34338   8.629  27.671  10.489
67798W        W34339  28.058  18.109  13.365
67799W        W34340   0.867  29.589   3.750
67800W        W34341   3.254  18.281  13.765
67801W        W34342   1.754  35.813  11.400
67802W        W34343   6.580  31.379  12.498
67803W        W34344  30.458   7.340   0.706
67804W        W34345  27.330  11.870  11.448
67805W        W34346  26.343  19.317   4.609
67806W        W34347  33.263  29.848   0.302
67807W        W34348  36.372   3.806   4.980
67808W        W34349   8.712  33.339  13.174
67809W        W34350   8.287  32.639   2.327
67810W        W34351   2.477   8.214   3.789
67811W        W34352  43.783   1.469  13.635
67812W        W34353  43.990   7.681  14.327
67813W        W34354  22.262  14.171  14.700
67814W        W34355   1.280  27.111  11.888
67815W        W34356  11.572   7.657   4.113
67816W        W34357  29.218  13.101  13.568
67817W        W34358   6.290  10.647  13.546
67818W        W34359  36.539  33.242  11.014
67819W        W34360  22.142  21.124   1.533
67820W        W34361   4.156  23.509   2.297
67821W        W34362  42.281  35.043   1.893
67822W        W34363  34.025   4.794  10.264
67823W        W34364  22.060  17.293  10.427
67824W        W34365  34.091   9.118  13.948
67825W        W34366   3.883  19.968   4.026
67826W        W34367  28.260  37.031  12.945
67827W        W34368   7.210  42.939   1.315
67828W        W34369   7.187  26.151   0.989
67829W        W34370  24.392  42.068   2.913
67830W        W34371  41.078  43.022   3.190
67831W        W34372  15.369   7.745  11.540
67832W        W34373   9.233  29.454   4.541
67833W        W34374  12.653  11.547  12.428
67834W        W34375  24.618  37.880   0.255
67835W        W34376   4.794  20.989  12.982
67836W        W34377  22.672   6.960   3.772
67837W        W34378  42.286  32.591  10.828
67838W        W34379  43.845  16.678  13.386
67839W        W34380  39.168  22.553   2.865
67840W        W34381  13.277  15.157  13.379
67841W        W34382  22.723   5.816   4.088
67842W        W34383  35.044   5.803   4.588
67843W        W34384   4.457  12.294  14.028
67844W        W34385  27.485  30.647   1.177
67845W        W34386  30.383  15.167   2.193
67846W        W34387  32.591  35.500  12.677
67847W        W34388  16.051  27.539   3.276
67848W        W34389  11.378   7.769  10.601
67849W        W34390  36.087  22.764   1.405
67850W        W34391  34.083  33.445  14.401
67851W        W34392  31.977  44.687   1.854
67852W        W34393   4.630   5.292  11.181
67853W        W34394  29.923  22.881  13.844
67854W        W34395  44.173  44.677  12.015
67855W        W34396  42.984  17.145  11.147
67856W        W34397  41.215  34.294  14.052
67857W        W34398  30.900  27.139  12.514
67858W        W34399  11.239   6.987   2.947
67859W        W34400  37.094  21.725   3.851
67860W        W34401   7.671  22.474  12.574
67861W        W34402  42.291   6.862  14.746
67862W        W34403  15.586  14.204   3.123
67863W        W34404  22.410  26.427  14.088
67864W        W34405  34.066  42.376  10.562
67865W        W34406  24.201  31.040  14.613
67866W        W34407  10.743   4.463   0.730
67867W        W34408  22.210  28.564   1.894
67868W        W34409  31.048  24.790   0.365
67869W        W34410  15.984  41.480   1.313
67870W        W34411  28.084  41.510   2.433
67871W        W34412  37.859  30.846   0.451
67872W        W34413  39.833   9.876  10.752
67873W        W34414  20.060  18.641   2.006
67874W        W34415  34.058  11.698  14.168
67875W        W34416  39.493   2.364  12.558
67876W        W34417  30.861   9.750  14.445
67877W        W34418   2.239   4.694  13.984
67878W        W34419  22.660   5.933   2.840
67879W        W34420  28.927  14.890  11.201
67880W        W34421  20.361  42.362   0.859
67881W        W34422   9.768  19.547  11.141
67882W        W34423  42.489  26.183  14.482
67883W        W34424  25.467  38.524   1.421
67884W        W34425  24.170  10.810  13.752
67885W        W34426  40.419  10.787   1.253
67886W        W34427  37.580  30.479  10.496
67887W        W34428  15.223  31.629   1.408
67888W        W34429  35.031  28.794   9.944
67889W        W34430  18.369  13.302   2.749
67890W        W34431   0.535  44.558   2.302
67891W        W34432  25.545  35.846  11.426
67892W        W34433   7.744  22.801   0.871
67893W        W34434  36.231   4.457  11.184
67894W        W34435  28.569  35.219   3.586
67895W        W34436  20.245  20.216   2.191
67896W        W34437   2.204  21.494  12.950
67897W        W34438  41.529  20.637  13.076
67898W        W34439  21.097  41.918  12.930
67899W        W34440  18.844  43.546  13.006
67900W        W34441  44.952  21.500   1.387
67901W        W34442  20.291  24.161   3.181
67902W        W34443  40.420  31.607   2.408
67903W        W34444  28.050   6.429  13.883
67904W        W34445  12.475  19.648  10.814
67905W        W34446  30.427   2.720  11.583
67906W        W34447  13.612   3.227   3.361
67907W        W34448  11.270   7.131   2.258
67908W        W34449  40.538  35.095  11.414
67909W        W34450  42.771  21.185  13.590
67910W        W34451  21.191  13.606  12.163
67911W        W34452   8.188  37.204  10.309
67912W        W34453  17.116  41.004  11.631
67913W        W34454  16.207   0.161   4.292
67914W        W34455   2.274  14.933   4.501
67915W        W34456  27.055  10.896  11.935
67916W        W34457  24.466  23.111  10.788
67917W        W34458  17.039  23.993  10.507
67918W        W34459  41.494  43.342   3.207
67919W        W34460  33.516   1.233   1.757
67920W        W34461  38.622  31.763   5.166
67921W        W34462  22.125  10.093  11.446
67922W        W34463   4.016  10.639   3.687
67923W        W34464   5.923   4.815  14.817
67924W        W34465   0.261  38.543   1.869
67925W        W34466   9.413   1.857   1.270
67926W        W34467   4.710  29.120   4.563
67927W        W34468   4.841  32.154   0.363
67928W        W34469  40.018  11.720   3.619
67929W        W34470  33.616  32.639  12.072
67930W        W34471  35.850   2.217  14.442
67931W        W34472  43.856  33.652   4.597
67932W        W34473  26.140  32.809   3.016
67933W        W34474  22.520  26.867  11.568
67934W        W34475  20.323  18.933   1.245
67935W        W34476  12.150  27.511   1.121
67936W        W34477  34.389  14.291  12.458
67937W        W34478  43.878   8.248   1.314
67938W        W34479  17.266   1.043   2.310
67939W        W34480  33.836   1.331   3.102
67940W        W34481  33.806   1.786   3.349
67941W        W34482  23.564  10.603   3.861
67942W        W34483  18.307   1.231  12.506
67943W        W34484   3.442   0.197   5.700
67944W        W34485   1.641  24.934   4.525
67945W        W34486   4.833  31.057   3.823
67946W        W34487  14.162   8.117  12.481
67947W        W34488  12.110  11.149  12.156
67948W        W34489   8.977  36.930  13.385
67949W        W34490  31.060  13.783   0.762
67950W        W34491  43.237  21.682   1.185
67951W        W34492  34.229   2.436   1.551
67952W        W34493   1.176  30.406  13.683
67953W        W34494  20.916  15.157   2.885
67954W        W34495   9.225  14.642  14.842
67955W        W34496  42.968   1.644   4.592
67956W        W34497  22.802  10.204  14.940
67957W        W34498   1.969  19.832  14.348
67958W        W34499  42.874  14.578   3.658
67959W        W34500   9.143  18.138  14.416
67960W        W34501  41.374   8.164   4.044
67961W        W34502  30.571  10.252  10.646
67962W        W34503  27.064  13.909  11.352
67963W        W34504  12.350  15.324  13.515
67964W        W34505  27.575  40.533   4.913
67965W        W34506   9.691   6.318   2.424
67966W        W34507   1.914  29.377  11.668
67967W        W34508  28.186   0.232   4.694
67968W        W34509  15.672  22.526  14.030
67969W        W34510  41.880  44.521  13.510
67970W        W34511  44.792  15.300  12.493
67971W        W34512  23.604  28.001  13.114
67972W        W34513  39.418  16.693   1.247
67973W        W34514   2.179  11.688   4.533
67974W        W34515  34.083  12.812   2.703
67975W        W34516  21.099  40.599   1.399
67976W        W34517  11.720  36.865   0.066
67977W        W34518   7.771   5.498   1.362
67978W        W34519  28.585  11.665  14.915
67979W        W34520  19.664   8.475  12.072
67980W        W34521  11.643   8.498  14.525
67981W        W34522  26.396  16.239  14.874
67982W        W34523   2.267  11.450   1.446
67983W        W34524  20.065   1.726   0.403
67984W        W34525  19.591  42.008   1.011
67985W        W34526  19.815   0.964  11.524
67986W        W34527  23.703  11.691  13.480
67987W        W34528  34.096  41.554   2.603
67988W        W34529  37.012  30.479   0.194
67989W        W34530  21.463  37.578   5.029
67990W        W34531  38.620   8.839   4.313
67991W        W34532   7.910  17.607  13.577
67992W        W34533  40.237   2.873  13.946
67993W        W34534  11.650  23.230   1.747
67994W        W34535   5.315  23.762   1.884
67995W        W34536  15.759   3.598  13.938
67996W        W34537  39.328  18.621   2.248
67997W        W34538   9.465  37.855   2.128
67998W        W34539   0.443  28.622   1.254
67999W        W34540  35.014  23.807   2.749
68000W        W34541  11.731   5.407   1.894
68001W        W34542  27.036  43.785  14.847
68002W        W34543  39.950  12.122  10.290
68003W        W34544  18.156  21.645   1.292
68004W        W34545  44.722  41.226  12.820
68005W        W34546  44.457  15.814   1.781
68006W        W34547  26.525   6.119  13.116
68007W        W34548   0.066  44.755   4.752
68008W        W34549   5.320   3.492   0.827
68009W        W34550   4.861  10.658  13.556
68010W        W34551  10.039  19.643  10.213
68011W        W34552  16.628   8.173   0.463
68012W        W34553  32.123  22.182   1.952
68013W        W34554  25.951   7.509   2.780
68014W        W34555  43.608   8.756   4.581
68015W        W34556  19.323  12.711   1.741
68016W        W34557  41.109  34.978  12.896
68017W        W34558  11.835  34.489   2.178
68018W        W34559  28.516   7.243   2.922
68019W        W34560  33.199   9.795  10.402
68020W        W34561   4.906   9.871  10.982
68021W        W34562  39.537  35.100   1.813
68022W        W34563  34.864  10.347   0.789
68023W        W34564  14.354  29.672  10.679
68024W        W34565  36.525  28.429  11.536
68025W        W34566  34.514  31.743   4.618
68026W        W34567   4.773  14.334  13.484
68027W        W34568  12.639  19.141  11.587
68028W        W34569  22.435   7.190   3.352
68029W        W34570   9.450  24.703  14.749
68030W        W34571   7.453  14.333   0.370
68031W        W34572  32.774  10.290  14.368
68032W        W34573  27.875  20.847  11.528
68033W        W34574  43.922  40.517   2.149
68034W        W34575   8.957  30.070   1.745
68035W        W34576   2.931  41.590   3.778
68036W        W34577   8.395  40.026   4.602
68037W        W34578  19.182   0.188   0.401
68038W        W34579   9.889  43.728  13.905
68039W        W34580  43.672  34.849   1.924
68040W        W34581  39.580  20.413   0.789
68041W        W34582  25.323   0.279   1.960
68042W        W34583  17.242  42.768  14.538
68043W        W34584  23.194  25.686   2.873
68044W        W34585  33.089  20.607   1.931
68045W        W34586  30.473  41.533   1.305
68046W        W34587  42.453  25.844   4.417
68047W        W34588  30.411   8.244  14.843
68048W        W34589  32.408  31.987   2.924
68049W        W34590  30.013  44.321  14.323
68050W        W34591  44.515  21.026  11.079
68051W        W34592  12.569  24.503  12.434
68052W        W34593  34.675  12.266  13.809
68053W        W34594  20.758  26.223  14.390
68054W        W34595  11.370  33.258   0.729
68055W        W34596   2.233  11.213  12.966
68056W        W34597   3.924  11.551  13.077
68057W        W34598  21.494  24.081  12.605
68058W        W34599  23.606  24.721  14.119
68059W        W34600  39.126   0.919   0.785
68060W        W34601  32.822   9.440  14.121
68061W        W34602  25.090  19.282  12.151
68062W        W34603   3.137  28.776  10.564
68063W        W34604  20.580   9.779   3.720
68064W        W34605   4.574   3.439   4.350
68065W        W34606  26.611  33.496   2.705
68066W        W34607  10.952  36.658   2.292
68067W        W34608  37.658  43.744  11.627
68068W        W34609  36.103  37.374   4.594
68069W        W34610   4.951  33.224  12.990
68070W        W34611  40.303  26.580  14.543
68071W        W34612  30.056  25.668   3.902
68072W        W34613   3.831  17.119  13.834
68073W        W34614  41.453  17.795   2.932
68074W        W34615  23.581   8.261  11.636
68075W        W34616   8.374  24.629   4.689
68076W        W34617   4.478   5.405   1.833
68077W        W34618  35.536  36.132  14.227
68078W        W34619  29.588  18.634   0.404
68079W        W34620   5.503  28.024   3.268
68080W        W34621  37.658  42.857   0.773
68081W        W34622  32.967  18.024  14.836
68082W        W34623  25.119   6.129   0.366
68083W        W34624   6.099   4.909   0.313
68084W        W34625   7.243  18.286  10.436
68085W        W34626  13.064  12.899  12.280
68086W        W34627  32.304  17.354  12.390
68087W        W34628  26.458  18.142   0.557
68088W        W34629  33.352  22.112   0.483
68089W        W34630  21.623  29.234   0.939
68090W        W34631  23.032  36.843   0.549
68091W        W34632  16.983   3.983  10.821
68092W        W34633  10.712   2.526   0.929
68093W        W34634  31.821  33.301   1.295
68094W        W34635   9.351   5.026  10.333
68095W        W34636  42.969  30.881   0.874
68096W        W34637  33.696  15.550  14.623
68097W        W34638   1.491  36.388   3.614
68098W        W34639  37.026  12.179   3.230
68099W        W34640  11.072   7.695  12.992
68100W        W34641  44.888   8.738   1.013
68101W        W34642   8.372  37.515  11.556
68102W        W34643   5.380  30.601   5.083
68103W        W34644  33.514  42.957   0.301
68104W        W34645  10.628  20.573  14.177
68105W        W34646  39.389  11.636   2.202
68106W        W34647   5.217  29.028   4.284
68107W        W34648   8.439  15.645  13.315
68108W        W34649  29.159   1.168  10.863
68109W        W34650  39.035  42.861   0.273
68110W        W34651   7.310  38.878  12.503
68111W        W34652  22.970  22.751  14.571
68112W        W34653  15.266  42.473  14.021
68113W        W34654  20.051   2.276   0.349
68114W        W34655  41.238  20.282  13.943
68115W        W34656  31.920  25.215   1.460
68116W        W34657  40.085   3.748  14.057
68117W        W34658  15.567  39.191   5.014
68118W        W34659  30.945  18.709   2.125
68119W        W34660  30.576  23.988  13.780
68120W        W34661  22.734  28.577   3.760
68121W        W34662   2.237  12.646   1.920
68122W        W34663   3.293  14.379  13.319
68123W        W34664   9.786  14.225   2.485
68124W        W34665  26.414  38.888   4.188
68125W        W34666  35.054  30.036  11.917
68126W        W34667  20.331  35.063  11.679
68127W        W34668  34.875  28.513  13.038
68128W        W34669   1.986  27.585  12.544
68129W        W34670  22.988  29.151  10.719
68130W        W34671  41.528  12.586  10.899
68131W        W34672  22.657   6.822   4.298
68132W        W34673   2.155  42.820   4.808
68133W        W34674  43.973   8.281  13.115
68134W        W34675  12.732   2.371   3.221
68135W        W34676  20.727   1.177   3.838
68136W        W34677  30.962   7.993   3.348
68137W        W34678   8.941  40.981  10.386
68138W        W34679  42.268   6.326   4.318
68139W        W34680  42.423  27.276   0.744
68140W        W34681   0.933  34.627   4.763
68141W        W34682  17.570  32.547   3.420
68142W        W34683  18.784  11.046  11.082
68143W        W34684  34.871  13.704   3.651
68144W        W34685  25.184  26.579   3.914
68145W        W34686   4.750  17.210   5.387
68146W        W34687  11.386  19.700  11.054
68147W        W34688  31.438  28.908   3.593
68148W        W34689  28.017  30.102   3.601
68149W        W34690  36.650   9.246  10.984
68150W        W34691  21.611  42.326  13.064
68151W        W34692  41.938  23.197   1.241
68152W        W34693  11.974  42.589   4.976
68153W        W34694  19.302  37.431  10.766
68154W        W34695  19.540  43.582   4.162
68155W        W34696  25.558  32.107  10.642
68156W        W34697  15.609   7.743   0.465
68157W        W34698   8.260  35.732  12.998
68158W        W34699   7.626   9.343   2.267
68159W        W34700  35.215  40.739  13.235
68160W        W34701  37.758  36.624  13.988
68161W        W34702  31.904  36.417   4.215
68162W        W34703  11.257  32.674  10.451
68163W        W34704  27.412  20.681   1.785
68164W        W34705  37.792  26.482  13.186
68165W        W34706   3.983   1.187   4.478
68166W        W34707  35.616  17.850   4.620
68167W        W34708  21.815  40.080   3.831
68168W        W34709  13.242  20.463  12.509
68169W        W34710  29.389  31.737   1.514
68170W        W34711  17.595   2.886   2.299
68171W        W34712  40.969  29.125   1.784
68172W        W34713  24.962  37.236  12.946
68173W        W34714  29.965  18.583  14.972
68174W        W34715  29.902  37.895  12.199
68175W        W34716  11.750  27.242   4.069
68176W        W34717   2.717  20.107  12.605
68177W        W34718  22.529   9.888  13.851
68178W        W34719   1.582  29.535   5.435
68179W        W34720  34.309   5.232   3.602
68180W        W34721  41.061  26.085  12.027
68181W        W34722  40.515   8.383  14.794
68182W        W34723  12.413  28.620  14.711
68183W        W34724  25.962  28.061  13.474
68184W        W34725  18.067  34.630   1.149
68185W        W34726   6.937  33.884   0.808
68186W        W34727  15.892  24.122   2.376
68187W        W34728  39.458  23.499  14.400
68188W        W34729   4.449  38.393  11.227
68189W        W34730   8.560  32.550   0.495
68190W        W34731  44.246  43.986  10.970
68191W        W34732  33.409  36.441  13.370
68192W        W34733  23.951   1.940   0.888
68193W        W34734  43.897   7.285   3.159
68194W        W34735  30.020  29.646   3.556
68195W        W34736   5.513  15.181   2.271
68196W        W34737   5.558  24.041   2.268
68197W        W34738   0.292  33.363   0.638
68198W        W34739  18.593  40.942  10.653
68199W        W34740   8.954   6.367  14.488
68200W        W34741  34.804  44.514   2.671
68201W        W34742  28.489  42.724  10.717
68202W        W34743   1.909  38.061   0.735
68203W        W34744   3.459  14.416  10.666
68204W        W34745  33.122  23.205  11.508
68205W        W34746  32.006  25.599  11.545
68206W        W34747  15.847  22.021   0.286
68207W        W34748  34.457  38.820  12.490
68208W        W34749  16.518  22.539  12.931
68209W        W34750  10.737  34.073   4.539
68210W        W34751  31.668  12.825  12.957
68211W        W34752  15.271  15.590  13.324
68212W        W34753  29.573  36.502  12.113
68213W        W34754  35.583  29.019   2.643
68214W        W34755  25.646   0.018  14.251
68215W        W34756  29.521  20.015   0.401
68216W        W34757   7.459  18.802   1.325
68217W        W34758   9.510  21.912  13.967
68218W        W34759  30.510  42.635  13.959
68219W        W34760  30.252  33.008   3.379
68220W        W34761   3.780   8.617  10.763
68221W        W34762   1.002   9.184   2.190
68222W        W34763   2.955   5.706   4.261
68223W        W34764  12.309  30.017   4.426
68224W        W34765  36.648  22.322  10.307
68225W        W34766  32.071   1.273  12.172
68226W        W34767  21.427  21.515  13.388
68227W        W34768   7.091  23.564  14.534
68228W        W34769  38.068  37.143   2.235
68229W        W34770  43.920   8.233   3.835
68230W        W34771  19.000   6.272  14.275
68231W        W34772  14.867  15.694  14.396
68232W        W34773   2.337   8.921  14.369
68233W        W34774   3.241  13.296   5.198
68234W        W34775  17.786  33.004  13.537
68235W        W34776  33.102  17.356   3.927
68236W        W34777  11.249  16.677  10.877
68237W        W34778  33.892  41.758  14.551
68238W        W34779  27.083  12.238   1.063
68239W        W34780  34.497  10.709   0.680
68240W        W34781  41.571   7.351  13.898
68241W        W34782  15.688  35.777  12.651
68242W        W34783  38.852  16.216  11.491
68243W        W34784  19.043  33.583   0.284
68244W        W34785   3.931  16.577   3.072
68245W        W34786   0.847  36.152   3.758
68246W        W34787  40.320  26.101   2.931
68247W        W34788  34.511   3.849  14.287
68248W        W34789  33.482  21.014   1.230
68249W        W34790  18.195  20.037  12.972
68250W        W34791  12.155  39.897   3.200
68251W        W34792   7.693   0.728   1.938
68252W        W34793  31.890   5.954   2.828
68253W        W34794  44.964  43.893   2.854
68254W        W34795  19.199  19.815  13.979
68255W        W34796  15.886  44.009  12.062
68256W        W34797  33.793  16.482  13.016
68257W        W34798  27.900  15.782   4.220
68258W        W34799   8.971  14.095  12.558
68259W        W34800   9.903  16.530  10.988
68260W        W34801  19.497  37.538   5.108
68261W        W34802   2.740  37.904  14.992
68262W        W34803  34.147  23.927   1.340
68263W        W34804  10.656  28.530   0.842
68264W        W34805   6.257  17.188  12.156
68265W        W34806  36.191  25.155  12.368
68266W        W34807  23.756  20.710  10.874
68267W        W34808   5.927  27.578   1.833
68268W        W34809  26.195  37.416  14.922
68269W        W34810  18.812   2.066   1.218
68270W        W34811  27.798   3.946  12.154
68271W        W34812   5.921   4.580   2.952
68272W        W34813  38.982  18.103   0.224
68273W        W34814  19.605  36.667   2.319
68274W        W34815  15.138  11.863   2.406
68275W        W34816  36.479   6.892   3.141
68276W        W34817  20.734  27.512   3.257
68277W        W34818   3.010  19.249  12.574
68278W        W34819   3.731  40.999   0.684
68279W        W34820  36.419  16.171   2.714
68280W        W34821  22.513  18.916   2.706
68281W        W34822  24.610  21.759  10.709
68282W        W34823  37.521   3.953   4.104
68283W        W34824  36.171   9.019  13.535
68284W        W34825  34.544   2.168  13.443
68285W        W34826  28.409  40.250  12.905
68286W        W34827   4.010   2.483  10.782
68287W        W34828  34.026   0.772  14.399
68288W        W34829  41.834  36.778  12.618
68289W        W34830  17.740  29.809   0.865
68290W        W34831  14.286  12.740   2.895
68291W        W34832  23.179   5.605  11.239
68292W        W34833   6.712   1.797  11.090
68293W        W34834  39.454   7.426  10.491
68294W        W34835  15.168  32.089   0.475
68295W        W34836   6.329  30.900  11.398
68296W        W34837  36.777  43.453  13.814
68297W        W34838  19.965  43.979  14.002
68298W        W34839   2.162   6.737   2.488
68299W        W34840   7.272  32.055   0.308
68300W        W34841  23.548  20.258  10.638
68301W        W34842  13.184  35.664   4.095
68302W        W34843  17.970  32.029   4.196
68303W        W34844  12.986   4.227  11.618
68304W        W34845  27.977   0.839   3.048
68305W        W34846  16.902  30.435   2.928
68306W        W34847  37.104  11.602   1.751
68307W        W34848  10.544   5.888  14.062
68308W        W34849  20.838  32.932  13.939
68309W        W34850  22.125  20.799  13.328
68310W        W34851  16.804  20.677   2.153
68311W        W34852  44.834  26.624  13.081
68312W        W34853  26.285  41.347  12.966
68313W        W34854   1.975  42.850   1.165
68314W        W34855   3.780  31.574   2.864
68315W        W34856  24.789  30.519   2.750
68316W        W34857   9.214  12.205  12.556
68317W        W34858  40.088  16.604  12.573
68318W        W34859  13.726  42.950  10.625
68319W        W34860  24.459  40.843   2.209
68320W        W34861  31.895  19.456  11.807
68321W        W34862   7.010  25.061  13.931
68322W        W34863   1.420  14.820   3.275
68323W        W34864  18.577  32.551  13.437
68324W        W34865  33.818   1.626   4.269
68325W        W34866  32.407  14.842  12.604
68326W        W34867  21.682  11.454  14.244
68327W        W34868  20.091  13.577   0.251
68328W        W34869  38.473  34.331  14.347
68329W        W34870  32.741   2.915   0.236
68330W        W34871  19.559   1.408   4.613
68331W        W34872  38.015  19.023  12.057
68332W        W34873   5.477  20.364   1.249
68333W        W34874  42.866   2.343   4.602
68334W        W34875  10.009   7.241  11.664
68335W        W34876   9.864  19.088  10.886
68336W        W34877  28.516  27.541  12.472
68337W        W34878  42.714  23.490  14.532
68338W        W34879  30.898  27.999  10.813
68339W        W34880  26.588  34.563   1.531
68340W        W34881  19.289   8.351   0.939
68341W        W34882   9.846  18.640   1.963
68342W        W34883  38.065  31.540  11.664
68343W        W34884  23.719   8.812   3.190
68344W        W34885  15.880  11.666  10.135
68345W        W34886  16.738  42.328   1.098
68346W        W34887   5.003  43.942  10.589
68347W        W34888  32.987  20.473   3.321
68348W        W34889  24.946  43.132  11.029
68349W        W34890  27.396  21.615  11.179
68350W        W34891  25.621  36.782   0.269
68351W        W34892  25.719  28.169   0.390
68352W        W34893  12.259  24.410   2.720
68353W        W34894  10.543  27.069  10.972
68354W        W34895   0.311   8.888  12.911
68355W        W34896   7.831  24.201  11.631
68356W        W34897  23.271  19.911   2.256
68357W        W34898  25.073  29.359   0.809
68358W        W34899  39.799  31.470   3.189
68359W        W34900   5.638  16.504  12.486
68360W        W34901  27.110  22.292  14.506
68361W        W34902  20.117  35.572   1.342
68362W        W34903  11.159  32.538   1.377
68363W        W34904  33.830  17.931   1.610
68364W        W34905  33.058  10.298  14.958
68365W        W34906  14.175  11.564   4.204
68366W        W34907  25.107  17.911   1.171
68367W        W34908  10.254   5.984   0.334
68368W        W34909   2.951  27.045   0.511
68369W        W34910  32.659  31.439  11.568
68370W        W34911  39.293  27.035  11.083
68371W        W34912  33.727   7.997   3.137
68372W        W34913  17.958  12.859  12.011
68373W        W34914   2.766  14.988  12.065
68374W        W34915  27.454  27.097  13.066
68375W        W34916  31.444  29.408  10.659
68376W        W34917   3.516   8.621  13.285
68377W        W34918  38.000  44.192   1.435
68378W        W34919  34.996  42.987   2.837
68379W        W34920  33.039  12.556  13.144
68380W        W34921  29.455  25.711  11.950
68381W        W34922  22.165  10.263   4.448
68382W        W34923   5.520  41.419   0.626
68383W        W34924  25.149  40.068  12.416
68384W        W34925  12.717  25.720   3.149
68385W        W34926  18.467  31.276  10.071
68386W        W34927  26.222  44.190   3.563
68387W        W34928  22.829  38.825   4.162
68388W        W34929  20.449  39.407  12.878
68389W        W34930  14.033  23.693   3.815
68390W        W34931  14.251  36.300  10.442
68391W        W34932  23.634  18.498  14.047
68392W        W34933  25.899  34.876   0.936
68393W        W34934  42.060   1.449  11.517
68394W        W34935  18.571  32.415   2.276
68395W        W34936  32.259  29.700  11.062
68396W        W34937  20.267  24.242  12.921
68397W        W34938  18.594  39.870  13.584
68398W        W34939  11.448  16.789  11.350
68399W        W34940  35.545   8.268  12.052
68400W        W34941  39.752  10.391  14.807
68401W        W34942  11.467  32.655  14.379
68402W        W34943  23.824  15.285   4.128
68403W        W34944  16.041  15.305  10.742
68404W        W34945  38.470   3.618  14.876
68405W        W34946   7.463   7.237  14.770
68406W        W34947  35.669  25.369  12.357
68407W        W34948  10.535   7.208  12.179
68408W        W34949   1.478  42.495   2.929
68409W        W34950  34.855  10.904  13.072
68410W        W34951  17.173  44.492   0.768
68411W        W34952  12.364   1.754   1.630
68412W        W34953  31.829  32.303   3.592
68413W        W34954   0.435   7.917   2.789
68414W        W34955  17.280   2.778   0.338
68415W        W34956  26.977  14.534   1.272
68416W        W34957  31.958  28.179   3.508
68417W        W34958   1.044   6.064  10.476
68418W        W34959  41.437  26.329   4.647
68419W        W34960   7.895  15.780  13.999
68420W        W34961  20.260  14.909  10.553
68421W        W34962  19.016   3.281   2.346
68422W        W34963  29.882  26.987  11.005
68423W        W34964  13.673  33.530  10.798
68424W        W34965  17.840  23.105  13.530
68425W        W34966  32.564  11.307   3.287
68426W        W34967   0.690  15.451  14.357
68427W        W34968  37.869  25.146  12.123
68428W        W34969   5.812  28.468  12.105
68429W        W34970  22.064  33.937  14.265
68430W        W34971  41.825   9.467  12.133
68431W        W34972  40.059  20.457   3.133
68432W        W34973  27.599  15.550   2.767
68433W        W34974  27.695   2.415  12.840
68434W        W34975  16.301   8.134  13.710
68435W        W34976  35.038  20.479   4.598
68436W        W34977   7.419  10.180  10.674
68437W        W34978  27.948  36.593  14.821
68438W        W34979   3.863   4.450  10.378
68439W        W34980   1.789  12.653  12.492
68440W        W34981   9.161  12.147  10.416
68441W        W34982   6.311  43.707  11.564
68442W        W34983   4.292  13.874   2.200
68443W        W34984   3.604  16.832  11.233
68444W        W34985  12.807  38.477  12.904
68445W        W34986  10.511   8.570   4.791
68446W        W34987  24.439  37.307  13.500
68447W        W34988  32.383  41.926   3.555
68448W        W34989   3.523  37.946   2.152
68449W        W34990   6.957  30.133   1.545
68450W        W34991  22.628  35.811   1.259
68451W        W34992  27.416  23.836  11.572
68452W        W34993   0.028  28.604   0.943
68453W        W34994   1.823   7.399  12.368
68454W        W34995   5.725  40.747  12.826
68455W        W34996   7.930  17.154   1.974
68456W        W34997  38.018  23.179   2.183
68457W        W34998  39.876  31.504   1.021
68458W        W34999  36.955  13.774  10.288
68459W        W35000  23.722  15.309  13.364
68460W        W35001  23.157  41.612  13.232
68461W        W35002  36.916   4.159   1.207
68462W        W35003   6.406  16.226  11.230
68463W        W35004  35.003  34.461  11.877
68464W        W35005   8.164   7.303  10.791
68465W        W35006  11.333  15.780  11.134
68466W        W35007  19.294  32.605   2.022
68467W        W35008  22.094  39.602  12.999
68468W        W35009  26.673  37.396  12.075
68469W        W35010  27.722  40.060  14.018
68470W        W35011  30.567  35.322   2.734
68471W        W35012  15.714  23.191   0.744
68472W        W35013  35.287  31.435   0.402
68473W        W35014  28.127  25.846  11.548
68474W        W35015   0.465   4.731  14.952
68475W        W35016  33.733  23.727  13.033
68476W        W35017  20.371  16.532  11.086
68477W        W35018  25.156  31.836   4.226
68478W        W35019  14.382   0.640  10.270
68479W        W35020   8.799   5.268  13.559
68480W        W35021  16.022  11.848  11.529
68481W        W35022  17.421  29.135   4.887
68482W        W35023  13.822   0.865  11.542
68483W        W35024  38.054  36.543   0.023
68484W        W35025  20.688   3.043  12.118
68485W        W35026  21.676   3.592  12.621
68486W        W35027  20.077   1.960  14.325
68487W        W35028   7.687  12.249   0.054
68488W        W35029  28.167   9.290  13.067
68489W        W35030  17.812   2.988  13.423
68490W        W35031  20.289  20.414   1.652
68491W        W35032  32.944  37.329  14.396
68492W        W35033  35.172   6.017  13.441
68493W        W35034   8.460  12.290   1.206
68494W        W35035  40.937  26.444   3.437
68495W        W35036  15.869  18.170   0.790
68496W        W35037  13.672  43.238   2.630
68497W        W35038  36.324  12.646   0.939
68498W        W35039  16.360  23.512  11.219
68499W        W35040  13.757   6.560  14.291
68500W        W35041   1.556  20.929   2.647
68501W        W35042   9.403  23.932   2.351
68502W        W35043  17.245  42.536  11.564
68503W        W35044   7.935  32.006  11.054
68504W        W35045  10.806   6.854   2.204
68505W        W35046  11.930  36.981   1.890
68506W        W35047  31.876  33.124  11.909
68507W        W35048  24.401  38.115  13.844
68508W        W35049  12.855  32.955  10.555
68509W        W35050  43.290  43.437   3.402
68510W        W35051  24.605  10.660  11.174
68511W        W35052  42.759  15.329   0.352
68512W        W35053   2.663   4.372   3.302
68513W        W35054  26.691  29.216   3.400
68514W        W35055  11.608  44.220  14.502
68515W        W35056  40.362   5.391   2.730
68516W        W35057   7.386  18.126   0.563
68517W        W35058  30.332  22.078  11.977
68518W        W35059  33.189  39.038   2.795
68519W        W35060   6.033  25.075  14.951
68520W        W35061  16.742  14.420  10.113
68521W        W35062   8.473  39.085  10.753
68522W        W35063  28.459  31.148   1.677
68523W        W35064  29.506   6.332  11.694
68524W        W35065  20.321  29.721  11.073
68525W        W35066   1.242  37.666   1.668
68526W        W35067   0.337  34.546  10.716
68527W        W35068  29.937  16.699   3.902
68528W        W35069  10.292  19.278   3.216
68529W        W35070   1.879   6.900   4.206
68530W        W35071  24.682  39.018  12.896
68531W        W35072   3.912  39.909   3.652
68532W        W35073   2.706  26.575  11.577
68533W        W35074  23.595  28.509   3.917
68534W        W35075   7.807  26.268   4.591
68535W        W35076   2.281  22.534   0.168
68536W        W35077  40.937   6.588  14.948
68537W        W35078   7.364  19.429  12.427
68538W        W35079  22.626  39.352   0.628
68539W        W35080   1.921  41.962   1.469
68540W        W35081  12.541  17.713  12.472
68541W        W35082  35.002  42.318  12.902
68542W        W35083   1.243   8.895  10.552
68543W        W35084  25.036  40.922   4.570
68544W        W35085  30.698   1.196   2.402
68545W        W35086  38.969  20.307  12.509
68546W        W35087  42.417  16.004  13.470
68547W        W35088  20.872  29.629  11.689
68548W        W35089  16.420  15.518   2.238
68549W        W35090  37.902  13.184   3.309
68550W        W35091  19.787   1.222   0.849
68551W        W35092  42.359   0.176  14.538
68552W        W35093  20.210   0.187   2.265
68553W        W35094   5.927   5.243   4.255
68554W        W35095  13.086   3.814  14.303
68555W        W35096  14.636  13.375  11.474
68556W        W35097  27.105  30.435  11.708
68557W        W35098  25.386  33.355   3.241
68558W        W35099  23.096  15.742   2.610
68559W        W35100  37.314  22.980   2.703
68560W        W35101  39.364  28.610  12.833
68561W        W35102  36.918   1.973   3.538
68562W        W35103  38.895  21.686   0.695
68563W        W35104  33.414  34.510  12.895
68564W        W35105  13.222  18.716   2.236
68565W        W35106  24.960  30.732  13.447
68566W        W35107  11.325   7.751  14.781
68567W        W35108  23.644  31.809   4.053
68568W        W35109  20.196   1.574  13.434
68569W        W35110  42.789  20.328   4.403
68570W        W35111  25.175  14.031   4.513
68571W        W35112  28.397   5.830  12.729
68572W        W35113  29.069  15.747   3.864
68573W        W35114   6.843   6.775   2.773
68574W        W35115  13.281   1.450  12.273
68575W        W35116   9.862   4.929  10.342
68576W        W35117  11.830  26.947  13.781
68577W        W35118   9.329  36.165   2.586
68578W        W35119  17.638  23.530  12.381
68579W        W35120   7.954   3.949   1.344
68580W        W35121  29.618  36.957   1.383
68581W        W35122  37.326  17.423  12.964
68582W        W35123  33.401  44.442  11.512
68583W        W35124  16.865  18.347  12.878
68584W        W35125  41.724  37.423  11.673
68585W        W35126  31.154   2.415   2.248
68586W        W35127  40.566  13.843  13.995
68587W        W35128  33.436  42.371  13.440
68588W        W35129   4.097   3.312   4.181
68589W        W35130  35.786  14.551  10.714
68590W        W35131   4.007  34.838  13.214
68591W        W35132  12.275   1.062  14.025
68592W        W35133  43.370  42.245  14.122
68593W        W35134  22.318   4.025  10.668
68594W        W35135   3.381   5.713   0.053
68595W        W35136  39.907  23.310  14.219
68596W        W35137   7.880  17.585   1.217
68597W        W35138  18.725  43.962  12.747
68598W        W35139  20.543  10.192  14.912
68599W        W35140   1.979  12.672  10.809
68600W        W35141  23.129  13.187   2.456
68601W        W35142  33.433  15.101   0.872
68602W        W35143   8.774   4.182  14.801
68603W        W35144  39.556  24.491   4.492
68604W        W35145  37.229  14.691  14.904
68605W        W35146  12.922  14.400   1.221
68606W        W35147  19.073  16.123  13.914
68607W        W35148  13.818  22.812  12.437
68608W        W35149   5.893  19.665   0.215
68609W        W35150   8.928  28.472   2.777
68610W        W35151   8.787  22.628  13.909
68611W        W35152  15.673  12.268  10.164
68612W        W35153  39.788  28.884  11.123
68613W        W35154  33.079  13.492  10.388
68614W        W35155  16.268  18.996   0.610
68615W        W35156  27.489  25.740   3.620
68616W        W35157   7.313  28.202   4.847
68617W        W35158  25.036  28.706   2.809
68618W        W35159  10.681  16.646   1.138
68619W        W35160  24.727   7.354   4.220
68620W        W35161   0.832  23.792   0.033
68621W        W35162  33.049   7.720  14.125
68622W        W35163  41.540  36.938  14.978
68623W        W35164  32.525  19.287   4.592
68624W        W35165  37.744  12.237  14.076
68625W        W35166  24.173   4.725   2.855
68626W        W35167  25.601  18.560   0.814
68627W        W35168   8.873  25.063  13.361
68628W        W35169  44.971  22.150   4.771
68629W        W35170  39.500  25.937   1.886
68630W        W35171   5.247  24.432  12.814
68631W        W35172  32.166   6.880   1.909
68632W        W35173  34.045   9.918  11.170
68633W        W35174   7.193  32.610   4.201
68634W        W35175  39.380   6.110   0.732
68635W        W35176   2.504  27.133  12.468
68636W        W35177  17.734  20.643   2.296
68637W        W35178  22.606  31.786  14.588
68638W        W35179  25.851  35.853  12.165
68639W        W35180  41.864  12.248   4.655
68640W        W35181  23.183  43.695  14.718
68641W        W35182  19.669   4.895   0.817
68642W        W35183  36.474   8.180  11.907
68643W        W35184  11.660  32.364  13.022
68644W        W35185  25.163  34.416   3.970
68645W        W35186  25.536  22.545   3.771
68646W        W35187   9.708   1.248   3.308
68647W        W35188  33.359  11.209   4.004
68648W        W35189  17.859   9.122   3.854
68649W        W35190  43.449   8.125   1.740
68650W        W35191  23.138  33.023   1.423
68651W        W35192  15.615   7.385  10.718
68652W        W35193  35.466  33.097  11.023
68653W        W35194   8.443  35.116  13.806
68654W        W35195  27.251  13.539   2.718
68655W        W35196   6.872  19.524   4.180
68656W        W35197  34.004  43.761  14.337
68657W        W35198  43.224   0.941   3.257
68658W        W35199  36.608  41.605  11.561
68659W        W35200  44.336   9.899   4.061
68660W        W35201  36.220  35.566   3.389
68661W        W35202  25.094  13.153  12.171
68662W        W35203  34.411  43.938  14.573
68663W        W35204  37.415  20.646  13.584
68664W        W35205   2.860  22.225  14.411
68665W        W35206  10.152   0.834  11.587
68666W        W35207  22.183  18.813   3.171
68667W        W35208   8.334  37.475  13.979
68668W        W35209   6.803  37.412  10.672
68669W        W35210  11.207   2.905   0.222
68670W        W35211  10.693  18.496   2.337
68671W        W35212  36.534   1.466   1.799
68672W        W35213  28.290   3.171  14.372
68673W        W35214  18.246  29.907   0.747
68674W        W35215  12.083  35.349  11.172
68675W        W35216   1.861  18.074  14.920
68676W        W35217  38.424  30.574  14.314
68677W        W35218  39.284  13.768  11.702
68678W        W35219   6.417  32.431  12.302
68679W        W35220  37.497  13.378  14.753
68680W        W35221  12.677  27.551   4.394
68681W        W35222   8.016  21.987   1.839
68682W        W35223  29.622  20.952   2.882
68683W        W35224  16.027  10.731  13.446
68684W        W35225  40.880  26.520  13.762
68685W        W35226   1.782  23.983   1.570
68686W        W35227   3.305   5.392   4.023
68687W        W35228  42.512   0.039   4.311
68688W        W35229  26.242   6.764  12.534
68689W        W35230  41.916  11.308   3.692
68690W        W35231  34.137   4.233  14.949
68691W        W35232   5.197  42.530   1.872
68692W        W35233  33.626  21.558  11.932
68693W        W35234  11.869   2.937   0.853
68694W        W35235  31.363  10.738   4.605
68695W        W35236  39.049  42.917  14.389
68696W        W35237   5.654  22.184  11.587
68697W        W35238   1.099  13.045  14.072
68698W        W35239  33.105  44.048   2.568
68699W        W35240   2.172  17.593  12.118
68700W        W35241  30.580  42.231  13.646
68701W        W35242  31.689  39.880   2.743
68702W        W35243  14.075   9.730   3.713
68703W        W35244  11.413   8.140   4.217
68704W        W35245  25.479  33.895  13.742
68705W        W35246  21.311  12.894   4.023
68706W        W35247  19.050   4.746   1.402
68707W        W35248  31.571  41.529  12.010
68708W        W35249   2.170  33.320  10.280
68709W        W35250  36.667  33.954  13.846
68710W        W35251  25.893  16.876  14.836
68711W        W35252  42.425   8.613   0.056
68712W        W35253  37.764  12.948   1.627
68713W        W35254   2.907  27.694   4.660
68714W        W35255  28.643  38.835  13.570
68715W        W35256  20.466  30.535  14.348
68716W        W35257  17.301   5.717   1.122
68717W        W35258  32.299  26.953   3.849
68718W        W35259  31.340  31.443   2.467
68719W        W35260  33.078  39.797   4.195
68720W        W35261  24.891  19.835  11.200
68721W        W35262  44.898  35.124   4.548
68722W        W35263  27.520  25.205   4.261
68723W        W35264  26.419  31.712   3.200
68724W        W35265  40.626  16.772  12.348
68725W        W35266   2.978  44.071   1.242
68726W        W35267  17.630  29.184   2.329
68727W        W35268   2.747  16.465   1.715
68728W        W35269  38.474   6.226   1.432
68729W        W35270  15.166  20.144  14.557
68730W        W35271  39.360  12.861  14.311
68731W        W35272   0.992  31.380   2.250
68732W        W35273   9.580  13.116   3.276
68733W        W35274  36.825  39.564  14.800
68734W        W35275  33.952  20.893   1.458
68735W        W35276   7.960  42.412   3.691
68736W        W35277   1.324  30.072   3.225
68737W        W35278  28.329  10.776  10.037
68738W        W35279  37.783  31.849   1.846
68739W        W35280  29.040  34.632  14.067
68740W        W35281  16.116   6.205   1.370
68741W        W35282  36.115  44.832   2.245
68742W        W35283  24.722  30.083   1.186
68743W        W35284  13.227  14.667   4.319
68744W        W35285  40.260  42.621  11.107
68745W        W35286   1.801  33.649   1.781
68746W        W35287  37.299   1.867   3.196
68747W        W35288   4.835  43.086   0.510
68748W        W35289  38.591  34.339   1.408
68749W        W35290  42.862   3.276   1.298
68750W        W35291  17.319  30.734   9.928
68751W        W35292  21.125  33.457  14.396
68752W        W35293  26.682   6.291  10.671
68753W        W35294   7.882  12.654  11.607
68754W        W35295  17.275  41.481  14.993
68755W        W35296  30.402   2.319   1.812
68756W        W35297  43.407  43.690   2.770
68757W        W35298   1.177  14.749   2.807
68758W        W35299   8.703  39.352  12.606
68759W        W35300   4.362  30.866   4.467
68760W        W35301  36.789   3.542   3.189
68761W        W35302  23.898  17.735   2.970
68762W        W35303   4.858   8.540   1.534
68763W        W35304  43.800  12.342  10.993
68764W        W35305  37.431  35.446  10.587
68765W        W35306   8.157  39.013   0.586
68766W        W35307   1.379   3.350   4.116
68767W        W35308  39.222  21.736   4.579
68768W        W35309   0.222  16.141   3.123
68769W        W35310  42.427   0.482  14.976
68770W        W35311  16.141  39.545  13.397
68771W        W35312   7.969   1.468  12.508
68772W        W35313  11.616  21.679   1.795
68773W        W35314   6.437   0.312   1.453
68774W        W35315  13.609  15.178   2.812
68775W        W35316  44.382  35.626   3.548
68776W        W35317  33.544  24.383  10.137
68777W        W35318  39.874  44.643   1.216
68778W        W35319   2.731  29.317   0.890
68779W        W35320  16.491  44.755   4.127
68780W        W35321   2.082  18.775  13.478
68781W        W35322  22.178  36.361  14.402
68782W        W35323  22.108   1.154   0.844
68783W        W35324  17.701   5.235  12.047
68784W        W35325  37.869  40.090  11.128
68785W        W35326  23.744  41.950   1.658
68786W        W35327  28.831  15.193  14.497
68787W        W35328  38.878  28.034  13.973
68788W        W35329  33.518  34.891   1.279
68789W        W35330  38.041  25.165   0.653
68790W        W35331  32.646  25.612  10.629
68791W        W35332  44.299  20.473  11.939
68792W        W35333  35.388  43.346   0.118
68793W        W35334  11.312  24.687   1.587
68794W        W35335   7.210  32.906  11.758
68795W        W35336  17.787  21.042   0.826
68796W        W35337  43.805  25.129   0.454
68797W        W35338   6.631  15.242  12.768
68798W        W35339  14.301  23.197   3.664
68799W        W35340  35.062  27.999  14.325
68800W        W35341  28.854  26.909  11.020
68801W        W35342   3.453  35.929  11.329
68802W        W35343   9.493  23.229   3.199
68803W        W35344   5.146  44.385  14.284
68804W        W35345  26.251  42.049  12.893
68805W        W35346  10.260  11.330   1.980
68806W        W35347  10.226  17.312  11.273
68807W        W35348   8.171   0.383  14.276
68808W        W35349   3.992  43.356  12.713
68809W        W35350  11.430  40.997   0.042
68810W        W35351  40.880  37.254   2.824
68811W        W35352  31.703  25.008  12.894
68812W        W35353  30.158  28.363  11.465
68813W        W35354  25.983  21.258   3.051
68814W        W35355   9.687  29.962  14.880
68815W        W35356  37.174  29.917   3.571
68816W        W35357  34.634  43.048   1.752
68817W        W35358  41.838  44.761  14.946
68818W        W35359  27.729  39.400   3.893
68819W        W35360   6.845  21.231  12.256
68820W        W35361   3.983  12.089  13.994
68821W        W35362  21.548  21.474  14.324
68822W        W35363  15.792  23.233   3.734
68823W        W35364  40.595  17.604   3.679
68824W        W35365  31.870  14.226   1.925
68825W        W35366  16.351  33.860  10.186
68826W        W35367  32.109   3.227   2.734
68827W        W35368  36.897   9.693   2.912
68828W        W35369   6.740  22.170   0.517
68829W        W35370   6.091  41.629   4.642
68830W        W35371  18.734   5.917   3.275
68831W        W35372  33.168  30.945   2.469
68832W        W35373  44.177  25.400   1.894
68833W        W35374  44.978  39.968   3.676
68834W        W35375   5.291  44.287   4.852
68835W        W35376  19.866  24.309  12.059
68836W        W35377   0.847  21.733   0.964
68837W        W35378  22.314  27.533  13.410
68838W        W35379  36.000  17.140  12.916
68839W        W35380  22.861   0.206   3.643
68840W        W35381  40.611  33.629  12.213
68841W        W35382  40.762   2.362   4.487
68842W        W35383  44.792  14.013  13.387
68843W        W35384  31.589  35.755   0.175
68844W        W35385  12.979  33.104  12.131
68845W        W35386  14.533  40.939  11.508
68846W        W35387  30.412  16.290  11.558
68847W        W35388  21.704  40.438  14.067
68848W        W35389  21.610  31.541  11.248
68849W        W35390  22.808   9.584   0.664
68850W        W35391  29.516  44.012  14.021
68851W        W35392  29.194   3.045  11.182
68852W        W35393  31.010   0.206  10.684
68853W        W35394  44.705  35.312  11.585
68854W        W35395  24.683   3.705  11.011
68855W        W35396  17.512  35.915  11.488
68856W        W35397  12.720  21.726   2.650
68857W        W35398  33.119  31.948  14.825
68858W        W35399  13.651  11.108  11.128
68859W        W35400  17.020  40.522   1.263
68860W        W35401   4.024  38.096   4.627
68861W        W35402  43.836  17.104   3.163
68862W        W35403  20.654  38.247   4.022
68863W        W35404  38.615  20.039  10.916
68864W        W35405   0.277  24.256   1.738
68865W        W35406  38.248  13.406   4.595
68866W        W35407   0.215   0.955   4.061
68867W        W35408  40.258  20.885  14.320
68868W        W35409  34.925  29.187   3.207
68869W        W35410  16.690   5.226   1.267
68870W        W35411  38.844  18.859   2.257
68871W        W35412  19.918  33.385  10.949
68872W        W35413  35.079  39.793   0.846
68873W        W35414  11.520  23.479  12.539
68874W        W35415  23.950  14.425   1.776
68875W        W35416   9.322   0.283   1.125
68876W        W35417  29.938   3.821   3.460
68877W        W35418  37.494  20.802   0.555
68878W        W35419   1.768  30.661   0.299
68879W        W35420  17.841  34.554   4.125
68880W        W35421  14.503  26.549  13.471
68881W        W35422   5.614   9.141   1.170
68882W        W35423  26.546  15.343  13.818
68883W        W35424  18.255  27.543  11.952
68884W        W35425  27.323  20.810  13.788
68885W        W35426  30.672  42.658  10.273
68886W        W35427  38.847  31.623   2.710
68887W        W35428  27.407   4.267  11.601
68888W        W35429  38.320  10.496   0.333
68889W        W35430  11.217   1.450   2.279
68890W        W35431  16.646  17.425   2.347
68891W        W35432  26.447  28.282  13.445
68892W        W35433  28.082  25.411  10.272
68893W        W35434  42.513  15.934  12.577
68894W        W35435  24.166  31.536  12.332
68895W        W35436  25.595  25.469   3.074
68896W        W35437  16.674  28.469   1.157
68897W        W35438  36.091   7.204  12.545
68898W        W35439  11.723  13.790  13.920
68899W        W35440  28.246  10.773   1.237
68900W        W35441  15.806  34.578   2.707
68901W        W35442   7.509  42.696   1.671
68902W        W35443  10.216  36.987   3.150
68903W        W35444  20.254  34.887  12.504
68904W        W35445  17.510  17.097  14.024
68905W        W35446  12.686  14.060  14.524
68906W        W35447  40.000  14.109  14.058
68907W        W35448  34.931   5.034  10.151
68908W        W35449   4.715  12.824  14.872
68909W        W35450  20.982   5.747  14.902
68910W        W35451  35.320  36.093  13.749
68911W        W35452  29.748  40.921   1.361
68912W        W35453  28.906   8.136  13.509
68913W        W35454  35.103   3.496   1.681
68914W        W35455  26.499  28.620   4.208
68915W        W35456  29.980  43.628   3.374
68916W        W35457  44.513  24.065   1.321
68917W        W35458  33.717  15.291  14.163
68918W        W35459  28.256  32.102   4.177
68919W        W35460   0.926  21.552  12.099
68920W        W35461   0.283  29.873   2.657
68921W        W35462  39.997  14.103  12.450
68922W        W35463  14.295   4.621  13.306
68923W        W35464  27.772   1.218  11.709
68924W        W35465  36.120  24.708   4.470
68925W        W35466  44.020   5.729  14.316
68926W        W35467   7.704  18.174  10.795
68927W        W35468  16.235  36.970   2.835
68928W        W35469  35.100   6.974   1.296
68929W        W35470   9.929  20.591  10.614
68930W        W35471  42.829  17.074   3.237
68931W        W35472   7.784  13.373   2.920
68932W        W35473  10.086  17.769  14.499
68933W        W35474  16.331  21.417   0.873
68934W        W35475  37.130  31.039   0.832
68935W        W35476  33.514  13.541   2.354
68936W        W35477  42.730  17.213  12.371
68937W        W35478  22.083  20.206   2.012
68938W        W35479   4.738  20.498   0.272
68939W        W35480  33.197  37.798  14.360
68940W        W35481  41.819  10.460   3.784
68941W        W35482  23.108  15.494  14.925
68942W        W35483   3.116   5.853   2.412
68943W        W35484  14.792  23.023  11.760
68944W        W35485  28.857   4.293  12.617
68945W        W35486  14.698  24.064  14.378
68946W        W35487  14.719  18.030  13.136
68947W        W35488  33.043  39.125  13.657
68948W        W35489   6.447  11.276  11.996
68949W        W35490  17.342  34.672   0.297
68950W        W35491  13.746  11.721   0.524
68951W        W35492  13.169   0.906   3.686
68952W        W35493  38.647  23.819  12.588
68953W        W35494   3.547  12.696  12.940
68954W        W35495  27.903  18.789   3.013
68955W        W35496  34.600   5.884   0.420
68956W        W35497  40.697  41.326   0.194
68957W        W35498  31.325  41.830  12.939
68958W        W35499   9.361  26.959   3.859
68959W        W35500  40.939  13.224   0.380
68960W        W35501  38.175  21.101  12.071
68961W        W35502  40.358  37.236   2.629
68962W        W35503  37.024  28.011   0.395
68963W        W35504   4.269  24.020  12.949
68964W        W35505  22.926  15.138  12.200
68965W        W35506   8.139   8.272   0.322
68966W        W35507   2.194  16.096   3.037
68967W        W35508  43.616   7.768  11.864
68968W        W35509   7.794  33.470  14.937
68969W        W35510  11.162  17.758   4.154
68970W        W35511  14.330  37.449  14.817
68971W        W35512   3.284  30.312  12.799
68972W        W35513  34.914  26.348   1.434
68973W        W35514   9.451  18.746  12.837
68974W        W35515  11.101  15.541  14.097
68975W        W35516  20.481   2.348   0.008
68976W        W35517  10.221  38.272   9.944
68977W        W35518  31.363  17.116   9.658
68978W        W35519  11.852  30.307  14.392
68979W        W35520  18.533  14.808   0.821
68980W        W35521   4.910  27.141   3.259
68981W        W35522  31.683  31.114   0.357
68982W        W35523  32.151  19.441   3.480
68983W        W35524  37.910  13.385  10.566
68984W        W35525  34.431  26.183  13.678
68985W        W35526  22.966  15.175   2.484
68986W        W35527  12.780  29.160  10.283
68987W        W35528  33.177  27.475  13.122
68988W        W35529   1.223  25.789  13.509
68989W        W35530  31.509  33.666   3.491
68990W        W35531  35.846   1.314  10.681
68991W        W35532   9.096   3.784   3.677
68992W        W35533  17.696   7.951  14.765
68993W        W35534  18.080  36.231   0.806
68994W        W35535  25.708   1.393   3.191
68995W        W35536   9.373   2.553  11.168
68996W        W35537  16.310  12.365  13.055
68997W        W35538   1.937  28.613  10.879
68998W        W35539  29.609  24.234   0.499
68999W        W35540  33.418  37.061   0.323
69000W        W35541  26.052  16.760  13.167
69001W        W35542  37.947  32.441  12.420
69002W        W35543  34.246  18.352  12.950
69003W        W35544  19.168  27.982  12.073
69004W        W35545  37.297  43.494   0.176
69005W        W35546   4.100  20.223  12.116
69006W        W35547  31.509  19.262  12.280
69007W        W35548   6.649  15.186  11.928
69008W        W35549  21.211  18.952   1.221
69009W        W35550   3.360  19.747   0.136
69010W        W35551   8.441  11.778  12.540
69011W        W35552   3.402   7.317  10.646
69012W        W35553  39.939  28.028  14.320
69013W        W35554   5.214  44.650   1.213
69014W        W35555  31.561  28.551  13.685
69015W        W35556  13.266  30.610   2.071
69016W        W35557  42.103  33.165   1.912
69017W        W35558  25.732  21.060   9.951
69018W        W35559  16.037  16.695   4.211
69019W        W35560  34.641   3.741   0.306
69020W        W35561  13.835  11.279   1.386
69021W        W35562  18.966  39.935   1.510
69022W        W35563  35.454   9.287   2.002
69023W        W35564   7.877  36.467   4.210
69024W        W35565  17.254   4.461  11.114
69025W        W35566  33.092  30.510   0.317
69026W        W35567  15.431  35.878  13.493
69027W        W35568  10.712   5.431  14.770
69028W        W35569  24.774   9.372   0.281
69029W        W35570  19.183  44.158   0.386
69030W        W35571  39.545  23.473  12.327
69031W        W35572  41.566  25.928  12.129
69032W        W35573  33.708  27.826  10.186
69033W        W35574  44.461  12.999   0.873
69034W        W35575  10.835   1.897   0.053
69035W        W35576  19.716  33.064  12.124
69036W        W35577  18.071  10.228  12.859
69037W        W35578  18.085  32.601   2.184
69038W        W35579  32.541  31.175  12.737
69039W        W35580  22.787  20.147   4.671
69040W        W35581  37.868  40.108   4.387
69041W        W35582  31.208  44.391   1.677
69042W        W35583  21.092   9.034  10.169
69043W        W35584  35.354   5.491  14.688
69044W        W35585  33.154   6.738  13.090
69045W        W35586  31.925  18.827  11.107
69046W        W35587  34.337   6.265   5.247
69047W        W35588  27.513  43.285   1.450
69048W        W35589  35.199  28.449   0.590
69049W        W35590  22.646  33.453  14.904
69050W        W35591  21.918  20.378  13.548
69051W        W35592  33.130  43.902  11.578
69052W        W35593  19.658   0.443  12.450
69053W        W35594  27.101  22.973   4.599
69054W        W35595  44.727  21.093  12.380
69055W        W35596  15.334  23.106  13.327
69056W        W35597   9.723  12.363  14.792
69057W        W35598  35.925  25.707  10.838
69058W        W35599  43.267  20.223  14.443
69059W        W35600  34.000  19.124   0.447
69060W        W35601   4.797  34.967   1.201
69061W        W35602   6.883  23.287  13.592
69062W        W35603  10.841  35.524  11.067
69063W        W35604  17.654   7.989   0.696
69064W        W35605  23.112   7.829   1.935
69065W        W35606  44.495  27.325   0.257
69066W        W35607  34.055  40.124  12.367
69067W        W35608   5.699  38.406   0.551
69068W        W35609  13.791  22.084  11.510
69069W        W35610  11.503  21.345  14.050
69070W        W35611  20.792  43.398   2.376
69071W        W35612  24.986   8.962  12.521
69072W        W35613  16.307  12.177   1.670
69073W        W35614  20.612   0.067   2.574
69074W        W35615  10.194  44.805  13.340
69075W        W35616  44.862  33.882   1.239
69076W        W35617  10.800  27.763   4.232
69077W        W35618  21.372  18.628  14.788
69078W        W35619  43.794  29.784   4.320
69079W        W35620   3.488  12.607   4.301
69080W        W35621  30.670  27.272  10.658
69081W        W35622   2.808  34.101  10.271
69082W        W35623   6.876  24.919  12.890
69083W        W35624  32.466   5.466  14.966
69084W        W35625  40.714   4.899   3.458
69085W        W35626  25.498  35.446   1.835
69086W        W35627  35.387  32.171   0.903
69087W        W35628  23.063   7.105   1.954
69088W        W35629  38.011  38.847  12.493
69089W        W35630  32.491  17.579  11.985
69090W        W35631  21.293  23.555  10.645
69091W        W35632  14.633  40.725  10.184
69092W        W35633  23.647  24.494  13.216
69093W        W35634   4.682  21.515   0.459
69094W        W35635  25.517   4.889   4.070
69095W        W35636  13.600   3.275   4.829
69096W        W35637  35.799   5.023  13.533
69097W        W35638  29.344  15.771   2.947
69098W        W35639  41.832  39.087   0.782
69099W        W35640  39.407  33.361   4.061
69100W        W35641  36.681  13.082   4.053
69101W        W35642   8.045  27.118   0.269
69102W        W35643  22.060   9.356  12.273
69103W        W35644  17.772  14.688   1.523
69104W        W35645  17.355  10.686  10.537
69105W        W35646  27.222   8.482  12.369
69106W        W35647  18.798  30.820   2.282
69107W        W35648   7.882  32.058   1.406
69108W        W35649   2.754  43.015  12.025
69109W        W35650   1.658  20.630  14.076
69110W        W35651  20.484  38.169   2.834
69111W        W35652  33.184   5.539  10.468
69112W        W35653  16.538  36.038  11.134
69113W        W35654  35.946   8.077  14.339
69114W        W35655  44.866  38.623  11.961
69115W        W35656  13.820  29.916  13.384
69116W        W35657  22.334  25.213   1.255
69117W        W35658  42.752   9.191   2.662
69118W        W35659  44.811   5.175  10.748
69119W        W35660  11.595  44.091  11.057
69120W        W35661  15.685  24.157  13.308
69121W        W35662   6.074  23.381  11.108
69122W        W35663  30.691  38.734  14.809
69123W        W35664   6.742  14.761  10.975
69124W        W35665  28.352  39.051   4.173
69125W        W35666  36.541   9.044  12.265
69126W        W35667  39.423  19.812  12.936
69127W        W35668   9.156  17.231  14.190
69128W        W35669  42.241  17.885  12.543
69129W        W35670   2.741  26.434  12.512
69130W        W35671  18.664  37.657  12.963
69131W        W35672  14.725  36.000   1.038
69132W        W35673  19.111  12.283   1.894
69133W        W35674  10.837  42.691  13.943
69134W        W35675  18.775  29.622   1.792
69135W        W35676  27.679  18.742  13.044
69136W        W35677  41.565   6.840   3.220
69137W        W35678   2.909   0.549  11.966
69138W        W35679  36.507   7.993   2.755
69139W        W35680  35.381  34.217  13.313
69140W        W35681  23.181  27.246   3.718
69141W        W35682  12.073   9.305   0.085
69142W        W35683  19.179   7.759  10.585
69143W        W35684  29.606   2.792   3.355
69144W        W35685   2.559   2.056   1.766
69145W        W35686  37.007  13.738   2.492
69146W        W35687  35.917  43.312  11.196
69147W        W35688   1.904  31.057   2.640
69148W        W35689  22.348  24.986  11.918
69149W        W35690  40.831  26.610   2.951
69150W        W35691  34.384  41.342   4.148
69151W        W35692  40.005  28.063  10.703
69152W        W35693  17.092  23.182  11.759
69153W        W35694  31.127  40.769  12.042
69154W        W35695  10.160  28.053   1.952
69155W        W35696   0.788  16.968   4.204
69156W        W35697  14.765  25.573  14.410
69157W        W35698  10.443  42.420  14.201
69158W        W35699  33.980   9.655  14.853
69159W        W35700  14.765  20.591   2.757
69160W        W35701  35.483   3.709  14.930
69161W        W35702  34.987  21.831  14.384
69162W        W35703   2.323   7.084  14.946
69163W        W35704   5.028  11.543  14.582
69164W        W35705  40.670   3.963   1.781
69165W        W35706  11.221  29.996   1.422
69166W        W35707  31.433  10.120  11.153
69167W        W35708  23.649   2.748  13.397
69168W        W35709  29.713  34.476   2.681
69169W        W35710   6.521  44.883  10.307
69170W        W35711  28.960  41.402   4.043
69171W        W35712  18.196  17.059   2.160
69172W        W35713  37.972  35.123   0.334
69173W        W35714  31.854  33.687  13.471
69174W        W35715  36.268   8.649   3.927
69175W        W35716  39.945   8.606   1.270
69176W        W35717   7.694   8.626   4.542
69177W        W35718   5.061  25.702   2.240
69178W        W35719  13.817  28.428  10.681
69179W        W35720   0.032  20.229  13.677
69180W        W35721  33.429  38.444  11.706
69181W        W35722   8.924   5.136   0.002
69182W        W35723   9.433  41.918   0.259
69183W        W35724  22.322   4.345  13.717
69184W        W35725   9.624  36.900   0.687
69185W        W35726  23.056  23.212  13.565
69186W        W35727  20.021  21.199  13.344
69187W        W35728   8.699  22.967   4.224
69188W        W35729  20.838   0.012   2.111
69189W        W35730  34.517  30.409  13.014
69190W        W35731  16.561  10.853  13.457
69191W        W35732  40.497  27.437   2.680
69192W        W35733  30.401   5.182  10.825
69193W        W35734  30.521  33.370   1.447
69194W        W35735  36.633  14.294   3.745
69195W        W35736  11.006  32.845  12.145
69196W        W35737  21.688  16.056  13.297
69197W        W35738  41.261  40.530  10.568
69198W        W35739   2.293  13.264  10.826
69199W        W35740   7.754  23.498  12.502
69200W        W35741  43.845  29.958   1.897
69201W        W35742  32.199   9.958   0.376
69202W        W35743  37.029  24.111   1.777
69203W        W35744  36.242  29.641  14.366
69204W        W35745  34.696   0.116   1.857
69205W        W35746  41.889   7.043   4.642
69206W        W35747  44.816  28.627  14.443
69207W        W35748   5.801  39.981   4.108
69208W        W35749  31.245  18.183   2.351
69209W        W35750  33.058  20.260  14.600
69210W        W35751  33.415  32.719  13.911
69211W        W35752  26.141  38.024  14.430
69212W        W35753  21.710  30.666  10.681
69213W        W35754  14.259  21.374   2.569
69214W        W35755  28.175  30.764  13.377
69215W        W35756  17.076  41.902  14.304
69216W        W35757   4.710   2.789   1.828
69217W        W35758   2.779  41.553   1.477
69218W        W35759   3.904  18.999   3.705
69219W        W35760  21.268  41.861  10.550
69220W        W35761  19.464   5.542   5.014
69221W        W35762  14.746  26.477  13.020
69222W        W35763  20.227  38.467  13.234
69223W        W35764   7.027  20.310   0.878
69224W        W35765  34.536  29.570  13.456
69225W        W35766  37.782  34.784  12.897
69226W        W35767  18.179   5.165   2.420
69227W        W35768  32.411  29.945  11.530
69228W        W35769  14.820   1.930   3.066
69229W        W35770  19.195  28.497  12.067
69230W        W35771  17.418  13.546  12.178
69231W        W35772  26.633  10.660   0.878
69232W        W35773  42.531  42.580   2.700
69233W        W35774  37.879   3.471  14.896
69234W        W35775  14.771  34.166  10.352
69235W        W35776  24.591  26.108   3.388
69236W        W35777  22.788   7.965  12.578
69237W        W35778   8.742  28.075   4.692
69238W        W35779  25.687  21.132   0.162
69239W        W35780  30.457  25.611   1.773
69240W        W35781  16.158  18.248   4.195
69241W        W35782  33.959  39.477  11.544
69242W        W35783   7.656   2.828  14.945
69243W        W35784   9.391  19.106  13.537
69244W        W35785   7.740  16.338   3.429
69245W        W35786  31.901  44.765   4.805
69246W        W35787  20.802  42.020   3.564
69247W        W35788  20.301  44.102  13.187
69248W        W35789   0.175   0.032   0.936
69249W        W35790  44.806  40.200  14.080
69250W        W35791  34.933   8.215  14.324
69251W        W35792   1.534  36.943  10.680
69252W        W35793   4.645  14.338   0.932
69253W        W35794  25.573   0.550  12.080
69254W        W35795   8.449   5.493  11.163
69255W        W35796  34.398   6.019   3.883
69256W        W35797  14.894  22.203  12.188
69257W        W35798   9.791   5.267   0.228
69258W        W35799   2.823  10.068  14.922
69259W        W35800  36.260   3.246  11.495
69260W        W35801  28.063  20.106  12.902
69261W        W35802  44.914  32.651   1.824
69262W        W35803  43.983  15.136   0.414
69263W        W35804  36.286  40.014  12.475
69264W        W35805  31.885   5.257   3.219
69265W        W35806  38.968   2.707   4.160
69266W        W35807  21.252   3.739   2.896
69267W        W35808   0.481  24.296  10.662
69268W        W35809   6.971  39.688  13.030
69269W        W35810  24.571  26.543   0.313
69270W        W35811   4.941   3.474   2.118
69271W        W35812  18.597  20.757   2.365
69272W        W35813  23.919  12.785   0.003
69273W        W35814  40.908  35.132   0.257
69274W        W35815   7.202  41.171   1.668
69275W        W35816  19.032  38.946  11.029
69276W        W35817  39.487  28.089  14.738
69277W        W35818   0.029  10.765  12.384
69278W        W35819  39.320  40.370  14.672
69279W        W35820  23.451   5.450   2.237
69280W        W35821  30.053   0.976  13.843
69281W        W35822  31.505  39.926  11.488
69282W        W35823  36.714  42.475   5.036
69283W        W35824   9.138  37.628  14.978
69284W        W35825  27.650  43.960  13.444
69285W        W35826  39.747   0.057   4.288
69286W        W35827  18.482  42.991  11.232
69287W        W35828  37.331  15.369   3.625
69288W        W35829   7.626  37.405  13.395
69289W        W35830  25.330   2.585  12.522
69290W        W35831  29.108   4.048   2.622
69291W        W35832  39.325   0.662   3.597
69292W        W35833  10.594  44.536  13.198
69293W        W35834  38.088  39.152  10.230
69294W        W35835   7.152  41.201  13.880
69295W        W35836  39.017  24.706  13.593
69296W        W35837  15.721   9.660   1.447
69297W        W35838  19.292  40.218  13.291
69298W        W35839   7.079  37.676   4.547
69299W        W35840  31.936  34.476  10.182
69300W        W35841  43.910   0.988  11.828
69301W        W35842   5.110  22.188   4.127
69302W        W35843  19.944  32.420   4.712
69303W        W35844  36.375  29.500  14.898
69304W        W35845   0.337   8.113  11.666
69305W        W35846  24.391   2.079   0.107
69306W        W35847  16.795  40.470   2.435
69307W        W35848  16.329  37.522   2.867
69308W        W35849  43.221   8.052  13.725
69309W        W35850   2.508  43.291  11.675
69310W        W35851   4.535  33.014  12.194
69311W        W35852  44.943  43.389   3.130
69312W        W35853  32.148  20.823  10.658
69313W        W35854  37.660   0.870   2.248
69314W        W35855  42.789  15.660  11.514
69315W        W35856   6.132  13.830   3.349
69316W        W35857  34.660  12.171   1.793
69317W        W35858   1.313   6.799   2.226
69318W        W35859  16.134  31.619   2.786
69319W        W35860   4.637   7.849  13.359
69320W        W35861  34.656  36.515  14.226
69321W        W35862  37.282  26.584  13.172
69322W        W35863  14.853  39.536  11.119
69323W        W35864  11.749  42.011  14.730
69324W        W35865  29.177   8.763  12.913
69325W        W35866  30.894  16.820  13.825
69326W        W35867  30.061   7.081  11.501
69327W        W35868  22.216  35.816   0.938
69328W        W35869  28.201  44.593   1.559
69329W        W35870   7.215  43.140  14.447
69330W        W35871  38.311  36.613   2.965
69331W        W35872  39.376   0.493   4.555
69332W        W35873  20.981   6.002   3.703
69333W        W35874   8.143  27.180  11.666
69334W        W35875  17.068   8.692   4.602
69335W        W35876  26.713   4.247   0.509
69336W        W35877  11.645  10.087  13.502
69337W        W35878  40.416  13.344   0.361
69338W        W35879   6.829  37.819   2.893
69339W        W35880  36.493  24.128   4.535
69340W        W35881  28.164  16.172   0.722
69341W        W35882   8.742  35.921   1.224
69342W        W35883   8.358   1.808  12.935
69343W        W35884  10.651  16.689   0.133
69344W        W35885  13.427  21.319   4.204
69345W        W35886   0.876   2.035  12.059
69346W        W35887  16.702   5.232  14.835
69347W        W35888   6.729  24.052   1.897
69348W        W35889  32.205  10.459   0.290
69349W        W35890  24.983  19.885   4.297
69350W        W35891  28.259  34.639   3.977
69351W        W35892  37.677  27.443  10.729
69352W        W35893  21.084   5.752  12.043
69353W        W35894  30.690  29.126   4.062
69354W        W35895  35.076  17.958   0.712
69355W        W35896   9.686  25.699   0.480
69356W        W35897  36.200  24.935  10.341
69357W        W35898  31.234   6.270  10.136
69358W        W35899  18.779  42.785  11.779
69359W        W35900  36.061  16.603  12.014
69360W        W35901  27.880  44.956   4.063
69361W        W35902   1.093  27.589  11.463
69362W        W35903  11.588  27.123   1.852
69363W        W35904  18.510  21.752   2.238
69364W        W35905  25.982  37.848   1.702
69365W        W35906  15.131  36.809  13.318
69366W        W35907  18.095   3.219  12.050
69367W        W35908  28.284  27.947   4.497
69368W        W35909  33.354  36.066  12.980
69369W        W35910  33.141  40.900   3.695
69370W        W35911  30.889  40.637  11.109
69371W        W35912  31.004  15.221  14.939
69372W        W35913  29.453  20.317  13.096
69373W        W35914   0.805  10.196  13.671
69374W        W35915  44.766  28.750   2.352
69375W        W35916  18.566  15.785  12.265
69376W        W35917  33.347  35.842   4.490
69377W        W35918  24.203  38.817   1.922
69378W        W35919  12.382  41.432  12.032
69379W        W35920   3.281  41.307   3.262
69380W        W35921  20.316  13.409   2.567
69381W        W35922  26.658   4.298   1.435
69382W        W35923  24.947  33.952  12.510
69383W        W35924   1.733  30.736  12.053
69384W        W35925  31.587  43.668   1.218
69385W        W35926  31.463  26.753   0.154
69386W        W35927  18.609  34.227  12.155
69387W        W35928  44.760   1.052   3.854
69388W        W35929  16.841  32.212   2.698
69389W        W35930   2.974  40.836   1.971
69390W        W35931  15.871  19.557  14.984
69391W        W35932  34.037  26.421  10.673
69392W        W35933  32.832  33.296   0.772
69393W        W35934  16.019  25.915  14.735
69394W        W35935  27.824  11.684  11.435
69395W        W35936  27.661  21.969   0.833
69396W        W35937  10.356   2.928   1.407
69397W        W35938  19.330  20.468   4.171
69398W        W35939  38.984  26.098  10.096
69399W        W35940   6.179  44.447   4.968
69400W        W35941  28.251   6.808   1.769
69401W        W35942  14.754   1.758  14.098
69402W        W35943   5.449  15.262   4.496
69403W        W35944  43.454  43.875  11.953
69404W        W35945   5.795   5.412   2.484
69405W        W35946  16.027  11.184  14.137
69406W        W35947  15.565  20.484  12.494
69407W        W35948   8.778  42.901  11.066
69408W        W35949   0.910   1.570  12.301
69409W        W35950  42.932  42.138  14.374
69410W        W35951  28.404  15.246   2.728
69411W        W35952  23.452  11.814   3.211
69412W        W35953  20.275  18.846  11.688
69413W        W35954  31.676  34.582  13.550
69414W        W35955  11.336  27.636   2.635
69415W        W35956   7.765  18.107  11.708
69416W        W35957  29.130  12.770  12.870
69417W        W35958  13.601  17.304   2.882
69418W        W35959  14.858  13.444   5.074
69419W        W35960   3.866  39.015   3.638
69420W        W35961  39.152   7.553   3.101
69421W        W35962  24.802  11.117   4.543
69422W        W35963  13.797   2.168  10.287
69423W        W35964  40.438  18.745  12.674
69424W        W35965   7.899  18.924   0.420
69425W        W35966   5.461  36.153  12.887
69426W        W35967  40.685   4.510  12.069
69427W        W35968  42.516  37.935   1.883
69428W        W35969  36.679  19.203   2.765
69429W        W35970  43.556   3.954   1.006
69430W        W35971  27.351  32.894   1.434
69431W        W35972  44.310  34.131   2.176
69432W        W35973  37.730   0.465  13.584
69433W        W35974  21.000  32.112  10.107
69434W        W35975  22.345  31.989  11.973
69435W        W35976  12.198  25.141  11.972
69436W        W35977   7.719   6.243  11.537
69437W        W35978  32.007   7.093  11.964
69438W        W35979  36.297   9.440   3.255
69439W        W35980  18.882  34.812   1.392
69440W        W35981  17.717   2.909   1.512
69441W        W35982  38.332   2.981   1.209
69442W        W35983  33.842  39.408  13.395
69443W        W35984  11.434  10.926  13.031
69444W        W35985  27.076  33.084   1.852
69445W        W35986  13.745  40.770  12.612
69446W        W35987   0.384   8.923  11.126
69447W        W35988   2.964  25.986   3.571
69448W        W35989   5.740  42.733  13.579
69449W        W35990   1.156  29.710  12.895
69450W        W35991  43.811  22.755  13.907
69451W        W35992  20.528  17.066   3.175
69452W        W35993   8.171  14.293   4.035
69453W        W35994  31.465  21.585   4.608
69454W        W35995  34.084  24.997   3.240
69455W        W35996  32.122  13.223   2.329
69456W        W35997  10.296  41.701   3.747
69457W        W35998  11.314  27.546   3.205
69458W        W35999   6.166  28.547   3.616
69459W        W36000   8.179  39.016   2.990
69460W        W36001  30.552   5.884  11.574
69461W        W36002  32.011   8.908  10.592
69462W        W36003  38.784  39.936  14.806
69463W        W36004  43.026  19.568   3.764
69464W        W36005  12.429  12.424  13.367
69465W        W36006   2.993   0.329   1.884
69466W        W36007  17.129   1.718  10.963
69467W        W36008  14.271  30.867  14.543
69468W        W36009  43.027  13.615   2.456
69469W        W36010  32.925  27.717  14.892
69470W        W36011   8.522  16.825  10.602
69471W        W36012  40.304  33.148  13.057
69472W        W36013  27.139   9.413  14.113
69473W        W36014  38.725   3.827   9.977
69474W        W36015  43.849  23.138   2.905
69475W        W36016  40.935   5.668   3.388
69476W        W36017  24.511  16.531  12.166
69477W        W36018  43.834  35.576   0.842
69478W        W36019  44.994  28.489  12.030
69479W        W36020  24.508  25.294  14.456
69480W        W36021  42.798   2.213  11.443
69481W        W36022  28.334  17.139   3.201
69482W        W36023   3.754  28.945   5.637
69483W        W36024  36.412  10.725   2.411
69484W        W36025  21.009   9.151   0.181
69485W        W36026  14.146  30.021   3.956
69486W        W36027  31.160  36.967   3.187
69487W        W36028   8.718  39.500   2.647
69488W        W36029  44.546  10.182  14.490
69489W        W36030  37.049  28.723  12.925
69490W        W36031  40.912  35.580  14.626
69491W        W36032   1.103  13.360  14.861
69492W        W36033  19.760  26.252   5.198
69493W        W36034  39.735  40.374  10.715
69494W        W36035  43.721  19.089  10.387
69495W        W36036  23.564  21.135   2.842
69496W        W36037  29.037   3.900  13.873
69497W        W36038  35.413   0.722  13.100
69498W        W36039   4.714  41.069  11.226
69499W        W36040  36.581   5.856  11.790
69500W        W36041  38.038  25.658   2.862
69501W        W36042  29.435  20.980  10.968
69502W        W36043   3.518  31.663  13.072
69503W        W36044   6.423  22.092  13.033
69504W        W36045  38.352  40.730   0.614
69505W        W36046  37.787   5.910  14.971
69506W        W36047  35.994  31.151   2.126
69507W        W36048  39.297   2.324  11.099
69508W        W36049  14.129  37.048  12.633
69509W        W36050  31.955  39.782   2.312
69510W        W36051   0.468   2.845  10.657
69511W        W36052  22.659  12.619  12.063
69512W        W36053  26.836  44.334   4.515
69513W        W36054  23.149  28.609  13.029
69514W        W36055  38.400  26.276  13.096
69515W        W36056  14.716  13.187   2.177
69516W        W36057  36.232   5.299  13.472
69517W        W36058   8.780   8.115   1.864
69518W        W36059  17.075   1.358   1.135
69519W        W36060   9.367   1.511  10.375
69520W        W36061  22.495  16.325  11.117
69521W        W36062  27.754   1.715  11.805
69522W        W36063   2.948   8.272  13.848
69523W        W36064  14.701  10.622  10.438
69524W        W36065  19.839   2.859  14.897
69525W        W36066  41.477  29.601   2.414
69526W        W36067  25.479  23.130   3.062
69527W        W36068  39.903   9.084  11.184
69528W        W36069  34.344  26.707   0.605
69529W        W36070   6.240  31.023  11.879
69530W        W36071   5.713   1.756  14.829
69531W        W36072  12.576  34.300   0.877
69532W        W36073  38.426  25.746  10.643
69533W        W36074   7.237  13.345  14.463
69534W        W36075   9.365  32.777   2.187
69535W        W36076  15.880  28.633  12.155
69536W        W36077   8.406  41.049   0.395
69537W        W36078  36.423  32.539   2.933
69538W        W36079   4.591   8.843   2.350
69539W        W36080   3.557  18.621   4.054
69540W        W36081  27.648   2.549   4.539
69541W        W36082  29.339  43.966  12.169
69542W        W36083   6.953  12.851  14.291
69543W        W36084   0.339  40.305   4.829
69544W        W36085   5.454  33.627  11.715
69545W        W36086   6.931  20.730  12.981
69546W        W36087   9.533   4.832   3.784
69547W        W36088   8.191   8.127  10.595
69548W        W36089  37.392  34.190   4.654
69549W        W36090  21.813  31.022   3.877
69550W        W36091  38.055  25.223  14.721
69551W        W36092  32.709   1.640  14.862
69552W        W36093   0.351  35.644   1.106
69553W        W36094   5.727   9.508   1.834
69554W        W36095  32.909  42.368  13.549
69555W        W36096  37.586  20.250   4.577
69556W        W36097  21.185  20.170  10.769
69557W        W36098   8.121  42.938  11.023
69558W        W36099  30.803  39.953   3.782
69559W        W36100  22.111  44.053   4.731
69560W        W36101  31.991   6.968   4.255
69561W        W36102  43.802   8.778   2.790
69562W        W36103  34.154   7.401  12.565
69563W        W36104   6.560  16.081  12.476
69564W        W36105  11.749  10.992  14.286
69565W        W36106  13.324  35.613  14.099
69566W        W36107  40.911  17.111  14.944
69567W        W36108  21.553  15.320   3.507
69568W        W36109  26.956  36.415   3.637
69569W        W36110   6.623  18.071  11.705
69570W        W36111  26.484  39.995  14.500
69571W        W36112  20.838  25.128  11.443
69572W        W36113  14.145   6.059  10.784
69573W        W36114  14.395  38.003  10.443
69574W        W36115  14.770  13.754  13.810
69575W        W36116  19.847  34.849  11.596
69576W        W36117  20.390   0.185   4.332
69577W        W36118   2.029  19.708  12.352
69578W        W36119  29.955  39.033   3.385
69579W        W36120  39.425   7.120   1.719
69580W        W36121  38.836  43.862  14.414
69581W        W36122   0.382  32.506  13.794
69582W        W36123  38.079  35.365   3.463
69583W        W36124  13.750   2.779   3.618
69584W        W36125  17.486  39.739   1.243
69585W        W36126   4.380  23.229  13.977
69586W        W36127   1.221  13.633   1.074
69587W        W36128  31.543  22.510   2.689
69588W        W36129  36.466  40.565  14.007
69589W        W36130  40.457  29.478   0.376
69590W        W36131  34.844  30.082   2.383
69591W        W36132  31.828  34.928  11.876
69592W        W36133   6.878  28.561  14.737
69593W        W36134  29.023  25.099  12.330
69594W        W36135   3.700  34.835   4.563
69595W        W36136  15.790  21.067  14.814
69596W        W36137   6.215  26.228   0.963
69597W        W36138   4.321  23.505   3.683
69598W        W36139   6.876  41.110  13.458
69599W        W36140  31.183  38.608  11.387
69600W        W36141  32.669  21.787  12.997
69601W        W36142  11.157   6.310  11.559
69602W        W36143  11.611  42.475  14.951
69603W        W36144   8.600   4.701   1.623
69604W        W36145  35.857   9.320   4.075
69605W        W36146  32.086  33.495   4.314
69606W        W36147   0.266   9.117   3.635
69607W        W36148  29.897  24.764  12.585
69608W        W36149  30.130  42.029  10.850
69609W        W36150  15.725  18.811   2.816
69610W        W36151   7.955  11.626  13.379
69611W        W36152  12.330   9.402  13.244
69612W        W36153  41.733  18.700   4.799
69613W        W36154  37.599   1.405   3.873
69614W        W36155  14.175   0.001   4.145
69615W        W36156  41.518  17.826  10.946
69616W        W36157  26.248  16.019  13.375
69617W        W36158  36.811  25.469  14.251
69618W        W36159  24.987   2.261  14.444
69619W        W36160  35.448  12.310   0.452
69620W        W36161  16.807  29.595   1.704
69621W        W36162  43.356  35.252   3.318
69622W        W36163   3.894  35.415  13.913
69623W        W36164  25.634   4.953   4.970
69624W        W36165  19.538  43.784   2.217
69625W        W36166  35.843  10.917  12.462
69626W        W36167  25.762  42.755   4.479
69627W        W36168  27.437  36.244   3.827
69628W        W36169   7.406  33.494   5.054
69629W        W36170  33.479  15.201  14.949
69630W        W36171  31.087   7.442   1.347
69631W        W36172  37.389  38.293   1.354
69632W        W36173  10.796  22.164  13.539
69633W        W36174  27.432  13.815  13.436
69634W        W36175  33.631  12.179  12.625
69635W        W36176  25.897   4.742  13.157
69636W        W36177  24.267  22.181   3.505
69637W        W36178   0.340   2.926   1.342
69638W        W36179  44.995  11.955   1.628
69639W        W36180   1.665  41.956  12.104
69640W        W36181  38.099  42.604   4.592
69641W        W36182  34.990  30.137  10.347
69642W        W36183  10.149   0.467   1.100
69643W        W36184  23.291  43.375   3.862
69644W        W36185  29.364  37.190   0.938
69645W        W36186  20.190  39.866   0.327
69646W        W36187  11.708   6.440  12.483
69647W        W36188  43.288  20.670   3.910
69648W        W36189   4.351  36.784  14.011
69649W        W36190  29.756  13.677   0.221
69650W        W36191   2.974  10.985  10.830
69651W        W36192  40.336  23.710  11.255
69652W        W36193  26.616   5.406  14.386
69653W        W36194  19.120  43.084  14.350
69654W        W36195  14.002  26.935  10.665
69655W        W36196  23.398  10.112   2.798
69656W        W36197   5.242  17.597   4.182
69657W        W36198   9.832   1.291   2.784
69658W        W36199  37.005  18.060   2.164
69659W        W36200  23.719   1.387  13.371
69660W        W36201   2.831   6.624   0.415
69661W        W36202  24.004  25.261   2.086
69662W        W36203  23.486   1.432  13.893
69663W        W36204   4.651  37.517  10.807
69664W        W36205  41.325  14.380   2.656
69665W        W36206  16.252  10.176   0.784
69666W        W36207   9.800  15.124   5.073
69667W        W36208  25.898   3.896  14.990
69668W        W36209  18.203  23.272  11.184
69669W        W36210  16.987   1.414   1.637
69670W        W36211   0.710  43.652  12.100
69671W        W36212  21.220  44.774  12.024
69672W        W36213  32.580   8.914  10.450
69673W        W36214  43.773  14.596   5.059
69674W        W36215  25.750  16.717   1.277
69675W        W36216  12.856  32.940   0.091
69676W        W36217  29.429   0.176  11.106
69677W        W36218   8.231  21.697   1.456
69678W        W36219  36.258  42.948  11.062
69679W        W36220  20.537   6.712  13.426
69680W        W36221  27.088  14.148  14.235
69681W        W36222  24.421   6.196  11.621
69682W        W36223   3.600  43.054   1.744
69683W        W36224  11.027  19.735  14.574
69684W        W36225   3.981  34.314   1.675
69685W        W36226  19.772  36.624   0.217
69686W        W36227   0.180  20.171   3.210
69687W        W36228  17.554  39.966   1.950
69688W        W36229  43.313  28.164  10.664
69689W        W36230  30.573   3.353  14.858
69690W        W36231  43.908  43.254  13.505
69691W        W36232  21.794  36.969  14.792
69692W        W36233  16.779  20.207   0.722
69693W        W36234  18.842   2.662   3.513
69694W        W36235   9.455  11.309   1.322
69695W        W36236   0.402  20.582  13.551
69696W        W36237  35.658  38.494  10.690
69697W        W36238  31.006  18.845   1.615
69698W        W36239  11.031  22.020   0.279
69699W        W36240  16.576  30.383   1.964
69700W        W36241   9.698  39.366   3.786
69701W        W36242   2.932  15.390   0.793
69702W        W36243   3.199  44.451  13.147
69703W        W36244  14.192  11.984  11.432
69704W        W36245  42.072  16.500  14.924
69705W        W36246  43.015  32.726  11.956
69706W        W36247  42.169  42.803  10.266
69707W        W36248  31.141  22.470   0.027
69708W        W36249  27.109  35.659  13.455
69709W        W36250   9.795  42.305  11.463
69710W        W36251   2.640  21.247  12.816
69711W        W36252  27.219   1.250   4.294
69712W        W36253  15.351  12.440   1.830
69713W        W36254  10.340  37.106   1.658
69714W        W36255  42.270   4.782  13.513
69715W        W36256  29.056  41.910   1.194
69716W        W36257  24.606  24.019  14.900
69717W        W36258  17.512  26.667  13.318
69718W        W36259  36.124  28.112  13.223
69719W        W36260  22.787  38.203   4.146
69720W        W36261   9.751  35.743   0.264
69721W        W36262  17.244  17.220   3.157
69722W        W36263  10.137  41.803  12.815
69723W        W36264  14.387   6.130  11.972
69724W        W36265  30.907  14.135  13.412
69725W        W36266   2.376   0.897   1.167
69726W        W36267  32.463  14.346  11.555
69727W        W36268  31.383   1.706  13.817
69728W        W36269  22.165  29.953  14.169
69729W        W36270   7.230  38.928   1.472
69730W        W36271  33.492  25.526  13.428
69731W        W36272  15.702   2.889   4.582
69732W        W36273  43.908  43.074   0.161
69733W        W36274  30.989  17.239   3.305
69734W        W36275  11.361   4.221  11.753
69735W        W36276   4.315   5.083   0.429
69736W        W36277  39.058  28.372   1.275
69737W        W36278  37.639  32.885   3.704
69738W        W36279  14.035  18.621  14.310
69739W        W36280   6.977  31.805   1.866
69740W        W36281   8.857  28.131   1.720
69741W        W36282  26.195  27.505  12.802
69742W        W36283  16.710  31.715  14.420
69743W        W36284   3.954  15.339   0.366
69744W        W36285  25.253  15.689  13.384
69745W        W36286  34.872   3.694   4.978
69746W        W36287  42.404  20.190   3.067
69747W        W36288  17.896  42.290  11.364
69748W        W36289  39.534  13.545   3.694
69749W        W36290  25.162  38.323  14.786
69750W        W36291  38.975  22.387  11.624
69751W        W36292  26.184  36.446  10.584
69752W        W36293  19.582  22.090  14.380
69753W        W36294  32.533  11.250  11.112
69754W        W36295   6.643  22.983   3.145
69755W        W36296   5.238  44.942  14.434
69756W        W36297   9.831  36.446   1.996
69757W        W36298  28.598  33.821  11.118
69758W        W36299   8.224  36.665   2.832
69759W        W36300  28.036  11.712   4.053
69760W        W36301  32.229  31.082  14.605
69761W        W36302  41.088  11.858  12.931
69762W        W36303  11.823  10.960  11.494
69763W        W36304  21.446   3.347   3.662
69764W        W36305  14.870  23.089   0.084
69765W        W36306  17.150  15.876  13.377
69766W        W36307  10.949  37.903   2.184
69767W        W36308   9.865  17.068  10.979
69768W        W36309  27.969  16.105  12.583
69769W        W36310   0.777   8.849   0.519
69770W        W36311  39.031  27.344  14.812
69771W        W36312  21.449  23.012   3.494
69772W        W36313  31.404  18.773  12.369
69773W        W36314  36.494  24.768   1.403
69774W        W36315   5.121  40.408   3.963
69775W        W36316  38.478  23.682   4.298
69776W        W36317  42.219  15.656   3.754
69777W        W36318  31.512  27.240   0.964
69778W        W36319  24.490  22.036   3.080
69779W        W36320  24.066  24.651  12.423
69780W        W36321   6.303  29.509  11.076
69781W        W36322  16.816  17.175  13.442
69782W        W36323   8.182  10.662  11.995
69783W        W36324   5.654  15.554   0.900
69784W        W36325  36.292  40.261   1.203
69785W        W36326  14.282  36.360   3.859
69786W        W36327  26.341  33.929  12.044
69787W        W36328  24.479  44.244   2.323
69788W        W36329   8.156  40.966   5.524
69789W        W36330   1.935  27.605   4.731
69790W        W36331   7.251  42.419  10.698
69791W        W36332  21.951  28.322   2.281
69792W        W36333  27.423  36.325   0.495
69793W        W36334  44.454  28.636   3.165
69794W        W36335  19.668  37.105   3.650
69795W        W36336  24.919   6.927  14.843
69796W        W36337  11.254  15.063  14.834
69797W        W36338  19.141  25.000  13.141
69798W        W36339  25.147  32.572   2.391
69799W        W36340  14.049  17.405   4.138
69800W        W36341   7.382  38.120   0.959
69801W        W36342  12.296  26.746  12.774
69802W        W36343  22.746  11.687   0.244
69803W        W36344  37.026   6.437   4.290
69804W        W36345  43.286  27.516  13.043
69805W        W36346  29.497   0.947  14.433
69806W        W36347  31.845  17.754  13.348
69807W        W36348  31.905  38.569   2.723
69808W        W36349  14.405  18.092  11.107
69809W        W36350  12.844  10.206   2.301
69810W        W36351  11.331  42.021   0.071
69811W        W36352  34.703  20.279  12.234
69812W        W36353  39.860   4.274   3.202
69813W        W36354  11.344   0.843  14.784
69814W        W36355   0.497  35.363   2.361
69815W        W36356  25.448   7.141   4.597
69816W        W36357  26.558  13.119   3.389
69817W        W36358  18.583  40.469   3.353
69818W        W36359  13.217  42.642   4.502
69819W        W36360  32.502   1.451   1.800
69820W        W36361  18.286   2.131   2.279
69821W        W36362  34.093   3.030   3.126
69822W        W36363  44.136  40.251   1.443
69823W        W36364  12.080   1.375   0.775
69824W        W36365   5.560  16.169  11.651
69825W        W36366   2.885   6.387  11.497
69826W        W36367  24.729  18.696   3.193
69827W        W36368  18.442  43.641   0.770
69828W        W36369  14.566  33.147  12.874
69829W        W36370  30.620  22.482   3.888
69830W        W36371   5.294  14.820  10.935
69831W        W36372   0.484  18.250   1.311
69832W        W36373   4.414  36.535   3.931
69833W        W36374  14.223  35.118  14.984
69834W        W36375  44.378  32.300   0.985
69835W        W36376   8.794  43.388  10.736
69836W        W36377   0.838   3.389   2.863
69837W        W36378  44.386   2.878   4.613
69838W        W36379   0.564   9.563  13.471
69839W        W36380  28.145  11.669  12.570
69840W        W36381   8.940   3.935  12.666
69841W        W36382   3.810  38.899   2.285
69842W        W36383   6.162   7.905  14.879
69843W        W36384   9.925  36.365   1.483
69844W        W36385  39.860  28.742   1.819
69845W        W36386  43.898   0.156   0.337
69846W        W36387  37.685  18.826  10.809
69847W        W36388   9.412  24.211   3.226
69848W        W36389   9.671   2.287   3.876
69849W        W36390  28.040  41.145   1.108
69850W        W36391  18.038  11.501  13.712
69851W        W36392  15.196   2.008  14.941
69852W        W36393   3.472   1.912   1.808
69853W        W36394   4.769  42.008   0.891
69854W        W36395  36.504  36.987   2.887
69855W        W36396  33.155  16.259  12.931
69856W        W36397  34.508   7.505   4.498
69857W        W36398   3.629  10.498   1.752
69858W        W36399  35.555  25.456   4.334
69859W        W36400  32.561  32.581   1.388
69860W        W36401  15.805  29.429  14.884
69861W        W36402   5.377   8.404   3.672
69862W        W36403  14.085  26.531  10.995
69863W        W36404  30.572  11.665   0.210
69864W        W36405  25.652  19.005  11.125
69865W        W36406  10.805  14.085   2.820
69866W        W36407  13.116  23.592   0.634
69867W        W36408  30.399  40.832   0.723
69868W        W36409  20.511   3.308  10.368
69869W        W36410  20.264   2.867   3.670
69870W        W36411   6.345   2.920  11.454
69871W        W36412  14.327  25.576  12.018
69872W        W36413  13.065  16.490  13.535
69873W        W36414   0.055  33.997  14.845
69874W        W36415  23.617  20.719  10.360
69875W        W36416  40.455  23.513  13.026
69876W        W36417  28.546   0.314   1.491
69877W        W36418  30.682  20.821   2.725
69878W        W36419  27.524  35.040  11.137
69879W        W36420   6.351  40.617   4.506
69880W        W36421  29.665  14.582   4.232
69881W        W36422  32.823  32.916   4.214
69882W        W36423  42.577  19.321   3.725
69883W        W36424   2.369   5.261   0.774
69884W        W36425  33.212  42.965   0.725
69885W        W36426  29.230  37.930  13.599
69886W        W36427  10.303  17.260   3.164
69887W        W36428   7.782  34.475  12.637
69888W        W36429  31.578   5.651   3.122
69889W        W36430   7.008  19.210  14.631
69890W        W36431  22.992  23.657  12.386
69891W        W36432   5.319  41.034  12.317
69892W        W36433  37.002   6.076   4.706
69893W        W36434  30.933  40.263   0.350
69894W        W36435  25.024  18.137   3.129
69895W        W36436   7.161   8.453   0.346
69896W        W36437  14.654  11.063   2.348
69897W        W36438  41.905  36.098   4.144
69898W        W36439  43.222  11.693   4.108
69899W        W36440   5.762  41.866   2.752
69900W        W36441  18.903  12.296   4.604
69901W        W36442  41.818  18.698  14.377
69902W        W36443  39.813  43.467  12.723
69903W        W36444  34.079  39.930   2.314
69904W        W36445  11.960  38.357   0.749
69905W        W36446  26.166  37.334  10.879
69906W        W36447   7.644  11.799   2.404
69907W        W36448  16.160  30.253   4.151
69908W        W36449   6.867  16.500  11.238
69909W        W36450  42.194  26.151  14.982
69910W        W36451   7.108  43.508   3.129
69911W        W36452  36.597   4.314  10.839
69912W        W36453   9.046  20.530   3.332
69913W        W36454  23.169   6.679  11.808
69914W        W36455   6.887  35.868   1.692
69915W        W36456  38.315  33.814  13.741
69916W        W36457  26.200  15.739  11.501
69917W        W36458  20.618  22.360   1.378
69918W        W36459  25.632  30.543  11.515
69919W        W36460   8.456  12.805  13.369
69920W        W36461  28.588  27.239   0.231
69921W        W36462  12.904  16.716  11.134
69922W        W36463   9.432  20.126  14.358
69923W        W36464  28.832  38.849   0.095
69924W        W36465  18.220  43.590  10.694
69925W        W36466  34.855  27.515   4.140
69926W        W36467  13.873   1.496   4.826
69927W        W36468  15.327  28.088  12.444
69928W        W36469  43.097  11.356   0.811
69929W        W36470  24.797  21.091   0.314
69930W        W36471  15.841  25.141   3.165
69931W        W36472  31.861  11.153  13.923
69932W        W36473  34.635  25.586   2.835
69933W        W36474  30.589  20.604  14.861
69934W        W36475  33.363  44.276   0.005
69935W        W36476   8.276  13.865  11.138
69936W        W36477  14.306  42.942   0.495
69937W        W36478  36.157  15.642  11.990
69938W        W36479   0.296  30.198   2.272
69939W        W36480   9.356  21.165   4.198
69940W        W36481  19.177  31.111   0.975
69941W        W36482  19.592   3.739   0.461
69942W        W36483   6.096  43.850  12.413
69943W        W36484  25.650  16.142  13.177
69944W        W36485   9.956   3.788   2.812
69945W        W36486  42.727  31.830   3.055
69946W        W36487  24.905  28.435   1.709
69947W        W36488  19.555  26.474  10.668
69948W        W36489   9.204  21.405   0.620
69949W        W36490  37.120  38.280  12.408
69950W        W36491  35.851  30.585   3.904
69951W        W36492   2.402  42.413   3.151
69952W        W36493  37.032  21.038   5.174
69953W        W36494  31.341  16.242   2.784
69954W        W36495  18.883  29.107   1.510
69955W        W36496   7.086   5.192   0.514
69956W        W36497   1.020  28.211  10.302
69957W        W36498  33.700   8.183   3.632
69958W        W36499  21.988   4.581   1.590
69959W        W36500  39.085  25.711   1.700
69960W        W36501  13.401  34.404  14.292
69961W        W36502   5.624  32.499  12.647
69962W        W36503   6.321  21.563   3.684
69963W        W36504  33.639  28.222   3.169
69964W        W36505  25.252  10.636   4.516
69965W        W36506   0.960  35.587  13.832
69966W        W36507  22.797  32.304   1.427
69967W        W36508   9.258   4.464  14.024
69968W        W36509  31.116  21.666  12.966
69969W        W36510  34.972   5.810  14.870
69970W        W36511  26.617  34.197  10.487
69971W        W36512  28.486  12.865   4.262
69972W        W36513  42.742  24.200  12.466
69973W        W36514  27.026  37.436  10.835
69974W        W36515  13.451  31.914  11.667
69975W        W36516  14.368  24.023   4.574
69976W        W36517  42.068  23.112   0.752
69977W        W36518  31.101  44.190   0.355
69978W        W36519   0.917  29.921  14.688
69979W        W36520   0.005  42.445  11.628
69980W        W36521  18.852  33.507  10.723
69981W        W36522   2.006  19.332   2.786
69982W        W36523  35.830  32.145   1.698
69983W        W36524  44.035  44.417   3.676
69984W        W36525  42.814  23.769  13.111
69985W        W36526   2.760  30.342  13.586
69986W        W36527  38.632  38.765   0.264
69987W        W36528  34.407  35.243  10.629
69988W        W36529  37.289  34.963   4.130
69989W        W36530  37.665   9.183  11.327
69990W        W36531  40.849  32.119   3.577
69991W        W36532  25.051  22.784   4.943
69992W        W36533   4.785  31.232   0.877
69993W        W36534  10.297  33.358  11.584
69994W        W36535  14.940   9.402  13.353
69995W        W36536  10.281   1.372  12.380
69996W        W36537  25.803  30.177  13.764
69997W        W36538  12.399   2.474   2.238
69998W        W36539  43.845  12.318   1.042
69999W        W36540  39.819   7.734   3.830
70000W        W36541  27.195  16.221  11.033
70001W        W36542  26.457  37.587   1.830
70002W        W36543  33.180   6.874  10.622
70003W        W36544   6.258  36.653  10.964
70004W        W36545   3.054   3.307  13.446
70005W        W36546  39.965   6.373  13.849
70006W        W36547   8.847  14.086   4.796
70007W        W36548  14.341  21.599   0.922
70008W        W36549  26.773  12.657   1.470
70009W        W36550  17.938  31.515   3.315
70010W        W36551  32.223   9.293   1.837
70011W        W36552  15.680   2.174  14.940
70012W        W36553  40.229  15.991  14.891
70013W        W36554  16.274   7.097   2.306
70014W        W36555   7.920  34.647   2.843
70015W        W36556  19.761   6.723   2.784
70016W        W36557  10.263  31.294   0.686
70017W        W36558  26.794  13.054  13.598
70018W        W36559  27.101  28.560   4.041
70019W        W36560  21.492  13.373  14.351
70020W        W36561  21.693  13.559   0.203
70021W        W36562  43.880   8.678  14.015
70022W        W36563  44.278  30.942  11.497
70023W        W36564  26.291  31.796   4.993
70024W        W36565  35.837   2.175   2.800
70025W        W36566  32.877  16.179  14.344
70026W        W36567   1.086  43.275   1.771
70027W        W36568   2.733   2.605   3.593
70028W        W36569  25.022   2.187   0.870
70029W        W36570  32.487   9.930   0.810
70030W        W36571  43.749  17.590   3.273
70031W        W36572  28.465  28.468   4.345
70032W        W36573  40.810  32.415  12.846
70033W        W36574   1.237  15.940  10.618
70034W        W36575  43.661  38.122   4.874
70035W        W36576  14.668   4.726   3.217
70036W        W36577  15.265  10.172  11.470
70037W        W36578  35.553  12.548  14.430
70038W        W36579  40.997  11.390   4.929
70039W        W36580   4.428  20.099   1.971
70040W        W36581  22.353  22.616  13.446
70041W        W36582   0.703  35.996   1.446
70042W        W36583   9.153  29.333   2.789
70043W        W36584  35.077  17.817   1.223
70044W        W36585  12.285  39.263  11.473
70045W        W36586  22.213  44.658  11.250
70046W        W36587  18.475  12.217   4.344
70047W        W36588   0.163  30.851   5.544
70048W        W36589   5.111  42.721  11.920
70049W        W36590   8.612  30.372   0.901
70050W        W36591  32.915  44.076   0.206
70051W        W36592  24.552  25.239   1.331
70052W        W36593  30.389   8.708   1.122
70053W        W36594  26.616   9.211  14.842
70054W        W36595   7.716  20.519  13.819
70055W        W36596  23.435  26.185  14.287
70056W        W36597  26.440  14.137   2.654
70057W        W36598  24.977  42.573   3.585
70058W        W36599   4.725  20.699   0.761
70059W        W36600  13.582  31.391  11.603
70060W        W36601  12.801  15.967   4.561
70061W        W36602  44.095  18.631   1.406
70062W        W36603  43.316  19.624  12.403
70063W        W36604  19.105  14.779  14.516
70064W        W36605  16.710  20.909  13.003
70065W        W36606   8.680  29.330   0.998
70066W        W36607  39.538  35.261   3.089
70067W        W36608  24.174  36.127  14.485
70068W        W36609  44.868  30.115   2.914
70069W        W36610  32.029  29.100   4.639
70070W        W36611  15.305   4.202   0.401
70071W        W36612   3.836  14.265   1.384
70072W        W36613  20.272  22.643  14.537
70073W        W36614  30.015   3.276  12.749
70074W        W36615  13.866  35.332  11.907
70075W        W36616  13.484  42.094   2.134
70076W        W36617  11.335   9.834   0.772
70077W        W36618   8.440  41.332  11.179
70078W        W36619  32.883  17.736   0.919
70079W        W36620  36.055   6.785   3.423
70080W        W36621  28.355   9.346  12.070
70081W        W36622  27.080  16.425   3.629
70082W        W36623  30.665   6.745  14.386
70083W        W36624  15.816  11.387  12.301
70084W        W36625  27.282  37.838   0.012
70085W        W36626  23.018  21.780  13.375
70086W        W36627   2.944   3.520   3.639
70087W        W36628   7.760  37.137   1.659
70088W        W36629  44.457  33.073  13.933
70089W        W36630  37.390  27.029   2.948
70090W        W36631  27.723  14.153  14.340
70091W        W36632  36.827   4.059  14.261
70092W        W36633   9.871  30.513  12.004
70093W        W36634   8.503  26.728   2.242
70094W        W36635  12.099  19.048  12.902
70095W        W36636  29.806  12.204   1.425
70096W        W36637  27.784  41.473  14.438
70097W        W36638  19.029  34.569  14.304
70098W        W36639  26.412  20.122  10.488
70099W        W36640  10.989  20.019   2.325
70100W        W36641  26.482  25.005   0.718
70101W        W36642  32.992  38.330   4.115
70102W        W36643  19.978  37.309  11.139
70103W        W36644  28.167  20.325   0.666
70104W        W36645  32.626  25.954   2.178
70105W        W36646  26.216   9.555  13.375
70106W        W36647   3.060  14.273   2.076
70107W        W36648  33.536  11.041  14.821
70108W        W36649  19.533   6.293   1.058
70109W        W36650  10.478  38.515   5.442
70110W        W36651  40.071  42.771   4.607
70111W        W36652  17.747  39.337   0.871
70112W        W36653   8.736  19.447   1.336
70113W        W36654   7.788  10.328   4.461
70114W        W36655  13.227   6.478   2.222
70115W        W36656  10.715  13.054  12.675
70116W        W36657   8.236  31.535  10.913
70117W        W36658   1.466  37.337   3.655
70118W        W36659   5.235  42.849   4.422
70119W        W36660  22.465  26.032   1.278
70120W        W36661   1.420   3.966   4.661
70121W        W36662   2.240  19.548   4.120
70122W        W36663  13.530  32.506   4.952
70123W        W36664  43.447  16.844  12.809
70124W        W36665   6.856  23.246   0.438
70125W        W36666  44.237  31.177   4.114
70126W        W36667   1.896  15.855  12.488
70127W        W36668   5.276   4.742  11.705
70128W        W36669  16.210  20.974  12.834
70129W        W36670  17.778  19.290   0.386
70130W        W36671  38.599   5.174   0.011
70131W        W36672  28.306  35.637  12.084
70132W        W36673  15.510  19.792   2.932
70133W        W36674  31.604  44.340  12.186
70134W        W36675   5.136   9.161  14.269
70135W        W36676  17.301  33.358  11.461
70136W        W36677   9.708  26.127   0.204
70137W        W36678   9.793  32.458  12.939
70138W        W36679  10.908  26.040  11.910
70139W        W36680  29.116  13.665  14.281
70140W        W36681  43.281   1.643  11.236
70141W        W36682  22.651  21.177   3.335
70142W        W36683  14.855  17.587   4.436
70143W        W36684  34.969  11.718   3.644
70144W        W36685  12.405  39.761   0.937
70145W        W36686  10.628  11.487  13.825
70146W        W36687  18.569  20.421   3.671
70147W        W36688  43.052  42.810   2.380
70148W        W36689  40.321  34.941   4.122
70149W        W36690  33.189  23.583  12.374
70150W        W36691  28.457  26.734   1.131
70151W        W36692  19.011  37.526   2.387
70152W        W36693   4.419  34.928   0.498
70153W        W36694  14.597  28.289   3.656
70154W        W36695   5.223   5.652  10.531
70155W        W36696   6.494  27.901   2.283
70156W        W36697  44.917  13.619  14.346
70157W        W36698   9.192  24.606  10.692
70158W        W36699   6.193  20.620  13.375
70159W        W36700  30.566  39.746  14.755
70160W        W36701  21.755  18.500   1.013
70161W        W36702  34.891   5.505   9.924
70162W        W36703  43.218  42.372   4.098
70163W        W36704  33.629   7.185   2.269
70164W        W36705  30.622  26.554   0.433
70165W        W36706  32.576  32.731   0.891
70166W        W36707  25.158  15.590   1.271
70167W        W36708  25.714   0.273   1.580
70168W        W36709   0.967  29.307  11.664
70169W        W36710  43.785  44.694   1.647
70170W        W36711  39.860  17.166  10.400
70171W        W36712  40.780  33.397  14.149
70172W        W36713  39.424  27.731  10.698
70173W        W36714  34.870   8.802   1.496
70174W        W36715  15.313  15.600  11.462
70175W        W36716   7.230   0.818   1.115
70176W        W36717   0.960  30.910  13.482
70177W        W36718  35.793  22.504  12.440
70178W        W36719  17.034   0.209  11.540
70179W        W36720  10.842   4.872  13.388
70180W        W36721   1.344  25.438   3.265
70181W        W36722  20.592  44.377   1.377
70182W        W36723  34.087  27.916  13.595
70183W        W36724  30.353   1.771   4.461
70184W        W36725  18.444  25.090   1.309
70185W        W36726  10.650  28.126   2.151
70186W        W36727  30.947  35.501   4.479
70187W        W36728   1.480   2.397   3.212
70188W        W36729  11.444  34.800  10.847
70189W        W36730   8.558  21.004  14.000
70190W        W36731   6.813   3.938   1.870
70191W        W36732  37.705   0.725  10.659
70192W        W36733  28.473  41.717   0.482
70193W        W36734  40.559   2.797   3.594
70194W        W36735  42.354  12.576   1.648
70195W        W36736  10.262  11.955   1.489
70196W        W36737  30.692  11.188  10.636
70197W        W36738   7.967   1.769  14.267
70198W        W36739  15.317  11.229  13.364
70199W        W36740  34.314  42.371   0.337
70200W        W36741  29.224   4.923  13.388
70201W        W36742  13.337  33.672   2.318
70202W        W36743  10.281   0.410   5.355
70203W        W36744  22.069  33.851   0.828
70204W        W36745  27.910  20.290  10.630
70205W        W36746  19.666  35.482  10.817
70206W        W36747   5.513  25.084  14.944
70207W        W36748  19.731  13.894  13.412
70208W        W36749  32.419  30.620  12.076
70209W        W36750  27.454  13.609   3.826
70210W        W36751  20.636   7.922   1.678
70211W        W36752  40.682  33.960   4.088
70212W        W36753  27.302  38.989  12.103
70213W        W36754  31.441  29.581   1.499
70214W        W36755   0.941  31.080   1.729
70215W        W36756  19.766   2.746  12.093
70216W        W36757  37.052  44.717   1.263
70217W        W36758  12.962  28.910   2.676
70218W        W36759  23.292   5.923  14.862
70219W        W36760  40.571  40.066   4.545
70220W        W36761   3.227  17.757   2.881
70221W        W36762  38.951  22.601  13.031
70222W        W36763  17.237  29.160   4.138
70223W        W36764  18.555  19.550  13.277
70224W        W36765  21.861  14.884   5.075
70225W        W36766  10.288  10.612  10.516
70226W        W36767  15.742  23.137   2.429
70227W        W36768  41.148  21.460   3.040
70228W        W36769  22.090  36.565  13.100
70229W        W36770  38.264  10.816   0.756
70230W        W36771  42.949   3.176  13.568
70231W        W36772  37.752  15.814   4.158
70232W        W36773  25.173   6.297   4.097
70233W        W36774  24.492  42.298   3.691
70234W        W36775  39.120  44.802   2.662
70235W        W36776   0.857   9.178  12.190
70236W        W36777   2.966  17.777   4.651
70237W        W36778  42.031   2.473  14.767
70238W        W36779  10.270  27.554   3.131
70239W        W36780   0.912  41.962   3.684
70240W        W36781  24.571  33.559   4.904
70241W        W36782  26.739  40.015   2.415
70242W        W36783  42.913  16.770   2.499
70243W        W36784   7.630  44.503   1.768
70244W        W36785  23.332  23.927   0.358
70245W        W36786  22.127  13.105   1.720
70246W        W36787  40.391  25.493   1.399
70247W        W36788  43.851  23.084  14.450
70248W        W36789  19.772  23.293   3.876
70249W        W36790  15.189  13.534   3.370
70250W        W36791  44.316  41.899  11.901
70251W        W36792  24.444   8.979  12.466
70252W        W36793  15.563  23.690   2.471
70253W        W36794  14.314  16.833  13.905
70254W        W36795  41.607  42.493   2.597
70255W        W36796  24.743  39.116   2.650
70256W        W36797  15.706  43.333   3.275
70257W        W36798   8.944   7.252   0.336
70258W        W36799  22.723  25.576   4.439
70259W        W36800   4.782  28.202  13.992
70260W        W36801  10.826  31.430  12.959
70261W        W36802   9.044  31.880   5.178
70262W        W36803  31.940  31.237   2.400
70263W        W36804   0.268  23.872   2.090
70264W        W36805  25.099  23.722   4.070
70265W        W36806  43.364  35.587   1.568
70266W        W36807  34.293   6.186   4.730
70267W        W36808  42.629  30.498  14.780
70268W        W36809  29.537   3.318   0.206
70269W        W36810  42.820  28.029   3.630
70270W        W36811  31.075   2.316   4.969
70271W        W36812  40.323   3.354  13.855
70272W        W36813  40.052  39.010   4.027
70273W        W36814  26.937  27.146  13.074
70274W        W36815   0.375  39.528  10.671
70275W        W36816  23.784  15.593   3.011
70276W        W36817  41.234   8.221  14.412
70277W        W36818  16.612  26.486   3.912
70278W        W36819  12.624  21.070  14.881
70279W        W36820  12.293   5.834   2.473
70280W        W36821  17.532  38.345  10.600
70281W        W36822  36.800  11.311  14.771
70282W        W36823  19.146   9.095  12.356
70283W        W36824   0.492  32.515  11.703
70284W        W36825  36.967  41.818   0.429
70285W        W36826   4.397  34.528   2.435
70286W        W36827  39.593   8.773   2.775
70287W        W36828  32.161   3.930   0.790
70288W        W36829  42.737  27.030  14.920
70289W        W36830  19.729  15.693  13.837
70290W        W36831  43.599   7.252   3.848
70291W        W36832   1.247  40.242   1.304
70292W        W36833  22.238  21.451  14.904
70293W        W36834  24.706  13.545   2.706
70294W        W36835  43.993  35.318  14.415
70295W        W36836  30.603  15.353  10.167
70296W        W36837   4.626  11.926  14.554
70297W        W36838  11.333  32.931  14.801
70298W        W36839  11.852  18.642   4.138
70299W        W36840   2.557  41.410  10.431
70300W        W36841  38.935  14.175   1.144
70301W        W36842  20.249  37.882  10.736
70302W        W36843   2.473  32.924   0.761
70303W        W36844   4.581  39.671   1.439
70304W        W36845   1.995  43.842   0.277
70305W        W36846  41.261   8.248   2.220
70306W        W36847  31.035  35.106  12.286
70307W        W36848  29.405   7.494  14.041
70308W        W36849  42.343   8.809   3.810
70309W        W36850   8.654  18.480  13.373
70310W        W36851  27.445  16.631   0.350
70311W        W36852   7.504   9.996   3.498
70312W        W36853  41.849  38.367  13.646
70313W        W36854  13.012  15.984  12.276
70314W        W36855  13.942   4.056   2.413
70315W        W36856  32.129   6.573  13.335
70316W        W36857  13.844   9.250   2.465
70317W        W36858   8.612   7.788   2.226
70318W        W36859  10.266   2.082  11.650
70319W        W36860  15.649  33.602   3.295
70320W        W36861  20.996  13.226   0.316
70321W        W36862  14.885   0.061   3.216
70322W        W36863  12.328  39.242  14.734
70323W        W36864  22.574   2.706   0.224
70324W        W36865  43.906  43.484  11.769
70325W        W36866   4.988  35.114  14.129
70326W        W36867  21.721  41.323   0.856
70327W        W36868  43.065  10.459   0.923
70328W        W36869  39.354  19.825   1.463
70329W        W36870  34.562   4.452  13.976
70330W        W36871   3.784  40.487  13.332
70331W        W36872  21.886  39.855   2.223
70332W        W36873  11.836   5.262  11.116
70333W        W36874  14.740  21.642   3.137
70334W        W36875  26.460  27.944  14.874
70335W        W36876  23.853  34.919  14.293
70336W        W36877   9.747  10.586   2.431
70337W        W36878  41.841  24.754  12.967
70338W        W36879  42.869  43.439   4.208
70339W        W36880  33.027   7.336   3.919
70340W        W36881  30.384   3.752  13.934
70341W        W36882  12.195  36.917   2.778
70342W        W36883   2.859   8.217  14.345
70343W        W36884  10.743  35.396   1.801
70344W        W36885  30.146  13.617  13.224
70345W        W36886   8.207   1.304   0.343
70346W        W36887  18.700  28.661   4.176
70347W        W36888  24.461  13.392   1.892
70348W        W36889   2.210   9.944   2.831
70349W        W36890  35.327  30.827   4.725
70350W        W36891  10.223  14.674  12.065
70351W        W36892  31.902  42.491  12.054
70352W        W36893  40.351  37.648   4.957
70353W        W36894  30.848   0.521  12.042
70354W        W36895  35.989  42.280  13.809
70355W        W36896  23.532  18.480   4.614
70356W        W36897  25.513  28.555  14.939
70357W        W36898  31.502  36.915  13.633
70358W        W36899  23.595  29.972   4.098
70359W        W36900  31.425  43.772   0.291
70360W        W36901   5.488  25.304   2.204
70361W        W36902  38.445  44.238  11.805
70362W        W36903   5.612  40.858   2.093
70363W        W36904  27.132  20.704   4.517
70364W        W36905  38.861  27.103   3.613
70365W        W36906  42.202  14.532  13.473
70366W        W36907  11.166   1.330   4.186
70367W        W36908  27.430  22.536   1.269
70368W        W36909  42.537  25.172  12.484
70369W        W36910   2.989  37.935  11.540
70370W        W36911   7.437  34.059   0.721
70371W        W36912  17.144  30.156   1.316
70372W        W36913  20.701  40.158   2.801
70373W        W36914  37.545  16.636  11.433
70374W        W36915  37.087   4.682  13.052
70375W        W36916   7.814   3.915  12.894
70376W        W36917  43.480  35.676  14.800
70377W        W36918  22.472  27.494   3.201
70378W        W36919  35.533  24.859   1.999
70379W        W36920  26.206  20.223   0.922
70380W        W36921  13.173  38.447   0.467
70381W        W36922   5.286  28.178  14.408
70382W        W36923  37.311  14.754   1.997
70383W        W36924  23.205   2.682   0.062
70384W        W36925   5.793  29.238   4.252
70385W        W36926  24.583   7.451  13.596
70386W        W36927   7.453   7.680   1.414
70387W        W36928  21.689  29.943  14.502
70388W        W36929  20.533  27.310   0.896
70389W        W36930  19.663  37.996  14.890
70390W        W36931  27.010  42.516   4.268
70391W        W36932  19.043  27.164   4.559
70392W        W36933  20.587  19.119   4.109
70393W        W36934  25.144  43.175  13.843
70394W        W36935  27.044   7.299  10.740
70395W        W36936  13.227  41.938  13.741
70396W        W36937  20.261  25.046  12.030
70397W        W36938  30.648  13.054  14.608
70398W        W36939   7.908  15.099  13.383
70399W        W36940  36.015   6.454  13.865
70400W        W36941  21.044  17.063  13.957
70401W        W36942   8.384  34.454  13.447
70402W        W36943  29.580   0.197  14.649
70403W        W36944  37.473  36.450   3.377
70404W        W36945  14.661  16.833   2.833
70405W        W36946  20.979  19.188   0.490
70406W        W36947  44.972  33.176   2.731
70407W        W36948  11.394   3.119   0.696
70408W        W36949  34.412  28.429  12.845
70409W        W36950  31.251  17.155   4.579
70410W        W36951  39.939  23.387  12.968
70411W        W36952  24.402  39.994   0.716
70412W        W36953  25.069  43.010   4.586
70413W        W36954  43.826  16.782  10.998
70414W        W36955  27.597   2.970  12.329
70415W        W36956  14.347  44.835  12.958
70416W        W36957   5.430  18.733   0.833
70417W        W36958   8.646  22.000   3.802
70418W        W36959  21.585  33.181  14.411
70419W        W36960  10.891   1.882   3.335
70420W        W36961  30.223   0.260   0.386
70421W        W36962  37.835  28.539   0.773
70422W        W36963  22.284  20.293   4.740
70423W        W36964  37.435   6.391  11.395
70424W        W36965  24.748  18.630  12.859
70425W        W36966   4.732   8.849   1.084
70426W        W36967  13.942  11.637  12.221
70427W        W36968  36.939  12.603  13.328
70428W        W36969  38.584  29.972   0.664
70429W        W36970  13.304  44.261  12.532
70430W        W36971   9.274  10.493   9.849
70431W        W36972  14.557  32.402  13.981
70432W        W36973  31.744   9.328  13.573
70433W        W36974  29.616  15.666   4.971
70434W        W36975   1.207   1.274   2.730
70435W        W36976   0.712  20.215   4.119
70436W        W36977   1.469  15.207  13.547
70437W        W36978  34.014  32.981  12.106
70438W        W36979  26.541   9.766   1.447
70439W        W36980  43.282  17.090  11.548
70440W        W36981  35.436   9.455   3.283
70441W        W36982  33.089  14.409   3.769
70442W        W36983  10.618  14.738   3.404
70443W        W36984  18.045  16.798   2.788
70444W        W36985  25.388   4.146  10.975
70445W        W36986  23.969  36.171  11.577
70446W        W36987  21.201   9.847   4.548
70447W        W36988  42.301  41.004   1.012
70448W        W36989   3.711  17.738  12.112
70449W        W36990  32.408  29.063   2.305
70450W        W36991  40.077   2.591   2.383
70451W        W36992   6.040  39.787  13.299
70452W        W36993  30.476   0.702   0.490
70453W        W36994  28.327  11.303   4.112
70454W        W36995   7.909  25.299  12.985
70455W        W36996  15.102  23.979  11.540
70456W        W36997  21.806  36.025  13.824
70457W        W36998   9.435   0.281  10.662
70458W        W36999  38.845   7.286  11.663
70459W        W37000  43.934  10.226  11.166
70460W        W37001  22.058  34.914  10.732
70461W        W37002  25.078   7.376   3.004
70462W        W37003  11.127  19.009  12.796
70463W        W37004   1.966  10.872  14.505
70464W        W37005  31.467  41.533   2.541
70465W        W37006  27.604  32.908  10.576
70466W        W37007   4.783   1.278   1.944
70467W        W37008   0.455   9.913   3.239
70468W        W37009  15.334  12.818  12.890
70469W        W37010  29.885  19.994  10.869
70470W        W37011  20.006  36.435   4.113
70471W        W37012   8.522   3.772  13.536
70472W        W37013  13.507   6.763   1.873
70473W        W37014  26.834  11.373   0.548
70474W        W37015  41.222  24.842  12.248
70475W        W37016  19.538  44.810  13.578
70476W        W37017  12.854  16.336   2.773
70477W        W37018  30.040  14.319  13.552
70478W        W37019  44.698  12.867   3.220
70479W        W37020  23.532   4.742   0.656
70480W        W37021   2.644   2.321  12.413
70481W        W37022  27.971  34.858   2.955
70482W        W37023   2.305  28.240   3.132
70483W        W37024  44.489   5.697   2.171
70484W        W37025  21.657  17.009   1.169
70485W        W37026  17.241  22.362   5.059
70486W        W37027  14.708  11.345  13.490
70487W        W37028   8.454  19.934   2.715
70488W        W37029   5.688  37.535   3.930
70489W        W37030  29.156  11.719  12.908
70490W        W37031  39.831  30.576   0.268
70491W        W37032  44.593  40.807   4.696
70492W        W37033  15.837  17.128   0.441
70493W        W37034  18.737   9.721  13.943
70494W        W37035  14.265  12.550  13.598
70495W        W37036   3.771  28.148  14.555
70496W        W37037  19.706  19.718   0.288
70497W        W37038  10.370  15.882  12.438
70498W        W37039  37.021  15.113   4.647
70499W        W37040  41.987  41.006   3.098
70500W        W37041  12.238   3.695   0.478
70501W        W37042  34.906  32.332   0.722
70502W        W37043   7.713  19.067  10.735
70503W        W37044  10.302  18.212  10.287
70504W        W37045  34.125   5.991  13.761
70505W        W37046  38.337  32.052   3.845
70506W        W37047  12.075  37.467  11.229
70507W        W37048  17.294  25.487  14.411
70508W        W37049  30.612  14.901  10.449
70509W        W37050  26.207   8.646   3.849
70510W        W37051  42.135  17.821   4.133
70511W        W37052  21.484   5.745  13.555
70512W        W37053   1.895  14.379  13.394
70513W        W37054  43.416  30.219   5.019
70514W        W37055  18.729   0.998   0.334
70515W        W37056   8.816  44.517  11.652
70516W        W37057  30.974  26.502   3.625
70517W        W37058  20.440  39.803   3.599
70518W        W37059  36.271  10.069  11.271
70519W        W37060   7.698  23.477   1.835
70520W        W37061  38.850  19.148  10.437
70521W        W37062  41.610   5.136   0.840
70522W        W37063  12.044  26.461   4.155
70523W        W37064  22.471  10.174   2.457
70524W        W37065  13.159  17.104  11.386
70525W        W37066  15.344  16.609   1.272
70526W        W37067  16.833   9.743  12.397
70527W        W37068  13.797   0.461   2.810
70528W        W37069  23.149   5.642  14.460
70529W        W37070   2.838  14.158   3.492
70530W        W37071  30.163   6.710   2.957
70531W        W37072  12.334  35.087   0.976
70532W        W37073  17.146  30.250  13.840
70533W        W37074  30.535  19.579  11.936
70534W        W37075  28.976   7.870  13.027
70535W        W37076  43.028   0.511   1.671
70536W        W37077  15.717  37.396   0.863
70537W        W37078  25.690  22.697   2.805
70538W        W37079  35.280  42.717   3.746
70539W        W37080  31.607  28.248  11.480
70540W        W37081  28.653  21.237   3.350
70541W        W37082  30.618   7.729   1.970
70542W        W37083  10.354  37.935   2.758
70543W        W37084  23.691  36.522  10.677
70544W        W37085  11.867  38.531   4.475
70545W        W37086  15.095  36.957   4.542
70546W        W37087  24.112   2.740  13.165
70547W        W37088  32.652  36.480   4.528
70548W        W37089  26.104  43.257   0.771
70549W        W37090  28.223  43.063  10.997
70550W        W37091  15.325  34.487   2.888
70551W        W37092  15.709  22.846   4.062
70552W        W37093  23.496   1.226   0.920
70553W        W37094  12.201  23.465   0.963
70554W        W37095  20.892  28.503   0.511
70555W        W37096   7.275   0.793   4.644
70556W        W37097   9.906  38.327   2.778
70557W        W37098   1.424  38.588  13.993
70558W        W37099  41.124   8.186   3.593
70559W        W37100  27.232  19.270  12.495
70560W        W37101  15.222  33.021  14.284
70561W        W37102  40.499  13.091   5.015
70562W        W37103   4.597   7.469   3.967
70563W        W37104  23.763  44.982   0.241
70564W        W37105  44.475  43.473  14.390
70565W        W37106  28.078  43.415  10.079
70566W        W37107  24.766  35.620   3.649
70567W        W37108   2.403  16.605  12.006
70568W        W37109  16.557  16.159  10.651
70569W        W37110  31.577  30.987   2.129
70570W        W37111   3.314  20.257   3.306
70571W        W37112  19.083  25.665  13.921
70572W        W37113   2.764   6.052   0.726
70573W        W37114  11.300  21.313  11.148
70574W        W37115   8.774  16.015   4.182
70575W        W37116   9.385  22.971   0.242
70576W        W37117   9.401  31.571  12.977
70577W        W37118  31.754  34.793   2.280
70578W        W37119  19.538  14.857  12.515
70579W        W37120   6.717  28.458   1.227
70580W        W37121  26.013  25.259  10.741
70581W        W37122  12.574  28.112  14.790
70582W        W37123  13.266  43.303   2.329
70583W        W37124  10.272   7.716   9.982
70584W        W37125  20.231  43.910   4.696
70585W        W37126  21.972  20.531  14.864
70586W        W37127  27.151  15.296  10.129
70587W        W37128  21.984  26.210   0.334
70588W        W37129  25.500  35.906  12.995
70589W        W37130  22.271   6.379   1.447
70590W        W37131  44.318   8.409   2.985
70591W        W37132  35.577  34.356  12.500
70592W        W37133  19.798  21.050  11.885
70593W        W37134  11.499  23.158   4.311
70594W        W37135  43.406   8.980   2.505
70595W        W37136  12.256  39.246  13.860
70596W        W37137  27.010   0.716   1.186
70597W        W37138  40.743  41.053   2.801
70598W        W37139  39.908   5.215   3.266
70599W        W37140   8.795  10.898  12.083
70600W        W37141  28.565  17.601   2.459
70601W        W37142  23.513  35.978  14.365
70602W        W37143  40.016   7.099  10.567
70603W        W37144  39.529  35.036  14.960
70604W        W37145  42.452  31.064  13.990
70605W        W37146   8.274  42.935  11.937
70606W        W37147   9.328   9.737  12.443
70607W        W37148  28.742  42.783  13.938
70608W        W37149   7.284  11.548  14.785
70609W        W37150  14.199  21.122   0.772
70610W        W37151  27.450  22.000   1.316
70611W        W37152  25.908  21.675  13.079
70612W        W37153  34.205  15.807  11.004
70613W        W37154  34.964  35.606   2.812
70614W        W37155  43.033   9.926  10.967
70615W        W37156  29.220  28.563   1.969
70616W        W37157  22.521  32.979   3.717
70617W        W37158  32.021   7.139  12.473
70618W        W37159  11.328  36.815   3.696
70619W        W37160  15.850  41.754   1.787
70620W        W37161  37.482   7.303   2.083
70621W        W37162  34.056  10.214  11.601
70622W        W37163  25.292  17.579   0.762
70623W        W37164  37.515   6.490   2.179
70624W        W37165   3.581  26.589  13.514
70625W        W37166  32.467  29.442   4.475
70626W        W37167  11.637  20.224  13.425
70627W        W37168   2.330  41.381   1.687
70628W        W37169  16.319   4.955  13.458
70629W        W37170  36.535   3.235   3.770
70630W        W37171  11.833  34.851  13.169
70631W        W37172  22.675  38.443  14.027
70632W        W37173  39.857  32.472   2.318
70633W        W37174  38.198  44.850  12.057
70634W        W37175   1.441  19.594   3.332
70635W        W37176  36.937   1.260  14.351
70636W        W37177   5.193  30.135   1.302
70637W        W37178   1.206  29.874   5.558
70638W        W37179   5.290  14.828  14.301
70639W        W37180  21.397  37.876   0.428
70640W        W37181  14.215   7.678   1.899
70641W        W37182  18.634  28.674   3.254
70642W        W37183  29.734   5.098  13.325
70643W        W37184  41.984   0.270  11.542
70644W        W37185  31.341  25.505   2.688
70645W        W37186  39.366  40.619   1.836
70646W        W37187  24.045  21.594   4.757
70647W        W37188   2.324  41.716   1.282
70648W        W37189  17.346  22.548   1.798
70649W        W37190   1.549  27.287  13.478
70650W        W37191  30.779  31.208   1.768
70651W        W37192  32.786   1.781   3.509
70652W        W37193  18.022  23.973   1.637
70653W        W37194  33.502  19.321  14.324
70654W        W37195   5.818  38.427   9.827
70655W        W37196   7.924  20.654  12.441
70656W        W37197  26.949  36.985   2.274
70657W        W37198  40.468  11.331   1.510
70658W        W37199   1.295  11.281  13.994
70659W        W37200  33.790  44.146  13.813
70660W        W37201  33.028  42.483   0.772
70661W        W37202  26.957  39.704   3.789
70662W        W37203   5.351   4.991   1.866
70663W        W37204   8.200  30.187   4.042
70664W        W37205  39.636   0.909   0.967
70665W        W37206  35.061  33.672   0.384
70666W        W37207  39.146   2.858  10.798
70667W        W37208  24.555  30.210   3.080
70668W        W37209  38.238  38.765   1.181
70669W        W37210  44.967   8.645   3.571
70670W        W37211  43.149   6.138   1.008
70671W        W37212  18.254  30.738   2.670
70672W        W37213  44.151  42.770  11.477
70673W        W37214  36.472   3.377  11.969
70674W        W37215  17.379  20.337  10.388
70675W        W37216  16.481  39.992   3.746
70676W        W37217  27.010  36.886  14.915
70677W        W37218  10.660  21.145   0.693
70678W        W37219  14.459  16.649  13.038
70679W        W37220   3.642  29.215   0.791
70680W        W37221  39.504  22.275  11.748
70681W        W37222  30.859  25.682   4.615
70682W        W37223   8.196  17.166  13.060
70683W        W37224  27.614  14.221   3.370
70684W        W37225  14.229   1.858  10.758
70685W        W37226  38.053  43.438   0.310
70686W        W37227  22.527   2.851  10.894
70687W        W37228  15.820  25.286   4.039
70688W        W37229  10.385  33.475  12.921
70689W        W37230   5.985  36.485  11.359
70690W        W37231  38.656  30.200   3.056
70691W        W37232   6.474  21.037  13.200
70692W        W37233  26.880  43.020  12.513
70693W        W37234  26.941   4.210  12.413
70694W        W37235  30.553   9.199  13.899
70695W        W37236  16.315  43.732   0.470
70696W        W37237  26.903  10.404  11.917
70697W        W37238  28.570  36.948   1.300
70698W        W37239  20.673   6.039  12.829
70699W        W37240  10.780  16.173  12.365
70700W        W37241   0.013   2.305  12.048
70701W        W37242  26.199  27.190   4.026
70702W        W37243  40.699  22.578  12.904
70703W        W37244  31.827  36.458   0.883
70704W        W37245  23.983  20.777   3.432
70705W        W37246  12.843   4.901  14.181
70706W        W37247  21.193  38.930   3.660
70707W        W37248  13.312  34.106  13.338
70708W        W37249  35.070  33.131  12.146
70709W        W37250   1.469   1.713   2.644
70710W        W37251  19.190   1.212   0.401
70711W        W37252  16.194  16.858   3.751
70712W        W37253   8.411  41.985  12.326
70713W        W37254  20.678  23.293  13.998
70714W        W37255  28.445   1.939   2.087
70715W        W37256  33.059  37.500   2.374
70716W        W37257   9.523   5.829   2.329
70717W        W37258   0.827  36.093  14.892
70718W        W37259  42.903  33.659   3.193
70719W        W37260  41.855  19.046   3.045
70720W        W37261  39.974  18.088   1.812
70721W        W37262  14.022  43.366   4.014
70722W        W37263  15.186  21.650   4.086
70723W        W37264  21.216  28.419   4.150
70724W        W37265  14.633  21.786  12.899
70725W        W37266  29.026   8.185   2.664
70726W        W37267   4.473   3.896  11.929
70727W        W37268   9.388  42.745   3.698
70728W        W37269  21.153   1.219  13.790
70729W        W37270  23.385  38.635  14.592
70730W        W37271  32.100  22.458   3.247
70731W        W37272  39.442  29.142   2.694
70732W        W37273  12.111  27.411  13.811
70733W        W37274  31.319  11.821  14.389
70734W        W37275  41.942  26.488   2.601
70735W        W37276  21.226  37.019   3.712
70736W        W37277  18.677   0.990   2.581
70737W        W37278  32.516  24.968  12.101
70738W        W37279  38.496   6.366   0.302
70739W        W37280  37.225  16.708   3.075
70740W        W37281  30.118  23.327  12.035
70741W        W37282   3.226  26.382   2.289
70742W        W37283  41.186  43.679   4.876
70743W        W37284  37.971   9.234  13.488
70744W        W37285   7.589  38.491   1.306
70745W        W37286  15.414  38.934  14.795
70746W        W37287  28.179  36.526  14.352
70747W        W37288  43.194  29.770   0.211
70748W        W37289  35.481  36.090   3.084
70749W        W37290  21.751  20.614   1.857
70750W        W37291   1.475   3.402  13.009
70751W        W37292  27.461   4.491  13.790
70752W        W37293  14.110  36.119  12.176
70753W        W37294  23.395  12.784  14.960
70754W        W37295   3.640   6.816   3.676
70755W        W37296  40.948  22.122  10.751
70756W        W37297   7.185  16.762   2.500
70757W        W37298  42.378  10.266   4.423
70758W        W37299  33.600  30.858  12.994
70759W        W37300  13.827  14.292   1.455
70760W        W37301  40.204  11.620   3.151
70761W        W37302   0.784  16.286   3.610
70762W        W37303   7.776  37.065  12.363
70763W        W37304  34.348  12.645  13.934
70764W        W37305  14.920  35.344   2.724
70765W        W37306  38.044  39.939   0.204
70766W        W37307  30.273  17.515  10.629
70767W        W37308  13.204   1.401  11.257
70768W        W37309  26.638  29.093  11.212
70769W        W37310  28.877  20.626  11.557
70770W        W37311   9.201   6.410   2.980
70771W        W37312   1.870   6.915  12.625
70772W        W37313  14.603  36.511   2.197
70773W        W37314  35.125  30.052   0.193
70774W        W37315  24.489  39.576  14.783
70775W        W37316  13.338  15.046  14.905
70776W        W37317  15.624  11.048  11.370
70777W        W37318  25.929  30.866   3.485
70778W        W37319  18.749   4.869  10.210
70779W        W37320   1.950   8.913   2.292
70780W        W37321  37.498  18.003   1.002
70781W        W37322  36.126  18.172   3.746
70782W        W37323  22.263  23.138   3.736
70783W        W37324   7.972  22.735  12.968
70784W        W37325  44.301  38.436   1.947
70785W        W37326  35.865   3.751  14.107
70786W        W37327  25.604  25.626   0.017
70787W        W37328  24.686  34.988   2.902
70788W        W37329   8.762  23.931  14.567
70789W        W37330  29.247  36.147  11.325
70790W        W37331  42.764   3.647  14.349
70791W        W37332  12.834  25.668   4.482
70792W        W37333  40.984  31.560  14.509
70793W        W37334  33.579  32.129   5.021
70794W        W37335  12.554  16.190   3.697
70795W        W37336  39.492   6.122  13.786
70796W        W37337   3.087   4.999   1.881
70797W        W37338  42.959  23.709   2.386
70798W        W37339  39.873  38.686  11.489
70799W        W37340   1.085  42.872   3.743
70800W        W37341   0.494  21.924   3.174
70801W        W37342  39.205   6.721   3.794
70802W        W37343  27.952   5.336  14.700
70803W        W37344  23.437   6.196   3.678
70804W        W37345  32.689  33.627  11.647
70805W        W37346  12.756  11.109  10.937
70806W        W37347   4.389  34.993   5.014
70807W        W37348   3.309  17.033  11.607
70808W        W37349  10.784  42.530  13.461
70809W        W37350  44.462   2.474  12.924
70810W        W37351  17.345  41.512  10.742
70811W        W37352   5.181  21.951  11.645
70812W        W37353  37.988  35.048  11.662
70813W        W37354  23.467  16.107   3.672
70814W        W37355   4.714   5.752   0.850
70815W        W37356  12.230  25.564   3.208
70816W        W37357  13.784  30.671  13.844
70817W        W37358  12.908  19.663  10.555
70818W        W37359  17.707  12.569  12.940
70819W        W37360  44.179   6.590   3.652
70820W        W37361  16.043  41.916  14.509
70821W        W37362  44.519  42.871   3.529
70822W        W37363   8.285  25.923  10.901
70823W        W37364   5.872   1.498  10.863
70824W        W37365  27.757  30.497  14.528
70825W        W37366   8.683  44.208   1.439
70826W        W37367  26.573  38.318  12.096
70827W        W37368  34.549  23.222   0.559
70828W        W37369  12.144   0.975   0.457
70829W        W37370  39.640  22.456  10.778
70830W        W37371   7.007  28.084   2.313
70831W        W37372  30.530  42.828  14.437
70832W        W37373  17.190  38.111   3.689
70833W        W37374  10.698  19.569   3.316
70834W        W37375   8.917  10.254  14.728
70835W        W37376   0.805  41.984  12.161
70836W        W37377   7.755  26.454   4.110
70837W        W37378   7.388   0.779  11.509
70838W        W37379  39.532   5.833  12.776
70839W        W37380  28.065  27.602   4.143
70840W        W37381   9.881   8.346  12.827
70841W        W37382  33.861  25.711  12.173
70842W        W37383  27.135   1.192  14.768
70843W        W37384  16.782  15.114   1.982
70844W        W37385   0.599  12.670   2.751
70845W        W37386   3.646  36.900  13.325
70846W        W37387  36.573  19.794   0.325
70847W        W37388  41.578   5.648  13.407
70848W        W37389   0.390  12.630  13.228
70849W        W37390  24.890  26.831   0.656
70850W        W37391  10.404   0.566  13.824
70851W        W37392  36.178  44.821  12.045
70852W        W37393  29.135  36.419   0.217
70853W        W37394   5.168  22.304   9.819
70854W        W37395  39.326  44.968   4.580
70855W        W37396   6.881  11.172   4.654
70856W        W37397  18.102  30.497  10.334
70857W        W37398  18.127  37.537   0.295
70858W        W37399  25.015  30.093   4.041
70859W        W37400   8.917   9.725   3.819
70860W        W37401  34.609  27.980   4.131
70861W        W37402  34.753  34.653  14.531
70862W        W37403  29.107  21.165  12.550
70863W        W37404  25.055  11.272  10.857
70864W        W37405  41.527   6.977  10.787
70865W        W37406  26.034  15.139   2.144
70866W        W37407   4.259  10.627   4.133
70867W        W37408  28.545  12.198  14.045
70868W        W37409  31.332   4.407   3.096
70869W        W37410  29.830  33.930  12.066
70870W        W37411   1.862  38.969   2.248
70871W        W37412  31.171  42.954  12.997
70872W        W37413  14.887  21.577   4.529
70873W        W37414   8.697  22.139   0.108
70874W        W37415  43.290  15.587  11.664
70875W        W37416  36.383  40.808   0.885
70876W        W37417  40.298  20.792   2.150
70877W        W37418  24.991  13.576  11.892
70878W        W37419  30.472  13.900   3.331
70879W        W37420  32.537   2.671  11.602
70880W        W37421   9.800  12.144   1.335
70881W        W37422   6.118  38.426   1.312
70882W        W37423  34.493   8.029  12.025
70883W        W37424   8.393  15.796  11.605
70884W        W37425   6.574  32.577  11.062
70885W        W37426  33.989   0.774  12.075
70886W        W37427  42.769  43.959   0.905
70887W        W37428  30.253  41.757  11.805
70888W        W37429  20.266  21.836  13.929
70889W        W37430  12.118  13.682  12.908
70890W        W37431  33.849  35.891  12.935
70891W        W37432  32.609   4.730   3.225
70892W        W37433  36.965  32.481  13.320
70893W        W37434   4.869  18.729  14.176
70894W        W37435  38.022   6.352  10.577
70895W        W37436  21.137   4.286  14.842
70896W        W37437   2.713  31.716  14.910
70897W        W37438  32.806  20.219  13.620
70898W        W37439  30.799  11.866  14.342
70899W        W37440   7.519   2.494   1.734
70900W        W37441  33.342  19.754   3.643
70901W        W37442  25.229   1.222   0.705
70902W        W37443   6.944   3.287   3.318
70903W        W37444   7.973  40.585   4.562
70904W        W37445   8.832  40.303   0.731
70905W        W37446  12.408  11.696   2.795
70906W        W37447  20.753  40.588  11.591
70907W        W37448  32.362  33.546   2.071
70908W        W37449  38.409   9.027   3.157
70909W        W37450  26.142  19.545   2.750
70910W        W37451   7.430  36.760  10.414
70911W        W37452  40.357  25.984  14.972
70912W        W37453  10.088  41.449  13.216
70913W        W37454  42.544   5.371   2.689
70914W        W37455  12.785  21.045  11.559
70915W        W37456  39.519  33.651  14.993
70916W        W37457   7.865  25.228  14.331
70917W        W37458  35.033  38.560  14.415
70918W        W37459  11.829  24.785   0.898
70919W        W37460  40.392   1.428  13.395
70920W        W37461  14.759  42.805  11.274
70921W        W37462  30.939  25.385   1.740
70922W        W37463  10.782  15.245   1.670
70923W        W37464  30.744  38.832  11.211
70924W        W37465  23.576  35.918   1.888
70925W        W37466  21.870  15.245   2.671
70926W        W37467  37.101  34.410   1.199
70927W        W37468  44.934  36.088  14.850
70928W        W37469  30.679  34.771  12.113
70929W        W37470  12.046  40.837  14.193
70930W        W37471   5.955   0.774   4.021
70931W        W37472  44.506  33.789   0.833
70932W        W37473  37.653  17.158   4.170
70933W        W37474   6.139  21.254   2.703
70934W        W37475  25.368  40.265  11.836
70935W        W37476  19.503  17.170   0.857
70936W        W37477  43.266   7.724   3.673
70937W        W37478  22.150  25.633  11.455
70938W        W37479  20.580  23.540  10.685
70939W        W37480  42.790  34.855   4.079
70940W        W37481  33.083  33.062   4.648
70941W        W37482  28.718  32.978  13.076
70942W        W37483  26.297  31.802   2.289
70943W        W37484  42.432  36.730  14.900
70944W        W37485  29.405   2.194   3.888
70945W        W37486  37.529   1.529   0.689
70946W        W37487   8.427  26.808   1.741
70947W        W37488  10.650  17.230  12.335
70948W        W37489  40.065  33.234   3.535
70949W        W37490  44.976  10.372   4.563
70950W        W37491  36.154  39.711   1.980
70951W        W37492  34.568  33.921  14.495
70952W        W37493  25.278  21.102  10.723
70953W        W37494   9.179  25.702   4.608
70954W        W37495  15.129   1.053   4.881
70955W        W37496  28.152   1.749   3.451
70956W        W37497  17.975   9.603  12.172
70957W        W37498  37.261  29.233  11.118
70958W        W37499  28.349  30.976   3.624
70959W        W37500  23.550   6.859  13.867
70960W        W37501  21.047  26.711   4.549
70961W        W37502  20.070  34.447   4.701
70962W        W37503  25.535   5.383  10.697
70963W        W37504  12.338  13.875   0.492
70964W        W37505   6.841  38.831  13.174
70965W        W37506   2.766  41.834   2.050
70966W        W37507  38.559  33.557   0.374
70967W        W37508  21.151  25.900  14.307
70968W        W37509   5.700  12.136  13.010
70969W        W37510  12.891  32.950   0.997
70970W        W37511  29.029  32.205   3.066
70971W        W37512  36.482   9.270  13.896
70972W        W37513  33.363   6.329   2.293
70973W        W37514  16.924  21.641  11.223
70974W        W37515  30.061  32.943  13.655
70975W        W37516  24.758  16.845  11.139
70976W        W37517  42.276  32.583   1.786
70977W        W37518  22.422  18.995   4.185
70978W        W37519   8.756  41.548   0.810
70979W        W37520  12.641  26.992   1.865
70980W        W37521  13.954  38.616  13.869
70981W        W37522   1.049  24.577  13.827
70982W        W37523  42.908  12.172   0.271
70983W        W37524   3.804  22.244   2.007
70984W        W37525  26.726  42.960   4.261
70985W        W37526   0.902  37.843   4.334
70986W        W37527  43.450   2.857  11.904
70987W        W37528  27.608  29.989   0.377
70988W        W37529   6.819  43.413   4.679
70989W        W37530  26.745   6.477   3.682
70990W        W37531  28.876  44.800  11.519
70991W        W37532  20.174  29.961  14.546
70992W        W37533  18.733   6.810   2.794
70993W        W37534  29.482   5.034  10.576
70994W        W37535  25.112  28.988   3.275
70995W        W37536  35.293  44.315   2.169
70996W        W37537  33.072  38.088   3.217
70997W        W37538  14.465  44.550   4.201
70998W        W37539  29.079   8.657   1.473
70999W        W37540   3.074  21.612   2.165
71000W        W37541   6.586  38.007  11.605
71001W        W37542  37.848  19.571  14.247
71002W        W37543  25.107  28.483   1.222
71003W        W37544  24.994   2.295   3.425
71004W        W37545  33.554  24.191   0.703
71005W        W37546   6.623   6.282  10.718
71006W        W37547   1.995   1.512   9.997
71007W        W37548  19.028  37.838  12.540
71008W        W37549  36.923  41.575   3.782
71009W        W37550  29.185  32.145  12.603
71010W        W37551  13.004  24.703  11.643
71011W        W37552  13.367  14.751   2.197
71012W        W37553   0.284  44.923  10.558
71013W        W37554  21.793  11.246   2.667
71014W        W37555  42.788   5.869  11.948
71015W        W37556  21.556  26.915   2.147
71016W        W37557  29.049  13.137   3.150
71017W        W37558   8.916   4.106  13.343
71018W        W37559  18.261  42.042   1.342
71019W        W37560  12.732   2.837   3.464
71020W        W37561   4.555  23.171   5.589
71021W        W37562  44.314  20.239  11.474
71022W        W37563  24.608  21.539   3.233
71023W        W37564   0.515  21.696  11.375
71024W        W37565  30.082  15.307  13.096
71025W        W37566  34.314  36.847   2.738
71026W        W37567  13.773  38.264  13.473
71027W        W37568   1.812  29.917  12.469
71028W        W37569  12.695  12.551  12.124
71029W        W37570   1.240  29.360  11.071
71030W        W37571  25.539  38.810  12.676
71031W        W37572  35.167  41.439   0.751
71032W        W37573  32.310  19.598  13.813
71033W        W37574  24.808  14.258  13.007
71034W        W37575  27.512  44.194   1.969
71035W        W37576  33.053  25.322  10.490
71036W        W37577  34.173  28.388  14.494
71037W        W37578  38.581  42.569  11.503
71038W        W37579  22.604  32.193   4.835
71039W        W37580  42.509  29.143   2.193
71040W        W37581   3.590  16.506   1.213
71041W        W37582   4.224  39.912   4.115
71042W        W37583   3.445  39.764   0.249
71043W        W37584  30.193  26.759  13.276
71044W        W37585  37.323   4.443  12.659
71045W        W37586  27.293  30.873  10.595
71046W        W37587  13.752  20.652   3.492
71047W        W37588  35.150  41.261  13.126
71048W        W37589  16.326  41.689  13.971
71049W        W37590  18.675  17.750   3.900
71050W        W37591   3.841  29.287   3.246
71051W        W37592   5.425  25.714  12.578
71052W        W37593  32.425   7.334  13.177
71053W        W37594  35.000  10.918   4.965
71054W        W37595  41.853  13.684   2.363
71055W        W37596  15.278   5.428  12.762
71056W        W37597  30.958  31.165  10.535
71057W        W37598  22.395   9.358   0.441
71058W        W37599  16.603  29.570  14.250
71059W        W37600   7.480  16.564  11.838
71060W        W37601  18.622  26.368  13.916
71061W        W37602   1.903   7.247   3.223
71062W        W37603  15.822   1.662   3.226
71063W        W37604   1.987   9.780   3.943
71064W        W37605  10.829  41.819   3.223
71065W        W37606  21.810  24.144   2.248
71066W        W37607   3.213   0.777   0.829
71067W        W37608  41.796   9.774   1.781
71068W        W37609   5.941   2.685   0.253
71069W        W37610  41.006  44.362   0.866
71070W        W37611  30.413  27.758  13.976
71071W        W37612   5.793  18.480   4.166
71072W        W37613  40.811   3.142  11.954
71073W        W37614  18.826  18.516  13.430
71074W        W37615  40.229   6.680  11.681
71075W        W37616  33.107  27.200   2.181
71076W        W37617  19.946   4.635  14.770
71077W        W37618  27.542  36.311   1.338
71078W        W37619  28.891  37.668  11.065
71079W        W37620  38.535  37.426   1.423
71080W        W37621  30.000  34.343  10.769
71081W        W37622  31.538   5.738   1.722
71082W        W37623   8.900   8.853   3.793
71083W        W37624   8.735  14.763  14.710
71084W        W37625  15.116   9.884  14.741
71085W        W37626  33.926  24.385  13.980
71086W        W37627  42.091  32.954   3.809
71087W        W37628  42.935  19.756   2.324
71088W        W37629  10.306   2.795   1.897
71089W        W37630  39.366  32.651  14.915
71090W        W37631   7.642  39.257  12.594
71091W        W37632  26.264  14.114  10.743
71092W        W37633  23.953  23.641  13.266
71093W        W37634  16.650  14.693  12.116
71094W        W37635  23.376  28.801  12.070
71095W        W37636  16.274  18.472  11.040
71096W        W37637   1.354  10.761  12.679
71097W        W37638  11.735  42.552  13.859
71098W        W37639   9.824  42.419   3.202
71099W        W37640  14.018  14.276  13.935
71100W        W37641   3.270  28.767  10.051
71101W        W37642   6.133   6.468   4.555
71102W        W37643   0.862   4.091   3.631
71103W        W37644  38.051  12.373  11.970
71104W        W37645   4.332   7.608  11.500
71105W        W37646   8.841  15.281   3.313
71106W        W37647  32.954   1.328   3.364
71107W        W37648  22.316  31.035   1.202
71108W        W37649  10.813  39.125   3.085
71109W        W37650  22.112  27.909   3.655
71110W        W37651  23.215   8.667   0.384
71111W        W37652  16.139  44.002   3.144
71112W        W37653  41.424  41.515  12.937
71113W        W37654   4.180  28.504  12.558
71114W        W37655  24.172   5.362   3.464
71115W        W37656  42.514  25.243  14.887
71116W        W37657  28.083   6.941  13.935
71117W        W37658  19.283  38.729   0.882
71118W        W37659   1.699   1.966   3.047
71119W        W37660  21.619  11.278  12.852
71120W        W37661   1.472  26.680  10.295
71121W        W37662   6.688  27.064   0.973
71122W        W37663  40.801  35.665  11.225
71123W        W37664   2.654  34.841   5.385
71124W        W37665  44.908  36.468   3.201
71125W        W37666  38.485  32.656   2.870
71126W        W37667  38.964  29.044  11.233
71127W        W37668  10.303   6.858   0.359
71128W        W37669  28.508  18.507   1.248
71129W        W37670  37.941  17.579   4.783
71130W        W37671  39.123  16.324  12.470
71131W        W37672  15.093   0.250   2.764
71132W        W37673  28.365   1.943  12.936
71133W        W37674   6.264  44.785   4.102
71134W        W37675  24.094  15.226  12.986
71135W        W37676  10.058   8.211  11.812
71136W        W37677  44.560  22.974  14.809
71137W        W37678  10.371  40.003  14.520
71138W        W37679  22.207  16.603   3.734
71139W        W37680   6.798  24.419  12.931
71140W        W37681  24.831   3.608   2.155
71141W        W37682  38.585   5.287  14.500
71142W        W37683  23.731  43.168   1.175
71143W        W37684  44.722  14.234   3.309
71144W        W37685   0.889   8.252   4.457
71145W        W37686  27.899  14.135   4.179
71146W        W37687  26.659  10.355   4.523
71147W        W37688  44.039  25.716  10.443
71148W        W37689  43.434  13.018  13.006
71149W        W37690  34.705  40.747  12.513
71150W        W37691  31.210  33.120  10.775
71151W        W37692  26.218  37.108   4.295
71152W        W37693  32.922  37.455  13.359
71153W        W37694   4.782   3.865  13.546
71154W        W37695  20.039  10.414  12.889
71155W        W37696  38.384   2.261  12.608
71156W        W37697  40.454  30.624   1.780
71157W        W37698  12.870   2.417   0.286
71158W        W37699  15.945  27.149   1.637
71159W        W37700  14.999  17.246   0.784
71160W        W37701   9.904   1.833   1.651
71161W        W37702  25.510  12.283  11.676
71162W        W37703  38.087  26.342  11.346
71163W        W37704   3.149  37.702   2.564
71164W        W37705  13.258  42.241  10.831
71165W        W37706  32.411  38.307   1.805
71166W        W37707  29.125   8.751   0.949
71167W        W37708   0.319  43.894   1.736
71168W        W37709  27.632  37.911   1.866
71169W        W37710  43.464  39.169   0.863
71170W        W37711   2.483  27.575   2.687
71171W        W37712  41.604  26.372   1.844
71172W        W37713   8.809   5.007  11.053
71173W        W37714  16.025  34.476  11.111
71174W        W37715  12.133   9.316   1.792
71175W        W37716  38.226   7.937   4.168
71176W        W37717  11.412  42.708   1.506
71177W        W37718  28.020   1.941   1.753
71178W        W37719  35.775  39.035   0.309
71179W        W37720  25.903  32.475   2.696
71180W        W37721  15.385  16.785  10.544
71181W        W37722   5.784  11.717  11.585
71182W        W37723  24.703  12.342   1.862
71183W        W37724  24.258  43.310   4.783
71184W        W37725  21.913  29.018   1.809
71185W        W37726  25.985   1.296   2.722
71186W        W37727  43.984  21.197  14.215
71187W        W37728  24.301  40.690  12.585
71188W        W37729  17.794  31.093   2.424
71189W        W37730  26.507  12.328   3.945
71190W        W37731  20.410  37.930   0.583
71191W        W37732  40.130  11.309  11.506
71192W        W37733  18.143  32.408   4.547
71193W        W37734  28.183  39.007  11.063
71194W        W37735  35.157   5.415   3.880
71195W        W37736  20.034  13.645   2.203
71196W        W37737  29.649  11.856  11.315
71197W        W37738   5.673   6.519  13.845
71198W        W37739  15.769  38.620   2.847
71199W        W37740  12.196   4.311  11.142
71200W        W37741  16.652  32.748  12.931
71201W        W37742  23.365  15.521  13.048
71202W        W37743  41.349  13.064  12.867
71203W        W37744  34.175   1.533  12.980
71204W        W37745  33.361  29.543   3.549
71205W        W37746  15.097  37.307  13.407
71206W        W37747  32.138  12.595  12.992
71207W        W37748  40.000  18.726   2.644
71208W        W37749  14.193  11.231   2.154
71209W        W37750  28.444   8.328  14.470
71210W        W37751  42.514  44.575   4.065
71211W        W37752  34.177  28.368   0.120
71212W        W37753  27.776  18.487  13.576
71213W        W37754  29.113  25.099   3.757
71214W        W37755   8.937  17.322   3.558
71215W        W37756  20.043  25.607   0.133
71216W        W37757  23.400  38.088  14.953
71217W        W37758  24.033   1.501  12.457
71218W        W37759  26.132  32.431   0.864
71219W        W37760   3.234   8.423   3.366
71220W        W37761  18.852  40.641   3.766
71221W        W37762  33.589  19.979  11.131
71222W        W37763  12.760   8.943   4.159
71223W        W37764  16.269  32.541  12.586
71224W        W37765  39.222  29.453   3.071
71225W        W37766   7.405  21.628   4.219
71226W        W37767   4.722  24.116   1.748
71227W        W37768  13.151  26.312  12.799
71228W        W37769  14.409   2.415   1.008
71229W        W37770  15.910   2.989   0.353
71230W        W37771   5.000  12.649   1.223
71231W        W37772  31.458   6.410  11.493
71232W        W37773  21.216   8.292  11.386
71233W        W37774  29.191   7.790   1.886
71234W        W37775   3.434  34.677  10.689
71235W        W37776   3.100   9.374  14.778
71236W        W37777  26.213  27.137  11.331
71237W        W37778  40.762   5.013   1.779
71238W        W37779  28.457  20.580  14.367
71239W        W37780  34.325  32.385   2.903
71240W        W37781  34.094  38.396   0.720
71241W        W37782   2.309   8.954  12.984
71242W        W37783  16.161  41.903   3.963
71243W        W37784  17.801  31.614  12.285
71244W        W37785  27.581  22.101  14.327
71245W        W37786  40.618  19.597  12.452
71246W        W37787  30.922  24.470   1.967
71247W        W37788  11.765  25.624   2.934
71248W        W37789  24.441  13.925   1.411
71249W        W37790  35.403  20.002   2.865
71250W        W37791  35.818   1.007   3.604
71251W        W37792  43.747  30.188  12.360
71252W        W37793  16.211  16.035  10.242
71253W        W37794  39.669   6.830   3.521
71254W        W37795  19.863  13.894   2.616
71255W        W37796   6.130  42.301   1.833
71256W        W37797  25.495  43.975  11.306
71257W        W37798  44.250  16.869   2.440
71258W        W37799  24.496   6.673   4.670
71259W        W37800  28.092  43.501  11.595
71260W        W37801  34.839  27.014   1.760
71261W        W37802   6.554  35.362   3.929
71262W        W37803  36.005  23.479   0.387
71263W        W37804   9.256  34.301  10.563
71264W        W37805   4.908  16.787   0.980
71265W        W37806   9.689   6.761   0.036
71266W        W37807   0.755  19.817   0.375
71267W        W37808  37.548   1.197  11.377
71268W        W37809  22.752  30.941  10.698
71269W        W37810  22.995  21.667  12.369
71270W        W37811  31.368  43.644  13.948
71271W        W37812  14.242  30.183  13.503
71272W        W37813  43.801  39.109  13.957
71273W        W37814   9.627   0.860  11.592
71274W        W37815   4.933  32.271  14.818
71275W        W37816  24.300   8.437  14.908
71276W        W37817   3.780  39.797  11.922
71277W        W37818  41.726  38.435   3.800
71278W        W37819  40.465  32.946   3.658
71279W        W37820  27.533  12.875  12.681
71280W        W37821  14.141  21.764   3.493
71281W        W37822   5.283  17.683   1.836
71282W        W37823  37.907   1.204  14.854
71283W        W37824  29.918  34.440   2.198
71284W        W37825  33.543  31.293  10.652
71285W        W37826  16.466  19.883   2.736
71286W        W37827  30.146  27.207  10.561
71287W        W37828  15.804   4.919  12.051
71288W        W37829   7.239  42.646  14.565
71289W        W37830   1.000   3.609  12.919
71290W        W37831  41.180  16.199   0.826
71291W        W37832  44.433  33.978  12.179
71292W        W37833  39.900   8.096   1.215
71293W        W37834   3.820   8.207   4.777
71294W        W37835  25.495  37.485   2.561
71295W        W37836  42.401  19.206  12.852
71296W        W37837   4.745  16.066  14.728
71297W        W37838  22.106   3.499  11.610
71298W        W37839  13.770  12.481   3.984
71299W        W37840   5.505   9.371   4.009
71300W        W37841  15.073  31.569   0.444
71301W        W37842  24.680  15.716  11.975
71302W        W37843  39.699  17.444   2.356
71303W        W37844  32.153  29.893   1.853
71304W        W37845  17.006   5.187   0.442
71305W        W37846  35.692  24.010   4.806
71306W        W37847  43.966  26.900   0.320
71307W        W37848  40.866  43.925   1.923
71308W        W37849  12.750  26.470   1.787
71309W        W37850  35.936  23.409  11.135
71310W        W37851  24.131  20.242   4.608
71311W        W37852  35.321  13.958  13.405
71312W        W37853   1.644  11.224  14.774
71313W        W37854  35.472  30.491  10.768
71314W        W37855  19.845  38.045  13.920
71315W        W37856  16.832   8.372   4.905
71316W        W37857  44.903  38.154  13.955
71317W        W37858   0.294  17.576   3.343
71318W        W37859   9.078   0.504  14.786
71319W        W37860   8.650  22.086  11.994
71320W        W37861  18.103  43.483   2.868
71321W        W37862  20.495  36.589  11.210
71322W        W37863   7.789   4.100  11.105
71323W        W37864  27.952   9.189   4.634
71324W        W37865   8.853  44.575  10.769
71325W        W37866  23.176  30.164   2.852
71326W        W37867  10.895   0.056   0.786
71327W        W37868  41.359  14.290  10.859
71328W        W37869  42.351  20.791  11.955
71329W        W37870  21.693  26.934  14.220
71330W        W37871   4.720  13.192   2.639
71331W        W37872  26.767  12.152  13.063
71332W        W37873  35.103  16.510   2.663
71333W        W37874  36.073  36.549  11.381
71334W        W37875  15.085  27.562  11.019
71335W        W37876  29.680   4.495  12.408
71336W        W37877  23.745  25.983  13.020
71337W        W37878   8.357   8.793   3.655
71338W        W37879   9.191  19.085  14.021
71339W        W37880  35.221  18.164  12.974
71340W        W37881  33.876  16.353  11.691
71341W        W37882  15.126  22.105   1.864
71342W        W37883  25.148  36.436  14.391
71343W        W37884  22.605   4.377   9.961
71344W        W37885  33.351  21.588   0.578
71345W        W37886  44.058  41.927   4.057
71346W        W37887  39.735   1.253  14.465
71347W        W37888  17.678  29.590   4.832
71348W        W37889  38.987  33.611  12.039
71349W        W37890   1.175  24.168   0.240
71350W        W37891  44.197  29.698  14.929
71351W        W37892  39.415  30.518   4.975
71352W        W37893   1.241  25.511   4.180
71353W        W37894  37.982  43.980  14.080
71354W        W37895  10.192  25.096   1.898
71355W        W37896  23.880  11.569  12.517
71356W        W37897  44.780  10.686  11.381
71357W        W37898  40.177   5.682   1.960
71358W        W37899  28.346  38.518  11.223
71359W        W37900   1.963  15.384  13.637
71360W        W37901   1.699  38.404  11.681
71361W        W37902  19.306   1.828   4.468
71362W        W37903  13.155   4.302   3.234
71363W        W37904   3.411  30.819  12.719
71364W        W37905   4.330  42.396   2.184
71365W        W37906  41.409  42.785  14.503
71366W        W37907  22.152  29.406  14.821
71367W        W37908  44.805  32.635   0.920
71368W        W37909  21.085  18.511  10.503
71369W        W37910  38.813  30.495  12.577
71370W        W37911  28.284  24.948   3.005
71371W        W37912  43.203  14.119  11.625
71372W        W37913   5.333   1.214  10.319
71373W        W37914   6.651  40.362  12.481
71374W        W37915  41.202  24.005   1.477
71375W        W37916  27.056   5.874   0.945
71376W        W37917  28.067   0.191  10.122
71377W        W37918  28.585  30.117  12.013
71378W        W37919  36.596  17.682  14.332
71379W        W37920  11.672   6.913   2.698
71380W        W37921  41.555  20.420  11.371
71381W        W37922  33.845  13.138   0.765
71382W        W37923  30.503   5.668  13.829
71383W        W37924  33.111   3.901   1.203
71384W        W37925  12.940   6.937  10.740
71385W        W37926  24.589  41.524   1.773
71386W        W37927  35.330  23.200   1.390
71387W        W37928  23.697  26.137  10.983
71388W        W37929  10.220  30.875  13.986
71389W        W37930   8.632  27.116  14.006
71390W        W37931  36.065  27.200  12.439
71391W        W37932  25.184  44.059  14.897
71392W        W37933  26.769   9.268  12.828
71393W        W37934  22.442  44.902  10.470
71394W        W37935  33.162  40.322   4.855
71395W        W37936  19.169  42.040   3.220
71396W        W37937   9.610   3.831   3.668
71397W        W37938  35.223  26.023   2.304
71398W        W37939  18.700  36.293   2.581
71399W        W37940  13.277  32.219   1.045
71400W        W37941  41.454   3.479   1.298
71401W        W37942   8.681  19.138  12.654
71402W        W37943  28.118  18.485  12.923
71403W        W37944  12.535  28.886   4.765
71404W        W37945  44.462  11.887   4.250
71405W        W37946  28.980  12.084   3.871
71406W        W37947  40.112  15.991   4.937
71407W        W37948  37.855   7.458  12.929
71408W        W37949  15.226   5.966   0.973
71409W        W37950  34.314  43.281   2.982
71410W        W37951  16.893  42.172   1.868
71411W        W37952  13.762  18.796   1.803
71412W        W37953  23.939  30.132  12.625
71413W        W37954  36.335  28.193   3.573
71414W        W37955  17.817   0.499   0.344
71415W        W37956  35.966  22.024  11.660
71416W        W37957   6.753  11.475   1.763
71417W        W37958  30.761  44.964  14.738
71418W        W37959  36.643  23.536  10.787
71419W        W37960   9.817  30.853   3.748
71420W        W37961  41.405   8.103   1.229
71421W        W37962  43.246  24.587   2.861
71422W        W37963  17.422  35.104   3.179
71423W        W37964  11.616   8.359  11.588
71424W        W37965  16.156  22.208   4.544
71425W        W37966  13.073  29.094  10.695
71426W        W37967  31.440  19.947  10.724
71427W        W37968  39.107   9.304   2.246
71428W        W37969   7.958   3.293   4.159
71429W        W37970  12.349  26.003   0.386
71430W        W37971  35.932  34.049  14.295
71431W        W37972  16.176  20.469   4.129
71432W        W37973  33.047  36.559  14.808
71433W        W37974  16.180  34.406   1.391
71434W        W37975  28.007  10.349   0.517
71435W        W37976  15.989  12.323  14.905
71436W        W37977  14.116  12.471   4.653
71437W        W37978   5.775  40.002  10.887
71438W        W37979   7.028  22.484  13.367
71439W        W37980  18.570  27.790   1.607
71440W        W37981   1.745  10.285   4.626
71441W        W37982  15.575   2.435   2.880
71442W        W37983  41.981  21.093   0.844
71443W        W37984   5.469  11.354  11.872
71444W        W37985  38.813  25.422   4.163
71445W        W37986  18.125  12.567   9.835
71446W        W37987  16.783   0.287  14.834
71447W        W37988  37.584  31.632  11.510
71448W        W37989  44.276   8.069   1.604
71449W        W37990  13.437  38.482  13.820
71450W        W37991  19.527  35.030  14.939
71451W        W37992  29.701   6.320  13.614
71452W        W37993  38.457  21.664   4.052
71453W        W37994  32.369  24.567  12.487
71454W        W37995  41.530  37.991  12.043
71455W        W37996  26.901  24.690  10.673
71456W        W37997   2.222   6.933  10.484
71457W        W37998   0.334  16.537  11.483
71458W        W37999  17.434   0.564   0.740
71459W        W38000  18.649  10.787  10.654
71460W        W38001  22.532  41.498  14.571
71461W        W38002   9.001  42.779   1.834
71462W        W38003  22.119  29.710  10.841
71463W        W38004  19.641  32.469  12.950
71464W        W38005   4.395  10.832  13.706
71465W        W38006  15.771  39.832   2.515
71466W        W38007  13.174  27.441   2.169
71467W        W38008  14.866   9.328   2.601
71468W        W38009   1.019  43.740  12.945
71469W        W38010  16.550   0.189   1.846
71470W        W38011  35.069  36.954   1.636
71471W        W38012  24.657  33.124  14.540
71472W        W38013  23.076  36.508  10.472
71473W        W38014  36.592  28.971   2.794
71474W        W38015   6.366   8.950  11.460
71475W        W38016  12.434  25.985  14.419
71476W        W38017  23.381  36.107   3.799
71477W        W38018  31.454  25.894  13.019
71478W        W38019   4.829  14.894  10.718
71479W        W38020  16.535  40.523  14.987
71480W        W38021  26.710  14.755   4.108
71481W        W38022  35.170   6.337  10.931
71482W        W38023  25.387  39.485  14.889
71483W        W38024  21.709  10.906  11.512
71484W        W38025  31.842  26.128   3.217
71485W        W38026  19.488  35.832   2.877
71486W        W38027  22.695  39.465  10.270
71487W        W38028  25.593  44.894   0.751
71488W        W38029  35.911  13.445   4.759
71489W        W38030  12.110  32.398   2.794
71490W        W38031  19.698  44.649  14.978
71491W        W38032  37.696  28.996   2.777
71492W        W38033  23.456  12.163   3.734
71493W        W38034  38.660  13.627   3.153
71494W        W38035  20.980   8.620  12.157
71495W        W38036  13.377  41.617  12.281
71496W        W38037  13.412  14.436  12.013
71497W        W38038  17.711   6.235   3.709
71498W        W38039  18.783  18.612   5.135
71499W        W38040  30.913  12.310  14.609
71500W        W38041  17.020   7.919   3.567
71501W        W38042  27.089  40.450  11.064
71502W        W38043  17.576  13.184  11.865
71503W        W38044   4.998  11.140  11.952
71504W        W38045  29.020  11.654   2.602
71505W        W38046  43.986  12.249  12.934
71506W        W38047  27.124  40.921  13.807
71507W        W38048  28.122  19.533   3.606
71508W        W38049  30.894  21.049  14.870
71509W        W38050  30.144  21.261   2.123
71510W        W38051  30.230  10.501   4.525
71511W        W38052  11.387  12.140   4.012
71512W        W38053  36.500  27.951  14.293
71513W        W38054  19.992   1.604   3.282
71514W        W38055   1.376  14.223   0.364
71515W        W38056  19.491  19.088  11.509
71516W        W38057  10.720  44.318   0.391
71517W        W38058   1.514   9.160   3.127
71518W        W38059   2.732  42.478  14.390
71519W        W38060  19.047  31.622   1.883
71520W        W38061  30.075  17.149  11.872
71521W        W38062  33.940  22.269   0.900
71522W        W38063  29.823  40.261   1.683
71523W        W38064  35.008  42.377   1.607
71524W        W38065  20.084  19.707  12.217
71525W        W38066  18.152  18.168  11.348
71526W        W38067  40.512  30.331   3.130
71527W        W38068   3.911  43.505   5.234
71528W        W38069   7.238  29.545   4.012
71529W        W38070  39.255  17.108   4.033
71530W        W38071   4.849  36.909   2.235
71531W        W38072  41.965  14.842  13.116
71532W        W38073   7.746  15.912   1.923
71533W        W38074  23.658  39.833   0.493
71534W        W38075  21.478   6.317   0.384
71535W        W38076  40.886  21.135  12.772
71536W        W38077  13.615  29.412  12.523
71537W        W38078  12.272   7.461   2.083
71538W        W38079   4.439   7.863  11.071
71539W        W38080  31.025   3.908  11.231
71540W        W38081  24.246  41.958   4.756
71541W        W38082  18.643  42.280   4.525
71542W        W38083  39.926   2.718  14.362
71543W        W38084  37.740  38.380  12.487
71544W        W38085  20.601  22.462   4.239
71545W        W38086   7.885  30.509   0.952
71546W        W38087  41.482  32.576   3.221
71547W        W38088  20.182  28.262  11.125
71548W        W38089  25.982  16.667  11.026
71549W        W38090  40.469  13.035   3.503
71550W        W38091  30.038  15.910   0.273
71551W        W38092  12.005  10.764   0.333
71552W        W38093  24.125  34.403   4.259
71553W        W38094  24.102  15.683   4.319
71554W        W38095  16.773  16.146  11.146
71555W        W38096  32.887  34.131   3.745
71556W        W38097  35.819  29.328  11.250
71557W        W38098  28.130  17.818  14.327
71558W        W38099  12.779  14.196  12.071
71559W        W38100  18.449  19.082   1.189
71560W        W38101  25.029  34.416  10.563
71561W        W38102  14.425  13.373   3.074
71562W        W38103  24.112  31.081  10.664
71563W        W38104  28.977   7.327   2.705
71564W        W38105  37.469  19.608   4.767
71565W        W38106   4.545  37.863  12.525
71566W        W38107  39.499  30.981  13.973
71567W        W38108  13.840  38.731   4.186
71568W        W38109  25.502  24.510  10.743
71569W        W38110  30.340  38.473  13.527
71570W        W38111  11.148  24.801  13.897
71571W        W38112  30.714  10.868  11.039
71572W        W38113  14.378   7.824   2.397
71573W        W38114  13.818  21.055   4.410
71574W        W38115  15.851  43.515   0.402
71575W        W38116  26.007  31.418   2.777
71576W        W38117  19.631  28.222  11.197
71577W        W38118   9.257   9.562   4.238
71578W        W38119  38.941   9.488  14.018
71579W        W38120  10.884   4.082   4.181
71580W        W38121  40.355  29.639  11.557
71581W        W38122  24.980   8.677  10.321
71582W        W38123   4.424  32.755   4.158
71583W        W38124  24.713  12.098  13.811
71584W        W38125  38.566   4.521   4.106
71585W        W38126  17.751  27.918   3.307
71586W        W38127   9.363  23.662   1.466
71587W        W38128  34.555  19.348  12.094
71588W        W38129  28.753  44.403   2.660
71589W        W38130  22.713  29.085   3.658
71590W        W38131  39.092   9.707   0.699
71591W        W38132   8.449  36.877   5.010
71592W        W38133   3.816  13.368   1.688
71593W        W38134   9.389  28.729  11.570
71594W        W38135   7.252  41.474   3.834
71595W        W38136  36.862   2.364   4.079
71596W        W38137   0.724   6.558   0.012
71597W        W38138  29.925  44.351  11.050
71598W        W38139  23.627  23.499   0.359
71599W        W38140  37.314  20.204  10.825
71600W        W38141  14.879  10.944  11.936
71601W        W38142  35.121  35.094   0.472
71602W        W38143  21.631  27.433   3.381
71603W        W38144   3.475  37.554   5.092
71604W        W38145  21.678  15.665  11.974
71605W        W38146   3.708   7.404   3.978
71606W        W38147  36.474  32.595   2.425
71607W        W38148  44.944  15.357  12.989
71608W        W38149  32.796  37.598  12.398
71609W        W38150  34.383   0.958   1.935
71610W        W38151  14.809  44.750  12.751
71611W        W38152   4.187  10.654  12.816
71612W        W38153  27.474  14.603   1.460
71613W        W38154  11.690   0.254  11.541
71614W        W38155  13.668  35.511   4.168
71615W        W38156  14.202  16.533  13.508
71616W        W38157  31.053  12.232   2.444
71617W        W38158  39.994  31.094  11.615
71618W        W38159  21.707  34.021  13.885
71619W        W38160  11.083  38.907   4.718
71620W        W38161  31.963  38.953  14.941
71621W        W38162  20.208   9.226   2.367
71622W        W38163  31.266   7.460   2.537
71623W        W38164  20.681  44.893  14.318
71624W        W38165  11.350  40.475  13.411
71625W        W38166  16.708   0.485  10.391
71626W        W38167  39.469  15.771  14.021
71627W        W38168  10.179  38.903  13.526
71628W        W38169  24.037  36.879  14.967
71629W        W38170  27.688  21.831  11.591
71630W        W38171  28.555  43.406  11.849
71631W        W38172  42.258  13.183  12.988
71632W        W38173   6.939   3.322  14.977
71633W        W38174  23.742  15.788  12.472
71634W        W38175  21.154   4.220  12.582
71635W        W38176  26.069  43.942   4.774
71636W        W38177  24.486   6.648   0.019
71637W        W38178   1.802   1.350  10.453
71638W        W38179   1.667   2.362  14.684
71639W        W38180  15.112  36.123   4.496
71640W        W38181  44.482   2.996  10.941
71641W        W38182   3.440   5.756   4.655
71642W        W38183   8.949   4.376  10.651
71643W        W38184  37.479  14.062   0.634
71644W        W38185  27.495  43.485  13.248
71645W        W38186  16.534  18.222  11.666
71646W        W38187   9.846  18.254   3.456
71647W        W38188  37.490   8.195  10.467
71648W        W38189  33.219  35.926   0.786
71649W        W38190  34.049  21.600   3.813
71650W        W38191   5.313   2.538   3.248
71651W        W38192   9.599  14.309  13.500
71652W        W38193  27.983  27.990   1.500
71653W        W38194  38.460  43.664  10.854
71654W        W38195  44.288  38.407   2.823
71655W        W38196   6.730  34.642   0.167
71656W        W38197  18.778  35.147   1.027
71657W        W38198  31.760  20.100   3.971
71658W        W38199  32.045  41.893  12.559
71659W        W38200  20.130  14.462   1.901
71660W        W38201  25.151   7.426   2.063
71661W        W38202   3.806  21.643   4.550
71662W        W38203  28.284   8.833  14.383
71663W        W38204  11.647  21.177  10.181
71664W        W38205  12.408   1.730  11.165
71665W        W38206  16.185  11.840  14.872
71666W        W38207  38.286  14.124  11.876
71667W        W38208  30.683   4.801  11.633
71668W        W38209  16.513  25.605   2.705
71669W        W38210   7.462   2.988   1.875
71670W        W38211  18.075  36.987   1.171
71671W        W38212  20.077  16.511   0.257
71672W        W38213  11.618  19.717  14.817
71673W        W38214   5.900  20.285  12.471
71674W        W38215  16.787  19.200  10.892
71675W        W38216  34.198  20.641  11.576
71676W        W38217  38.914  33.174  11.048
71677W        W38218  32.725  22.734  11.471
71678W        W38219  37.910   2.869   0.905
71679W        W38220  34.165  44.980  13.962
71680W        W38221  30.811   8.136  13.376
71681W        W38222  33.745  39.019   9.998
71682W        W38223  19.472  30.395  13.040
71683W        W38224   4.403  27.470  12.068
71684W        W38225  12.260  22.999  10.795
71685W        W38226  10.341  19.975  12.407
71686W        W38227   9.001  34.232  12.259
71687W        W38228  30.097   8.391   1.416
71688W        W38229  43.578   8.786  11.616
71689W        W38230   2.151   1.809  13.910
71690W        W38231  35.384   9.990  11.952
71691W        W38232  28.905  32.960  13.553
71692W        W38233  43.055  39.442  12.260
71693W        W38234  42.470   7.638   2.110
71694W        W38235  28.990  27.627   1.128
71695W        W38236   9.613  38.352  13.875
71696W        W38237  38.785  39.496  14.220
71697W        W38238  11.434  36.161  11.275
71698W        W38239  12.442  38.424  13.427
71699W        W38240  24.443  26.161  11.662
71700W        W38241  17.835  41.304   0.743
71701W        W38242   1.411   5.145   0.891
71702W        W38243   6.192  14.010  11.198
71703W        W38244   9.852  41.935   0.888
71704W        W38245  21.138  26.088  12.074
71705W        W38246   7.854  35.590  10.967
71706W        W38247   3.410  40.380   5.401
71707W        W38248   6.786   2.785  14.357
71708W        W38249  17.192  27.725   0.189
71709W        W38250  42.944   8.820  12.423
71710W        W38251   2.428  35.956  10.242
71711W        W38252  31.413  35.443  13.554
71712W        W38253  42.961  37.966  11.666
71713W        W38254  26.975  13.679  10.463
71714W        W38255   9.937  30.961   0.430
71715W        W38256  21.652  34.494  11.716
71716W        W38257  13.669  43.076   4.722
71717W        W38258  18.872  44.859  12.892
71718W        W38259  10.944  37.103  12.470
71719W        W38260   8.270   0.055   4.130
71720W        W38261  20.919  43.407   1.618
71721W        W38262  41.437  42.993  11.640
71722W        W38263  18.121  11.598   2.222
71723W        W38264  26.262  19.803  11.989
71724W        W38265  36.508  35.304   4.613
71725W        W38266  25.922  19.006  14.376
71726W        W38267  42.489   3.785   4.444
71727W        W38268  26.637  17.119   1.885
71728W        W38269  30.918   7.500   5.164
71729W        W38270   1.450  23.671  13.842
71730W        W38271  14.203   8.982   1.754
71731W        W38272  31.610  15.014   2.699
71732W        W38273  29.624   0.969   4.104
71733W        W38274  23.209  37.842  14.524
71734W        W38275  33.932   3.356  13.346
71735W        W38276  27.131  22.549   2.786
71736W        W38277  26.218  17.760   4.769
71737W        W38278  36.569  16.300  13.607
71738W        W38279  16.805  23.282   4.823
71739W        W38280  31.985  19.640   2.430
71740W        W38281   4.330   6.756   4.183
71741W        W38282   9.734  29.027  11.977
71742W        W38283  13.676  21.071  11.596
71743W        W38284  12.241  13.846   3.074
71744W        W38285  27.872  22.320   1.462
71745W        W38286  24.214  31.009  14.108
71746W        W38287  30.594  24.409  10.592
71747W        W38288  24.797  23.099  11.192
71748W        W38289  39.491  44.041   1.437
71749W        W38290  28.173  10.106   1.903
71750W        W38291  10.262  39.834   3.177
71751W        W38292  31.373  38.734  13.119
71752W        W38293  25.582  31.560   3.096
71753W        W38294  15.811  16.337   3.922
71754W        W38295  42.065  28.574  12.472
71755W        W38296  10.294   3.725   2.273
71756W        W38297  35.046   7.696  12.563
71757W        W38298  35.173  22.139  11.994
71758W        W38299  16.578  23.997   1.316
71759W        W38300  10.691  10.478  14.900
71760W        W38301  12.325  32.076  10.731
71761W        W38302  40.982  23.843  13.220
71762W        W38303  18.606   8.577  12.882
71763W        W38304  41.044  15.001   3.861
71764W        W38305  44.345  29.851  14.439
71765W        W38306  40.049  44.917   3.325
71766W        W38307   2.371  28.067   4.126
71767W        W38308  42.834  32.506  13.442
71768W        W38309  10.780  34.812  12.624
71769W        W38310  14.639  19.835   5.255
71770W        W38311  33.203  37.863   0.711
71771W        W38312  36.770  44.897   0.849
71772W        W38313  31.046  17.754   2.599
71773W        W38314  18.319  28.654   2.063
71774W        W38315  34.844  21.317  14.374
71775W        W38316  14.514   3.066   1.670
71776W        W38317  15.779  19.064  10.723
71777W        W38318  28.588  30.914  12.698
71778W        W38319  40.877  33.633  14.585
71779W        W38320  35.778   9.371  13.445
71780W        W38321  42.066   4.472  13.070
71781W        W38322  26.270  32.478   0.351
71782W        W38323  22.626  21.552  13.600
71783W        W38324   1.032  41.242  11.659
71784W        W38325  23.972  23.450   3.154
71785W        W38326  11.302  11.199  14.481
71786W        W38327  21.567   0.916  13.377
71787W        W38328   8.490  30.237   1.862
71788W        W38329  25.933  33.115   4.744
71789W        W38330  44.316  18.956   1.078
71790W        W38331  37.060  42.751   2.843
71791W        W38332  11.069  24.228   0.290
71792W        W38333  18.212   5.704   3.161
71793W        W38334  39.487   0.725   3.109
71794W        W38335  15.340  44.053   0.867
71795W        W38336  31.271  16.560   3.283
71796W        W38337   5.986  29.445   0.893
71797W        W38338  40.215  26.092  14.440
71798W        W38339  22.050  18.654  11.543
71799W        W38340  44.811  17.492   3.188
71800W        W38341  39.173  25.001  11.865
71801W        W38342  44.821  30.165   2.425
71802W        W38343  37.778  29.193  11.112
71803W        W38344  36.938  13.846  10.827
71804W        W38345   9.198  29.060  12.873
71805W        W38346   1.005  15.327   1.216
71806W        W38347  22.655  42.143  11.510
71807W        W38348   8.844  29.402  14.084
71808W        W38349  31.466  17.902  12.434
71809W        W38350  14.734  43.984   3.093
71810W        W38351  27.887  30.473  11.122
71811W        W38352  42.228  36.087   0.318
71812W        W38353  22.168  33.109   0.451
71813W        W38354   1.762   7.905  14.944
71814W        W38355  44.246   1.740  13.508
71815W        W38356  30.965   2.997  14.792
71816W        W38357  35.421   4.711   3.906
71817W        W38358  19.704  10.569   3.347
71818W        W38359  11.795   2.140   2.753
71819W        W38360  33.934  33.826   2.090
71820W        W38361  10.838  22.643   2.329
71821W        W38362   9.720  33.440  13.775
71822W        W38363  17.185  13.636   0.592
71823W        W38364  36.991  18.447  12.471
71824W        W38365   1.185  18.179   3.772
71825W        W38366  32.869  12.767   1.905
71826W        W38367  18.738  41.889   1.508
71827W        W38368  29.578  12.348   3.247
71828W        W38369  24.074  13.637   3.040
71829W        W38370  29.220  41.053  12.044
71830W        W38371  43.959  15.630  13.823
71831W        W38372  38.898  32.817  10.014
71832W        W38373   9.302  25.408   0.336
71833W        W38374  11.073  30.177  13.987
71834W        W38375  13.231   2.670  13.937
71835W        W38376   7.568  24.571  13.358
71836W        W38377  10.324  30.231   2.467
71837W        W38378  11.502  19.280  12.545
71838W        W38379  33.245  27.776  12.226
71839W        W38380  10.591  17.651  11.477
71840W        W38381  31.234  37.362  11.225
71841W        W38382  24.201  35.065  10.786
71842W        W38383  35.338  19.256   4.374
71843W        W38384  26.048   5.284   3.190
71844W        W38385  11.253   6.842   4.486
71845W        W38386  23.714  25.717  13.575
71846W        W38387   7.792   4.465   0.195
71847W        W38388   7.918  24.687  12.428
71848W        W38389  30.838  12.028   3.213
71849W        W38390  23.094  29.647   1.900
71850W        W38391  18.261  20.128   0.777
71851W        W38392  14.537   3.172  14.823
71852W        W38393  17.262  21.544   1.608
71853W        W38394  29.000  39.981   4.079
71854W        W38395  11.597  16.843  14.809
71855W        W38396  42.225  34.354   2.397
71856W        W38397  12.733  13.712   3.183
71857W        W38398  41.307  24.300  12.480
71858W        W38399  36.065   7.271   1.244
71859W        W38400  26.917  38.430   2.394
71860W        W38401  20.065  35.117  14.822
71861W        W38402  33.932  13.595  12.943
71862W        W38403  25.581  35.121   4.651
71863W        W38404  24.733  44.255  12.167
71864W        W38405  28.565   3.912  11.141
71865W        W38406  20.867  16.342  12.073
71866W        W38407   2.431  42.527  12.370
71867W        W38408  41.432  22.771   0.956
71868W        W38409   8.684  13.672  11.841
71869W        W38410  13.489  27.141  12.892
71870W        W38411   6.890  35.528   4.303
71871W        W38412  17.553  12.126   3.874
71872W        W38413   0.016  21.154  11.952
71873W        W38414   9.943   6.379   4.648
71874W        W38415   3.424   0.187   2.124
71875W        W38416  41.189  40.717   1.766
71876W        W38417  34.214  10.139  14.955
71877W        W38418  40.717  32.003  12.033
71878W        W38419  33.717  35.119   4.174
71879W        W38420  29.460  18.161   1.419
71880W        W38421  11.065  31.999  12.454
71881W        W38422  28.081   0.612   5.049
71882W        W38423   9.348   2.188  14.340
71883W        W38424   6.275   1.940  10.718
71884W        W38425  34.167  43.077   4.673
71885W        W38426  18.270   8.837   2.330
71886W        W38427  34.568  14.184   3.499
71887W        W38428  39.786  41.545   0.479
71888W        W38429  15.688  21.560   4.074
71889W        W38430  31.695  33.606  11.561
71890W        W38431  27.483   4.268  10.687
71891W        W38432  18.968  32.534   9.982
71892W        W38433  38.946   9.302  14.895
71893W        W38434  27.819  16.562   3.656
71894W        W38435  44.101  38.862  11.347
71895W        W38436   0.989  34.985   0.678
71896W        W38437  10.503  15.017   2.682
71897W        W38438  38.107  33.766  11.958
71898W        W38439  11.084  15.580  10.721
71899W        W38440   9.448  13.968  12.699
71900W        W38441   7.169  34.094  14.005
71901W        W38442  15.170   0.770   1.304
71902W        W38443  16.154  22.976   1.041
71903W        W38444   2.403  28.523   2.700
71904W        W38445   6.303  16.848  13.501
71905W        W38446  27.367  20.930   3.173
71906W        W38447  33.121  35.957   1.315
71907W        W38448  12.667   4.514  11.337
71908W        W38449  18.179   7.958   3.495
71909W        W38450  23.657  38.856  11.855
71910W        W38451  44.560  14.621   4.504
71911W        W38452  35.099   8.592   4.962
71912W        W38453  18.129  44.861   4.640
71913W        W38454  23.557  23.572  14.381
71914W        W38455  34.640  20.168   0.311
71915W        W38456  13.111  44.585  12.041
71916W        W38457  31.284  13.196  11.638
71917W        W38458  10.229   6.928   1.982
71918W        W38459  21.597   7.451   4.528
71919W        W38460  16.247  41.419  14.399
71920W        W38461  20.013  11.216   0.159
71921W        W38462  36.085  32.371   2.143
71922W        W38463   6.615  30.843  12.526
71923W        W38464  24.696  13.108  13.893
71924W        W38465   8.260  19.487  14.836
71925W        W38466  38.722  36.609   2.649
71926W        W38467  28.487   5.194   3.323
71927W        W38468  33.422  40.210  10.981
71928W        W38469  19.820  38.631  10.528
71929W        W38470   1.353   1.041   0.057
71930W        W38471  25.077  33.463   5.022
71931W        W38472  14.995  10.893  14.270
71932W        W38473   2.887  16.561  12.137
71933W        W38474  29.523   5.278  12.039
71934W        W38475  39.350  13.032  13.829
71935W        W38476  38.358  12.270  12.755
71936W        W38477   3.938  15.039   2.819
71937W        W38478  17.976  38.235  14.754
71938W        W38479  14.682  15.023  12.434
71939W        W38480  27.276  39.365   3.432
71940W        W38481  17.343   5.956  12.698
71941W        W38482   4.150  31.980   9.857
71942W        W38483   2.443  26.057   0.294
71943W        W38484  43.970  15.610  14.732
71944W        W38485  27.017  32.291  14.766
71945W        W38486  29.186  40.810   2.235
71946W        W38487  29.101  39.817  13.049
71947W        W38488   9.275  29.739   3.083
71948W        W38489  18.211  38.115   1.716
71949W        W38490   2.659  30.490   3.735
71950W        W38491  12.051  26.186   3.703
71951W        W38492  13.380  32.204  10.936
71952W        W38493  11.853  16.838   1.029
71953W        W38494  38.711  37.625   4.993
71954W        W38495  22.269   4.888   2.535
71955W        W38496   1.859  34.534   4.973
71956W        W38497  30.116  19.293   0.903
71957W        W38498  26.127  36.964   3.806
71958W        W38499   7.761  15.637  11.544
71959W        W38500  25.799  23.387   3.406
71960W        W38501  43.095  35.957   2.823
71961W        W38502   8.692  15.685  14.910
71962W        W38503  13.534   2.311   1.239
71963W        W38504  14.962  16.530  13.169
71964W        W38505  36.366  43.962   1.880
71965W        W38506  13.433  10.750  12.096
71966W        W38507  12.549  14.759   1.623
71967W        W38508  14.697  18.461   1.374
71968W        W38509   5.295  25.123  14.473
71969W        W38510   8.433  17.002  11.985
71970W        W38511  37.924  23.603   1.861
71971W        W38512  14.340  10.883  10.730
71972W        W38513   1.772  19.616   0.299
71973W        W38514  14.075  26.474  10.455
71974W        W38515  38.117  15.657  11.660
71975W        W38516   9.895  29.978   2.292
71976W        W38517  33.167  36.945  13.505
71977W        W38518  22.650   4.368   4.546
71978W        W38519  12.545  24.331   4.412
71979W        W38520  35.599  15.173   1.547
71980W        W38521   1.727  38.321  13.057
71981W        W38522  18.182  28.130   4.648
71982W        W38523  11.819   7.760  10.875
71983W        W38524  39.133  12.645  12.384
71984W        W38525  44.870  39.145  11.886
71985W        W38526  24.481  34.001  12.249
71986W        W38527  34.037  14.054   0.300
71987W        W38528   6.149  44.609  11.460
71988W        W38529  35.614  17.302   0.024
71989W        W38530  34.642  29.841  12.157
71990W        W38531  43.443  20.246   1.173
71991W        W38532  41.364  25.582   2.376
71992W        W38533  36.474  38.910  13.913
71993W        W38534   6.397  21.694   2.793
71994W        W38535  44.710  29.522   3.178
71995W        W38536   1.189   6.449   4.780
71996W        W38537  39.641  11.464  14.461
71997W        W38538  14.027  21.817   2.604
71998W        W38539  10.763  36.093   3.144
71999W        W38540   4.237  17.585  11.495
72000W        W38541  19.833  26.161  14.944
72001W        W38542   8.500  42.875  12.775
72002W        W38543  10.613  27.079  13.833
72003W        W38544  43.062  30.451   1.961
72004W        W38545   4.436   0.347   0.731
72005W        W38546  17.807  43.374   3.969
72006W        W38547  31.656   7.886  12.122
72007W        W38548  39.045  43.947  11.155
72008W        W38549  36.470  25.512  12.926
72009W        W38550  41.989  18.328   0.899
72010W        W38551  35.963   9.982  10.843
72011W        W38552  18.278  24.074   2.087
72012W        W38553   2.162  16.207   0.180
72013W        W38554  39.832  43.264   1.969
72014W        W38555  18.069   0.342   3.771
72015W        W38556  26.559  11.144  12.109
72016W        W38557  43.816  23.498   4.139
72017W        W38558  41.138  32.077  11.119
72018W        W38559  26.322  29.899   0.972
72019W        W38560  36.333  23.153  11.430
72020W        W38561   6.846   7.941  12.851
72021W        W38562  40.934  22.786   1.722
72022W        W38563  39.569   6.525   4.113
72023W        W38564  21.380  21.728  12.925
72024W        W38565   4.482  16.804  10.803
72025W        W38566  11.758  11.199   4.242
72026W        W38567  16.000  44.680   4.186
72027W        W38568   3.953  17.118   3.877
72028W        W38569  13.601  14.319   0.980
72029W        W38570   6.618  27.909   1.362
72030W        W38571  44.063  38.398  11.150
72031W        W38572  12.150   8.376   1.744
72032W        W38573  41.330  35.178   1.347
72033W        W38574  33.456  38.343  14.815
72034W        W38575  17.065  26.411   4.168
72035W        W38576  26.481  41.267   3.203
72036W        W38577  30.043  12.834   0.756
72037W        W38578  18.753   3.502  11.212
72038W        W38579  36.266  32.396  11.914
72039W        W38580  29.152   2.430   1.560
72040W        W38581   5.601   6.410   4.397
72041W        W38582   9.793   8.500  14.934
72042W        W38583   2.706  12.310  10.951
72043W        W38584  13.281  42.836  13.103
72044W        W38585  32.515  37.987   4.734
72045W        W38586  15.766  24.566  13.622
72046W        W38587  33.184   7.337  14.947
72047W        W38588  42.212  38.066  12.779
72048W        W38589   9.837  31.002  11.834
72049W        W38590   9.131   0.890  11.784
72050W        W38591  19.717  31.139  13.441
72051W        W38592  34.526  18.782  14.296
72052W        W38593  18.279  18.203  14.927
72053W        W38594   4.203  24.792   4.107
72054W        W38595  42.007  44.536   3.774
72055W        W38596   1.222  16.065   3.813
72056W        W38597  26.690  11.125  14.383
72057W        W38598  19.017  13.303  14.417
72058W        W38599   1.882  38.996   1.717
72059W        W38600  16.180  31.589   3.624
72060W        W38601  40.859  35.878   0.910
72061W        W38602   1.697  13.449   0.722
72062W        W38603  32.563  35.959   4.580
72063W        W38604  24.651  15.095   0.945
72064W        W38605  32.823  17.583   0.433
72065W        W38606  17.486  43.319  13.384
72066W        W38607   2.521   6.890  12.425
72067W        W38608   6.332  33.587   3.868
72068W        W38609  21.318  44.738  11.178
72069W        W38610  27.428  22.700  11.113
72070W        W38611   7.562   1.611   3.717
72071W        W38612  39.720  32.530   3.189
72072W        W38613  10.063  28.393   1.578
72073W        W38614  21.142   1.420   2.913
72074W        W38615  24.289  31.959   2.908
72075W        W38616  26.754  24.817  12.948
72076W        W38617   8.267  35.339   4.806
72077W        W38618  16.065   6.002   1.941
72078W        W38619  39.726  32.872  11.146
72079W        W38620  20.235  15.714   1.030
72080W        W38621  15.743  18.585   4.811
72081W        W38622  14.653   9.381  11.640
72082W        W38623  29.248  32.007   2.130
72083W        W38624   7.940   9.438   1.289
72084W        W38625  29.127   9.783   4.572
72085W        W38626   3.304  42.762  13.265
72086W        W38627  41.469  40.978   0.372
72087W        W38628   6.352  28.056   3.628
72088W        W38629  17.315  44.877   3.128
72089W        W38630  20.954  30.517  14.535
72090W        W38631  44.363   8.849   4.181
72091W        W38632  37.638  42.069  11.796
72092W        W38633   7.891   7.482  11.189
72093W        W38634  39.039   4.012   3.546
72094W        W38635  15.020  20.324  12.976
72095W        W38636  11.755  24.107  13.622
72096W        W38637  36.313  41.971  11.124
72097W        W38638   3.696  35.974   3.872
72098W        W38639   5.099  15.102   1.367
72099W        W38640  30.124  14.747   2.340
72100W        W38641  24.221   9.837  11.639
72101W        W38642  16.850  25.553   4.158
72102W        W38643   2.513  40.922   4.209
72103W        W38644  29.007  33.705   3.209
72104W        W38645   2.225  31.558  14.845
72105W        W38646   1.237   5.308   4.654
72106W        W38647  20.820   9.516  12.519
72107W        W38648  38.598  29.359  14.843
72108W        W38649  18.748  36.368  11.245
72109W        W38650  26.336  30.880  10.877
72110W        W38651  29.785  28.442  11.106
72111W        W38652   4.674  44.870   4.637
72112W        W38653  21.551  44.745   0.761
72113W        W38654  32.739  27.568  11.211
72114W        W38655  40.922  15.376   2.354
72115W        W38656   9.720  20.190   3.730
72116W        W38657  42.239   7.001  12.431
72117W        W38658  12.978  27.890  11.143
72118W        W38659  15.190  14.726   0.576
72119W        W38660  23.203   5.284  11.681
72120W        W38661   2.598  29.797   4.560
72121W        W38662  11.197  43.115   3.249
72122W        W38663  20.180  35.344  10.881
72123W        W38664  11.873  18.325  12.483
72124W        W38665  31.408  42.450  12.175
72125W        W38666  23.747  43.311   2.528
72126W        W38667  42.990  37.946  14.910
72127W        W38668  33.289  30.665  12.610
72128W        W38669  44.648   4.289  10.855
72129W        W38670  30.641   2.742   1.998
72130W        W38671  28.534  43.220   1.301
72131W        W38672  23.453  37.006  10.721
72132W        W38673  18.124  41.820   3.219
72133W        W38674  22.483   4.491   1.774
72134W        W38675  24.766   8.701   4.181
72135W        W38676  16.096  23.743   0.449
72136W        W38677  31.896  39.971   0.127
72137W        W38678  27.660  34.292   0.490
72138W        W38679   5.684  39.023   3.606
72139W        W38680  26.614  19.626   1.450
72140W        W38681  23.594  30.098   3.147
72141W        W38682  41.531  31.127  11.539
72142W        W38683  14.084  28.865  10.335
72143W        W38684  33.287   9.363  12.964
72144W        W38685  43.116   4.734   3.246
72145W        W38686  38.443   1.645  14.403
72146W        W38687  17.319   9.277   0.376
72147W        W38688   6.173  11.104  13.310
72148W        W38689   7.844  31.379   4.865
72149W        W38690  21.489  31.101  11.462
72150W        W38691  12.144  35.908  11.663
72151W        W38692  36.572   0.486   1.331
72152W        W38693  35.308  22.746   0.627
72153W        W38694  23.852  14.275   3.785
72154W        W38695  36.056   8.115   0.201
72155W        W38696   2.246  44.377  13.664
72156W        W38697   0.192  12.801  12.161
72157W        W38698  37.567  41.680  11.480
72158W        W38699  16.171  29.217  12.898
72159W        W38700  43.814  20.795   1.024
72160W        W38701   3.014   3.528   2.389
72161W        W38702  43.955  32.349  13.923
72162W        W38703  22.519  11.809  14.247
72163W        W38704  10.596  28.689   3.198
72164W        W38705  19.089  27.133  10.668
72165W        W38706  20.675   8.838   2.832
72166W        W38707   4.974   5.223  10.765
72167W        W38708  11.101  23.023  13.664
72168W        W38709  13.659  21.289  12.409
72169W        W38710  11.123  11.119   2.353
72170W        W38711   7.905  26.172  10.660
72171W        W38712   0.760  25.073  12.718
72172W        W38713  41.258   6.230  12.630
72173W        W38714  36.888  15.725  11.514
72174W        W38715   6.341  13.786   3.838
72175W        W38716  22.311  44.420   1.972
72176W        W38717  15.108  23.102   4.166
72177W        W38718  28.642  12.290   3.528
72178W        W38719  22.064  34.363   0.812
72179W        W38720  29.646   7.312  11.693
72180W        W38721  23.885  21.146   4.487
72181W        W38722  40.776  28.319   3.691
72182W        W38723  32.946  14.286  10.678
72183W        W38724  11.569  11.585   3.092
72184W        W38725   0.400  16.364  12.144
72185W        W38726  37.351  31.816  14.920
72186W        W38727  25.479  20.798  13.856
72187W        W38728   4.838  37.833   3.604
72188W        W38729  41.270   4.737   0.916
72189W        W38730  31.403  27.929  12.992
72190W        W38731  31.565   2.264   5.058
72191W        W38732  23.236  20.000  13.864
72192W        W38733  24.047  13.504   2.197
72193W        W38734  28.388  44.223   0.707
72194W        W38735  16.738  11.850  14.867
72195W        W38736  19.564  25.514  13.763
72196W        W38737  37.464  10.175   0.868
72197W        W38738   4.266   5.326  10.253
72198W        W38739  31.407   2.323  14.007
72199W        W38740  43.407  20.523   0.760
72200W        W38741  44.720  33.848   4.126
72201W        W38742  44.418   5.903  10.499
72202W        W38743  27.022   8.235   0.656
72203W        W38744  36.308  18.666  12.290
72204W        W38745   4.851   2.997   2.282
72205W        W38746  28.174  13.787   1.455
72206W        W38747  29.904   9.689  13.348
72207W        W38748  33.841  11.328   4.299
72208W        W38749  22.130  19.964   0.961
72209W        W38750  19.758  14.643   1.601
72210W        W38751  24.060  38.515  13.942
72211W        W38752  16.875  10.286  14.922
72212W        W38753  25.192  32.979  12.130
72213W        W38754  26.182  24.170   0.776
72214W        W38755  21.168  36.819  11.958
72215W        W38756  22.644  18.714   0.789
72216W        W38757   2.089  18.093  13.042
72217W        W38758  34.514   0.785  14.780
72218W        W38759  35.787  35.424   0.327
72219W        W38760  34.250  42.668  14.927
72220W        W38761  11.869  30.520  11.104
72221W        W38762   2.700  38.939  14.069
72222W        W38763  26.969  23.491   4.521
72223W        W38764  42.608   0.322   4.909
72224W        W38765  12.196   2.378  14.085
72225W        W38766  35.602  12.125   0.907
72226W        W38767  36.774  33.849  14.630
72227W        W38768  30.843  27.682  14.726
72228W        W38769   5.947  23.919   4.071
72229W        W38770  43.448  42.511  14.575
72230W        W38771   7.382   0.830  12.460
72231W        W38772  10.413   2.892  11.101
72232W        W38773   3.433  37.071  14.249
72233W        W38774  11.291  16.067   1.021
72234W        W38775   6.247  38.084   3.614
72235W        W38776   0.797  16.703   1.826
72236W        W38777  43.041  41.423  11.938
72237W        W38778  16.252  28.159  14.803
72238W        W38779   4.801  36.119  11.277
72239W        W38780  35.498   8.091  10.707
72240W        W38781   2.797  29.227   3.609
72241W        W38782  38.347  27.101   2.873
72242W        W38783   3.974  35.516   2.612
72243W        W38784  27.498  43.440  14.194
72244W        W38785  42.479  23.950   1.171
72245W        W38786   3.963   1.408   0.856
72246W        W38787  17.793  37.467  13.886
72247W        W38788  30.822  30.185   2.157
72248W        W38789  25.702  42.294   2.721
72249W        W38790   1.733  19.066  14.877
72250W        W38791  10.449   6.060   2.070
72251W        W38792   6.156  41.504  13.842
72252W        W38793  23.639  42.503  11.538
72253W        W38794  42.801  34.961   1.883
72254W        W38795  44.244  16.949  11.543
72255W        W38796  11.635   0.759  10.622
72256W        W38797  16.505   0.757   2.719
72257W        W38798  33.309  26.820   4.929
72258W        W38799  11.094   2.164  14.715
72259W        W38800  24.305   3.731   4.863
72260W        W38801  40.208   3.229  12.510
72261W        W38802  33.069  33.842  14.331
72262W        W38803   0.196  31.165  11.763
72263W        W38804  31.694  43.225   0.390
72264W        W38805  22.073   2.990  10.700
72265W        W38806  44.320  38.445  10.704
72266W        W38807  24.860  27.425  11.085
72267W        W38808   5.615  44.551  14.382
72268W        W38809  31.077   2.380  10.498
72269W        W38810   8.912  34.601   4.656
72270W        W38811  32.867   7.225   4.409
72271W        W38812   8.016  17.279  11.790
72272W        W38813  40.334   9.036   4.589
72273W        W38814  17.115   9.763   1.360
72274W        W38815  36.535  15.054   4.053
72275W        W38816  14.749  15.370  12.048
72276W        W38817  17.573  38.640  14.686
72277W        W38818   4.388  38.318   1.591
72278W        W38819  12.324   2.732   0.720
72279W        W38820   4.164  37.850   1.479
72280W        W38821   9.841  30.595   4.192
72281W        W38822  12.055   7.535   4.246
72282W        W38823  20.999  15.090  13.987
72283W        W38824  29.392  23.493  10.842
72284W        W38825   1.163   6.903   1.394
72285W        W38826   1.151  13.153  12.090
72286W        W38827   7.548  23.817   0.844
72287W        W38828  31.048  10.345  12.613
72288W        W38829  34.087  24.992  12.054
72289W        W38830  33.911  33.838   0.845
72290W        W38831  23.842  33.056   0.232
72291W        W38832   6.420  22.149   4.522
72292W        W38833   6.703  19.632  14.799
72293W        W38834  15.556   4.233  10.263
72294W        W38835  39.440  43.228   0.968
72295W        W38836  38.950  23.735  10.298
72296W        W38837   0.957  30.550  10.183
72297W        W38838  36.903  20.785  13.885
72298W        W38839  27.096  31.967   1.322
72299W        W38840  33.975   1.240   4.580
72300W        W38841  14.914   0.427  13.299
72301W        W38842   8.663  32.461  13.560
72302W        W38843  18.325  15.400   2.666
72303W        W38844  12.749  30.501   4.784
72304W        W38845   1.278  27.649   1.107
72305W        W38846  11.182  24.769  12.983
72306W        W38847   4.302   2.366   0.797
72307W        W38848  25.239   8.681  10.773
72308W        W38849  36.450  22.737   0.535
72309W        W38850   7.206   5.867  12.181
72310W        W38851  20.736  39.228   1.912
72311W        W38852  21.300  21.719   3.237
72312W        W38853  15.782  30.266   0.374
72313W        W38854  35.381  10.909   3.208
72314W        W38855  23.119   0.138   4.094
72315W        W38856  31.578  35.021  13.293
72316W        W38857  29.354   5.787   0.270
72317W        W38858  18.958  20.902   5.000
72318W        W38859  37.126  18.771  10.745
72319W        W38860   8.352  29.544  11.912
72320W        W38861  35.837  22.268  14.476
72321W        W38862  30.538  27.530  11.645
72322W        W38863  29.152  31.997  13.413
72323W        W38864  24.002   9.398   4.079
72324W        W38865  28.289   9.855   0.241
72325W        W38866   4.232   6.183   0.459
72326W        W38867  17.835  15.756   5.046
72327W        W38868  25.802  35.032   4.184
72328W        W38869  27.247  15.919   0.973
72329W        W38870  33.897  37.429  13.640
72330W        W38871  21.147  38.855  13.024
72331W        W38872  31.457  40.547  13.972
72332W        W38873   4.507  22.685  14.363
72333W        W38874  21.275  28.028  10.961
72334W        W38875  42.033  21.871  14.404
72335W        W38876  38.814   3.688  14.503
72336W        W38877  35.347   8.590  14.240
72337W        W38878   5.891  16.767   4.238
72338W        W38879  39.936  33.710   0.483
72339W        W38880  26.963  31.441  14.460
72340W        W38881  42.268  30.309  10.743
72341W        W38882   7.741  16.084  14.870
72342W        W38883  37.414  37.960   2.179
72343W        W38884  15.885  30.246  13.511
72344W        W38885  37.600  44.334   3.106
72345W        W38886  26.977  36.340   0.785
72346W        W38887  26.429   8.859  12.542
72347W        W38888  41.233   6.929  13.881
72348W        W38889   7.262  24.494   5.392
72349W        W38890  31.820  24.647  12.538
72350W        W38891  23.751   2.831  11.227
72351W        W38892   0.941  19.395   2.118
72352W        W38893  29.526  25.563  14.836
72353W        W38894   8.220  36.114   2.426
72354W        W38895  18.067   9.577  10.689
72355W        W38896  44.261  36.468   2.459
72356W        W38897  42.400  13.241   3.770
72357W        W38898  41.030   2.543   2.713
72358W        W38899  18.516  38.893  10.342
72359W        W38900  36.418   6.133  13.981
72360W        W38901   4.199   5.417  13.633
72361W        W38902  25.368   1.505  11.841
72362W        W38903  31.721  37.264  13.954
72363W        W38904  18.705  15.015  13.359
72364W        W38905   7.405  14.503   4.530
72365W        W38906  10.367   4.691   1.948
72366W        W38907  34.820  24.694   0.631
72367W        W38908  33.366  30.187   0.695
72368W        W38909  12.736  25.539  13.394
72369W        W38910  34.662  18.057   3.579
72370W        W38911  26.661  15.012   2.837
72371W        W38912  30.946   2.450   4.499
72372W        W38913  15.160  22.983  12.409
72373W        W38914   1.461  27.521  14.723
72374W        W38915  44.195   1.368  11.630
72375W        W38916   9.440  36.594   2.332
72376W        W38917  19.545  13.720   9.886
72377W        W38918   6.173  34.516   3.917
72378W        W38919  38.968  27.681   1.838
72379W        W38920   5.687  43.541  14.295
72380W        W38921   6.244   8.816   3.396
72381W        W38922  32.414  23.088   2.773
72382W        W38923   2.694  43.263   0.242
72383W        W38924  18.120  22.032   2.006
72384W        W38925   5.964  20.828  12.962
72385W        W38926  17.967  26.481   9.895
72386W        W38927  17.529   1.336  11.999
72387W        W38928  26.612  26.617   4.698
72388W        W38929  43.591   6.032  14.463
72389W        W38930  37.737   6.743  13.450
72390W        W38931   0.318  26.716   2.173
72391W        W38932   9.170   6.304   2.460
72392W        W38933  31.158  44.932   0.078
72393W        W38934   0.542  28.972   4.607
72394W        W38935  29.562  41.721  13.583
72395W        W38936  32.037  11.866   3.627
72396W        W38937  38.360  40.248   3.172
72397W        W38938  34.066  28.844   1.276
72398W        W38939  30.140  42.332   2.875
72399W        W38940  27.433  39.548  10.896
72400W        W38941  26.081  14.587  13.593
72401W        W38942  27.959   3.491   2.766
72402W        W38943  35.039  24.308  12.072
72403W        W38944  26.677  37.866   1.438
72404W        W38945   5.422  10.555   1.192
72405W        W38946  17.756  40.953  12.901
72406W        W38947  36.515  41.264   4.892
72407W        W38948  32.444  21.276  14.257
72408W        W38949  38.784  11.589  10.789
72409W        W38950  23.148  23.504   1.209
72410W        W38951  18.813  21.440   4.536
72411W        W38952  19.877  29.586   2.751
72412W        W38953   2.407  10.853  11.526
72413W        W38954  25.801  24.555  13.431
72414W        W38955  22.999   1.403   4.904
72415W        W38956  26.191  23.681  14.508
72416W        W38957  10.158  34.878  11.019
72417W        W38958  16.645  35.682  14.273
72418W        W38959  17.691   5.909   4.129
72419W        W38960   6.465  38.960   0.715
72420W        W38961  33.968   3.943   1.352
72421W        W38962   1.014  26.031   1.843
72422W        W38963  25.997  34.310  11.981
72423W        W38964   5.658  23.219  13.417
72424W        W38965  16.221  44.053  11.630
72425W        W38966  42.580  26.755   4.797
72426W        W38967  44.804  17.251  14.845
72427W        W38968  28.221  14.289   1.370
72428W        W38969  30.514  27.663   2.151
72429W        W38970  44.494  30.106   1.313
72430W        W38971   1.817  42.421  13.366
72431W        W38972   8.270   7.938  14.001
72432W        W38973  21.593  38.866  12.738
72433W        W38974  16.664   5.741   1.073
72434W        W38975   3.353   3.504   2.794
72435W        W38976  36.491   4.206   1.826
72436W        W38977  37.947  43.254   2.488
72437W        W38978  12.930  12.238  14.338
72438W        W38979  23.198  44.605   1.338
72439W        W38980  41.813  37.383   0.975
72440W        W38981   2.891   5.888   1.222
72441W        W38982  44.564  26.413   4.160
72442W        W38983  10.833  40.656  11.675
72443W        W38984  26.974  10.365   0.344
72444W        W38985  38.020  19.935   1.258
72445W        W38986  12.815  40.836   4.324
72446W        W38987  24.990  40.966   3.706
72447W        W38988  18.003   4.680   3.164
72448W        W38989   3.620  26.498   1.961
72449W        W38990  14.267   0.013  13.956
72450W        W38991  43.603  38.684  11.159
72451W        W38992   2.417  10.362   2.535
72452W        W38993   7.362  30.424   1.351
72453W        W38994  43.487  44.535   2.416
72454W        W38995  14.119  34.879  13.083
72455W        W38996   2.425  44.910   0.424
72456W        W38997  13.775  37.514  10.656
72457W        W38998  28.102  44.744  13.626
72458W        W38999  44.545   3.352   2.269
72459W        W39000  26.284  10.324  10.148
72460W        W39001  29.574  39.014  11.293
72461W        W39002   5.200  40.897  10.604
72462W        W39003   5.603  13.256  13.798
72463W        W39004  42.725  25.845  14.104
72464W        W39005  42.400   2.985  13.464
72465W        W39006  17.851  41.359   2.211
72466W        W39007  39.645  25.399  11.120
72467W        W39008  42.536   0.813   1.457
72468W        W39009  14.256   5.613  13.518
72469W        W39010  28.898  13.931  13.867
72470W        W39011  29.344  12.452   1.490
72471W        W39012   0.141  39.912   3.134
72472W        W39013  31.367   9.685   1.722
72473W        W39014  19.575   1.937  11.602
72474W        W39015  24.096  33.371   5.081
72475W        W39016  23.630  17.587   2.562
72476W        W39017   1.193   4.894   5.081
72477W        W39018  43.013  13.036  13.307
72478W        W39019  28.931   2.494   0.342
72479W        W39020  22.681   6.232   1.124
72480W        W39021  19.234  28.763   2.203
72481W        W39022  21.943  40.368   3.388
72482W        W39023  27.629  22.156  13.371
72483W        W39024  15.683  11.687   5.037
72484W        W39025  11.154  33.987   1.279
72485W        W39026  16.580  37.237   3.240
72486W        W39027  30.431  15.257  13.466
72487W        W39028   4.788   8.318  13.555
72488W        W39029   8.289  24.490  11.922
72489W        W39030  29.858  16.688  11.189
72490W        W39031  31.634  14.226  14.931
72491W        W39032  44.323  12.698  12.083
72492W        W39033   1.936  42.332   1.077
72493W        W39034  15.838   4.286  11.483
72494W        W39035  27.619  39.970  10.633
72495W        W39036   9.805  32.304  12.457
72496W        W39037  42.706  26.410   0.356
72497W        W39038  28.408  12.503  10.178
72498W        W39039  33.177  14.172   2.924
72499W        W39040   2.706  34.173  11.278
72500W        W39041   5.319   4.802   2.772
72501W        W39042  12.068  13.658   2.600
72502W        W39043  41.225  11.910   0.010
72503W        W39044  25.937  10.182   1.792
72504W        W39045  43.031  42.497   2.811
72505W        W39046  39.482   9.373   3.299
72506W        W39047  35.856  38.598   2.261
72507W        W39048  10.136  31.950  11.456
72508W        W39049  35.394  44.679  14.837
72509W        W39050  30.068  15.553  11.010
72510W        W39051  28.047  31.800  11.111
72511W        W39052  14.686  43.974  11.167
72512W        W39053   1.540  12.816   3.542
72513W        W39054  13.102   7.935  11.940
72514W        W39055  26.078   7.138  14.253
72515W        W39056  16.907  10.689  12.151
72516W        W39057  10.599  24.497   2.341
72517W        W39058  18.228  16.339   2.648
72518W        W39059  23.081  35.871   1.824
72519W        W39060  23.615  19.624   1.241
72520W        W39061   1.367  10.416   3.326
72521W        W39062  41.019  36.039  12.106
72522W        W39063  27.646  22.994  10.755
72523W        W39064  28.945   0.689   4.485
72524W        W39065   3.829  38.894  13.485
72525W        W39066  16.630   8.394  11.126
72526W        W39067  34.587  22.097  14.641
72527W        W39068  13.496  22.782  10.255
72528W        W39069   1.717  12.629  14.857
72529W        W39070   3.491  27.111  13.383
72530W        W39071  20.899  43.372   0.795
72531W        W39072  30.663  15.596   3.938
72532W        W39073  16.571   6.668  11.579
72533W        W39074  18.301  16.870  14.995
72534W        W39075  38.590  21.194   2.200
72535W        W39076  37.670  37.506   2.253
72536W        W39077  43.401  27.945   1.247
72537W        W39078  21.090  35.115   0.855
72538W        W39079  42.363   9.176   0.358
72539W        W39080  27.588   1.397  13.960
72540W        W39081  28.125  40.001   1.768
72541W        W39082  10.652  24.559   0.300
72542W        W39083  27.491  18.915  13.488
72543W        W39084   9.194  33.204  12.994
72544W        W39085  34.650  34.014   3.130
72545W        W39086  29.470   8.551  11.294
72546W        W39087  11.189  19.790  12.587
72547W        W39088   8.477  11.107  14.462
72548W        W39089  44.447  44.783  11.585
72549W        W39090  19.517   4.446   3.317
72550W        W39091  44.954  29.613   3.683
72551W        W39092   2.950  21.558  14.960
72552W        W39093  29.901  24.993  13.999
72553W        W39094   0.971  36.878  10.798
72554W        W39095   4.443  25.774   0.856
72555W        W39096  35.050   2.016  14.893
72556W        W39097  26.127  34.084   3.138
72557W        W39098  25.488  26.166   4.249
72558W        W39099  35.410   6.123  11.644
72559W        W39100  15.818  39.010  14.474
72560W        W39101  40.383  23.156   1.845
72561W        W39102   0.859   0.518  14.352
72562W        W39103  42.101   7.861   2.878
72563W        W39104  44.114  35.580  11.953
72564W        W39105  25.468  12.917  13.972
72565W        W39106  12.212   1.282  10.965
72566W        W39107  35.515  32.009  14.084
72567W        W39108  20.712  42.351   4.396
72568W        W39109  34.693  34.785   4.327
72569W        W39110  25.654  34.655  14.241
72570W        W39111  11.866  18.565  11.038
72571W        W39112  40.977  28.544  14.004
72572W        W39113  36.094  16.783   3.924
72573W        W39114  14.570  15.576   1.250
72574W        W39115  20.132  35.468   2.312
72575W        W39116  26.970  28.599  10.715
72576W        W39117  36.139  11.114  11.611
72577W        W39118  25.741  43.426   0.015
72578W        W39119  23.630  24.926   0.416
72579W        W39120   5.237  43.071   2.932
72580W        W39121   2.443   0.617   4.189
72581W        W39122  32.066  30.915   1.956
72582W        W39123   7.341  31.495   0.285
72583W        W39124  35.350   6.717   2.029
72584W        W39125  15.770  23.710   0.849
72585W        W39126  41.983  15.246  13.453
72586W        W39127  29.591  37.241  12.635
72587W        W39128  26.173   2.273  12.035
72588W        W39129  13.060  24.295  14.856
72589W        W39130  34.445  33.882   4.819
72590W        W39131   5.490  31.663   4.812
72591W        W39132  41.227  23.563  14.283
72592W        W39133  35.091  20.709  10.783
72593W        W39134  15.357  34.568  10.569
72594W        W39135  28.523  26.240   2.312
72595W        W39136   0.013   1.753  12.210
72596W        W39137  23.155  33.612   4.016
72597W        W39138   9.281   0.979   2.356
72598W        W39139   1.471  27.957  11.512
72599W        W39140  15.144  35.009  12.158
72600W        W39141  36.986  33.051  13.996
72601W        W39142  28.122  10.831   4.284
72602W        W39143  25.629  42.537  11.572
72603W        W39144   7.736   6.766  11.536
72604W        W39145  16.933  31.972  11.209
72605W        W39146  11.104  16.333  13.280
72606W        W39147   7.791   0.356  11.148
72607W        W39148  19.698  31.667   0.793
72608W        W39149  14.315   1.982   0.253
72609W        W39150  24.696  16.272   1.801
72610W        W39151  35.606  37.777   0.880
72611W        W39152   2.950  19.657   1.111
72612W        W39153  33.396   4.970   2.330
72613W        W39154  43.248   5.499  14.333
72614W        W39155  41.772  35.896  14.369
72615W        W39156  25.136  31.433  10.736
72616W        W39157  32.889  34.844   0.503
72617W        W39158  25.194  17.488   4.024
72618W        W39159  37.285  40.378   3.352
72619W        W39160   6.415  43.700  14.606
72620W        W39161  10.245  11.576  13.491
72621W        W39162  39.842   9.261   4.882
72622W        W39163  25.179  18.392  13.600
72623W        W39164   6.746  24.039  11.197
72624W        W39165   0.365  37.510  14.680
72625W        W39166   8.405   8.776   2.343
72626W        W39167  37.274  25.978  12.362
72627W        W39168  21.025   6.633   4.124
72628W        W39169  39.500  18.351   2.680
72629W        W39170   8.887   4.998   4.245
72630W        W39171  33.128  25.499  13.039
72631W        W39172  41.103   8.403  12.958
72632W        W39173  32.557  34.370  13.902
72633W        W39174  15.113  34.646   3.900
72634W        W39175  13.143  31.414   2.086
72635W        W39176  43.414  13.323  13.452
72636W        W39177  34.309  13.738  10.670
72637W        W39178   0.672  39.507   0.385
72638W        W39179   1.866   4.224   3.966
72639W        W39180  11.297  25.571   2.676
72640W        W39181  16.374  15.027  14.916
72641W        W39182  30.760  27.492  14.264
72642W        W39183   0.497  36.851  11.156
72643W        W39184  37.331  34.056   0.896
72644W        W39185  17.154  13.744   0.100
72645W        W39186  12.389  21.187   3.894
72646W        W39187  17.632  28.597  13.393
72647W        W39188  36.470  12.781   3.639
72648W        W39189  16.802  16.397   2.272
72649W        W39190  26.175  32.346  11.559
72650W        W39191  38.936   7.740   1.247
72651W        W39192  43.898  22.670   2.094
72652W        W39193  16.366   7.285   5.174
72653W        W39194  44.952  18.630  13.085
72654W        W39195   2.970  37.591   1.353
72655W        W39196  15.664   8.903   3.766
72656W        W39197  34.408  15.580   2.882
72657W        W39198  30.669  17.830  11.665
72658W        W39199   3.883  18.077  10.740
72659W        W39200  22.561  13.679  13.724
72660W        W39201  36.391   3.164   0.188
72661W        W39202   6.249  20.822   4.362
72662W        W39203  16.173  38.315  10.312
72663W        W39204   9.102  41.499   3.744
72664W        W39205  37.877  18.071   1.344
72665W        W39206  44.690  20.536  12.930
72666W        W39207  24.613   8.040   2.909
72667W        W39208  26.117  44.285   0.709
72668W        W39209  23.707  18.078   2.372
72669W        W39210  12.733  28.694  13.225
72670W        W39211  24.048  24.044   1.781
72671W        W39212  38.227  38.961  14.304
72672W        W39213   5.651  13.208   3.139
72673W        W39214   6.806  43.917  14.345
72674W        W39215  24.470   9.855  12.120
72675W        W39216  38.967   2.372  12.639
72676W        W39217  21.215  11.363  14.996
72677W        W39218   3.651  11.586   3.449
72678W        W39219  24.331   3.483  10.679
72679W        W39220   9.291  23.701  12.552
72680W        W39221  12.154  40.678  13.184
72681W        W39222  26.431   4.574   4.153
72682W        W39223  18.524  13.122   0.236
72683W        W39224  30.607   5.532  14.377
72684W        W39225   4.748  11.928  12.811
72685W        W39226  34.988   4.009   5.650
72686W        W39227  15.896  11.620   1.806
72687W        W39228  32.360  39.919  13.837
72688W        W39229   8.836   4.448  13.720
72689W        W39230  26.395  41.004  13.328
72690W        W39231  17.398  42.184   9.928
72691W        W39232  36.464   5.233  12.081
72692W        W39233  44.381  20.802   3.126
72693W        W39234  40.291   3.375  10.855
72694W        W39235  42.805   6.442   1.298
72695W        W39236  11.814  25.468  12.912
72696W        W39237   0.837  14.643  10.467
72697W        W39238  41.551  37.927  13.511
72698W        W39239  34.983  14.440   4.195
72699W        W39240  11.545  27.862   5.159
72700W        W39241  12.055  21.193  12.540
72701W        W39242  16.508  24.244   1.771
72702W        W39243  26.617  15.552   4.525
72703W        W39244  37.126   8.144   2.580
72704W        W39245  34.408  33.056  14.069
72705W        W39246  19.501  42.757  14.253
72706W        W39247  17.986  18.466  12.976
72707W        W39248  34.906   2.353  11.206
72708W        W39249  25.751  40.944   3.360
72709W        W39250  16.215  40.472  13.801
72710W        W39251  29.381  18.648  10.629
72711W        W39252   5.247  36.411  14.824
72712W        W39253  12.179  33.164   2.314
72713W        W39254  25.340  18.407  10.283
72714W        W39255   0.050  36.979   2.261
72715W        W39256  22.691  42.996   4.952
72716W        W39257  32.128   2.497   3.154
72717W        W39258  15.193  14.073  13.469
72718W        W39259   3.954  19.480   3.884
72719W        W39260  27.172   7.959  11.023
72720W        W39261  19.069  29.475  12.256
72721W        W39262  28.938  34.986  14.990
72722W        W39263  11.547  38.476   4.095
72723W        W39264  39.912  31.585   4.090
72724W        W39265  24.890  37.847  14.810
72725W        W39266   4.939  17.169   0.378
72726W        W39267  42.871  37.455  14.897
72727W        W39268  28.709  36.914   2.922
72728W        W39269  31.791   1.821   4.952
72729W        W39270  30.550  13.199  14.120
72730W        W39271  37.781   3.353  10.747
72731W        W39272  38.449   3.343  11.978
72732W        W39273  20.643  25.084   2.387
72733W        W39274  44.510   6.711  12.898
72734W        W39275  32.570  28.983  12.372
72735W        W39276  40.002  14.131   0.831
72736W        W39277   7.261   4.481   1.245
72737W        W39278  18.136  26.085  13.097
72738W        W39279  30.133  38.470  11.572
72739W        W39280   7.197  33.144  12.562
72740W        W39281  31.075  17.144  10.461
72741W        W39282  15.654   0.257  11.590
72742W        W39283  44.419  14.443  12.364
72743W        W39284  42.672   3.402   9.965
72744W        W39285  35.067  13.076   0.793
72745W        W39286  29.707  41.483   3.098
72746W        W39287   7.200  12.671   1.220
72747W        W39288  17.473  29.206   0.264
72748W        W39289   5.404   9.670  14.294
72749W        W39290  26.321  32.116  13.310
72750W        W39291  44.461  39.918  13.095
72751W        W39292   2.802  14.207   2.996
72752W        W39293  18.627  42.941  12.237
72753W        W39294  24.691  43.808  12.445
72754W        W39295  44.227  15.156   1.554
72755W        W39296  23.168  16.051   0.736
72756W        W39297  26.927   4.976  14.982
72757W        W39298   5.645  36.425  14.381
72758W        W39299   5.969  13.889   4.278
72759W        W39300  26.904  11.250   3.864
72760W        W39301  26.562  22.725  12.056
72761W        W39302  26.988  20.623  10.933
72762W        W39303  36.799   0.874  13.367
72763W        W39304  30.558  44.178  11.604
72764W        W39305   8.392  22.478  11.075
72765W        W39306  18.665  24.416  12.628
72766W        W39307  22.620  44.414  12.578
72767W        W39308   1.891  20.056   3.287
72768W        W39309  29.264  14.869  13.862
72769W        W39310  21.069  38.696  13.971
72770W        W39311   9.733  19.485   0.868
72771W        W39312   5.069  40.788  13.522
72772W        W39313  40.829   1.305   4.676
72773W        W39314  28.413  38.544   0.307
72774W        W39315  40.044  38.118   4.764
72775W        W39316  14.696  18.737   1.884
72776W        W39317  26.660  43.048   4.802
72777W        W39318  31.054  16.928  11.538
72778W        W39319  41.405  21.168  13.465
72779W        W39320  11.332  10.919   3.486
72780W        W39321  33.974  39.026  11.807
72781W        W39322   7.252  42.289   2.640
72782W        W39323  15.820  44.988   1.383
72783W        W39324  31.179  29.348   0.804
72784W        W39325  28.049  24.658   1.704
72785W        W39326  19.701  11.828  11.527
72786W        W39327  43.537  43.699  12.526
72787W        W39328   0.466  40.632   0.403
72788W        W39329  39.018  43.877   3.196
72789W        W39330   4.300  33.031  11.220
72790W        W39331   8.382  25.133   0.054
72791W        W39332   3.035   7.942   3.692
72792W        W39333  33.557  17.479   4.694
72793W        W39334  40.276  12.290   2.733
72794W        W39335   6.226  22.736  12.879
72795W        W39336  41.009  28.096   0.810
72796W        W39337  22.448  13.533   4.338
72797W        W39338   1.821  39.487   1.503
72798W        W39339  15.278  44.354  10.737
72799W        W39340   1.417   6.944  10.721
72800W        W39341  18.618  41.378   0.396
72801W        W39342  28.813  37.588  12.342
72802W        W39343   7.284  36.307   0.223
72803W        W39344  16.758  16.642  11.141
72804W        W39345  28.488  13.358  13.151
72805W        W39346  29.078   1.175   1.202
72806W        W39347  10.733  11.915  13.492
72807W        W39348   8.685  22.003   1.556
72808W        W39349  32.018  10.766   4.312
72809W        W39350  32.387  16.772   3.265
72810W        W39351  44.384  18.634   0.218
72811W        W39352  21.081   1.752  10.807
72812W        W39353  18.577  26.212   3.342
72813W        W39354  10.218  11.601   3.742
72814W        W39355  13.835   2.539   0.407
72815W        W39356  37.359  18.342  13.732
72816W        W39357  10.557  27.568  12.601
72817W        W39358  23.752   4.239  14.977
72818W        W39359  16.165   8.292   3.797
72819W        W39360  25.491  40.687   3.715
72820W        W39361  38.254  27.782  12.960
72821W        W39362  21.760  14.605   0.333
72822W        W39363  33.495  10.796  13.408
72823W        W39364   7.038  24.738   1.948
72824W        W39365   4.903  35.963  14.511
72825W        W39366  23.530  36.302   1.273
72826W        W39367  13.934  40.451  12.038
72827W        W39368  17.182   7.723  10.796
72828W        W39369  23.070  36.090  14.070
72829W        W39370   9.255  31.172   4.730
72830W        W39371   2.782  42.365  13.796
72831W        W39372  35.087  41.693   3.565
72832W        W39373  16.208  20.113   1.697
72833W        W39374   0.808  27.484  13.123
72834W        W39375  19.736  18.191   4.594
72835W        W39376  21.769  23.894  12.192
72836W        W39377   1.017  18.588  10.591
72837W        W39378  10.288   8.128   0.010
72838W        W39379  20.648  23.285   1.438
72839W        W39380  35.899  33.067   0.420
72840W        W39381  15.398  18.277  11.929
72841W        W39382   9.271  29.839   0.691
72842W        W39383  10.634   3.024   0.787
72843W        W39384  39.973  27.165   4.631
72844W        W39385  21.412  44.877  12.500
72845W        W39386  42.249  27.672   1.027
72846W        W39387  38.895   7.922  13.588
72847W        W39388  27.129  43.501  12.898
72848W        W39389  44.135  38.119   4.585
72849W        W39390   8.646   3.274  13.427
72850W        W39391  34.405  16.053   1.718
72851W        W39392  28.020  44.313  12.818
72852W        W39393  42.908   5.035   0.984
72853W        W39394  38.730  35.890   4.037
72854W        W39395  32.539  36.516   0.377
72855W        W39396  21.080  13.037   0.852
72856W        W39397   2.579  34.029   4.927
72857W        W39398   9.866   8.783   0.897
72858W        W39399  27.557  13.746   2.364
72859W        W39400  16.523  33.525  10.568
72860W        W39401  10.540  24.239   2.793
72861W        W39402   5.757  32.922  11.255
72862W        W39403  21.701  28.204   0.883
72863W        W39404  24.391  33.993  14.494
72864W        W39405  15.790   1.565  12.107
72865W        W39406  39.435  34.449  12.863
72866W        W39407  41.020  11.262  12.841
72867W        W39408   8.274   9.258   3.907
72868W        W39409   6.652  32.402   5.013
72869W        W39410  38.033  32.297   1.764
72870W        W39411   1.360  42.050  10.671
72871W        W39412   4.276  42.880  13.475
72872W        W39413  27.633   3.280  11.349
72873W        W39414   9.985  12.817  11.508
72874W        W39415  33.427  30.931   1.222
72875W        W39416  13.631  12.115  12.088
72876W        W39417  15.626  10.805  10.927
72877W        W39418  25.656  31.623  12.067
72878W        W39419  38.634  21.621   4.533
72879W        W39420  20.887  36.392  10.923
72880W        W39421   3.453   3.906   4.539
72881W        W39422   4.454  37.047  12.134
72882W        W39423  34.427  37.576   2.237
72883W        W39424  26.033   4.751   3.204
72884W        W39425  10.620  18.166  12.885
72885W        W39426  20.646  29.163   2.734
72886W        W39427   2.276  22.499   2.327
72887W        W39428  35.101  14.278   4.689
72888W        W39429  40.944  42.898  11.435
72889W        W39430  22.067  12.213   4.177
72890W        W39431  26.444   8.327   0.773
72891W        W39432   9.758  35.364  12.018
72892W        W39433  33.686  13.831   1.327
72893W        W39434  32.341  17.275   4.118
72894W        W39435  41.236   4.006  12.824
72895W        W39436  44.334  12.250  10.266
72896W        W39437  31.715  14.501   2.773
72897W        W39438   8.687  23.044  14.925
72898W        W39439  35.598  44.471  12.630
72899W        W39440  30.171  28.531   3.235
72900W        W39441  42.098  26.180  13.082
72901W        W39442  26.968   4.481   0.073
72902W        W39443  36.990  21.574   4.417
72903W        W39444   3.875  14.207  12.552
72904W        W39445  23.867  39.851  10.376
72905W        W39446  11.304  43.212   1.195
72906W        W39447   5.910   5.743  14.323
72907W        W39448  34.379   5.864   2.765
72908W        W39449   7.316  32.081   3.229
72909W        W39450  18.770  31.730   4.314
72910W        W39451  36.980  11.789  12.135
72911W        W39452  17.116  33.021  11.837
72912W        W39453  41.611  26.359  14.352
72913W        W39454  17.299  30.174   4.999
72914W        W39455  14.863  28.119  12.162
72915W        W39456  25.503  42.019  11.588
72916W        W39457  26.478  23.257  14.414
72917W        W39458   1.779  43.138   2.990
72918W        W39459   5.154   8.412  12.936
72919W        W39460  22.868   0.254  13.477
72920W        W39461  44.670   5.500  10.299
72921W        W39462  18.196   1.237   1.306
72922W        W39463   7.291  43.525   0.947
72923W        W39464  28.530   2.418   0.647
72924W        W39465   0.152   0.849  13.840
72925W        W39466  25.762  26.307  13.725
72926W        W39467  31.466   4.792   2.704
72927W        W39468  16.082  22.480   0.337
72928W        W39469  30.379  42.246   2.227
72929W        W39470  22.510  25.086  13.559
72930W        W39471  13.104  22.573  11.940
72931W        W39472  14.744   3.897  11.664
72932W        W39473   3.351  29.494   4.784
72933W        W39474  37.549   3.356   0.291
72934W        W39475  27.711  31.546   0.394
72935W        W39476  40.352  12.888  13.001
72936W        W39477   0.939  34.788  13.427
72937W        W39478  27.878  14.699  12.944
72938W        W39479   1.966   7.383  13.776
72939W        W39480  19.883  25.313  14.248
72940W        W39481  12.366   2.838  14.231
72941W        W39482  37.368   8.929  14.277
72942W        W39483  36.560  30.629  10.760
72943W        W39484  16.707  42.267  12.405
72944W        W39485  24.165   4.957  14.836
72945W        W39486   2.797   7.349  14.569
72946W        W39487   8.267  39.070   3.522
72947W        W39488  19.472  43.117  14.970
72948W        W39489  11.808  15.524  10.247
72949W        W39490  44.266  36.789   0.687
72950W        W39491   6.864  36.377  11.947
72951W        W39492  17.606   1.935  12.606
72952W        W39493  11.211  24.615  11.551
72953W        W39494  41.975  21.136  10.296
72954W        W39495  40.286  24.225  11.387
72955W        W39496  22.698  19.310  11.968
72956W        W39497  10.686   6.703   1.123
72957W        W39498   9.117   0.407   3.331
72958W        W39499   0.351  32.142  11.379
72959W        W39500  32.085  42.277   3.796
72960W        W39501   2.204   0.952   2.790
72961W        W39502  10.775  10.701   3.690
72962W        W39503  31.137   6.083  14.838
72963W        W39504  27.346   5.622  13.133
72964W        W39505  25.107  43.094  12.099
72965W        W39506   2.270  42.287  11.925
72966W        W39507   4.825  25.998  12.085
72967W        W39508  25.654   5.457   4.936
72968W        W39509  20.982   1.052  11.141
72969W        W39510  14.625  36.962  12.448
72970W        W39511  42.848  21.591  13.257
72971W        W39512  39.352  19.035   0.985
72972W        W39513  15.128   8.285  13.788
72973W        W39514  23.712   3.868  12.533
72974W        W39515   4.714  18.713  13.350
72975W        W39516  20.709  32.655  12.586
72976W        W39517  13.895   8.633  14.526
72977W        W39518  43.442   7.285  13.966
72978W        W39519   5.655  20.726  12.532
72979W        W39520  42.322  12.085   1.740
72980W        W39521  29.954  21.088  13.891
72981W        W39522  36.854   5.956   4.223
72982W        W39523  30.313  17.287   2.684
72983W        W39524  35.051   2.281  13.448
72984W        W39525  31.054   5.622  11.546
72985W        W39526  26.460  30.716   1.386
72986W        W39527  24.015  19.963   1.239
72987W        W39528   5.801  18.253   3.604
72988W        W39529  19.288  43.864   3.723
72989W        W39530  21.297  12.329   5.224
72990W        W39531  33.479  21.715   2.289
72991W        W39532  35.023  10.904  11.062
72992W        W39533  35.675  25.182   3.638
72993W        W39534  34.898   4.833  12.570
72994W        W39535  15.104  43.312   0.263
72995W        W39536   0.852  16.272  13.948
72996W        W39537  10.193  34.848  13.413
72997W        W39538   6.677  26.091   1.210
72998W        W39539  36.938  44.445  11.102
72999W        W39540  32.549  16.590   3.817
73000W        W39541  40.899  13.204   3.771
73001W        W39542  25.616  34.347   3.172
73002W        W39543   5.801   3.775  12.523
73003W        W39544  22.567  29.799   4.107
73004W        W39545   0.289  10.440   4.123
73005W        W39546  40.042  11.792  12.361
73006W        W39547  25.216  37.874   3.324
73007W        W39548  43.843  12.585   0.186
73008W        W39549  15.320  24.725  14.378
73009W        W39550  16.201  32.099   0.598
73010W        W39551  21.384  23.713  11.515
73011W        W39552   0.136   0.658   3.102
73012W        W39553   1.995  23.750   0.015
73013W        W39554   8.268   3.577   3.867
73014W        W39555  44.290  15.295  13.992
73015W        W39556  22.776  30.445   2.732
73016W        W39557  40.713  35.501  10.758
73017W        W39558  41.940   6.674  12.909
73018W        W39559  29.348  13.643  13.798
73019W        W39560  44.798   5.610  11.608
73020W        W39561  44.983  17.546   4.085
73021W        W39562  22.513  23.892  12.487
73022W        W39563  42.368  10.897  14.352
73023W        W39564  23.722  12.250   3.310
73024W        W39565   1.039  21.622   2.945
73025W        W39566  25.737  16.423   5.013
73026W        W39567  17.775  14.342  12.284
73027W        W39568  37.230  19.179   4.588
73028W        W39569  35.532  29.119   1.894
73029W        W39570  38.195  24.645  12.537
73030W        W39571  30.445  24.270  14.193
73031W        W39572  21.561  41.757  14.772
73032W        W39573   3.004  23.074  12.405
73033W        W39574   7.704  34.513   9.889
73034W        W39575  14.541  31.647   3.549
73035W        W39576  39.444  44.429  12.502
73036W        W39577  34.741  31.707  12.558
73037W        W39578  35.294  31.310   4.172
73038W        W39579  19.710   4.855   4.180
73039W        W39580  26.301  13.859   1.795
73040W        W39581  20.957  20.362   3.197
73041W        W39582  11.498  41.289   3.196
73042W        W39583  17.173  40.287   4.086
73043W        W39584   0.528  23.981   4.814
73044W        W39585  12.001  31.967  11.184
73045W        W39586  35.451   1.352   3.693
73046W        W39587  42.085  16.314  11.512
73047W        W39588   7.285  25.566  13.026
73048W        W39589  22.789  41.452   4.967
73049W        W39590  37.304  16.248   2.808
73050W        W39591  43.055   9.455   5.066
73051W        W39592  17.339  19.268  12.075
73052W        W39593  26.021  26.496  12.394
73053W        W39594   5.846   9.452  11.819
73054W        W39595   9.083  23.231  12.502
73055W        W39596  31.142  44.905   2.919
73056W        W39597  21.261  42.892   0.533
73057W        W39598  14.761  31.715  12.991
73058W        W39599  21.364  21.665   4.958
73059W        W39600  11.453   4.732  11.724
73060W        W39601   2.452  21.126   0.267
73061W        W39602  37.838   9.596   3.580
73062W        W39603  39.834   0.734   3.677
73063W        W39604   9.978  39.158   2.375
73064W        W39605   2.155   5.358  10.108
73065W        W39606  41.856   1.109  11.181
73066W        W39607  17.588  40.330   0.657
73067W        W39608   3.405  26.925   1.695
73068W        W39609  41.008  44.897  13.395
73069W        W39610  18.332  12.568  14.508
73070W        W39611  19.135  39.077   1.285
73071W        W39612  31.177  42.897   3.172
73072W        W39613  15.454  34.116   1.945
73073W        W39614   3.686   7.314  11.116
73074W        W39615  39.306   8.960  12.388
73075W        W39616  29.156  13.468   4.646
73076W        W39617  21.495   4.818  14.533
73077W        W39618   1.210  20.911  10.141
73078W        W39619  11.263  29.130   4.613
73079W        W39620  40.723  26.045  14.598
73080W        W39621  21.145  19.052   0.006
73081W        W39622  42.331   6.238  13.538
73082W        W39623  40.937  17.234  11.597
73083W        W39624   2.461  36.805   3.683
73084W        W39625  26.006   3.482  14.710
73085W        W39626  41.996   5.314  13.456
73086W        W39627  42.285  16.626  11.180
73087W        W39628  15.215   4.448  13.145
73088W        W39629  29.500   5.448   1.307
73089W        W39630  36.229   5.852   2.311
73090W        W39631  30.379  20.635   3.190
73091W        W39632  26.209   4.282   1.696
73092W        W39633  34.149   9.907   1.208
73093W        W39634  10.799   7.932  14.799
73094W        W39635  27.494  34.055  11.281
73095W        W39636   9.855   1.541  12.647
73096W        W39637   8.468   4.524  10.068
73097W        W39638  22.487  29.384   0.937
73098W        W39639  23.924  15.722  12.963
73099W        W39640  40.632   8.142   3.687
73100W        W39641   4.314   8.109  11.973
73101W        W39642  16.401  11.662   1.908
73102W        W39643   8.391  21.100  12.045
73103W        W39644   7.404  40.532  14.525
73104W        W39645  28.917  28.260  11.124
73105W        W39646  35.761  40.721  11.141
73106W        W39647  44.890  14.146  14.244
73107W        W39648  32.179  16.052   1.735
73108W        W39649   7.779  17.443   2.384
73109W        W39650   9.044  27.576   2.404
73110W        W39651  22.920   9.268  13.590
73111W        W39652  29.942   5.485  13.052
73112W        W39653  44.364  26.690  13.754
73113W        W39654   0.517  34.808   0.783
73114W        W39655  13.833  11.000   1.828
73115W        W39656  38.534  17.508  10.929
73116W        W39657  43.915  43.106   4.595
73117W        W39658  13.262   0.483  12.988
73118W        W39659  44.001   2.550  12.098
73119W        W39660   7.416  26.970   1.694
73120W        W39661   3.283  34.644   3.836
73121W        W39662  39.437  44.539  12.005
73122W        W39663  39.533   0.907  12.235
73123W        W39664   6.194  14.614  13.471
73124W        W39665  37.987  37.899  12.482
73125W        W39666  37.040   9.725  11.516
73126W        W39667  36.146  10.299  10.110
73127W        W39668  35.009   9.805  13.949
73128W        W39669   1.897  23.262   2.096
73129W        W39670  12.901  43.621   1.912
73130W        W39671  17.999  24.996  12.436
73131W        W39672   5.802   3.706   0.852
73132W        W39673  13.183   1.766  12.684
73133W        W39674   9.375  16.249   0.753
73134W        W39675  23.149  20.109  11.455
73135W        W39676  42.093  16.125  14.022
73136W        W39677  40.561  36.389   3.232
73137W        W39678  27.920  20.049   2.710
73138W        W39679  27.602  29.759   4.459
73139W        W39680  24.073   4.700  14.370
73140W        W39681  19.263  37.861   1.823
73141W        W39682   0.698   5.400  12.543
73142W        W39683  32.020  44.781  13.106
73143W        W39684  33.421  16.088   2.780
73144W        W39685  10.133  25.798  14.265
73145W        W39686   8.677  43.315  13.038
73146W        W39687  33.837  41.968   4.242
73147W        W39688  34.209   4.252   0.508
73148W        W39689  15.274  32.911   1.660
73149W        W39690  40.623   0.425  14.044
73150W        W39691  12.679   1.947   4.513
73151W        W39692   8.640   5.323  10.702
73152W        W39693  23.452   2.778  12.937
73153W        W39694  42.055  27.412   2.315
73154W        W39695  24.773   4.090  12.055
73155W        W39696   0.272  21.970   4.019
73156W        W39697  21.153  13.668  13.083
73157W        W39698  24.562  15.095  13.163
73158W        W39699   7.554   3.003  12.651
73159W        W39700  33.109  19.171  12.917
73160W        W39701  32.860   1.941  13.796
73161W        W39702  35.712  24.640  11.459
73162W        W39703   9.915  22.360  12.947
73163W        W39704  15.179  29.948  11.951
73164W        W39705  14.155   3.870  14.237
73165W        W39706   3.369  22.738   3.879
73166W        W39707  27.073   9.592   3.628
73167W        W39708  16.838  26.421  14.043
73168W        W39709  13.303  16.557  14.060
73169W        W39710  17.009  23.885  11.442
73170W        W39711  23.762  41.277  13.886
73171W        W39712  29.641   3.507  12.469
73172W        W39713  14.067  36.397  14.031
73173W        W39714  11.155   9.199  10.712
73174W        W39715  35.025  29.687   3.169
73175W        W39716  12.674  11.336  14.243
73176W        W39717  11.391  31.737  10.525
73177W        W39718  34.782  31.322   4.238
73178W        W39719  13.983   5.445   3.399
73179W        W39720  22.246  38.393   2.919
73180W        W39721  28.612  21.496  13.838
73181W        W39722  19.082  24.307  12.953
73182W        W39723  22.807  40.857  11.644
73183W        W39724  36.904  37.918   2.238
73184W        W39725  22.369  34.134  11.390
73185W        W39726  25.229   0.539   3.277
73186W        W39727  29.410  35.828  10.452
73187W        W39728  10.727  38.082   0.676
73188W        W39729   5.385  39.900  13.931
73189W        W39730   5.294  19.484  12.115
73190W        W39731  33.789  22.169  14.508
73191W        W39732  38.527   4.426  13.035
73192W        W39733  34.445  23.259   3.780
73193W        W39734  26.443   6.288  12.104
73194W        W39735  14.171  23.269  11.586
73195W        W39736  22.441  14.310  12.532
73196W        W39737   0.757   8.148   0.855
73197W        W39738  38.359  15.316  12.452
73198W        W39739  22.150  37.752  12.028
73199W        W39740   3.840  36.939  10.620
73200W        W39741   2.717   9.658   0.678
73201W        W39742  42.601  30.819  11.831
73202W        W39743   8.823   8.750   3.300
73203W        W39744   2.295  22.969  11.965
73204W        W39745  37.029  28.579  11.195
73205W        W39746  21.079  40.286  11.221
73206W        W39747  22.727   4.539   3.640
73207W        W39748  26.512   9.728  14.693
73208W        W39749  37.892  17.309  14.740
73209W        W39750  38.049  35.608  13.946
73210W        W39751  22.987   3.896  13.139
73211W        W39752  35.899  13.206   1.656
73212W        W39753  36.484   4.506   2.713
73213W        W39754  43.739  18.681  12.597
73214W        W39755  12.107  29.114  14.033
73215W        W39756  30.739   6.222   3.131
73216W        W39757   5.502  40.485  13.482
73217W        W39758  32.086  44.031   3.871
73218W        W39759   2.180  38.846  13.344
73219W        W39760   5.040  24.621  13.285
73220W        W39761  20.969  20.540  11.900
73221W        W39762  22.967  25.659   1.848
73222W        W39763  16.146  24.577   4.832
73223W        W39764  24.066  32.121   1.391
73224W        W39765  17.124   3.859   4.782
73225W        W39766  13.872  29.512   0.777
73226W        W39767   8.235   7.438  14.242
73227W        W39768  11.648  40.491   0.814
73228W        W39769   2.498  24.744  14.109
73229W        W39770  26.561  38.457  12.588
73230W        W39771  19.198  34.957   0.751
73231W        W39772   3.992  19.594   3.357
73232W        W39773  16.657  41.734  13.327
73233W        W39774  14.319   0.973  10.659
73234W        W39775   0.769  11.206  11.682
73235W        W39776   4.230  44.395   5.303
73236W        W39777  38.655  28.082  13.470
73237W        W39778  18.078  44.432  14.945
73238W        W39779  23.340  24.060  11.721
73239W        W39780  42.491  35.771  13.341
73240W        W39781  31.925  30.547   0.766
73241W        W39782  37.341   0.237   4.444
73242W        W39783  36.519   0.602   3.183
73243W        W39784   2.300  33.217   5.500
73244W        W39785   0.048  14.750   2.375
73245W        W39786  17.605  37.621  11.323
73246W        W39787   5.250  14.377  14.062
73247W        W39788  12.795  22.663   3.088
73248W        W39789  20.379   7.420  11.198
73249W        W39790   3.199   1.147   0.491
73250W        W39791  44.791  28.410   1.941
73251W        W39792  21.653  35.913  11.811
73252W        W39793  39.398  28.705  10.583
73253W        W39794  23.991   9.357   3.230
73254W        W39795   3.975  24.040  10.907
73255W        W39796  44.041  22.166  14.533
73256W        W39797  32.373  43.373   2.256
73257W        W39798  29.916  38.955  11.664
73258W        W39799  18.943  43.255  11.183
73259W        W39800   9.349  41.810   4.072
73260W        W39801  26.118  15.098   2.698
73261W        W39802  11.595   7.850  12.881
73262W        W39803  16.106   4.280   2.105
73263W        W39804  37.305  28.080   3.716
73264W        W39805  12.495  26.232  14.901
73265W        W39806   5.484  22.221  10.247
73266W        W39807   7.177   7.472  11.492
73267W        W39808   0.340  43.002   1.635
73268W        W39809   0.515  15.728   5.261
73269W        W39810  21.544  10.037   1.909
73270W        W39811  20.194  17.713   3.233
73271W        W39812  30.053   2.296  12.428
73272W        W39813  33.038  14.033  11.144
73273W        W39814   0.616  36.492  10.780
73274W        W39815  38.514  18.284   4.532
73275W        W39816  30.921  23.006   1.857
73276W        W39817  43.481  35.414  10.744
73277W        W39818  38.912  18.158  12.130
73278W        W39819   3.363   7.802   4.083
73279W        W39820  15.148  42.090   3.756
73280W        W39821  26.001  32.954  13.397
73281W        W39822   5.016  26.087   2.589
73282W        W39823  44.823   5.898   1.764
73283W        W39824  31.024   8.433  13.017
73284W        W39825  18.620   5.770   3.819
73285W        W39826  20.530  21.639   0.034
73286W        W39827   8.726   8.876   4.659
73287W        W39828  42.278  40.866   4.360
73288W        W39829   1.872  14.499   4.753
73289W        W39830  10.064   6.254  13.422
73290W        W39831   9.442   3.583   4.073
73291W        W39832  10.822  15.634  12.354
73292W        W39833   5.757  30.006  14.777
73293W        W39834  28.144   6.445  11.125
73294W        W39835  34.349  40.271   0.337
73295W        W39836  29.963  38.350   0.264
73296W        W39837  21.791  11.160   4.047
73297W        W39838  30.970  15.755   2.267
73298W        W39839  44.602  19.999   1.854
73299W        W39840  34.998  34.931  11.648
73300W        W39841   9.614   8.319   0.804
73301W        W39842  41.848  21.376  11.727
73302W        W39843  29.843  30.605   4.033
73303W        W39844  35.766  20.191  12.308
73304W        W39845   5.517   6.395   1.186
73305W        W39846  38.214  37.440  12.588
73306W        W39847   9.564  27.211  10.586
73307W        W39848  15.096  27.901   0.916
73308W        W39849  36.797  38.354   4.227
73309W        W39850   4.315   7.288   1.222
73310W        W39851  15.835  26.308   1.000
73311W        W39852  26.680  35.613  14.818
73312W        W39853  27.665  18.704   4.001
73313W        W39854  11.140  43.411  11.438
73314W        W39855  44.018  21.003   4.509
73315W        W39856  39.558  12.665  10.722
73316W        W39857  31.446  26.002   1.357
73317W        W39858   4.260  16.825   4.196
73318W        W39859  30.884  38.572   2.798
73319W        W39860  25.501  40.066  14.052
73320W        W39861  43.687  33.686   1.551
73321W        W39862   5.794  37.830  12.183
73322W        W39863  35.877   5.460   0.847
73323W        W39864  13.213  11.370   3.209
73324W        W39865  17.984  39.370  12.967
73325W        W39866  43.352   5.270   4.555
73326W        W39867  33.834   8.689  11.931
73327W        W39868   5.433  19.505  13.983
73328W        W39869   4.618  38.029  13.943
73329W        W39870   3.434   0.538  14.384
73330W        W39871   9.248  34.812  10.622
73331W        W39872  24.023   5.200   2.996
73332W        W39873  12.131  38.501   2.389
73333W        W39874  33.267   6.963   3.043
73334W        W39875  36.499  28.601  12.962
73335W        W39876  16.038  14.517   0.776
73336W        W39877  41.727  23.301  14.467
73337W        W39878  24.358  27.488  11.152
73338W        W39879  36.037   3.287  14.304
73339W        W39880  37.045  40.353  10.698
73340W        W39881  29.445  43.201  14.861
73341W        W39882  39.634   7.857  10.759
73342W        W39883   8.902  17.121  14.951
73343W        W39884  40.377  36.158  10.845
73344W        W39885   3.723   4.696   0.766
73345W        W39886  18.278   0.745   0.363
73346W        W39887   1.909  35.911   2.425
73347W        W39888  36.074  38.782   2.738
73348W        W39889  39.366  18.113  13.527
73349W        W39890  25.292   1.987  13.021
73350W        W39891  19.051  25.154  12.017
73351W        W39892   6.533  43.053  12.129
73352W        W39893  12.112  24.894  11.038
73353W        W39894  11.913  37.889   3.704
73354W        W39895   0.039  38.827   2.625
73355W        W39896  14.817  23.222  13.212
73356W        W39897  23.208  32.028   2.495
73357W        W39898  32.401  42.396  11.336
73358W        W39899   0.120   1.889  12.731
73359W        W39900  11.684  14.716  14.022
73360W        W39901   3.742  21.930  10.796
73361W        W39902  16.128  39.880   2.092
73362W        W39903  26.131  18.983   2.980
73363W        W39904  17.136   0.748   2.738
73364W        W39905  40.344  44.005   4.574
73365W        W39906  43.671   8.921  12.097
73366W        W39907  29.079   7.342  11.845
73367W        W39908  17.431  40.634  13.160
73368W        W39909   9.205  20.077  10.610
73369W        W39910  34.774   7.153   4.215
73370W        W39911  27.160  10.230   2.387
73371W        W39912  17.351  16.741  13.029
73372W        W39913   5.371  42.264  11.876
73373W        W39914  38.507  35.594  11.525
73374W        W39915  20.587  20.289   2.832
73375W        W39916  16.251   0.045   0.911
73376W        W39917  35.715  25.921  13.934
73377W        W39918  18.026  13.143  10.660
73378W        W39919  18.493   2.107  14.429
73379W        W39920   9.142  33.333   0.577
73380W        W39921  20.895  40.091   2.284
73381W        W39922   5.246  37.021  11.077
73382W        W39923  30.406  15.612   1.553
73383W        W39924  33.875   3.626  14.846
73384W        W39925   5.793  15.937   1.248
73385W        W39926   4.465   6.178  11.630
73386W        W39927  43.779   3.943  12.878
73387W        W39928   8.861   2.327   0.194
73388W        W39929   1.823  28.175  14.800
73389W        W39930  22.989  26.030   4.381
73390W        W39931  34.608   4.244   3.074
73391W        W39932  41.487  37.018   4.089
73392W        W39933  21.904   7.041   3.177
73393W        W39934   3.376  22.498   4.741
73394W        W39935   1.831  19.259  12.138
73395W        W39936  39.965  33.885  11.474
73396W        W39937  22.205  21.521  10.994
73397W        W39938  27.904  11.703  10.911
73398W        W39939   9.415  30.464   2.624
73399W        W39940  37.464   0.248  12.376
73400W        W39941  25.484  25.091   5.016
73401W        W39942   7.797   2.381  12.403
73402W        W39943   5.227  32.511   2.346
73403W        W39944  28.716  41.484   4.501
73404W        W39945  41.358   9.529   4.942
73405W        W39946  35.871  37.823   4.262
73406W        W39947   0.300   8.639   0.307
73407W        W39948   3.932  24.050   4.178
73408W        W39949  41.869   4.695  14.272
73409W        W39950  40.508  28.940   2.658
73410W        W39951   8.812  13.158  12.612
73411W        W39952  20.287  27.667  12.636
73412W        W39953  29.019  42.285   3.469
73413W        W39954   0.782  35.278  13.453
73414W        W39955  26.407  18.231   4.530
73415W        W39956  25.926   7.734   1.306
73416W        W39957  14.195  23.696  14.257
73417W        W39958  17.571  18.839  11.333
73418W        W39959  16.752   9.550   0.264
73419W        W39960  21.769   6.929  13.890
73420W        W39961  31.481   0.571   2.372
73421W        W39962   4.363   2.766  12.539
73422W        W39963  11.718  43.064  11.123
73423W        W39964  18.266  41.429  11.246
73424W        W39965  16.846  42.724   3.275
73425W        W39966  39.189  37.452   3.710
73426W        W39967  15.550  10.266   0.182
73427W        W39968  31.945   7.164  11.400
73428W        W39969  20.763   5.124   5.464
73429W        W39970  26.770  33.903  12.333
73430W        W39971   2.259  42.334   0.116
73431W        W39972  23.700  22.035  12.714
73432W        W39973  14.194  33.479  13.274
73433W        W39974  30.062  27.600   1.899
73434W        W39975  15.640  40.161  12.142
73435W        W39976  36.561  29.169   4.263
73436W        W39977  18.914  16.031   4.188
73437W        W39978   1.795  10.943  12.917
73438W        W39979  28.894  16.534  13.505
73439W        W39980  11.138  29.716   1.868
73440W        W39981  26.117  44.789  14.310
73441W        W39982  11.734  29.117   2.143
73442W        W39983  26.472  12.853  14.989
73443W        W39984  34.077  14.929  12.047
73444W        W39985   7.684  41.317   1.799
73445W        W39986   9.746  18.026   1.499
73446W        W39987  23.083  33.362  12.249
73447W        W39988   6.173  18.628   4.506
73448W        W39989  30.414  16.675   0.839
73449W        W39990  40.845   5.717  12.986
73450W        W39991  28.186   5.241   4.612
73451W        W39992   1.124   1.841   4.561
73452W        W39993  42.909  24.595   1.276
73453W        W39994   3.784  30.016   4.858
73454W        W39995  41.894   9.681   2.686
73455W        W39996  22.045  15.099   4.622
73456W        W39997  23.748   8.311   2.459
73457W        W39998  15.894  41.281  12.864
73458W        W39999  18.848  35.866   0.376
73459W        W40000   8.377  21.161  14.464
73460W        W40001  35.025  18.761  14.497
73461W        W40002  18.255  15.716  10.261
73462W        W40003  16.768  11.796  13.535
73463W        W40004  39.944   3.343  11.214
73464W        W40005  17.074  43.479  14.813
73465W        W40006  22.185  41.242  11.416
73466W        W40007  29.590   4.870  14.591
73467W        W40008   6.163  12.298   2.543
73468W        W40009  33.219  38.597   3.156
73469W        W40010  42.930  38.166  14.445
73470W        W40011  20.912  28.684  14.531
73471W        W40012  15.954  34.664   2.212
73472W        W40013  22.537  34.612  14.319
73473W        W40014  36.907  21.984  11.699
73474W        W40015   7.970  37.549  12.434
73475W        W40016  14.255  31.194  13.553
73476W        W40017  21.500  24.812   0.588
73477W        W40018   2.016  15.235   0.556
73478W        W40019  40.007  21.152   1.926
73479W        W40020   0.975   1.709   3.643
73480W        W40021  14.034  12.895  14.994
73481W        W40022  16.993  19.157  14.330
73482W        W40023  38.965  30.595  11.170
73483W        W40024  19.131  26.139   0.969
73484W        W40025  38.719   2.597   3.126
73485W        W40026  42.346  16.849   3.222
73486W        W40027  11.869  43.940   4.571
73487W        W40028  35.904  21.100  11.285
73488W        W40029  37.362  35.956  13.180
73489W        W40030  21.282  27.248  11.186
73490W        W40031  11.321  15.659   0.721
73491W        W40032  28.093  17.512   3.490
73492W        W40033  28.053  36.938   0.425
73493W        W40034  30.977  44.270  11.073
73494W        W40035  35.609   0.952   2.322
73495W        W40036  35.932   2.053   2.311
73496W        W40037  44.908  27.561   4.716
73497W        W40038  37.557   7.669   1.686
73498W        W40039  39.024  38.292   4.215
73499W        W40040  20.634  15.611   0.338
73500W        W40041  14.707   9.360  12.527
73501W        W40042  25.113  25.444  14.917
73502W        W40043   2.231  38.483  12.992
73503W        W40044  22.747  39.766   0.233
73504W        W40045  22.770  33.924  10.567
73505W        W40046  28.860  44.876   1.408
73506W        W40047  13.087  24.795  14.044
73507W        W40048   7.884  30.835  11.555
73508W        W40049  24.037  34.268  12.144
73509W        W40050  33.490  36.691   1.206
73510W        W40051   9.819   2.905   1.394
73511W        W40052  31.163  33.027   1.809
73512W        W40053  11.423  34.431   1.236
73513W        W40054  17.566  20.666  12.583
73514W        W40055  16.638   2.699   2.750
73515W        W40056  34.844   1.506  11.536
73516W        W40057  32.441  27.666   3.434
73517W        W40058  40.165   3.410   2.208
73518W        W40059  40.028  20.659   0.422
73519W        W40060  19.062   1.116   3.253
73520W        W40061  18.192  31.633  12.611
73521W        W40062   0.783  28.615  10.528
73522W        W40063  19.035  39.195  13.056
73523W        W40064  35.872  30.164  11.618
73524W        W40065  29.052  15.922  13.500
73525W        W40066   3.072  36.513   4.338
73526W        W40067   9.889  26.548   2.445
73527W        W40068  37.589  29.365  12.446
73528W        W40069   8.321  30.589   2.956
73529W        W40070   0.767  42.562   2.331
73530W        W40071  22.681  32.929  14.831
73531W        W40072  16.177  19.564  14.323
73532W        W40073  24.931  30.589   3.772
73533W        W40074  23.211  28.578   2.990
73534W        W40075  16.266  33.728   2.446
73535W        W40076  19.337  15.267  11.228
73536W        W40077   0.966  38.939   1.615
73537W        W40078   5.000   9.284   4.074
73538W        W40079  22.751  34.619  12.337
73539W        W40080  36.550   3.618   4.111
73540W        W40081   3.376  16.581   2.142
73541W        W40082  28.935  38.613   4.151
73542W        W40083  27.683   9.700   3.008
73543W        W40084   4.223  22.041   1.217
73544W        W40085  16.764  18.967   4.099
73545W        W40086  27.683  24.262  14.875
73546W        W40087  12.593  42.362  14.892
73547W        W40088  33.582  19.681  12.471
73548W        W40089  41.326  44.922   2.629
73549W        W40090  44.124  16.043   0.042
73550W        W40091  32.686  25.969   2.709
73551W        W40092  15.375  19.362   3.248
73552W        W40093  25.841  11.481  13.776
73553W        W40094   7.351  22.440  10.491
73554W        W40095  22.168  22.926   3.252
73555W        W40096  33.519   9.616   0.470
73556W        W40097  44.906  37.012  11.157
73557W        W40098   3.989  22.170  10.418
73558W        W40099  17.236  32.921   3.612
73559W        W40100  36.942   8.649  11.514
73560W        W40101  12.996  39.046  14.543
73561W        W40102   4.006  23.781  12.524
73562W        W40103  34.440  12.681   0.430
73563W        W40104   4.877  26.743  13.064
73564W        W40105   5.959  38.654  14.568
73565W        W40106  23.237   0.175  14.265
73566W        W40107  35.614  22.580  10.592
73567W        W40108  43.424  28.203   4.468
73568W        W40109  44.054   9.709   3.637
73569W        W40110  11.550   9.302   1.127
73570W        W40111  15.172  20.309   4.938
73571W        W40112  42.101  32.970   0.534
73572W        W40113  41.867  11.585  13.922
73573W        W40114  40.803  19.817   3.349
73574W        W40115   9.984  13.010   2.876
73575W        W40116  39.469  19.214  11.167
73576W        W40117  37.424  20.964   3.513
73577W        W40118  37.278  33.634  10.843
73578W        W40119  35.473  11.685  12.777
73579W        W40120  24.622  17.129   4.255
73580W        W40121  28.896  16.698   0.200
73581W        W40122   3.186   6.360   0.844
73582W        W40123  20.153  19.476  14.514
73583W        W40124  28.640  19.212   1.874
73584W        W40125   4.250  27.922   4.076
73585W        W40126  16.811   6.941  13.929
73586W        W40127  44.754   8.730  14.500
73587W        W40128  15.671  44.885  13.322
73588W        W40129  33.933  34.548   3.262
73589W        W40130  30.534  38.085   4.900
73590W        W40131  37.334  43.275   1.715
73591W        W40132  13.598  38.556   0.725
73592W        W40133   0.799   5.496  11.624
73593W        W40134  17.206  44.113  11.752
73594W        W40135  20.968  41.014   3.137
73595W        W40136  33.528  21.946   0.948
73596W        W40137  44.326   2.052   3.082
73597W        W40138  39.902  24.441  14.136
73598W        W40139  29.619  35.361   2.278
73599W        W40140  29.585  19.206   3.321
73600W        W40141   3.633   9.587  10.982
73601W        W40142  30.838  22.186   3.246
73602W        W40143  43.038  40.960  13.510
73603W        W40144   6.427   8.362   2.180
73604W        W40145  23.304  32.198   3.642
73605W        W40146  18.940  35.223  12.069
73606W        W40147  32.603  14.679   2.257
73607W        W40148  26.564  17.310  10.584
73608W        W40149  14.670  30.379  12.502
73609W        W40150  14.636  12.258   4.582
73610W        W40151  21.528  14.280   0.899
73611W        W40152   1.244  32.400   2.678
73612W        W40153  25.010  34.087  13.981
73613W        W40154  24.706  17.891  12.612
73614W        W40155  41.849  38.315   3.291
73615W        W40156   7.806   1.419  12.985
73616W        W40157  35.448  26.925   4.187
73617W        W40158   9.357  29.367   4.033
73618W        W40159  25.535   3.297   4.973
73619W        W40160  28.899  20.835  14.429
73620W        W40161  38.500  31.197  10.722
73621W        W40162  36.510   5.170  11.572
73622W        W40163  29.004  15.792  11.021
73623W        W40164  31.350  41.444  11.440
73624W        W40165  21.235  12.142  13.844
73625W        W40166  31.046  11.790   3.679
73626W        W40167  22.347   8.212  12.507
73627W        W40168  39.497  35.937  14.477
73628W        W40169  36.065  27.360   3.793
73629W        W40170  27.035  44.030   1.519
73630W        W40171  40.457  30.367  10.744
73631W        W40172  24.018  41.977   2.108
73632W        W40173   0.142  20.283   4.169
73633W        W40174  16.521  36.532   2.420
73634W        W40175  40.265  20.019  10.802
73635W        W40176  34.055  19.175  14.047
73636W        W40177   7.689  30.208  12.795
73637W        W40178  37.319   9.130   2.247
73638W        W40179  42.397  24.960  10.607
73639W        W40180  20.749   4.535  11.128
73640W        W40181  20.111   7.871  10.753
73641W        W40182  13.536  16.791   0.379
73642W        W40183   9.584  24.013   0.049
73643W        W40184  33.564   0.916   3.596
73644W        W40185  40.317  29.171  13.538
73645W        W40186  12.057   0.252   3.280
73646W        W40187  31.110  10.414   0.908
73647W        W40188  19.153  29.789  10.592
73648W        W40189  41.350  26.926  12.916
73649W        W40190  36.636  21.208  12.080
73650W        W40191  11.485  17.808  12.528
73651W        W40192  18.042  40.373   0.043
73652W        W40193  40.609  25.853  13.387
73653W        W40194  36.621  10.033   4.010
73654W        W40195  43.001   1.233   0.314
73655W        W40196  34.887  26.437  13.515
73656W        W40197  43.475   3.751   4.710
73657W        W40198  30.129   0.436  10.753
73658W        W40199  21.261   4.427   0.334
73659W        W40200  34.126   8.355  10.686
73660W        W40201  28.930  40.086  12.221
73661W        W40202   8.583  14.286  13.553
73662W        W40203  18.728  15.781   1.350
73663W        W40204   3.091  44.943  10.203
73664W        W40205  23.935   0.521  12.021
73665W        W40206  41.874  27.513   4.556
73666W        W40207   6.067  30.480   4.713
73667W        W40208  18.507  31.835  14.871
73668W        W40209  26.616   1.484   3.609
73669W        W40210  40.346  35.641  13.850
73670W        W40211  37.481   2.178   1.785
73671W        W40212  22.352   2.596  12.368
73672W        W40213  31.109  41.361   0.690
73673W        W40214  36.848  15.803  14.205
73674W        W40215  28.479  36.091  10.785
73675W        W40216  26.799  21.204   1.418
73676W        W40217   4.030  40.348   2.819
73677W        W40218  31.476  16.718  10.962
73678W        W40219  11.343  31.004   2.409
73679W        W40220   3.403  14.158   1.152
73680W        W40221  30.296  36.322  12.515
73681W        W40222  41.552  18.062  13.278
73682W        W40223  23.277  19.390   2.442
73683W        W40224  27.539  39.455  11.852
73684W        W40225  13.692  40.808   1.698
73685W        W40226  27.133  33.068   3.255
73686W        W40227  21.633   8.197  13.370
73687W        W40228  26.726  41.941  12.441
73688W        W40229  18.242   3.411  14.416
73689W        W40230  33.909  44.296   2.168
73690W        W40231  32.381  41.415   0.508
73691W        W40232  37.792  32.871  11.093
73692W        W40233  20.141  44.936  14.923
73693W        W40234  29.439  21.492  10.838
73694W        W40235  14.803  25.286   4.798
73695W        W40236  33.127  14.042   4.140
73696W        W40237  21.157  39.052   2.167
73697W        W40238   1.238  38.207   4.913
73698W        W40239  44.481  30.138  14.889
73699W        W40240  40.476   6.018   1.623
73700W        W40241   2.001   8.283   1.169
73701W        W40242   9.318  42.330   2.693
73702W        W40243  20.261  25.301  10.250
73703W        W40244  41.238  19.637  10.733
73704W        W40245  10.421  13.157   4.683
73705W        W40246  38.902  42.059   1.642
73706W        W40247  34.725  40.040   2.612
73707W        W40248   4.831  20.583   2.588
73708W        W40249  30.056  20.009  12.587
73709W        W40250   7.594   5.964   1.521
73710W        W40251  36.098  16.261  14.448
73711W        W40252  44.202   5.895  10.044
73712W        W40253  17.475  28.146   0.383
73713W        W40254  25.906  26.113   4.631
73714W        W40255  17.084  12.311   4.111
73715W        W40256   2.876  12.765  10.779
73716W        W40257   0.937  20.087  14.875
73717W        W40258  33.003  32.012  13.323
73718W        W40259   4.388  35.422   0.241
73719W        W40260  14.260   6.917  14.026
73720W        W40261  31.202  32.622  12.003
73721W        W40262  24.182   2.304  11.466
73722W        W40263   6.911   0.239  13.939
73723W        W40264  19.607  38.132   0.425
73724W        W40265  25.872  22.592   2.320
73725W        W40266   1.857  12.390   1.661
73726W        W40267  29.134  25.195   4.613
73727W        W40268  21.772   8.770  10.624
73728W        W40269  42.365  37.969   4.432
73729W        W40270  33.643  15.228   4.138
73730W        W40271  30.041  29.139   3.647
73731W        W40272  35.410   7.136   0.710
73732W        W40273   9.535  15.081  14.936
73733W        W40274   6.091  36.420  14.666
73734W        W40275  43.764  21.477   4.348
73735W        W40276  32.411  19.478   2.204
73736W        W40277  31.100  30.482  13.209
73737W        W40278  17.829  20.343   4.694
73738W        W40279  41.249  31.079  11.087
73739W        W40280  38.793  34.789   0.143
73740W        W40281  18.214  12.052   9.801
73741W        W40282  29.655  17.961  11.641
73742W        W40283  26.028  34.770  14.586
73743W        W40284  23.302  30.155   3.715
73744W        W40285  41.065  31.475   1.897
73745W        W40286  11.285  32.611  11.475
73746W        W40287  15.606  25.144  12.379
73747W        W40288  20.257  27.055  13.796
73748W        W40289  18.105  13.129   4.077
73749W        W40290  38.959  10.657  12.091
73750W        W40291   5.430   6.479   1.707
73751W        W40292   7.128   4.487   4.295
73752W        W40293   3.504  22.540  14.555
73753W        W40294  24.199  18.000  10.346
73754W        W40295  42.252  30.033   3.583
73755W        W40296  43.886  28.536   1.917
73756W        W40297  13.316  14.361   1.841
73757W        W40298  28.519  20.536   2.329
73758W        W40299  22.971  24.415   1.470
73759W        W40300  34.751  25.570  12.152
73760W        W40301   5.241   2.452   2.724
73761W        W40302  19.805  29.617  11.065
73762W        W40303   3.224  34.807  13.994
73763W        W40304  32.160   4.022  13.559
73764W        W40305   0.277   9.338   2.600
73765W        W40306  30.615  11.119   0.263
73766W        W40307  40.977  34.523  13.624
73767W        W40308  23.469  17.111   2.742
73768W        W40309  22.520   3.371   2.609
73769W        W40310  33.083  11.461  14.041
73770W        W40311  13.093   7.402   1.332
73771W        W40312  12.875  37.829  12.626
73772W        W40313   9.386  32.643   3.781
73773W        W40314   5.288  39.580  14.402
73774W        W40315   4.195  39.595   2.344
73775W        W40316  11.784   0.022   1.745
73776W        W40317  17.010  14.289   5.209
73777W        W40318  31.484   9.337   4.530
73778W        W40319  37.623  43.484  10.776
73779W        W40320  42.558  37.089   2.486
73780W        W40321  10.684   4.410   3.209
73781W        W40322  23.578   1.968  14.578
73782W        W40323  19.148  44.465  13.564
73783W        W40324  25.286  40.959  11.670
73784W        W40325  12.521  31.199  12.993
73785W        W40326  12.522  40.343   3.264
73786W        W40327   7.879  40.812  13.411
73787W        W40328  41.227  43.018   4.164
73788W        W40329  19.601  13.196  10.118
73789W        W40330  20.749  38.664   4.971
73790W        W40331  35.830  14.647   3.591
73791W        W40332  36.483  36.143  13.058
73792W        W40333   5.622  13.819   4.660
73793W        W40334   2.747  28.801   4.908
73794W        W40335  36.735  17.505   2.792
73795W        W40336  30.034  25.598  14.076
73796W        W40337  30.228  28.421   0.057
73797W        W40338  25.531  38.440  12.337
73798W        W40339  28.953   7.267  14.253
73799W        W40340  33.598  28.897  12.116
73800W        W40341   9.165   3.279   1.212
73801W        W40342  43.744  41.851  11.414
73802W        W40343  23.149  35.047   1.383
73803W        W40344  24.254   9.576   0.213
73804W        W40345  28.588   3.902  14.559
73805W        W40346  32.402   1.264   0.014
73806W        W40347  19.235   8.648  14.458
73807W        W40348  31.164  31.281  14.451
73808W        W40349  36.344  43.348  11.510
73809W        W40350  43.108  31.765   4.316
73810W        W40351  15.530   9.265  14.298
73811W        W40352  23.699  39.406  10.545
73812W        W40353  39.469   2.971  14.357
73813W        W40354  17.998  28.098   0.322
73814W        W40355  22.108  36.438   3.725
73815W        W40356  39.294  36.272  13.873
73816W        W40357  42.585  14.679  14.606
73817W        W40358  39.612  24.890  13.427
73818W        W40359  39.828  37.314   2.990
73819W        W40360   5.747  11.952  13.500
73820W        W40361  22.660   5.848  14.949
73821W        W40362  32.495  38.081   0.336
73822W        W40363   9.925  26.270  11.606
73823W        W40364  38.305  11.776   3.268
73824W        W40365  13.862  36.091  11.198
73825W        W40366  16.499  18.204   4.565
73826W        W40367  11.850  38.056   4.217
73827W        W40368   0.172   9.439   2.109
73828W        W40369  25.918  43.658  12.048
73829W        W40370  41.026  20.772  10.654
73830W        W40371  38.443   1.554   2.904
73831W        W40372  27.682  29.978   3.187
73832W        W40373   7.065  31.162  12.489
73833W        W40374   9.440  32.882   3.322
73834W        W40375  13.768  44.107  11.662
73835W        W40376   2.075  41.391  14.952
73836W        W40377  36.005  15.257  14.357
73837W        W40378  28.693   6.817   2.092
73838W        W40379  43.933  42.181   3.640
73839W        W40380   8.765   4.677  14.880
73840W        W40381  37.031   6.339   2.216
73841W        W40382  33.382  20.767   5.077
73842W        W40383  41.059  28.245  11.061
73843W        W40384  18.147  28.697  13.995
73844W        W40385   9.920  27.872  14.040
73845W        W40386  32.516  15.705   2.951
73846W        W40387   3.920   8.440   2.691
73847W        W40388   1.905   9.037   3.489
73848W        W40389  14.900  28.031  12.728
73849W        W40390  41.870  33.425  11.601
73850W        W40391   6.788  38.562   2.388
73851W        W40392  11.711  29.270   1.322
73852W        W40393  14.962  22.098   3.293
73853W        W40394  14.328  15.553   2.732
73854W        W40395  39.695  19.842   0.754
73855W        W40396  38.964   5.936   1.787
73856W        W40397  29.061  25.764   0.892
73857W        W40398  20.072  21.181  13.879
73858W        W40399  15.881  23.422  12.463
73859W        W40400  22.177  17.277   3.265
73860W        W40401  16.312  41.539  10.693
73861W        W40402  27.283   4.543  11.083
73862W        W40403   2.718   4.011   3.663
73863W        W40404  13.584  36.461   3.242
73864W        W40405  19.525  17.766  11.891
73865W        W40406  11.070  37.547   4.088
73866W        W40407  21.669  26.009  11.320
73867W        W40408  28.686  43.804  12.528
73868W        W40409   0.855  18.293  13.059
73869W        W40410  41.249   2.276  10.718
73870W        W40411  23.263  37.479   2.069
73871W        W40412  15.591  26.500  14.209
73872W        W40413  28.097   9.936   4.838
73873W        W40414  35.396   6.408  14.282
73874W        W40415   6.773  11.654   0.801
73875W        W40416   4.754   9.042  11.272
73876W        W40417  17.156  37.632   0.412
73877W        W40418  10.093  36.937  10.570
73878W        W40419  43.939  42.949  11.925
73879W        W40420   1.817   3.735  14.526
73880W        W40421  30.489  13.944   1.265
73881W        W40422   0.611  22.553  11.044
73882W        W40423  11.221  21.986   1.754
73883W        W40424  19.622  28.807  11.955
73884W        W40425  19.987  35.869   0.916
73885W        W40426  30.629  31.006   4.519
73886W        W40427  23.734  30.011   0.030
73887W        W40428  36.390  33.982  13.392
73888W        W40429   8.261  24.551  10.477
73889W        W40430  12.783  44.316  12.525
73890W        W40431   5.419  38.395  11.064
73891W        W40432  24.092   1.910   3.238
73892W        W40433  43.338  17.192   4.019
73893W        W40434  21.044   5.272  14.711
73894W        W40435  34.825   4.516  10.160
73895W        W40436  39.127   2.790  14.868
73896W        W40437  33.508  18.271   3.979
73897W        W40438  35.284  13.572   0.771
73898W        W40439   6.672  22.242  11.602
73899W        W40440   5.310  31.966   2.620
73900W        W40441  39.370  26.166   0.924
73901W        W40442  30.332   9.221  14.913
73902W        W40443  12.710  29.482  10.681
73903W        W40444  12.375  26.189  11.383
73904W        W40445  11.339  13.085   2.262
73905W        W40446  39.898   6.626   0.152
73906W        W40447  43.085  13.153  14.763
73907W        W40448   6.006  14.561   0.973
73908W        W40449  44.870  27.137   1.103
73909W        W40450   0.963  29.716  13.748
73910W        W40451  24.960  30.541  14.739
73911W        W40452  23.987  16.373  11.158
73912W        W40453  41.805   5.612  10.535
73913W        W40454  13.396  35.402  12.828
73914W        W40455   7.211  12.835   0.344
73915W        W40456  19.204  33.908   1.746
73916W        W40457  25.554  16.578   0.829
73917W        W40458  17.770  41.766  10.656
73918W        W40459  14.213  16.206  11.219
73919W        W40460  44.330  43.359   0.302
73920W        W40461  35.104  43.672   0.413
73921W        W40462   2.591  42.056  13.268
73922W        W40463  29.597  17.162   0.205
73923W        W40464  39.879  33.561   3.171
73924W        W40465   2.939  22.255   3.175
73925W        W40466   9.858  26.395  12.629
73926W        W40467  21.683  14.135   3.643
73927W        W40468   2.697  34.107   4.439
73928W        W40469   1.855  16.970   3.147
73929W        W40470   2.383  36.430  13.564
73930W        W40471  35.629  27.906   0.274
73931W        W40472   8.204  43.293  11.560
73932W        W40473  44.754   0.568   3.677
73933W        W40474  28.071  26.564   5.080
73934W        W40475   6.445  23.057   1.324
73935W        W40476  33.792  39.253  12.221
73936W        W40477  15.544  29.854  12.645
73937W        W40478  27.205  27.463   3.261
73938W        W40479  30.708  32.007   3.734
73939W        W40480  44.042  44.723  14.337
73940W        W40481   5.125   8.105   2.736
73941W        W40482  11.369  39.703   3.580
73942W        W40483  42.549  42.736   3.679
73943W        W40484  42.878   6.930  13.687
73944W        W40485   7.931   6.884  13.434
73945W        W40486  26.292  20.209   4.539
73946W        W40487   4.424  44.722  12.868
73947W        W40488  17.785   1.445  12.498
73948W        W40489  16.538  36.626   0.443
73949W        W40490   7.995  36.507  11.520
73950W        W40491   1.604  38.028   0.280
73951W        W40492  29.538  23.178   0.459
73952W        W40493  21.350  36.359  11.797
73953W        W40494  26.459  39.395   2.290
73954W        W40495   1.441  33.136   2.131
73955W        W40496  19.624  12.397  12.599
73956W        W40497   1.238  29.061  12.286
73957W        W40498  32.917   2.089  12.043
73958W        W40499  25.401  43.880   3.655
73959W        W40500  15.445  36.606  12.935
73960W        W40501  10.473  40.178   4.602
73961W        W40502  25.303  15.217  11.577
73962W        W40503  32.310  19.051   4.142
73963W        W40504  44.764   2.247   1.376
73964W        W40505  28.659  23.100   0.533
73965W        W40506  23.291  42.786  14.031
73966W        W40507  26.634  21.346  13.143
73967W        W40508  32.081  43.481   1.316
73968W        W40509  28.197   0.969  13.756
73969W        W40510   0.701  23.532  11.384
73970W        W40511   2.647  16.978  12.351
73971W        W40512  18.259  42.396   0.461
73972W        W40513  28.175  10.395   4.593
73973W        W40514   8.423  19.967  14.835
73974W        W40515  29.951  36.109   2.643
73975W        W40516  22.457  42.785   2.243
73976W        W40517  28.290  17.719  14.878
73977W        W40518   2.135   9.604  14.938
73978W        W40519  31.066   2.691   3.887
73979W        W40520  43.770  26.118   0.833
73980W        W40521  25.731  25.100   2.237
73981W        W40522  20.031  14.223  11.916
73982W        W40523  10.719  12.784  11.053
73983W        W40524   6.704   7.668   3.598
73984W        W40525  27.471   1.884   1.743
73985W        W40526  44.932  15.133  14.404
73986W        W40527   5.839   9.640   4.774
73987W        W40528  27.626  20.011   3.119
73988W        W40529   9.813  10.639  10.746
73989W        W40530  33.139  18.670   4.082
73990W        W40531   0.305   4.969  11.165
73991W        W40532  31.541  11.642   4.503
73992W        W40533  18.788  34.562   4.497
73993W        W40534  27.295   9.961   0.409
73994W        W40535  38.895  19.736   1.196
73995W        W40536   1.242  10.248   0.382
73996W        W40537  14.208   6.251  12.445
73997W        W40538  12.001  32.837  11.929
73998W        W40539   5.770  18.262  11.935
73999W        W40540  32.178  38.080   4.117
74000W        W40541  30.415  13.203   1.871
74001W        W40542  31.814  12.172   0.799
74002W        W40543   2.767  21.305   1.242
74003W        W40544  43.289  44.786  13.115
74004W        W40545  16.815  11.753   4.058
74005W        W40546  15.010  43.251  13.438
74006W        W40547  15.510  37.541   4.144
74007W        W40548  27.719  40.860  12.063
74008W        W40549  44.415   5.225   1.906
74009W        W40550  20.819  34.970  14.391
74010W        W40551  10.725  22.928  10.685
74011W        W40552  44.280   2.182  14.781
74012W        W40553  34.075  14.598   0.295
74013W        W40554  30.483  30.472   0.095
74014W        W40555   3.743  10.226  13.146
74015W        W40556   4.142   1.262   0.381
74016W        W40557  15.722  33.399   5.247
74017W        W40558  39.869  24.137   4.717
74018W        W40559  24.120  26.111   3.628
74019W        W40560  34.400  38.890   3.274
74020W        W40561  22.475  18.387  12.601
74021W        W40562  41.344  21.390  10.576
74022W        W40563  19.763   6.098  14.782
74023W        W40564   2.665  16.309  12.583
74024W        W40565   2.092   8.279  11.670
74025W        W40566  35.438  34.011   0.997
74026W        W40567  44.001  43.699  14.391
74027W        W40568  16.831   8.410   1.490
74028W        W40569  43.003  37.585   0.814
74029W        W40570  31.986  39.110   0.916
74030W        W40571  16.258  16.569  14.717
74031W        W40572   7.293  39.111   2.650
74032W        W40573  35.524  22.304  11.637
74033W        W40574  24.063  13.860   2.580
74034W        W40575  41.418  11.178   3.542
74035W        W40576   7.330   8.146   3.171
74036W        W40577  15.689  21.836   1.394
74037W        W40578  14.382   5.012  12.341
74038W        W40579  20.260  42.063  11.006
74039W        W40580  16.345  26.988  14.323
74040W        W40581  12.848  21.073   4.940
74041W        W40582   8.049  32.676   0.388
74042W        W40583  40.909   6.730  11.078
74043W        W40584  42.531  33.689   4.039
74044W        W40585  17.338  33.799   0.811
74045W        W40586  22.002   2.939   1.267
74046W        W40587   9.606  28.727   3.426
74047W        W40588  34.149  32.598  14.309
74048W        W40589  12.253  34.981  12.364
74049W        W40590  28.031   6.018   4.164
74050W        W40591  19.167  29.197   3.887
74051W        W40592  12.601   5.458  11.982
74052W        W40593  18.261  11.833   3.753
74053W        W40594   4.523  40.767  12.438
74054W        W40595   8.270  11.192   2.886
74055W        W40596   6.934  14.412   2.662
74056W        W40597   0.739  43.556  14.015
74057W        W40598  40.585   7.240   2.230
74058W        W40599  33.862   9.302  11.514
74059W        W40600  37.250  33.411   0.396
74060W        W40601  13.720   0.450   2.249
74061W        W40602  34.151  27.562   2.828
74062W        W40603   9.595  37.969   0.868
74063W        W40604  16.502  19.323   2.024
74064W        W40605  31.243  21.679  11.250
74065W        W40606  28.251  41.519  14.762
74066W        W40607  32.113   6.433   4.094
74067W        W40608  40.331  32.051   4.653
74068W        W40609  44.459   7.868  13.948
74069W        W40610  39.857  25.126   3.794
74070W        W40611   7.424  30.500   2.334
74071W        W40612  25.962   4.780  10.743
74072W        W40613  24.226  10.826   2.080
74073W        W40614  43.033  37.144   2.227
74074W        W40615  20.999  20.775  12.826
74075W        W40616  11.715  23.027   3.690
74076W        W40617   9.637  34.988   2.162
74077W        W40618   7.260  43.701   3.603
74078W        W40619  31.159  28.459  12.908
74079W        W40620   2.507  34.063   5.418
74080W        W40621  44.844  39.609  12.090
74081W        W40622  10.770   7.640  12.087
74082W        W40623  11.084   0.538   0.768
74083W        W40624   1.956  40.064  14.151
74084W        W40625   9.728  22.697  13.893
74085W        W40626  20.686   6.681   1.359
74086W        W40627  14.809  12.082   3.278
74087W        W40628  15.919   9.207   4.795
74088W        W40629  17.585  36.100   2.829
74089W        W40630  32.661  44.937   0.338
74090W        W40631  18.724  36.521   4.483
74091W        W40632   6.135  15.084  12.843
74092W        W40633  24.475   3.981  13.213
74093W        W40634  42.388  38.129   2.897
74094W        W40635   6.688   6.754  14.976
74095W        W40636   9.813  13.482  14.489
74096W        W40637  23.924   0.956  13.089
74097W        W40638  36.742  34.346  13.497
74098W        W40639  11.226  40.340  12.912
74099W        W40640  19.342  11.768   2.329
74100W        W40641  22.588  34.886  11.492
74101W        W40642  23.132  10.601  12.422
74102W        W40643  43.635  26.224  13.060
74103W        W40644  19.768  11.387  13.297
74104W        W40645  31.602  20.213  12.141
74105W        W40646   6.693  42.539   4.119
74106W        W40647  19.979  22.208   3.057
74107W        W40648   9.406  26.929  12.168
74108W        W40649  25.136  16.650  13.745
74109W        W40650   2.428  20.910  12.490
74110W        W40651  12.322  38.322   2.853
74111W        W40652  41.926  29.511  14.914
74112W        W40653   4.430  21.932  10.267
74113W        W40654  40.413  18.016  12.021
74114W        W40655  36.352  14.259   4.543
74115W        W40656  23.688  35.087  12.008
74116W        W40657  18.145  15.120   1.775
74117W        W40658  14.648  32.696  12.091
74118W        W40659  39.977  43.071   5.010
74119W        W40660  42.415  17.880   3.399
74120W        W40661  43.237  34.607   3.889
74121W        W40662  40.932  29.898   4.937
74122W        W40663   8.683   9.765  11.072
74123W        W40664   2.376  28.234  14.455
74124W        W40665  41.922   2.762  12.932
74125W        W40666  17.345  31.730  12.101
74126W        W40667  10.348  26.661  14.952
74127W        W40668  19.327  17.548  14.546
74128W        W40669  34.153  23.086  13.664
74129W        W40670  31.694  35.879  13.488
74130W        W40671  30.024  27.505   1.393
74131W        W40672  19.465  12.258   1.503
74132W        W40673  42.758   2.515  11.040
74133W        W40674  37.228  38.903   2.178
74134W        W40675   3.550  41.903   4.427
74135W        W40676  38.231   4.878   3.770
74136W        W40677  27.549   9.134  13.991
74137W        W40678   5.377  19.498   1.314
74138W        W40679  14.623  28.491   0.274
74139W        W40680  40.154  12.165   3.229
74140W        W40681  29.967   3.482   1.847
74141W        W40682  29.427  16.029  14.437
74142W        W40683  14.063  15.509  12.688
74143W        W40684   5.363  44.423  12.571
74144W        W40685  28.007  28.136   4.092
74145W        W40686  14.858  20.632  11.159
74146W        W40687   8.274   6.826  12.952
74147W        W40688  10.056  27.666  12.561
74148W        W40689   0.409   9.905   1.239
74149W        W40690  23.261  18.644   3.146
74150W        W40691  17.754   6.407   2.075
74151W        W40692  36.223  39.432   4.611
74152W        W40693  41.978  38.733   1.300
74153W        W40694  28.335  34.271  12.918
74154W        W40695   6.931  33.697   4.913
74155W        W40696  16.135  17.582   0.517
74156W        W40697  17.537  41.949   0.076
74157W        W40698  43.825  22.932   4.599
74158W        W40699   0.039  10.146  14.623
74159W        W40700  24.691   7.234  14.481
74160W        W40701  24.567  24.627  10.750
74161W        W40702  44.704  20.104   1.321
74162W        W40703   9.971  14.584  12.682
74163W        W40704  18.737  20.243   2.369
74164W        W40705  18.225  12.560   2.225
74165W        W40706   6.954   4.430   9.977
74166W        W40707   5.337   6.665  11.510
74167W        W40708   6.407  41.362  14.335
74168W        W40709  20.570  29.699  13.499
74169W        W40710  42.476  18.752   3.110
74170W        W40711  12.134   8.621  14.326
74171W        W40712  15.431  35.502   2.757
74172W        W40713  12.829  26.095   4.806
74173W        W40714  29.464  38.588   4.878
74174W        W40715  26.973   3.192  14.043
74175W        W40716  43.873  22.566   0.182
74176W        W40717   4.946   9.447   1.918
74177W        W40718   9.994  28.832   4.423
74178W        W40719  11.766  30.933  11.401
74179W        W40720  43.732  11.634  12.534
74180W        W40721   7.148  42.690   3.502
74181W        W40722  25.173  16.557  11.211
74182W        W40723  39.263  44.297   3.407
74183W        W40724  20.320  12.617  10.577
74184W        W40725  29.214  12.678   2.599
74185W        W40726  36.020  14.695   2.805
74186W        W40727  23.245  14.955  13.843
74187W        W40728  28.333  22.159   3.002
74188W        W40729  40.356  41.945   2.419
74189W        W40730  32.417  11.463  10.662
74190W        W40731  29.577   4.246   4.659
74191W        W40732  17.631   9.344   0.816
74192W        W40733  43.879   2.542  14.839
74193W        W40734  10.861  14.654  11.469
74194W        W40735  27.186   6.958  11.095
74195W        W40736  36.601  22.634  13.531
74196W        W40737  42.302  35.454  10.637
74197W        W40738  13.158  18.742   0.353
74198W        W40739  37.835   6.685   3.779
74199W        W40740   1.722  13.158   3.195
74200W        W40741   2.012  33.809  12.970
74201W        W40742  22.545  16.380   2.767
74202W        W40743  19.271   8.257   1.504
74203W        W40744   8.942  37.597   1.336
74204W        W40745  40.958   0.633  14.364
74205W        W40746  18.055  29.925   1.293
74206W        W40747  36.915  34.502   4.789
74207W        W40748  40.574  12.708   2.682
74208W        W40749   7.378   9.064   4.686
74209W        W40750   5.160   5.232  11.794
74210W        W40751  15.477  30.055  13.748
74211W        W40752  44.523  41.288  11.446
74212W        W40753   0.362   0.461   1.248
74213W        W40754  27.908  17.759  12.421
74214W        W40755  33.826  27.651  13.938
74215W        W40756  20.211  12.728   0.733
74216W        W40757  43.260  32.466  11.184
74217W        W40758  22.914  38.086  11.071
74218W        W40759  21.895   6.268   0.068
74219W        W40760  10.746   2.024   1.627
74220W        W40761  35.688  16.592  14.386
74221W        W40762  26.066   1.746  12.052
74222W        W40763  39.279  28.079  12.935
74223W        W40764  35.571  29.534  12.437
74224W        W40765  26.542  17.877   2.288
74225W        W40766   3.466  32.735  12.851
74226W        W40767  44.954  15.163   3.295
74227W        W40768  12.882  41.365   9.760
74228W        W40769  29.111  36.983  13.502
74229W        W40770  35.495  23.219   3.637
74230W        W40771  17.673  11.399   0.858
74231W        W40772   8.821  28.629   0.362
74232W        W40773   2.646  11.122   1.278
74233W        W40774  12.075  13.699   4.974
74234W        W40775  11.359  35.282  10.682
74235W        W40776  34.679  33.137  12.570
74236W        W40777  16.631  19.829   2.256
74237W        W40778  18.750  34.370  13.899
74238W        W40779  36.594  40.368   4.002
74239W        W40780  41.128  16.346   5.540
74240W        W40781  38.475   7.758   0.344
74241W        W40782  26.716   7.645  13.880
74242W        W40783  26.915  24.152  10.717
74243W        W40784   4.944  18.537  12.928
74244W        W40785  17.286  19.759  12.659
74245W        W40786  39.397   2.046   1.268
74246W        W40787  13.646   3.495   1.798
74247W        W40788  11.313  41.812   1.532
74248W        W40789  33.837  40.472   1.717
74249W        W40790  32.914  22.607   0.117
74250W        W40791  18.415  40.987   1.812
74251W        W40792   0.474  32.109   3.096
74252W        W40793  30.909  43.280  12.586
74253W        W40794  18.146   4.385  11.602
74254W        W40795  37.818   9.864   1.384
74255W        W40796   2.972  14.188  11.442
74256W        W40797  44.721  40.430   3.964
74257W        W40798  22.612   0.654   1.967
74258W        W40799   8.555  28.084   0.410
74259W        W40800  11.400  41.343   1.313
74260W        W40801  10.319   8.311   1.459
74261W        W40802   8.474  16.728  13.133
74262W        W40803  35.498  39.215  11.154
74263W        W40804  18.761   3.437  12.107
74264W        W40805  23.578  36.704   4.619
74265W        W40806  10.744  21.168  13.404
74266W        W40807   6.074  32.452   2.636
74267W        W40808  34.674  44.094  10.857
74268W        W40809  28.950  22.631   4.577
74269W        W40810  26.959   8.783  13.011
74270W        W40811   2.143  24.462   9.710
74271W        W40812  29.615   3.958  14.520
74272W        W40813   8.091  36.591  12.461
74273W        W40814  44.229  30.949   3.256
74274W        W40815   6.896  23.317   9.863
74275W        W40816  26.717  34.923   3.244
74276W        W40817  12.747  42.767   4.688
74277W        W40818  29.411  36.128   2.809
74278W        W40819  20.648   5.702   3.426
74279W        W40820  19.886   7.425  12.031
74280W        W40821  35.536   4.374   2.710
74281W        W40822  29.251  42.284  14.836
74282W        W40823  27.869  15.962  14.808
74283W        W40824  22.139  32.851  11.046
74284W        W40825  40.045  12.915  10.742
74285W        W40826  17.821  42.251   3.058
74286W        W40827  40.034  30.500  14.249
74287W        W40828  21.055  15.293   4.720
74288W        W40829  39.114  14.893  13.922
74289W        W40830  30.522  18.768   4.866
74290W        W40831   1.795  31.575   1.736
74291W        W40832  41.477   2.948   3.998
74292W        W40833  24.276  28.890   2.300
74293W        W40834  26.564  22.215  12.026
74294W        W40835  29.019  13.883   1.143
74295W        W40836   8.774  27.411  10.903
74296W        W40837   1.413   3.215   5.048
74297W        W40838  43.314   4.628  11.715
74298W        W40839   6.263  13.732  13.499
74299W        W40840  30.111  15.723  14.079
74300W        W40841  22.478  16.832   4.950
74301W        W40842  34.960  31.189  11.385
74302W        W40843   6.040  36.569   3.628
74303W        W40844  27.040  24.475  11.122
74304W        W40845  11.838  16.303   1.729
74305W        W40846  36.646  39.559   1.815
74306W        W40847  22.647   9.030   4.246
74307W        W40848   5.206   0.265  13.833
74308W        W40849  12.962  16.433  12.564
74309W        W40850   1.146  21.073  12.944
74310W        W40851  41.482  22.933  11.993
74311W        W40852  15.185  42.262   1.220
74312W        W40853  44.092  21.586  13.329
74313W        W40854  37.913   2.182   1.475
74314W        W40855   8.632   8.261   0.512
74315W        W40856   9.398  43.281   2.854
74316W        W40857  36.541  27.959   4.556
74317W        W40858   7.651  21.031  13.817
74318W        W40859  17.074  35.141  14.017
74319W        W40860  34.844  17.111   3.197
74320W        W40861  38.319  10.487  11.165
74321W        W40862  21.611   7.333   2.730
74322W        W40863  11.543  28.112   3.185
74323W        W40864   9.650  27.709  12.251
74324W        W40865  22.613  36.074  14.409
74325W        W40866  34.392  13.982   3.068
74326W        W40867  17.808  23.111   4.247
74327W        W40868  21.076  24.121  11.690
74328W        W40869   9.187  42.854  12.002
74329W        W40870  18.589  38.399   4.363
74330W        W40871  18.668  23.965  12.898
74331W        W40872   3.503   0.060  12.534
74332W        W40873  21.303   4.037   0.727
74333W        W40874  20.949   1.807   2.538
74334W        W40875  37.784  38.337  11.592
74335W        W40876   7.844  27.284   3.124
74336W        W40877  39.577  21.463  14.976
74337W        W40878  41.634  16.792  12.198
74338W        W40879  43.292   0.301  14.672
74339W        W40880  31.623  10.848  14.816
74340W        W40881  29.409  39.465  11.109
74341W        W40882  28.891  20.157  13.359
74342W        W40883  21.539  12.739  13.933
74343W        W40884   5.891  31.993  10.134
74344W        W40885  26.654  15.745   1.171
74345W        W40886   8.862  29.910  13.380
74346W        W40887  36.078  26.261  14.198
74347W        W40888   5.020   9.808  13.971
74348W        W40889  30.271  43.875   3.726
74349W        W40890  39.054  44.771   0.203
74350W        W40891  30.141   6.991  13.494
74351W        W40892  41.952   7.898   2.372
74352W        W40893  18.153   1.467   4.267
74353W        W40894  19.067  26.120  12.636
74354W        W40895  41.823  34.762  11.156
74355W        W40896  44.562  43.754   1.074
74356W        W40897  20.968  27.604  10.979
74357W        W40898  36.991   9.139   4.541
74358W        W40899  32.538  39.632   4.136
74359W        W40900   5.826   4.442   1.982
74360W        W40901   5.514  35.937   0.374
74361W        W40902  43.699  26.537  10.900
74362W        W40903  41.065  33.935   0.874
74363W        W40904  33.425  40.727  11.126
74364W        W40905  23.670   7.835   3.202
74365W        W40906  37.061  17.700   3.159
74366W        W40907  18.725  18.077   0.173
74367W        W40908  28.883  19.274  11.398
74368W        W40909   4.019  22.349  11.952
74369W        W40910  14.610  18.013   9.987
74370W        W40911  43.104  16.801   3.763
74371W        W40912  29.990  30.642  13.978
74372W        W40913   5.859   1.126  11.699
74373W        W40914  19.633  10.280   2.905
74374W        W40915  21.178  23.785  12.954
74375W        W40916  13.827  12.974   0.985
74376W        W40917  44.806  27.569  12.035
74377W        W40918  42.806  11.876  13.641
74378W        W40919  34.086  33.913  12.858
74379W        W40920  10.216  35.962   3.805
74380W        W40921  30.041  21.683   2.842
74381W        W40922  19.678  34.643  11.159
74382W        W40923  41.546  36.480   0.290
74383W        W40924  31.023  39.073  14.966
74384W        W40925  32.356   2.397   0.815
74385W        W40926  25.028  30.597  11.071
74386W        W40927  30.235  22.291  13.166
74387W        W40928  10.672   1.670   0.718
74388W        W40929  23.235  38.521   0.183
74389W        W40930  10.641  20.532  13.659
74390W        W40931  21.088  11.928   4.088
74391W        W40932  44.296   1.703   0.747
74392W        W40933  41.463  22.217   2.321
74393W        W40934  33.189   1.440   1.307
74394W        W40935  27.879  24.499  11.080
74395W        W40936  44.116  15.262  10.699
74396W        W40937  27.973  38.023  12.218
74397W        W40938  15.691  14.384   3.597
74398W        W40939  40.021  34.510  12.125
74399W        W40940  14.706   5.896   0.905
74400W        W40941  10.016  21.234  10.663
74401W        W40942   9.257  12.801  12.007
74402W        W40943  37.806  27.239   2.180
74403W        W40944   0.486   7.826  13.913
74404W        W40945  28.885  38.420  12.957
74405W        W40946  37.007  44.831   0.397
74406W        W40947  32.625  36.815  12.067
74407W        W40948   1.095  17.517  14.773
74408W        W40949  38.965  25.106   1.360
74409W        W40950  21.265  10.020   1.220
74410W        W40951   0.506  28.760  12.993
74411W        W40952   9.333  42.950   2.402
74412W        W40953  22.175  11.758  10.703
74413W        W40954  21.487  18.803  10.686
74414W        W40955  44.196   6.163   4.514
74415W        W40956  34.031  36.947  13.831
74416W        W40957   0.488  28.137  13.581
74417W        W40958  22.510  22.198   0.260
74418W        W40959  16.187  36.125   2.429
74419W        W40960  14.978  17.994   2.253
74420W        W40961  34.886   4.999  13.480
74421W        W40962  29.266  39.839  12.548
74422W        W40963  16.144   8.890  14.834
74423W        W40964  20.869   7.432  11.321
74424W        W40965  14.206  24.016   3.084
74425W        W40966  20.311   8.629  14.218
74426W        W40967  28.178  25.559   1.798
74427W        W40968  42.715  12.224   0.754
74428W        W40969  27.394  44.581  14.862
74429W        W40970  34.526   2.739  10.389
74430W        W40971  25.966  21.599   3.921
74431W        W40972   5.989   9.176   1.565
74432W        W40973  15.700  25.626  13.309
74433W        W40974   1.199  19.627   0.550
74434W        W40975  44.306  24.098  13.874
74435W        W40976  20.281  41.412  13.832
74436W        W40977  19.987  12.181  14.342
74437W        W40978  43.832  27.452   4.745
74438W        W40979  26.534  36.339  12.373
74439W        W40980  23.644  10.219  12.102
74440W        W40981  14.809  13.307   2.676
74441W        W40982  37.047   6.253  12.395
74442W        W40983  24.054  34.624   3.245
74443W        W40984  31.586  21.502  14.957
74444W        W40985   9.286  44.565  13.279
74445W        W40986  44.266  42.273   0.221
74446W        W40987  14.704  35.544  13.733
74447W        W40988  39.399   9.925  13.300
74448W        W40989  35.473  36.061   0.127
74449W        W40990   1.464  27.961   4.088
74450W        W40991  33.837  13.876  14.298
74451W        W40992  11.689   6.814  13.552
74452W        W40993  40.055  36.475   3.211
74453W        W40994  41.990   3.976   2.761
74454W        W40995  33.528  23.608  14.558
74455W        W40996  44.562  22.029  11.595
74456W        W40997  28.420  20.074  11.581
74457W        W40998  22.580   9.688   2.569
74458W        W40999  43.697   2.427   4.508
74459W        W41000   1.924  34.094   0.415
74460W        W41001  26.004  34.034  12.449
74461W        W41002   3.289  22.501   1.341
74462W        W41003  41.438  26.541  11.457
74463W        W41004  30.723   0.377   3.819
74464W        W41005  28.425  11.036  10.486
74465W        W41006  18.541   7.516  14.934
74466W        W41007  19.125  39.398  10.747
74467W        W41008  36.315  41.838  12.401
74468W        W41009  40.593  44.282   3.729
74469W        W41010   5.472  25.946   0.045
74470W        W41011  11.868  33.190  13.237
74471W        W41012  15.283  15.092   3.269
74472W        W41013  17.801   6.006   3.245
74473W        W41014  31.868  33.960   2.699
74474W        W41015  27.716  17.556  13.052
74475W        W41016  37.876  15.209   1.728
74476W        W41017  10.729  23.575   4.636
74477W        W41018   2.938  14.853   4.159
74478W        W41019  18.519  39.311  13.027
74479W        W41020  26.188   3.806  10.726
74480W        W41021   7.178  17.109   3.115
74481W        W41022  24.009  15.352   0.657
74482W        W41023  36.841  29.030   3.840
74483W        W41024  41.393  15.615   1.465
74484W        W41025  38.079  18.302  10.912
74485W        W41026   2.975  15.238  13.381
74486W        W41027   7.351  18.935  12.588
74487W        W41028  10.054  21.722   0.415
74488W        W41029  37.965  41.358  11.555
74489W        W41030   6.849  12.700   2.301
74490W        W41031  10.907  24.721  13.438
74491W        W41032  23.137  28.201  14.349
74492W        W41033  23.655  33.694  13.901
74493W        W41034  11.668  28.406   0.348
74494W        W41035  28.471  24.064  13.211
74495W        W41036  26.935   1.253  10.719
74496W        W41037  17.165  20.194   2.845
74497W        W41038  43.350   9.778  14.875
74498W        W41039  22.786  31.990  10.706
74499W        W41040  23.691  23.129   4.101
74500W        W41041  34.125  25.516   3.278
74501W        W41042  40.399   8.279  11.302
74502W        W41043  14.728   3.177   2.157
74503W        W41044  21.513  22.118   0.208
74504W        W41045  29.029  43.006   2.364
74505W        W41046  39.502   7.157   3.098
74506W        W41047  41.704  25.480  11.932
74507W        W41048  25.921  41.822   2.690
74508W        W41049  18.575  42.272   3.637
74509W        W41050  39.947  17.024   1.812
74510W        W41051  31.440  12.627  12.058
74511W        W41052   0.967  18.114  10.346
74512W        W41053   7.108  15.834  10.741
74513W        W41054  10.570  26.213  11.030
74514W        W41055   6.219  11.014  11.070
74515W        W41056  44.762  38.551   1.699
74516W        W41057  42.029  22.659   0.141
74517W        W41058  23.761   5.327  11.734
74518W        W41059  20.703  39.926  11.196
74519W        W41060  13.046  38.060  13.835
74520W        W41061  12.314  13.479   3.485
74521W        W41062  43.641  39.703   0.859
74522W        W41063  44.963  29.692  12.370
74523W        W41064   9.287  43.484   4.782
74524W        W41065   8.524  36.366   1.051
74525W        W41066  38.349   7.921  11.197
74526W        W41067   5.908   5.851  12.608
74527W        W41068  43.961  13.274   4.468
74528W        W41069  35.495   6.711   1.527
74529W        W41070  35.843  28.166   3.589
74530W        W41071  40.777  37.062   4.649
74531W        W41072  16.076  29.514   3.715
74532W        W41073  23.061   8.864   4.514
74533W        W41074  12.177  31.322   2.804
74534W        W41075  22.761  11.384   2.706
74535W        W41076  28.003  20.060  11.075
74536W        W41077  36.931  21.642  12.102
74537W        W41078   6.292  28.583   3.075
74538W        W41079   4.869  26.857   3.694
74539W        W41080  27.975  38.688   2.956
74540W        W41081  17.360  20.429   0.297
74541W        W41082  26.118  23.769   4.100
74542W        W41083  26.673  19.584  11.204
74543W        W41084  34.407  36.382   1.722
74544W        W41085  25.479  10.809  14.463
74545W        W41086  39.163  39.945   2.612
74546W        W41087   8.625  13.327  14.228
74547W        W41088   5.453  23.167  13.902
74548W        W41089  19.171  33.071  12.075
74549W        W41090  34.600  22.754   4.376
74550W        W41091  22.357  36.030   3.500
74551W        W41092  18.690  29.206   3.232
74552W        W41093  25.290  11.274   1.364
74553W        W41094   8.937  35.916   2.814
74554W        W41095  20.567  16.353  14.855
74555W        W41096  13.800   6.843  13.806
74556W        W41097   3.455  21.617   0.840
74557W        W41098   1.836  30.536   5.416
74558W        W41099  15.109  26.094  13.001
74559W        W41100  10.871  24.663   1.284
74560W        W41101  31.929  39.645  11.094
74561W        W41102  35.503   6.053   4.617
74562W        W41103  32.185   7.946  10.594
74563W        W41104   3.329  35.964   1.267
74564W        W41105  43.363   6.270  11.999
74565W        W41106   0.084  43.445   1.499
74566W        W41107  31.471  15.044   3.603
74567W        W41108  37.336  30.089   0.499
74568W        W41109   2.303  44.117  11.422
74569W        W41110  23.467  43.406  10.681
74570W        W41111  20.157   6.921  14.904
74571W        W41112  40.746   4.794   2.837
74572W        W41113  38.966   8.215   0.409
74573W        W41114  34.830  16.551  12.912
74574W        W41115  10.506  40.910   0.174
74575W        W41116  16.648  20.967  13.788
74576W        W41117  23.662  38.295   0.408
74577W        W41118  21.069  18.773  11.827
74578W        W41119  19.465  41.686   0.402
74579W        W41120   7.168   9.155  13.377
74580W        W41121  15.094   3.005  11.751
74581W        W41122   2.451   8.171  13.959
74582W        W41123  10.783  36.356   1.881
74583W        W41124   1.283  10.211   3.795
74584W        W41125  19.534  33.972   4.178
74585W        W41126  26.092  30.828  11.582
74586W        W41127  29.369  38.079   4.676
74587W        W41128  17.332  12.247  12.136
74588W        W41129  42.952  38.037   2.191
74589W        W41130  37.037  42.442  10.756
74590W        W41131  32.399  44.290  13.938
74591W        W41132   2.785  37.339  12.652
74592W        W41133  29.687  36.019  14.447
74593W        W41134   3.117  10.628   1.810
74594W        W41135  22.150  40.023   0.918
74595W        W41136  10.194  27.575   4.162
74596W        W41137   6.953  17.038  12.552
74597W        W41138   5.606  42.129  12.325
74598W        W41139   9.410  16.804   1.642
74599W        W41140  22.717  17.716  11.203
74600W        W41141  37.639  25.971  12.741
74601W        W41142   2.519  38.878   1.833
74602W        W41143  31.560  41.018  12.190
74603W        W41144   9.866   3.555  11.355
74604W        W41145  11.213  18.567   1.499
74605W        W41146  42.112  36.845  11.740
74606W        W41147   0.673  44.677  11.979
74607W        W41148   4.308  15.821   3.754
74608W        W41149  15.069   7.942  14.790
74609W        W41150  30.077  34.829  14.493
74610W        W41151  30.600  42.474   3.810
74611W        W41152  42.382   6.789   0.256
74612W        W41153   9.215  27.778   3.467
74613W        W41154  44.670  37.866  10.113
74614W        W41155  27.082  19.137   3.396
74615W        W41156  32.915   2.345  12.507
74616W        W41157  22.682  34.647   3.145
74617W        W41158  16.868   1.527  14.998
74618W        W41159   7.645  24.380  10.353
74619W        W41160   1.890   3.757   2.075
74620W        W41161  18.219  34.015   3.424
74621W        W41162  11.140  15.833  13.132
74622W        W41163  43.285  31.697  13.855
74623W        W41164  31.139  22.664  14.563
74624W        W41165  41.262  30.519  12.176
74625W        W41166  27.982  39.915  12.093
74626W        W41167   6.251  13.692   2.140
74627W        W41168  42.517   8.297  13.111
74628W        W41169   7.109  35.047   1.451
74629W        W41170  44.225  20.312   3.121
74630W        W41171   4.673  21.841   5.019
74631W        W41172  42.477   5.821  13.027
74632W        W41173  36.182  10.759   4.282
74633W        W41174  39.245  14.829   1.602
74634W        W41175   2.507  37.382   4.103
74635W        W41176  25.537  28.501   0.914
74636W        W41177   9.281  35.975   3.607
74637W        W41178  35.635  25.726   4.905
74638W        W41179  37.430  39.824  11.082
74639W        W41180  34.205   0.030   1.722
74640W        W41181  28.553  21.815  13.432
74641W        W41182  15.353   1.941   3.170
74642W        W41183   5.031  17.138  12.534
74643W        W41184  43.959  41.418  13.649
74644W        W41185  31.628  33.574   3.992
74645W        W41186  41.479  28.655   2.334
74646W        W41187  38.875   7.838   3.447
74647W        W41188  15.817  39.440  11.037
74648W        W41189   2.798  41.365  13.758
74649W        W41190   1.539  26.515  14.859
74650W        W41191   1.395  13.160  14.472
74651W        W41192  20.744  31.963  10.572
74652W        W41193   3.350  39.206   2.503
74653W        W41194  23.665  25.125   1.419
74654W        W41195  33.520  43.990   3.341
74655W        W41196  40.820  22.421  13.397
74656W        W41197  14.412   6.286  12.919
74657W        W41198  30.153  25.000   4.509
74658W        W41199  24.786  10.212   2.730
74659W        W41200  38.405  29.848  13.628
74660W        W41201  36.521  12.225  10.576
74661W        W41202  12.148  34.907  14.993
74662W        W41203  26.811  12.419  10.961
74663W        W41204  17.263  30.377   2.553
74664W        W41205  37.582  23.313  10.603
74665W        W41206   2.811  24.598  12.762
74666W        W41207  36.403  16.859   4.647
74667W        W41208  18.234  16.278   1.756
74668W        W41209  22.213  29.793   0.176
74669W        W41210  22.200  33.315  13.101
74670W        W41211  39.914   7.917   0.324
74671W        W41212   5.081  40.964   3.306
74672W        W41213  38.317  19.441  11.497
74673W        W41214  44.813  24.862  14.815
74674W        W41215  43.025  23.204   2.231
74675W        W41216  44.054   5.370  11.116
74676W        W41217  27.416  11.477   9.694
74677W        W41218  14.142  26.899   4.707
74678W        W41219  25.973  32.187   2.279
74679W        W41220  33.478  11.870   1.777
74680W        W41221  24.582  44.251  10.759
74681W        W41222   0.480  42.725   1.200
74682W        W41223  41.928   2.984  12.429
74683W        W41224  39.986  41.501   2.471
74684W        W41225  35.642  35.861   0.574
74685W        W41226   8.846  39.479  10.350
74686W        W41227   1.770  21.693  11.053
74687W        W41228  27.477  10.464   0.569
74688W        W41229  30.202  10.659  13.808
74689W        W41230  23.998  23.131  13.124
74690W        W41231  26.173   8.147  14.486
74691W        W41232   9.661  28.242   3.191
74692W        W41233   3.252  31.895   1.658
74693W        W41234  24.094  41.417  14.946
74694W        W41235   9.503   4.460   3.154
74695W        W41236  28.438  18.989   4.935
74696W        W41237  11.337  19.683   3.522
74697W        W41238  10.930  38.444  14.498
74698W        W41239  43.458  19.964   0.721
74699W        W41240   0.415  17.481   0.867
74700W        W41241  19.788  32.438   2.896
74701W        W41242   2.026   2.794   0.978
74702W        W41243  35.107  35.805   1.962
74703W        W41244  22.177   8.425   3.779
74704W        W41245   4.302  13.536   3.304
74705W        W41246  38.822  20.711   2.218
74706W        W41247  27.417  18.279   4.260
74707W        W41248  19.413  15.723   4.123
74708W        W41249  28.553  33.321  11.095
74709W        W41250   6.001  39.112  13.914
74710W        W41251  22.611  34.482  11.799
74711W        W41252  24.250   8.773  13.529
74712W        W41253   2.236   1.087   4.032
74713W        W41254  30.525  23.895  14.567
74714W        W41255   5.694  17.673   1.517
74715W        W41256  43.293  40.718   0.028
74716W        W41257  28.976  11.582   1.194
74717W        W41258   6.044  10.634   4.496
74718W        W41259  42.466  28.161   0.883
74719W        W41260  13.037  40.160   3.173
74720W        W41261  37.334  35.029   1.918
74721W        W41262  11.689  22.533   3.743
74722W        W41263  28.014   1.730   4.857
74723W        W41264  11.718   9.453  11.462
74724W        W41265  16.809  27.575   3.783
74725W        W41266  23.169  34.874  12.055
74726W        W41267  44.191  22.714  10.569
74727W        W41268  29.540  16.827   4.251
74728W        W41269  17.919  30.384   1.739
74729W        W41270  35.646  43.720  14.737
74730W        W41271  11.846  36.321  12.714
74731W        W41272  16.383  26.015   2.407
74732W        W41273  17.938  31.886  14.053
74733W        W41274   9.653  30.308  10.654
74734W        W41275  13.324  39.000   3.307
74735W        W41276  13.778  12.091   4.301
74736W        W41277   9.888  20.301  14.983
74737W        W41278  44.695  13.742  11.392
74738W        W41279  32.619  37.674  13.712
74739W        W41280  24.539   7.197   2.407
74740W        W41281  36.419  16.304   0.420
74741W        W41282  29.936  39.581   3.114
74742W        W41283  24.656  42.806  12.099
74743W        W41284  33.406  31.953  12.918
74744W        W41285  13.615  26.508  13.543
74745W        W41286  21.695  27.508  12.775
74746W        W41287  39.469  18.411   3.589
74747W        W41288  37.997  39.639   4.561
74748W        W41289  21.562  17.541   4.452
74749W        W41290  31.798  32.558   2.367
74750W        W41291  19.184   3.762  11.378
74751W        W41292  31.407  37.468  14.328
74752W        W41293  23.064   2.811   5.016
74753W        W41294  34.983  29.466  12.204
74754W        W41295   7.820  18.403   0.475
74755W        W41296  18.961  38.794  12.450
74756W        W41297   5.779  16.955  11.989
74757W        W41298  34.948  22.801  14.583
74758W        W41299  24.055   2.517  12.727
74759W        W41300  14.538  35.490   1.243
74760W        W41301  10.901  23.475  13.892
74761W        W41302  44.436   4.191   4.309
74762W        W41303  42.273   7.763   1.141
74763W        W41304  15.623  22.898   1.169
74764W        W41305  10.752  34.056   0.934
74765W        W41306  39.005  17.513  10.582
74766W        W41307  17.468  19.483   2.838
74767W        W41308  26.636  16.013   2.729
74768W        W41309  36.883   5.722  14.613
74769W        W41310  15.750  39.912   4.433
74770W        W41311  31.858  44.856  12.075
74771W        W41312  40.006   4.720  10.515
74772W        W41313  26.176   5.320   1.897
74773W        W41314  35.070  12.650   1.641
74774W        W41315  23.967  44.791  14.782
74775W        W41316  41.949  21.859   3.106
74776W        W41317  20.518  17.681  13.319
74777W        W41318  17.626   0.837  11.681
74778W        W41319   8.987   2.875   3.850
74779W        W41320  38.266  16.067   0.858
74780W        W41321  24.609  23.538  13.849
74781W        W41322  37.904  34.781  11.228
74782W        W41323  42.378  29.466  12.586
74783W        W41324  28.102  35.191  12.265
74784W        W41325   9.075  28.132   0.420
74785W        W41326  41.394  26.069   0.787
74786W        W41327  32.784  23.146  10.659
74787W        W41328   3.895  31.135  10.341
74788W        W41329   7.873  19.397   0.214
74789W        W41330   5.446   3.723   1.292
74790W        W41331  34.366   6.182  12.091
74791W        W41332   3.468  39.087   4.545
74792W        W41333  34.365  12.084   2.706
74793W        W41334  25.564  29.456   0.995
74794W        W41335  17.658  14.826  14.669
74795W        W41336  34.540  11.169  13.365
74796W        W41337  37.782  43.285  13.888
74797W        W41338  10.816   9.947   0.922
74798W        W41339  18.073  20.792  12.444
74799W        W41340  13.577  15.619  14.843
74800W        W41341  13.421  20.421  14.047
74801W        W41342   6.801   9.735   0.999
74802W        W41343  30.331   5.771  12.036
74803W        W41344  19.205  18.709   4.579
74804W        W41345  21.320  33.659  12.011
74805W        W41346  17.752  33.856   4.663
74806W        W41347  36.303   3.421   2.285
74807W        W41348  43.792  38.658  12.807
74808W        W41349  34.114  33.355  13.022
74809W        W41350  16.802  31.454  12.949
74810W        W41351   9.063   0.754   2.801
74811W        W41352  22.609  28.025   0.084
74812W        W41353   9.929  37.151   0.250
74813W        W41354  37.409  14.109  13.796
74814W        W41355  16.059  18.613   2.500
74815W        W41356  37.273   6.688   1.483
74816W        W41357  43.066   3.153  14.447
74817W        W41358   2.772  33.956  12.150
74818W        W41359  34.010  10.641   2.713
74819W        W41360  41.879  22.612  12.039
74820W        W41361  27.060  33.601   1.715
74821W        W41362  28.479   7.216  11.920
74822W        W41363  10.214  34.627  11.904
74823W        W41364  44.974  30.718  11.944
74824W        W41365  35.840   7.257   0.408
74825W        W41366  25.985  28.157  14.934
74826W        W41367  41.149  16.901   3.899
74827W        W41368   1.392  32.616   1.249
74828W        W41369  25.947  18.344  12.889
74829W        W41370  10.251  43.262   2.802
74830W        W41371  39.898  28.238   0.021
74831W        W41372  38.140  30.104  14.436
74832W        W41373  44.788  37.929  10.647
74833W        W41374  34.039  30.300   1.111
74834W        W41375   6.570   2.148  14.819
74835W        W41376  34.557  23.634   1.148
74836W        W41377  25.526  43.773   3.180
74837W        W41378  36.072  33.814  12.125
74838W        W41379  10.680   4.847   4.541
74839W        W41380  13.639   5.835   1.737
74840W        W41381  11.816  26.195   1.102
74841W        W41382   4.034   5.499   2.071
74842W        W41383  33.089   2.828  12.491
74843W        W41384   0.309  25.098   3.835
74844W        W41385  26.522   3.739   2.644
74845W        W41386  44.792  19.010  13.818
74846W        W41387  36.390   1.049  14.491
74847W        W41388  41.689  10.060  14.341
74848W        W41389  11.170   8.673  10.640
74849W        W41390  14.583  44.661  14.861
74850W        W41391  14.771  17.543  12.980
74851W        W41392  29.528  41.996   3.120
74852W        W41393  40.350  32.309   2.350
74853W        W41394   6.275  16.912  14.936
74854W        W41395  10.688  37.122  13.038
74855W        W41396  18.589  12.508   5.427
74856W        W41397   4.782  42.955  13.635
74857W        W41398  11.338  13.047  13.000
74858W        W41399   6.011  23.575  13.587
74859W        W41400  41.093  28.741  11.063
74860W        W41401   6.786  18.072   3.392
74861W        W41402  20.584  26.517  11.439
74862W        W41403  17.621  44.726   0.795
74863W        W41404  13.597   8.312   3.254
74864W        W41405  34.329  12.633  11.168
74865W        W41406  22.918  39.079   1.385
74866W        W41407   4.819  39.920   4.401
74867W        W41408   5.881  25.076   3.103
74868W        W41409  39.080   7.682   0.402
74869W        W41410  18.596  43.365   0.363
74870W        W41411  11.173  40.882   3.287
74871W        W41412   1.501  34.334  13.677
74872W        W41413  25.682  26.052  14.737
74873W        W41414  40.008   8.081  11.026
74874W        W41415  30.598  18.521   1.748
74875W        W41416   9.350  19.207   4.917
74876W        W41417  12.645   5.767  10.681
74877W        W41418  24.776  39.645  13.807
74878W        W41419  10.849  29.994   3.316
74879W        W41420  30.519  15.370  14.717
74880W        W41421  26.657  38.125  14.387
74881W        W41422   0.352  40.260   1.199
74882W        W41423  30.590  19.717   4.569
74883W        W41424  34.505   0.685   1.212
74884W        W41425  39.916  40.823   1.726
74885W        W41426  42.911  14.200   4.979
74886W        W41427  27.939  13.173  14.017
74887W        W41428  38.011  10.755  14.414
74888W        W41429  10.296  32.596   3.550
74889W        W41430  14.004   0.198  14.391
74890W        W41431  18.635  33.896   3.775
74891W        W41432  36.803  34.053  11.604
74892W        W41433  23.262  16.339   3.266
74893W        W41434   6.866  12.516   1.817
74894W        W41435  22.744  10.845   3.799
74895W        W41436  35.009   4.914   3.636
74896W        W41437  27.887   3.015  14.710
74897W        W41438  15.179  31.870   3.184
74898W        W41439   4.267  33.003   0.218
74899W        W41440   6.830  35.422   2.456
74900W        W41441  24.945  22.288   3.077
74901W        W41442  12.755  15.588  13.311
74902W        W41443  25.580   5.885   2.397
74903W        W41444  24.149  11.989  13.560
74904W        W41445  34.200  36.046   2.189
74905W        W41446  20.995  35.919   1.200
74906W        W41447  36.645  17.737   1.343
74907W        W41448  16.882  27.950   2.281
74908W        W41449  43.373  26.247  12.533
74909W        W41450  10.466  27.576   1.130
74910W        W41451  15.382  39.296   3.388
74911W        W41452  26.238  37.536   4.578
74912W        W41453  30.140  29.888  11.244
74913W        W41454  14.983   6.449   4.589
74914W        W41455  17.649   4.145   3.705
74915W        W41456  28.629  34.511  13.782
74916W        W41457  35.399  16.133   3.693
74917W        W41458   9.704  13.922   1.879
74918W        W41459  16.050  25.418  11.641
74919W        W41460  36.046   3.093  11.038
74920W        W41461  21.237   2.210   5.101
74921W        W41462  15.645  32.764   4.006
74922W        W41463  14.268  11.870   2.841
74923W        W41464   9.702  27.038  14.791
74924W        W41465  43.713  27.805   0.264
74925W        W41466  13.706   4.247  12.537
74926W        W41467  10.619  44.583   4.981
74927W        W41468  11.682  12.602   3.225
74928W        W41469  11.882  40.632  12.481
74929W        W41470  38.986  28.552  11.469
74930W        W41471  21.560  23.455  13.027
74931W        W41472  44.865  17.202   1.346
74932W        W41473  27.822  26.712  13.357
74933W        W41474  30.725   7.644  12.075
74934W        W41475  10.251  35.164   3.298
74935W        W41476  24.124  25.603   2.835
74936W        W41477  38.956  31.418   3.370
74937W        W41478   8.702  38.764  11.994
74938W        W41479  25.622  28.985   2.854
74939W        W41480  24.805   6.460  11.097
74940W        W41481  28.396  41.047   4.535
74941W        W41482  33.604  14.349   0.397
74942W        W41483  37.845   2.686   1.376
74943W        W41484   0.151   7.664  12.619
74944W        W41485  23.178  10.248  10.609
74945W        W41486  42.150   4.346  14.901
74946W        W41487  26.606   0.449  14.008
74947W        W41488  16.624  36.934  13.350
74948W        W41489   4.906  35.885  13.444
74949W        W41490  13.469   2.997  12.388
74950W        W41491  21.470  18.993  13.971
74951W        W41492  15.123  17.532   2.444
74952W        W41493   3.711   4.512   1.257
74953W        W41494  35.548  35.870   1.703
74954W        W41495  13.660  13.409   0.674
74955W        W41496  44.516  42.380  11.836
74956W        W41497  19.774  11.177  11.070
74957W        W41498  26.702   8.455   3.742
74958W        W41499   9.677  34.926  13.601
74959W        W41500  36.846  44.301   3.808
74960W        W41501  10.831  13.862  11.128
74961W        W41502  24.732  32.053  11.522
74962W        W41503  29.459  19.310  14.439
74963W        W41504  14.073  31.141   0.855
74964W        W41505  40.999   4.951  13.968
74965W        W41506  19.206  33.480  11.732
74966W        W41507  27.575  18.207   0.820
74967W        W41508  35.608  12.761  10.987
74968W        W41509  37.930  39.880  14.301
74969W        W41510  28.726  17.067  11.285
74970W        W41511  40.948  14.877  13.923
74971W        W41512  30.142  27.515   3.246
74972W        W41513   6.955  28.303   3.087
74973W        W41514  32.409  16.767   0.430
74974W        W41515  41.822  27.671   1.914
74975W        W41516  26.754  42.156   5.046
74976W        W41517  32.845   8.543   2.747
74977W        W41518  43.036  15.933   2.154
74978W        W41519  14.232  36.923   3.605
74979W        W41520  38.270  25.242  13.077
74980W        W41521  13.401   8.748   3.446
74981W        W41522  44.206  18.119  12.184
74982W        W41523  10.292  36.709   1.298
74983W        W41524  21.240   7.209   4.843
74984W        W41525  28.125  37.619  14.967
74985W        W41526  22.043  26.322  11.095
74986W        W41527  31.065  30.829  10.142
74987W        W41528  34.316   1.732  10.834
74988W        W41529  33.658   6.746  10.386
74989W        W41530  42.147  36.739   2.263
74990W        W41531  15.272   1.305   2.238
74991W        W41532  36.685   6.700   2.171
74992W        W41533  32.962  41.033  11.112
74993W        W41534   2.022  40.791   4.156
74994W        W41535  10.844   8.999  11.728
74995W        W41536  26.447  29.833  13.147
74996W        W41537  40.068   5.173   2.265
74997W        W41538  31.776  40.368  14.383
74998W        W41539  27.683  11.848  13.828
74999W        W41540   7.747   7.849  10.725
75000W        W41541  18.547  37.351  11.166
75001W        W41542   8.640   7.250   0.776
75002W        W41543  38.075   0.808   3.415
75003W        W41544  17.698  39.164  14.894
75004W        W41545  15.328  40.454   4.438
75005W        W41546  10.280  17.799  13.055
75006W        W41547  26.001  15.429   3.137
75007W        W41548  13.681  27.532   2.145
75008W        W41549  23.976  22.558   5.058
75009W        W41550  31.703  36.856  10.826
75010W        W41551  28.643  41.123  14.717
75011W        W41552  33.613  31.068  12.518
75012W        W41553  40.389  31.464   1.237
75013W        W41554   6.779  17.515   0.979
75014W        W41555  39.893   9.122  14.527
75015W        W41556  34.906  28.026  13.800
75016W        W41557  30.900  15.715  14.732
75017W        W41558  42.779  31.476   4.048
75018W        W41559  25.351  37.407  13.722
75019W        W41560  38.289  39.396   2.813
75020W        W41561  23.555  26.561   2.109
75021W        W41562  44.800  43.600  12.078
75022W        W41563   5.268   9.853   2.221
75023W        W41564  12.677  34.623  12.110
75024W        W41565  19.757  31.661  13.420
75025W        W41566  38.644  21.740   2.676
75026W        W41567  13.129  14.839   3.510
75027W        W41568  34.009  34.136  11.240
75028W        W41569  40.455  25.670  11.539
75029W        W41570  10.064  16.959  11.630
75030W        W41571  18.283   5.827   0.127
75031W        W41572   7.229  29.027  13.844
75032W        W41573  22.825  24.054   2.357
75033W        W41574  17.745  41.197  10.648
75034W        W41575   5.407  33.620  14.144
75035W        W41576  25.646  10.664  13.987
75036W        W41577   8.699  28.146  10.692
75037W        W41578  32.983  38.459  11.952
75038W        W41579  34.368  14.989   3.604
75039W        W41580  22.774  29.160  14.609
75040W        W41581  41.544   0.907   0.429
75041W        W41582  17.029   6.403  11.658
75042W        W41583  43.750   0.414   3.242
75043W        W41584  32.091  22.240  14.956
75044W        W41585  42.293  32.565   2.717
75045W        W41586  16.145  26.331   0.042
75046W        W41587   6.809   7.603   0.268
75047W        W41588  24.024  37.301  13.826
75048W        W41589  26.932  18.325   1.449
75049W        W41590  43.771  24.635  13.406
75050W        W41591  10.299  25.023  11.503
75051W        W41592  21.021  15.876   5.022
75052W        W41593   3.786  33.820   2.149
75053W        W41594   4.344  17.685  13.304
75054W        W41595  37.690  42.301  10.778
75055W        W41596  16.657   7.189  11.506
75056W        W41597  21.243  11.379   2.740
75057W        W41598   9.825  36.459  11.170
75058W        W41599  11.914  43.694   1.237
75059W        W41600  27.185  15.392   3.669
75060W        W41601  24.949   0.827  11.942
75061W        W41602   8.403  36.405   1.847
75062W        W41603  15.994  15.963   1.404
75063W        W41604  19.924   1.263  12.094
75064W        W41605   2.515  18.007  12.105
75065W        W41606  12.842   2.664  10.959
75066W        W41607  28.555   6.674  10.698
75067W        W41608  38.031  29.532   1.815
75068W        W41609  38.937  37.183   2.688
75069W        W41610   0.451  38.557   2.759
75070W        W41611  16.087  40.013  12.445
75071W        W41612  38.957  16.454   2.826
75072W        W41613  18.212  12.788  14.944
75073W        W41614   7.933  11.763  12.372
75074W        W41615  43.159  15.704  14.243
75075W        W41616  35.500   9.476  13.022
75076W        W41617  13.641  15.316   0.753
75077W        W41618   7.883  29.882   1.338
75078W        W41619  39.534  14.575  13.820
75079W        W41620  26.637   7.147  10.429
75080W        W41621  16.928   3.980   2.673
75081W        W41622  24.192  19.193   0.017
75082W        W41623  29.595  30.302   3.091
75083W        W41624  13.237  10.335  13.545
75084W        W41625   7.866  29.027   1.673
75085W        W41626   4.544  32.721   3.635
75086W        W41627  26.840  26.827   2.834
75087W        W41628  25.333  12.513  11.095
75088W        W41629  28.067  15.545  12.403
75089W        W41630  36.352  16.312   3.735
75090W        W41631  19.822  13.859  14.849
75091W        W41632  22.003   0.761  12.465
75092W        W41633   2.453   3.573   3.558
75093W        W41634  22.108  36.801   1.219
75094W        W41635  15.350  41.004  12.018
75095W        W41636   3.382  15.716  11.105
75096W        W41637   1.371   5.536  14.121
75097W        W41638  33.524  30.565   2.203
75098W        W41639  27.955  13.079  11.604
75099W        W41640  34.557   5.839  14.506
75100W        W41641   6.435  33.181   3.263
75101W        W41642  31.111   1.226  10.696
75102W        W41643  28.880  11.238  14.979
75103W        W41644   1.417   7.190   0.027
75104W        W41645   4.503  34.986  14.304
75105W        W41646  13.165  44.312  11.212
75106W        W41647   9.112  25.282   4.253
75107W        W41648  32.163  16.279  13.794
75108W        W41649   4.224   4.280   3.300
75109W        W41650  24.713  29.100  11.149
75110W        W41651  10.729  41.643  11.637
75111W        W41652   4.832  29.626   4.274
75112W        W41653  35.920  30.640  13.468
75113W        W41654  30.561   9.698  13.993
75114W        W41655  13.326  42.110   3.199
75115W        W41656  14.181  35.340   4.846
75116W        W41657  44.332  23.189   1.519
75117W        W41658  30.816  33.940  12.006
75118W        W41659  14.353  10.674  11.221
75119W        W41660  21.437  12.234   2.668
75120W        W41661  11.096  44.993  14.443
75121W        W41662  29.245  22.520  12.401
75122W        W41663  19.258  33.022   1.703
75123W        W41664  39.146  13.774   2.309
75124W        W41665  40.802  16.204   1.200
75125W        W41666  17.491   9.551  14.947
75126W        W41667  24.682  38.819  11.540
75127W        W41668  35.572  28.403   1.337
75128W        W41669  35.834  25.673   3.686
75129W        W41670  34.981  27.576  10.731
75130W        W41671  37.337  18.993  14.233
75131W        W41672  21.982  44.381   2.927
75132W        W41673   1.374  31.354  11.631
75133W        W41674  15.450  38.064  14.468
75134W        W41675  26.789  29.038   4.131
75135W        W41676  44.884   8.102  13.423
75136W        W41677  34.563  17.636   3.261
75137W        W41678  31.462  24.884  13.449
75138W        W41679   4.432  21.204   0.791
75139W        W41680  12.797  18.704   1.909
75140W        W41681  27.091  43.267  14.923
75141W        W41682  29.045  13.415   3.600
75142W        W41683  36.660  19.920   4.315
75143W        W41684  18.296  31.396   4.659
75144W        W41685  31.107  34.572   2.836
75145W        W41686  27.018   0.835  12.931
75146W        W41687   2.365   8.160   2.506
75147W        W41688  14.664  35.302  14.703
75148W        W41689  39.948  29.559  14.421
75149W        W41690  28.414   7.900  10.680
75150W        W41691  15.675  18.451   3.284
75151W        W41692  37.259   6.911   4.436
75152W        W41693  22.524   5.012   1.749
75153W        W41694   9.412  19.215   0.535
75154W        W41695  18.301  17.356  14.506
75155W        W41696  21.647   9.380   1.343
75156W        W41697   2.686   7.165  11.151
75157W        W41698  26.555  10.035   0.114
75158W        W41699   8.816  16.463  12.065
75159W        W41700  23.047  10.762  14.182
75160W        W41701   8.402  24.382   3.188
75161W        W41702  20.854  16.818  11.868
75162W        W41703  41.253  38.365   3.586
75163W        W41704  15.519  32.003   0.026
75164W        W41705   4.740  28.000  10.936
75165W        W41706   9.441  25.992  12.073
75166W        W41707  23.098   5.046   1.376
75167W        W41708   9.775  19.175   3.787
75168W        W41709  35.094  18.784   3.143
75169W        W41710  38.955   0.325   0.916
75170W        W41711  20.712  35.601   3.697
75171W        W41712   1.989  12.191  11.033
75172W        W41713  15.828  37.337   2.924
75173W        W41714  32.989  31.714   5.108
75174W        W41715   1.364  43.030   0.809
75175W        W41716  43.186  20.026  14.909
75176W        W41717   4.478  17.628  10.656
75177W        W41718  30.642   5.206  13.959
75178W        W41719  13.791  13.835   0.340
75179W        W41720  11.298  42.211  12.829
75180W        W41721  43.786  37.162   2.602
75181W        W41722  35.375  24.503  11.070
75182W        W41723  23.210   0.338  11.428
75183W        W41724   6.343  43.723  10.716
75184W        W41725  33.515  12.771   4.600
75185W        W41726  41.914  31.511  11.550
75186W        W41727  22.800  37.813   0.638
75187W        W41728   6.896   8.510  10.695
75188W        W41729  43.932  10.250  13.350
75189W        W41730  17.550  17.617  14.981
75190W        W41731  13.647  23.033   2.603
75191W        W41732   5.892  36.801  10.158
75192W        W41733  41.082  38.015   0.859
75193W        W41734  28.438  39.270  13.868
75194W        W41735  21.184  20.087   3.606
75195W        W41736  13.244   2.788   0.332
75196W        W41737   3.623  18.270  13.017
75197W        W41738  28.144  36.137   3.270
75198W        W41739  20.421  30.311  14.834
75199W        W41740  22.411   6.316  14.943
75200W        W41741  39.299  11.534  10.740
75201W        W41742  20.054   3.885  13.690
75202W        W41743  44.852  21.089   1.721
75203W        W41744   1.517   1.977   1.689
75204W        W41745  18.788   2.505  12.255
75205W        W41746  15.377   9.316   2.686
75206W        W41747   4.961  17.095   2.893
75207W        W41748  18.045   2.025   3.174
75208W        W41749   8.618   9.476  14.980
75209W        W41750  33.119   6.845   3.526
75210W        W41751  10.842  16.406  11.900
75211W        W41752  38.064  28.001   3.309
75212W        W41753  38.773   5.880  13.865
75213W        W41754  28.553  43.487  14.313
75214W        W41755  30.624  14.589   4.102
75215W        W41756  30.841  24.596   4.336
75216W        W41757  12.724   4.411   0.390
75217W        W41758  37.635  40.793   0.059
75218W        W41759   1.980  10.739   4.677
75219W        W41760  37.132  27.507   1.266
75220W        W41761   8.118  39.810   4.190
75221W        W41762  24.674   6.930  13.939
75222W        W41763  32.364  29.228  10.529
75223W        W41764  29.171  17.777   2.317
75224W        W41765   6.414  15.972   3.178
75225W        W41766  13.726   9.841   3.081
75226W        W41767  21.705  20.114   1.681
75227W        W41768  37.426  18.146  14.521
75228W        W41769  20.920  35.530   1.803
75229W        W41770  36.918  25.165  12.132
75230W        W41771  18.165  29.838  12.514
75231W        W41772   1.204   9.305   1.330
75232W        W41773   1.926  38.921  11.528
75233W        W41774  29.006  23.745  14.865
75234W        W41775  12.272  17.322   0.233
75235W        W41776  31.413   0.630   2.874
75236W        W41777  19.700  15.168   1.669
75237W        W41778  44.541  31.573   9.934
75238W        W41779  11.642  10.597   1.425
75239W        W41780   9.874   5.810   4.595
75240W        W41781  25.829   3.352   3.049
75241W        W41782  23.721  30.445  13.113
75242W        W41783  11.378  19.627   1.637
75243W        W41784  37.589  41.910  12.303
75244W        W41785   0.872  32.671  14.031
75245W        W41786  38.979  41.557  13.423
75246W        W41787  20.636  33.899  12.796
75247W        W41788  35.033  31.816   4.170
75248W        W41789  13.373   2.140  13.900
75249W        W41790  17.642  42.558   3.634
75250W        W41791  34.355  32.880  13.112
75251W        W41792  22.784  40.555  13.867
75252W        W41793   6.813  31.827  13.793
75253W        W41794   3.204  27.322   2.636
75254W        W41795  35.044  25.544  14.591
75255W        W41796   6.351  28.399   2.169
75256W        W41797  41.457  12.898   1.259
75257W        W41798  21.294  37.920   4.295
75258W        W41799  11.222  12.070   1.368
75259W        W41800  14.677   8.151  11.640
75260W        W41801  11.648  37.921  13.512
75261W        W41802  30.669   6.351  11.808
75262W        W41803  18.780  36.066   1.309
75263W        W41804  17.413   7.141   2.699
75264W        W41805  19.705  32.949   1.988
75265W        W41806  37.705  32.524  11.513
75266W        W41807  37.979  15.691   1.575
75267W        W41808  16.335  40.693   2.624
75268W        W41809  28.438  44.389  14.370
75269W        W41810  28.042  11.270   2.126
75270W        W41811  28.387  41.450   4.906
75271W        W41812  41.244  43.206  11.142
75272W        W41813  39.312  12.073   1.562
75273W        W41814  31.409  42.479   3.354
75274W        W41815   1.099  40.082   0.726
75275W        W41816  33.338  19.694  13.918
75276W        W41817  12.700  31.771  11.616
75277W        W41818  39.986  32.723  10.716
75278W        W41819  21.057  21.047   4.953
75279W        W41820  19.471   6.194   1.715
75280W        W41821   6.822  22.176  13.979
75281W        W41822  42.016   6.769   1.480
75282W        W41823  40.627  41.412  10.596
75283W        W41824   7.953  29.754   0.463
75284W        W41825  19.207  16.952   1.236
75285W        W41826  34.088  20.594  12.797
75286W        W41827  16.623  10.789   3.836
75287W        W41828  39.633  31.989   3.122
75288W        W41829   6.268  37.489   4.601
75289W        W41830   5.797  38.754  10.238
75290W        W41831  27.448  28.377  13.729
75291W        W41832   4.747  15.578   3.864
75292W        W41833  42.940  25.107   0.974
75293W        W41834   0.231  40.397  10.560
75294W        W41835  33.322  19.664  11.461
75295W        W41836  32.420  43.882  10.951
75296W        W41837  22.278  25.241  14.041
75297W        W41838  41.997  28.018  11.142
75298W        W41839  35.476   2.339  14.931
75299W        W41840  23.307  12.787   4.510
75300W        W41841   0.276  35.820  12.098
75301W        W41842   9.129  34.540  13.523
75302W        W41843  33.905  32.393  11.278
75303W        W41844   7.538  21.447   3.229
75304W        W41845   9.297   7.118   4.418
75305W        W41846  25.347  10.052  11.299
75306W        W41847  38.686  34.180  12.930
75307W        W41848  24.926  15.841  13.004
75308W        W41849  43.705  18.407   3.725
75309W        W41850  34.995   0.918   1.427
75310W        W41851  33.747   8.280   0.313
75311W        W41852   6.414   4.868  10.437
75312W        W41853  32.074  25.241  11.974
75313W        W41854  15.114  39.437   4.286
75314W        W41855  36.814  16.107   4.443
75315W        W41856  18.903  24.947   3.357
75316W        W41857   0.360  37.342   3.362
75317W        W41858  38.816  19.289   0.915
75318W        W41859   4.621  22.647  12.915
75319W        W41860  30.807  19.894   2.924
75320W        W41861   1.910  35.535  10.955
75321W        W41862   9.954  40.058  14.220
75322W        W41863  43.987  16.198  11.694
75323W        W41864  44.453   3.369  11.993
75324W        W41865  14.120  39.487   1.931
75325W        W41866   8.306  22.900  13.837
75326W        W41867  20.285  11.187  11.131
75327W        W41868  16.657   4.343  11.758
75328W        W41869  10.926  42.343  14.327
75329W        W41870  31.121   2.857  11.116
75330W        W41871  32.382  26.942  14.956
75331W        W41872  35.876  10.137  11.587
75332W        W41873  35.657  25.466   1.332
75333W        W41874  42.523  38.857   1.346
75334W        W41875  11.791  13.502  10.419
75335W        W41876  41.751  15.719   3.555
75336W        W41877   1.833  14.736   4.296
75337W        W41878  42.472  29.948  13.361
75338W        W41879  10.246   0.023   0.869
75339W        W41880  27.524  16.308  14.961
75340W        W41881  25.280   7.408   0.668
75341W        W41882  38.763   7.815   5.054
75342W        W41883   3.134  24.643  14.924
75343W        W41884   1.988   9.018   0.959
75344W        W41885   8.408   9.189   1.285
75345W        W41886  17.108  15.608  13.840
75346W        W41887  30.364  39.668  11.996
75347W        W41888  42.223  25.995  14.052
75348W        W41889  40.915  34.647  14.401
75349W        W41890   1.002  42.785  13.143
75350W        W41891   0.550  41.356  14.983
75351W        W41892   3.672  20.379  13.626
75352W        W41893  18.294  38.021  12.900
75353W        W41894   1.740  40.496  13.330
75354W        W41895  17.017  13.344   4.724
75355W        W41896   2.240  25.177   1.753
75356W        W41897   0.663  30.963  10.300
75357W        W41898  38.941  15.344  12.134
75358W        W41899  36.619  41.403  13.511
75359W        W41900  40.549  24.768  12.014
75360W        W41901   6.803  10.414  13.487
75361W        W41902  37.522  29.531   1.788
75362W        W41903   1.777  17.918  12.308
75363W        W41904  21.495   1.200   3.276
75364W        W41905  17.742  15.267  14.962
75365W        W41906  18.199   1.973  11.700
75366W        W41907  41.344   3.441  14.374
75367W        W41908   3.644  26.074  13.631
75368W        W41909  42.363  21.305  11.984
75369W        W41910  30.651  23.294   2.536
75370W        W41911  19.313  39.055   3.483
75371W        W41912  15.113   8.893  11.114
75372W        W41913  30.724  30.968  14.464
75373W        W41914  26.308  27.949  13.047
75374W        W41915  12.105  33.107  11.490
75375W        W41916  22.757  14.335  11.275
75376W        W41917  10.467  11.982   4.086
75377W        W41918  28.648  21.993  13.972
75378W        W41919   9.286  41.663   1.676
75379W        W41920  22.999  11.623  14.168
75380W        W41921   9.175  36.977  14.498
75381W        W41922  12.997   1.253  12.657
75382W        W41923  44.005  37.968   3.657
75383W        W41924   1.735  33.420   3.049
75384W        W41925  38.348  34.455  14.866
75385W        W41926  26.567  44.853  11.142
75386W        W41927   6.471   7.176  14.745
75387W        W41928  15.739  27.963   4.489
75388W        W41929  43.902   4.064  12.332
75389W        W41930  41.938  19.660   4.137
75390W        W41931  21.267  14.219   3.942
75391W        W41932  39.110  39.960  14.379
75392W        W41933   1.768  27.328  12.114
75393W        W41934  37.667   5.563  12.868
75394W        W41935   7.827  15.859   3.274
75395W        W41936   2.219   6.240   1.686
75396W        W41937  41.850  20.526   3.922
75397W        W41938  35.563   1.258  14.823
75398W        W41939  25.823  11.733   2.197
75399W        W41940   2.261  21.100  13.748
75400W        W41941  31.917  11.726   2.261
75401W        W41942   0.794   8.904  10.805
75402W        W41943  31.189  38.984   4.212
75403W        W41944  10.874  30.338   5.204
75404W        W41945  28.844  29.226   3.686
75405W        W41946  26.769  18.490  13.432
75406W        W41947   7.151  44.985   1.121
75407W        W41948  26.553  10.243  13.851
75408W        W41949  17.138  30.647  14.606
75409W        W41950   8.854  15.823   3.295
75410W        W41951  41.446  16.504  13.631
75411W        W41952   7.415   3.117   3.182
75412W        W41953   3.642  23.184  11.897
75413W        W41954  15.879   0.037  12.853
75414W        W41955  44.802  29.386  10.526
75415W        W41956  18.702  13.139  13.761
75416W        W41957  14.633  10.738   1.451
75417W        W41958  36.878  10.691   2.634
75418W        W41959  18.243  44.035  13.732
75419W        W41960  33.450  30.754  10.716
75420W        W41961  26.068  38.932   4.563
75421W        W41962  31.409  24.216  10.717
75422W        W41963  15.548   2.166  14.422
75423W        W41964  41.493  42.003  12.608
75424W        W41965  41.764   6.330  11.108
75425W        W41966  28.901   3.210  11.600
75426W        W41967  17.124  24.387  11.462
75427W        W41968  23.456  41.005  14.591
75428W        W41969   7.149  20.214  10.878
75429W        W41970   8.091   5.887   1.587
75430W        W41971   4.586  15.112  11.118
75431W        W41972  43.778  27.466  13.555
75432W        W41973  19.011  31.416  12.503
75433W        W41974  26.465  21.245  13.868
75434W        W41975   3.334  16.519  11.565
75435W        W41976  35.489   4.865   2.894
75436W        W41977   7.787  40.292  13.362
75437W        W41978  10.557   8.698  14.372
75438W        W41979  15.239   4.852   4.859
75439W        W41980  21.691  17.153  14.583
75440W        W41981   0.231  32.927   0.979
75441W        W41982  32.514  18.231  10.555
75442W        W41983   3.905  23.068  12.808
75443W        W41984  41.395  18.633  11.609
75444W        W41985   4.294  38.458   2.620
75445W        W41986  36.284  44.676  13.547
75446W        W41987  34.342  12.350   1.385
75447W        W41988  36.945   5.819  12.164
75448W        W41989  31.911  42.948  13.861
75449W        W41990   4.790  36.320  12.529
75450W        W41991   3.108   5.243   2.991
75451W        W41992   6.738  28.049  12.092
75452W        W41993  14.258  33.219   0.744
75453W        W41994  24.669   7.637   3.218
75454W        W41995  40.385  27.719  11.607
75455W        W41996  29.493  24.623  11.207
75456W        W41997  28.511  33.115   0.440
75457W        W41998  18.974   9.918   0.948
75458W        W41999  17.727  18.738  14.038
75459W        W42000  23.175  35.933  13.029
75460W        W42001   7.774   1.074  12.233
75461W        W42002  20.554   3.538   1.359
75462W        W42003  23.191  40.058   0.282
75463W        W42004   8.691  13.976   3.864
75464W        W42005   4.258  44.049   1.970
75465W        W42006  34.292  44.219  14.998
75466W        W42007   2.231  28.685  10.453
75467W        W42008  33.934  31.112   3.361
75468W        W42009  17.769  42.380   0.986
75469W        W42010   2.814  37.900   4.217
75470W        W42011   3.863  42.240   0.293
75471W        W42012  11.594   7.382   1.004
75472W        W42013  12.570  40.231   1.838
75473W        W42014  31.505  34.087  11.545
75474W        W42015   5.777   5.859  11.607
75475W        W42016  12.843  17.710   2.857
75476W        W42017  32.510   5.681   0.885
75477W        W42018  36.642  42.985   3.217
75478W        W42019  34.076  23.836  12.630
75479W        W42020  35.879  40.677  12.048
75480W        W42021  29.839  19.592   4.127
75481W        W42022   7.982   6.259   4.549
75482W        W42023  14.827  21.118   2.835
75483W        W42024   1.576  43.300  14.329
75484W        W42025  20.067  19.253  12.514
75485W        W42026   6.784  37.763   0.886
75486W        W42027  40.944   3.418  11.530
75487W        W42028  11.922  22.614  11.146
75488W        W42029  33.611  16.017  12.835
75489W        W42030  28.259  31.292  12.515
75490W        W42031   9.134   0.854  13.372
75491W        W42032   5.968  36.527  11.869
75492W        W42033  12.295   3.405   2.251
75493W        W42034  24.731   6.892  12.430
75494W        W42035  44.341   9.169  12.874
75495W        W42036  40.886  12.160  10.305
75496W        W42037   5.438   0.854  11.645
75497W        W42038  29.885   0.270  13.373
75498W        W42039   1.478  25.703   0.405
75499W        W42040  27.537   6.015   4.429
75500W        W42041   8.504  39.510   9.946
75501W        W42042  20.974  30.047  13.372
75502W        W42043  44.810  20.294   0.456
75503W        W42044  33.902  18.646   4.645
75504W        W42045  26.406   8.969  13.052
75505W        W42046  31.949  44.029  11.052
75506W        W42047  26.964  31.075   0.297
75507W        W42048   1.071  14.227  14.864
75508W        W42049   2.057  12.429   0.210
75509W        W42050  33.312  38.549  11.218
75510W        W42051  29.241  23.079  13.606
75511W        W42052   3.896  35.924   3.389
75512W        W42053  21.495  31.094   0.782
75513W        W42054   2.267  14.454   2.402
75514W        W42055  42.818   0.880  12.584
75515W        W42056  39.872  23.701   0.445
75516W        W42057  31.129   5.956  12.908
75517W        W42058  11.352  24.503   3.676
75518W        W42059  30.451  18.332  11.517
75519W        W42060   4.052  26.785   5.041
75520W        W42061  39.759  27.092   2.435
75521W        W42062   1.951  18.128   0.444
75522W        W42063  33.628  19.125   3.828
75523W        W42064  20.039  12.800  13.488
75524W        W42065   0.403   3.378   2.596
75525W        W42066  17.264  27.708   4.713
75526W        W42067  32.323  14.736   1.694
75527W        W42068  30.083  44.040  11.472
75528W        W42069  37.627  10.320  14.298
75529W        W42070   8.185   5.214   4.418
75530W        W42071  34.685  36.662  13.348
75531W        W42072  42.928   7.615   1.846
75532W        W42073  37.826  33.852  11.548
75533W        W42074  15.675  38.127  11.064
75534W        W42075  40.506  40.830   4.088
75535W        W42076   6.469  24.956  11.700
75536W        W42077  39.454  21.479  11.702
75537W        W42078  19.263   7.092   3.653
75538W        W42079   3.258  32.139  13.456
75539W        W42080  16.185  30.744  12.807
75540W        W42081  41.435  40.353   4.579
75541W        W42082  41.017   1.980   1.675
75542W        W42083  18.869  44.835  12.393
75543W        W42084  31.022  35.591   2.846
75544W        W42085  39.302  37.866  11.320
75545W        W42086  16.877  11.848  11.178
75546W        W42087  28.702  31.903  14.881
75547W        W42088  13.269  27.443   3.609
75548W        W42089  40.151  40.008   0.195
75549W        W42090  11.734  23.749   0.950
75550W        W42091   4.249  12.905  13.481
75551W        W42092  17.569  12.199  12.598
75552W        W42093   1.472  12.223  13.145
75553W        W42094   5.352  12.829  14.005
75554W        W42095  34.626   6.751   1.286
75555W        W42096  25.147  34.628  13.071
75556W        W42097  27.159  28.119  10.688
75557W        W42098  34.605  21.363  11.682
75558W        W42099  14.314   0.910  13.876
75559W        W42100  24.044  40.279  10.602
75560W        W42101  14.642  27.619   2.194
75561W        W42102   3.186  42.902  11.738
75562W        W42103  27.439  33.945   1.873
75563W        W42104   5.927  44.341   4.513
75564W        W42105  24.562  18.883  11.112
75565W        W42106   8.867  33.348  14.077
75566W        W42107  29.231  24.796  10.669
75567W        W42108  14.712  12.210  10.648
75568W        W42109  31.461  43.341   3.156
75569W        W42110  32.921   0.260   3.322
75570W        W42111   3.871  12.004   3.613
75571W        W42112  13.046  21.005  13.331
75572W        W42113   4.384  43.255  13.815
75573W        W42114  25.775  10.361  10.360
75574W        W42115  31.977   2.717   0.955
75575W        W42116  34.944  14.318   3.156
75576W        W42117  34.657  44.039  11.350
75577W        W42118   8.282  12.258   1.733
75578W        W42119  41.446   3.862   0.269
75579W        W42120  27.042  34.333   1.143
75580W        W42121  15.079  36.596  13.981
75581W        W42122  35.590   5.285   1.630
75582W        W42123  36.949  34.114  10.661
75583W        W42124  32.019  29.419  14.269
75584W        W42125   1.785  25.143   2.121
75585W        W42126  22.174  14.028   1.909
75586W        W42127  32.753  11.800   4.633
75587W        W42128  16.853   5.666   2.273
75588W        W42129  14.654  15.369   3.722
75589W        W42130  27.653  13.092  13.597
75590W        W42131  35.394   9.710  11.498
75591W        W42132  15.370   3.268  13.868
75592W        W42133  29.509  34.614  13.278
75593W        W42134  22.751  13.004   1.329
75594W        W42135  31.436  44.628   2.545
75595W        W42136  29.758  23.227  14.493
75596W        W42137   0.672  13.220   5.018
75597W        W42138  29.133  34.124  14.473
75598W        W42139   6.662  10.168   3.652
75599W        W42140  25.713   8.503   2.344
75600W        W42141  17.895  25.249  12.863
75601W        W42142  12.542   3.421  10.718
75602W        W42143  27.122  19.765  10.947
75603W        W42144   9.165   0.493  12.986
75604W        W42145  27.515  40.495   2.365
75605W        W42146  41.419   9.349   0.614
75606W        W42147  27.697  14.083  12.154
75607W        W42148  13.645  22.719  13.301
75608W        W42149  10.431   2.958   4.856
75609W        W42150  43.853  21.367   4.854
75610W        W42151   1.562   0.575   1.827
75611W        W42152   4.286   7.108  11.388
75612W        W42153  25.337   3.193  13.435
75613W        W42154  35.930  15.747  14.152
75614W        W42155   1.418  32.921   2.830
75615W        W42156  14.024   9.232  13.640
75616W        W42157  27.969  23.375  14.138
75617W        W42158  17.573  24.608  13.359
75618W        W42159  42.305  11.617  12.495
75619W        W42160   7.381  34.465   4.577
75620W        W42161  12.350   8.387   0.752
75621W        W42162  11.775  38.255   2.761
75622W        W42163  19.138   0.912   4.152
75623W        W42164  40.914  21.185  13.279
75624W        W42165   0.033  11.670  12.351
75625W        W42166  33.524  43.992   2.245
75626W        W42167   6.140  40.980   4.102
75627W        W42168   9.815  19.409   3.257
75628W        W42169  18.474   9.922   1.084
75629W        W42170  40.107  38.950  13.551
75630W        W42171  29.313  40.355  12.527
75631W        W42172  21.242   5.426  13.879
75632W        W42173  36.035  30.366  14.915
75633W        W42174  36.326   1.882   1.403
75634W        W42175   8.814  28.621   3.867
75635W        W42176   5.395  34.336   3.302
75636W        W42177  28.447  27.513   4.772
75637W        W42178  18.525   8.113  11.365
75638W        W42179  44.032  18.808   3.715
75639W        W42180  11.638  29.201  11.909
75640W        W42181  32.502  20.981   2.697
75641W        W42182  23.616  38.875   2.192
75642W        W42183  34.354  12.766  13.022
75643W        W42184   3.786  38.799  14.901
75644W        W42185  38.465  13.180   5.006
75645W        W42186   7.194  36.403   4.536
75646W        W42187  39.787  28.487  14.565
75647W        W42188  42.171  16.134   4.661
75648W        W42189  20.999  31.381  14.662
75649W        W42190  26.929  39.994   0.380
75650W        W42191  36.636   7.957   1.826
75651W        W42192   9.070  25.616  11.537
75652W        W42193   8.320   3.930   2.315
75653W        W42194  36.539  39.146  11.575
75654W        W42195  40.208  12.650   9.894
75655W        W42196  35.387  10.295   0.877
75656W        W42197  21.031  24.888   3.721
75657W        W42198  15.548  22.078   4.213
75658W        W42199   6.344   9.241   3.137
75659W        W42200  30.325   4.677   4.464
75660W        W42201  11.664  25.836   3.822
75661W        W42202   1.698  21.266   2.274
75662W        W42203  22.545  28.127  10.251
75663W        W42204   9.347  23.601  11.687
75664W        W42205   7.947  26.550   3.649
75665W        W42206  42.439  36.696   3.822
75666W        W42207  31.575  38.606   1.230
75667W        W42208  12.115  40.322  12.829
75668W        W42209   1.639  44.560   3.489
75669W        W42210  41.795   4.292   3.232
75670W        W42211   7.663  35.579   3.093
75671W        W42212  32.368  30.545  10.696
75672W        W42213  30.450  35.916  12.140
75673W        W42214  23.570  19.541   1.767
75674W        W42215  18.706  26.288  10.800
75675W        W42216  23.151   7.410   5.413
75676W        W42217  43.326  25.256  13.808
75677W        W42218  35.356   3.519  12.471
75678W        W42219  15.535  33.974  12.796
75679W        W42220  19.659  19.559  11.928
75680W        W42221  11.224  25.678  13.446
75681W        W42222  11.114  29.133   2.695
75682W        W42223   7.346  20.673  11.726
75683W        W42224   7.129  40.459  10.742
75684W        W42225  30.600  33.666   4.051
75685W        W42226  35.196  43.450  14.627
75686W        W42227  35.808  18.073  14.549
75687W        W42228  29.518  11.279   1.810
75688W        W42229  28.290  14.378  11.558
75689W        W42230  25.246  43.446  13.366
75690W        W42231   8.669  40.768  10.812
75691W        W42232  32.124  25.306  11.123
75692W        W42233  19.545  13.850  13.915
75693W        W42234  44.823  20.059   2.321
75694W        W42235  36.490  21.855   4.538
75695W        W42236  26.066  21.899   1.295
75696W        W42237  24.591  42.500  12.817
75697W        W42238  10.608  38.026  14.645
75698W        W42239   7.240  32.627   0.792
75699W        W42240  17.613  13.875  13.549
75700W        W42241  34.058  29.399   2.299
75701W        W42242  23.582  14.300  14.478
75702W        W42243   4.452   9.761   1.140
75703W        W42244  14.649  18.231   3.217
75704W        W42245   8.160  41.926  11.880
75705W        W42246  36.156  37.308  10.346
75706W        W42247  14.332  39.968  12.498
75707W        W42248  44.786  35.410   3.282
75708W        W42249   5.220   5.616  13.156
75709W        W42250  36.216   9.745  11.700
75710W        W42251  27.312  26.317  14.034
75711W        W42252  18.946  30.916   3.992
75712W        W42253   6.663  29.081   0.384
75713W        W42254  32.454  32.086  11.466
75714W        W42255   6.011  29.648   0.037
75715W        W42256  20.304   4.387   3.722
75716W        W42257  13.545  43.365   0.249
75717W        W42258  34.402  32.125  12.542
75718W        W42259  19.213  20.003   4.347
75719W        W42260   3.587  30.650  10.276
75720W        W42261  43.965  34.670  11.976
75721W        W42262  21.191  32.572  10.896
75722W        W42263   9.569   7.656  14.466
75723W        W42264   6.404  26.735   3.699
75724W        W42265  26.953  28.113  14.927
75725W        W42266  44.236   9.446  11.014
75726W        W42267  24.823  33.563   0.206
75727W        W42268   0.562  15.581  11.170
75728W        W42269  12.413  23.619   4.706
75729W        W42270  25.441  29.535  11.569
75730W        W42271  39.532  43.781  11.288
75731W        W42272  40.190  37.643  12.198
75732W        W42273  34.372  44.775   1.289
75733W        W42274  26.588  32.599  14.361
75734W        W42275  42.358   7.881   3.857
75735W        W42276  12.851  39.979   2.725
75736W        W42277  38.403  33.012  14.820
75737W        W42278   7.729   5.381  14.840
75738W        W42279  20.602  13.262   0.824
75739W        W42280  37.542  32.801  14.821
75740W        W42281  20.088  15.743   3.344
75741W        W42282  31.590  32.691   3.357
75742W        W42283  21.355  44.701   9.935
75743W        W42284  22.110  14.852  13.074
75744W        W42285   3.775  38.987  12.221
75745W        W42286  13.220  34.533  12.052
75746W        W42287   0.753  36.064  11.482
75747W        W42288  25.168  39.961  11.470
75748W        W42289  13.490   4.940   1.337
75749W        W42290  26.536  11.805  11.743
75750W        W42291  22.928  11.892  13.333
75751W        W42292  27.513  14.138  11.285
75752W        W42293   8.192  31.871  10.124
75753W        W42294  14.849  40.423   3.648
75754W        W42295  27.924  39.139  10.120
75755W        W42296   3.015  41.311  11.523
75756W        W42297  20.676   1.368   2.685
75757W        W42298  32.350  18.792  12.004
75758W        W42299  29.556  28.415  11.978
75759W        W42300  25.540  25.464  12.504
75760W        W42301  25.121  33.891  10.616
75761W        W42302  38.486   1.186  10.673
75762W        W42303  39.884   7.443   2.813
75763W        W42304  19.155  40.893   1.502
75764W        W42305  38.475   7.691   2.012
75765W        W42306  21.716  23.865   3.699
75766W        W42307  27.104  34.990   4.190
75767W        W42308  20.504   5.443   3.006
75768W        W42309  26.534  23.450   4.178
75769W        W42310  35.167  41.996  14.451
75770W        W42311  40.932  43.368   4.527
75771W        W42312  27.940  26.542   0.218
75772W        W42313  27.535   1.411  12.156
75773W        W42314  20.779  12.253  13.033
75774W        W42315  40.846   3.375  14.234
75775W        W42316  37.069   7.465  13.489
75776W        W42317   0.549  44.847   2.758
75777W        W42318  22.679  25.995   4.847
75778W        W42319  35.053  37.914  14.024
75779W        W42320  15.101  19.503   2.752
75780W        W42321  21.291  25.785   3.102
75781W        W42322   2.377  36.305   1.718
75782W        W42323  28.218  12.766  11.987
75783W        W42324  28.003  27.354   3.533
75784W        W42325  23.050  37.470   4.330
75785W        W42326  36.756   7.154  11.073
75786W        W42327   4.409  31.654  10.185
75787W        W42328  44.335  11.150   3.436
75788W        W42329   3.768   8.145   2.289
75789W        W42330  19.691   7.024   9.714
75790W        W42331  13.147  39.885   0.400
75791W        W42332  25.492  18.329   3.198
75792W        W42333   7.370  14.636   2.852
75793W        W42334   2.789  26.346   1.419
75794W        W42335  24.585  22.708  12.534
75795W        W42336  35.625  14.685  11.192
75796W        W42337  12.367  32.906   1.884
75797W        W42338  22.544  20.621  11.949
75798W        W42339  13.774  26.106   0.301
75799W        W42340   2.436  36.711  11.514
75800W        W42341   9.079  43.722   3.769
75801W        W42342  33.395   0.831   2.137
75802W        W42343  34.020  13.718  11.105
75803W        W42344  20.228  37.992   1.755
75804W        W42345   5.490  27.686  13.153
75805W        W42346  21.966  19.640  10.719
75806W        W42347  21.303  15.631   2.777
75807W        W42348  39.037  42.842  10.744
75808W        W42349  35.923  11.669  13.981
75809W        W42350  41.923  39.046   3.625
75810W        W42351  29.658  24.499  14.806
75811W        W42352   8.238  18.109   0.451
75812W        W42353  21.015  15.652   1.725
75813W        W42354   9.817  28.156   2.341
75814W        W42355  14.102  35.812   4.627
75815W        W42356  25.436  41.205   3.696
75816W        W42357  13.748  33.852  12.586
75817W        W42358  41.357  25.375   1.540
75818W        W42359  35.964  42.111   1.652
75819W        W42360  27.121   8.301  10.616
75820W        W42361  36.735   0.217  10.276
75821W        W42362  22.141   5.349  12.652
75822W        W42363   5.739  17.771  13.494
75823W        W42364  27.115  12.236   1.580
75824W        W42365  43.865  34.885   0.058
75825W        W42366   9.736  24.773  13.430
75826W        W42367   1.187  19.745   2.902
75827W        W42368  24.581  19.166   0.357
75828W        W42369  15.125  42.325   1.770
75829W        W42370  24.467  44.717   1.503
75830W        W42371  14.659  43.664  11.587
75831W        W42372  26.909  28.285  12.018
75832W        W42373   8.981  29.707  12.091
75833W        W42374  24.293   0.929  10.342
75834W        W42375   9.357  26.705   1.646
75835W        W42376  35.354  33.013   4.497
75836W        W42377  17.557  24.699   4.621
75837W        W42378  13.659  13.353   3.731
75838W        W42379   3.012  19.042   0.330
75839W        W42380   4.735  10.204  13.817
75840W        W42381   9.250  22.949  10.721
75841W        W42382   1.808   0.603   2.735
75842W        W42383  12.563  18.121   2.165
75843W        W42384   3.573  13.821   4.537
75844W        W42385  14.047  35.650  12.425
75845W        W42386  43.382   3.096   1.395
75846W        W42387  22.059  11.303  11.989
75847W        W42388  32.033  30.070   0.948
75848W        W42389  43.402  34.554   4.855
75849W        W42390   5.900  44.806  11.058
75850W        W42391  28.117  39.241  10.606
75851W        W42392   5.846  31.438  10.679
75852W        W42393   6.308  10.435  11.724
75853W        W42394  35.290  26.692  14.465
75854W        W42395  23.081  27.637  14.363
75855W        W42396  10.217   0.009   2.385
75856W        W42397  22.410  32.980   2.680
75857W        W42398   2.319  42.402  13.558
75858W        W42399  21.538   0.513   1.238
75859W        W42400  27.414  32.919   2.819
75860W        W42401   1.876  35.543  14.805
75861W        W42402  27.993  28.386   4.543
75862W        W42403  30.399  38.642   2.692
75863W        W42404  21.818  31.518   4.271
75864W        W42405  11.783  10.259  14.602
75865W        W42406  14.995  38.781   0.835
75866W        W42407  10.437  34.488  12.873
75867W        W42408  26.632  25.136  10.193
75868W        W42409  17.510  24.569   3.565
75869W        W42410   5.221  10.821   0.793
75870W        W42411  21.590   7.786   1.792
75871W        W42412  11.863  19.047  11.199
75872W        W42413  39.332   1.712  11.173
75873W        W42414  38.449  10.304   1.664
75874W        W42415  26.388  21.968   3.260
75875W        W42416  23.632   4.275   0.464
75876W        W42417  44.659  42.513   1.495
75877W        W42418  18.231   6.564  13.659
75878W        W42419  12.081  22.666  11.644
75879W        W42420  34.089  34.368   2.294
75880W        W42421  20.616  26.555   3.321
75881W        W42422  39.900  40.061   4.090
75882W        W42423  24.011  42.856   2.398
75883W        W42424  30.029  37.956   3.241
75884W        W42425   6.700   7.838   0.745
75885W        W42426  25.878   0.027   4.464
75886W        W42427  17.347  34.272   0.615
75887W        W42428  35.465  22.675  13.343
75888W        W42429   5.269  32.362   1.285
75889W        W42430  44.497  42.883  11.067
75890W        W42431  35.103   3.477   0.382
75891W        W42432  20.818  30.985  13.504
75892W        W42433  31.664  15.710  12.327
75893W        W42434   1.707  13.749  11.601
75894W        W42435   3.878  33.914  13.334
75895W        W42436   5.293  31.416  11.405
75896W        W42437  31.932   5.191   2.362
75897W        W42438   0.653  29.832   2.281
75898W        W42439  44.784  11.447   3.573
75899W        W42440   5.769  40.669  14.912
75900W        W42441  36.445  33.764  12.498
75901W        W42442  21.173   8.858  14.767
75902W        W42443  42.138  13.888  12.006
75903W        W42444  14.356  18.194   1.682
75904W        W42445  37.325  31.527  14.454
75905W        W42446  14.686  12.352  14.719
75906W        W42447   5.370  43.566  10.721
75907W        W42448   8.435   7.667  10.523
75908W        W42449   8.779  38.282  10.848
75909W        W42450  42.731   1.440   2.687
75910W        W42451  28.473  27.246   2.275
75911W        W42452  14.914  41.421   3.650
75912W        W42453  30.913  44.569  12.942
75913W        W42454  34.860   3.200  13.506
75914W        W42455  32.524  37.059  10.782
75915W        W42456  25.017  36.831   2.174
75916W        W42457  32.541  44.006   4.165
75917W        W42458  11.827  17.598   2.573
75918W        W42459  21.271  35.096   3.057
75919W        W42460  19.286  10.574  13.317
75920W        W42461  39.833  29.026  13.488
75921W        W42462  39.448   3.269  12.033
75922W        W42463  21.332  44.291   0.909
75923W        W42464  11.671  15.489   2.172
75924W        W42465  34.931  12.612   0.603
75925W        W42466  43.419  17.549  14.450
75926W        W42467   2.834   4.102  12.533
75927W        W42468  36.495  44.454  12.332
75928W        W42469  44.929  34.031  13.103
75929W        W42470  19.300  27.174   1.181
75930W        W42471   9.082  20.834  12.244
75931W        W42472  11.889  37.362   2.773
75932W        W42473   9.473  44.082  14.689
75933W        W42474  41.378  29.100   2.587
75934W        W42475  44.313   6.460  12.283
75935W        W42476  34.541   4.704   2.828
75936W        W42477  31.680  17.638   3.783
75937W        W42478  41.809  31.697  13.872
75938W        W42479   2.913  23.429  11.515
75939W        W42480  33.222   2.739   0.372
75940W        W42481  36.420   9.379   2.279
75941W        W42482  19.752  19.059  11.969
75942W        W42483  37.291  39.519   5.090
75943W        W42484  20.951  36.482   4.483
75944W        W42485  26.457  34.986   2.790
75945W        W42486  11.335  37.251  14.209
75946W        W42487  39.878  38.224  14.841
75947W        W42488  40.074  33.228   0.335
75948W        W42489  10.236  27.199  12.459
75949W        W42490  39.077  13.201  13.417
75950W        W42491  33.689  36.642  11.199
75951W        W42492  19.841  42.473   0.854
75952W        W42493  28.810  43.038   0.490
75953W        W42494  43.377  32.124   4.032
75954W        W42495   2.627  24.578   4.708
75955W        W42496  28.159  19.764   4.574
75956W        W42497  15.244   4.716   0.331
75957W        W42498  37.996  10.860   3.322
75958W        W42499  34.894  36.413  13.771
75959W        W42500  28.530  32.527   1.079
75960W        W42501  20.628  34.523   3.135
75961W        W42502  43.815   7.427   4.940
75962W        W42503   3.730   7.770   1.904
75963W        W42504   1.757  10.100   1.679
75964W        W42505  18.311  28.734   2.580
75965W        W42506   7.770  36.056   3.262
75966W        W42507  16.203  18.633   4.557
75967W        W42508  16.637   0.660   4.136
75968W        W42509  23.086  14.308   2.819
75969W        W42510  14.816  38.050   2.271
75970W        W42511  42.411  39.270  14.785
75971W        W42512   3.665  21.116   2.602
75972W        W42513  25.763   9.765  13.508
75973W        W42514  25.219   7.382  11.886
75974W        W42515   4.312  21.135   1.641
75975W        W42516  40.562  17.259   0.300
75976W        W42517  24.841  37.106   1.220
75977W        W42518  41.275  18.209   4.097
75978W        W42519   5.684  41.840   3.678
75979W        W42520  37.002   4.418   1.745
75980W        W42521   3.885  11.181  10.677
75981W        W42522  17.558  42.438   4.577
75982W        W42523  27.183  40.238  10.592
75983W        W42524   4.764  42.081  12.431
75984W        W42525   5.789  33.397  13.924
75985W        W42526   2.747  11.287  12.999
75986W        W42527  42.834  27.921  11.608
75987W        W42528  25.431  31.080   0.284
75988W        W42529  43.405  19.296   0.068
75989W        W42530  42.340  31.555   3.334
75990W        W42531  33.349  39.322   0.847
75991W        W42532  30.639  38.173  11.965
75992W        W42533   0.531  21.490   1.874
75993W        W42534  35.928  20.166  11.180
75994W        W42535  27.002  29.746  14.782
75995W        W42536  31.556  12.269  13.119
75996W        W42537  11.116  25.002   1.939
75997W        W42538  31.577   9.119   2.384
75998W        W42539  32.986   8.153   4.195
75999W        W42540  37.385  11.845   3.065
76000W        W42541  28.840  19.020   2.933
76001W        W42542   1.304  32.036  13.338
76002W        W42543  17.652  42.460  11.891
76003W        W42544   3.250   4.829  12.588
76004W        W42545  19.612  21.990   3.362
76005W        W42546  22.671   3.424  12.499
76006W        W42547  23.044   3.948   1.533
76007W        W42548  40.748   4.400   5.027
76008W        W42549   8.623  32.089  12.078
76009W        W42550  44.480   4.845   2.863
76010W        W42551  30.542  37.162  13.345
76011W        W42552  40.149   0.978   0.950
76012W        W42553  21.942  32.676   1.380
76013W        W42554  11.432  42.414  14.269
76014W        W42555  41.461   4.320  11.645
76015W        W42556   4.694  21.943   3.107
76016W        W42557  26.679   2.330   3.322
76017W        W42558  42.919  32.361  10.072
76018W        W42559   6.337  15.042  14.797
76019W        W42560  43.748  40.263   3.552
76020W        W42561  18.567  10.601   3.609
76021W        W42562  28.143   5.182  12.509
76022W        W42563  21.136  11.704  14.616
76023W        W42564   1.667  35.934  14.510
76024W        W42565  13.134  43.046  12.094
76025W        W42566   8.351  19.142   0.227
76026W        W42567  25.500  11.922  11.325
76027W        W42568  27.585   1.972   3.187
76028W        W42569  35.195   7.104   3.268
76029W        W42570   7.169  20.664  10.605
76030W        W42571  32.347  30.615  14.820
76031W        W42572  44.760  34.886   4.102
76032W        W42573   4.211  43.502  14.241
76033W        W42574  42.880  30.921   1.866
76034W        W42575  32.472  27.668   4.508
76035W        W42576  10.404  39.002   5.262
76036W        W42577  39.087  37.603  10.648
76037W        W42578  36.044  17.395   1.863
76038W        W42579  10.202  18.742   0.647
76039W        W42580  24.173  40.816   4.092
76040W        W42581   8.251  22.800   4.465
76041W        W42582  13.692  19.603   4.294
76042W        W42583  30.835  41.968  13.133
76043W        W42584  24.625   6.351   0.436
76044W        W42585  24.992  25.155  13.415
76045W        W42586  13.557   3.346  14.517
76046W        W42587   6.064  30.708   0.365
76047W        W42588  28.596  27.009  12.556
76048W        W42589  29.548  32.227  10.249
76049W        W42590  39.305  15.278   0.381
76050W        W42591  23.711   8.385   3.848
76051W        W42592  24.045   2.154   1.919
76052W        W42593  16.852  23.108  13.975
76053W        W42594  30.371  21.562   3.763
76054W        W42595  14.741   2.741   2.410
76055W        W42596  18.302   8.750   2.832
76056W        W42597  13.635  34.575   2.792
76057W        W42598   1.282  16.553   1.901
76058W        W42599   1.068  20.611   2.383
76059W        W42600  12.354  37.014  11.261
76060W        W42601  42.016  43.724  13.886
76061W        W42602  22.184  30.322  12.143
76062W        W42603  34.940  11.700  10.642
76063W        W42604   5.728  27.176  12.934
76064W        W42605   3.730  38.803   2.773
76065W        W42606   7.651  43.850  14.040
76066W        W42607  21.607  28.473  11.659
76067W        W42608  29.304   9.280   4.574
76068W        W42609  18.292  23.498  10.737
76069W        W42610  37.446  17.657   4.030
76070W        W42611   9.482  19.617  12.932
76071W        W42612   4.242  31.170  13.405
76072W        W42613  13.694   2.280  11.135
76073W        W42614  39.330  27.005   3.814
76074W        W42615  30.535  40.638   1.486
76075W        W42616  14.160  34.799  13.973
76076W        W42617   1.983  26.451   1.096
76077W        W42618   9.993  35.062  11.649
76078W        W42619   1.976  31.475  10.707
76079W        W42620   4.460  44.572   1.961
76080W        W42621   6.239   7.662  10.500
76081W        W42622  38.423   9.683  11.448
76082W        W42623   3.383  23.105   0.509
76083W        W42624  19.740  42.110  11.113
76084W        W42625  19.688  39.966   0.901
76085W        W42626  44.002  24.556  12.951
76086W        W42627  38.275   5.919   0.161
76087W        W42628  13.525   6.316   4.834
76088W        W42629  44.507  20.755  11.551
76089W        W42630  42.901  22.173   4.542
76090W        W42631  36.233  20.188  12.527
76091W        W42632  27.133   2.358   0.979
76092W        W42633  17.846  24.596  14.392
76093W        W42634  17.019   8.200  12.961
76094W        W42635  34.830   8.595  13.531
76095W        W42636  28.967  44.447  14.307
76096W        W42637  16.406  30.931   2.318
76097W        W42638  27.162  37.803   3.095
76098W        W42639  14.316  21.514  12.482
76099W        W42640  13.206   0.400  14.739
76100W        W42641   3.851  22.927   5.018
76101W        W42642  39.378  21.174  14.306
76102W        W42643   2.460  29.047  13.459
76103W        W42644  10.316  27.070   2.925
76104W        W42645  38.333   5.210   2.777
76105W        W42646  18.801  11.882  12.790
76106W        W42647  17.749  18.135   0.839
76107W        W42648  25.763  16.294  10.635
76108W        W42649   3.295   4.523   0.447
76109W        W42650  17.617  15.525   2.751
76110W        W42651  12.268  23.432   1.854
76111W        W42652   4.274  34.211   3.024
76112W        W42653   3.002  35.509  11.892
76113W        W42654   6.996  23.589  14.015
76114W        W42655  27.896  15.475  14.957
76115W        W42656  32.516  25.250   4.506
76116W        W42657  41.538  18.736  12.103
76117W        W42658   0.797  39.556  14.831
76118W        W42659  40.329  35.098  13.808
76119W        W42660  39.069  27.042  14.391
76120W        W42661  22.072  23.783   4.313
76121W        W42662   4.302  36.831  10.827
76122W        W42663   2.235  43.171   1.476
76123W        W42664  13.158  13.624   0.061
76124W        W42665  25.206   2.750  14.403
76125W        W42666  12.207  16.382  12.172
76126W        W42667   9.708  27.529  11.261
76127W        W42668   8.876  11.435  13.392
76128W        W42669   4.943  26.615   2.205
76129W        W42670   8.713  19.959   1.248
76130W        W42671  16.195   3.057   1.656
76131W        W42672  27.643  40.663   3.893
76132W        W42673   3.863  21.012   1.375
76133W        W42674  40.870   9.618  11.427
76134W        W42675  40.028  25.561   3.996
76135W        W42676   1.459  34.031   0.178
76136W        W42677  16.090  37.011  11.785
76137W        W42678  22.570  43.873   4.028
76138W        W42679  22.194   4.868  12.487
76139W        W42680  10.334   1.699  11.976
76140W        W42681  20.938  10.618   4.149
76141W        W42682   0.209  19.620   4.680
76142W        W42683   6.224  36.084  12.437
76143W        W42684  32.590  26.209   0.439
76144W        W42685   5.270  19.587  13.492
76145W        W42686  23.557   3.393   1.029
76146W        W42687  37.869  34.930   3.278
76147W        W42688  23.700  10.983   1.120
76148W        W42689  35.511  24.578   1.135
76149W        W42690  34.675  13.847  12.540
76150W        W42691  41.673  22.191  13.463
76151W        W42692  10.842  14.562  12.805
76152W        W42693  16.654  13.665  10.522
76153W        W42694   7.676   7.421   3.918
76154W        W42695  23.187   9.926   4.522
76155W        W42696  44.158  23.033  11.779
76156W        W42697  27.612  26.061   0.416
76157W        W42698  32.181  32.998  11.026
76158W        W42699  15.876  18.787  11.158
76159W        W42700  38.881  10.756   2.321
76160W        W42701  15.155   1.339  13.769
76161W        W42702  19.453  42.909   2.181
76162W        W42703   2.730   2.148  11.830
76163W        W42704   4.346   5.229   4.161
76164W        W42705  37.671  37.977   1.700
76165W        W42706   2.862  30.118  12.450
76166W        W42707   6.745  33.084  11.605
76167W        W42708   6.295  31.832  14.005
76168W        W42709   8.767  17.810  14.205
76169W        W42710  23.962  11.710   2.233
76170W        W42711  24.061  38.929   3.395
76171W        W42712  17.201  31.007   1.922
76172W        W42713   3.489  31.082   0.780
76173W        W42714  24.013   6.901  14.931
76174W        W42715   9.884  11.025   2.648
76175W        W42716  18.872  16.924  11.977
76176W        W42717  32.438  24.665   3.168
76177W        W42718   0.292  43.040  13.100
76178W        W42719  34.930  41.310  10.692
76179W        W42720  17.903  12.787  11.053
76180W        W42721  38.450   4.937   0.451
76181W        W42722  33.942  17.187   4.974
76182W        W42723  41.426  27.101   0.900
76183W        W42724   4.723  21.198  14.420
76184W        W42725  11.749  31.603  14.088
76185W        W42726  33.032  31.440   4.664
76186W        W42727  27.910  17.073   0.841
76187W        W42728  39.818  39.305   2.544
76188W        W42729  28.558  28.890   0.731
76189W        W42730   8.575  40.777   3.391
76190W        W42731  13.630  36.539   2.368
76191W        W42732  11.860  13.928   0.328
76192W        W42733  20.785  11.125   2.815
76193W        W42734   8.773  37.932  10.258
76194W        W42735  32.376  26.681  13.447
76195W        W42736  29.502  43.528  11.944
76196W        W42737  24.399  11.509  13.592
76197W        W42738  35.936  37.493  11.753
76198W        W42739  29.038  42.484  13.156
76199W        W42740  37.969  36.827  13.123
76200W        W42741   6.395  40.002  13.606
76201W        W42742   0.899  36.567   0.658
76202W        W42743  16.103   6.237  14.926
76203W        W42744  38.045  23.091  10.525
76204W        W42745  43.477  17.568   3.708
76205W        W42746  18.578  17.194   2.692
76206W        W42747  10.965  13.085   3.713
76207W        W42748   7.719   8.012  12.015
76208W        W42749   5.365  26.808   1.009
76209W        W42750  29.196  37.694   5.016
76210W        W42751  27.175  12.352   3.286
76211W        W42752  13.793   6.762   4.814
76212W        W42753  17.269  36.002  11.949
76213W        W42754  43.376  31.411  11.547
76214W        W42755   4.822  42.191   2.262
76215W        W42756  29.225   3.839   4.587
76216W        W42757  32.105  19.016  11.611
76217W        W42758  26.959  23.626   3.240
76218W        W42759  40.440  32.051   0.944
76219W        W42760  44.234  17.556  12.868
76220W        W42761  30.103  25.737  13.566
76221W        W42762  36.892  17.709  12.973
76222W        W42763  15.161   3.969   2.258
76223W        W42764  17.315  12.753   4.191
76224W        W42765   2.503  33.573   1.056
76225W        W42766  12.587  36.303   0.892
76226W        W42767   9.664   0.647   0.944
76227W        W42768  18.765  41.884  10.801
76228W        W42769   5.646  23.222  11.852
76229W        W42770   6.221  41.078  10.650
76230W        W42771  12.285  23.991  11.792
76231W        W42772  21.704  10.218  11.160
76232W        W42773  34.620  10.378   3.333
76233W        W42774   9.293  19.649   3.539
76234W        W42775  35.120  43.908   3.289
76235W        W42776  40.225  37.060   1.245
76236W        W42777  15.232  23.280   2.432
76237W        W42778  17.345  26.377   2.715
76238W        W42779   9.978  38.471  10.714
76239W        W42780   8.262  13.156  12.393
76240W        W42781   9.169  19.716   1.160
76241W        W42782   9.138  43.690   2.252
76242W        W42783  20.285  14.353   1.403
76243W        W42784  44.570  26.186   3.133
76244W        W42785  11.566  19.929   3.142
76245W        W42786  42.222  31.145   4.093
76246W        W42787   3.694   3.454   3.254
76247W        W42788  16.062  19.816  12.568
76248W        W42789   1.444  31.126   2.365
76249W        W42790  41.220  35.108  11.996
76250W        W42791  23.022   5.492  14.945
76251W        W42792  42.564   7.674  14.750
76252W        W42793  34.957  30.401  13.274
76253W        W42794  37.821  32.119   3.069
76254W        W42795  27.709  23.642  12.044
76255W        W42796  31.134  11.828   2.747
76256W        W42797   7.693  31.822   0.482
76257W        W42798  17.783  13.273   0.715
76258W        W42799   3.169  12.246  11.180
76259W        W42800  26.874  29.048  12.516
76260W        W42801  18.171  18.212   0.451
76261W        W42802  32.856  40.498  12.489
76262W        W42803  39.393  18.918   1.807
76263W        W42804  27.556  11.444  10.669
76264W        W42805  26.933  44.482  10.948
76265W        W42806  35.447  40.243   3.273
76266W        W42807  14.775  20.010   4.713
76267W        W42808  31.115  22.612   3.269
76268W        W42809  37.075   4.929   0.485
76269W        W42810  21.532  24.998   3.792
76270W        W42811  13.048  36.253  14.896
76271W        W42812   5.873  40.146  14.980
76272W        W42813  39.879  37.631  12.977
76273W        W42814  12.165   5.946  14.117
76274W        W42815  36.603  19.792  12.030
76275W        W42816  13.460  44.415  10.802
76276W        W42817  26.755  17.189   5.052
76277W        W42818   9.881  26.113   2.156
76278W        W42819  24.903   4.169   2.361
76279W        W42820  34.359  35.084  11.464
76280W        W42821   7.126  28.107  13.997
76281W        W42822  26.993  22.807   1.449
76282W        W42823  39.564   3.056  13.365
76283W        W42824  42.869  18.076   1.339
76284W        W42825  34.532   5.634  14.007
76285W        W42826   7.774  44.401   2.679
76286W        W42827  39.844   9.393   1.820
76287W        W42828   2.915  15.689  10.194
76288W        W42829  17.170   9.693  10.644
76289W        W42830  24.101  38.670  12.091
76290W        W42831   6.624   5.922  12.799
76291W        W42832  36.869   1.222  10.735
76292W        W42833  31.486  23.988  12.172
76293W        W42834  31.266  16.497   0.860
76294W        W42835  40.125  26.654   3.721
76295W        W42836  17.531  11.485  11.808
76296W        W42837   3.384  26.225  13.142
76297W        W42838  17.270  32.598  12.156
76298W        W42839  44.291   7.927  12.372
76299W        W42840  20.918  30.653  12.613
76300W        W42841  38.950  20.044   2.440
76301W        W42842  15.161  31.960   4.567
76302W        W42843   3.355  12.407   2.910
76303W        W42844  34.368  41.740  14.773
76304W        W42845  26.447   3.314  13.858
76305W        W42846  38.812  38.638   0.728
76306W        W42847  31.603  39.097   0.289
76307W        W42848  15.295  36.535   4.783
76308W        W42849  23.423  38.508  12.185
76309W        W42850  24.240  35.906   1.718
76310W        W42851   0.360  27.600   1.205
76311W        W42852  35.119  27.091  11.522
76312W        W42853  33.877  33.421   3.583
76313W        W42854  25.053   7.132  12.807
76314W        W42855  34.237  43.901  13.871
76315W        W42856   2.759  43.945  11.976
76316W        W42857   7.753   0.237  13.812
76317W        W42858  42.413  39.899   1.852
76318W        W42859   2.722  31.376  12.852
76319W        W42860  44.547   7.153  10.475
76320W        W42861   9.917  32.647   2.240
76321W        W42862  16.347  19.103  13.863
76322W        W42863   2.846  23.731   2.240
76323W        W42864  43.519  13.156  11.565
76324W        W42865  16.269  38.242  14.213
76325W        W42866  11.666  12.350   0.372
76326W        W42867  32.257  28.963  14.888
76327W        W42868  16.244  36.140  11.564
76328W        W42869  26.063   0.857   4.419
76329W        W42870  14.079  41.619   3.257
76330W        W42871   1.691  42.896   4.616
76331W        W42872  26.871  21.725  11.148
76332W        W42873  20.771  36.963  13.919
76333W        W42874  24.734  33.899  10.979
76334W        W42875  33.544  42.246   3.801
76335W        W42876  43.026  19.072  14.756
76336W        W42877  41.739  30.489   3.749
76337W        W42878  20.885  31.077   5.101
76338W        W42879  18.746  23.541   2.152
76339W        W42880  12.917  38.523  10.889
76340W        W42881  16.574  17.898  12.638
76341W        W42882  15.668  13.617   4.696
76342W        W42883  11.323   9.831   2.638
76343W        W42884  35.371  24.555  14.294
76344W        W42885   1.794   6.391   0.865
76345W        W42886  18.759  30.913   3.506
76346W        W42887  15.746   2.938   3.657
76347W        W42888   1.921  36.664   2.883
76348W        W42889   3.720  20.572  12.923
76349W        W42890  41.826  40.435  14.968
76350W        W42891  20.350   7.647   1.352
76351W        W42892  26.209  38.007   1.222
76352W        W42893  33.071  24.385   0.450
76353W        W42894  13.680  33.107  13.016
76354W        W42895   1.073  25.710   2.707
76355W        W42896  20.143  11.289  12.496
76356W        W42897  15.776  35.656   4.186
76357W        W42898   4.678  32.001   9.736
76358W        W42899  25.913  20.079  11.428
76359W        W42900  23.713  34.874  10.954
76360W        W42901   7.083  17.803  11.698
76361W        W42902  34.862  20.087   2.978
76362W        W42903   0.725  25.574   1.668
76363W        W42904  31.080  30.152  10.683
76364W        W42905  36.585  39.774  14.379
76365W        W42906  25.502   0.509  10.343
76366W        W42907  43.544  31.437  14.222
76367W        W42908   0.119  41.593   0.408
76368W        W42909  38.567   5.774   3.153
76369W        W42910  13.113  18.762  12.004
76370W        W42911   3.968  39.289  14.901
76371W        W42912  44.126  25.908   1.819
76372W        W42913   1.777  33.918   1.351
76373W        W42914   3.833  41.978   4.872
76374W        W42915  33.481  20.102  13.124
76375W        W42916  32.612  36.912  14.420
76376W        W42917  26.527   7.884  12.189
76377W        W42918   2.155  13.158   0.788
76378W        W42919  23.292   5.814   2.591
76379W        W42920  32.102  43.323   1.811
76380W        W42921  13.706  13.220  14.653
76381W        W42922  38.855  40.332  10.748
76382W        W42923  29.992  34.440  14.176
76383W        W42924  30.630  42.814  13.499
76384W        W42925  12.732  36.312   4.584
76385W        W42926  42.291  39.089   2.268
76386W        W42927   6.040   4.374  11.507
76387W        W42928  42.369   3.022  11.616
76388W        W42929  34.876  22.776  14.037
76389W        W42930   3.553   6.115  12.539
76390W        W42931  34.399  20.323  11.130
76391W        W42932   0.709  18.182   4.740
76392W        W42933  12.166  16.328  13.532
76393W        W42934  14.704  20.124  13.858
76394W        W42935  41.295  31.034  13.453
76395W        W42936  18.025  20.267  12.485
76396W        W42937  35.819  36.331   1.791
76397W        W42938  38.174  10.307   4.027
76398W        W42939  35.680  28.185  11.569
76399W        W42940   4.104  42.277  13.482
76400W        W42941  33.533  20.072   1.500
76401W        W42942   1.483  44.331   2.775
76402W        W42943  24.917  28.998  14.115
76403W        W42944  16.716  38.536  14.368
76404W        W42945  28.228   2.293   3.603
76405W        W42946   5.338  38.117  12.186
76406W        W42947  34.557  22.619   0.369
76407W        W42948  13.677  24.539   2.202
76408W        W42949   4.653  14.175  11.183
76409W        W42950  17.842   3.917  11.273
76410W        W42951  43.175  18.293  11.420
76411W        W42952  43.024  22.145  10.693
76412W        W42953  31.703  23.220   0.008
76413W        W42954  38.791  24.093  14.313
76414W        W42955  26.259  13.678   2.791
76415W        W42956  11.735  21.731   3.353
76416W        W42957  27.018  11.116  11.454
76417W        W42958  21.533  31.086  13.021
76418W        W42959  20.933  42.231  10.677
76419W        W42960   4.394  31.013   1.753
76420W        W42961   6.309   0.147   1.926
76421W        W42962  37.871   5.615  10.739
76422W        W42963  24.699  20.091   3.366
76423W        W42964   5.658  39.354   0.495
76424W        W42965  41.368  37.513   1.232
76425W        W42966  23.004  36.932  14.527
76426W        W42967   4.956  32.051  12.993
76427W        W42968  37.568  18.810  11.697
76428W        W42969   5.157  42.386  12.321
76429W        W42970   1.470  43.434  10.751
76430W        W42971   5.172  42.859  12.947
76431W        W42972  35.429  24.693  13.362
76432W        W42973  34.576  31.571  14.806
76433W        W42974  11.150  40.464   2.808
76434W        W42975  13.340  15.758   0.811
76435W        W42976  34.211  21.241   2.023
76436W        W42977  35.893  38.534  13.168
76437W        W42978  11.540  34.535  13.507
76438W        W42979  29.136   8.897  11.106
76439W        W42980  23.509   4.765   1.185
76440W        W42981  13.402  39.386  12.236
76441W        W42982  20.072  16.965  12.908
76442W        W42983   3.690  11.665   4.769
76443W        W42984   4.884  17.321  14.416
76444W        W42985  37.016   3.989   0.724
76445W        W42986  25.109  22.536   0.288
76446W        W42987   8.711   8.205  14.148
76447W        W42988  14.094  42.041   0.113
76448W        W42989   8.330   3.884   3.187
76449W        W42990  38.028  36.890   3.300
76450W        W42991  38.860  40.576  13.415
76451W        W42992  18.188  22.611  12.001
76452W        W42993   7.552  39.257  13.442
76453W        W42994  41.104  24.188   3.753
76454W        W42995  36.435  22.552  14.843
76455W        W42996  19.909   9.370  12.477
76456W        W42997  36.781  42.896  10.970
76457W        W42998   9.896  12.322   2.341
76458W        W42999   7.185  38.586  12.901
76459W        W43000  11.265  41.804   2.518
76460W        W43001  41.647  19.642   4.565
76461W        W43002  38.029   0.709   1.438
76462W        W43003   7.510  25.023  14.626
76463W        W43004  15.115  28.309  13.397
76464W        W43005  26.497  17.132   4.529
76465W        W43006  15.465  33.513  11.693
76466W        W43007  30.678  21.879   2.819
76467W        W43008   0.821   9.203   4.666
76468W        W43009  22.096  21.037   3.144
76469W        W43010  23.624   5.949   0.979
76470W        W43011   5.344  41.977   4.982
76471W        W43012  36.004  13.747   0.391
76472W        W43013  40.437   0.696  14.442
76473W        W43014  26.761  27.667   0.790
76474W        W43015   7.300   0.417   1.858
76475W        W43016  39.367  21.131  10.890
76476W        W43017  18.802  30.474   4.733
76477W        W43018  25.093   8.570   3.310
76478W        W43019  35.735   1.392   0.348
76479W        W43020   6.815   2.206   1.338
76480W        W43021   8.348  31.952  10.628
76481W        W43022  17.989  32.427  14.074
76482W        W43023   4.792  32.146   4.662
76483W        W43024  20.665  19.256   2.792
76484W        W43025  32.228  27.649  11.209
76485W        W43026   8.928  13.987   0.421
76486W        W43027  13.790   2.813  10.638
76487W        W43028  33.559   8.086   0.761
76488W        W43029   7.519  13.640   4.423
76489W        W43030  10.963  32.409   0.905
76490W        W43031   0.109  21.833   2.786
76491W        W43032   0.737  27.499   3.716
76492W        W43033  16.033  33.714   3.651
76493W        W43034  37.877  37.266   5.241
76494W        W43035  25.505  27.106   3.968
76495W        W43036  33.296  11.788  12.152
76496W        W43037  43.025  33.467  12.241
76497W        W43038  11.683  29.128   4.937
76498W        W43039  44.326  28.509   2.263
76499W        W43040  38.506   1.889   3.801
76500W        W43041  38.546  20.251  13.855
76501W        W43042  22.908  28.292   3.318
76502W        W43043  14.869  41.439  10.731
76503W        W43044   4.817  24.418  10.884
76504W        W43045  34.452  42.814   4.149
76505W        W43046  17.144   7.102   3.358
76506W        W43047  24.897   0.507  14.772
76507W        W43048   4.161  39.471   3.791
76508W        W43049  16.288  17.250  14.304
76509W        W43050   5.728  35.536   3.003
76510W        W43051  41.433  31.694  14.255
76511W        W43052  27.441  43.888  13.909
76512W        W43053   5.035  38.682   5.654
76513W        W43054  35.209  44.597  12.301
76514W        W43055  25.727  36.867  13.222
76515W        W43056  34.394  41.065  13.443
76516W        W43057  11.764  17.244   0.211
76517W        W43058   7.935  10.668  12.551
76518W        W43059  22.710  23.674   1.507
76519W        W43060  41.854   9.993  12.188
76520W        W43061  26.494  34.822  14.356
76521W        W43062  26.694  30.142   4.647
76522W        W43063   4.039   0.717   0.424
76523W        W43064  25.743  31.486   0.356
76524W        W43065   9.483  27.178  11.545
76525W        W43066  32.174  11.609   1.802
76526W        W43067  44.929  28.809  12.468
76527W        W43068  13.127  16.027  13.311
76528W        W43069  32.669  16.203   2.235
76529W        W43070   4.060  15.609   0.889
76530W        W43071  43.752  25.665   2.141
76531W        W43072  22.962  26.688  12.994
76532W        W43073  42.871   5.539   3.045
76533W        W43074  41.531  29.665  13.674
76534W        W43075  43.289  39.046   0.354
76535W        W43076   9.761  24.643   0.173
76536W        W43077  22.703  42.312   2.305
76537W        W43078  25.790  39.126   1.989
76538W        W43079   6.208  36.479  13.628
76539W        W43080  12.081  18.460  10.576
76540W        W43081   1.926  10.343  10.343
76541W        W43082  27.457  17.557  11.544
76542W        W43083  26.056  13.359   4.592
76543W        W43084  16.180  16.373  13.328
76544W        W43085  36.386  44.924   3.245
76545W        W43086  24.920   3.816   0.367
76546W        W43087  36.517   1.701  13.806
76547W        W43088  10.859   0.984  14.568
76548W        W43089  33.652   7.252  12.599
76549W        W43090   8.358   9.437   1.716
76550W        W43091  41.040   1.756  14.882
76551W        W43092  34.591   8.277  12.475
76552W        W43093  14.203  13.357   3.763
76553W        W43094  12.271  35.422  10.703
76554W        W43095  44.702  23.993   0.570
76555W        W43096   2.354   6.227   1.160
76556W        W43097  43.394  28.675   0.726
76557W        W43098  22.045  37.979  14.826
76558W        W43099  30.978  10.898   1.065
76559W        W43100  15.694   3.819  11.644
76560W        W43101  39.720  13.425   1.624
76561W        W43102  10.806   6.233  10.740
76562W        W43103  19.835  17.660  14.430
76563W        W43104  27.422   8.472  12.980
76564W        W43105  33.290  10.791   1.367
76565W        W43106  22.503  40.325  12.876
76566W        W43107  20.074   8.062  10.273
76567W        W43108  15.165  11.457  10.597
76568W        W43109  28.927  27.457   2.263
76569W        W43110  43.813  25.127  13.602
76570W        W43111  39.452  11.291  10.222
76571W        W43112  19.029   0.787  12.805
76572W        W43113  39.535  22.585   1.951
76573W        W43114  24.539  35.087   1.354
76574W        W43115  29.419  14.417  10.719
76575W        W43116  17.065   6.388  12.618
76576W        W43117  20.953  41.621  10.873
76577W        W43118  38.819  44.378  10.480
76578W        W43119  21.459   6.754   3.384
76579W        W43120  16.789  22.657  14.341
76580W        W43121  15.083  26.563  12.563
76581W        W43122  44.997  22.559  14.501
76582W        W43123   9.133  33.736  12.409
76583W        W43124   2.424  18.479  12.919
76584W        W43125  21.981  13.463  13.477
76585W        W43126  18.422  26.158  11.225
76586W        W43127   6.479   8.742   0.849
76587W        W43128   7.400  11.389   3.903
76588W        W43129  26.010  21.670  12.536
76589W        W43130  38.899  44.987  14.310
76590W        W43131  39.617  29.126  12.419
76591W        W43132  19.287  27.470  11.525
76592W        W43133  12.144  19.219   4.025
76593W        W43134  34.143  40.416   2.147
76594W        W43135   9.482  35.929  10.360
76595W        W43136  35.236  32.041  13.242
76596W        W43137   0.155  21.718   4.512
76597W        W43138  15.508  44.578   4.210
76598W        W43139  37.828  25.169  11.613
76599W        W43140  23.465  42.667  11.983
76600W        W43141  11.826  19.111   0.519
76601W        W43142  42.970  38.091   1.675
76602W        W43143  12.971  32.143   4.112
76603W        W43144   7.658  26.118   1.428
76604W        W43145  20.268  32.993  11.623
76605W        W43146  14.585  29.032   1.901
76606W        W43147  10.744  26.662  11.232
76607W        W43148  30.107  25.797  10.349
76608W        W43149  19.271  16.687   0.773
76609W        W43150  41.985   9.436  13.546
76610W        W43151  39.337   3.249  12.951
76611W        W43152  29.589  11.679  10.802
76612W        W43153  25.459  31.232   2.183
76613W        W43154  12.849  29.866  11.932
76614W        W43155  14.292  42.359   4.774
76615W        W43156  11.612   5.192   3.287
76616W        W43157  25.478   1.845   4.008
76617W        W43158  27.037  16.168   4.079
76618W        W43159  12.364  44.394  10.746
76619W        W43160  23.550  39.029   2.704
76620W        W43161  41.605  34.039   2.089
76621W        W43162  12.766  37.429  10.489
76622W        W43163  38.905  34.805   0.693
76623W        W43164  26.056  41.857   4.571
76624W        W43165  32.027  14.860  14.469
76625W        W43166  43.933  36.162  12.673
76626W        W43167  43.729  39.383   0.381
76627W        W43168   2.230   3.532  13.133
76628W        W43169   5.170  21.744   3.198
76629W        W43170   9.099  36.048  14.926
76630W        W43171  42.051   8.207  12.858
76631W        W43172  39.204  17.718  12.837
76632W        W43173  25.551  16.790  12.380
76633W        W43174   1.754  28.522  12.807
76634W        W43175  24.266  43.798  12.799
76635W        W43176  27.921  44.344  14.542
76636W        W43177  23.324  30.962   3.296
76637W        W43178   2.407  16.024   0.621
76638W        W43179  27.883   6.515  12.132
76639W        W43180  29.642  22.538   3.352
76640W        W43181  44.677  12.837  11.415
76641W        W43182  40.588   9.157  14.247
76642W        W43183   2.793  22.728   1.370
76643W        W43184  10.578  39.264  14.487
76644W        W43185  28.332   5.998   3.749
76645W        W43186  14.342  20.945   1.222
76646W        W43187  18.340   3.724  11.053
76647W        W43188  41.478  18.501  13.541
76648W        W43189  38.508   0.933  13.330
76649W        W43190  29.968  29.726  11.703
76650W        W43191  36.974  10.924   1.626
76651W        W43192  17.653  16.140  13.043
76652W        W43193  24.733  31.720   0.384
76653W        W43194  10.561  12.392  11.577
76654W        W43195  13.297  14.788  11.637
76655W        W43196  29.423  22.587  12.876
76656W        W43197  13.844  14.759  13.770
76657W        W43198   9.932  27.729  13.524
76658W        W43199  18.167  23.576   2.136
76659W        W43200  20.784  19.948   1.514
76660W        W43201  42.116   0.918   3.647
76661W        W43202   8.235  29.075  12.091
76662W        W43203   5.894  13.588  11.103
76663W        W43204  30.856  11.550   4.146
76664W        W43205  38.376   6.795  12.558
76665W        W43206  37.506  10.868  11.242
76666W        W43207  20.098   9.151  12.044
76667W        W43208  41.844   1.888  11.654
76668W        W43209  32.952  44.376  12.093
76669W        W43210  10.597   9.496   2.349
76670W        W43211   7.475  31.662   1.802
76671W        W43212  26.261  22.713  11.627
76672W        W43213  32.268  20.285   1.846
76673W        W43214  33.685  24.212   2.296
76674W        W43215  34.352  23.587   3.077
76675W        W43216  18.495  18.054  14.278
76676W        W43217  19.319  36.490  13.407
76677W        W43218  33.878  21.671   4.315
76678W        W43219   4.184  42.815   4.575
76679W        W43220   8.649  21.173   0.794
76680W        W43221  35.639  16.635  12.368
76681W        W43222  30.114   5.119   3.739
76682W        W43223  37.884  16.020  12.951
76683W        W43224  14.821  27.622  11.968
76684W        W43225  36.913  39.110   1.142
76685W        W43226   4.192  12.183  14.455
76686W        W43227   2.258  15.358   4.855
76687W        W43228  11.389  26.583   5.041
76688W        W43229  20.510  33.461  11.650
76689W        W43230   4.015  29.647  11.063
76690W        W43231  31.548  27.563  14.761
76691W        W43232  20.334  23.740  12.864
76692W        W43233   1.664  18.700   2.204
76693W        W43234   6.688  33.081   2.810
76694W        W43235   0.533  37.398  14.190
76695W        W43236  37.186  13.823   5.028
76696W        W43237  28.491   9.604  14.773
76697W        W43238  18.671  26.671   9.988
76698W        W43239  18.250  13.795   3.690
76699W        W43240  19.495  40.364   3.195
76700W        W43241  42.907  32.330   2.898
76701W        W43242  12.881  24.948  12.365
76702W        W43243  34.783  31.471   1.842
76703W        W43244  12.380  29.483  14.818
76704W        W43245  36.838  11.828   3.695
76705W        W43246  39.868   8.324  11.461
76706W        W43247  14.188  41.338  11.375
76707W        W43248  13.312  42.349  14.443
76708W        W43249  27.409  20.796   0.039
76709W        W43250  40.226  41.084   0.337
76710W        W43251  28.601  12.765   3.303
76711W        W43252  30.529  42.610  11.680
76712W        W43253  37.926  12.879  10.725
76713W        W43254   4.734  44.834  11.000
76714W        W43255  10.715  12.863  13.274
76715W        W43256  15.779  16.172  12.626
76716W        W43257  35.453   4.153   0.688
76717W        W43258  43.132  15.001   0.884
76718W        W43259  38.895  10.052   1.688
76719W        W43260  27.636   8.713   3.127
76720W        W43261  34.777   6.319  10.564
76721W        W43262  29.737  17.463  11.512
76722W        W43263  20.803  44.449  10.455
76723W        W43264   6.504  26.577  14.439
76724W        W43265  38.913  31.693   0.838
76725W        W43266   2.135  17.714  10.841
76726W        W43267  19.594  37.046   3.144
76727W        W43268   3.239  11.192  14.361
76728W        W43269  13.208  12.042  10.059
76729W        W43270  21.264   4.726  12.554
76730W        W43271  33.677   6.913  11.680
76731W        W43272  16.034  31.644  14.783
76732W        W43273  40.907  33.572  13.250
76733W        W43274   2.834  40.307   2.842
76734W        W43275  25.715  39.485   4.166
76735W        W43276  44.087  16.280  13.062
76736W        W43277  36.253  19.206   3.725
76737W        W43278  33.115   1.206   4.273
76738W        W43279   9.004  14.141   1.338
76739W        W43280  22.569   7.692  14.766
76740W        W43281  39.913  37.241   4.976
76741W        W43282  27.412  40.991   1.856
76742W        W43283  20.374   3.345  13.934
76743W        W43284  29.175  38.465  12.523
76744W        W43285   3.503  18.489   2.378
76745W        W43286  22.912  15.821  13.011
76746W        W43287  23.502   4.294  10.762
76747W        W43288  27.212   9.428  13.069
76748W        W43289  26.083   4.449   0.260
76749W        W43290  30.780  32.145   0.014
76750W        W43291  12.671  10.413  14.476
76751W        W43292   4.223   8.395   4.529
76752W        W43293  14.209   8.022  10.756
76753W        W43294  40.969  43.114  14.526
76754W        W43295   0.471  25.625  11.629
76755W        W43296  29.446  35.662  11.642
76756W        W43297  17.244  16.705  11.298
76757W        W43298   7.284   7.098  10.471
76758W        W43299  43.940  16.743   1.215
76759W        W43300  10.184  39.038  12.999
76760W        W43301   0.548   6.948  10.596
76761W        W43302   1.033  40.622   1.999
76762W        W43303  14.652   8.883   4.565
76763W        W43304  38.968  14.101   3.228
76764W        W43305  25.958  24.160   2.264
76765W        W43306   7.112  29.012   2.713
76766W        W43307  15.667   6.752   0.744
76767W        W43308  23.757  35.443   0.544
76768W        W43309  15.614   9.229  12.838
76769W        W43310  27.478  17.479  12.554
76770W        W43311  30.109  18.463  11.132
76771W        W43312   7.641   9.387  13.400
76772W        W43313  15.505  26.153   5.072
76773W        W43314   4.974  44.787  13.821
76774W        W43315   1.081   4.801  10.618
76775W        W43316  24.135   3.062  12.641
76776W        W43317  10.102   3.100  11.444
76777W        W43318  10.401  16.010   1.708
76778W        W43319  21.293  25.055   0.992
76779W        W43320  31.173   2.211   4.107
76780W        W43321   0.965  10.634  13.452
76781W        W43322  18.891  31.185  11.537
76782W        W43323  44.577  39.620   0.992
76783W        W43324  21.570  31.818  14.147
76784W        W43325  22.973  14.574  12.986
76785W        W43326  19.298   2.105   3.281
76786W        W43327   0.954  23.888  10.154
76787W        W43328  37.633   0.822  12.997
76788W        W43329   3.826  43.018   0.725
76789W        W43330  34.492   6.528  12.466
76790W        W43331  17.139   8.867  10.050
76791W        W43332  39.340  30.114  13.530
76792W        W43333  14.175  35.601   3.274
76793W        W43334  14.840  24.757   4.121
76794W        W43335  41.943   6.465  13.795
76795W        W43336  39.926  33.363  11.342
76796W        W43337  13.011  35.964   0.313
76797W        W43338  38.943  44.985   3.748
76798W        W43339  26.140  40.951  13.774
76799W        W43340   7.463  20.548   0.112
76800W        W43341  41.520  37.736   0.772
76801W        W43342  38.741  44.799  14.767
76802W        W43343   7.984  23.981  10.296
76803W        W43344  26.125   2.343  11.025
76804W        W43345  38.646  28.103   1.869
76805W        W43346  42.690  11.397   1.170
76806W        W43347  21.137  44.639  14.249
76807W        W43348  29.921  10.131  12.549
76808W        W43349  10.380   9.018   2.331
76809W        W43350   5.705   6.374  11.866
76810W        W43351  43.283   1.966  11.660
76811W        W43352  16.100  24.981   2.232
76812W        W43353   7.863   0.021  11.598
76813W        W43354  12.536  43.260   1.836
76814W        W43355   7.607   1.914   1.300
76815W        W43356  24.607   9.749   2.875
76816W        W43357  16.198  36.465   2.010
76817W        W43358  38.904  44.923  12.452
76818W        W43359  20.564  34.899  14.834
76819W        W43360  26.103  43.678  11.203
76820W        W43361   4.023  32.934  12.103
76821W        W43362   7.466  20.493  14.299
76822W        W43363  18.713  27.206  11.024
76823W        W43364  32.663  30.401   1.805
76824W        W43365  13.355  21.523  14.710
76825W        W43366  42.189  12.307   4.271
76826W        W43367   4.753  22.971   4.049
76827W        W43368   0.359  12.687   1.213
76828W        W43369  20.003  35.899  14.432
76829W        W43370  39.854   9.367  10.710
76830W        W43371   0.808  26.253  11.084
76831W        W43372  37.045  17.438  13.412
76832W        W43373   6.009  25.339   1.276
76833W        W43374  14.058   5.045   4.485
76834W        W43375  27.970  24.981   2.585
76835W        W43376  25.966   0.940  14.018
76836W        W43377  44.468  17.374   1.683
76837W        W43378  35.858  37.943  11.535
76838W        W43379  38.739  38.845   1.836
76839W        W43380   2.346  13.291  11.836
76840W        W43381  44.947   0.455  11.222
76841W        W43382   4.135  44.940   0.860
76842W        W43383  25.010  40.998  12.097
76843W        W43384   9.976  11.390  11.079
76844W        W43385  20.317   8.294   0.833
76845W        W43386  17.007   7.805  14.050
76846W        W43387  39.386  23.989   4.546
76847W        W43388   7.472  10.380   1.216
76848W        W43389  27.606  15.993  10.512
76849W        W43390  26.696  31.288  13.842
76850W        W43391   1.772  14.604  12.912
76851W        W43392   5.844  40.410  11.212
76852W        W43393  11.801   1.985   4.485
76853W        W43394  21.885  38.850   1.313
76854W        W43395  43.680   2.309  11.768
76855W        W43396  27.263  12.907   1.723
76856W        W43397  31.909  20.639   4.136
76857W        W43398  18.659  35.493   4.096
76858W        W43399  39.118   3.764  14.922
76859W        W43400  28.099   9.330  13.592
76860W        W43401  15.867   2.071  11.131
76861W        W43402  37.542   7.676  14.770
76862W        W43403  13.089  41.662   5.257
76863W        W43404  37.994  33.486  12.639
76864W        W43405   9.552   9.113  13.114
76865W        W43406  44.463  32.388   4.577
76866W        W43407  16.789  38.756   0.269
76867W        W43408   8.870   8.552  12.366
76868W        W43409  33.855   5.443   3.856
76869W        W43410  19.745  23.431   1.816
76870W        W43411  10.029  29.864   2.783
76871W        W43412   9.928   9.743   3.625
76872W        W43413  27.766  27.429   0.763
76873W        W43414  33.860  31.562   1.907
76874W        W43415  41.343  35.022  10.701
76875W        W43416   3.310  28.479   1.795
76876W        W43417  23.290   8.354  14.973
76877W        W43418  38.282  27.606   0.084
76878W        W43419  21.480  10.657  11.024
76879W        W43420  29.241  11.360   2.985
76880W        W43421  23.732  23.605  10.636
76881W        W43422  14.048  16.210  10.691
76882W        W43423  19.286  21.033   3.664
76883W        W43424  31.312  40.621   0.423
76884W        W43425  18.545   7.777  11.905
76885W        W43426  30.855   9.285   3.524
76886W        W43427  29.932  21.624  13.761
76887W        W43428   7.734  12.716  13.432
76888W        W43429  43.887  41.980  12.434
76889W        W43430  25.162   7.827   2.386
76890W        W43431   6.388  39.523   3.804
76891W        W43432   3.365  21.139   3.002
76892W        W43433  43.533  35.722  11.140
76893W        W43434   3.316  33.546   2.070
76894W        W43435  21.478   4.839   5.512
76895W        W43436  29.099  28.913  11.531
76896W        W43437  35.476  14.238   1.750
76897W        W43438  35.068  34.377   3.648
76898W        W43439  20.310  18.041  12.049
76899W        W43440  23.622  40.019  14.487
76900W        W43441  20.198  11.178   0.628
76901W        W43442  40.963  33.110  11.531
76902W        W43443  35.672  44.959   2.471
76903W        W43444  36.938  18.793  14.780
76904W        W43445  34.042  43.260  14.463
76905W        W43446  17.396  10.760   2.202
76906W        W43447  19.175   3.613   4.381
76907W        W43448  44.572  11.352   1.353
76908W        W43449  19.776  36.122   3.743
76909W        W43450  36.385  17.641   0.911
76910W        W43451  44.238  30.366   4.455
76911W        W43452  43.748  14.981   1.593
76912W        W43453  23.530  19.600  13.981
76913W        W43454  25.255  42.476   0.223
76914W        W43455  18.999  34.125   0.244
76915W        W43456  26.528   8.416   4.223
76916W        W43457  26.456  15.723  11.984
76917W        W43458  36.009  12.046  10.662
76918W        W43459  19.833  32.670  11.666
76919W        W43460  25.039  25.643  13.037
76920W        W43461  19.301  11.103  13.306
76921W        W43462   3.941  43.373  12.187
76922W        W43463   9.172  20.532  14.596
76923W        W43464  10.390  20.702  14.927
76924W        W43465   5.135  31.889  13.562
76925W        W43466  22.130   7.657  12.244
76926W        W43467  44.889   8.852  11.214
76927W        W43468  32.546  29.571   0.880
76928W        W43469  16.068   6.523   4.197
76929W        W43470   3.479  44.343  14.093
76930W        W43471   0.311  22.198  13.891
76931W        W43472  19.764  12.048   3.229
76932W        W43473   5.697  11.761  10.758
76933W        W43474  43.220  43.971  13.463
76934W        W43475  21.034   4.615  12.105
76935W        W43476  31.207  39.522  13.330
76936W        W43477  35.274  12.103  11.999
76937W        W43478   2.699  35.083  12.018
76938W        W43479  13.144  12.898  10.308
76939W        W43480  15.579  28.734   2.745
76940W        W43481  21.445  33.921   1.215
76941W        W43482  41.190  19.433   4.354
76942W        W43483  44.444  10.411   4.096
76943W        W43484  37.489  23.190   2.261
76944W        W43485  44.477  26.868  12.478
76945W        W43486  36.550   8.967  11.396
76946W        W43487  11.409   1.840   2.568
76947W        W43488  29.164  42.933  12.342
76948W        W43489  17.981   0.843  12.054
76949W        W43490  44.231  41.395  12.798
76950W        W43491  23.765   8.442   4.923
76951W        W43492  20.860   2.067  10.424
76952W        W43493   4.296  26.523   2.814
76953W        W43494   8.284  10.138   2.401
76954W        W43495  39.763  42.521  11.175
76955W        W43496  38.742  20.558  14.323
76956W        W43497  41.397  11.736   3.278
76957W        W43498   2.854  20.612  12.634
76958W        W43499   0.415  25.051  14.055
76959W        W43500  10.743   0.281  11.319
76960W        W43501  41.423  21.726   1.402
76961W        W43502  42.490  26.687   1.865
76962W        W43503   6.298  12.340  12.055
76963W        W43504  36.327  14.670  10.654
76964W        W43505  39.051  33.673  14.397
76965W        W43506  11.052  29.163  13.009
76966W        W43507  40.997  21.738   3.913
76967W        W43508  30.225  41.327   0.726
76968W        W43509   4.360  31.422  13.924
76969W        W43510  14.160  40.548   4.730
76970W        W43511  17.078  17.447   0.726
76971W        W43512  34.707  43.709   4.242
76972W        W43513  35.336  32.006   2.415
76973W        W43514  13.297  26.517  10.303
76974W        W43515   6.333  11.967   4.449
76975W        W43516  29.177  22.830   2.704
76976W        W43517  20.993  32.570  11.375
76977W        W43518  23.256  26.390   1.345
76978W        W43519  27.600  15.326  12.407
76979W        W43520   2.608  28.532  14.814
76980W        W43521  41.480  17.764  12.856
76981W        W43522  31.424   5.983   3.571
76982W        W43523  17.004   9.761  14.874
76983W        W43524   1.957  12.911   0.366
76984W        W43525  25.591  35.081   1.447
76985W        W43526  37.497  12.685   3.639
76986W        W43527  12.142   5.198  10.249
76987W        W43528   2.780  34.281  11.771
76988W        W43529  25.331   8.612  14.504
76989W        W43530  38.564  18.353  10.748
76990W        W43531  38.788  15.326  11.121
76991W        W43532  41.378  40.482   3.579
76992W        W43533  37.318  32.506   2.430
76993W        W43534  34.912  12.605  12.475
76994W        W43535   0.816  38.287  13.356
76995W        W43536  24.706  11.077   2.039
76996W        W43537  12.022  44.802   2.185
76997W        W43538   4.228  22.216   1.690
76998W        W43539  29.696   7.661  13.642
76999W        W43540   6.016  19.178   2.599
77000W        W43541  30.212  10.965  14.344
77001W        W43542   0.460  36.892  12.076
77002W        W43543  13.226  28.165  14.283
77003W        W43544  40.580  38.593  12.084
77004W        W43545  20.698   3.751   1.922
77005W        W43546   7.711  10.651  14.506
77006W        W43547  36.906  34.533  10.967
77007W        W43548  26.586  33.948   0.414
77008W        W43549  41.986  13.831  13.372
77009W        W43550   9.751  36.225   0.501
77010W        W43551   6.355  31.003   1.635
77011W        W43552  10.793   0.796   1.099
77012W        W43553  44.687   1.220   4.756
77013W        W43554   4.560   7.100   4.652
77014W        W43555  36.765  23.132  13.521
77015W        W43556  32.718   3.413   3.227
77016W        W43557  42.786  39.993  10.995
77017W        W43558  19.800   8.439   2.364
77018W        W43559  22.061  26.751  13.851
77019W        W43560   4.027  22.657  11.540
77020W        W43561  27.602  14.726  11.058
77021W        W43562   6.652  41.035  12.527
77022W        W43563  30.479  17.374  14.941
77023W        W43564  25.961  44.005   1.191
77024W        W43565   5.792  31.414  11.549
77025W        W43566  22.146  10.783  12.096
77026W        W43567  37.894  23.183   3.644
77027W        W43568  14.836  32.900  11.236
77028W        W43569  23.481  31.946  13.855
77029W        W43570  30.466  26.007  13.308
77030W        W43571  40.736  39.552  13.405
77031W        W43572   2.462  41.954  14.329
77032W        W43573  31.614  22.629   3.191
77033W        W43574  21.993  15.309   9.788
77034W        W43575  34.814  15.746  12.417
77035W        W43576  44.894   9.371  11.630
77036W        W43577  30.016  16.859  12.808
77037W        W43578  30.611  41.249   2.330
77038W        W43579  25.902  25.587   2.225
77039W        W43580  22.960  18.265  12.718
77040W        W43581  39.537  44.494   2.527
77041W        W43582  26.675  19.161   4.251
77042W        W43583  16.093  31.575  13.401
77043W        W43584  36.874  19.529   0.947
77044W        W43585   6.691  28.964   1.270
77045W        W43586  33.621  16.751   1.034
77046W        W43587  23.685  43.426   3.518
77047W        W43588  29.540  13.796  11.524
77048W        W43589  22.621  36.381  12.926
77049W        W43590  42.121   2.249   4.928
77050W        W43591  38.088  29.415  14.735
77051W        W43592  28.369  23.387   4.769
77052W        W43593   2.956  27.693   2.884
77053W        W43594  33.140  24.142   3.389
77054W        W43595  30.654  10.650  12.924
77055W        W43596  35.935  17.375   0.901
77056W        W43597   2.263   8.775  10.751
77057W        W43598  15.434  43.480   3.717
77058W        W43599   7.034  24.709   3.656
77059W        W43600  32.685  40.167   0.571
77060W        W43601  28.681  31.691   0.456
77061W        W43602  24.423   9.943  13.045
77062W        W43603  43.711  33.104  13.513
77063W        W43604  39.884   9.184  12.472
77064W        W43605  14.610   9.945   1.835
77065W        W43606  12.367  38.895   4.130
77066W        W43607   3.265   4.773   0.968
77067W        W43608  22.056  25.187   4.612
77068W        W43609  20.317  25.036  12.546
77069W        W43610  10.207  42.463   2.397
77070W        W43611  41.104  21.627  14.005
77071W        W43612  11.124   1.794   0.455
77072W        W43613   0.161  11.582  13.454
77073W        W43614  31.960  30.071  12.856
77074W        W43615  40.923  23.046  14.019
77075W        W43616  26.608  26.714  12.595
77076W        W43617  39.278   5.801   0.267
77077W        W43618  32.656  16.692   0.999
77078W        W43619   0.783  30.690  12.932
77079W        W43620   1.938  32.868  10.267
77080W        W43621  31.476  12.390  12.615
77081W        W43622   8.786  28.010  13.654
77082W        W43623  36.892   3.880  12.009
77083W        W43624   8.403  34.371  10.805
77084W        W43625  23.811  42.245  11.942
77085W        W43626  24.253  36.018   4.267
77086W        W43627  44.376  17.471   0.660
77087W        W43628  38.167  17.261   5.139
77088W        W43629  43.730  44.863   0.738
77089W        W43630  27.967   8.487   0.204
77090W        W43631  38.045  39.691  12.934
77091W        W43632  29.176  10.136  14.430
77092W        W43633   9.957   0.354   4.031
77093W        W43634  15.808   7.978  13.762
77094W        W43635  42.451  21.395  10.113
77095W        W43636  25.730  16.607  11.902
77096W        W43637  31.116  41.587   1.682
77097W        W43638  29.669  26.099  14.895
77098W        W43639  38.798  38.955   3.634
77099W        W43640  36.271  33.660  10.914
77100W        W43641   5.905  21.059  11.681
77101W        W43642  10.744  21.171   3.529
77102W        W43643   1.629  38.361  10.869
77103W        W43644  33.080   2.969   1.245
77104W        W43645   3.746  29.404  14.112
77105W        W43646   1.147  34.278  10.805
77106W        W43647  26.371  12.802   4.497
77107W        W43648  37.369  22.425  12.571
77108W        W43649   3.622  37.051   1.105
77109W        W43650  18.663  28.441   3.712
77110W        W43651  18.760  32.969  13.180
77111W        W43652  36.114  15.515   2.209
77112W        W43653   5.004  34.314  13.740
77113W        W43654  20.015   6.734  13.376
77114W        W43655  42.056  13.175   4.164
77115W        W43656  18.318   5.210  14.016
77116W        W43657  16.192  20.758  14.956
77117W        W43658  27.058  16.652   3.155
77118W        W43659  22.222  41.342   4.149
77119W        W43660  29.589  30.388   4.948
77120W        W43661   9.974  30.351   3.747
77121W        W43662  11.249   6.892  14.230
77122W        W43663  21.222  25.079   3.261
77123W        W43664  39.191  14.979   5.092
77124W        W43665   9.353  38.483  13.197
77125W        W43666  43.249  33.679   2.700
77126W        W43667  26.655  28.567  12.420
77127W        W43668   7.930   8.196  12.463
77128W        W43669  36.571   0.276   4.522
77129W        W43670  34.828  42.509  14.427
77130W        W43671   3.119  33.946  13.776
77131W        W43672  36.020   4.507  13.957
77132W        W43673  37.382   2.656   1.638
77133W        W43674  16.209  37.448   0.306
77134W        W43675  39.750  18.293   1.366
77135W        W43676  12.198  22.238   1.232
77136W        W43677  33.862  26.928  10.782
77137W        W43678  40.661  37.709   1.902
77138W        W43679  34.796  18.306  14.396
77139W        W43680   9.861   9.080  11.051
77140W        W43681  33.951  28.762  13.157
77141W        W43682  10.555  13.298   3.451
77142W        W43683  35.107  28.638  10.554
77143W        W43684  32.610  35.001  13.044
77144W        W43685   7.070  14.793  14.433
77145W        W43686  12.177  11.309   1.026
77146W        W43687  28.583   2.359   1.171
77147W        W43688  15.616  33.520   0.291
77148W        W43689  11.748  33.574   0.579
77149W        W43690  38.584  20.181  12.129
77150W        W43691  28.991  35.911  11.695
77151W        W43692  37.995   2.296   5.776
77152W        W43693   0.458  11.759  13.862
77153W        W43694   4.896  43.547  12.444
77154W        W43695  38.874   3.853  13.378
77155W        W43696   4.318  37.323   1.731
77156W        W43697  35.249  25.640   1.612
77157W        W43698  43.378  41.955  14.581
77158W        W43699   3.256  39.604  13.502
77159W        W43700  12.858  18.685   3.747
77160W        W43701   6.425   3.856  13.553
77161W        W43702  12.830  21.091   1.501
77162W        W43703  42.074  34.029  13.000
77163W        W43704  35.908  38.033  10.673
77164W        W43705   2.351  23.472  12.096
77165W        W43706  12.091  24.644  13.928
77166W        W43707  25.329  40.251   2.151
77167W        W43708  40.813   4.319   4.167
77168W        W43709  40.298  43.896  12.609
77169W        W43710  42.295  36.504  12.652
77170W        W43711  19.555  17.313   2.644
77171W        W43712  36.545   0.695   0.426
77172W        W43713  10.146   1.217   4.345
77173W        W43714  19.008   4.711  10.670
77174W        W43715  17.497   8.443  12.957
77175W        W43716   0.447  28.936   4.109
77176W        W43717  27.444  29.500   0.536
77177W        W43718  13.310  10.292  11.005
77178W        W43719  31.174   0.272  12.422
77179W        W43720   1.396  36.611  14.876
77180W        W43721  10.763  27.805  14.779
77181W        W43722   8.820  30.721  12.986
77182W        W43723  10.345  35.102  14.433
77183W        W43724  11.261  41.291   4.562
77184W        W43725  18.747  11.757  11.767
77185W        W43726  41.910  41.791   2.304
77186W        W43727  16.887  19.805   4.529
77187W        W43728  11.661  39.591   4.908
77188W        W43729  26.058  31.275  10.609
77189W        W43730  10.642  17.583   3.424
77190W        W43731  25.545  38.242   4.640
77191W        W43732   0.676  42.826   4.604
77192W        W43733  23.786   7.343   0.886
77193W        W43734  44.958   4.323   2.230
77194W        W43735   2.777  27.378  12.867
77195W        W43736  35.493  31.926  11.718
77196W        W43737  33.019  16.036  11.569
77197W        W43738  19.482  41.766   2.282
77198W        W43739   3.470  36.787  13.794
77199W        W43740   0.298  34.851  11.566
77200W        W43741  14.740  20.319  14.803
77201W        W43742  44.828  44.958  10.807
77202W        W43743  31.972   5.124   5.006
77203W        W43744  23.251   3.081  12.578
77204W        W43745  26.966  43.813   1.987
77205W        W43746  39.904   8.600   3.658
77206W        W43747  41.500  12.873   2.700
77207W        W43748  33.398  27.453   3.354
77208W        W43749   5.669   4.989  11.939
77209W        W43750   7.889  34.394  13.569
77210W        W43751  20.321  33.938  11.489
77211W        W43752  11.579  10.319  12.009
77212W        W43753  32.881  38.426  11.461
77213W        W43754  29.233  21.657  12.700
77214W        W43755   7.147  18.675  14.933
77215W        W43756  26.248   9.769   0.999
77216W        W43757  24.248   1.810   1.297
77217W        W43758  24.522  28.490   4.936
77218W        W43759  14.859  44.247   1.758
77219W        W43760  25.964   4.221  11.202
77220W        W43761  23.208  21.152  12.491
77221W        W43762   9.082   4.641   3.933
77222W        W43763  39.219   4.792  13.312
77223W        W43764   4.710  37.059  11.040
77224W        W43765  26.990   6.384  12.964
77225W        W43766  39.829  17.179  13.866
77226W        W43767  44.155  19.532  10.921
77227W        W43768  22.891   3.147  13.796
77228W        W43769  20.319  40.834   1.221
77229W        W43770   9.321  35.602  13.886
77230W        W43771   3.901   3.377   0.794
77231W        W43772  12.693  18.734   0.934
77232W        W43773  25.758  19.726  12.749
77233W        W43774  19.974  19.762   3.088
77234W        W43775  16.192  40.137  14.863
77235W        W43776  14.288   2.412   1.859
77236W        W43777  10.915  14.047  10.655
77237W        W43778   7.935   5.447  11.177
77238W        W43779   6.737   5.528   0.760
77239W        W43780  19.589  24.049  14.518
77240W        W43781  39.363  34.360   3.086
77241W        W43782   9.034   5.333  14.536
77242W        W43783  15.920  43.347  11.460
77243W        W43784  13.700  28.952  14.480
77244W        W43785  36.044  32.016  10.418
77245W        W43786   2.242  24.571  14.561
77246W        W43787   5.852  25.782   2.837
77247W        W43788  14.118  34.610  14.868
77248W        W43789  19.157  40.376   4.094
77249W        W43790  44.713  21.183   3.297
77250W        W43791   6.081  21.898   3.201
77251W        W43792  24.989   7.222   0.268
77252W        W43793   3.526  15.343  14.698
77253W        W43794   6.213  36.937  11.386
77254W        W43795   9.174  21.163  11.049
77255W        W43796  13.396   9.327   1.182
77256W        W43797  25.473  26.149   0.742
77257W        W43798  38.014   1.681   1.556
77258W        W43799  26.047  11.341  12.750
77259W        W43800  18.635  29.071  10.625
77260W        W43801  19.517  25.785   0.121
77261W        W43802  21.312  15.286   1.966
77262W        W43803   7.687  17.037  14.470
77263W        W43804   5.587  41.962  13.062
77264W        W43805  12.969  20.797  11.143
77265W        W43806  18.984   4.596  13.705
77266W        W43807  12.697   1.734  10.742
77267W        W43808  39.867  30.493  11.458
77268W        W43809  36.037  28.452   3.199
77269W        W43810  27.426  15.117   0.786
77270W        W43811  33.465   1.283   2.688
77271W        W43812  21.852  28.677  12.037
77272W        W43813  17.515  24.985  12.582
77273W        W43814   4.317  19.447   0.055
77274W        W43815  21.823   3.387  14.089
77275W        W43816  26.602  28.162   3.107
77276W        W43817   7.986   4.349   2.150
77277W        W43818   6.160  17.986   2.251
77278W        W43819  43.788  43.999  14.773
77279W        W43820  29.468  33.400   2.292
77280W        W43821  35.524  40.101   2.782
77281W        W43822  42.029  10.771   2.371
77282W        W43823  23.436  11.767   1.439
77283W        W43824  44.651  18.063  11.912
77284W        W43825  40.828   0.394  11.590
77285W        W43826  22.161   0.273   0.889
77286W        W43827  39.127   1.970   4.991
77287W        W43828  37.650  12.763   0.384
77288W        W43829  24.144  23.194  12.622
77289W        W43830  40.898  20.399  14.834
77290W        W43831  35.566  16.800   0.732
77291W        W43832  42.754  36.188  14.340
77292W        W43833  24.067  11.648   0.261
77293W        W43834  25.308  39.690   3.950
77294W        W43835  32.064  16.981   1.566
77295W        W43836  13.390  39.137  13.137
77296W        W43837  17.112   1.021   4.768
77297W        W43838  44.353  24.600  14.791
77298W        W43839   5.483  29.163  14.377
77299W        W43840  20.288   9.896   3.284
77300W        W43841  27.740  23.053   0.498
77301W        W43842  30.192  17.759   2.477
77302W        W43843   2.690  21.660  11.143
77303W        W43844  15.092  31.397   0.961
77304W        W43845  27.370  11.867   3.335
77305W        W43846  42.034  39.544   1.880
77306W        W43847  38.044   9.876   2.348
77307W        W43848  20.082  23.685   3.119
77308W        W43849  24.357  41.105   0.804
77309W        W43850  37.165  21.005   1.319
77310W        W43851  44.040  43.778   1.928
77311W        W43852  42.225  17.265   2.900
77312W        W43853  28.057   9.865   1.273
77313W        W43854  24.815   7.222  11.567
77314W        W43855  10.694  42.544   3.688
77315W        W43856  41.850  26.707  10.737
77316W        W43857  40.562  30.958   1.335
77317W        W43858  21.580  17.227   3.500
77318W        W43859  34.299   9.636   1.682
77319W        W43860  29.615  19.586   2.108
77320W        W43861  40.720  44.152  14.673
77321W        W43862  29.253  26.993  11.896
77322W        W43863  44.528  33.692   1.891
77323W        W43864  36.012  16.601   2.360
77324W        W43865   1.741  26.458  11.579
77325W        W43866  33.597   4.467   4.029
77326W        W43867   3.670   3.706  11.077
77327W        W43868  11.987  32.054  13.996
77328W        W43869  31.481  23.434  14.209
77329W        W43870  20.659  12.749   1.038
77330W        W43871   7.160  43.200   0.398
77331W        W43872  26.995  23.516  12.815
77332W        W43873   4.473  33.479   4.200
77333W        W43874  12.430  15.895  13.042
77334W        W43875  15.789  32.163   1.850
77335W        W43876  21.684   9.422  10.891
77336W        W43877   5.059   1.815  13.035
77337W        W43878   9.216  35.250   1.257
77338W        W43879  27.085  37.239  14.286
77339W        W43880  30.878  14.106   2.943
77340W        W43881  23.528  42.975   3.339
77341W        W43882  11.203   3.835  10.456
77342W        W43883  43.487   7.903  14.777
77343W        W43884   6.821  25.948  12.929
77344W        W43885  34.090  19.854   3.258
77345W        W43886   2.499  35.979  13.860
77346W        W43887   5.992   0.782  13.944
77347W        W43888   7.470  43.744  13.532
77348W        W43889  16.839  22.498  12.051
77349W        W43890  27.083  43.352   4.303
77350W        W43891  13.236  41.997   1.275
77351W        W43892   8.150   8.322   2.261
77352W        W43893  31.101  10.356  12.094
77353W        W43894  17.529  11.543  14.582
77354W        W43895  33.946  37.804  13.069
77355W        W43896  19.138  21.822   2.793
77356W        W43897  20.265   6.072  12.047
77357W        W43898  43.452   8.405   3.095
77358W        W43899  38.352  11.159   4.297
77359W        W43900  16.701   5.976   4.199
77360W        W43901  15.718   4.680  11.163
77361W        W43902  34.403   5.783  13.055
77362W        W43903  13.367  22.254   1.257
77363W        W43904  42.951  42.330   1.237
77364W        W43905  36.022  28.401   2.112
77365W        W43906   3.379   9.548  14.289
77366W        W43907  43.689  14.691   3.651
77367W        W43908   5.823  23.448   0.740
77368W        W43909  26.189   2.545   0.023
77369W        W43910  20.536  11.510  13.362
77370W        W43911   1.002  25.489  13.891
77371W        W43912  31.120  17.456   1.101
77372W        W43913  34.490  36.383   4.161
77373W        W43914  30.188   3.524  11.895
77374W        W43915  44.195   8.095   2.186
77375W        W43916  33.469  37.432   1.782
77376W        W43917  26.506  22.985  13.508
77377W        W43918  42.432  23.588   2.314
77378W        W43919   3.409  27.448  12.589
77379W        W43920   6.330   8.337   4.124
77380W        W43921  43.933   4.405  14.577
77381W        W43922   2.805   9.332  11.258
77382W        W43923   5.085   2.979   3.143
77383W        W43924  12.561   0.648  11.873
77384W        W43925  43.567  29.247   5.048
77385W        W43926  35.577   2.062   1.513
77386W        W43927  27.951  27.611  11.607
77387W        W43928  30.949  23.834  11.242
77388W        W43929  13.433   5.331  12.450
77389W        W43930  38.578   5.320  12.083
77390W        W43931  29.623  36.156   0.965
77391W        W43932  38.127  26.772   0.396
77392W        W43933  38.920   0.746   1.231
77393W        W43934  10.861   9.462   0.034
77394W        W43935   9.330  24.904   0.295
77395W        W43936   9.592  29.473  13.579
77396W        W43937  42.211  20.811   4.692
77397W        W43938  42.462  44.663   0.557
77398W        W43939   3.160   6.711  13.117
77399W        W43940  34.832  35.323  11.387
77400W        W43941  36.394  37.961  11.583
77401W        W43942  24.200   7.934   1.792
77402W        W43943  37.884  39.129   1.899
77403W        W43944  36.307   4.795   3.125
77404W        W43945  22.564  34.125  14.128
77405W        W43946   0.747  15.718  10.559
77406W        W43947  42.365  37.962   0.316
77407W        W43948  42.049  44.783  11.424
77408W        W43949  38.709  16.219   3.856
77409W        W43950  19.560  40.963  10.310
77410W        W43951  11.362  27.306  12.961
77411W        W43952   4.650   4.794   4.077
77412W        W43953  21.060  30.564   3.720
77413W        W43954  41.764  16.544  14.031
77414W        W43955  32.681   7.447  14.942
77415W        W43956  31.981  42.515  13.575
77416W        W43957   6.642  32.257   4.179
77417W        W43958   1.174  39.663   0.411
77418W        W43959  23.888  44.142  11.908
77419W        W43960  15.467   5.696   3.283
77420W        W43961  10.394  10.048  10.477
77421W        W43962  18.715  35.419  11.465
77422W        W43963  33.064   4.283   2.587
77423W        W43964  35.555  42.474  10.509
77424W        W43965  13.254  37.130   4.764
77425W        W43966   3.787  27.710  12.816
77426W        W43967  43.448  15.486  10.647
77427W        W43968  17.886  25.067   3.128
77428W        W43969  36.292  41.465  11.158
77429W        W43970  15.722  37.215  12.093
77430W        W43971  18.649  11.289  14.073
77431W        W43972  44.698  27.128   2.520
77432W        W43973  10.651  27.912  12.974
77433W        W43974  23.194  30.742  13.923
77434W        W43975  14.740   1.060   3.284
77435W        W43976  25.371  27.096  11.943
77436W        W43977  40.022  41.459   4.378
77437W        W43978  19.743  14.316   2.302
77438W        W43979   3.350   5.435   5.041
77439W        W43980  23.519  27.468   2.381
77440W        W43981   5.364  24.803   1.699
77441W        W43982  22.862  23.940  11.550
77442W        W43983   2.742  11.301  14.477
77443W        W43984  26.174  40.405   1.752
77444W        W43985  18.576  25.865  12.279
77445W        W43986  11.692  36.423   4.583
77446W        W43987  26.202  38.014   4.093
77447W        W43988   4.377  37.047   3.877
77448W        W43989  31.667   8.180   2.299
77449W        W43990  12.674  31.462   4.617
77450W        W43991  28.487  13.380   4.159
77451W        W43992  37.940  29.609   1.173
77452W        W43993  33.145   0.894  11.585
77453W        W43994  34.364  28.992   4.643
77454W        W43995   7.667  37.914   3.145
77455W        W43996  23.751   1.813  10.340
77456W        W43997   8.528  17.002   2.657
77457W        W43998  42.600  15.577   3.425
77458W        W43999   1.044  35.409  12.204
77459W        W44000  32.448  30.447   0.696
77460W        W44001  14.771  15.516   0.756
77461W        W44002  18.198  19.519  13.937
77462W        W44003  18.536  44.852   2.644
77463W        W44004  11.890  35.949  13.546
77464W        W44005  26.935  22.702  13.475
77465W        W44006  43.859  11.261  12.889
77466W        W44007   4.603   3.124   3.202
77467W        W44008  26.409   5.029  12.473
77468W        W44009  36.485  37.353   3.719
77469W        W44010  10.256  31.339  14.214
77470W        W44011  26.427  30.340  13.130
77471W        W44012   3.752  10.765   3.251
77472W        W44013   4.976  26.039  11.129
77473W        W44014  19.027  19.534  14.413
77474W        W44015   0.967  37.415  14.483
77475W        W44016  26.022  42.945  10.688
77476W        W44017  10.956  26.224  11.428
77477W        W44018  30.940  16.345   3.639
77478W        W44019  22.207  15.006   5.462
77479W        W44020  35.362  25.929   4.509
77480W        W44021   8.226  23.476  14.007
77481W        W44022  12.422  13.575   1.646
77482W        W44023  39.502  17.080  12.038
77483W        W44024  18.739   7.867  13.346
77484W        W44025  10.673  24.538  12.126
77485W        W44026   9.521  41.557  13.390
77486W        W44027   5.116   8.696  11.182
77487W        W44028   0.859   8.180  13.199
77488W        W44029  12.668  34.408  10.880
77489W        W44030  22.365   8.206   1.848
77490W        W44031  39.063  23.398   0.827
77491W        W44032  39.530  36.117   2.565
77492W        W44033  42.470  12.886  14.290
77493W        W44034   9.888   1.726   3.046
77494W        W44035  36.129  39.027   2.281
77495W        W44036   7.782  43.290   3.631
77496W        W44037  19.019  31.441  10.728
77497W        W44038  15.386  13.070   4.055
77498W        W44039  26.203  20.665  14.570
77499W        W44040   0.696  20.325   0.396
77500W        W44041   2.630  28.312   4.528
77501W        W44042  29.888  22.039  13.438
77502W        W44043  21.721  41.054   0.425
77503W        W44044  17.843  12.348  12.010
77504W        W44045  24.627  35.053   0.464
77505W        W44046  32.188  32.117   0.538
77506W        W44047  17.569  40.260  14.405
77507W        W44048   8.697  31.672   4.345
77508W        W44049   1.931  31.836   2.147
77509W        W44050   9.270  41.847   4.584
77510W        W44051   8.155  15.336  11.632
77511W        W44052   3.435  12.073   3.319
77512W        W44053  19.248   4.185  14.481
77513W        W44054  31.681  14.972   2.155
77514W        W44055  32.179   3.266  13.080
77515W        W44056  39.750  25.197   0.871
77516W        W44057  28.677  14.387  14.702
77517W        W44058  19.820  37.441   4.267
77518W        W44059  36.122  18.173   2.477
77519W        W44060  39.258  27.470   1.455
77520W        W44061  43.527   3.509  12.973
77521W        W44062   4.674  12.225   2.173
77522W        W44063  25.164  42.357  13.368
77523W        W44064  32.660  38.840   4.702
77524W        W44065   4.346  21.077   3.231
77525W        W44066  15.322  11.223   3.614
77526W        W44067  39.688  40.079  11.158
77527W        W44068  43.890   3.943   3.774
77528W        W44069  36.181  41.556   3.116
77529W        W44070  10.745  11.167  12.421
77530W        W44071  32.183  24.731   4.139
77531W        W44072   9.017  44.482   4.587
77532W        W44073  43.883  24.174  13.569
77533W        W44074  12.169  19.148  13.689
77534W        W44075   5.015  43.520   5.090
77535W        W44076   6.656  17.158   3.106
77536W        W44077   1.428  41.029   3.152
77537W        W44078  14.127  21.672  14.526
77538W        W44079  40.736   6.901   4.071
77539W        W44080  22.098  34.357  13.953
77540W        W44081  36.923   9.511  13.046
77541W        W44082  40.980  27.510  14.000
77542W        W44083  39.915  32.910   0.766
77543W        W44084   1.317  38.977  13.580
77544W        W44085   4.438  26.555  14.471
77545W        W44086   2.311  27.497   1.402
77546W        W44087  11.135  42.946  10.680
77547W        W44088   3.735  32.832   2.312
77548W        W44089   2.326  17.595  12.950
77549W        W44090  37.950   9.484  10.577
77550W        W44091  17.221  26.129   2.284
77551W        W44092  25.678   1.323   2.225
77552W        W44093  28.000  29.530   0.757
77553W        W44094  34.202  34.850  11.982
77554W        W44095  22.544  11.328   1.736
77555W        W44096  15.336  44.806   3.365
77556W        W44097  41.932   6.913   2.328
77557W        W44098  15.024   8.726   1.901
77558W        W44099  38.034  21.029   0.692
77559W        W44100  17.252  11.826  11.537
77560W        W44101  18.372  44.373  14.531
77561W        W44102  31.500  41.258  13.147
77562W        W44103  35.876   5.852  11.013
77563W        W44104   8.038  22.592  13.448
77564W        W44105  15.349   9.077  13.249
77565W        W44106  44.836  34.622   4.564
77566W        W44107  28.502  23.530  13.955
77567W        W44108  22.502  34.099   0.641
77568W        W44109  27.660  12.748  11.878
77569W        W44110  13.358  31.196   4.043
77570W        W44111  42.494   4.059   3.555
77571W        W44112  21.048  30.989   1.840
77572W        W44113  21.047  15.617  13.943
77573W        W44114  25.458   1.314   2.712
77574W        W44115  37.032  14.380   1.291
77575W        W44116  41.432   3.494   2.187
77576W        W44117   7.070  35.935  11.788
77577W        W44118  41.735  21.452  12.714
77578W        W44119   9.058  12.806   4.654
77579W        W44120  32.990   8.888  12.365
77580W        W44121  39.267  44.686   0.800
77581W        W44122  26.375  32.949   3.772
77582W        W44123  11.265  21.830  11.145
77583W        W44124  41.308  32.253  12.909
77584W        W44125  43.395  22.667  13.462
77585W        W44126  42.436  23.031   1.193
77586W        W44127   9.626  37.653   3.222
77587W        W44128  23.683  39.031   3.724
77588W        W44129  11.260  39.907  14.487
77589W        W44130  42.842   5.193   3.418
77590W        W44131   0.315  23.202   0.273
77591W        W44132  22.166   9.622   1.471
77592W        W44133  36.847   5.158   1.399
77593W        W44134  13.795  34.032  10.606
77594W        W44135  40.271  17.111  14.298
77595W        W44136  28.057  44.055   2.825
77596W        W44137  32.108  13.624  12.515
77597W        W44138  28.337  23.160   4.293
77598W        W44139  42.887  26.450  12.597
77599W        W44140   7.859  38.775  11.648
77600W        W44141  25.873  35.553   1.413
77601W        W44142  33.917   9.990   1.664
77602W        W44143  31.115  18.136  14.356
77603W        W44144   8.801  38.654   3.682
77604W        W44145  40.590  23.774  13.565
77605W        W44146   5.410  22.754   3.429
77606W        W44147   3.851   0.794  14.191
77607W        W44148  18.681  36.481   1.594
77608W        W44149  34.416  30.106  12.581
77609W        W44150   3.224  24.758  13.438
77610W        W44151  34.978  13.361   4.975
77611W        W44152   1.741  28.555   4.605
77612W        W44153  35.437  21.125   4.386
77613W        W44154   6.326   9.801   0.790
77614W        W44155  28.119   9.308  14.561
77615W        W44156   4.276  36.744   2.961
77616W        W44157   2.863  44.156  12.889
77617W        W44158  27.024  44.875   4.547
77618W        W44159  25.558  31.160   2.697
77619W        W44160  21.089  12.526   0.813
77620W        W44161  33.938   3.218   1.985
77621W        W44162  12.285   1.965  14.577
77622W        W44163  42.869  26.580   2.903
77623W        W44164  22.063   7.323   1.762
77624W        W44165  30.322  36.470   4.992
77625W        W44166  22.543  21.165  11.189
77626W        W44167  21.528   6.835   1.609
77627W        W44168  34.086   9.885  14.386
77628W        W44169  15.936  43.760  11.171
77629W        W44170  25.429  41.312   3.171
77630W        W44171  34.647   7.524  13.862
77631W        W44172  21.687   7.536  10.678
77632W        W44173  12.088  38.123  12.367
77633W        W44174  29.543  12.008   3.638
77634W        W44175  32.930  37.858   1.169
77635W        W44176  31.771   8.891  14.272
77636W        W44177   3.490  43.016   0.229
77637W        W44178  37.970  25.411   3.317
77638W        W44179  27.023  44.550   0.240
77639W        W44180  13.257  11.499  13.061
77640W        W44181   7.628  18.634  11.021
77641W        W44182  29.389  21.936   4.715
77642W        W44183   8.901  25.728   4.159
77643W        W44184  11.320  18.909   0.091
77644W        W44185  16.874  43.031   4.633
77645W        W44186   5.377  23.494  12.472
77646W        W44187  40.563  11.627  10.721
77647W        W44188  19.623  43.770  12.501
77648W        W44189   1.518  14.900  12.575
77649W        W44190  32.832  41.313  11.578
77650W        W44191   3.298   0.303   2.730
77651W        W44192  39.997  17.590   4.001
77652W        W44193  24.589  25.568  14.004
77653W        W44194  28.062  20.318  12.405
77654W        W44195  28.876  20.304  14.346
77655W        W44196  16.249   1.819   1.066
77656W        W44197  30.643  18.209  13.947
77657W        W44198  20.268  12.222   4.498
77658W        W44199  30.286  11.898  14.243
77659W        W44200  11.182  38.422  11.061
77660W        W44201   5.898  22.157   4.491
77661W        W44202  19.659   4.973  12.114
77662W        W44203  21.316  35.867  13.533
77663W        W44204  34.349  10.760   3.081
77664W        W44205  34.364  37.495   3.189
77665W        W44206  12.538  34.005  11.758
77666W        W44207   6.803  40.358  14.930
77667W        W44208  33.122   9.548  14.542
77668W        W44209  21.626  15.373  13.027
77669W        W44210   9.237  24.617   3.479
77670W        W44211  16.050  31.025  12.073
77671W        W44212  31.852  14.826  13.051
77672W        W44213  41.397  40.319  13.598
77673W        W44214  26.207  15.792  12.489
77674W        W44215  28.324  39.799  13.420
77675W        W44216  30.375  21.268  11.299
77676W        W44217  36.141  14.147  10.680
77677W        W44218  13.452  32.317   2.805
77678W        W44219  44.539  44.732   4.783
77679W        W44220   4.335  38.602  14.856
77680W        W44221   9.309  11.461  11.657
77681W        W44222  37.190  12.235   3.707
77682W        W44223  11.260  14.763   4.625
77683W        W44224  13.613  16.532  10.645
77684W        W44225  27.473   8.821   4.052
77685W        W44226   9.794  40.165  13.532
77686W        W44227   5.900  23.184  12.845
77687W        W44228  20.183  40.506  10.690
77688W        W44229   8.281  36.821  12.043
77689W        W44230   9.509  17.918   4.082
77690W        W44231  27.997  39.524   1.280
77691W        W44232  16.385  37.949   4.575
77692W        W44233  27.617  29.054  10.741
77693W        W44234  14.531   4.193  14.407
77694W        W44235  41.976  40.747  10.780
77695W        W44236  29.774   2.374   2.196
77696W        W44237  12.441  43.774   1.757
77697W        W44238  38.972  29.914  11.519
77698W        W44239  24.886  23.468   4.454
77699W        W44240  37.895  32.060   1.337
77700W        W44241  20.206   0.070  14.436
77701W        W44242  30.092  21.540   3.329
77702W        W44243  25.936  43.957  11.617
77703W        W44244  28.926  36.065   3.155
77704W        W44245  29.432  39.914   1.631
77705W        W44246  37.104  21.252  13.883
77706W        W44247  25.540  15.339  11.115
77707W        W44248  10.894  11.996  12.111
77708W        W44249   8.402   4.241  13.907
77709W        W44250  10.306  31.445  12.571
77710W        W44251  33.955  36.025  14.890
77711W        W44252  37.603  30.226  11.995
77712W        W44253  23.156  38.968  11.122
77713W        W44254  20.144   4.420   2.853
77714W        W44255  28.438  32.008   1.733
77715W        W44256  23.518  32.442  10.443
77716W        W44257  41.404  39.362   0.887
77717W        W44258  21.170  14.668   3.093
77718W        W44259  14.214  43.460  14.033
77719W        W44260  32.708  25.121   3.210
77720W        W44261  21.521  20.507  14.584
77721W        W44262  11.527  25.323  12.505
77722W        W44263  37.451   9.608  10.533
77723W        W44264  16.233   6.361  14.421
77724W        W44265  11.639  43.601  12.070
77725W        W44266  14.341  31.538   3.061
77726W        W44267  40.914  31.185  13.864
77727W        W44268  18.511   5.309   0.938
77728W        W44269  37.373  37.542   1.823
77729W        W44270  18.505  34.621  13.475
77730W        W44271   5.935   7.634   3.132
77731W        W44272  19.102   4.596   0.366
77732W        W44273   0.958   4.138   1.675
77733W        W44274  19.047  37.643  11.153
77734W        W44275  32.376  18.238   1.976
77735W        W44276   4.217  22.094   5.072
77736W        W44277  28.629   4.286   2.859
77737W        W44278  17.055  14.115   3.689
77738W        W44279   9.826   6.829  12.663
77739W        W44280  27.678  11.407   3.314
77740W        W44281  26.494  13.353  14.836
77741W        W44282   4.353  13.860  11.912
77742W        W44283  33.128  16.827   0.989
77743W        W44284   7.309  25.961  14.438
77744W        W44285  29.657  37.611  13.587
77745W        W44286  35.487  20.283  12.707
77746W        W44287  21.481  13.347  10.189
77747W        W44288   4.892   1.347  14.797
77748W        W44289   3.277  35.132  10.915
77749W        W44290  44.328  15.376  13.443
77750W        W44291  11.245   4.658   1.582
77751W        W44292  43.091  26.963  11.432
77752W        W44293  37.125  25.062  14.228
77753W        W44294  10.459  26.131  11.545
77754W        W44295  41.055  22.525  14.981
77755W        W44296  27.811  12.873   0.824
77756W        W44297  17.684  17.754  10.539
77757W        W44298  35.391  10.331  12.969
77758W        W44299  16.686  18.444   4.128
77759W        W44300  32.424  20.350   4.668
77760W        W44301  20.157  12.425  13.894
77761W        W44302   3.899  18.243  12.139
77762W        W44303  17.143  17.646   2.382
77763W        W44304  17.954  42.761   0.672
77764W        W44305   7.418  17.226  11.256
77765W        W44306  20.493  27.842  11.081
77766W        W44307  39.760  30.584   1.139
77767W        W44308  18.190  23.258   4.608
77768W        W44309  36.429   4.898   2.203
77769W        W44310  43.741   3.439   4.022
77770W        W44311  29.655   0.745  13.435
77771W        W44312  31.719   6.332   3.766
77772W        W44313  26.710  41.376   2.320
77773W        W44314  25.322  10.375  14.686
77774W        W44315  27.135  40.017  14.854
77775W        W44316  24.594  26.574   2.211
77776W        W44317  22.475  24.060   0.939
77777W        W44318  31.948  13.606  13.016
77778W        W44319  38.196  19.104   1.752
77779W        W44320  32.969  18.353   2.681
77780W        W44321  29.041  14.119   0.680
77781W        W44322  31.476  18.144   1.040
77782W        W44323  10.386   4.877   0.807
77783W        W44324  18.152  43.181   3.279
77784W        W44325   9.647  20.144  12.406
77785W        W44326   5.646   0.826  14.804
77786W        W44327   4.025   1.304   3.153
77787W        W44328  36.683  12.582   3.186
77788W        W44329   9.844  24.370  14.738
77789W        W44330   3.192  41.012  12.880
77790W        W44331  12.322   3.446   3.728
77791W        W44332  13.752  34.463  13.910
77792W        W44333  19.870   5.841  14.291
77793W        W44334  31.592  10.157   2.898
77794W        W44335  30.849  34.871   1.716
77795W        W44336  22.075   9.117  11.832
77796W        W44337  24.151  38.121  14.362
77797W        W44338  22.551  42.118   0.997
77798W        W44339  43.411  13.851  13.407
77799W        W44340  39.974  20.519  14.057
77800W        W44341  24.056  14.864   0.836
77801W        W44342  20.918   5.396  11.672
77802W        W44343  10.870  18.720  14.914
77803W        W44344  15.528  33.241   0.723
77804W        W44345  28.005  41.578   1.470
77805W        W44346  35.383  15.646   4.341
77806W        W44347  32.010  19.643   2.971
77807W        W44348  23.451   6.236  12.535
77808W        W44349  19.966  17.245   3.158
77809W        W44350   8.287  26.053  14.553
77810W        W44351  19.840  22.142  14.824
77811W        W44352  30.557  43.446   3.837
77812W        W44353  20.133   4.825  14.318
77813W        W44354  35.364  25.118  10.637
77814W        W44355  19.710  11.985   1.032
77815W        W44356  36.019  35.553   2.441
77816W        W44357  33.972  36.038  10.754
77817W        W44358  15.298  23.086   0.384
77818W        W44359  34.888  28.500  13.546
77819W        W44360  25.702  21.615  11.707
77820W        W44361   5.822   4.170  14.835
77821W        W44362  18.708  38.584   2.718
77822W        W44363  19.054   8.155   0.500
77823W        W44364  38.868   3.966   0.344
77824W        W44365  29.413   6.855  11.891
77825W        W44366  22.625  23.536   1.022
77826W        W44367  40.604  35.966  11.644
77827W        W44368  27.706  35.606  10.479
77828W        W44369  35.606  44.043  11.699
77829W        W44370   4.924  24.100  13.119
77830W        W44371   9.566  30.682   1.223
77831W        W44372   1.298  28.168  13.062
77832W        W44373  21.221   4.009  14.330
77833W        W44374  34.631  36.100  12.000
77834W        W44375   1.804  15.590   3.341
77835W        W44376   9.375  13.211  14.749
77836W        W44377  18.116  18.209  13.403
77837W        W44378  26.596  10.741  14.029
77838W        W44379  17.749  34.136   1.558
77839W        W44380  22.793  19.921  11.137
77840W        W44381   4.008  28.803   3.115
77841W        W44382  32.458  41.538  10.950
77842W        W44383  33.947  37.100  14.625
77843W        W44384  44.029  30.820   0.847
77844W        W44385  34.092   9.645  12.417
77845W        W44386  42.366   1.496   2.253
77846W        W44387  36.418  22.391   4.516
77847W        W44388   9.888  40.693  12.651
77848W        W44389  29.651  44.236   0.428
77849W        W44390  43.660  22.562  10.497
77850W        W44391  25.991  17.541  12.390
77851W        W44392  33.160  16.529   1.926
77852W        W44393  12.671  38.924   2.844
77853W        W44394   0.684  35.078  12.358
77854W        W44395   4.900   0.035   1.345
77855W        W44396  38.782  13.774  11.258
77856W        W44397  21.175  32.433   0.742
77857W        W44398   4.253  37.033   3.386
77858W        W44399   7.239  44.038   1.164
77859W        W44400  32.946  32.563   0.576
77860W        W44401   6.242  10.206   2.733
77861W        W44402  42.742  34.902   0.444
77862W        W44403  31.129  42.723  10.540
77863W        W44404  10.493  39.650   4.649
77864W        W44405  17.601   6.788  12.942
77865W        W44406   5.313  32.151  11.191
77866W        W44407  27.254   2.705  12.909
77867W        W44408   6.315   7.175  11.654
77868W        W44409  44.516   7.503   0.336
77869W        W44410  41.822   2.607   3.818
77870W        W44411  23.227  32.405  13.960
77871W        W44412  37.879   0.936  12.514
77872W        W44413  41.200  36.610   1.307
77873W        W44414  16.209  14.659   4.999
77874W        W44415   1.337  43.448  12.600
77875W        W44416  38.569   3.091  14.461
77876W        W44417  29.634  29.465  12.033
77877W        W44418  24.682  15.394  10.760
77878W        W44419  32.655  24.117  12.490
77879W        W44420  41.567  10.220  11.820
77880W        W44421   3.543  43.461   4.540
77881W        W44422  24.306  33.081  13.218
77882W        W44423   3.961  38.990   4.681
77883W        W44424  19.109   7.859   0.936
77884W        W44425  44.728  25.911   4.157
77885W        W44426  29.499  21.433   4.730
77886W        W44427  19.988  10.722  13.733
77887W        W44428  28.067  10.575   3.410
77888W        W44429  33.557  40.807   0.381
77889W        W44430  15.361  19.312  14.039
77890W        W44431   9.679  19.505  13.418
77891W        W44432  39.455  36.450   1.344
77892W        W44433  33.489   5.184   0.763
77893W        W44434  43.693  42.512  11.764
77894W        W44435  13.150  39.848  13.910
77895W        W44436   7.770  37.362  12.882
77896W        W44437  23.614  15.748   4.027
77897W        W44438  15.174  18.000   3.574
77898W        W44439  32.783   4.805  11.980
77899W        W44440  30.172  35.973   3.107
77900W        W44441  16.416  29.965  13.160
77901W        W44442   4.590  42.491   0.799
77902W        W44443   6.926   0.344  14.866
77903W        W44444  39.388  43.274   2.777
77904W        W44445  14.690  34.992  12.450
77905W        W44446  31.551  30.475  12.519
77906W        W44447  33.487  30.234  12.383
77907W        W44448   3.887   4.768  11.970
77908W        W44449  16.740  21.151  10.714
77909W        W44450   3.653  29.517   3.682
77910W        W44451   8.261  15.514   0.195
77911W        W44452  24.231  29.653   1.314
77912W        W44453  15.256  19.780   4.601
77913W        W44454  39.517   6.648   3.050
77914W        W44455  34.137  27.810   3.695
77915W        W44456  34.877   8.949   2.763
77916W        W44457  28.469  18.079  12.862
77917W        W44458  42.651  43.729   1.785
77918W        W44459  13.122  31.027  11.372
77919W        W44460  20.112  32.869   0.892
77920W        W44461  32.582  28.723   1.368
77921W        W44462  12.912   9.089   0.430
77922W        W44463   0.235  40.393   3.852
77923W        W44464  21.985  32.828  11.928
77924W        W44465  27.639   9.998   2.258
77925W        W44466  18.010  14.200  13.468
77926W        W44467  18.252  32.996   0.449
77927W        W44468  33.921  36.462   0.947
77928W        W44469   7.594  23.363   3.152
77929W        W44470  39.460  28.040   4.319
77930W        W44471  41.338  42.567   4.526
77931W        W44472  40.336  10.293  11.777
77932W        W44473  11.660  43.720  14.464
77933W        W44474  27.117  38.065  12.004
77934W        W44475   7.525   2.621   3.198
77935W        W44476  23.220  28.877   2.202
77936W        W44477  32.620  44.039  11.378
77937W        W44478  29.072  29.986  10.471
77938W        W44479  14.201  37.024  11.625
77939W        W44480  42.757  40.609  14.973
77940W        W44481  12.219  15.817  13.530
77941W        W44482  19.200  36.267   2.754
77942W        W44483  31.996  40.153  11.155
77943W        W44484  40.592  25.502   4.552
77944W        W44485  25.946  30.938   0.433
77945W        W44486  40.772  36.370   1.121
77946W        W44487   0.816  30.566   4.575
77947W        W44488  37.555  39.006  10.750
77948W        W44489   8.137  38.067  14.792
77949W        W44490  26.526  20.289  13.034
77950W        W44491  24.609  14.254  11.604
77951W        W44492  23.480  28.497  11.416
77952W        W44493  21.491  42.625   1.784
77953W        W44494  44.926   5.838  13.817
77954W        W44495  18.836  32.880   1.941
77955W        W44496   3.880  21.421  10.878
77956W        W44497  34.066  33.629   0.245
77957W        W44498  37.632   0.749  11.631
77958W        W44499   4.492  11.095  12.870
77959W        W44500  10.725  39.602   2.893
77960W        W44501  16.093  30.523   2.130
77961W        W44502  32.436  35.412  14.968
77962W        W44503  25.488   3.778  11.693
77963W        W44504   6.197  30.138  12.447
77964W        W44505  29.011  23.337  14.021
77965W        W44506  32.209  34.471  14.340
77966W        W44507  27.996  22.415  14.468
77967W        W44508   6.667  12.307   4.666
77968W        W44509  24.143  15.025  13.457
77969W        W44510  40.525  22.227  11.086
77970W        W44511  43.345  22.487  13.960
77971W        W44512   5.681  30.031   2.144
77972W        W44513   3.015  12.807  12.103
77973W        W44514  34.474   0.644  11.939
77974W        W44515  28.445  34.308  12.001
77975W        W44516  35.872  18.329  13.646
77976W        W44517  40.910  21.195  10.337
77977W        W44518   9.246   5.585   1.137
77978W        W44519   0.204  31.442   2.715
77979W        W44520   2.722   5.412   4.635
77980W        W44521  11.550  11.017   0.360
77981W        W44522  40.160  26.427  11.742
77982W        W44523  40.708  34.325  14.022
77983W        W44524   4.309  39.337   0.361
77984W        W44525  24.987  26.153   4.151
77985W        W44526  16.615  17.790   3.637
77986W        W44527  17.545   8.160   2.694
77987W        W44528  38.372  29.001   3.809
77988W        W44529  14.221  19.241  13.075
77989W        W44530   6.328  12.511  12.631
77990W        W44531   0.416  23.019   0.753
77991W        W44532  34.459  27.229   4.555
77992W        W44533  38.886   0.904  11.403
77993W        W44534  30.498  33.337   2.302
77994W        W44535  25.060  42.925   1.228
77995W        W44536  34.240   8.278   0.178
77996W        W44537  10.153  29.377   3.686
77997W        W44538  38.005  19.872  11.565
77998W        W44539  22.699  21.273  12.502
77999W        W44540  44.300  33.211  14.966
78000W        W44541  26.438  27.564   4.320
78001W        W44542  35.495  23.787  13.295
78002W        W44543   1.444  34.856   1.936
78003W        W44544  32.949   9.059   2.722
78004W        W44545  12.072   7.173   2.861
78005W        W44546  39.905   4.669  14.499
78006W        W44547  33.082  20.815   0.911
78007W        W44548  29.547  18.348  11.978
78008W        W44549  27.852   4.307  12.512
78009W        W44550  14.890  44.919   1.187
78010W        W44551  16.056   2.495  13.027
78011W        W44552  40.898  43.200  12.785
78012W        W44553   2.841  16.713  11.622
78013W        W44554   6.733   5.283   1.466
78014W        W44555  14.374  24.197   2.632
78015W        W44556  21.631  21.545   1.531
78016W        W44557  42.735  32.952  13.737
78017W        W44558  22.296   6.178   3.227
78018W        W44559  13.651  41.728  12.964
78019W        W44560  12.770  12.929  11.438
78020W        W44561  26.498  36.078   2.096
78021W        W44562  26.075  31.469  13.513
78022W        W44563  16.296  14.267  14.331
78023W        W44564  13.113  36.510  10.397
78024W        W44565  43.030  24.585  14.535
78025W        W44566   8.927  30.053  11.705
78026W        W44567  36.066  22.584   3.698
78027W        W44568  37.584   1.627   2.843
78028W        W44569  28.490  28.505   3.821
78029W        W44570  38.395  23.498   3.323
78030W        W44571  23.796  13.106   4.236
78031W        W44572   0.845  10.200  13.165
78032W        W44573   2.433  37.647   0.487
78033W        W44574  11.678  20.490   3.628
78034W        W44575   9.947  18.721  12.749
78035W        W44576  21.637  26.183   3.772
78036W        W44577  10.672  23.637   1.935
78037W        W44578  33.190  23.163   1.258
78038W        W44579  44.147  38.990   4.791
78039W        W44580  37.411  34.903  14.520
78040W        W44581  40.955   0.589   1.265
78041W        W44582   4.365  38.151  13.453
78042W        W44583  28.566  40.112  10.488
78043W        W44584   7.929   8.934   4.175
78044W        W44585  42.799  30.648   3.695
78045W        W44586  10.864  13.366   1.402
78046W        W44587  10.790  17.242  14.813
78047W        W44588  43.713  16.541  14.308
78048W        W44589  17.039  11.917   3.215
78049W        W44590   5.449   2.667   9.812
78050W        W44591  44.674  21.697   0.426
78051W        W44592  31.185   7.401  14.990
78052W        W44593   4.061  40.928  13.288
78053W        W44594  21.213  23.978   3.627
78054W        W44595  12.676  33.845   2.302
78055W        W44596   4.135  25.742  13.670
78056W        W44597  42.801  25.958  11.866
78057W        W44598  43.452  41.991   2.046
78058W        W44599   5.326   2.846  11.408
78059W        W44600  12.427  40.418  13.531
78060W        W44601  12.261  36.493  14.359
78061W        W44602  30.408  37.069   1.673
78062W        W44603  27.022  37.324   3.274
78063W        W44604  41.506  18.823   2.237
78064W        W44605  19.360  14.753   0.964
78065W        W44606  28.136  34.628   1.823
78066W        W44607  36.720   1.290   3.650
78067W        W44608  14.690  39.993   0.469
78068W        W44609  26.865   1.927  12.324
78069W        W44610   1.834  13.657   3.286
78070W        W44611  11.454  23.311  10.531
78071W        W44612  36.572   7.869   1.337
78072W        W44613  12.587  37.025   5.020
78073W        W44614  15.289  38.001   1.323
78074W        W44615  37.823  13.802   2.195
78075W        W44616  13.566  40.493  11.696
78076W        W44617  39.304  37.113   3.352
78077W        W44618  21.029   0.686   0.389
78078W        W44619   1.185  21.207  14.416
78079W        W44620  10.760   5.710  11.533
78080W        W44621  32.625   7.804  13.335
78081W        W44622   7.168   2.842   1.483
78082W        W44623  20.138  25.643  10.809
78083W        W44624  17.693   5.179  13.024
78084W        W44625  35.437  43.442  12.498
78085W        W44626  13.754  23.139  13.558
78086W        W44627   6.690  39.365  13.962
78087W        W44628   0.590  22.747   0.310
78088W        W44629  10.368  10.914   3.200
78089W        W44630   9.330   8.230   4.425
78090W        W44631  17.605  40.848  14.386
78091W        W44632  26.142  29.921   4.806
78092W        W44633  10.300   9.725  14.691
78093W        W44634   7.778   5.824   4.382
78094W        W44635  13.739  33.611  13.048
78095W        W44636  43.762  33.573   0.257
78096W        W44637  21.554   7.645   2.308
78097W        W44638  19.023  44.287   3.545
78098W        W44639  41.834   8.416   1.714
78099W        W44640  37.633   1.138   2.715
78100W        W44641  33.051  10.115  11.693
78101W        W44642  30.552  23.184  13.297
78102W        W44643   1.709  35.067   0.004
78103W        W44644  38.374  38.537   1.633
78104W        W44645   1.709  44.109   3.245
78105W        W44646   1.926  23.511  14.552
78106W        W44647   9.534   7.330  10.168
78107W        W44648  21.688  29.580  10.226
78108W        W44649  43.050  43.909   4.400
78109W        W44650  19.227  34.607  12.903
78110W        W44651  17.745  44.928  13.743
78111W        W44652   3.382   4.835   4.578
78112W        W44653  34.339  22.984  13.167
78113W        W44654  14.777  23.794   1.769
78114W        W44655  29.258   4.950  11.431
78115W        W44656  36.854  16.069   3.009
78116W        W44657  25.499   9.915  10.529
78117W        W44658  24.201  33.576  10.601
78118W        W44659  22.202  21.950   3.636
78119W        W44660  38.172   7.603   2.569
78120W        W44661   7.172  16.483  14.793
78121W        W44662  20.753  37.035  14.802
78122W        W44663  41.447   7.352   3.267
78123W        W44664  29.512   9.853   0.958
78124W        W44665  20.037  35.370  14.369
78125W        W44666  35.626  40.317  14.426
78126W        W44667  27.722   2.471   3.152
78127W        W44668  26.479  30.291   2.337
78128W        W44669  31.449   4.901  14.257
78129W        W44670  13.078   7.211  13.786
78130W        W44671  11.816   7.501  12.569
78131W        W44672  42.963  15.280  13.326
78132W        W44673  17.535  40.456  14.873
78133W        W44674  31.442   1.845   0.708
78134W        W44675  40.334  42.999   3.685
78135W        W44676  15.759  18.587   4.282
78136W        W44677  23.101  13.122  14.367
78137W        W44678  17.242  20.731   1.366
78138W        W44679   8.005  16.140   0.297
78139W        W44680  28.025   1.759   0.874
78140W        W44681  16.078   0.560  11.558
78141W        W44682  24.779  22.138   3.549
78142W        W44683  16.416   8.394  12.016
78143W        W44684  30.034  24.272  12.525
78144W        W44685   8.711  10.111   2.106
78145W        W44686  10.183  41.746   2.924
78146W        W44687  20.304  44.786  11.168
78147W        W44688  28.669  11.344   1.673
78148W        W44689  33.562  10.385   4.053
78149W        W44690   4.130  22.664  13.092
78150W        W44691  16.972  10.536  13.575
78151W        W44692  29.371  11.683   4.555
78152W        W44693  24.340  21.171  12.767
78153W        W44694  10.233  35.488   1.817
78154W        W44695  26.996  36.360   3.109
78155W        W44696  11.743  39.843  14.261
78156W        W44697  42.939  29.669  13.345
78157W        W44698  23.811   9.261   4.537
78158W        W44699   4.689  40.832   2.293
78159W        W44700  23.512   3.757   1.391
78160W        W44701  24.530  41.605   0.847
78161W        W44702  28.702  20.592  12.539
78162W        W44703  25.136  44.947   1.000
78163W        W44704  19.182  34.866  12.462
78164W        W44705  36.488  20.820  14.663
78165W        W44706  44.419  11.827  14.238
78166W        W44707  23.014  30.153   1.004
78167W        W44708  30.390  15.346   4.916
78168W        W44709  24.055  22.922  14.134
78169W        W44710  18.095  21.684  12.135
78170W        W44711  16.576  15.676  10.396
78171W        W44712  11.337  19.988   4.652
78172W        W44713  15.524   0.838  12.500
78173W        W44714  26.574   2.985  10.660
78174W        W44715   3.761  14.720  14.990
78175W        W44716   3.225  34.202  12.040
78176W        W44717  33.132  44.234   0.680
78177W        W44718  14.906  39.762  14.114
78178W        W44719  38.397  15.853   1.313
78179W        W44720  38.374  42.507  12.428
78180W        W44721  39.142   7.448  13.487
78181W        W44722  22.479  31.399  11.678
78182W        W44723  34.836  27.556  14.045
78183W        W44724  38.850  42.387   3.158
78184W        W44725   1.671  16.028   3.080
78185W        W44726  32.453   6.780   3.053
78186W        W44727  38.986   9.827  13.603
78187W        W44728   0.706   2.669   4.560
78188W        W44729  44.534   4.883  14.981
78189W        W44730  32.044  24.172  12.479
78190W        W44731   9.765  14.414   2.006
78191W        W44732  15.644  15.883   4.701
78192W        W44733   6.490  14.145   2.156
78193W        W44734  28.832  41.782  11.251
78194W        W44735  12.903   4.356   3.722
78195W        W44736   0.738  12.103   0.559
78196W        W44737  24.716   4.659  12.118
78197W        W44738  22.640   2.446   1.960
78198W        W44739  44.742  41.259   0.452
78199W        W44740  34.395   8.803   4.617
78200W        W44741  19.733   1.315  13.383
78201W        W44742   5.463   8.495   4.171
78202W        W44743  18.319  37.971   4.264
78203W        W44744  27.113  36.134   2.659
78204W        W44745   8.574  33.672   1.845
78205W        W44746  38.509  24.564   4.833
78206W        W44747   1.173  32.593   0.227
78207W        W44748  18.524  12.926  13.096
78208W        W44749  21.216  29.982  13.816
78209W        W44750  17.799   5.992  11.163
78210W        W44751  42.772  20.061  14.524
78211W        W44752  10.134  10.166   4.185
78212W        W44753  43.180  32.866   2.907
78213W        W44754   4.351  40.397   3.279
78214W        W44755  15.360  18.121   0.766
78215W        W44756   9.284  20.518   2.872
78216W        W44757   0.338   2.383   3.659
78217W        W44758   4.136   6.493   0.887
78218W        W44759   5.867  22.943   0.695
78219W        W44760  33.144   8.360  10.503
78220W        W44761  14.289   8.458  13.800
78221W        W44762  35.012  44.143  12.132
78222W        W44763  38.407  42.445  11.062
78223W        W44764  14.878  37.802   0.811
78224W        W44765  33.382  21.749   0.099
78225W        W44766  37.956  35.625   0.423
78226W        W44767   4.352  41.001  12.025
78227W        W44768  33.828  19.747  11.523
78228W        W44769  29.753  35.071   0.993
78229W        W44770  43.092  16.507  12.978
78230W        W44771  34.402  39.612  13.446
78231W        W44772  20.663   6.356   1.837
78232W        W44773  40.715   5.919   3.780
78233W        W44774  24.911  37.878   3.743
78234W        W44775  43.209  41.403   0.360
78235W        W44776  30.287  17.131  12.475
78236W        W44777  26.192  22.067   3.749
78237W        W44778  37.405  44.186  14.829
78238W        W44779  24.807  18.390   4.164
78239W        W44780   7.170  11.312   0.319
78240W        W44781  40.537  14.209  14.959
78241W        W44782   6.212   7.784  13.372
78242W        W44783  27.571   7.638  14.068
78243W        W44784  22.640   4.844  10.201
78244W        W44785  43.845  11.622   4.569
78245W        W44786  21.373   8.371  11.878
78246W        W44787  22.262  35.381  12.155
78247W        W44788   5.808   2.597   3.390
78248W        W44789  36.832   1.703  10.960
78249W        W44790   7.695  26.731  14.600
78250W        W44791  44.239  33.939  10.659
78251W        W44792  10.541   4.834  11.029
78252W        W44793  30.457  41.559   4.186
78253W        W44794  10.222  19.120  12.862
78254W        W44795  42.776   5.865   2.629
78255W        W44796  12.711  14.580  10.504
78256W        W44797  26.136   4.271  13.901
78257W        W44798  43.220  39.336  10.649
78258W        W44799  23.952  27.744   2.403
78259W        W44800  42.928  11.702  14.978
78260W        W44801  43.326   3.432   3.731
78261W        W44802  23.559  18.957  12.579
78262W        W44803  36.829  21.194  14.806
78263W        W44804  31.204  29.244   3.166
78264W        W44805  19.407   5.134  11.612
78265W        W44806   6.251   3.403  13.311
78266W        W44807  39.053   1.475  13.889
78267W        W44808  26.089   7.143  10.770
78268W        W44809  31.202  42.204   1.552
78269W        W44810  16.013  44.476  13.252
78270W        W44811  29.813  31.627  11.446
78271W        W44812  20.234   4.966   1.653
78272W        W44813   2.802  42.544  11.113
78273W        W44814  15.037  20.781  12.453
78274W        W44815  25.730  37.287   9.961
78275W        W44816  40.524  11.845   1.450
78276W        W44817  11.871  38.467  14.263
78277W        W44818  10.060  35.631   3.436
78278W        W44819  27.276  43.468  11.606
78279W        W44820  26.899   4.225  11.573
78280W        W44821  23.766  17.638   4.232
78281W        W44822   8.625  22.832   1.838
78282W        W44823  15.307  37.963  10.719
78283W        W44824   3.729  21.203  14.606
78284W        W44825   5.470  32.424  14.039
78285W        W44826  31.823   3.245  14.503
78286W        W44827  24.022  26.989   4.579
78287W        W44828  20.596  36.840  10.760
78288W        W44829   1.961  15.545  11.169
78289W        W44830   5.330   1.520   0.750
78290W        W44831  15.537   1.883  13.040
78291W        W44832  24.662  43.321   3.149
78292W        W44833  37.935  16.524   1.860
78293W        W44834  17.976  41.942   0.355
78294W        W44835   9.258  41.717   0.735
78295W        W44836   8.342  44.778  11.640
78296W        W44837  22.826  31.361  12.490
78297W        W44838  10.795  10.903   4.145
78298W        W44839  40.370  11.249   0.327
78299W        W44840   6.156  32.823   2.081
78300W        W44841  42.720  37.244   4.589
78301W        W44842  12.746   5.357  10.987
78302W        W44843   9.001  27.087   2.649
78303W        W44844   1.359  39.122  14.077
78304W        W44845  19.650   9.852  13.885
78305W        W44846  14.629  29.539   1.247
78306W        W44847  35.332  40.945   1.807
78307W        W44848  42.943  28.568   3.639
78308W        W44849   6.586  13.873  12.605
78309W        W44850  24.818  17.370  11.121
78310W        W44851  39.895   6.775   2.618
78311W        W44852  26.718   3.774  14.335
78312W        W44853  14.637   2.158  13.309
78313W        W44854  30.872  36.447  13.980
78314W        W44855  15.529   8.763   1.861
78315W        W44856   8.714  41.121   9.945
78316W        W44857  42.200   0.046   4.700
78317W        W44858  33.807  30.532   0.703
78318W        W44859  38.821  24.501  10.735
78319W        W44860  11.109  17.591  12.791
78320W        W44861  12.768  36.035   4.136
78321W        W44862  33.269  10.713   3.275
78322W        W44863  30.629  29.881   3.459
78323W        W44864  17.182   0.263   2.486
78324W        W44865  25.452  18.841   1.220
78325W        W44866  42.352   2.080  11.741
78326W        W44867   8.032  16.288   3.858
78327W        W44868  29.025  17.380  13.956
78328W        W44869  26.192  30.589   1.826
78329W        W44870  15.994   0.074   0.445
78330W        W44871  17.120  40.678  12.060
78331W        W44872  22.072  24.038  10.689
78332W        W44873   0.715  13.102   3.604
78333W        W44874  39.860  41.051  14.530
78334W        W44875   5.874  13.224  14.229
78335W        W44876   3.368   7.989   4.755
78336W        W44877  39.385  29.687   3.890
78337W        W44878  11.596  31.897   1.204
78338W        W44879  28.739  12.376   9.810
78339W        W44880   4.370  21.999   2.120
78340W        W44881  33.944  24.391   0.406
78341W        W44882  33.619   2.437   0.589
78342W        W44883  14.606  41.175  13.998
78343W        W44884  32.171  34.835   4.166
78344W        W44885  26.861  30.585   0.500
78345W        W44886   0.328  18.819  11.638
78346W        W44887  23.556   6.470  12.083
78347W        W44888  36.879  29.196   4.788
78348W        W44889  10.680  15.291  11.035
78349W        W44890  34.471  44.511  13.345
78350W        W44891  23.598   5.417   2.732
78351W        W44892   5.270  44.187   1.478
78352W        W44893  43.111  33.233   0.844
78353W        W44894   3.156  36.385   0.484
78354W        W44895  25.837  27.025  12.137
78355W        W44896   0.054  36.642   0.960
78356W        W44897   3.045   5.033   4.938
78357W        W44898  18.983  33.960  11.896
78358W        W44899  44.430   1.439   1.290
78359W        W44900  32.726   8.315   0.311
78360W        W44901  33.693  16.716   3.698
78361W        W44902  18.675  37.451  13.980
78362W        W44903  13.053   8.384   3.330
78363W        W44904  28.891   7.796  12.525
78364W        W44905  35.629  11.750   0.119
78365W        W44906  32.924   1.267  13.533
78366W        W44907  24.788  31.853  14.876
78367W        W44908  35.373  31.986   4.553
78368W        W44909   2.965  25.068  14.648
78369W        W44910  19.324  13.357   3.747
78370W        W44911  24.300  14.296  14.980
78371W        W44912   2.756   3.965  10.694
78372W        W44913  39.476  18.723   4.495
78373W        W44914  44.294  12.800   1.883
78374W        W44915  31.700  40.599   3.355
78375W        W44916  42.829  19.055   2.676
78376W        W44917  26.696  24.470  11.557
78377W        W44918  39.519   1.268  13.987
78378W        W44919  19.523   2.518  13.859
78379W        W44920  29.453   0.524  13.013
78380W        W44921  24.740  33.351  13.023
78381W        W44922  24.191  34.443   2.226
78382W        W44923  37.424   3.374  11.145
78383W        W44924  11.237  27.444   0.701
78384W        W44925  31.980  28.691   4.301
78385W        W44926  31.400  35.003  10.634
78386W        W44927   7.984  17.145   1.460
78387W        W44928  24.677   6.361   3.956
78388W        W44929  11.154  26.732   1.861
78389W        W44930  34.470  23.920  12.938
78390W        W44931   0.376  39.039  13.864
78391W        W44932  18.686  31.246   1.105
78392W        W44933  44.913  31.312  11.127
78393W        W44934  43.120  16.266  14.758
78394W        W44935  33.815  20.055   1.940
78395W        W44936  35.854  27.680  11.587
78396W        W44937  22.009  43.219  10.460
78397W        W44938  26.907  35.881  13.914
78398W        W44939   9.517  40.586   3.716
78399W        W44940   7.783  12.309   3.020
78400W        W44941  12.233  11.457   1.525
78401W        W44942  22.695  14.225  15.000
78402W        W44943  27.494  43.530  14.714
78403W        W44944  43.929  27.731  12.964
78404W        W44945   1.400  21.586   1.776
78405W        W44946  12.440  20.722   4.110
78406W        W44947  25.835   8.926   2.072
78407W        W44948  29.174   6.795  13.327
78408W        W44949  30.111  15.251  11.851
78409W        W44950  15.849  32.487   2.264
78410W        W44951  18.015  38.624  13.971
78411W        W44952  12.678  28.479  12.304
78412W        W44953  21.673   1.471   3.691
78413W        W44954  35.067  23.528   4.974
78414W        W44955  25.710  24.573  12.469
78415W        W44956   0.195   3.474  13.792
78416W        W44957   0.144  33.864   3.694
78417W        W44958  10.485  12.132  14.343
78418W        W44959  21.995  24.248   3.876
78419W        W44960  15.997  10.290  12.799
78420W        W44961   0.840  26.064  13.341
78421W        W44962  13.890  41.900   4.133
78422W        W44963   1.314  11.540   1.840
78423W        W44964  16.329   9.699  14.485
78424W        W44965  36.067   6.757  14.563
78425W        W44966  24.336  43.969  12.086
78426W        W44967  23.077  34.662  11.608
78427W        W44968  17.619   1.716  10.768
78428W        W44969  26.661   7.574  13.035
78429W        W44970  39.487  20.406  13.757
78430W        W44971   0.964  34.161   1.889
78431W        W44972  35.601  41.969  11.713
78432W        W44973  34.861  43.490   2.184
78433W        W44974  30.829  20.185   1.711
78434W        W44975  33.552  34.904   2.883
78435W        W44976  18.097  10.236   2.436
78436W        W44977   7.656  16.320  11.208
78437W        W44978  41.267  13.579  12.976
78438W        W44979  13.362  35.437  11.906
78439W        W44980  41.099  44.023  12.892
78440W        W44981  41.768   9.620  13.125
78441W        W44982  19.418   5.388   9.687
78442W        W44983  17.753  37.879   3.818
78443W        W44984  36.647  26.192   1.876
78444W        W44985  38.921  12.084   0.803
78445W        W44986  11.081  13.228   1.837
78446W        W44987  31.072   7.659  14.368
78447W        W44988   7.181   2.845  11.756
78448W        W44989  19.164  10.402   0.041
78449W        W44990   4.190  18.742   3.381
78450W        W44991  10.872  40.911   2.866
78451W        W44992  28.452   2.324   0.143
78452W        W44993   5.611   2.874   3.009
78453W        W44994   6.822  18.514   4.063
78454W        W44995   7.372  25.057  13.113
78455W        W44996  18.254  10.302   3.889
78456W        W44997  32.331  25.203   3.989
78457W        W44998  30.745  37.997  14.396
78458W        W44999  36.350  12.951  14.607
78459W        W45000  44.349  40.790  12.142
78460W        W45001  15.021  32.257   2.291
78461W        W45002  42.577  38.523  14.349
78462W        W45003  15.405  13.798  12.539
78463W        W45004  42.076  19.848  14.896
78464W        W45005   9.923  37.931   4.443
78465W        W45006  30.268  31.827  13.514
78466W        W45007  16.358   1.429   0.209
78467W        W45008  11.307  33.411   4.054
78468W        W45009   7.930  14.570   1.267
78469W        W45010  25.201   3.698   4.344
78470W        W45011  39.269  34.342   2.189
78471W        W45012  24.137  38.952   3.989
78472W        W45013  14.090  39.810   3.221
78473W        W45014   7.888   7.358  12.536
78474W        W45015  35.330   5.788   2.801
78475W        W45016  42.864  25.778   4.984
78476W        W45017  41.431  10.776  14.147
78477W        W45018  40.913  23.696   3.663
78478W        W45019  31.733  31.800   3.620
78479W        W45020  30.942  26.909  11.533
78480W        W45021  43.904  30.514  11.976
78481W        W45022  40.487  10.271   2.507
78482W        W45023  18.516  11.252   1.750
78483W        W45024   3.856   8.288  13.024
78484W        W45025  39.013  11.721  12.490
78485W        W45026  11.922  41.803  13.399
78486W        W45027  19.985  10.400  11.580
78487W        W45028  42.046  23.132  10.542
78488W        W45029  18.542  41.552  13.324
78489W        W45030  36.314  29.547   2.154
78490W        W45031  32.480  44.748  14.882
78491W        W45032   9.692  20.674  11.588
78492W        W45033  10.821  24.606   3.606
78493W        W45034   7.850  15.407   0.990
78494W        W45035  44.444   3.883   0.859
78495W        W45036  29.421  17.912  13.388
78496W        W45037  24.697   1.765   2.661
78497W        W45038  15.846  44.075  12.950
78498W        W45039  33.606  33.790   4.512
78499W        W45040  40.707   8.318   0.313
78500W        W45041  17.824  36.999   2.129
78501W        W45042  30.632   4.373  11.896
78502W        W45043   4.675   6.452   9.973
78503W        W45044  10.007  12.224   4.133
78504W        W45045   5.731  36.529  13.815
78505W        W45046  22.838  30.266   4.951
78506W        W45047  23.020   5.159  12.139
78507W        W45048  17.142  39.182  12.023
78508W        W45049   6.757  11.237  13.143
78509W        W45050  19.023  18.641  12.185
78510W        W45051  30.937  32.152   1.961
78511W        W45052  31.663   8.632  13.297
78512W        W45053  43.923  44.991  11.534
78513W        W45054  10.377  36.560  12.017
78514W        W45055  24.266  41.285  14.026
78515W        W45056  43.942   9.172  14.114
78516W        W45057  34.420   3.702   1.278
78517W        W45058   8.758  27.180   2.195
78518W        W45059  37.192  32.431  13.775
78519W        W45060  24.638   0.540   2.685
78520W        W45061  35.759  20.028  11.629
78521W        W45062  36.503  13.781  10.526
78522W        W45063  10.966  28.625   3.564
78523W        W45064  38.212  36.010   4.097
78524W        W45065  41.435  20.206  12.382
78525W        W45066  26.649  14.001  11.603
78526W        W45067  27.128  20.344   1.347
78527W        W45068  40.510   7.060   0.721
78528W        W45069  36.382  26.029   4.747
78529W        W45070   2.103   5.725   3.818
78530W        W45071  31.029  15.645   4.604
78531W        W45072  25.594  43.032   4.048
78532W        W45073  32.579  25.599  14.091
78533W        W45074   3.036  29.980   1.736
78534W        W45075  27.890  29.554  14.220
78535W        W45076  20.173  25.077   1.016
78536W        W45077  34.811  32.635   0.291
78537W        W45078  31.485   6.889   1.257
78538W        W45079  10.997  15.001  13.331
78539W        W45080  30.319  12.130   1.376
78540W        W45081  38.193  19.723  10.777
78541W        W45082  29.206  40.589   1.005
78542W        W45083   9.915  33.060  10.697
78543W        W45084   2.735  36.899  12.383
78544W        W45085  29.500   9.593   4.175
78545W        W45086  34.625  20.557   1.840
78546W        W45087  38.055  32.123   2.254
78547W        W45088  42.972   0.477   0.810
78548W        W45089  40.512   2.437  14.005
78549W        W45090  14.281  17.388  11.431
78550W        W45091  41.507   9.866  10.648
78551W        W45092  27.980  32.613   4.178
78552W        W45093  37.687   4.963   4.014
78553W        W45094  28.992  19.462   4.512
78554W        W45095  30.137  37.925   0.541
78555W        W45096  39.374   7.878   2.274
78556W        W45097  24.067  32.147  11.203
78557W        W45098  27.894  27.886  12.031
78558W        W45099  42.911   5.150  12.454
78559W        W45100  32.093  42.931   2.224
78560W        W45101   9.792  16.552   2.299
78561W        W45102  21.320  17.539  12.479
78562W        W45103  18.325  37.370  11.668
78563W        W45104  34.867  34.836  10.017
78564W        W45105  24.032  31.060   4.721
78565W        W45106   1.143  28.222   3.652
78566W        W45107  28.068   0.735  11.013
78567W        W45108  40.587  29.148   2.167
78568W        W45109   9.359  16.492   1.236
78569W        W45110   0.280   2.919   3.361
78570W        W45111  12.118  12.888   3.127
78571W        W45112  17.132  12.311  11.241
78572W        W45113  24.585  40.171   3.689
78573W        W45114   3.151  42.292   4.692
78574W        W45115  32.515   9.649   3.464
78575W        W45116  29.999  26.169  10.700
78576W        W45117   1.071  15.141   3.631
78577W        W45118  17.518  42.535  11.096
78578W        W45119   9.176   0.412   4.673
78579W        W45120  12.716  16.847   1.970
78580W        W45121  17.702  25.445   1.797
78581W        W45122  13.689   2.051  14.359
78582W        W45123  40.427   0.517   4.321
78583W        W45124  30.842  12.687   0.165
78584W        W45125  31.090  41.280  10.658
78585W        W45126  22.644  43.236   0.306
78586W        W45127  40.568  15.764   0.298
78587W        W45128  17.756  25.548  10.706
78588W        W45129  12.120  14.116  11.596
78589W        W45130  10.813  14.706   1.975
78590W        W45131  30.449  15.738   3.417
78591W        W45132  34.339   4.729   1.279
78592W        W45133  27.545  34.026   2.985
78593W        W45134  19.256   3.404  11.969
78594W        W45135  30.024  16.430   0.117
78595W        W45136   5.823  14.301  11.400
78596W        W45137  22.516  25.954   4.117
78597W        W45138  13.374  27.013   4.215
78598W        W45139  11.229  36.852  12.085
78599W        W45140  34.460  19.304  13.400
78600W        W45141  26.585   1.357  13.022
78601W        W45142   7.287  26.768   2.942
78602W        W45143  13.679  44.824  12.136
78603W        W45144  23.609  11.591   1.884
78604W        W45145  10.225  15.285  13.852
78605W        W45146  24.695  40.890   4.167
78606W        W45147  38.329  16.636   9.899
78607W        W45148  12.155  11.928  12.278
78608W        W45149  11.382   0.833   4.908
78609W        W45150  32.364  32.402   4.695
78610W        W45151  27.183  41.404   3.467
78611W        W45152  35.297  32.037   3.758
78612W        W45153  15.661  21.795  11.186
78613W        W45154  21.907  39.387  11.459
78614W        W45155   5.353  22.866  14.488
78615W        W45156  35.169  15.244  12.837
78616W        W45157  41.767  14.760   1.758
78617W        W45158  37.938   7.912  10.544
78618W        W45159  33.602  33.446   1.870
78619W        W45160  11.299  32.385  11.935
78620W        W45161  29.301  18.814   0.837
78621W        W45162  33.655  16.108  13.773
78622W        W45163  33.535  14.342   4.045
78623W        W45164  32.873  40.652   1.864
78624W        W45165  33.172   4.317  12.849
78625W        W45166   3.329  34.477   2.500
78626W        W45167   8.918  44.251   0.695
78627W        W45168  11.249  40.419  11.939
78628W        W45169  28.088  32.956  11.773
78629W        W45170   9.220  44.241  10.581
78630W        W45171  39.395  28.748   4.198
78631W        W45172  12.050  35.834   3.716
78632W        W45173  20.813  32.047   2.250
78633W        W45174   7.840  30.570   3.843
78634W        W45175  19.744  42.335   0.046
78635W        W45176  23.049  40.755  14.310
78636W        W45177  14.388  36.940   0.912
78637W        W45178  16.227  32.838   2.305
78638W        W45179  24.632   9.607   0.758
78639W        W45180  30.237  39.770  11.219
78640W        W45181   0.925  21.808  11.652
78641W        W45182   3.430  11.021   1.686
78642W        W45183  25.461  28.971  14.044
78643W        W45184  16.534  19.614  12.534
78644W        W45185  37.065  33.722   2.632
78645W        W45186  30.569  12.401   2.280
78646W        W45187  29.570   1.789   3.622
78647W        W45188  14.782  44.337   2.711
78648W        W45189  38.435  33.025   1.649
78649W        W45190   4.932   8.883  13.024
78650W        W45191   5.897  22.487  11.186
78651W        W45192  21.208  29.937  10.943
78652W        W45193  12.396  44.582   0.453
78653W        W45194  19.699  44.245  11.505
78654W        W45195  21.694   0.834   0.862
78655W        W45196  37.357  36.887  11.819
78656W        W45197  36.454  26.438  12.399
78657W        W45198  13.178   7.206  12.453
78658W        W45199   8.944  37.856  12.868
78659W        W45200  17.866  21.217  10.968
78660W        W45201  26.307  20.779   3.746
78661W        W45202  34.439  25.286  13.638
78662W        W45203  33.638  40.120  10.266
78663W        W45204  43.183  41.095   5.073
78664W        W45205  26.186  17.534   4.294
78665W        W45206  28.977  43.117  14.325
78666W        W45207  27.247   1.385  11.721
78667W        W45208  28.949  12.275  13.351
78668W        W45209  35.983  44.481  14.133
78669W        W45210   2.041  22.727   3.710
78670W        W45211   9.936  27.976   2.835
78671W        W45212   0.052   5.877  14.453
78672W        W45213  41.152   8.633  13.452
78673W        W45214  37.643  31.448  12.414
78674W        W45215  33.107  33.719   1.649
78675W        W45216  44.225   9.196   3.634
78676W        W45217  11.069  28.403   3.087
78677W        W45218  43.596  28.226   0.859
78678W        W45219  37.988  21.599  10.819
78679W        W45220   0.824  13.797   0.779
78680W        W45221  34.176  16.747  13.487
78681W        W45222  32.118   6.714  11.615
78682W        W45223  18.270  40.043  11.114
78683W        W45224  40.857  16.348  12.055
78684W        W45225   9.621   7.382  11.965
78685W        W45226  37.242  26.421   3.763
78686W        W45227  16.167  21.106   4.541
78687W        W45228  15.158  12.342  14.071
78688W        W45229   8.087   7.849   2.053
78689W        W45230  34.454  41.533  10.798
78690W        W45231   8.801  34.941   0.371
78691W        W45232  40.164  21.151   5.108
78692W        W45233  11.284  22.031   0.708
78693W        W45234   6.741  13.364   2.723
78694W        W45235  35.140  22.222   2.411
78695W        W45236  20.148  18.722   3.405
78696W        W45237  15.530  31.080  12.007
78697W        W45238   0.821  27.036  12.221
78698W        W45239   4.896   6.974   2.455
78699W        W45240  19.504  19.040  10.612
78700W        W45241   7.943  32.140   0.156
78701W        W45242   0.921   1.940   5.040
78702W        W45243  34.400  14.995   0.132
78703W        W45244  25.625  18.007  12.101
78704W        W45245  36.392  42.090   1.237
78705W        W45246  41.571  33.818   0.861
78706W        W45247  33.442  15.281   4.600
78707W        W45248  12.944  33.689   5.015
78708W        W45249   0.932  27.512  14.527
78709W        W45250   9.138   9.977   0.104
78710W        W45251  25.486  13.146  14.532
78711W        W45252  37.411  26.160   2.430
78712W        W45253  11.308  40.814   4.781
78713W        W45254  12.719  39.402   1.653
78714W        W45255   5.160   8.102  14.885
78715W        W45256   5.164  25.281  12.630
78716W        W45257  28.339  12.566   3.853
78717W        W45258  37.174  10.819   4.838
78718W        W45259   2.670   5.310   0.356
78719W        W45260   0.232  17.278  13.733
78720W        W45261  42.244   9.288   3.577
78721W        W45262  38.675  16.370   0.998
78722W        W45263  21.682  16.631   3.754
78723W        W45264   9.926  11.106   1.205
78724W        W45265  37.100   8.005  13.465
78725W        W45266   5.566   0.703   2.334
78726W        W45267  42.272   0.933   4.780
78727W        W45268  16.887  29.980   3.669
78728W        W45269  14.417  27.059   3.308
78729W        W45270   3.483   4.096   4.075
78730W        W45271  40.721  44.970   3.475
78731W        W45272   2.217   6.743   0.981
78732W        W45273  38.697  43.402  12.476
78733W        W45274  20.085  22.620  11.654
78734W        W45275  29.161   3.809  12.476
78735W        W45276   9.556  33.988   3.218
78736W        W45277  14.693  13.168  14.628
78737W        W45278   3.498  17.111   3.582
78738W        W45279  32.421   5.214   3.330
78739W        W45280  13.591  29.198  13.882
78740W        W45281  38.119  11.647  14.481
78741W        W45282   0.476   5.398   4.119
78742W        W45283  27.635  27.213  11.633
78743W        W45284   2.198  44.944  11.202
78744W        W45285  37.765  14.596   0.777
78745W        W45286  35.840  15.987  12.190
78746W        W45287   4.380  29.076  10.654
78747W        W45288  42.891  37.884  12.199
78748W        W45289  12.372  39.498   0.197
78749W        W45290  39.558  11.239   1.949
78750W        W45291  33.443  26.387  10.213
78751W        W45292   3.556   5.663   3.676
78752W        W45293  20.973   2.316  14.781
78753W        W45294   6.634  41.280  13.884
78754W        W45295   5.693  37.976  11.239
78755W        W45296   7.605  42.391  14.841
78756W        W45297   0.940  11.588  13.788
78757W        W45298   9.827   5.731   2.762
78758W        W45299   0.198  24.966  11.146
78759W        W45300  15.359  24.206   4.630
78760W        W45301   1.389  38.350   2.706
78761W        W45302  24.650  16.089  14.469
78762W        W45303  25.749   2.692   2.911
78763W        W45304   1.915  36.856   0.577
78764W        W45305  35.569   8.042  11.576
78765W        W45306  24.976  23.511   3.622
78766W        W45307  40.990  32.720   2.857
78767W        W45308   5.605  29.879  14.293
78768W        W45309  38.098  15.706  14.193
78769W        W45310  37.095   7.933  14.748
78770W        W45311  17.504  34.841   4.446
78771W        W45312  11.388  39.123  14.914
78772W        W45313  22.809  22.659  10.406
78773W        W45314  34.555  24.653   3.943
78774W        W45315   8.814  10.653   3.383
78775W        W45316  17.472  13.191  10.366
78776W        W45317   5.881  31.302  12.735
78777W        W45318  10.409  36.178   1.433
78778W        W45319  19.188  12.709   4.467
78779W        W45320  12.107  21.235   3.475
78780W        W45321  15.730  33.507  11.226
78781W        W45322   3.229  15.566  13.711
78782W        W45323  29.153  16.209  10.320
78783W        W45324   1.989  40.293   0.199
78784W        W45325  35.379  27.441   4.137
78785W        W45326  44.278  31.935   3.209
78786W        W45327   0.305   7.861   4.977
78787W        W45328   6.331  32.210   9.953
78788W        W45329   2.865  16.747  13.263
78789W        W45330  10.541   6.104  14.911
78790W        W45331  11.266  25.301  13.852
78791W        W45332   6.321  29.004   0.859
78792W        W45333  25.620  12.227   3.794
78793W        W45334  10.153  21.743   2.921
78794W        W45335  29.173  37.926   3.654
78795W        W45336  14.891  12.681  10.770
78796W        W45337  24.423  12.158  10.774
78797W        W45338   7.979   0.314   2.175
78798W        W45339  30.764  18.178   2.536
78799W        W45340  16.666  22.282  11.633
78800W        W45341  40.575  23.252  13.645
78801W        W45342   7.715  44.166   4.121
78802W        W45343  15.778  44.235  10.774
78803W        W45344  11.804  37.618  13.088
78804W        W45345  37.174  27.498   2.896
78805W        W45346  37.146  21.163  12.004
78806W        W45347  24.541  43.870  13.874
78807W        W45348  30.966  26.148   4.837
78808W        W45349   0.111  11.382  14.723
78809W        W45350  39.462   8.948   1.244
78810W        W45351  24.526  14.118   3.207
78811W        W45352  38.976  21.541  12.019
78812W        W45353   3.948  39.109   3.126
78813W        W45354   2.658  28.125   0.459
78814W        W45355  39.399   1.565   1.483
78815W        W45356  13.232  28.641   0.832
78816W        W45357  27.076  14.372   0.520
78817W        W45358   7.742   8.008  14.021
78818W        W45359  38.086  28.382  11.570
78819W        W45360   5.288  44.380   0.763
78820W        W45361  34.072  14.786   3.197
78821W        W45362  13.078  43.556  12.097
78822W        W45363  14.725  33.559   2.424
78823W        W45364   8.998   5.208   0.754
78824W        W45365   6.866   8.792  11.529
78825W        W45366   5.860  20.547   0.292
78826W        W45367  31.528   4.488  11.567
78827W        W45368  33.395   4.944  13.457
78828W        W45369   4.304  20.754  10.745
78829W        W45370  21.983  39.393  11.956
78830W        W45371   9.415   4.341  11.610
78831W        W45372   8.255  12.968  11.488
78832W        W45373   8.846  28.669  10.621
78833W        W45374   1.513  16.840   2.314
78834W        W45375   6.355  23.036   3.564
78835W        W45376  21.728  25.251   3.378
78836W        W45377  32.310  40.731   2.319
78837W        W45378  41.058   2.820  11.015
78838W        W45379  24.722  27.948   4.237
78839W        W45380  29.060  15.323  13.993
78840W        W45381  28.627  16.228  14.349
78841W        W45382  20.305  34.046   3.210
78842W        W45383  22.482   7.984   2.351
78843W        W45384  15.561  34.825  10.997
78844W        W45385  22.245  23.123  11.561
78845W        W45386  27.747  11.786   1.422
78846W        W45387  42.443   2.191   1.672
78847W        W45388  16.401  14.425   5.450
78848W        W45389   5.935  26.041  14.848
78849W        W45390   0.763  34.807   3.952
78850W        W45391  27.453  26.312   2.321
78851W        W45392  24.690  25.433   0.867
78852W        W45393  27.176  27.985  13.504
78853W        W45394  37.372   4.660   2.033
78854W        W45395  15.350  10.690   4.062
78855W        W45396   8.211  40.844  13.021
78856W        W45397  33.264   5.284  10.910
78857W        W45398  28.231  35.293   0.763
78858W        W45399  21.546  13.678   3.201
78859W        W45400  35.984  22.473  11.434
78860W        W45401  24.134  27.081   4.062
78861W        W45402  27.565  42.277   1.271
78862W        W45403  39.035  18.612   2.667
78863W        W45404  30.644  41.380   0.432
78864W        W45405  21.340  30.717   1.110
78865W        W45406  20.938   8.987  12.515
78866W        W45407   2.577  44.438   4.529
78867W        W45408   7.849  32.728  11.913
78868W        W45409  17.745  20.724   1.261
78869W        W45410   5.712  42.821  11.138
78870W        W45411   9.198  40.312   4.028
78871W        W45412  27.578  26.239   1.397
78872W        W45413  20.574  14.179   1.888
78873W        W45414   6.512   3.814  11.132
78874W        W45415  27.157  15.887   3.652
78875W        W45416   3.908  18.731  12.995
78876W        W45417  26.670  37.591  14.337
78877W        W45418  36.364   1.415  10.733
78878W        W45419  39.063  22.885   0.790
78879W        W45420  32.178  26.775   2.206
78880W        W45421  23.604   7.736  12.531
78881W        W45422  39.834   0.162  13.432
78882W        W45423   4.265  37.277  11.720
78883W        W45424  24.793  43.446  13.084
78884W        W45425   2.689  21.989  13.994
78885W        W45426  26.866   4.719   0.698
78886W        W45427  24.776   5.429  13.343
78887W        W45428   3.795  43.790   4.229
78888W        W45429  36.816   9.577   0.620
78889W        W45430   2.338   1.315  13.928
78890W        W45431   3.771  39.506   4.601
78891W        W45432  28.097  10.386  11.996
78892W        W45433   8.427   3.399   2.478
78893W        W45434  31.871  27.910  10.592
78894W        W45435  13.401  17.483  12.954
78895W        W45436  21.731   6.946  14.752
78896W        W45437   4.283  24.469  11.568
78897W        W45438  22.935   6.302  12.457
78898W        W45439  40.538  14.832  12.976
78899W        W45440  44.505  23.210  10.984
78900W        W45441  23.561  41.974  11.581
78901W        W45442  21.755  42.919   0.745
78902W        W45443  12.646   0.789   2.734
78903W        W45444  16.803  31.001  13.834
78904W        W45445  40.825  44.908  13.931
78905W        W45446  17.847  37.562  10.320
78906W        W45447  10.682  13.932   0.452
78907W        W45448   6.903  26.490  12.946
78908W        W45449   1.308  21.753  11.274
78909W        W45450   2.597  12.879   0.638
78910W        W45451  35.288  34.647   0.283
78911W        W45452  15.926  21.323  11.117
78912W        W45453  25.390  34.967   0.966
78913W        W45454   7.797  12.853   2.889
78914W        W45455  42.045  29.559  10.722
78915W        W45456  43.969  17.989  13.844
78916W        W45457  44.436  14.101  10.888
78917W        W45458  35.547   1.758  11.973
78918W        W45459  38.034  40.613  12.015
78919W        W45460   0.551   3.970   4.177
78920W        W45461  25.533  11.855   2.652
78921W        W45462  44.741   9.943  12.468
78922W        W45463  10.159  15.769   3.398
78923W        W45464  33.796  37.590  12.626
78924W        W45465  10.845  18.833  12.122
78925W        W45466   7.133   6.367  12.002
78926W        W45467  23.221   1.031  12.514
78927W        W45468  18.060  23.179   0.318
78928W        W45469  20.210   0.278  11.076
78929W        W45470  10.876  20.207  12.492
78930W        W45471  18.734   2.431   0.586
78931W        W45472  42.766  16.495   3.501
78932W        W45473  32.008   9.744   0.922
78933W        W45474  29.488  33.678  14.732
78934W        W45475  11.183  20.503  13.445
78935W        W45476  44.922  10.916   1.735
78936W        W45477  25.503  42.819  14.246
78937W        W45478  26.032  38.527  12.515
78938W        W45479  11.627  33.456  12.007
78939W        W45480  33.463  12.078   3.629
78940W        W45481  20.011   1.915   2.057
78941W        W45482  14.219  17.107   2.738
78942W        W45483   7.350  33.382  12.119
78943W        W45484  27.307  21.191   2.732
78944W        W45485  43.022  21.959  10.200
78945W        W45486   2.174  15.930   3.551
78946W        W45487  21.634  23.036   4.000
78947W        W45488  18.327   7.923   2.545
78948W        W45489   9.665   8.873  13.609
78949W        W45490  20.186   2.338  12.005
78950W        W45491  31.011  37.525  13.961
78951W        W45492  11.750  31.797  14.568
78952W        W45493  43.051  34.568  14.411
78953W        W45494  17.430  32.051  13.951
78954W        W45495   6.354   9.692   0.276
78955W        W45496   7.977  39.656  11.362
78956W        W45497  13.355   8.315   3.738
78957W        W45498  31.997  16.167  14.928
78958W        W45499  24.571  31.923  10.472
78959W        W45500  23.553  29.867   1.777
78960W        W45501  28.150   3.900   0.466
78961W        W45502   6.490  18.976   0.467
78962W        W45503  12.036   9.629   1.404
78963W        W45504  32.360  26.459  12.453
78964W        W45505  38.761  25.582   1.329
78965W        W45506  38.941  27.870   1.341
78966W        W45507  39.665  22.053   3.321
78967W        W45508  17.045  43.314   1.175
78968W        W45509  35.357  22.010  11.262
78969W        W45510  33.900  26.936  13.419
78970W        W45511   9.145   6.352  13.125
78971W        W45512   3.272  38.808  14.738
78972W        W45513  10.319  29.673   3.179
78973W        W45514  36.002  44.228  11.082
78974W        W45515  16.117  39.882   0.316
78975W        W45516  11.110  18.201  13.830
78976W        W45517  26.724   6.183   4.124
78977W        W45518  27.796  34.428  11.158
78978W        W45519  34.721  14.106   2.693
78979W        W45520  34.675  15.682  14.419
78980W        W45521   0.874  15.192  10.508
78981W        W45522   5.266  38.785   2.676
78982W        W45523  28.503  11.555  13.582
78983W        W45524   0.023  18.503   2.407
78984W        W45525  37.049  27.637  13.526
78985W        W45526  39.101  35.018  13.358
78986W        W45527  36.113  40.548  12.640
78987W        W45528   5.810  36.840   0.485
78988W        W45529  25.517  13.154  11.576
78989W        W45530   4.757  14.611   0.011
78990W        W45531   0.947  33.652   1.856
78991W        W45532   9.935  32.774   2.755
78992W        W45533  27.163   5.119   2.188
78993W        W45534   1.135  37.376  13.478
78994W        W45535  11.143  42.644   3.469
78995W        W45536  18.786   9.042   3.796
78996W        W45537  35.764  28.504   4.381
78997W        W45538  42.466  17.268  11.910
78998W        W45539   0.020   4.443  11.233
78999W        W45540   5.860  16.758   1.621
79000W        W45541  13.858   6.634   3.752
79001W        W45542  25.728   0.805  11.618
79002W        W45543  20.233  42.998  13.916
79003W        W45544  21.112  14.051  11.603
79004W        W45545   3.993  37.582  14.929
79005W        W45546  39.346  26.205  10.745
79006W        W45547  36.548  18.423   3.327
79007W        W45548   6.201   1.734  11.177
79008W        W45549  44.884   7.721  13.062
79009W        W45550  10.892  20.911   3.938
79010W        W45551   3.480  15.943  14.017
79011W        W45552   7.712  24.272  12.963
79012W        W45553  44.172  13.760  13.071
79013W        W45554   9.858   2.093   3.410
79014W        W45555  27.986  38.078  12.727
79015W        W45556  36.883  22.360   2.458
79016W        W45557  11.058  35.426  13.505
79017W        W45558  40.375  16.331   1.448
79018W        W45559   8.895  10.566   2.289
79019W        W45560  13.250  23.334   1.371
79020W        W45561  10.870  37.269   2.814
79021W        W45562  14.712  14.797   4.795
79022W        W45563  35.454   7.093  10.635
79023W        W45564  20.801  23.662   3.688
79024W        W45565  27.921   3.367  12.992
79025W        W45566  38.566  28.277  11.473
79026W        W45567  13.392   0.330  10.780
79027W        W45568   4.520   1.507   2.933
79028W        W45569  29.396  31.492  11.185
79029W        W45570  43.112  40.248   0.063
79030W        W45571  21.366   8.765  12.795
79031W        W45572   3.728  32.079   1.526
79032W        W45573  33.945   4.440   1.438
79033W        W45574  43.929   3.563  12.189
79034W        W45575  29.281  27.581  12.952
79035W        W45576   2.903  36.457  14.949
79036W        W45577  21.235  37.550   3.641
79037W        W45578  41.680   4.514  14.738
79038W        W45579  28.736  29.780  14.122
79039W        W45580  27.620  36.385  12.857
79040W        W45581  39.091   7.730  11.956
79041W        W45582   1.297  10.245  13.409
79042W        W45583  11.407  36.400  11.894
79043W        W45584  28.125  16.664   3.257
79044W        W45585  28.999  28.498   1.468
79045W        W45586   3.323  37.523   1.885
79046W        W45587  25.619   1.616  13.366
79047W        W45588  17.512  24.520   0.340
79048W        W45589  38.653  14.437   4.075
79049W        W45590  35.459  19.192  12.496
79050W        W45591  44.240   5.780   2.691
79051W        W45592  22.305  24.135   0.437
79052W        W45593  26.209  34.368  14.074
79053W        W45594   1.864  19.932   1.623
79054W        W45595  19.613  41.195   3.672
79055W        W45596  22.588  31.709   3.085
79056W        W45597   4.048  22.707   1.771
79057W        W45598  31.819  14.166   3.265
79058W        W45599   9.824  12.402  13.419
79059W        W45600  24.402  36.232  13.531
79060W        W45601  13.041  32.643   4.075
79061W        W45602  22.276  14.505  11.209
79062W        W45603  22.169  38.016  14.296
79063W        W45604  38.180  31.061  12.949
79064W        W45605  42.646  22.701   2.341
79065W        W45606  40.420  40.023   3.187
79066W        W45607  24.941   5.546   3.775
79067W        W45608  34.352  43.679   0.023
79068W        W45609   8.120  21.117   0.733
79069W        W45610   1.665  18.355   0.814
79070W        W45611   8.393  15.355   2.226
79071W        W45612  38.417  15.546   0.873
79072W        W45613  18.573  43.481   1.663
79073W        W45614  11.400  23.934  11.103
79074W        W45615  19.827  33.948  10.597
79075W        W45616   0.278   0.110   5.089
79076W        W45617  24.504  10.811  12.072
79077W        W45618  29.718  37.906  10.971
79078W        W45619  21.604  20.260   2.225
79079W        W45620  42.260  20.593  12.424
79080W        W45621   2.314   8.473   3.328
79081W        W45622  15.897   7.977   0.825
79082W        W45623  11.781  21.543  11.020
79083W        W45624  22.014  11.935   3.728
79084W        W45625  11.773  27.673   4.345
79085W        W45626  14.326  27.049  13.394
79086W        W45627  31.903   1.742  11.070
79087W        W45628  43.504   5.681   1.852
79088W        W45629  10.367  34.561  13.803
79089W        W45630  22.137  34.577   2.328
79090W        W45631  19.199  44.078  12.378
79091W        W45632   8.126  22.195  14.381
79092W        W45633   9.705  37.116  12.054
79093W        W45634  37.912  30.591   3.252
79094W        W45635  40.105  23.454   2.197
79095W        W45636   0.072  21.496  14.963
79096W        W45637  31.045  19.920   4.679
79097W        W45638  34.865  27.338   2.466
79098W        W45639  12.528  11.560   5.146
79099W        W45640   1.282  19.192  11.435
79100W        W45641  10.629  33.014  11.406
79101W        W45642  39.898   0.498  11.540
79102W        W45643  17.155  38.084   0.703
79103W        W45644  17.289  10.295  12.374
79104W        W45645   4.287   0.633  12.939
79105W        W45646  37.323  32.587   2.941
79106W        W45647   1.505  38.080  14.772
79107W        W45648  26.424  22.463  12.464
79108W        W45649  30.472  30.130  12.510
79109W        W45650  21.029  36.477   2.518
79110W        W45651   1.823  22.295   4.009
79111W        W45652  24.612  35.444   3.174
79112W        W45653  10.473  22.412   4.072
79113W        W45654  29.002  35.742  13.728
79114W        W45655  12.822  30.403  10.244
79115W        W45656  32.965  23.839   2.600
79116W        W45657  14.063  36.519  14.977
79117W        W45658  43.252   9.636   4.636
79118W        W45659  18.337  18.613   3.706
79119W        W45660  11.625   4.446  10.374
79120W        W45661  16.531  20.022  13.271
79121W        W45662  16.940  21.128   1.247
79122W        W45663   3.825  23.705   3.642
79123W        W45664  33.938   0.612   9.737
79124W        W45665  43.034  20.702  10.752
79125W        W45666  39.240  10.585   0.722
79126W        W45667  22.413   7.634   9.888
79127W        W45668  31.051  28.395   0.099
79128W        W45669   4.941  37.391   3.201
79129W        W45670  14.205  43.741   3.256
79130W        W45671  11.668   4.296  13.540
79131W        W45672   3.501  39.780   1.780
79132W        W45673  20.679  36.617   0.475
79133W        W45674  27.137  15.354  11.200
79134W        W45675  41.234   4.268  14.491
79135W        W45676  40.941  41.079   0.972
79136W        W45677   9.864  39.797  11.476
79137W        W45678  39.675  11.787   9.908
79138W        W45679  14.165  39.980   1.338
79139W        W45680  14.864  23.493   3.200
79140W        W45681  28.086  11.533   3.014
79141W        W45682  26.958  14.307   5.166
79142W        W45683  20.800  33.642   0.966
79143W        W45684  44.893  13.789   0.802
79144W        W45685   5.948  37.430  13.742
79145W        W45686  14.145  34.923   0.473
79146W        W45687  21.640  26.097  14.327
79147W        W45688  17.079  36.858  14.826
79148W        W45689  30.426  25.362  14.299
79149W        W45690  32.689  38.137   2.871
79150W        W45691  41.535   6.622  11.948
79151W        W45692   9.319  44.037  12.746
79152W        W45693  34.005   6.788  13.717
79153W        W45694  29.277   5.350   2.158
79154W        W45695  26.871  40.434   0.003
79155W        W45696  24.264  12.664   3.573
79156W        W45697  21.652   7.821  12.974
79157W        W45698  10.797  27.399  13.027
79158W        W45699  37.971  19.754   0.275
79159W        W45700  18.781  37.897  14.837
79160W        W45701  28.922  39.074  10.469
79161W        W45702  12.883  29.086  12.900
79162W        W45703  30.344  41.290  13.782
79163W        W45704  12.098   9.955   1.834
79164W        W45705  12.139  32.611  13.030
79165W        W45706  34.958  27.996   0.776
79166W        W45707  17.200  19.191   1.393
79167W        W45708  35.884  18.197   1.400
79168W        W45709   3.513  37.906  14.292
79169W        W45710  25.755  38.076  12.610
79170W        W45711  43.884   3.724   2.479
79171W        W45712  13.103   2.274   2.851
79172W        W45713  27.287  26.095   3.149
79173W        W45714   9.283  18.166  11.563
79174W        W45715   1.504  37.839  10.874
79175W        W45716  15.483  15.593   2.053
79176W        W45717  41.990  39.353  12.965
79177W        W45718  30.087  44.466  13.519
79178W        W45719  41.457  24.796   2.806
79179W        W45720  10.687  27.102  10.468
79180W        W45721  23.784  43.466   4.041
79181W        W45722  35.417  16.079   1.852
79182W        W45723  20.948  35.586  13.314
79183W        W45724  20.337  33.356   3.855
79184W        W45725  24.582  38.956   1.126
79185W        W45726  26.555  34.060   2.804
79186W        W45727  23.359  14.420   3.795
79187W        W45728  20.472  27.748  12.135
79188W        W45729   3.910   1.567   3.592
79189W        W45730  41.848   7.924   0.446
79190W        W45731  39.657  44.111  10.369
79191W        W45732  39.507   0.442   2.279
79192W        W45733  32.876  26.518   4.903
79193W        W45734  40.061   3.657  10.483
79194W        W45735  27.494  20.088   0.429
79195W        W45736   8.963   9.729  14.649
79196W        W45737  34.170  12.785   1.682
79197W        W45738  12.655   2.602  12.870
79198W        W45739   9.078  19.154  11.633
79199W        W45740  26.662  29.260  13.415
79200W        W45741   2.784   4.228   1.737
79201W        W45742  33.425  35.519   2.045
79202W        W45743  44.499  38.110  11.047
79203W        W45744  10.696  21.798   2.804
79204W        W45745  41.691   7.519  11.650
79205W        W45746  43.027  26.186  10.962
79206W        W45747  36.675  17.231   5.059
79207W        W45748  19.769  34.553   0.095
79208W        W45749   1.409  32.103   1.251
79209W        W45750  12.896  18.113  12.449
79210W        W45751  20.711  18.808   0.226
79211W        W45752  23.487  23.544  11.481
79212W        W45753  11.821   9.381   3.835
79213W        W45754  15.608  39.731  14.958
79214W        W45755  16.804  43.331  11.547
79215W        W45756  23.060  18.311  13.205
79216W        W45757  15.111  19.796   4.082
79217W        W45758  18.474  34.578  11.672
79218W        W45759  37.821  26.592   0.014
79219W        W45760  29.556  12.781   1.009
79220W        W45761   4.444   0.065   3.022
79221W        W45762  38.016  34.820   0.782
79222W        W45763  23.309   3.370  14.961
79223W        W45764  15.105   5.784   1.853
79224W        W45765  21.033  27.558   4.693
79225W        W45766  16.364  42.872  12.963
79226W        W45767  21.633  44.937   4.847
79227W        W45768  23.485  24.691   0.880
79228W        W45769   5.396   7.869   1.369
79229W        W45770  34.531  18.776  12.923
79230W        W45771  23.439  12.357   2.334
79231W        W45772   0.454  35.364  13.849
79232W        W45773  19.276   9.775  14.262
79233W        W45774   3.151  44.216  10.628
79234W        W45775   7.185  30.603   4.057
79235W        W45776  28.032  33.508  13.275
79236W        W45777  39.905   6.405   3.712
79237W        W45778  34.717  17.023   2.696
79238W        W45779  23.126  28.133  13.807
79239W        W45780  40.049  36.386  13.438
79240W        W45781  21.208  22.171  12.708
79241W        W45782  23.259  16.261   2.389
79242W        W45783  13.092   3.174   1.910
79243W        W45784  19.007  34.871  14.792
79244W        W45785  40.189   8.204  14.413
79245W        W45786  11.621   6.358   0.900
79246W        W45787  26.697  41.993   0.916
79247W        W45788  27.608  24.994  12.928
79248W        W45789  39.596  35.826   3.732
79249W        W45790   7.113  22.499   2.637
79250W        W45791   2.301  42.007   2.304
79251W        W45792  24.055  13.784   1.100
79252W        W45793  26.985  17.368   2.716
79253W        W45794  44.864  31.632   0.767
79254W        W45795  21.647  39.502   3.558
79255W        W45796  24.677  31.474   1.869
79256W        W45797   7.481  17.197   2.714
79257W        W45798  26.565  18.302   1.061
79258W        W45799  10.600  43.346   0.041
79259W        W45800   2.388  13.790   0.414
79260W        W45801   8.114  30.988   3.591
79261W        W45802  17.317  31.070  14.847
79262W        W45803  29.816   3.605  11.558
79263W        W45804  32.246  35.367  10.646
79264W        W45805  22.245  34.452  12.490
79265W        W45806  42.221  24.253  11.601
79266W        W45807  32.533  43.210   3.615
79267W        W45808  28.491  13.854  10.747
79268W        W45809  13.214  38.835  11.845
79269W        W45810  43.808   9.912   0.882
79270W        W45811   8.305  13.631  13.118
79271W        W45812  28.584  10.385  12.587
79272W        W45813   4.777   7.130  14.558
79273W        W45814  42.528  42.833  12.435
79274W        W45815  37.935  24.870  12.976
79275W        W45816  25.684  10.598   0.452
79276W        W45817  10.323  24.586   1.906
79277W        W45818  29.992  27.678  14.278
79278W        W45819  21.259   9.288   2.708
79279W        W45820  31.362  29.342   3.887
79280W        W45821  33.370  28.203  10.365
79281W        W45822  29.844  28.314   3.607
79282W        W45823  42.425  13.804   3.739
79283W        W45824   4.294  44.534  14.481
79284W        W45825  34.273   2.252  12.967
79285W        W45826  21.625  21.058  11.162
79286W        W45827  14.569  21.470   0.478
79287W        W45828  28.024   3.775   3.969
79288W        W45829  39.805  27.454   0.708
79289W        W45830  23.981  33.246  11.911
79290W        W45831  14.064   7.996  13.338
79291W        W45832  13.776  42.995   3.230
79292W        W45833  25.466  15.828  11.313
79293W        W45834  10.357  14.513   2.696
79294W        W45835  21.595   1.954   1.352
79295W        W45836  33.461   7.773  13.314
79296W        W45837  28.081  37.885  11.583
79297W        W45838  15.921  25.566  12.838
79298W        W45839  12.332  25.256   1.307
79299W        W45840   2.987  13.658  11.307
79300W        W45841   2.256  17.774   0.044
79301W        W45842  39.204  11.245  11.498
79302W        W45843  19.804  13.296  11.668
79303W        W45844  10.247  42.523   0.514
79304W        W45845  37.126   3.220  14.443
79305W        W45846   5.998  43.705   2.235
79306W        W45847   7.249   7.190   4.154
79307W        W45848  29.715  11.552   5.511
79308W        W45849  39.310  30.002   4.817
79309W        W45850   0.262  16.709   0.128
79310W        W45851  22.876  37.302   0.765
79311W        W45852  10.315  30.147   4.739
79312W        W45853   0.377   2.470   3.138
79313W        W45854  10.853  11.462  10.676
79314W        W45855  12.659  43.540  14.385
79315W        W45856  18.629  40.075   1.948
79316W        W45857  21.597  29.870   1.405
79317W        W45858   7.952  26.893  12.063
79318W        W45859  32.988  12.512   1.464
79319W        W45860  11.639  15.769  14.404
79320W        W45861   8.282   6.304  12.885
79321W        W45862  38.783   5.821   2.272
79322W        W45863  29.488  21.658  13.470
79323W        W45864  22.659  28.197  13.647
79324W        W45865   7.601  15.253  14.360
79325W        W45866  22.286  44.853   1.171
79326W        W45867  43.806  32.650   1.810
79327W        W45868  44.433  34.840  11.616
79328W        W45869  40.400  35.661   4.713
79329W        W45870   8.544  35.997  14.807
79330W        W45871   9.110  28.925   2.454
79331W        W45872  14.346  24.334  12.849
79332W        W45873  40.757  44.317   3.230
79333W        W45874   6.411  25.537  14.249
79334W        W45875   8.824  43.679  12.025
79335W        W45876  33.281  24.589   0.902
79336W        W45877  31.323  28.679   1.476
79337W        W45878  33.354   2.454   1.036
79338W        W45879  33.384  24.002   4.336
79339W        W45880  27.555  43.515  10.366
79340W        W45881  23.244  35.092   0.509
79341W        W45882   8.023  31.110   1.778
79342W        W45883  19.115  28.504   3.203
79343W        W45884  19.631  18.180   0.119
79344W        W45885  35.562  24.962  14.547
79345W        W45886  25.973   7.201  12.932
79346W        W45887   5.252  32.265  11.724
79347W        W45888  24.832  33.083   0.466
79348W        W45889  30.522  43.669   1.987
79349W        W45890   4.983  24.773   3.823
79350W        W45891   4.454  34.323   4.279
79351W        W45892  32.988  42.908  12.608
79352W        W45893  13.732   2.793   1.252
79353W        W45894  12.343  20.291   2.395
79354W        W45895  19.023  40.414  11.924
79355W        W45896  31.267  30.482   2.879
79356W        W45897  42.337  30.082   1.762
79357W        W45898   1.327  11.197  11.459
79358W        W45899  43.343   7.945  13.193
79359W        W45900  17.981  29.853  10.974
79360W        W45901  37.014  37.850   4.201
79361W        W45902  22.297  39.057   0.943
79362W        W45903  33.107   4.823  12.856
79363W        W45904  42.407  15.675  11.148
79364W        W45905  26.371  35.475   4.592
79365W        W45906  19.492   7.018   5.541
79366W        W45907  34.785  28.922   3.672
79367W        W45908  38.914  16.706  11.665
79368W        W45909  12.562  21.945   0.893
79369W        W45910  18.182  43.508   1.983
79370W        W45911  24.858  36.984  14.825
79371W        W45912  14.577  42.478   3.377
79372W        W45913  41.347  32.139  11.603
79373W        W45914  22.426  13.692   3.847
79374W        W45915  31.081   3.510  14.714
79375W        W45916   3.228  36.645  14.567
79376W        W45917   2.991  24.507   1.822
79377W        W45918   0.354  19.224  12.575
79378W        W45919  32.037  18.563   2.207
79379W        W45920  27.228   4.358   0.544
79380W        W45921   6.838  17.733   4.720
79381W        W45922  10.599  18.109   1.461
79382W        W45923  30.005  11.132  11.141
79383W        W45924   1.798  42.181  11.136
79384W        W45925  22.140  15.338  13.289
79385W        W45926  35.673  42.420   2.821
79386W        W45927   5.492  21.093   4.709
79387W        W45928   0.485  32.133   1.320
79388W        W45929   8.389  42.992   4.003
79389W        W45930   8.743  43.388  14.948
79390W        W45931  12.452   4.371   1.668
79391W        W45932  12.192  22.271  14.655
79392W        W45933  39.302  11.242  12.461
79393W        W45934  25.193  17.048  10.967
79394W        W45935  15.583  25.512   4.818
79395W        W45936  38.075  28.703   1.217
79396W        W45937  10.235  42.750   2.859
79397W        W45938  23.937  15.253  12.470
79398W        W45939  14.807   8.411  12.624
79399W        W45940   0.473   2.455   1.219
79400W        W45941  33.671  20.501   2.753
79401W        W45942  40.509  35.958   2.831
79402W        W45943  44.359  20.611   4.563
79403W        W45944  38.642  40.845   3.741
79404W        W45945   4.059   3.397  11.246
79405W        W45946  12.204  28.189   1.966
79406W        W45947  36.393  14.545   4.112
79407W        W45948  17.739  21.712  13.782
79408W        W45949  18.828  12.517  14.429
79409W        W45950  19.567  27.595  13.988
79410W        W45951  31.146  38.341  12.826
79411W        W45952  17.467  44.274  12.189
79412W        W45953  39.755  15.754  12.573
79413W        W45954  36.077  23.526   1.781
79414W        W45955  23.743   0.884  12.591
79415W        W45956  13.792  29.882   2.283
79416W        W45957   7.609  31.665  14.448
79417W        W45958   7.662  15.296  11.916
79418W        W45959  41.395  42.257   4.118
79419W        W45960  38.549  40.426  12.057
79420W        W45961  35.980  14.644  13.213
79421W        W45962  34.446  33.167   1.081
79422W        W45963  43.426   4.434   3.976
79423W        W45964  14.882  13.714  12.368
79424W        W45965  16.799  18.830  14.662
79425W        W45966   2.908   2.359  14.621
79426W        W45967  43.849  37.229  10.393
79427W        W45968  44.317  36.167  14.523
79428W        W45969  29.709  10.838  13.588
79429W        W45970   2.209   5.454   4.588
79430W        W45971  22.011  25.801  12.910
79431W        W45972  18.528  21.072  11.719
79432W        W45973  25.377  10.145  12.911
79433W        W45974  20.277  30.166   3.804
79434W        W45975  18.767  43.275   3.735
79435W        W45976  43.055  38.708  14.449
79436W        W45977  20.623  19.007   2.354
79437W        W45978  10.092  30.578  11.541
79438W        W45979   6.176  15.300  14.186
79439W        W45980  34.811  32.566   2.831
79440W        W45981   4.936  29.652   0.906
79441W        W45982   0.433  19.504   3.862
79442W        W45983  32.940  30.047   4.894
79443W        W45984  18.573  35.905   1.778
79444W        W45985  16.304   5.103  11.920
79445W        W45986  30.613  38.404  10.666
79446W        W45987  29.059  33.731   4.566
79447W        W45988  10.699   2.926  10.673
79448W        W45989   4.520  16.622   0.028
79449W        W45990   3.969  34.546   4.221
79450W        W45991  16.368   0.461   3.114
79451W        W45992  40.329  35.876   0.811
79452W        W45993  33.436  15.570  12.560
79453W        W45994  31.541  38.400  14.460
79454W        W45995  26.364  18.747  11.531
79455W        W45996  15.634  23.542  13.334
79456W        W45997  18.691  32.074  10.645
79457W        W45998   3.210  19.706   1.975
79458W        W45999  44.595  41.644  13.066
79459W        W46000  20.313   8.201   1.368
79460W        W46001  17.054  34.329  14.412
79461W        W46002  13.685  14.687  14.733
79462W        W46003  11.411  32.043  11.548
79463W        W46004  32.094   2.151   9.903
79464W        W46005  44.679  23.098  11.990
79465W        W46006  30.968  40.866  13.280
79466W        W46007  32.997  27.001  14.468
79467W        W46008  28.522   6.776   3.191
79468W        W46009  14.323  15.735   1.698
79469W        W46010  27.623  24.626   0.260
79470W        W46011  17.812   6.273  13.828
79471W        W46012  39.020  20.740  11.244
79472W        W46013  35.761   7.340   4.076
79473W        W46014  32.484   0.265  14.882
79474W        W46015   8.285  37.025  14.258
79475W        W46016  41.785   8.294   3.089
79476W        W46017  26.507  34.829   0.375
79477W        W46018  32.695  21.568  13.884
79478W        W46019  17.748  20.800  11.243
79479W        W46020  29.112  11.244   4.560
79480W        W46021  44.217  29.467   4.287
79481W        W46022  21.178  44.122   2.144
79482W        W46023   8.430   2.240  11.854
79483W        W46024  17.208  41.236  12.075
79484W        W46025  15.774  10.107  11.608
79485W        W46026  40.222  23.089  14.602
79486W        W46027  22.587  37.313  11.541
79487W        W46028   4.379  30.927   0.753
79488W        W46029  11.124   1.960   3.801
79489W        W46030  22.110   7.177  13.576
79490W        W46031  36.884   5.181  13.044
79491W        W46032  26.325  39.432   3.227
79492W        W46033  22.403   4.005  13.327
79493W        W46034   2.641  34.854   0.868
79494W        W46035  13.716   3.278   0.007
79495W        W46036  44.760  16.830   0.164
79496W        W46037  41.897  30.024  14.007
79497W        W46038  32.582   6.180   0.932
79498W        W46039  37.404  32.900   2.116
79499W        W46040   5.871  22.590  13.535
79500W        W46041   5.395  28.347   2.843
79501W        W46042  24.731   3.101   4.986
79502W        W46043  29.625   9.402  13.944
79503W        W46044  42.012  23.190   2.190
79504W        W46045   6.696  20.409   0.470
79505W        W46046  36.277  10.705   4.818
79506W        W46047  18.996  11.423  13.037
79507W        W46048  33.360  24.131  11.548
79508W        W46049  23.737  17.263   3.193
79509W        W46050  11.851  22.940   0.255
79510W        W46051   5.418   5.568   0.861
79511W        W46052  33.549  28.703   2.924
79512W        W46053  10.956   3.447   0.742
79513W        W46054  15.162  44.554   2.040
79514W        W46055  16.259  10.619  14.420
79515W        W46056  27.877   2.176  14.486
79516W        W46057  25.252  42.857  14.716
79517W        W46058  30.965   1.650  13.489
79518W        W46059  29.096  30.880   1.097
79519W        W46060  25.773   9.398  12.571
79520W        W46061  20.744  15.104   0.309
79521W        W46062  11.841  43.438  10.775
79522W        W46063  40.922  29.723   3.113
79523W        W46064   2.880  19.159   2.461
79524W        W46065  17.522   6.239   2.803
79525W        W46066  22.348  22.567   5.031
79526W        W46067  10.393  11.205  14.501
79527W        W46068  28.103  38.256  14.005
79528W        W46069  38.238  24.110  13.386
79529W        W46070   9.733  30.818  14.203
79530W        W46071  19.113   0.314  12.973
79531W        W46072  28.032   7.357   0.214
79532W        W46073  21.472  43.091  13.398
79533W        W46074  14.524  43.413  13.312
79534W        W46075  20.526   1.418   4.842
79535W        W46076   7.259   2.081  13.774
79536W        W46077  20.578   0.275  11.477
79537W        W46078  19.844  43.528  12.010
79538W        W46079   8.826  27.644   0.383
79539W        W46080  27.129  19.744   1.583
79540W        W46081  20.087  20.510  12.662
79541W        W46082  40.985  36.041   1.450
79542W        W46083  25.443  44.885  12.930
79543W        W46084  36.992   2.426   4.633
79544W        W46085  34.142  22.910   0.338
79545W        W46086  26.139   7.907  14.944
79546W        W46087  35.593  18.837   2.284
79547W        W46088  25.475  21.205  11.475
79548W        W46089  17.130  18.839   0.887
79549W        W46090   2.435  31.452  11.836
79550W        W46091  24.519  18.038  10.775
79551W        W46092  10.152  19.011   1.741
79552W        W46093  12.958  21.703   2.196
79553W        W46094  37.044  41.155   3.485
79554W        W46095  32.030  17.803  12.007
79555W        W46096  35.621   6.042   5.461
79556W        W46097  27.944  23.996   1.437
79557W        W46098  13.797  19.792   1.827
79558W        W46099  15.213  21.214   3.788
79559W        W46100  10.861   6.348   2.023
79560W        W46101  28.612   9.969  11.616
79561W        W46102  28.951  30.954   4.077
79562W        W46103  32.404  40.307   3.767
79563W        W46104   4.005   8.506   1.322
79564W        W46105  33.881  23.860  13.972
79565W        W46106  41.462  36.480  10.432
79566W        W46107  24.857  37.003  11.726
79567W        W46108   1.313   0.287  12.019
79568W        W46109   0.462   2.807   0.842
79569W        W46110  13.663  14.770   3.570
79570W        W46111   1.310  43.353  13.160
79571W        W46112  11.423  30.922   3.215
79572W        W46113  11.755  34.416   2.686
79573W        W46114   1.682   9.415  14.752
79574W        W46115  40.526  31.414  10.598
79575W        W46116   4.106  30.531   0.499
79576W        W46117   9.646  28.219   1.841
79577W        W46118  19.441  30.121  12.616
79578W        W46119  34.000  30.366  13.501
79579W        W46120  38.789   4.701  14.475
79580W        W46121   7.948   5.867   4.901
79581W        W46122  32.099  35.941   4.325
79582W        W46123   2.759  38.532  12.914
79583W        W46124  40.592  30.635   0.925
79584W        W46125  17.814  31.913  11.787
79585W        W46126  28.635   7.764   0.890
79586W        W46127   9.845  31.902   1.250
79587W        W46128  29.697  32.287   4.563
79588W        W46129  23.559  10.334  13.522
79589W        W46130   6.419  43.054   5.058
79590W        W46131  28.661  39.182   0.988
79591W        W46132  15.620  33.731   1.609
79592W        W46133  27.201  12.197  10.660
79593W        W46134  41.836  11.067   0.306
79594W        W46135  10.180  33.117   1.068
79595W        W46136   9.414  18.557   4.177
79596W        W46137   9.898  17.604  11.025
79597W        W46138  41.781  12.989  11.157
79598W        W46139   4.922  17.620  12.614
79599W        W46140  43.806  19.352   2.937
79600W        W46141   3.913  23.764  13.331
79601W        W46142  21.314  41.026   1.166
79602W        W46143  26.864  44.977   3.648
79603W        W46144   6.981  20.170  13.333
79604W        W46145  25.970  22.685  12.485
79605W        W46146  27.724  34.862  12.420
79606W        W46147  15.268  40.410   1.683
79607W        W46148  11.286   0.550  12.020
79608W        W46149  40.552  36.099   3.693
79609W        W46150  18.692  20.292   0.410
79610W        W46151  26.089  36.523  14.071
79611W        W46152  21.013  23.965  12.480
79612W        W46153  30.703  26.455   1.773
79613W        W46154  41.288  22.632   0.441
79614W        W46155  28.233  35.878   4.454
79615W        W46156  41.964  24.659   4.056
79616W        W46157  43.306  24.018  12.900
79617W        W46158  38.057   8.543   2.617
79618W        W46159   9.398   5.347  14.905
79619W        W46160   6.318  24.755  12.846
79620W        W46161  42.402  24.060  12.947
79621W        W46162  18.041  13.201  11.643
79622W        W46163   3.955  24.063   2.448
79623W        W46164  17.285  24.681  11.081
79624W        W46165  35.315  35.402  11.017
79625W        W46166  10.169  29.094  13.937
79626W        W46167  23.832  44.332   0.877
79627W        W46168  17.130  21.762  12.180
79628W        W46169  29.009  34.428   0.689
79629W        W46170   8.264  43.317  10.676
79630W        W46171  15.152  24.229   4.152
79631W        W46172  22.522  10.026   0.728
79632W        W46173  29.677   1.281  12.741
79633W        W46174  17.885  35.900   3.819
79634W        W46175  13.695  31.144   0.318
79635W        W46176  26.568  31.507   0.890
79636W        W46177   0.922  44.509  12.411
79637W        W46178  42.304  24.548  12.810
79638W        W46179  25.681   3.713  10.711
79639W        W46180  21.610  39.804   1.013
79640W        W46181   6.333   2.072  13.528
79641W        W46182  24.223  17.469  13.466
79642W        W46183   4.288  33.876   1.346
79643W        W46184   5.390   7.130   0.015
79644W        W46185  21.210   0.259  12.147
79645W        W46186  16.736   0.814  14.734
79646W        W46187  25.613   3.714   4.660
79647W        W46188  12.227  14.116  12.482
79648W        W46189  38.452  22.566   0.412
79649W        W46190  12.855   9.294  11.137
79650W        W46191  10.426  13.779   1.394
79651W        W46192   6.967   2.428  12.049
79652W        W46193   2.663  19.218  12.948
79653W        W46194  41.574  17.200   1.808
79654W        W46195  36.877  31.961  10.781
79655W        W46196   2.966   4.109   4.104
79656W        W46197  22.160   8.059  11.910
79657W        W46198  23.661  22.614   4.126
79658W        W46199  16.179  28.185   4.357
79659W        W46200  27.565  25.654   4.528
79660W        W46201  32.109  34.942   2.662
79661W        W46202  15.685  41.431   3.501
79662W        W46203  17.041  16.194   4.616
79663W        W46204  12.888  23.482  13.420
79664W        W46205  41.939  22.061  12.171
79665W        W46206  14.556  15.347   1.946
79666W        W46207  43.814  41.380  13.120
79667W        W46208  12.659  20.336   2.803
79668W        W46209  12.608  34.105  11.268
79669W        W46210  26.993  44.738  11.935
79670W        W46211  33.340   0.850  14.766
79671W        W46212   6.345   9.231   4.189
79672W        W46213  36.452   5.026   2.692
79673W        W46214  39.902  26.660   1.334
79674W        W46215  37.698  24.862  12.535
79675W        W46216  22.623  39.983  14.222
79676W        W46217  41.746  31.503  14.957
79677W        W46218  39.251  16.298  13.984
79678W        W46219   1.369  23.516   2.882
79679W        W46220  10.206   9.032  13.446
79680W        W46221  22.470  39.549  12.091
79681W        W46222   0.451  41.887   2.302
79682W        W46223  41.685  36.553   4.060
79683W        W46224  42.620   1.755   1.401
79684W        W46225  21.371  21.314   2.375
79685W        W46226   0.361  35.770  14.766
79686W        W46227  27.733  16.570  12.094
79687W        W46228   7.465  28.719   1.770
79688W        W46229  38.807  36.361  12.716
79689W        W46230  23.731  22.722  11.933
79690W        W46231  42.513  32.429   3.218
79691W        W46232  32.250  24.643  14.446
79692W        W46233  34.631   3.931   4.344
79693W        W46234  40.427  41.241  14.215
79694W        W46235   0.858  33.158  10.661
79695W        W46236  20.095  39.822   1.260
79696W        W46237  43.155  38.915  11.510
79697W        W46238  39.961  29.235   1.625
79698W        W46239  12.303  36.788  12.095
79699W        W46240  43.997  31.673   1.940
79700W        W46241  13.738  22.492  12.848
79701W        W46242  13.318  17.780  13.354
79702W        W46243  22.744  25.137   0.941
79703W        W46244  14.799   9.692  13.979
79704W        W46245  29.050   4.057   3.656
79705W        W46246   9.596  17.351   4.514
79706W        W46247  14.811  16.868   3.718
79707W        W46248  38.498   2.185  10.567
79708W        W46249  23.083  37.137  14.038
79709W        W46250   1.694   8.801   4.428
79710W        W46251  44.207   3.879  14.877
79711W        W46252  15.347  20.627  14.335
79712W        W46253  19.281  27.706   0.301
79713W        W46254   7.055   1.770  14.179
79714W        W46255  19.186  20.828   2.841
79715W        W46256  11.306  41.101  14.563
79716W        W46257   6.487  31.407  13.804
79717W        W46258   5.702   8.774   0.211
79718W        W46259  29.584  14.296  13.304
79719W        W46260  29.117   9.092  14.305
79720W        W46261  11.551  41.237  10.527
79721W        W46262   6.029  12.371   4.517
79722W        W46263  42.000  22.391   3.548
79723W        W46264   3.869  15.554   2.773
79724W        W46265  22.072  38.919  14.538
79725W        W46266   3.878  17.029  12.247
79726W        W46267  16.991   5.763   9.993
79727W        W46268  25.938  28.164  11.985
79728W        W46269  21.282  13.648   5.069
79729W        W46270   6.685   1.389   0.229
79730W        W46271  15.645   7.560   1.000
79731W        W46272  21.255   0.224  11.009
79732W        W46273  29.574  42.071   4.662
79733W        W46274  23.196  11.908  11.794
79734W        W46275  39.880   2.295  14.799
79735W        W46276  24.184   1.661   2.750
79736W        W46277   5.732  10.224   3.613
79737W        W46278  22.812  19.131  14.236
79738W        W46279  33.022  19.934   2.409
79739W        W46280  33.007  24.836  12.053
79740W        W46281  22.036  10.094   0.201
79741W        W46282  35.143  33.905   1.460
79742W        W46283  41.426   2.520   2.331
79743W        W46284  30.558  37.022   3.145
79744W        W46285  17.621   3.719   4.859
79745W        W46286  35.118  37.259  11.153
79746W        W46287   2.247  35.963  13.408
79747W        W46288   3.192   3.684  14.492
79748W        W46289  15.428   5.863  10.621
79749W        W46290  35.335  34.939   0.926
79750W        W46291  31.893  38.138  11.121
79751W        W46292  39.429  41.961  13.930
79752W        W46293  38.354  21.651   2.228
79753W        W46294  44.129  13.906   3.903
79754W        W46295  43.553  33.012  12.661
79755W        W46296  33.110  26.483  13.888
79756W        W46297  39.481  42.547  10.751
79757W        W46298  24.757   6.775   2.630
79758W        W46299  10.324  29.092  10.572
79759W        W46300  16.521   4.746   3.263
79760W        W46301   1.302  38.795   2.971
79761W        W46302  16.102  34.656   4.025
79762W        W46303  35.547  22.029   1.273
79763W        W46304  40.786   5.594  11.525
79764W        W46305  35.868  29.224   4.614
79765W        W46306  28.393   9.696   3.665
79766W        W46307  39.280  24.199   4.075
79767W        W46308  11.202  30.313  14.951
79768W        W46309  36.147   0.819   2.241
79769W        W46310  42.098   3.408  14.816
79770W        W46311   6.371   8.594  13.445
79771W        W46312  36.425  17.797  13.864
79772W        W46313   3.777  34.151   1.200
79773W        W46314  18.470  29.182   1.834
79774W        W46315  40.273  27.701   0.653
79775W        W46316   3.921  12.904   0.764
79776W        W46317  29.986  23.689   0.788
79777W        W46318  21.050  17.345  13.198
79778W        W46319   1.970  40.479   0.707
79779W        W46320  31.518  32.511   0.660
79780W        W46321   2.740  25.358  13.819
79781W        W46322  36.808  32.473   4.700
79782W        W46323  42.775   9.811   4.756
79783W        W46324   5.579  37.983   4.654
79784W        W46325  13.321  33.107  14.954
79785W        W46326  27.691  30.918   3.484
79786W        W46327  19.436  12.879  13.319
79787W        W46328  35.404   1.336   0.784
79788W        W46329  11.804   3.651   0.208
79789W        W46330  24.512  19.807  11.546
79790W        W46331  31.636  11.328   1.312
79791W        W46332  10.833  32.841  12.623
79792W        W46333  32.131  30.872   0.427
79793W        W46334   9.153  36.048   4.540
79794W        W46335  36.487  21.370  10.122
79795W        W46336  37.426  31.040   2.221
79796W        W46337  21.561  32.128   3.679
79797W        W46338  31.213  27.369   0.577
79798W        W46339  20.099  34.143   0.002
79799W        W46340   4.907  18.527  12.133
79800W        W46341  19.801   9.682   1.111
79801W        W46342   8.361  29.893   3.640
79802W        W46343   5.918  19.014   4.179
79803W        W46344  27.970  36.417   4.554
79804W        W46345  13.268  21.003  13.798
79805W        W46346  19.720   6.483  11.556
79806W        W46347  26.807  35.291  10.955
79807W        W46348  31.244  34.940   2.230
79808W        W46349  41.723  21.569  12.200
79809W        W46350  34.041  12.816  12.030
79810W        W46351  41.717  25.955  14.025
79811W        W46352  29.171  26.428  14.458
79812W        W46353  14.168   2.328  12.066
79813W        W46354  23.972  11.836   4.080
79814W        W46355  17.640  17.167  13.132
79815W        W46356  14.874   2.798   0.367
79816W        W46357  12.029  15.392  14.526
79817W        W46358  27.273  27.165  11.273
79818W        W46359  38.261  30.877  12.017
79819W        W46360  36.088   7.785  10.686
79820W        W46361   3.984  23.422   4.980
79821W        W46362  39.061  36.904   0.538
79822W        W46363  32.153  26.949   4.358
79823W        W46364  27.902  31.062  11.574
79824W        W46365   4.643  10.196   4.776
79825W        W46366  25.116  41.894   0.055
79826W        W46367  32.120  30.575   2.382
79827W        W46368  20.802  35.963  11.567
79828W        W46369  36.497  22.209   0.483
79829W        W46370  20.026  40.752  12.064
79830W        W46371   0.875  39.958  13.112
79831W        W46372   4.550  32.555  12.597
79832W        W46373   1.264  22.413  14.901
79833W        W46374  35.921   9.321  11.622
79834W        W46375  17.917   2.734   2.651
79835W        W46376  35.478   3.205   0.170
79836W        W46377  28.531  41.520   3.674
79837W        W46378  19.352  16.248  12.060
79838W        W46379   9.700  16.227  12.573
79839W        W46380  23.677  32.424   4.579
79840W        W46381  34.860  33.884  14.945
79841W        W46382  23.564  22.861   3.679
79842W        W46383  37.950  26.033   0.757
79843W        W46384  31.715  39.570  13.271
79844W        W46385  31.969  13.301   3.687
79845W        W46386  37.000  42.852   1.574
79846W        W46387  43.817  23.644  10.649
79847W        W46388   8.423  17.285  11.466
79848W        W46389  31.548  14.111  11.984
79849W        W46390   3.845  44.958  13.590
79850W        W46391  44.773   0.179   4.908
79851W        W46392   4.939  41.513  10.574
79852W        W46393   5.875  39.474   3.755
79853W        W46394  44.468  35.652   1.274
79854W        W46395  15.290   0.326  11.934
79855W        W46396  15.202  24.216  14.474
79856W        W46397  36.438   3.859  13.340
79857W        W46398  36.468  17.152  12.687
79858W        W46399   4.356  15.682  14.811
79859W        W46400   4.626  42.754  11.797
79860W        W46401  43.929  31.366   0.804
79861W        W46402  10.299   7.770   3.655
79862W        W46403   0.723   5.970   1.408
79863W        W46404   5.774  37.893   0.481
79864W        W46405  28.718  25.106   2.169
79865W        W46406  42.810   5.368  10.614
79866W        W46407   0.960  43.429  10.557
79867W        W46408  30.935  19.398   4.792
79868W        W46409  25.934   3.253  13.999
79869W        W46410  38.486  37.969  11.888
79870W        W46411  34.355  44.762   2.755
79871W        W46412  29.551  29.051   4.824
79872W        W46413  44.089   8.524  13.558
79873W        W46414  31.516  15.248   0.149
79874W        W46415  30.141  30.552   0.849
79875W        W46416  15.054  41.958   2.404
79876W        W46417  13.017  31.377  13.056
79877W        W46418  44.895  22.110   1.945
79878W        W46419   9.616   4.616  11.998
79879W        W46420  23.008  35.481   3.145
79880W        W46421  44.362  19.523   0.411
79881W        W46422  13.181   6.984   2.276
79882W        W46423  28.470  39.869   0.270
79883W        W46424  15.647  30.654  14.474
79884W        W46425  38.078  10.047  14.148
79885W        W46426  10.633  29.530   3.555
79886W        W46427   0.699  35.586   2.817
79887W        W46428  34.135  24.975  13.372
79888W        W46429  36.475  41.890   3.748
79889W        W46430  16.690  38.856  11.452
79890W        W46431   7.280  38.824   0.242
79891W        W46432   4.736  18.805  14.727
79892W        W46433   7.570  29.361   4.691
79893W        W46434   8.646  27.556  14.352
79894W        W46435  31.025   1.563   4.560
79895W        W46436  32.343  11.102   0.521
79896W        W46437  21.173   3.657   1.741
79897W        W46438  44.270   5.514  12.416
79898W        W46439  12.409  37.535   1.820
79899W        W46440  40.181  29.220  11.249
79900W        W46441  43.737  17.145  13.623
79901W        W46442  15.608  19.450  12.546
79902W        W46443  15.620  23.837  11.608
79903W        W46444  36.039  32.337  10.826
79904W        W46445  43.704  36.673   3.873
79905W        W46446  39.102  38.571   3.787
79906W        W46447  26.784  17.262   3.176
79907W        W46448  42.267  15.865   4.231
79908W        W46449  22.172  23.959  12.943
79909W        W46450  24.972  10.588  12.111
79910W        W46451  24.680  42.879  13.829
79911W        W46452  38.100  18.594   4.579
79912W        W46453  32.044  38.561  12.039
79913W        W46454  35.342   6.277   3.208
79914W        W46455  41.302  25.499  10.970
79915W        W46456  13.837  29.896   3.154
79916W        W46457  38.562  43.059   4.633
79917W        W46458  40.248  18.749   2.165
79918W        W46459   4.642   7.097  12.097
79919W        W46460   4.254  32.522  10.606
79920W        W46461  14.911   3.529  14.938
79921W        W46462   5.849  26.353  13.199
79922W        W46463  30.487  14.492  14.260
79923W        W46464  27.184  19.363  14.371
79924W        W46465  28.151  37.108  11.123
79925W        W46466   0.256  16.556  14.285
79926W        W46467   5.086  43.889   4.572
79927W        W46468  28.546   7.571   4.701
79928W        W46469  13.818  39.123   3.372
79929W        W46470  11.864   7.989   2.870
79930W        W46471  16.727   1.144   3.874
79931W        W46472   8.655   9.599  10.579
79932W        W46473  44.435  13.148   4.334
79933W        W46474  33.949   6.037   0.732
79934W        W46475  25.693  28.594  12.758
79935W        W46476  15.962  35.186   5.402
79936W        W46477  20.702  44.370   0.886
79937W        W46478  20.305  26.979   3.405
79938W        W46479  21.084  39.106  11.632
79939W        W46480   7.418  40.975   3.867
79940W        W46481   0.722  21.371  13.072
79941W        W46482  30.619  44.970   4.128
79942W        W46483  22.715   3.716  10.617
79943W        W46484  44.544  37.433   2.651
79944W        W46485  18.776  24.150   3.891
79945W        W46486  14.411   8.031   0.835
79946W        W46487  38.202  18.763  10.712
79947W        W46488  29.954  31.648   4.183
79948W        W46489  25.668  24.840  14.310
79949W        W46490   1.337  42.016  14.009
79950W        W46491  41.773   5.226   3.251
79951W        W46492  21.025   1.408   4.715
79952W        W46493   6.851  32.778  12.473
79953W        W46494  41.054  14.774  13.022
79954W        W46495  22.695  14.127  12.932
79955W        W46496  32.052  36.501  14.790
79956W        W46497   2.119   2.657  14.888
79957W        W46498  30.788  21.361   2.807
79958W        W46499  22.818   7.057   2.413
79959W        W46500  28.923  38.478   0.437
79960W        W46501  16.504   7.328   2.740
79961W        W46502  42.660   4.344  14.869
79962W        W46503   5.594  12.360   2.449
79963W        W46504   7.631   8.419  11.365
79964W        W46505  18.794  20.695   3.266
79965W        W46506  16.107  30.667  13.299
79966W        W46507   4.302  40.904  11.482
79967W        W46508  10.342  11.234   0.924
79968W        W46509  35.869  40.945  11.589
79969W        W46510  24.710   7.208   1.935
79970W        W46511  19.678   5.257  10.653
79971W        W46512  11.324  16.724  12.967
79972W        W46513  26.495  15.719  14.827
79973W        W46514   3.012  27.228  13.533
79974W        W46515  30.656  25.224  12.109
79975W        W46516  15.112  19.450   1.841
79976W        W46517  13.475  32.280  10.404
79977W        W46518  21.253   0.748   2.374
79978W        W46519  23.064  21.834   1.763
79979W        W46520  10.637  10.996  10.755
79980W        W46521  32.949   2.369  13.440
79981W        W46522   0.159  16.869  10.540
79982W        W46523  41.727  35.376   2.711
79983W        W46524  31.428   2.218  11.967
79984W        W46525  34.099  30.470  11.174
79985W        W46526  33.541  24.778   3.175
79986W        W46527  37.824  22.142   4.071
79987W        W46528  25.214   7.045  12.293
79988W        W46529  19.618  43.284  11.597
79989W        W46530  44.968  17.250  12.405
79990W        W46531  11.865  26.210  10.545
79991W        W46532  34.666  38.542   0.188
79992W        W46533  13.324   3.215  14.034
79993W        W46534   0.759  12.604  14.227
79994W        W46535  19.785  22.915   1.680
79995W        W46536   7.652  27.257  11.879
79996W        W46537  18.102  31.352  13.919
79997W        W46538   0.353  37.121  10.743
79998W        W46539   2.324  39.737  14.356
79999W        W46540  16.392  44.554  11.452
80000W        W46541  24.585  11.508  10.861
80001W        W46542  13.606  28.200   2.752
80002W        W46543  32.833  27.476   3.740
80003W        W46544  18.705  12.763  12.631
80004W        W46545  23.053  36.943  12.965
80005W        W46546  13.378   3.619  11.031
80006W        W46547   1.205  29.058   0.804
80007W        W46548  22.330   7.476   0.347
80008W        W46549  41.960  13.630  12.438
80009W        W46550  30.417  28.149   2.843
80010W        W46551  33.837  40.983   4.097
80011W        W46552  34.361  25.589   4.699
80012W        W46553  23.601  15.717  11.556
80013W        W46554   2.953  39.019   2.188
80014W        W46555  13.355  36.019   3.315
80015W        W46556  27.569  25.811  14.938
80016W        W46557  12.307  38.414  11.998
80017W        W46558  12.354   8.731   4.980
80018W        W46559   0.017   9.884   0.216
80019W        W46560  26.255  10.203  14.491
80020W        W46561  10.126  27.896  13.010
80021W        W46562  34.545  11.228  14.798
80022W        W46563  13.836  38.120  13.969
80023W        W46564  34.500  39.460  14.392
80024W        W46565   8.720   8.316   2.350
80025W        W46566  16.727  17.574  12.105
80026W        W46567  20.868  27.662  13.441
80027W        W46568  39.891   9.219   0.519
80028W        W46569  40.553  22.005   2.758
80029W        W46570  23.044  24.223  13.439
80030W        W46571  20.447  38.553   0.225
80031W        W46572  12.228   0.556  14.111
80032W        W46573  27.113  27.345  12.261
80033W        W46574  16.286  43.805  13.778
80034W        W46575  24.468  27.506  14.064
80035W        W46576  39.012  38.113   2.256
80036W        W46577   7.069   4.233   2.211
80037W        W46578   9.302  12.681   4.198
80038W        W46579   8.954   9.191  14.661
80039W        W46580  23.016  16.057  14.797
80040W        W46581   1.693  26.267   3.123
80041W        W46582  17.250  21.425   2.120
80042W        W46583   0.305  16.830   1.831
80043W        W46584  18.528  11.249   4.389
80044W        W46585  12.059  22.465   1.730
80045W        W46586  27.109  19.077  14.829
80046W        W46587  29.437   6.250  13.154
80047W        W46588  29.128  31.100   4.551
80048W        W46589  41.875  42.104  13.324
80049W        W46590  12.812  12.899  12.955
80050W        W46591  32.606  20.623  13.917
80051W        W46592  22.024  20.902  10.089
80052W        W46593  43.152   3.351  10.182
80053W        W46594   6.622   5.856  11.053
80054W        W46595  10.343  28.323   2.880
80055W        W46596  37.795  26.996   2.628
80056W        W46597  35.563   7.170   1.260
80057W        W46598  36.917  13.352   0.332
80058W        W46599  42.814   2.771  11.523
80059W        W46600   1.790   4.239  10.698
80060W        W46601  43.462  25.615  14.747
80061W        W46602  30.185  35.199   4.763
80062W        W46603  11.271   8.449  11.144
80063W        W46604   1.364   1.735  14.461
80064W        W46605  10.810  12.934   0.401
80065W        W46606  22.413  41.857   4.157
80066W        W46607  12.102  35.938   2.621
80067W        W46608  10.282  10.588   3.572
80068W        W46609  10.861   3.661  14.057
80069W        W46610  16.534  12.061  12.662
80070W        W46611  28.594  36.069  11.970
80071W        W46612   8.537  14.091   4.341
80072W        W46613   1.349   7.092   3.177
80073W        W46614  18.687  17.491   4.403
80074W        W46615  40.061  28.311   2.747
80075W        W46616  24.173   3.263   0.397
80076W        W46617   4.733  42.379   4.550
80077W        W46618  32.092   5.792  10.176
80078W        W46619   0.873  39.385   3.067
80079W        W46620  35.184  36.391  12.085
80080W        W46621  14.154  41.714  11.738
80081W        W46622  33.489  36.351   3.648
80082W        W46623  16.280  38.080   1.487
80083W        W46624   7.376  37.878  10.259
80084W        W46625  43.846  17.320   4.114
80085W        W46626  21.573  21.473  12.480
80086W        W46627  24.436  17.697  13.058
80087W        W46628  18.811  24.220  13.860
80088W        W46629  33.840  21.932   0.373
80089W        W46630  29.881  22.894   5.061
80090W        W46631  17.068  10.246   0.411
80091W        W46632  22.116   1.301   2.898
80092W        W46633  26.520  10.935   2.673
80093W        W46634  25.469   2.005   1.758
80094W        W46635   9.457   9.938  11.441
80095W        W46636   8.619   3.470   3.295
80096W        W46637  40.834   0.356  13.592
80097W        W46638  39.349   3.733   4.699
80098W        W46639  22.498   3.942   3.237
80099W        W46640  41.969   6.897  11.991
80100W        W46641  30.186  22.512   4.156
80101W        W46642  13.253   9.958   0.447
80102W        W46643  35.460   4.196  13.348
80103W        W46644  36.378  18.019   4.172
80104W        W46645  40.909  43.952  11.922
80105W        W46646  24.477  43.257  10.834
80106W        W46647  28.545  30.434  12.460
80107W        W46648   9.831  36.600  12.107
80108W        W46649  10.200  41.538  12.383
80109W        W46650  14.691   6.790   1.199
80110W        W46651  37.013  23.329   2.440
80111W        W46652   4.239   6.277   1.398
80112W        W46653  18.180   1.904   0.901
80113W        W46654  32.640  31.684   2.244
80114W        W46655   8.270  18.253  11.655
80115W        W46656  35.930  43.302  13.458
80116W        W46657  42.362  16.851   1.684
80117W        W46658  26.169   7.509  12.566
80118W        W46659   6.459  24.078  12.582
80119W        W46660  22.510  25.481   2.562
80120W        W46661  19.529  22.095  11.943
80121W        W46662   2.027  41.511  11.650
80122W        W46663   2.659  11.911  13.496
80123W        W46664   8.285   1.098  12.396
80124W        W46665  25.797  39.447   0.777
80125W        W46666  33.636  18.736   4.190
80126W        W46667  16.045  45.000   1.873
80127W        W46668  23.277  25.969  14.717
80128W        W46669  19.226   8.174  12.135
80129W        W46670   9.954  14.669   4.835
80130W        W46671  18.622   6.963   0.753
80131W        W46672  19.081   9.400   4.191
80132W        W46673  26.072   3.481   2.609
80133W        W46674  16.977   0.860  12.358
80134W        W46675  41.827  42.286   2.197
80135W        W46676  16.840  36.412   1.453
80136W        W46677  35.795   6.282   0.325
80137W        W46678   8.819   4.790  13.325
80138W        W46679  11.444  22.794  11.206
80139W        W46680  28.086   7.761   4.530
80140W        W46681  33.116  42.920   4.258
80141W        W46682  29.900  37.538   0.280
80142W        W46683  37.814  19.027   0.871
80143W        W46684  13.610  23.471   4.095
80144W        W46685  40.740   5.459  12.074
80145W        W46686  30.003   2.964   3.070
80146W        W46687   3.204  30.940   1.852
80147W        W46688  36.524  18.189  12.462
80148W        W46689  28.585  36.488   2.568
80149W        W46690  19.100  27.007   1.907
80150W        W46691  25.410  32.613   2.823
80151W        W46692   1.499  25.086   5.413
80152W        W46693  10.147   7.600   3.173
80153W        W46694  41.813  12.948  13.090
80154W        W46695  11.403  18.699   3.877
80155W        W46696  36.060  40.294  13.850
80156W        W46697  27.520  12.314  10.226
80157W        W46698  37.829   1.372   4.810
80158W        W46699  23.180  39.860  14.784
80159W        W46700   8.979  23.089   3.145
80160W        W46701   4.281  29.873  13.991
80161W        W46702  27.076  30.080   0.471
80162W        W46703  29.864   9.271   3.911
80163W        W46704  39.301  42.745   2.806
80164W        W46705  28.205   4.676  14.410
80165W        W46706  34.674  26.890   2.227
80166W        W46707  24.010   2.668   1.942
80167W        W46708   6.579  37.337  12.078
80168W        W46709  26.298  17.726   3.778
80169W        W46710  26.552  21.263   0.429
80170W        W46711  12.338  14.886   3.862
80171W        W46712  18.728   9.136  12.032
80172W        W46713  22.302   4.791  13.423
80173W        W46714  11.275  21.797  14.882
80174W        W46715  21.746   5.289  13.956
80175W        W46716  33.422  17.300  12.044
80176W        W46717  41.168   0.367  11.036
80177W        W46718   4.290  15.864   2.802
80178W        W46719  33.463   8.080  14.465
80179W        W46720  32.459  30.108  14.624
80180W        W46721   9.029  34.886   3.618
80181W        W46722  29.929  35.034  12.469
80182W        W46723  35.098  19.026  14.948
80183W        W46724  10.750  30.693   4.466
80184W        W46725  21.997  29.619   1.158
80185W        W46726  40.524  34.610  11.197
80186W        W46727  10.654  23.414  10.527
80187W        W46728  39.722   2.876  13.882
80188W        W46729  17.429  42.706   0.754
80189W        W46730  15.522  40.320   2.512
80190W        W46731  38.835  20.835  14.788
80191W        W46732  19.741  39.088  14.088
80192W        W46733  34.126  10.921   0.362
80193W        W46734  42.926  12.156   4.812
80194W        W46735  25.757  33.436   2.297
80195W        W46736  14.950  29.338  14.960
80196W        W46737  12.070  13.209  12.495
80197W        W46738  30.345  29.478   2.232
80198W        W46739  22.762   1.745  10.635
80199W        W46740   2.229   9.364   1.249
80200W        W46741  16.152  19.190   1.454
80201W        W46742   1.520  31.189   4.826
80202W        W46743  30.703  29.530   0.736
80203W        W46744  30.866  24.194  13.430
80204W        W46745  10.634   3.366   1.186
80205W        W46746  23.671   5.241  12.622
80206W        W46747  42.430  34.542  11.004
80207W        W46748   6.358  44.601   1.868
80208W        W46749  43.062   3.730  10.732
80209W        W46750   6.984  21.226  13.093
80210W        W46751  12.532   7.220  13.756
80211W        W46752  29.790  34.649   3.632
80212W        W46753  20.676  35.185  12.533
80213W        W46754  21.712  15.047   2.222
80214W        W46755  26.910  15.776  10.165
80215W        W46756  36.268  20.515   4.875
80216W        W46757  18.089  27.010  12.715
80217W        W46758   9.976  15.716   2.243
80218W        W46759  17.870   0.348  13.431
80219W        W46760  36.621  20.167   2.703
80220W        W46761  41.183   5.430  13.913
80221W        W46762  36.081  40.947  13.015
80222W        W46763  42.457  11.112   9.585
80223W        W46764  41.480  24.696  11.605
80224W        W46765   9.758   2.413   4.382
80225W        W46766  42.813   5.644  13.354
80226W        W46767  11.713  40.811   3.226
80227W        W46768   3.904  24.462  11.216
80228W        W46769  12.743  30.943  10.294
80229W        W46770   8.235  24.731   0.416
80230W        W46771  20.452   3.388   0.289
80231W        W46772   3.963  14.065  13.853
80232W        W46773   2.993  15.817   2.449
80233W        W46774   9.660  19.465   4.232
80234W        W46775  32.964  27.140   0.839
80235W        W46776   0.966  38.032  12.778
80236W        W46777  16.355  19.281   4.081
80237W        W46778  10.896   5.864   1.811
80238W        W46779  22.642   2.262  13.954
80239W        W46780   6.278  10.713   3.993
80240W        W46781  28.915   7.343   2.078
80241W        W46782  36.492  35.599  13.052
80242W        W46783  15.245  21.109  14.899
80243W        W46784  35.450  12.859   0.418
80244W        W46785  40.788  18.760  14.994
80245W        W46786  14.749  16.010   2.364
80246W        W46787  33.243   9.713  14.060
80247W        W46788  42.979  16.582  13.874
80248W        W46789   4.748  36.983   0.657
80249W        W46790  22.398  18.786  13.937
80250W        W46791  25.969   5.252   4.532
80251W        W46792  17.156   4.219  11.651
80252W        W46793   3.570   8.912  12.482
80253W        W46794  28.003  39.273  13.557
80254W        W46795  17.311  25.723  13.417
80255W        W46796  26.412  44.997  13.842
80256W        W46797  43.576   0.359  10.731
80257W        W46798  39.524   3.271   3.728
80258W        W46799  18.709  22.968  11.510
80259W        W46800   2.318   4.199  11.424
80260W        W46801  19.379  13.321  12.974
80261W        W46802   4.162  18.246   0.785
80262W        W46803   5.339  26.334  11.334
80263W        W46804  21.600  43.932   1.853
80264W        W46805  27.239  41.353  14.999
80265W        W46806   5.839  39.895  11.396
80266W        W46807  34.178   1.863   4.551
80267W        W46808  22.276  15.640   5.478
80268W        W46809  39.908  19.224   2.562
80269W        W46810  22.297  14.609   3.656
80270W        W46811  20.971  22.513  14.041
80271W        W46812   2.731  11.225   4.765
80272W        W46813   0.070   5.446  11.136
80273W        W46814   7.231  14.063   3.421
80274W        W46815   4.876  41.600  12.605
80275W        W46816  18.352  37.555   4.624
80276W        W46817   8.466  17.135   0.476
80277W        W46818  24.112   7.141   0.382
80278W        W46819  19.396  42.336  14.526
80279W        W46820  24.642   2.259   2.474
80280W        W46821  12.514  44.552   2.190
80281W        W46822  28.113  12.877   3.478
80282W        W46823  15.578  37.323  14.500
80283W        W46824  43.931  26.167   4.792
80284W        W46825  34.368  35.526  13.085
80285W        W46826  10.001   4.754  13.010
80286W        W46827  36.234  20.513   3.575
80287W        W46828  43.311  37.025   3.927
80288W        W46829   5.269   5.996   1.776
80289W        W46830  32.367  20.028   2.295
80290W        W46831  36.851  16.172  13.171
80291W        W46832  44.702   7.675   3.138
80292W        W46833  15.780   3.714   0.770
80293W        W46834  23.199   8.800   1.759
80294W        W46835   4.993  22.009  11.150
80295W        W46836  37.307  22.988  14.425
80296W        W46837  41.898  14.802   3.573
80297W        W46838  18.654  15.546  11.782
80298W        W46839  27.419   7.294  14.438
80299W        W46840  38.380   6.749  11.238
80300W        W46841  38.602   2.164  12.133
80301W        W46842  10.194  27.538  11.135
80302W        W46843  25.966  43.991  13.874
80303W        W46844  43.475  11.776   3.672
80304W        W46845  25.179  11.887  13.499
80305W        W46846  41.246  26.072   3.259
80306W        W46847  29.980  17.566   1.067
80307W        W46848   9.116  23.739   1.933
80308W        W46849  16.334  34.864   1.132
80309W        W46850  13.673   9.198  13.266
80310W        W46851  13.140  34.927   0.986
80311W        W46852  26.787   8.922  14.434
80312W        W46853  11.076  28.212  13.022
80313W        W46854  23.997  17.249  10.759
80314W        W46855  20.045  23.291   4.672
80315W        W46856  32.929   7.250  12.453
80316W        W46857   6.091  16.353  11.598
80317W        W46858  16.854   9.682   3.313
80318W        W46859  23.073  37.161  11.639
80319W        W46860  16.279  17.792  10.445
80320W        W46861  33.014  25.644  11.439
80321W        W46862  25.220  13.674  13.980
80322W        W46863  42.668  31.872  12.137
80323W        W46864  35.262  43.177  13.099
80324W        W46865  43.235  14.606   5.007
80325W        W46866  37.037   0.305   3.875
80326W        W46867  37.780  23.835  13.553
80327W        W46868  33.677  17.585   1.253
80328W        W46869   9.282   3.048  14.007
80329W        W46870  19.532   0.117  11.646
80330W        W46871  41.931  37.123  14.536
80331W        W46872  27.458  24.677  11.322
80332W        W46873  25.466  44.730  13.851
80333W        W46874  22.552  30.889   2.760
80334W        W46875   3.280   0.929  11.097
80335W        W46876  16.564   2.187   2.712
80336W        W46877  31.594  41.816   4.601
80337W        W46878   7.174  38.165   3.122
80338W        W46879  33.514  36.606   2.202
80339W        W46880  13.248  14.773   0.864
80340W        W46881  16.458  28.212  14.336
80341W        W46882  19.719  12.113  13.003
80342W        W46883  29.877  19.500  14.756
80343W        W46884  14.027  13.887  12.462
80344W        W46885  16.206   2.747  14.676
80345W        W46886  15.504  28.688  13.515
80346W        W46887  42.433  20.117   1.606
80347W        W46888   4.403  12.371  14.884
80348W        W46889  16.702   1.644   0.893
80349W        W46890  16.299  27.547  11.963
80350W        W46891  28.106   9.882   0.742
80351W        W46892  26.068   1.859   4.147
80352W        W46893  24.080  32.533  13.551
80353W        W46894  22.543  39.382   1.618
80354W        W46895  25.734  14.310   3.710
80355W        W46896  26.586  11.928   4.606
80356W        W46897  42.463  10.715  11.977
80357W        W46898  29.713  17.827   3.271
80358W        W46899  43.070  44.405   2.148
80359W        W46900  40.450   9.730   3.278
80360W        W46901   8.637  33.135   1.850
80361W        W46902  26.630  42.194  13.906
80362W        W46903  36.354  20.178  10.627
80363W        W46904  19.981  41.676  12.412
80364W        W46905   0.280  39.590  11.178
80365W        W46906  33.908  10.121   2.710
80366W        W46907  43.801  22.752  10.948
80367W        W46908  31.011  33.877   1.426
80368W        W46909  42.979   9.283   2.158
80369W        W46910  22.115  12.773  13.391
80370W        W46911  18.609  28.144  13.483
80371W        W46912  40.832  13.567  12.415
80372W        W46913  33.932  29.219   0.305
80373W        W46914  22.519  34.109   4.159
80374W        W46915  32.579   5.718   3.210
80375W        W46916  21.703   0.896  11.566
80376W        W46917  42.313   4.240   3.109
80377W        W46918  21.920  27.160   2.476
80378W        W46919  37.752  24.301  13.362
80379W        W46920  23.748   5.439  13.101
80380W        W46921   8.843  20.980   4.056
80381W        W46922   6.387  19.124   2.980
80382W        W46923  23.424   5.756  11.690
80383W        W46924  42.778  22.651  11.520
80384W        W46925  16.213  21.430   4.086
80385W        W46926   6.262   7.608   5.108
80386W        W46927  31.815   4.199  13.095
80387W        W46928  10.809  21.649   3.774
80388W        W46929  10.741  26.235   1.282
80389W        W46930  37.006  12.355  10.238
80390W        W46931  35.871   5.654   5.135
80391W        W46932  20.815  22.548   2.189
80392W        W46933  13.356  17.906  14.733
80393W        W46934   2.629   0.813   5.071
80394W        W46935  29.934  19.308  14.219
80395W        W46936  33.201  25.509   0.842
80396W        W46937  16.224   5.283   2.833
80397W        W46938  31.436   3.704  10.061
80398W        W46939  23.731   8.723  13.545
80399W        W46940  10.614   7.779   0.249
80400W        W46941   5.311  28.825  11.129
80401W        W46942  13.625  18.822  12.111
80402W        W46943  10.209   2.764  12.985
80403W        W46944  38.757  39.793  11.503
80404W        W46945  34.489  37.143   3.607
80405W        W46946  38.812  43.530   4.567
80406W        W46947  29.901  19.954   0.023
80407W        W46948  25.544  40.099  13.136
80408W        W46949  26.341   4.024   4.171
80409W        W46950   7.361  27.442  13.191
80410W        W46951  14.584  37.066   1.407
80411W        W46952   0.713  33.371   3.116
80412W        W46953  14.622   0.528  12.479
80413W        W46954  40.205  39.445  13.500
80414W        W46955  34.390   8.335   2.334
80415W        W46956  15.640  12.291  11.185
80416W        W46957  29.445  31.398   4.198
80417W        W46958  13.694  40.282  12.445
80418W        W46959  13.230  32.901   0.481
80419W        W46960  24.222  43.322   1.254
80420W        W46961  31.840  20.112   2.596
80421W        W46962  38.394  43.993   1.738
80422W        W46963  10.166  17.566   0.849
80423W        W46964  41.331  35.689   4.047
80424W        W46965  42.044  10.881   0.757
80425W        W46966  19.818  39.116  12.707
80426W        W46967  36.035   8.001  12.148
80427W        W46968  29.846  14.751   1.885
80428W        W46969  28.382   1.432   4.147
80429W        W46970  10.101  40.110   4.028
80430W        W46971  20.867  21.774   3.520
80431W        W46972  44.103  13.363  14.915
80432W        W46973  40.921  32.794  14.989
80433W        W46974  16.199   9.241   0.683
80434W        W46975  36.866  43.233   1.937
80435W        W46976  34.084  10.428   1.445
80436W        W46977  43.500   2.954  10.372
80437W        W46978   0.642  26.607  11.403
80438W        W46979  28.642  34.384  12.492
80439W        W46980  41.927  38.247   0.413
80440W        W46981   9.161  34.630  12.909
80441W        W46982  18.188   0.398  12.978
80442W        W46983  11.812  14.137   5.083
80443W        W46984   0.938  27.991   2.438
80444W        W46985  11.784  38.462   1.798
80445W        W46986  28.082  16.228   0.212
80446W        W46987  15.612  19.984  12.423
80447W        W46988  37.006  22.760  13.244
80448W        W46989  10.764  20.272   3.632
80449W        W46990  21.233  32.011   4.760
80450W        W46991  10.545  22.977   3.457
80451W        W46992  22.817  28.858  12.493
80452W        W46993   5.884  16.272   4.082
80453W        W46994  20.710  11.293  12.921
80454W        W46995  35.101   8.573  12.135
80455W        W46996  11.631  20.240  12.049
80456W        W46997   9.170  44.973  13.592
80457W        W46998  23.162  18.648   3.657
80458W        W46999  20.561  35.866  14.447
80459W        W47000  10.664   1.594  10.554
80460W        W47001   1.292  43.519   0.636
80461W        W47002  40.916   6.134  14.671
80462W        W47003  28.058  14.074  12.524
80463W        W47004  37.921  12.131   0.353
80464W        W47005  21.726  24.628   4.087
80465W        W47006  17.744  41.329  14.745
80466W        W47007  39.703   1.419   3.843
80467W        W47008  42.063  17.247   0.399
80468W        W47009  31.416  39.018  11.611
80469W        W47010  39.806  17.671  10.208
80470W        W47011   9.364   9.419   2.843
80471W        W47012  33.303  30.468   3.684
80472W        W47013  29.628  38.275  14.061
80473W        W47014   9.890  13.739   4.206
80474W        W47015  40.577  24.647   4.749
80475W        W47016   1.178   6.169   4.343
80476W        W47017  11.701  28.051   1.762
80477W        W47018  17.202  25.470  14.928
80478W        W47019  32.839  27.508   1.817
80479W        W47020  43.526  17.026   1.377
80480W        W47021  28.230  12.400   3.196
80481W        W47022   1.384  19.140  12.819
80482W        W47023  24.436  34.980   3.366
80483W        W47024   8.693  21.334   3.722
80484W        W47025  17.967  11.305  11.583
80485W        W47026  12.286   7.985   2.092
80486W        W47027  20.611  13.709   4.469
80487W        W47028   0.198  17.460  14.519
80488W        W47029  35.231  23.793  11.571
80489W        W47030  10.357  22.147   2.685
80490W        W47031  14.332  14.038   2.152
80491W        W47032  41.913  17.046   5.085
80492W        W47033  33.343  19.630  12.973
80493W        W47034  11.776  38.146   4.794
80494W        W47035  24.407  20.514   3.324
80495W        W47036  44.857  14.097   0.382
80496W        W47037   7.586   6.334  13.357
80497W        W47038   0.160   9.825   0.773
80498W        W47039  30.838  16.501   1.643
80499W        W47040  18.043  38.946   4.551
80500W        W47041  17.189  20.789   4.163
80501W        W47042   4.204  14.844   3.668
80502W        W47043  14.361  44.508  12.515
80503W        W47044  31.646  18.897  13.321
80504W        W47045  21.028  37.137  11.571
80505W        W47046  11.370  29.084  13.406
80506W        W47047  38.334  24.862   0.314
80507W        W47048  28.614  10.316   2.098
80508W        W47049  24.439  27.967   2.265
80509W        W47050   2.654  37.658   2.319
80510W        W47051  17.641  36.373   3.815
80511W        W47052   2.801  38.930   2.654
80512W        W47053  13.629  37.634  14.013
80513W        W47054  41.657  13.959   1.233
80514W        W47055   5.212  13.640  10.756
80515W        W47056  13.344  18.692  12.917
80516W        W47057   4.519  40.517  11.974
80517W        W47058  40.758  14.322   1.307
80518W        W47059  19.648  41.271  10.718
80519W        W47060  12.356   8.395  12.059
80520W        W47061  39.995   9.916  14.887
80521W        W47062  22.592  23.530  14.467
80522W        W47063  35.822   1.082   1.008
80523W        W47064   6.408  43.440   2.470
80524W        W47065  17.866   4.899   1.753
80525W        W47066  10.923  26.338   5.041
80526W        W47067  23.167  13.341  11.607
80527W        W47068  44.476  36.610  12.551
80528W        W47069  20.645  34.086   1.775
80529W        W47070  35.680  22.100  12.082
80530W        W47071  12.781  37.505  13.179
80531W        W47072   3.955  40.044  10.700
80532W        W47073  32.563  18.360   0.494
80533W        W47074  26.958   9.898   4.111
80534W        W47075  44.407   5.337  12.869
80535W        W47076   3.651   8.141   3.287
80536W        W47077  40.418   1.299  12.398
80537W        W47078   9.915  20.264   2.264
80538W        W47079  17.105  28.931  10.617
80539W        W47080  37.603  35.179   1.503
80540W        W47081  40.584  24.865   4.266
80541W        W47082  14.390   2.037  12.417
80542W        W47083  29.464  37.322   3.241
80543W        W47084   0.036  34.031   1.716
80544W        W47085  29.747  12.508  12.091
80545W        W47086  17.709  30.032   2.683
80546W        W47087  30.215  17.734  13.050
80547W        W47088  36.262  30.892  13.767
80548W        W47089   8.814  18.942   1.358
80549W        W47090   0.719  23.173  12.101
80550W        W47091   0.907   4.485  10.978
80551W        W47092   0.401  41.352   2.215
80552W        W47093  14.692   0.165   0.023
80553W        W47094  38.930  18.761   0.832
80554W        W47095   8.414  19.283   4.427
80555W        W47096  27.888  36.040   1.071
80556W        W47097   4.201  40.104  11.988
80557W        W47098   1.036  25.984  12.882
80558W        W47099  33.069   8.787   1.751
80559W        W47100  10.804  39.573   3.905
80560W        W47101  34.601   7.908  10.725
80561W        W47102  27.145   9.633   4.522
80562W        W47103  41.984  42.401   0.762
80563W        W47104  20.242  23.890  10.457
80564W        W47105  35.793  39.693  11.905
80565W        W47106  34.900  39.740  12.533
80566W        W47107  35.564  35.200   3.030
80567W        W47108  17.073  16.720  14.955
80568W        W47109   2.142  11.933   1.630
80569W        W47110   8.892  29.539  11.099
80570W        W47111  37.332   0.665   1.871
80571W        W47112  15.540   4.860  11.611
80572W        W47113   7.403  20.301  12.147
80573W        W47114  17.060   2.845   2.426
80574W        W47115  19.595  29.488  10.612
80575W        W47116  27.102  21.552  13.085
80576W        W47117  28.951  27.766  10.989
80577W        W47118   6.391   5.685  11.906
80578W        W47119  38.781   6.652   3.475
80579W        W47120  43.768   2.205   1.429
80580W        W47121   2.132   4.705  11.685
80581W        W47122  19.053  26.005  14.325
80582W        W47123   8.589  22.111  14.584
80583W        W47124   2.290  25.292  11.656
80584W        W47125  37.103  25.551   3.183
80585W        W47126  24.567  22.999  12.091
80586W        W47127  44.477  34.637   2.044
80587W        W47128  17.146  11.254  12.059
80588W        W47129  14.529  35.517  12.415
80589W        W47130  37.272  17.112   2.265
80590W        W47131   6.294   1.832   2.209
80591W        W47132  20.696   5.427  12.181
80592W        W47133  26.633  12.362  13.818
80593W        W47134  16.044  12.317   4.249
80594W        W47135   5.273  11.245  12.371
80595W        W47136  20.810  14.120   3.716
80596W        W47137  26.842  41.592   4.259
80597W        W47138  26.670  14.722  14.937
80598W        W47139  32.737  38.795   4.048
80599W        W47140   0.487   3.034  11.138
80600W        W47141  35.332  39.275   2.190
80601W        W47142  28.477   1.923  10.963
80602W        W47143  20.932  36.597  11.563
80603W        W47144   3.190  19.172   3.332
80604W        W47145  17.701  13.810   0.511
80605W        W47146  34.304  18.118   3.181
80606W        W47147  27.571  29.422  10.360
80607W        W47148  13.323  26.029   0.563
80608W        W47149   0.301  33.406   3.530
80609W        W47150  37.355  36.913  14.744
80610W        W47151  14.663  34.412   4.045
80611W        W47152   0.510  33.583   3.986
80612W        W47153   6.762   5.005  11.319
80613W        W47154   9.352  18.283   3.724
80614W        W47155  37.665  15.692   4.958
80615W        W47156  40.811   0.812   4.514
80616W        W47157   8.372   0.891   3.332
80617W        W47158   4.250  11.646   0.878
80618W        W47159  16.091  20.808  13.326
80619W        W47160   7.586  30.595  12.469
80620W        W47161  26.635  15.259  11.053
80621W        W47162  32.444   3.671  14.889
80622W        W47163  29.241  21.214  14.423
80623W        W47164   0.059  25.615  14.852
80624W        W47165   0.722  29.028   0.630
80625W        W47166  40.487  43.972  11.621
80626W        W47167  15.403  19.203  11.932
80627W        W47168  41.244   8.990  12.561
80628W        W47169  20.512  40.103  10.756
80629W        W47170  21.193  38.002  10.621
80630W        W47171  44.784  24.838  12.393
80631W        W47172   6.152  24.078   2.827
80632W        W47173  14.205  27.651  11.624
80633W        W47174  37.575  38.815  13.387
80634W        W47175   5.421  11.710  13.120
80635W        W47176   2.890  31.389   2.293
80636W        W47177  18.433  36.669   4.095
80637W        W47178  20.237   3.856  12.730
80638W        W47179  42.286  37.010  13.857
80639W        W47180  40.630  30.984  11.649
80640W        W47181   1.856   1.307   3.743
80641W        W47182  18.641  16.457  11.542
80642W        W47183  34.432  40.480   2.610
80643W        W47184  40.358  27.947   5.038
80644W        W47185  37.295  21.268   0.031
80645W        W47186  28.669  39.292   3.113
80646W        W47187   5.128  30.082  11.585
80647W        W47188   5.177   1.369   3.630
80648W        W47189  14.632   0.897   2.172
80649W        W47190  41.022  14.789   0.412
80650W        W47191  18.735  39.459   1.999
80651W        W47192  26.129   9.701  12.354
80652W        W47193  42.962  26.198  10.413
80653W        W47194  25.129  41.266   4.153
80654W        W47195  14.053  41.066  10.627
80655W        W47196  14.336  15.655  10.537
80656W        W47197   5.906  12.592  12.924
80657W        W47198  33.911  29.349   1.306
80658W        W47199   4.455  44.399  11.131
80659W        W47200  35.686  12.238   1.648
80660W        W47201  37.095   0.457  11.197
80661W        W47202  43.294  10.711  14.963
80662W        W47203  25.788  18.110  11.142
80663W        W47204  14.834   4.143   4.226
80664W        W47205  15.554   2.761  14.058
80665W        W47206  20.287  14.311   3.183
80666W        W47207   9.440  13.196  13.274
80667W        W47208  34.458  31.133  13.581
80668W        W47209  28.934  28.959   3.242
80669W        W47210   9.153  25.552   3.740
80670W        W47211  38.312  28.933  14.788
80671W        W47212  26.680   6.214   0.008
80672W        W47213  36.922  12.139   4.143
80673W        W47214  18.727  10.929  12.472
80674W        W47215   2.415  13.160  13.408
80675W        W47216  37.852  44.929  14.551
80676W        W47217   1.052  38.714  14.821
80677W        W47218  36.448  43.211   4.591
80678W        W47219  40.113   9.701   0.371
80679W        W47220  18.142  38.884  13.083
80680W        W47221  24.699   2.847   4.050
80681W        W47222  17.335  33.960  12.864
80682W        W47223  42.311  10.331  12.914
80683W        W47224  14.263  25.949   4.797
80684W        W47225   4.532  34.509   0.207
80685W        W47226  33.117   0.748  12.548
80686W        W47227  12.359  18.250  11.600
80687W        W47228   2.834  43.562   3.852
80688W        W47229  10.279  26.788  10.458
80689W        W47230  20.755  33.859   4.516
80690W        W47231  23.685   5.168   3.473
80691W        W47232  33.473   9.743   4.354
80692W        W47233  33.043  35.739  12.718
80693W        W47234  31.004  28.903  14.924
80694W        W47235  41.749  13.084   3.130
80695W        W47236  44.424  43.749  12.418
80696W        W47237  37.787  14.270  11.933
80697W        W47238  34.147  29.985  12.108
80698W        W47239   7.768  42.226  11.967
80699W        W47240  18.740  19.542  10.689
80700W        W47241   6.468  17.593  11.893
80701W        W47242   7.789   9.119   0.865
80702W        W47243  11.878   2.267   0.452
80703W        W47244  39.376   6.790   2.570
80704W        W47245  13.537  17.345  14.053
80705W        W47246   3.319  24.916   1.410
80706W        W47247  27.597  21.603   2.633
80707W        W47248   1.342  36.036   4.410
80708W        W47249  42.035  43.055   4.152
80709W        W47250  34.498  39.354  12.505
80710W        W47251  25.433  15.938   2.623
80711W        W47252   7.965  24.072   2.351
80712W        W47253   7.452  20.353   1.203
80713W        W47254  10.102  18.393  12.000
80714W        W47255  13.272  17.023  14.984
80715W        W47256   1.505   2.107  10.785
80716W        W47257  31.537  32.676   3.906
80717W        W47258   0.040  19.851   3.789
80718W        W47259   4.092   9.034  14.505
80719W        W47260  27.265  29.060   0.727
80720W        W47261  27.949  30.928  14.279
80721W        W47262   3.572  20.119   4.988
80722W        W47263  26.384  34.456   4.455
80723W        W47264   1.699  19.747   2.926
80724W        W47265   1.340  29.523   3.629
80725W        W47266  42.783   1.493   0.933
80726W        W47267  35.544  29.719  11.059
80727W        W47268   4.297  40.104   0.854
80728W        W47269  30.001  41.770   4.008
80729W        W47270  22.617   1.551  11.510
80730W        W47271  30.180  16.033  11.146
80731W        W47272  28.897  16.205  13.900
80732W        W47273   4.352  23.252   0.963
80733W        W47274   9.371  30.519  14.832
80734W        W47275  35.984  23.070   3.512
80735W        W47276  34.838  27.169   0.269
80736W        W47277   0.732  32.861   0.090
80737W        W47278  15.956  36.029   4.723
80738W        W47279  11.514  29.108   0.885
80739W        W47280  42.370  40.610  14.291
80740W        W47281  35.431   8.306  12.929
80741W        W47282  29.675  19.773  14.354
80742W        W47283  29.590   0.867  10.663
80743W        W47284  10.188  36.910   0.808
80744W        W47285  42.040  20.079   1.230
80745W        W47286  42.918  22.615   4.158
80746W        W47287   3.869   9.707  14.459
80747W        W47288  25.363   7.114   3.700
80748W        W47289  23.999  21.276   0.794
80749W        W47290  23.807  18.122  12.433
80750W        W47291  21.193   0.760  11.496
80751W        W47292  41.570  33.010  14.321
80752W        W47293  41.935   6.822  11.089
80753W        W47294  20.276  20.192   0.727
80754W        W47295  40.544  23.013  13.200
80755W        W47296  21.885  23.396   1.369
80756W        W47297   1.489  18.883  11.924
80757W        W47298  28.737   5.787  11.135
80758W        W47299  23.450  32.504  13.498
80759W        W47300  41.232  18.714  11.125
80760W        W47301  37.311   7.702   2.367
80761W        W47302   4.637  33.891  11.200
80762W        W47303  29.444  23.965   1.873
80763W        W47304  39.329   9.129   1.808
80764W        W47305  31.926   1.250  12.665
80765W        W47306  43.873  24.444  11.104
80766W        W47307  19.623  43.792   4.643
80767W        W47308   7.424  42.972  11.688
80768W        W47309  21.653  10.772  12.002
80769W        W47310  40.269  14.686  12.553
80770W        W47311  25.666   1.255   1.317
80771W        W47312  19.255   1.503  13.398
80772W        W47313  33.268  33.914   4.137
80773W        W47314  37.515   6.835  13.933
80774W        W47315  15.187  20.053   1.882
80775W        W47316  24.961  40.867  13.640
80776W        W47317   8.362  27.197   4.758
80777W        W47318   0.850   9.462  11.648
80778W        W47319  28.615  39.487   3.587
80779W        W47320  25.530  41.433  13.570
80780W        W47321  44.341  20.050  10.989
80781W        W47322  35.030   9.764   3.231
80782W        W47323  24.829  43.647  10.864
80783W        W47324  31.894  23.215   0.803
80784W        W47325   6.222  23.039  12.462
80785W        W47326  16.945  44.845   1.785
80786W        W47327  33.114  15.225  10.589
80787W        W47328  13.851  26.014  12.668
80788W        W47329  20.705  42.906  11.276
80789W        W47330  35.109  21.016  13.984
80790W        W47331  34.039   0.625  11.188
80791W        W47332  38.460  34.588   0.957
80792W        W47333  31.858   7.293   4.673
80793W        W47334   4.488   4.711   3.214
80794W        W47335  13.890   9.667  13.390
80795W        W47336  15.574  41.357   1.653
80796W        W47337  38.234  19.785   3.796
80797W        W47338  29.527  16.480  11.539
80798W        W47339  20.283  34.683  12.041
80799W        W47340  13.661  32.677   0.257
80800W        W47341  11.876  11.358  13.377
80801W        W47342  25.695  29.128  14.542
80802W        W47343   6.259  19.617   2.893
80803W        W47344  35.468   1.359   2.686
80804W        W47345  28.780  28.773  11.165
80805W        W47346  33.335   5.283   3.711
80806W        W47347   0.788  14.405   2.773
80807W        W47348  21.659  26.588   0.116
80808W        W47349  30.185  12.764   2.327
80809W        W47350  24.710   6.045  12.286
80810W        W47351  19.477   7.148   0.860
80811W        W47352  29.854  10.021   2.320
80812W        W47353  39.104  34.427   0.385
80813W        W47354  34.856  31.443  13.443
80814W        W47355  42.391  39.990   4.314
80815W        W47356  11.612  33.097  11.640
80816W        W47357  11.494  38.680   9.731
80817W        W47358  24.991   2.193   1.729
80818W        W47359  15.292  43.538  12.515
80819W        W47360  15.200  44.769  13.540
80820W        W47361  25.743  38.602   3.034
80821W        W47362  15.166  36.792   3.811
80822W        W47363  36.865  41.683   1.963
80823W        W47364  34.529  38.104   2.206
80824W        W47365   0.869  40.994   4.788
80825W        W47366  34.832  40.568  11.246
80826W        W47367  26.729  15.821  13.948
80827W        W47368  24.551  10.346  12.350
80828W        W47369  26.466  32.040  11.890
80829W        W47370  20.040  41.754  11.365
80830W        W47371  20.621  43.217  13.224
80831W        W47372  33.127   0.721   4.500
80832W        W47373  18.485   4.891   0.155
80833W        W47374   6.640  12.292  10.700
80834W        W47375  10.975   3.757   1.221
80835W        W47376  19.733   9.387  13.659
80836W        W47377  10.653  12.283   1.694
80837W        W47378  41.277  30.405   1.385
80838W        W47379  22.090  16.657   4.646
80839W        W47380  29.784  33.615  14.213
80840W        W47381  28.688   3.428   3.091
80841W        W47382  12.925  16.415  14.870
80842W        W47383  12.684  14.566  11.008
80843W        W47384   0.523  35.373   0.529
80844W        W47385   3.814  20.973   4.006
80845W        W47386  33.945  42.975   2.750
80846W        W47387  35.936  40.936   4.232
80847W        W47388  31.987  44.775   3.368
80848W        W47389  43.372   8.388  10.772
80849W        W47390  37.359  29.754  11.177
80850W        W47391  19.101  44.827   1.803
80851W        W47392  15.712   2.537  12.040
80852W        W47393   3.508  18.625  14.030
80853W        W47394  30.500  44.628   4.562
80854W        W47395  38.120  40.607   2.894
80855W        W47396  18.417  24.980   3.167
80856W        W47397  43.359  14.570   0.741
80857W        W47398  12.370  43.456   1.342
80858W        W47399   5.696  36.625  12.840
80859W        W47400  24.490  22.973  12.984
80860W        W47401  43.379  11.403   4.519
80861W        W47402  24.883   1.989  10.737
80862W        W47403  34.804  14.901   4.132
80863W        W47404  22.902   0.592  12.495
80864W        W47405  11.544  42.922  10.156
80865W        W47406  39.986  25.777   2.589
80866W        W47407   9.315  17.677   3.091
80867W        W47408  35.417  11.678   4.878
80868W        W47409  35.162   8.348  14.769
80869W        W47410   0.420  44.303  12.466
80870W        W47411  43.052   4.540   0.764
80871W        W47412   6.700  23.014   1.778
80872W        W47413  33.941  32.794  14.948
80873W        W47414  43.712  43.346   1.690
80874W        W47415  40.566  15.592  14.816
80875W        W47416   1.965  22.174  11.084
80876W        W47417  17.129   1.939   0.918
80877W        W47418  10.522  41.651   4.958
80878W        W47419  19.174  20.903  10.268
80879W        W47420   0.429  23.038  12.521
80880W        W47421  28.566   1.034  12.133
80881W        W47422  38.423  10.757  12.460
80882W        W47423  21.460  36.547   4.485
80883W        W47424  35.369   1.611  11.510
80884W        W47425  37.594  40.356   0.904
80885W        W47426  43.101  41.803  13.931
80886W        W47427   6.910  15.747   0.264
80887W        W47428   1.660   4.497   3.110
80888W        W47429  15.301  16.520  11.005
80889W        W47430   9.137  39.936  13.808
80890W        W47431  38.870  15.295   1.950
80891W        W47432  28.870  22.005   2.283
80892W        W47433  18.320  35.955  11.976
80893W        W47434  12.756   0.783  13.997
80894W        W47435  39.952  23.179   4.756
80895W        W47436  35.361  36.372   2.656
80896W        W47437  22.634  23.545  12.039
80897W        W47438   5.696  39.612   2.745
80898W        W47439  35.272  35.942  14.628
80899W        W47440   5.163  33.557  13.325
80900W        W47441  27.252  18.295  13.950
80901W        W47442  42.280   2.389  14.288
80902W        W47443  29.644   5.855  11.490
80903W        W47444  40.320  15.143  11.152
80904W        W47445   0.670   1.995   5.495
80905W        W47446  34.874   9.935   2.773
80906W        W47447  17.561  14.660  14.054
80907W        W47448  23.741  18.568   2.171
80908W        W47449  24.420   4.842   0.605
80909W        W47450  24.677  41.977   3.329
80910W        W47451  13.510  19.903   1.406
80911W        W47452  13.416  38.019   4.714
80912W        W47453  37.971   7.404  14.783
80913W        W47454  29.377   8.822   0.352
80914W        W47455  41.961  33.412   0.318
80915W        W47456  27.511  35.523   3.370
80916W        W47457  26.715  23.703   2.325
80917W        W47458  17.335  13.663  11.544
80918W        W47459  11.508  32.008   3.159
80919W        W47460  19.308  27.105  14.853
80920W        W47461   5.073  16.614  11.071
80921W        W47462   1.648   4.242  14.687
80922W        W47463  10.637   0.816   2.166
80923W        W47464  40.764  42.458  11.139
80924W        W47465  23.829  33.232  13.972
80925W        W47466  28.968  44.288   3.610
80926W        W47467  30.544  24.980  14.705
80927W        W47468  32.902  27.846  10.784
80928W        W47469   2.855  16.697   4.122
80929W        W47470   5.464   8.605  11.637
80930W        W47471  16.997  25.406   0.444
80931W        W47472  11.752   7.374   0.393
80932W        W47473  41.325  35.904   2.395
80933W        W47474  38.093  28.811  13.930
80934W        W47475  24.956  36.592  11.397
80935W        W47476  38.828  13.435  13.035
80936W        W47477  35.979   2.209   4.130
80937W        W47478  33.937  16.849   0.671
80938W        W47479   2.510  20.159  14.930
80939W        W47480  29.526   8.918   2.739
80940W        W47481  25.265  17.043  14.122
80941W        W47482  15.919  19.336  13.459
80942W        W47483  36.480  43.246  13.427
80943W        W47484  40.426  15.221   0.196
80944W        W47485  18.601  18.044  13.400
80945W        W47486  16.048  12.474   0.759
80946W        W47487  10.819   1.271   2.786
80947W        W47488  34.748  20.577  13.084
80948W        W47489   4.414  40.763   3.991
80949W        W47490  12.801  30.853   3.335
80950W        W47491  29.054  35.069   3.572
80951W        W47492  24.021  30.644  10.963
80952W        W47493  10.308  43.591  12.353
80953W        W47494  40.481   4.617  12.550
80954W        W47495  15.684  37.641   0.395
80955W        W47496  25.505  18.180  10.726
80956W        W47497  20.214  19.967   2.658
80957W        W47498  22.814  11.642  11.571
80958W        W47499   8.857  25.720   2.353
80959W        W47500  25.166  15.282  14.843
80960W        W47501  41.445  36.713   0.834
80961W        W47502  41.953  10.422   0.994
80962W        W47503   6.947   1.673  12.490
80963W        W47504  39.477  14.080  13.980
80964W        W47505  12.547  34.543  13.492
80965W        W47506  41.235  42.769   0.977
80966W        W47507   4.209  18.603  13.387
80967W        W47508  36.185  19.228   2.353
80968W        W47509  37.937  42.261  13.916
80969W        W47510  31.144  26.631  11.113
80970W        W47511  20.254  20.237   4.353
80971W        W47512  26.479  10.341   0.516
80972W        W47513  41.395   6.501  10.730
80973W        W47514  14.993  37.747   4.196
80974W        W47515  35.587  20.705  10.620
80975W        W47516  44.743  18.547  13.575
80976W        W47517   3.465   9.650  12.082
80977W        W47518  24.236   8.030  11.827
80978W        W47519  22.039  38.355   4.566
80979W        W47520  37.013  43.883  12.950
80980W        W47521   3.463  10.205   4.525
80981W        W47522  37.438  38.756  11.183
80982W        W47523  28.768  38.767   1.254
80983W        W47524  27.330  44.248   2.838
80984W        W47525  41.530  41.555   2.656
80985W        W47526  38.097  22.335  14.734
80986W        W47527  21.497   4.324  13.382
80987W        W47528  14.108  37.370   0.820
80988W        W47529  29.389  13.907  10.666
80989W        W47530  28.750   7.277   4.086
80990W        W47531  21.603   1.406  11.630
80991W        W47532  28.046  28.370   3.599
80992W        W47533  16.712   3.603   3.880
80993W        W47534   7.299  18.415  12.565
80994W        W47535  44.179  37.447  12.145
80995W        W47536   3.876   7.011  12.498
80996W        W47537  29.667   7.413   1.323
80997W        W47538  30.850  39.943   4.643
80998W        W47539  34.800  25.147  14.380
80999W        W47540  38.367  29.357  13.479
81000W        W47541   9.389  10.414  14.906
81001W        W47542  21.166  36.493  13.394
81002W        W47543  14.244  36.102   1.259
81003W        W47544  19.570   7.910   1.292
81004W        W47545  33.417  37.420  13.486
81005W        W47546  44.336  19.113  10.655
81006W        W47547  35.496   4.203  11.539
81007W        W47548   4.365  22.512   3.745
81008W        W47549   4.929  32.568  12.147
81009W        W47550  27.879  36.969   1.878
81010W        W47551  34.494  23.119  14.042
81011W        W47552   8.586  40.463   0.330
81012W        W47553  30.616  41.832  14.533
81013W        W47554  10.420  40.386   0.243
81014W        W47555  39.517  26.704  14.099
81015W        W47556  37.712   9.256   1.931
81016W        W47557  21.815  10.632   4.653
81017W        W47558   2.241  44.897   2.873
81018W        W47559  15.154  44.024   2.134
81019W        W47560  24.462   7.154  14.946
81020W        W47561  26.776  33.534   4.937
81021W        W47562  17.188  18.082  11.233
81022W        W47563  31.976  41.132   2.551
81023W        W47564  11.904  10.806   1.883
81024W        W47565  37.604  29.207   2.222
81025W        W47566  39.265  15.831  12.610
81026W        W47567   3.288  40.247  14.336
81027W        W47568  19.099   3.800  14.051
81028W        W47569  21.236  30.205   1.240
81029W        W47570   0.611  29.344   3.349
81030W        W47571  20.211  32.490  12.540
81031W        W47572  29.476  34.357  13.994
81032W        W47573  36.123  22.290   3.254
81033W        W47574   0.580  41.525  12.923
81034W        W47575  13.469  27.961  11.120
81035W        W47576  41.349  29.109   4.253
81036W        W47577   4.913  19.704  13.873
81037W        W47578   1.639  32.552  14.405
81038W        W47579   6.107  42.313  11.424
81039W        W47580  20.167  29.784   1.803
81040W        W47581  25.623  34.476   1.217
81041W        W47582  18.093  33.187  14.423
81042W        W47583  30.607  14.366  14.992
81043W        W47584  37.294   2.457  10.547
81044W        W47585   0.916  20.152   3.617
81045W        W47586  24.566   1.942  14.636
81046W        W47587  21.233  11.733   3.203
81047W        W47588   2.852  29.951   0.348
81048W        W47589  16.700  35.119  13.302
81049W        W47590  17.261  42.495   0.323
81050W        W47591   4.832  12.387   0.814
81051W        W47592   4.989  38.878   1.037
81052W        W47593  23.607  24.200  14.985
81053W        W47594   8.085  36.440   0.776
81054W        W47595  36.926  24.488   2.454
81055W        W47596  32.094  11.784   2.737
81056W        W47597  17.534  37.524   5.025
81057W        W47598  35.982  34.868  10.705
81058W        W47599  41.768  20.826  14.563
81059W        W47600  24.944  20.889   0.765
81060W        W47601  30.666  41.001  14.612
81061W        W47602  26.920  19.153  12.910
81062W        W47603  42.352   1.044   4.255
81063W        W47604   3.390   7.726  10.953
81064W        W47605  41.850  12.450  10.504
81065W        W47606  11.312  39.349   4.616
81066W        W47607  22.566   3.434  10.062
81067W        W47608  33.002   1.452   2.867
81068W        W47609   9.959   2.749  13.444
81069W        W47610  26.153  22.304   0.967
81070W        W47611  11.574  23.473  11.019
81071W        W47612  39.474  34.708  11.766
81072W        W47613  28.540   9.163   2.905
81073W        W47614  33.511  31.711  12.004
81074W        W47615  11.132  28.029   3.490
81075W        W47616   2.076   7.210   2.719
81076W        W47617  35.695  22.861   3.968
81077W        W47618   0.013  16.817  13.861
81078W        W47619  15.285  40.599   3.929
81079W        W47620  20.020  14.350   2.750
81080W        W47621  37.331  19.568  11.179
81081W        W47622  39.334  41.342  13.058
81082W        W47623   3.673  34.124  12.882
81083W        W47624  11.760  36.476   2.068
81084W        W47625   3.141   6.574   4.922
81085W        W47626   4.213  15.662   1.905
81086W        W47627  43.326  33.450   1.855
81087W        W47628  27.542  20.460  13.478
81088W        W47629  10.340  38.569  12.863
81089W        W47630  10.949  25.245  13.381
81090W        W47631   4.426  32.427   1.777
81091W        W47632   9.994  34.408  13.189
81092W        W47633  38.441  34.938   0.485
81093W        W47634  20.337  37.251   4.849
81094W        W47635  32.646  16.313   1.730
81095W        W47636  35.466  15.604   3.724
81096W        W47637   8.709  40.635   5.128
81097W        W47638   7.378  11.456  11.554
81098W        W47639  26.646  24.072  14.839
81099W        W47640  17.629  36.931   3.077
81100W        W47641   4.394  33.218   1.691
81101W        W47642  36.649   5.297   4.516
81102W        W47643  40.816  20.842   0.083
81103W        W47644   9.631  37.855  14.784
81104W        W47645  44.707  43.334  14.871
81105W        W47646   6.379  37.411  11.399
81106W        W47647   9.693  15.712  14.041
81107W        W47648  25.715   6.448   4.992
81108W        W47649  31.908   3.321  12.030
81109W        W47650  11.155  20.239   0.290
81110W        W47651  19.553  27.514  10.684
81111W        W47652  28.004  38.423  13.533
81112W        W47653   5.913  14.390   4.453
81113W        W47654   0.461   4.176   4.658
81114W        W47655   1.003   4.685  14.784
81115W        W47656  12.916  34.666  11.655
81116W        W47657   7.216   7.896   2.251
81117W        W47658   2.659   8.643  12.701
81118W        W47659  21.257  42.868   4.545
81119W        W47660  25.098  32.197   2.807
81120W        W47661  34.510  38.101  11.999
81121W        W47662  12.375   7.357   3.892
81122W        W47663  43.032  35.738  14.272
81123W        W47664  20.608  12.395   2.284
81124W        W47665   0.831  36.498  12.155
81125W        W47666  37.253   0.434  14.971
81126W        W47667  38.956   9.787   2.144
81127W        W47668  20.654  24.558   3.154
81128W        W47669  17.518  34.511  14.277
81129W        W47670  20.621  28.969   2.246
81130W        W47671  33.648  23.964  12.386
81131W        W47672  32.113  10.229   1.736
81132W        W47673  25.573  15.703  12.395
81133W        W47674  10.640  33.851   1.409
81134W        W47675  38.441  37.857   4.588
81135W        W47676  15.063   0.503  14.229
81136W        W47677   8.849  27.931  14.951
81137W        W47678  38.514  27.571   1.525
81138W        W47679  33.079  25.938  13.940
81139W        W47680  37.183  24.042   2.268
81140W        W47681  14.126  30.406   1.479
81141W        W47682  16.515  21.971  12.901
81142W        W47683   2.271  28.246   1.767
81143W        W47684  15.747  20.809   2.911
81144W        W47685  26.640  34.316   0.778
81145W        W47686  25.531  15.839   3.571
81146W        W47687  32.748  29.772  11.156
81147W        W47688   6.480  16.999   3.676
81148W        W47689  28.565  13.598   2.380
81149W        W47690  17.007   8.744   1.149
81150W        W47691  15.715  16.329  13.575
81151W        W47692  22.507  35.651   0.100
81152W        W47693   7.713  15.797  12.045
81153W        W47694  14.880  23.924   4.484
81154W        W47695  41.298  24.071   3.223
81155W        W47696  39.820  11.239  14.002
81156W        W47697  42.125  15.705   2.641
81157W        W47698   1.397  32.328  11.622
81158W        W47699  17.487  24.550   1.750
81159W        W47700  37.632  31.964  14.505
81160W        W47701  44.434  18.340  12.596
81161W        W47702   3.179  31.967  12.167
81162W        W47703  27.186  38.286  10.488
81163W        W47704  23.047  31.660   2.852
81164W        W47705  26.152   0.434  14.907
81165W        W47706  33.346  26.271   3.230
81166W        W47707  25.116   3.799   3.330
81167W        W47708  25.949  40.931   3.845
81168W        W47709  17.790  19.097   3.094
81169W        W47710  11.731  36.594  10.994
81170W        W47711  33.066   2.612  12.967
81171W        W47712  43.490  29.668  10.735
81172W        W47713  24.495  19.979  12.039
81173W        W47714  35.769  27.110   0.249
81174W        W47715  10.780   3.206   0.318
81175W        W47716  29.527  23.441   1.910
81176W        W47717  13.535  36.409  14.059
81177W        W47718  27.597  40.486   0.783
81178W        W47719  30.527  29.027   2.102
81179W        W47720  33.797   6.348   0.344
81180W        W47721   2.425  20.273  11.138
81181W        W47722  40.446  42.899   0.551
81182W        W47723  20.344  14.298  13.760
81183W        W47724  30.102  19.438   1.906
81184W        W47725  16.262  41.508  11.558
81185W        W47726  19.563   3.813  12.084
81186W        W47727  39.375  10.772  11.787
81187W        W47728  18.603  23.092   2.989
81188W        W47729  24.482   1.226  13.894
81189W        W47730  10.668  35.534  13.119
81190W        W47731  22.035  34.227  10.988
81191W        W47732   6.645  21.138  12.723
81192W        W47733   4.946  14.633   4.178
81193W        W47734  29.960  42.401   4.650
81194W        W47735  19.654  39.185   0.511
81195W        W47736   7.669  41.082  13.814
81196W        W47737  42.409   2.467   1.234
81197W        W47738  24.173  34.996   2.886
81198W        W47739  11.799   1.197   5.011
81199W        W47740  10.373  25.408   4.176
81200W        W47741  35.802  39.832  12.414
81201W        W47742  19.368  20.148   3.735
81202W        W47743  41.426  24.516   0.517
81203W        W47744  26.146  29.940  10.378
81204W        W47745  41.465  11.132  14.501
81205W        W47746  23.264  33.131  11.126
81206W        W47747  19.319   7.368   3.206
81207W        W47748  16.352   4.390  14.233
81208W        W47749  21.112  42.317   2.441
81209W        W47750   9.345  37.662   4.323
81210W        W47751  15.272  38.336   2.235
81211W        W47752  40.411  12.608   4.865
81212W        W47753  28.506  19.521  10.879
81213W        W47754  22.371  22.516   3.731
81214W        W47755  35.354  41.933   0.887
81215W        W47756  17.778  26.161   2.378
81216W        W47757  20.021  16.226   3.169
81217W        W47758  17.136  41.568   2.713
81218W        W47759  19.224   4.307   4.662
81219W        W47760  38.540  27.191  14.930
81220W        W47761  41.874  20.865   4.306
81221W        W47762  11.176  12.398  14.883
81222W        W47763  33.911  30.041  12.557
81223W        W47764  24.694  22.452  12.102
81224W        W47765   4.879  27.151   9.826
81225W        W47766  34.401  41.412  11.310
81226W        W47767  23.217  14.117  12.995
81227W        W47768  20.590  27.218  13.416
81228W        W47769   1.625  27.124  10.550
81229W        W47770  17.360  10.623   2.726
81230W        W47771  39.776  14.300   1.690
81231W        W47772  30.078  17.911   3.627
81232W        W47773  14.393   9.955  14.257
81233W        W47774  43.267  16.657  12.338
81234W        W47775  38.104   7.206   3.304
81235W        W47776  36.368   3.254   0.681
81236W        W47777  14.993   4.338  11.126
81237W        W47778  39.624  20.943   0.765
81238W        W47779  12.416  19.168   1.395
81239W        W47780  25.037  33.162  11.168
81240W        W47781  25.806  20.615   3.774
81241W        W47782  26.130  13.143   3.712
81242W        W47783  22.501  16.490  12.857
81243W        W47784  17.965   2.799   4.118
81244W        W47785  18.726   0.979   1.284
81245W        W47786  33.782  19.599   4.588
81246W        W47787   2.951  36.336  10.713
81247W        W47788  35.996   5.367   2.422
81248W        W47789  25.119  41.034  11.205
81249W        W47790  23.151  32.283   0.180
81250W        W47791   5.145  40.068  14.381
81251W        W47792  16.330  44.044   2.661
81252W        W47793  19.217  36.870  11.519
81253W        W47794  36.662  25.054   1.956
81254W        W47795  29.147  32.687   3.241
81255W        W47796  25.950  31.890   3.268
81256W        W47797  13.418  25.729   1.811
81257W        W47798  44.683  19.649   4.605
81258W        W47799  14.648  29.147  11.109
81259W        W47800  26.924   6.203   2.298
81260W        W47801  15.097  40.424   2.755
81261W        W47802   2.706  20.526   1.699
81262W        W47803  27.940  25.607   0.272
81263W        W47804  20.974  22.301   1.744
81264W        W47805  13.975  21.504  12.864
81265W        W47806   8.754  38.298   2.493
81266W        W47807  14.870  27.994   1.858
81267W        W47808  16.227  32.414  14.055
81268W        W47809   4.781  30.830  12.225
81269W        W47810  31.040  25.901   2.542
81270W        W47811  43.943  44.449  10.283
81271W        W47812  21.024   0.711   1.913
81272W        W47813  10.232  42.086   4.875
81273W        W47814  14.915   1.159  13.344
81274W        W47815  37.657  37.704  12.031
81275W        W47816   5.154  15.542   3.171
81276W        W47817  42.348  32.797  11.303
81277W        W47818  36.149  24.436  11.204
81278W        W47819   3.639   0.037   0.799
81279W        W47820  41.135  33.037   4.113
81280W        W47821  29.896  14.304   1.433
81281W        W47822  37.322  37.329  12.099
81282W        W47823  23.091  44.973   3.234
81283W        W47824  24.190  19.300  10.336
81284W        W47825  17.669   8.685   4.041
81285W        W47826   5.803   7.965  10.509
81286W        W47827  38.894  28.875  14.879
81287W        W47828  17.773   6.873  12.440
81288W        W47829  43.881   0.959  10.831
81289W        W47830  34.989  26.678  11.255
81290W        W47831   0.793  42.032  14.003
81291W        W47832  15.076  38.341   3.157
81292W        W47833  25.412   2.501   1.848
81293W        W47834  22.495  21.138  10.097
81294W        W47835   9.375  30.866   0.721
81295W        W47836  28.086  11.774  14.990
81296W        W47837  14.914  36.852   1.014
81297W        W47838  38.334   5.895   3.613
81298W        W47839  39.282  37.264  14.340
81299W        W47840  24.665  40.048   4.474
81300W        W47841   4.202   8.262  11.258
81301W        W47842  42.788  41.214  11.501
81302W        W47843  18.601   5.848  13.190
81303W        W47844   1.642   1.803  14.014
81304W        W47845   2.237  24.955   2.351
81305W        W47846  41.899   8.886   1.944
81306W        W47847  13.309  23.736   4.452
81307W        W47848  31.587  30.867   3.139
81308W        W47849  34.057  37.901   2.356
81309W        W47850  10.891  28.301  14.762
81310W        W47851  44.179  33.397   1.674
81311W        W47852  33.019  24.741  13.220
81312W        W47853  19.711  32.690  14.273
81313W        W47854  33.091  12.609  12.634
81314W        W47855  24.217  19.548  11.924
81315W        W47856  24.516  34.004   3.234
81316W        W47857   9.523  39.556  11.172
81317W        W47858   6.855   4.391   0.012
81318W        W47859  16.241  42.365  14.711
81319W        W47860  41.873  36.884   4.464
81320W        W47861  30.594   7.188   1.182
81321W        W47862  23.732   6.271   0.549
81322W        W47863  15.632  42.737  14.994
81323W        W47864  35.907   2.375   0.276
81324W        W47865  24.768  11.291   1.254
81325W        W47866  10.341   4.846  11.539
81326W        W47867  28.166  16.192   3.532
81327W        W47868  43.005  25.127  14.936
81328W        W47869  14.712  20.488   3.720
81329W        W47870  38.762  23.996  13.376
81330W        W47871  40.064  19.812  14.451
81331W        W47872  41.788  41.963   0.939
81332W        W47873  12.684  11.251   0.260
81333W        W47874  42.988   7.458  13.713
81334W        W47875  44.240  38.087   0.402
81335W        W47876  19.195   1.788  13.849
81336W        W47877  16.201  21.858  14.023
81337W        W47878  26.533  30.526  13.582
81338W        W47879  13.325  13.209   0.326
81339W        W47880   0.022  31.736  14.389
81340W        W47881  34.560  34.894  11.016
81341W        W47882  17.920  37.370  13.387
81342W        W47883  39.368   6.266   4.916
81343W        W47884  12.338  41.300   3.721
81344W        W47885   2.876  20.504   3.172
81345W        W47886  36.123  22.971   0.203
81346W        W47887  14.970  34.768   0.854
81347W        W47888   7.269  10.292  11.565
81348W        W47889  35.426  24.945  12.219
81349W        W47890  29.574  25.519   0.788
81350W        W47891   2.322  12.909  14.301
81351W        W47892   7.763  33.058   1.723
81352W        W47893   0.237  18.062   0.232
81353W        W47894  27.594   3.232   1.459
81354W        W47895   2.520  31.416  12.358
81355W        W47896   6.650  10.103  11.940
81356W        W47897  29.672  14.803  11.549
81357W        W47898  17.491   8.278  14.387
81358W        W47899  16.358  22.361  14.197
81359W        W47900  21.277  20.687  11.494
81360W        W47901  25.418  36.657  11.015
81361W        W47902  41.915  19.221  11.007
81362W        W47903  20.152  12.132   2.279
81363W        W47904  41.550  37.933   2.348
81364W        W47905  13.025  37.271  11.755
81365W        W47906  33.382   8.785   1.334
81366W        W47907  32.198  27.760   0.990
81367W        W47908  13.721   4.223   0.028
81368W        W47909   5.908  21.629  13.435
81369W        W47910  24.830  14.773   4.686
81370W        W47911  36.917  27.088   2.738
81371W        W47912  29.404  28.073  11.127
81372W        W47913  30.043  34.057   2.523
81373W        W47914  28.711  37.980   3.854
81374W        W47915   4.701  33.407  13.506
81375W        W47916  34.819  17.250  14.232
81376W        W47917   6.858   4.302   3.588
81377W        W47918   3.451  13.282   3.816
81378W        W47919  28.549  34.325   1.943
81379W        W47920  13.650  24.209  11.158
81380W        W47921  38.068   4.372  11.157
81381W        W47922   6.692  32.923  14.479
81382W        W47923  37.849  36.992  11.781
81383W        W47924  27.689  15.034   1.226
81384W        W47925  18.298   6.447   0.002
81385W        W47926  18.070  37.250   0.724
81386W        W47927  40.785  19.706  12.926
81387W        W47928   4.560   9.088  11.746
81388W        W47929   4.484  23.946  13.411
81389W        W47930  24.547   9.156  14.334
81390W        W47931   1.734   8.225   0.743
81391W        W47932   9.801   4.236   0.763
81392W        W47933   8.506   5.400   3.579
81393W        W47934   8.799  41.397   5.530
81394W        W47935  28.114  18.501   3.775
81395W        W47936  33.053  19.647  13.430
81396W        W47937  28.202   0.476   3.789
81397W        W47938  15.900  14.087  11.106
81398W        W47939  34.597  42.252  12.541
81399W        W47940  26.673  39.862  10.932
81400W        W47941  23.609  30.592  12.143
81401W        W47942   7.977  23.973   4.096
81402W        W47943  21.720   4.990   0.001
81403W        W47944   9.903  29.189   1.230
81404W        W47945  37.288  18.583   2.886
81405W        W47946  26.289  41.466   2.745
81406W        W47947  37.779   4.671   3.575
81407W        W47948  31.176  40.344   4.667
81408W        W47949   4.362  31.584   1.479
81409W        W47950  42.323   1.253  11.909
81410W        W47951  20.982  15.562   3.190
81411W        W47952  28.065  24.962  11.179
81412W        W47953  35.429  11.345   1.265
81413W        W47954  25.052   9.961   3.986
81414W        W47955  35.545  22.083   2.749
81415W        W47956  22.847  32.976  13.964
81416W        W47957   2.705  26.611   3.729
81417W        W47958  21.980  37.512   2.334
81418W        W47959  42.493  10.254   0.938
81419W        W47960  16.143  13.236   4.521
81420W        W47961  32.657   5.756  11.997
81421W        W47962  29.493  22.074   0.303
81422W        W47963  23.419  17.029  13.064
81423W        W47964  14.172  26.208  14.488
81424W        W47965   3.873  26.443   0.968
81425W        W47966  22.573   3.683  12.947
81426W        W47967  32.564  36.584   1.276
81427W        W47968  41.007   8.830  12.002
81428W        W47969   0.297   4.147   9.871
81429W        W47970  22.127  25.034   5.105
81430W        W47971  41.270  23.768  12.474
81431W        W47972  25.459  18.503  11.129
81432W        W47973  11.552  35.853   3.652
81433W        W47974  25.481   1.151  13.149
81434W        W47975   2.512  30.072   4.122
81435W        W47976   3.798  11.481   2.727
81436W        W47977  37.557  23.650   1.495
81437W        W47978  40.685  39.945  10.758
81438W        W47979   2.328   1.222   4.943
81439W        W47980  19.307   0.494  13.445
81440W        W47981  12.337  20.423  12.901
81441W        W47982  25.717   2.349   1.436
81442W        W47983  28.637  24.490   4.914
81443W        W47984  10.877  44.917  12.884
81444W        W47985  44.417  12.108   3.291
81445W        W47986  15.912  41.659  11.927
81446W        W47987   7.303   3.268  10.570
81447W        W47988   8.761  34.974   2.306
81448W        W47989  19.415  33.064  13.979
81449W        W47990  41.972  28.918  14.850
81450W        W47991  29.588  25.226  12.224
81451W        W47992   3.406  23.570   1.767
81452W        W47993  18.319  43.465  14.498
81453W        W47994  10.257  26.630  10.953
81454W        W47995  10.172  34.017   1.602
81455W        W47996  34.124  28.035  12.005
81456W        W47997  17.046  13.295   3.255
81457W        W47998  30.470  41.567  12.532
81458W        W47999  13.705   2.878  13.272
81459W        W48000  30.503  25.722  13.889
81460W        W48001  34.234   6.504  14.075
81461W        W48002  30.932  35.801  14.806
81462W        W48003  23.463  44.665  14.968
81463W        W48004  17.039   3.688  14.264
81464W        W48005   1.885  18.112   2.208
81465W        W48006  43.439  19.725   4.916
81466W        W48007  27.034  23.127   3.137
81467W        W48008  35.907  25.445  14.030
81468W        W48009  11.084   0.790  10.670
81469W        W48010  39.879  29.915   3.715
81470W        W48011  43.615  19.582  11.472
81471W        W48012  38.007  44.788  10.842
81472W        W48013  27.100  37.109   0.373
81473W        W48014  27.556  21.146  10.996
81474W        W48015  32.941  27.005   1.721
81475W        W48016  17.237  11.243  13.086
81476W        W48017  42.857  34.490  13.556
81477W        W48018  18.799  13.600  11.666
81478W        W48019  14.103  10.204  13.875
81479W        W48020   4.796  37.300   3.716
81480W        W48021  30.307  39.427  13.375
81481W        W48022   7.943  43.401   4.109
81482W        W48023  37.366  21.132  13.412
81483W        W48024  18.658  10.570  12.887
81484W        W48025  26.256  35.592  12.372
81485W        W48026  36.884  15.303  14.257
81486W        W48027   0.935  23.454   3.208
81487W        W48028  11.472   5.639  14.815
81488W        W48029  35.812  24.562   2.946
81489W        W48030  15.797  14.623  14.384
81490W        W48031  30.145  21.332  12.815
81491W        W48032  23.244  23.257   2.419
81492W        W48033  18.484  32.988  11.442
81493W        W48034  13.116  36.376  11.400
81494W        W48035  23.477  28.977   0.395
81495W        W48036  18.092   5.110   3.410
81496W        W48037  33.032  40.933   0.599
81497W        W48038  13.067  21.678   3.037
81498W        W48039  35.086  21.253  12.182
81499W        W48040   6.225  25.566  14.720
81500W        W48041  20.672   5.857   1.170
81501W        W48042  25.563  18.548  11.988
81502W        W48043  35.681  41.930  14.478
81503W        W48044  38.429  24.846   0.823
81504W        W48045  11.622  13.226   0.880
81505W        W48046  35.932  29.445  13.980
81506W        W48047  11.318   5.727   1.549
81507W        W48048  38.123  27.578  10.468
81508W        W48049  35.600  14.320  11.569
81509W        W48050  23.375  35.417   1.809
81510W        W48051  37.618  30.818   0.973
81511W        W48052  28.355  43.280   0.327
81512W        W48053  10.090  29.695   4.612
81513W        W48054   4.032  21.217   2.237
81514W        W48055  31.606   5.232   0.083
81515W        W48056  40.260  30.413   2.661
81516W        W48057  42.260  12.724  13.245
81517W        W48058  26.105  39.479  10.756
81518W        W48059   9.917  10.349  14.891
81519W        W48060   8.305  18.278  14.610
81520W        W48061   1.129   7.883   3.625
81521W        W48062   3.732  13.192   2.169
81522W        W48063  31.248  34.002  14.459
81523W        W48064  34.495  38.602  14.403
81524W        W48065   8.247  29.693   1.672
81525W        W48066  43.884   3.217  13.473
81526W        W48067   9.852   0.362  10.931
81527W        W48068  29.046  14.344  12.060
81528W        W48069  42.912  39.008   1.730
81529W        W48070  28.976  33.464  12.878
81530W        W48071  30.563   9.139  12.997
81531W        W48072  22.892  19.846  12.625
81532W        W48073  13.967  34.552  10.577
81533W        W48074   2.234  24.272  11.528
81534W        W48075   0.462   3.659  14.380
81535W        W48076  22.862  17.810   4.106
81536W        W48077  10.445   4.150  12.023
81537W        W48078  41.407  43.028   3.615
81538W        W48079  24.983  33.174   3.780
81539W        W48080  35.145  24.627   0.212
81540W        W48081  37.375   3.104  12.901
81541W        W48082   7.481  20.759   1.524
81542W        W48083   4.317  37.202   4.959
81543W        W48084   8.889  35.167   0.847
81544W        W48085  29.404  11.208  12.174
81545W        W48086   5.232  26.297   0.965
81546W        W48087  15.789  32.141  14.126
81547W        W48088  10.219  41.930   2.418
81548W        W48089  35.516  12.278  10.673
81549W        W48090  27.170  16.449   4.503
81550W        W48091  12.793  20.541  11.573
81551W        W48092  40.376  23.623   3.707
81552W        W48093   1.974  36.592   3.839
81553W        W48094   2.391  18.435  10.267
81554W        W48095  22.612  13.310   1.728
81555W        W48096  19.212  26.603  11.425
81556W        W48097  17.880  43.003   2.657
81557W        W48098  12.723  13.940  12.489
81558W        W48099  15.174  31.131   4.974
81559W        W48100  22.988  10.594  12.981
81560W        W48101  12.930  18.820  13.904
81561W        W48102  34.325  43.833   1.509
81562W        W48103  41.414  37.463  11.269
81563W        W48104   0.820  30.536   1.664
81564W        W48105  41.907  28.216  10.647
81565W        W48106  33.204  41.976   2.393
81566W        W48107  43.027  38.461  14.888
81567W        W48108  31.593  40.095   4.131
81568W        W48109  20.700  40.138  13.765
81569W        W48110   2.051   4.861   3.804
81570W        W48111  41.283  19.562  11.570
81571W        W48112  25.661  28.644   2.226
81572W        W48113   1.246  13.770  14.571
81573W        W48114  16.107  31.195  12.561
81574W        W48115  42.971  25.584  12.666
81575W        W48116   6.766  39.599   3.290
81576W        W48117   5.341  21.656  14.551
81577W        W48118  12.368  33.475   1.263
81578W        W48119  40.429  25.064   0.053
81579W        W48120  35.610   9.283  11.205
81580W        W48121   3.547  14.755  13.592
81581W        W48122  21.701   4.170   0.382
81582W        W48123  35.017  14.575   1.796
81583W        W48124  17.161  39.067   3.086
81584W        W48125  16.741  12.403   0.238
81585W        W48126   1.985  34.841   4.063
81586W        W48127   6.212  19.426  14.899
81587W        W48128  20.109   0.672   0.447
81588W        W48129   7.774  38.864  14.997
81589W        W48130  34.342  30.722   1.239
81590W        W48131  31.107  32.014  11.136
81591W        W48132  37.803  32.585   1.331
81592W        W48133  24.062  39.078   0.429
81593W        W48134  21.028  10.642  13.100
81594W        W48135  25.504  38.496  10.829
81595W        W48136  22.124  22.690  13.906
81596W        W48137  32.487   1.033  14.394
81597W        W48138  31.472   0.554  11.589
81598W        W48139  36.902  15.247  13.363
81599W        W48140  29.183  33.845   2.325
81600W        W48141   1.374   6.532  11.552
81601W        W48142  17.809  23.281   2.368
81602W        W48143  34.411  32.408   3.779
81603W        W48144  35.094  28.877   1.733
81604W        W48145   2.459  11.377   2.410
81605W        W48146  36.981   8.829   0.863
81606W        W48147  25.486  10.603   3.245
81607W        W48148  10.457  36.781  13.376
81608W        W48149   2.748   8.762  13.998
81609W        W48150  32.450  37.683   2.754
81610W        W48151  35.888  44.076   2.771
81611W        W48152   5.353  42.490  14.301
81612W        W48153  33.619  19.483  11.087
81613W        W48154  44.955   4.697  14.724
81614W        W48155  31.670  30.985  12.605
81615W        W48156  21.979  26.214   1.310
81616W        W48157  17.303  13.018   1.873
81617W        W48158  38.098  13.366   9.561
81618W        W48159  40.859  25.076   4.659
81619W        W48160  24.544  12.231   3.709
81620W        W48161  39.342   4.168  12.500
81621W        W48162  40.506  30.846  12.507
81622W        W48163  42.550  20.020   1.112
81623W        W48164  11.872  20.742  10.781
81624W        W48165   8.209  38.338  14.049
81625W        W48166  20.385  28.523   0.496
81626W        W48167   2.972   9.837  14.450
81627W        W48168  30.853  25.138   4.212
81628W        W48169  17.402   6.349   0.338
81629W        W48170  20.268   2.568  13.448
81630W        W48171  23.281   5.167  13.042
81631W        W48172  32.362   0.788  12.934
81632W        W48173  12.790   9.227   2.886
81633W        W48174   2.497  15.424  13.490
81634W        W48175   2.753  35.318   3.742
81635W        W48176  26.996  41.779  14.487
81636W        W48177  43.547   9.991  10.863
81637W        W48178  44.028   4.378  11.512
81638W        W48179  26.250  30.752   4.090
81639W        W48180  18.565   4.162  14.828
81640W        W48181  40.991  33.475   3.298
81641W        W48182   3.468  30.469  14.867
81642W        W48183  44.922  34.613  12.314
81643W        W48184  31.894   0.461   2.858
81644W        W48185  43.522  35.833  13.386
81645W        W48186  15.271   5.327   3.605
81646W        W48187  11.418  40.110   9.919
81647W        W48188  38.443  27.677   1.009
81648W        W48189   0.548  16.523   4.921
81649W        W48190  44.827  22.050   4.268
81650W        W48191  43.675  37.142   3.581
81651W        W48192  33.806  42.498  12.385
81652W        W48193  20.642  37.914  12.108
81653W        W48194   2.992   1.404   3.308
81654W        W48195  44.901  26.685   0.804
81655W        W48196  24.385   5.271   2.597
81656W        W48197  40.927   7.775  11.889
81657W        W48198  44.388   7.713  14.838
81658W        W48199  30.422   9.329   3.223
81659W        W48200  41.846  28.420  13.352
81660W        W48201   6.195  30.154  13.468
81661W        W48202  29.094  24.543   2.250
81662W        W48203  35.129  39.393  12.987
81663W        W48204  12.236  25.638  14.108
81664W        W48205  41.819  28.717  10.473
81665W        W48206  22.575  12.085  11.537
81666W        W48207  33.592  35.867   1.628
81667W        W48208  37.356  24.050  12.532
81668W        W48209  19.722  36.665   1.422
81669W        W48210   5.167  38.639   9.728
81670W        W48211  35.221  27.645   2.829
81671W        W48212  42.924  32.989   0.133
81672W        W48213   0.723  23.943  11.703
81673W        W48214  12.459  12.635  11.698
81674W        W48215  41.376  38.903  11.247
81675W        W48216   5.674   5.823  13.064
81676W        W48217  25.677   8.352  13.316
81677W        W48218  30.999  40.639   1.718
81678W        W48219   9.607  28.737   1.703
81679W        W48220  20.601  17.120  13.119
81680W        W48221  30.997  24.980   2.190
81681W        W48222  40.433  20.946   2.697
81682W        W48223  28.150  21.032  14.803
81683W        W48224  37.095  28.175  13.603
81684W        W48225   7.444  37.451  12.486
81685W        W48226  13.946  26.085   3.242
81686W        W48227  14.279  30.586   0.897
81687W        W48228  27.765   8.839   3.615
81688W        W48229  27.272  17.758   0.797
81689W        W48230  37.950   2.325  12.316
81690W        W48231  35.854  17.144  10.623
81691W        W48232   2.204  10.297  12.641
81692W        W48233   3.085  18.276  13.040
81693W        W48234  10.332   9.603  11.649
81694W        W48235  44.346  41.056   0.870
81695W        W48236  33.175  34.077   3.306
81696W        W48237  29.996  34.922   1.981
81697W        W48238  24.962  23.239   2.275
81698W        W48239   8.869   2.711  11.120
81699W        W48240  10.707  15.625  12.873
81700W        W48241   0.766  44.017   2.390
81701W        W48242  41.731  18.583  11.174
81702W        W48243  16.072  43.997   2.209
81703W        W48244  11.926   4.807   3.426
81704W        W48245  42.943   0.144   9.525
81705W        W48246  22.497  42.798  14.936
81706W        W48247  41.949  31.092   1.835
81707W        W48248  35.816  36.084  10.749
81708W        W48249   0.829  34.573   2.872
81709W        W48250  44.284  44.299   4.612
81710W        W48251  19.163  16.751  13.370
81711W        W48252  34.806   0.872   3.224
81712W        W48253  30.947  27.652  10.437
81713W        W48254   9.694  24.157   2.734
81714W        W48255  15.838  17.466  14.460
81715W        W48256  21.624  14.741  12.380
81716W        W48257  22.991  25.956   1.225
81717W        W48258  38.054  33.091   3.928
81718W        W48259  41.166  42.411  12.438
81719W        W48260  28.182   1.239   2.757
81720W        W48261  41.500  33.892   4.529
81721W        W48262  39.462   2.339   0.529
81722W        W48263  22.714  14.265  14.467
81723W        W48264  21.007   3.753  10.922
81724W        W48265  19.323  34.718  10.793
81725W        W48266  26.396  42.820  12.459
81726W        W48267  12.145  13.369  13.316
81727W        W48268  24.992  41.931  14.517
81728W        W48269  40.046  23.424   0.871
81729W        W48270   4.317  14.955   3.157
81730W        W48271  22.260  44.038   0.298
81731W        W48272  44.820   9.684  12.900
81732W        W48273  24.140  37.378   1.895
81733W        W48274  16.735  10.155   3.690
81734W        W48275  12.148  41.255  14.512
81735W        W48276  35.070  38.736   2.746
81736W        W48277  36.389  15.974  13.990
81737W        W48278  43.750   3.975   2.042
81738W        W48279   4.739  36.760   3.578
81739W        W48280  13.158  43.025   1.044
81740W        W48281  23.991  41.954   1.196
81741W        W48282   8.390  12.108  12.961
81742W        W48283  38.343  18.044   2.336
81743W        W48284  37.731  15.243   0.432
81744W        W48285   6.644  21.271  14.068
81745W        W48286  17.888  26.706   0.798
81746W        W48287  37.560  19.201  14.650
81747W        W48288  13.735  37.738  13.455
81748W        W48289  24.001  24.397   4.443
81749W        W48290  40.236  10.731  11.514
81750W        W48291  25.283  11.226   4.701
81751W        W48292  19.422  32.144  14.917
81752W        W48293  26.508   6.344  14.274
81753W        W48294  33.775  16.838  10.695
81754W        W48295   4.509  25.245  14.809
81755W        W48296  16.581  19.805   4.959
81756W        W48297   5.029  19.204  14.593
81757W        W48298  15.326   8.584   2.306
81758W        W48299  13.806   1.497  13.493
81759W        W48300  14.484  38.741   0.900
81760W        W48301  34.547  28.738  14.357
81761W        W48302  11.229  12.876  12.064
81762W        W48303  41.819  41.516   4.291
81763W        W48304  27.958  14.356  11.165
81764W        W48305  31.233   3.599   2.887
81765W        W48306   1.712   1.859  10.361
81766W        W48307  15.267   9.714   1.665
81767W        W48308  32.202  40.289   4.547
81768W        W48309  27.582  14.617   4.694
81769W        W48310   3.330   9.201   2.621
81770W        W48311  36.592  23.511  12.158
81771W        W48312  40.066  35.099   3.685
81772W        W48313  17.311   3.773   0.138
81773W        W48314  43.878  17.321  14.495
81774W        W48315  25.788   6.428  11.168
81775W        W48316  41.780  15.507  11.751
81776W        W48317   9.235   1.312  14.760
81777W        W48318  16.659  18.362   0.983
81778W        W48319  40.848  34.802   4.126
81779W        W48320  43.260  37.611  11.929
81780W        W48321  37.954  12.074   1.420
81781W        W48322  32.958  29.916  11.589
81782W        W48323  16.799  10.606  13.081
81783W        W48324  26.139  35.007   0.060
81784W        W48325  19.767  39.385   3.283
81785W        W48326  43.435  11.643  14.818
81786W        W48327  11.482  14.148   0.844
81787W        W48328  27.905   8.841  12.924
81788W        W48329  36.476  38.523   3.807
81789W        W48330  22.950  36.016   0.428
81790W        W48331  34.602  11.826  12.542
81791W        W48332   0.807   9.708  13.020
81792W        W48333  12.165  16.624  11.678
81793W        W48334  43.533  12.432   1.436
81794W        W48335  41.511  33.557   3.260
81795W        W48336  30.241  38.739   0.050
81796W        W48337   5.017   9.158  13.487
81797W        W48338   6.202  39.772   0.381
81798W        W48339  24.229  38.911  13.131
81799W        W48340  43.290  44.518   1.545
81800W        W48341  38.396   6.305  11.514
81801W        W48342  41.110  10.686  12.337
81802W        W48343  43.280  39.892  14.752
81803W        W48344   9.302  39.818   3.132
81804W        W48345  27.518   7.099  11.455
81805W        W48346  35.075  15.298  12.327
81806W        W48347   1.952  33.625   2.652
81807W        W48348   8.314  33.924  10.584
81808W        W48349  26.937  11.937  11.049
81809W        W48350  19.022  13.846  14.500
81810W        W48351  12.116  37.602   4.105
81811W        W48352  40.843  37.819   2.730
81812W        W48353   0.972   7.816  12.855
81813W        W48354   7.504  41.199  14.287
81814W        W48355  15.616  30.142  12.181
81815W        W48356  25.746  12.547   2.162
81816W        W48357  10.975  42.088  10.001
81817W        W48358  11.421  19.094   4.628
81818W        W48359  30.977  11.817  14.833
81819W        W48360  29.124  30.477  14.472
81820W        W48361  17.691  30.133  10.676
81821W        W48362  20.804  25.228   0.975
81822W        W48363  28.368   1.467  11.178
81823W        W48364  28.480  42.482   3.421
81824W        W48365  37.742  14.327  13.061
81825W        W48366   4.810  31.625  10.637
81826W        W48367  38.160  41.250   0.893
81827W        W48368  16.226  25.705  10.592
81828W        W48369  18.364  26.652   5.136
81829W        W48370  29.424   0.375  11.981
81830W        W48371  37.832  39.971   0.655
81831W        W48372  13.774  23.276   3.650
81832W        W48373   5.154  11.333   0.802
81833W        W48374  20.108  10.736   2.491
81834W        W48375  14.710  31.659   1.293
81835W        W48376  23.295   5.537  10.388
81836W        W48377  10.476  41.264  12.000
81837W        W48378   1.252  27.649  13.755
81838W        W48379  17.568  26.891   3.800
81839W        W48380  25.494  13.831   3.806
81840W        W48381  36.565  39.488   0.250
81841W        W48382  39.037   0.735   4.196
81842W        W48383  37.544  42.433  13.637
81843W        W48384  18.364  28.230   2.407
81844W        W48385   9.392  10.350   2.150
81845W        W48386   5.125  20.315  11.945
81846W        W48387  37.445   8.829   3.252
81847W        W48388  33.952   7.336   3.686
81848W        W48389   5.411  34.438  12.523
81849W        W48390  27.018  32.465  12.090
81850W        W48391  35.868  16.356   1.893
81851W        W48392  10.256   4.682   3.329
81852W        W48393  31.106  31.705  14.763
81853W        W48394  41.727  32.550  14.218
81854W        W48395  11.186  19.090  13.294
81855W        W48396  43.304   0.684   4.539
81856W        W48397   2.230  29.222  14.310
81857W        W48398   7.151  33.365   2.848
81858W        W48399  13.844   0.767  10.693
81859W        W48400  32.468  39.925   0.980
81860W        W48401  12.325  28.581  10.577
81861W        W48402  27.181  39.076  14.304
81862W        W48403  30.074  38.529   3.289
81863W        W48404  21.158  15.073   0.748
81864W        W48405  13.068  19.691  11.897
81865W        W48406  35.589  22.511  11.113
81866W        W48407  35.452  32.504   4.558
81867W        W48408  12.453  33.389  12.521
81868W        W48409  12.939  35.392  13.760
81869W        W48410   1.177  20.133   0.347
81870W        W48411  25.063  44.073  11.853
81871W        W48412  18.124  40.553   4.957
81872W        W48413   8.925  42.812  13.737
81873W        W48414   0.504  30.395  11.246
81874W        W48415  23.062   7.343  10.652
81875W        W48416  28.926  32.368  14.866
81876W        W48417   6.291   7.675  11.914
81877W        W48418  15.832   1.173   3.894
81878W        W48419  40.431  39.785   4.130
81879W        W48420  41.633  12.915   4.358
81880W        W48421  33.077  38.988  11.170
81881W        W48422  21.542  10.534   2.021
81882W        W48423   3.503  19.539   3.182
81883W        W48424  18.029  22.998   1.344
81884W        W48425   3.428  37.592  14.967
81885W        W48426  13.083  16.565   2.210
81886W        W48427  20.689   9.207  12.913
81887W        W48428  30.136  23.311  11.172
81888W        W48429  17.086  24.187  10.991
81889W        W48430  35.360   6.196  12.950
81890W        W48431  34.931  34.580   2.684
81891W        W48432  32.855  25.413  14.484
81892W        W48433   2.255  18.835  14.636
81893W        W48434  33.168  37.227   9.893
81894W        W48435   6.714  22.633  13.749
81895W        W48436  27.749  26.098   3.340
81896W        W48437  11.093  18.643  13.548
81897W        W48438   1.441  23.271  12.366
81898W        W48439  36.059  25.510   0.394
81899W        W48440  40.673  23.896  10.911
81900W        W48441  15.058   0.009   0.720
81901W        W48442   5.915   7.145   2.323
81902W        W48443   9.018  43.393  14.514
81903W        W48444  32.153   2.189  13.973
81904W        W48445  44.045  42.348   2.853
81905W        W48446   9.736  36.790  13.870
81906W        W48447  21.439   1.227   1.965
81907W        W48448  13.305  16.278   0.404
81908W        W48449  27.968  34.407   2.690
81909W        W48450  19.568  12.387   2.886
81910W        W48451  16.081  28.988   1.686
81911W        W48452  40.617   1.714  13.014
81912W        W48453  44.672   8.572  12.041
81913W        W48454  37.107  25.084   1.201
81914W        W48455   2.366  17.025   3.142
81915W        W48456  18.600  42.896  14.434
81916W        W48457  18.805  37.047   4.257
81917W        W48458  38.035   0.493   0.404
81918W        W48459  28.202  32.073   2.195
81919W        W48460  44.502  21.037   4.269
81920W        W48461  28.507  41.799  13.460
81921W        W48462  26.536   2.777   0.319
81922W        W48463  31.558  11.613  12.174
81923W        W48464  33.045  26.434  10.843
81924W        W48465  21.813  13.749  14.185
81925W        W48466   4.309  40.252  13.978
81926W        W48467  12.356  40.971   2.071
81927W        W48468  20.558   5.393   2.508
81928W        W48469  19.252  32.993   1.173
81929W        W48470   9.829  14.599  11.731
81930W        W48471  19.323   7.852   0.161
81931W        W48472  23.717  20.620  14.015
81932W        W48473  39.501  26.607   5.247
81933W        W48474  39.514   5.131  14.748
81934W        W48475   7.633   0.952   3.696
81935W        W48476   1.809  26.235  12.485
81936W        W48477   1.299  43.917  11.628
81937W        W48478  24.067  25.714   0.824
81938W        W48479  16.510  10.278  10.710
81939W        W48480  43.071   8.343   3.723
81940W        W48481  16.393  16.327   1.371
81941W        W48482   4.790   7.555  14.241
81942W        W48483  24.757   2.493  10.664
81943W        W48484  13.001   2.922  12.227
81944W        W48485  14.665  19.196   2.741
81945W        W48486   0.792  22.670  14.807
81946W        W48487   4.013  41.249  11.751
81947W        W48488   3.758   7.639   2.418
81948W        W48489  20.147  22.521   1.015
81949W        W48490  42.458  13.597  13.210
81950W        W48491   3.884  42.918   2.190
81951W        W48492  36.615   7.758  13.542
81952W        W48493  23.519   7.418   3.747
81953W        W48494  28.481  44.306  12.551
81954W        W48495   1.485  40.418   0.878
81955W        W48496  32.054  28.257   0.931
81956W        W48497   7.847  17.777  12.966
81957W        W48498  16.057   2.295   2.782
81958W        W48499   4.865  28.978   2.595
81959W        W48500   9.185  36.960  13.874
81960W        W48501  35.260  16.833  14.223
81961W        W48502  38.080   9.362   2.297
81962W        W48503  34.140  34.880   2.343
81963W        W48504  40.371   8.971  14.672
81964W        W48505  15.121  17.857  10.571
81965W        W48506   1.659   0.926   4.480
81966W        W48507   9.277   2.316  10.699
81967W        W48508  16.518  15.664  12.571
81968W        W48509  18.859  14.820   1.214
81969W        W48510   2.505  16.172  10.880
81970W        W48511   1.987  29.695   2.361
81971W        W48512   1.848  21.269   4.053
81972W        W48513  39.154  23.749  12.532
81973W        W48514  29.011  22.828  13.993
81974W        W48515  42.974  27.404  10.686
81975W        W48516   9.049  26.511  14.734
81976W        W48517  17.654  44.249  12.655
81977W        W48518  44.931  13.672  12.370
81978W        W48519  21.057  24.579   4.683
81979W        W48520  36.590  43.977   2.379
81980W        W48521  38.477  18.798  12.060
81981W        W48522  37.051   2.005  13.859
81982W        W48523   9.558   3.092   3.298
81983W        W48524  11.220  43.354  11.924
81984W        W48525   5.299  44.921   0.746
81985W        W48526  43.235  33.320  13.528
81986W        W48527  19.352  24.174  12.066
81987W        W48528  43.247   5.399  13.245
81988W        W48529  12.478  35.276  14.786
81989W        W48530  30.021  29.647  10.790
81990W        W48531  15.242  24.621   3.832
81991W        W48532  26.648  36.803   4.177
81992W        W48533   4.496  35.923   0.359
81993W        W48534  33.512   3.102  11.575
81994W        W48535   7.432  30.806  14.377
81995W        W48536  14.339  39.618   0.943
81996W        W48537  11.367  31.735   1.808
81997W        W48538  17.094  42.509   2.860
81998W        W48539   9.466  44.418   4.312
81999W        W48540   0.263  11.327  10.375
82000W        W48541   9.930  22.210  13.855
82001W        W48542  21.910  44.309   1.656
82002W        W48543  22.480  23.129  14.800
82003W        W48544  34.101  30.614   3.335
82004W        W48545  43.306  39.896   3.554
82005W        W48546  35.107  11.919   2.200
82006W        W48547  14.653  18.062  14.470
82007W        W48548  30.718  27.118  13.924
82008W        W48549  11.419  10.911   1.762
82009W        W48550  35.134  11.722   2.666
82010W        W48551  20.712  12.083  10.794
82011W        W48552  24.085  30.764   3.417
82012W        W48553   5.266   7.152  12.504
82013W        W48554  36.325  29.543  12.971
82014W        W48555  13.030  19.788   0.676
82015W        W48556   9.970  14.321   2.983
82016W        W48557  39.062  11.153  11.985
82017W        W48558  19.218  32.409  12.437
82018W        W48559  17.617   5.486  11.153
82019W        W48560  10.226  29.296  11.326
82020W        W48561  30.072   9.845  11.143
82021W        W48562  37.804  36.869   1.007
82022W        W48563  28.279  30.579  14.438
82023W        W48564  19.592  29.130  12.357
82024W        W48565  31.071   0.074  12.901
82025W        W48566   2.086  27.959   1.374
82026W        W48567  11.848   0.565   1.917
82027W        W48568  37.030  37.785  14.685
82028W        W48569  23.213  10.144  11.099
82029W        W48570  10.947  21.169   2.352
82030W        W48571  21.538   1.555  14.025
82031W        W48572  14.026   8.853   2.827
82032W        W48573  28.600   3.322  12.364
82033W        W48574  43.310  43.753  13.004
82034W        W48575  33.953  21.084  11.454
82035W        W48576  44.878  11.623  14.349
82036W        W48577  36.290  11.591  14.307
82037W        W48578  27.974  39.741   4.623
82038W        W48579  22.179  29.349   2.156
82039W        W48580  13.235  37.029   3.702
82040W        W48581  39.230  23.730  13.960
82041W        W48582  26.982   3.053   1.211
82042W        W48583  40.826  18.301   3.334
82043W        W48584  28.519  35.283  14.901
82044W        W48585  43.298   7.316  11.066
82045W        W48586   5.745  19.560  12.362
82046W        W48587  10.317  33.104  14.938
82047W        W48588  14.397  42.346   1.284
82048W        W48589   6.788  44.894   0.679
82049W        W48590  14.346   8.475  10.966
82050W        W48591  12.959  20.146  13.991
82051W        W48592  14.362  44.016   4.215
82052W        W48593  23.456  14.177   3.354
82053W        W48594  23.154  26.128   2.634
82054W        W48595   4.824  33.779  10.745
82055W        W48596  21.035  33.427   2.223
82056W        W48597  44.945   0.721   1.421
82057W        W48598  18.601  12.114   4.999
82058W        W48599  10.072   0.070  12.465
82059W        W48600  13.611  10.257   0.902
82060W        W48601  22.734  27.212  13.506
82061W        W48602   9.909  20.136  14.498
82062W        W48603  39.501  26.834  13.604
82063W        W48604   0.257  10.813  11.147
82064W        W48605  35.036  41.359  12.634
82065W        W48606  29.152  34.375  13.557
82066W        W48607  10.672   6.396  14.014
82067W        W48608  25.082   2.218   3.926
82068W        W48609  10.320  34.606   2.277
82069W        W48610  30.853  36.501  10.833
82070W        W48611   3.221  41.089   0.728
82071W        W48612  25.692  44.360   1.980
82072W        W48613  17.299  21.305   4.133
82073W        W48614   4.401   4.939  14.935
82074W        W48615  30.418  28.087   0.772
82075W        W48616   6.811  38.501  14.057
82076W        W48617  28.601  42.014   3.610
82077W        W48618   2.635  40.615  11.086
82078W        W48619   1.471  24.598   1.917
82079W        W48620  26.174  15.664   4.799
82080W        W48621  37.344   3.204   4.586
82081W        W48622  40.284  23.567  10.777
82082W        W48623   9.769  19.923   2.804
82083W        W48624   4.213   3.894  11.014
82084W        W48625  11.245  32.326   2.696
82085W        W48626  11.794  18.817  13.853
82086W        W48627  19.762  27.113  12.984
82087W        W48628  35.923  31.906  14.734
82088W        W48629  35.592  16.628  11.371
82089W        W48630  19.521   9.281   0.905
82090W        W48631  27.183  22.291  10.194
82091W        W48632  16.353  17.096   0.597
82092W        W48633   5.852  25.308   0.412
82093W        W48634  44.764   7.197   2.873
82094W        W48635  21.294  36.711  13.896
82095W        W48636  30.900  43.554  13.038
82096W        W48637   4.377  22.199  13.041
82097W        W48638  37.571   9.246  13.875
82098W        W48639  17.178  38.373  12.404
82099W        W48640  25.724  36.500   1.214
82100W        W48641  19.566  36.965  12.590
82101W        W48642  37.461  28.467  10.717
82102W        W48643  17.618  35.479   3.668
82103W        W48644  18.615  14.083  14.243
82104W        W48645   5.293  42.097   2.768
82105W        W48646  33.436  20.681   3.200
82106W        W48647  19.474  22.192   2.908
82107W        W48648  17.719  18.506  13.551
82108W        W48649  27.656  11.306  11.151
82109W        W48650  39.616  32.497  11.469
82110W        W48651  12.784   9.754   2.559
82111W        W48652  10.844  22.717   3.832
82112W        W48653  37.054  13.563  12.167
82113W        W48654   8.167  25.542   1.929
82114W        W48655  43.358  41.274  12.922
82115W        W48656  22.536  22.511  12.132
82116W        W48657  38.612  43.665   0.942
82117W        W48658   5.282  21.921   3.690
82118W        W48659   2.293   9.969  10.406
82119W        W48660  14.752  10.537  14.594
82120W        W48661  19.425  14.179  14.661
82121W        W48662  21.015  33.813   0.507
82122W        W48663  22.474  26.453  12.503
82123W        W48664  26.207  14.253  11.577
82124W        W48665  36.299  39.845   1.502
82125W        W48666  34.215   0.737   2.371
82126W        W48667  40.964  28.534   4.574
82127W        W48668  43.375  34.166   4.103
82128W        W48669  21.795  39.830   2.821
82129W        W48670  23.019  28.711  14.574
82130W        W48671   4.623   2.799  10.227
82131W        W48672  30.677   4.806  10.576
82132W        W48673  39.794  36.332  13.890
82133W        W48674  19.109   0.966  14.916
82134W        W48675  25.195   7.942   0.750
82135W        W48676  33.118   9.841  13.088
82136W        W48677  21.107  34.605   0.862
82137W        W48678   3.369  44.518  14.566
82138W        W48679  41.853   7.445   0.243
82139W        W48680  23.917  28.626  14.844
82140W        W48681  24.183  27.621   2.856
82141W        W48682  44.440  35.443  10.711
82142W        W48683   4.917  25.624   2.807
82143W        W48684  33.894   3.837  13.081
82144W        W48685   1.685  20.129   0.320
82145W        W48686  32.721   0.303  12.085
82146W        W48687  23.773  16.646  11.533
82147W        W48688  10.305  20.649   2.308
82148W        W48689   5.152  28.984   1.733
82149W        W48690  23.934   4.295   4.484
82150W        W48691  12.113  16.186  12.645
82151W        W48692  34.287   2.683  10.841
82152W        W48693   9.875  22.530   1.305
82153W        W48694  30.591  29.625   0.208
82154W        W48695   6.777  13.729  13.485
82155W        W48696  39.574  36.420  14.820
82156W        W48697  18.284  14.595   1.505
82157W        W48698  38.504  17.430  10.425
82158W        W48699  24.500  16.283   4.597
82159W        W48700  36.682   2.258  12.012
82160W        W48701  37.067  17.072   4.191
82161W        W48702  28.517  35.793  14.925
82162W        W48703  23.255  39.923   3.193
82163W        W48704  26.638  42.548  10.684
82164W        W48705   0.842   5.091   1.838
82165W        W48706  25.137  34.216  11.030
82166W        W48707  28.258  16.089   2.249
82167W        W48708   3.751  15.732   3.710
82168W        W48709  39.299  36.828   0.039
82169W        W48710   2.623  13.693   3.657
82170W        W48711  26.990  24.560   2.771
82171W        W48712  43.540  14.650  12.909
82172W        W48713  15.340  11.127   2.673
82173W        W48714  34.722  17.110   3.988
82174W        W48715  37.485   9.357   4.831
82175W        W48716   9.884  22.250   1.766
82176W        W48717  32.316  39.846  12.056
82177W        W48718   1.884  32.439  14.901
82178W        W48719  29.775  22.482   3.846
82179W        W48720  13.670   4.190   3.348
82180W        W48721  33.377  32.193  11.977
82181W        W48722  32.504  33.316  11.275
82182W        W48723  43.157  33.952  12.414
82183W        W48724  32.430  20.784  12.803
82184W        W48725  34.370  13.787   3.742
82185W        W48726   7.643  19.094  13.784
82186W        W48727   8.591  33.148   4.433
82187W        W48728  27.488  21.477   2.136
82188W        W48729   8.126  30.391  11.497
82189W        W48730   5.668  13.336  11.580
82190W        W48731  22.599  39.488   2.636
82191W        W48732  17.701   0.198   0.952
82192W        W48733  15.171  10.341  10.448
82193W        W48734  15.358  44.644  11.614
82194W        W48735   8.969   3.924   1.145
82195W        W48736  35.459   4.817   2.384
82196W        W48737   6.416   3.131  14.505
82197W        W48738   0.976  26.961  14.413
82198W        W48739   9.807  11.370   4.476
82199W        W48740  25.121  27.215   2.578
82200W        W48741  28.698  31.498  12.358
82201W        W48742  21.715  24.816   4.867
82202W        W48743   7.984  25.717  13.867
82203W        W48744  37.421  22.724   2.013
82204W        W48745  24.157  37.759  13.494
82205W        W48746  20.543   8.352   4.662
82206W        W48747  36.977   2.269   5.602
82207W        W48748  40.078  39.034   3.260
82208W        W48749  15.896   3.708   5.137
82209W        W48750   5.028  10.759   4.605
82210W        W48751  33.762  16.703   0.215
82211W        W48752   7.704  17.096  10.325
82212W        W48753  16.565  20.702  11.684
82213W        W48754  22.782  18.889   1.856
82214W        W48755  16.152  11.078  14.624
82215W        W48756  41.074  37.294   0.076
82216W        W48757  11.847  35.138  10.748
82217W        W48758  23.959  19.859  12.803
82218W        W48759  12.597  16.064  12.570
82219W        W48760   1.363  16.591  11.548
82220W        W48761  13.393  30.984  13.068
82221W        W48762  16.678  18.684  10.789
82222W        W48763   4.224  15.360  12.955
82223W        W48764  17.378  29.056   2.785
82224W        W48765  33.620  24.499   2.720
82225W        W48766  15.759   0.299  10.704
82226W        W48767   9.785  44.510  13.424
82227W        W48768   1.803  21.682  11.947
82228W        W48769   5.934  12.901  13.336
82229W        W48770  22.684  18.519   0.262
82230W        W48771  42.239   4.448   1.070
82231W        W48772   3.531  21.277   3.464
82232W        W48773   1.435   6.387  10.662
82233W        W48774   4.532  12.707  13.110
82234W        W48775  20.778  32.328   4.412
82235W        W48776  25.664  28.223   4.147
82236W        W48777  28.484  34.777  14.802
82237W        W48778  42.486  44.041  11.394
82238W        W48779  42.048  38.135  11.934
82239W        W48780  42.262   4.952   2.806
82240W        W48781  18.672  29.047  12.545
82241W        W48782   9.408  17.854  11.951
82242W        W48783  10.429   9.761   0.638
82243W        W48784  27.512   9.683  14.863
82244W        W48785  12.029  24.129  12.854
82245W        W48786   5.882  41.447  14.299
82246W        W48787  25.714  26.634   4.059
82247W        W48788  36.926  35.783   3.921
82248W        W48789  17.213  32.382  13.577
82249W        W48790  16.848  33.102   1.179
82250W        W48791   6.675  30.577   2.858
82251W        W48792   4.300  26.533   1.385
82252W        W48793  32.989  13.071   0.281
82253W        W48794   9.149  13.637   3.320
82254W        W48795   1.439  30.556  10.424
82255W        W48796  17.663  21.693  11.025
82256W        W48797  37.176   5.663  13.066
82257W        W48798   3.829  43.698  10.643
82258W        W48799  44.959  38.581   4.506
82259W        W48800  23.661  24.799  13.631
82260W        W48801   2.634  25.200   2.102
82261W        W48802  32.539   8.570   1.783
82262W        W48803  24.000  12.569   1.670
82263W        W48804  34.020  36.491   2.976
82264W        W48805   4.777  22.625   9.937
82265W        W48806  18.088  15.736  11.842
82266W        W48807  20.741   3.506  11.275
82267W        W48808  15.204  30.203  11.498
82268W        W48809   3.765  14.755   1.940
82269W        W48810   7.262  42.785  13.618
82270W        W48811  31.509   3.593   5.358
82271W        W48812  26.142  30.349  10.718
82272W        W48813  43.391   0.825   0.938
82273W        W48814  28.507  42.047   0.902
82274W        W48815  44.493  21.018  12.822
82275W        W48816  18.107  29.530   4.342
82276W        W48817  20.770  23.713   1.695
82277W        W48818  29.523  40.611   3.790
82278W        W48819  44.737  20.717  12.027
82279W        W48820   6.228  38.763   0.301
82280W        W48821  10.715  44.186   3.887
82281W        W48822  43.730   1.292  11.448
82282W        W48823  21.713  14.330  13.016
82283W        W48824  14.084  18.221   2.147
82284W        W48825  21.679   9.930  11.692
82285W        W48826  38.704  28.664   2.612
82286W        W48827  14.934  23.754   0.891
82287W        W48828  26.120  39.449   1.225
82288W        W48829  32.879  16.197  13.368
82289W        W48830   2.855  30.128   2.225
82290W        W48831   8.889  15.150   4.600
82291W        W48832   2.829   7.817  12.509
82292W        W48833  13.778  39.289  13.486
82293W        W48834   8.026   9.345  10.718
82294W        W48835  36.335  23.133  10.922
82295W        W48836   6.662  41.373  14.779
82296W        W48837   4.359  43.804   2.452
82297W        W48838   5.637  14.334   1.884
82298W        W48839  40.515  18.145   3.703
82299W        W48840  23.136  36.616  13.965
82300W        W48841   3.088  29.365  12.840
82301W        W48842  13.923  38.525   0.220
82302W        W48843  20.304   4.291  13.921
82303W        W48844  34.909   1.487  13.003
82304W        W48845  23.954   6.294  12.351
82305W        W48846   6.394  40.573   2.649
82306W        W48847  16.824  13.293  13.431
82307W        W48848  15.714  24.922   1.848
82308W        W48849   0.771  22.701   4.616
82309W        W48850  27.533  37.599   4.138
82310W        W48851  40.237   2.993   3.964
82311W        W48852   7.024  28.408  11.145
82312W        W48853  35.637  19.364   2.411
82313W        W48854  13.327  17.665   4.625
82314W        W48855   3.808   9.158   4.725
82315W        W48856  35.620  11.161  11.607
82316W        W48857  34.008  27.146  12.348
82317W        W48858   2.903  15.342   3.915
82318W        W48859  11.526  25.083   0.055
82319W        W48860  43.493   6.482   0.836
82320W        W48861  17.713  19.524  13.314
82321W        W48862  11.004  23.452  11.754
82322W        W48863  27.897  38.526  12.498
82323W        W48864   0.316  35.668   1.605
82324W        W48865   4.459   3.781   1.265
82325W        W48866  15.204  29.932   0.756
82326W        W48867  12.122   6.897  13.864
82327W        W48868   9.855  18.506   0.954
82328W        W48869  14.935  27.015  12.773
82329W        W48870  32.495  40.257  11.161
82330W        W48871   3.594  12.283  10.900
82331W        W48872   1.473  41.524  13.848
82332W        W48873  37.112  22.751  13.987
82333W        W48874   4.221  31.381   2.677
82334W        W48875  32.929   7.353   2.948
82335W        W48876   8.438   6.477  12.424
82336W        W48877  16.342  43.035   3.004
82337W        W48878   8.972   8.137   0.149
82338W        W48879   3.360   6.664   0.457
82339W        W48880  15.163  13.489   3.876
82340W        W48881  34.332   3.951   1.747
82341W        W48882  28.625  33.330  14.982
82342W        W48883  11.237  31.224  12.723
82343W        W48884  44.037   6.235  10.451
82344W        W48885   7.869  22.476  11.142
82345W        W48886  26.044  39.044   1.533
82346W        W48887  22.377  32.513  11.812
82347W        W48888  32.167  18.602   1.250
82348W        W48889  23.359  15.354   2.818
82349W        W48890  35.573  22.021  14.878
82350W        W48891  31.058  12.571  13.785
82351W        W48892   4.294  29.911   4.190
82352W        W48893   7.865  35.513   3.971
82353W        W48894  19.317   3.463  12.871
82354W        W48895  28.640  18.271   5.025
82355W        W48896  14.148  12.260  10.639
82356W        W48897  21.285  22.087   3.612
82357W        W48898  28.628  23.588   1.452
82358W        W48899  32.395  24.124  12.917
82359W        W48900  44.878  16.218   1.385
82360W        W48901  33.494  43.252   4.100
82361W        W48902  37.105  10.886   1.131
82362W        W48903  44.374   9.931  11.122
82363W        W48904  13.731  12.988  14.121
82364W        W48905   0.806  28.186   3.274
82365W        W48906  31.841  20.039  11.714
82366W        W48907  34.311  37.808  10.682
82367W        W48908  11.348   8.164   2.324
82368W        W48909  37.197   5.139   3.995
82369W        W48910  36.427  43.810   0.256
82370W        W48911   3.554  23.607   0.868
82371W        W48912   1.858   8.027   2.488
82372W        W48913  44.629  13.059  14.057
82373W        W48914  36.593  24.347  11.960
82374W        W48915  26.360   6.792  12.037
82375W        W48916  36.029   4.393  12.988
82376W        W48917  18.083  12.098  10.744
82377W        W48918  14.572  41.019   2.297
82378W        W48919  35.327  27.803  14.846
82379W        W48920  10.934  32.376  14.452
82380W        W48921  30.821   9.373  14.816
82381W        W48922  28.589  31.601   1.459
82382W        W48923  11.772  38.266   0.279
82383W        W48924   4.757  11.195  12.417
82384W        W48925   4.845  23.884   9.832
82385W        W48926   4.109  27.247   2.385
82386W        W48927  11.273  22.796   3.548
82387W        W48928   7.109  17.204   4.468
82388W        W48929  23.704  31.897   1.727
82389W        W48930  34.421  29.747   2.462
82390W        W48931   7.935  22.026   0.538
82391W        W48932  39.489   4.460   0.516
82392W        W48933  39.885  35.824  14.023
82393W        W48934  25.241  42.199   3.202
82394W        W48935  32.533  24.888   1.250
82395W        W48936  35.876   0.771   4.070
82396W        W48937  34.413  30.248  14.015
82397W        W48938  28.870   8.219   1.754
82398W        W48939  24.239  33.021  13.729
82399W        W48940  19.004  40.168   3.156
82400W        W48941  29.013  21.821  10.866
82401W        W48942   6.222  35.965   4.550
82402W        W48943  36.223  16.602  10.993
82403W        W48944  32.499  23.325   4.579
82404W        W48945   4.855  12.098  13.677
82405W        W48946  12.911  10.325   4.343
82406W        W48947  13.155  38.839   0.851
82407W        W48948   8.804  31.169  10.544
82408W        W48949   1.060   8.465  14.049
82409W        W48950  28.566  35.672   3.815
82410W        W48951  13.262  16.034   2.867
82411W        W48952  35.523   4.818   1.305
82412W        W48953  43.977  28.111  14.927
82413W        W48954  13.218   4.505   4.691
82414W        W48955  11.249  28.698   4.223
82415W        W48956  42.472  30.400  12.900
82416W        W48957  29.273  26.999  13.438
82417W        W48958  16.151  42.795  13.964
82418W        W48959  10.714  18.617  11.554
82419W        W48960   7.050   0.433  10.765
82420W        W48961  40.101  34.193   0.551
82421W        W48962  31.948   1.255  11.236
82422W        W48963  21.797  24.475  10.786
82423W        W48964  30.929   1.503   1.359
82424W        W48965   8.555  35.391   1.207
82425W        W48966   4.495  22.678  11.733
82426W        W48967  12.383   0.358   2.839
82427W        W48968  40.139   3.814   1.852
82428W        W48969  30.842  32.257   5.023
82429W        W48970   2.439   4.130   4.095
82430W        W48971  42.860  41.500   3.347
82431W        W48972   3.190   3.902   1.794
82432W        W48973  24.191  34.501   0.010
82433W        W48974  30.248  41.136  13.285
82434W        W48975   7.654  20.268   3.841
82435W        W48976   6.955  24.041  14.336
82436W        W48977  40.194   0.977  10.399
82437W        W48978  13.974   7.282  14.248
82438W        W48979  16.139   9.619   2.391
82439W        W48980  12.578  22.482   1.706
82440W        W48981   3.028  17.136   3.809
82441W        W48982  42.816  40.500   3.172
82442W        W48983  36.511  14.825   2.681
82443W        W48984  19.634  30.048   2.638
82444W        W48985  12.597   8.251  12.503
82445W        W48986   2.297  32.649   1.234
82446W        W48987  39.452  37.496  11.992
82447W        W48988  35.589  13.084   0.891
82448W        W48989   7.594   7.751   1.931
82449W        W48990   1.255   5.894   1.345
82450W        W48991  39.484   4.541   1.522
82451W        W48992   3.769   3.362  12.128
82452W        W48993  28.151  30.771  12.442
82453W        W48994  28.381   6.797  11.631
82454W        W48995   2.799  32.613  12.672
82455W        W48996   8.929  38.540   0.443
82456W        W48997  11.415  10.250   4.497
82457W        W48998  27.045   9.748  13.419
82458W        W48999   7.656   8.537   0.199
82459W        W49000  34.579  40.334   3.314
82460W        W49001   0.411  24.257   1.245
82461W        W49002  42.073  42.951   3.643
82462W        W49003  17.748  37.547  10.829
82463W        W49004  21.219  38.493  10.779
82464W        W49005  28.094  39.362   2.290
82465W        W49006  20.871   2.265  14.260
82466W        W49007  15.822  10.285  13.264
82467W        W49008  44.375  11.590   4.679
82468W        W49009  27.589  29.831   3.668
82469W        W49010  28.525  21.159  10.848
82470W        W49011  27.373  44.312  14.399
82471W        W49012  33.783  14.334   2.339
82472W        W49013  15.367  21.747   4.555
82473W        W49014  15.147   4.867  14.008
82474W        W49015   8.143  40.859  13.854
82475W        W49016  31.455   0.462  10.525
82476W        W49017  28.968  22.543  14.414
82477W        W49018  40.743   3.478   2.911
82478W        W49019  35.055   6.753  10.653
82479W        W49020   6.165  29.165  12.842
82480W        W49021  35.770  25.935  11.889
82481W        W49022  34.613  37.658  10.299
82482W        W49023  10.730  15.821  14.888
82483W        W49024  14.771   7.287   0.885
82484W        W49025   8.899  16.874   0.398
82485W        W49026  35.435   9.176  12.408
82486W        W49027   3.831  28.512  11.663
82487W        W49028  13.081  26.947   4.615
82488W        W49029  42.849  20.229  13.560
82489W        W49030  39.122  41.291   3.898
82490W        W49031  13.805  14.259   4.752
82491W        W49032  29.913  40.943  14.874
82492W        W49033  38.336  33.557  11.545
82493W        W49034  24.007  11.204  11.582
82494W        W49035  11.200  32.014   2.248
82495W        W49036  23.577  43.496   0.800
82496W        W49037  19.948  42.908   4.212
82497W        W49038   4.909  16.286   0.193
82498W        W49039  14.919  43.870  11.971
82499W        W49040  16.075   3.596   2.811
82500W        W49041   5.329  21.782   0.498
82501W        W49042  43.243   9.912   3.300
82502W        W49043  24.145  26.059  11.226
82503W        W49044  26.627   4.242   3.805
82504W        W49045  37.680  42.860   4.343
82505W        W49046  15.127  12.800   1.430
82506W        W49047  33.291   6.318   0.253
82507W        W49048  35.641  10.037   2.345
82508W        W49049   7.142  43.903  13.920
82509W        W49050  10.375   5.355  13.888
82510W        W49051  27.105  43.504   2.373
82511W        W49052  31.435  44.938  10.567
82512W        W49053  37.952  20.723   0.276
82513W        W49054  36.341  23.996  14.906
82514W        W49055  39.990  23.684   4.912
82515W        W49056   9.206  31.358   2.506
82516W        W49057   5.654  41.907   0.460
82517W        W49058   9.645  33.983  12.449
82518W        W49059   0.863  42.806  10.208
82519W        W49060  30.405  24.536   1.654
82520W        W49061  28.034  26.566   1.395
82521W        W49062  15.138  32.706   4.011
82522W        W49063  10.387  21.933  13.769
82523W        W49064  44.277   3.110  14.353
82524W        W49065   1.357  18.730   0.078
82525W        W49066  41.406   0.817  11.192
82526W        W49067  29.601  42.402  13.829
82527W        W49068   5.824  30.340   3.357
82528W        W49069   8.801  11.851  14.888
82529W        W49070  14.332  42.346  13.333
82530W        W49071   5.938  23.045  13.804
82531W        W49072  10.359  23.213   2.026
82532W        W49073  11.008  35.771   5.007
82533W        W49074  25.352   2.822   2.253
82534W        W49075  23.662  40.254  12.231
82535W        W49076  28.115  12.146  10.751
82536W        W49077  38.918  32.570  11.928
82537W        W49078   5.445  23.488   0.378
82538W        W49079  32.037  36.336  12.943
82539W        W49080   7.986  29.078  14.921
82540W        W49081  13.378  29.427  10.957
82541W        W49082   0.543   6.853  12.927
82542W        W49083  28.499  27.730   2.128
82543W        W49084  33.381  11.849  10.956
82544W        W49085  31.474  36.433   4.877
82545W        W49086   5.936  24.370   2.453
82546W        W49087  32.942  18.554  14.835
82547W        W49088  27.179   1.778  13.297
82548W        W49089  42.274  39.404   2.722
82549W        W49090  26.068  23.930  13.705
82550W        W49091  13.878  14.457  13.310
82551W        W49092  30.607  27.035  11.893
82552W        W49093  43.378  17.728   4.736
82553W        W49094  33.310   0.667  10.999
82554W        W49095  28.675   8.620  11.111
82555W        W49096  19.103  16.341  12.886
82556W        W49097  11.820   5.662  11.489
82557W        W49098  32.679  23.668   0.867
82558W        W49099   7.200  26.020  13.900
82559W        W49100  38.124  21.803   2.668
82560W        W49101  19.877  35.464   1.824
82561W        W49102  35.417  21.759   2.342
82562W        W49103  13.460  21.405  12.871
82563W        W49104  40.032  14.117  11.927
82564W        W49105  42.641  42.353   4.037
82565W        W49106  31.108  10.158   1.779
82566W        W49107  31.923  36.873   0.129
82567W        W49108   8.218  22.254  11.504
82568W        W49109  21.672   8.910  14.027
82569W        W49110  15.629  29.074  11.592
82570W        W49111  21.116   1.490   4.203
82571W        W49112  30.891   6.625   2.371
82572W        W49113  10.433  27.661  13.386
82573W        W49114  15.822  12.439  14.427
82574W        W49115  28.088  43.857  10.356
82575W        W49116  25.260  11.082  11.295
82576W        W49117  33.489  37.341  14.417
82577W        W49118  18.671  25.566   4.513
82578W        W49119  33.799  14.612  10.731
82579W        W49120  14.254   9.094  12.515
82580W        W49121   1.118  22.922   1.459
82581W        W49122  37.811  11.655   0.485
82582W        W49123  23.237  43.901  13.770
82583W        W49124  19.040  20.271  10.944
82584W        W49125  10.314   2.470   2.696
82585W        W49126  27.077  30.567  13.703
82586W        W49127  10.419  21.050  14.375
82587W        W49128  21.161  31.182  11.873
82588W        W49129  20.083   2.679   2.137
82589W        W49130   2.504  30.474  12.557
82590W        W49131   5.880  28.699   0.793
82591W        W49132  22.133  21.938   3.105
82592W        W49133  27.594  18.753   2.595
82593W        W49134  41.437  25.069  13.100
82594W        W49135  29.898  11.315  11.993
82595W        W49136  13.724   4.280   4.357
82596W        W49137  43.945  29.143   2.602
82597W        W49138  14.535  36.570   3.120
82598W        W49139  21.631  19.137  11.456
82599W        W49140  12.794  31.081   1.919
82600W        W49141  15.148   9.176   0.753
82601W        W49142  20.685  15.087  14.415
82602W        W49143  18.049  33.545  12.663
82603W        W49144   8.203  26.455  11.999
82604W        W49145   9.676  10.755   1.915
82605W        W49146  16.238   1.817   2.913
82606W        W49147  21.445  17.646  11.585
82607W        W49148  38.537  29.555  10.499
82608W        W49149  29.919  37.683  10.542
82609W        W49150  34.997   5.634  14.350
82610W        W49151  43.492  27.211   3.740
82611W        W49152  16.648  14.296   1.750
82612W        W49153  11.573   6.460   3.654
82613W        W49154  38.040   3.692   2.888
82614W        W49155  33.049  20.807   1.436
82615W        W49156  37.813   4.280  14.455
82616W        W49157  35.842  24.760  12.429
82617W        W49158  24.370   9.465   2.357
82618W        W49159   7.712  19.568   2.647
82619W        W49160  18.146   1.764  12.673
82620W        W49161   9.775  13.350  12.154
82621W        W49162   5.940   8.785  14.206
82622W        W49163   5.878  38.995  12.902
82623W        W49164  34.202  41.089   2.838
82624W        W49165  19.628   2.419   4.506
82625W        W49166   7.433  23.055   4.581
82626W        W49167  43.232  41.542   2.462
82627W        W49168   6.733  20.083  11.474
82628W        W49169  12.121   8.718   3.628
82629W        W49170  41.891   6.792   0.583
82630W        W49171   7.790  11.803  14.806
82631W        W49172  25.242  16.531  11.713
82632W        W49173  31.130  27.130  13.598
82633W        W49174  13.140  24.921  12.948
82634W        W49175   8.742  36.104  10.763
82635W        W49176   6.720  19.895   0.479
82636W        W49177  30.826   4.554   4.339
82637W        W49178  31.473  41.044   4.250
82638W        W49179  28.259  40.386   0.345
82639W        W49180  44.980  16.772   3.663
82640W        W49181  21.439  22.048   0.747
82641W        W49182   0.295   2.927   2.344
82642W        W49183  36.889  26.991  10.690
82643W        W49184   0.770   6.949   3.633
82644W        W49185   4.359  10.797   2.763
82645W        W49186   8.847  26.504   1.805
82646W        W49187  42.878  11.603   2.805
82647W        W49188  33.868  37.766   1.495
82648W        W49189  18.438  29.145   0.233
82649W        W49190  35.925  17.669  10.650
82650W        W49191  17.110  26.908   3.547
82651W        W49192   9.230  29.845   2.141
82652W        W49193   9.262   1.871   3.824
82653W        W49194   2.974  14.479  12.609
82654W        W49195   1.882  44.660  10.885
82655W        W49196  22.058  26.656  11.497
82656W        W49197  25.544  43.727  13.721
82657W        W49198  10.899   7.891  10.743
82658W        W49199  29.383  28.979  12.905
82659W        W49200  17.683  38.225   1.568
82660W        W49201  26.937   0.000  13.887
82661W        W49202  10.576  38.427   4.048
82662W        W49203   7.306  31.187   0.714
82663W        W49204  27.082   1.314   2.905
82664W        W49205  14.823  16.386   0.511
82665W        W49206   7.849  41.487  10.865
82666W        W49207   9.403  10.340   0.417
82667W        W49208  14.688   4.366   1.281
82668W        W49209  17.608  29.468  14.818
82669W        W49210   5.770   5.400  14.962
82670W        W49211   0.767  19.047   3.334
82671W        W49212  23.583  40.260  13.551
82672W        W49213   5.749   3.209   0.991
82673W        W49214  32.921   8.839   0.299
82674W        W49215  23.491  42.831   2.365
82675W        W49216  37.029   3.873   2.797
82676W        W49217  40.961  11.124  11.178
82677W        W49218  29.023  21.839  13.648
82678W        W49219  19.891   8.565  10.318
82679W        W49220  12.840  13.086   2.707
82680W        W49221  39.611   1.831  14.847
82681W        W49222  34.600  13.249   4.621
82682W        W49223  37.338  23.386  11.711
82683W        W49224  31.110  43.436   1.541
82684W        W49225  18.286   9.717   0.233
82685W        W49226  42.952   4.201   2.594
82686W        W49227  41.038  19.281  13.065
82687W        W49228   0.369  29.903  12.094
82688W        W49229  21.185  34.320  13.338
82689W        W49230   0.597  20.034  10.536
82690W        W49231   0.410  30.698   2.299
82691W        W49232   7.864   3.018  10.003
82692W        W49233   5.456  26.809   0.466
82693W        W49234   0.426  25.237   2.507
82694W        W49235  24.574   8.241  14.492
82695W        W49236   7.977  44.411  10.220
82696W        W49237  28.249  24.613  13.872
82697W        W49238   2.002  19.790   3.727
82698W        W49239  24.178  22.776  14.998
82699W        W49240   8.639  12.883   4.985
82700W        W49241  12.649  36.264  14.585
82701W        W49242  31.907  19.139   0.406
82702W        W49243  10.593  10.267  11.270
82703W        W49244  39.645  12.054  13.670
82704W        W49245  23.620   1.164  11.078
82705W        W49246  19.167   2.268   4.246
82706W        W49247  25.393  42.629  12.557
82707W        W49248   0.235  43.343   4.781
82708W        W49249   0.348  34.361  12.075
82709W        W49250  16.047  19.600   1.789
82710W        W49251   3.493  41.044  12.428
82711W        W49252  10.713  15.212   2.193
82712W        W49253  31.747  13.264  12.556
82713W        W49254  34.656   1.017   2.377
82714W        W49255  28.654  24.200   3.739
82715W        W49256  36.258  30.108   1.097
82716W        W49257  42.850  22.416   2.712
82717W        W49258  18.472  11.526  14.504
82718W        W49259  10.816  21.680   1.173
82719W        W49260  14.686  27.827  10.743
82720W        W49261  39.858   6.202  13.032
82721W        W49262  11.449   2.958  13.873
82722W        W49263  16.202  12.655  12.435
82723W        W49264  28.615  30.751   4.438
82724W        W49265  13.867  38.601   2.287
82725W        W49266  18.337  12.086  12.907
82726W        W49267   5.791  44.055  14.377
82727W        W49268   2.454   8.125   4.319
82728W        W49269  39.107   2.931   3.235
82729W        W49270  30.188  30.895  14.404
82730W        W49271  29.670   8.659  11.998
82731W        W49272  11.176  24.152  10.625
82732W        W49273   8.868  36.979   2.364
82733W        W49274  25.129   1.343   1.317
82734W        W49275  19.026  19.919   0.322
82735W        W49276  14.797  37.285  11.609
82736W        W49277  21.312  26.148   2.648
82737W        W49278  33.887  38.411   3.863
82738W        W49279   4.060  12.399  13.317
82739W        W49280  36.396  41.925  13.850
82740W        W49281  32.880  10.378   2.320
82741W        W49282  38.840   8.730   3.333
82742W        W49283  21.099  33.313   0.728
82743W        W49284  30.616  42.776  11.213
82744W        W49285  30.726  11.348  14.779
82745W        W49286  13.294  37.205  10.965
82746W        W49287  25.099  33.777  13.393
82747W        W49288  37.959   3.445  11.224
82748W        W49289   3.435  34.985   1.320
82749W        W49290  28.379  44.918   1.186
82750W        W49291  24.295  16.892   3.393
82751W        W49292  35.570  40.946   2.273
82752W        W49293  26.481  13.785  12.014
82753W        W49294  30.432  26.439   0.915
82754W        W49295  22.626  29.660   2.308
82755W        W49296  14.616  38.130   3.178
82756W        W49297   7.128   4.928   1.455
82757W        W49298  31.553  13.351   1.738
82758W        W49299  19.765  38.962   4.164
82759W        W49300  42.981  11.890   2.379
82760W        W49301  34.434  35.302   0.909
82761W        W49302  10.142  23.919   2.766
82762W        W49303  36.283  30.865  12.065
82763W        W49304   7.354  13.114  14.921
82764W        W49305  23.554  14.516   2.710
82765W        W49306  17.226   2.908  11.997
82766W        W49307   7.847  15.547   4.093
82767W        W49308  18.236  20.824   2.889
82768W        W49309  18.116  22.746   4.550
82769W        W49310  10.711   4.650   0.250
82770W        W49311  44.143  12.686  10.029
82771W        W49312  37.675   2.446  13.362
82772W        W49313  36.911  36.530   0.757
82773W        W49314   1.547  25.702  10.990
82774W        W49315  14.369  33.080  11.124
82775W        W49316  23.935  23.331   0.738
82776W        W49317  26.939   9.178   4.958
82777W        W49318   4.729  20.516   2.098
82778W        W49319  17.279  13.864   2.331
82779W        W49320  24.010   1.180   3.798
82780W        W49321  41.906  18.024   2.754
82781W        W49322   7.464   7.962  11.568
82782W        W49323  36.702  15.118   0.095
82783W        W49324  13.000  28.003   0.761
82784W        W49325   5.515  37.352  13.411
82785W        W49326  12.845  28.053   4.369
82786W        W49327  16.119  35.033  14.438
82787W        W49328  37.519  38.224  12.037
82788W        W49329  29.092  21.289   0.873
82789W        W49330  39.660  22.638   0.005
82790W        W49331   9.809  35.109  14.447
82791W        W49332  36.499  44.234  11.258
82792W        W49333  26.171  11.818  13.474
82793W        W49334  35.992  36.128  11.653
82794W        W49335   0.715   7.323  12.140
82795W        W49336  43.030  36.152  12.460
82796W        W49337  20.166  33.431   4.770
82797W        W49338  29.587  42.858   3.654
82798W        W49339  16.220  37.415  11.455
82799W        W49340  42.519  25.516  10.676
82800W        W49341   4.242  17.806   3.854
82801W        W49342  16.965  42.874   0.538
82802W        W49343  12.686  33.846   4.487
82803W        W49344   9.574  38.153   3.129
82804W        W49345  22.197   6.212  12.111
82805W        W49346  37.118  42.869  11.482
82806W        W49347  32.334  42.731   3.699
82807W        W49348   1.535  12.046  11.233
82808W        W49349  18.058  34.545   1.643
82809W        W49350  13.316  30.585   2.591
82810W        W49351  42.946  39.808   0.259
82811W        W49352  31.852  25.173   4.216
82812W        W49353  21.188  27.615  14.261
82813W        W49354  24.283  21.129  13.484
82814W        W49355  29.581  33.203   3.577
82815W        W49356   1.664  32.981  13.994
82816W        W49357  23.760   9.869   0.045
82817W        W49358  12.690  17.595  13.528
82818W        W49359  21.639  11.522   1.692
82819W        W49360  20.510  31.890  12.986
82820W        W49361  38.867  16.148  14.695
82821W        W49362  36.544  42.799   0.007
82822W        W49363  16.938  26.233   1.217
82823W        W49364  10.124  14.476  14.350
82824W        W49365  33.408  40.975  13.745
82825W        W49366  32.956  23.516   2.177
82826W        W49367  34.641   8.800   2.315
82827W        W49368  17.806  40.647   3.867
82828W        W49369  17.954  35.033  12.045
82829W        W49370   8.487   8.659   5.087
82830W        W49371  42.411  22.766  14.056
82831W        W49372  38.493   3.915   4.869
82832W        W49373  32.576  15.324   0.336
82833W        W49374  12.085  15.633  10.676
82834W        W49375  28.946   4.974  12.162
82835W        W49376  26.006   0.081   2.205
82836W        W49377  30.049  26.588  14.969
82837W        W49378  39.546  19.325  12.855
82838W        W49379   2.476  18.988  10.467
82839W        W49380  11.993  33.855  13.919
82840W        W49381   1.261  19.318   4.015
82841W        W49382  22.881  32.523  11.641
82842W        W49383   3.008  20.600   2.684
82843W        W49384  31.487  10.291   5.037
82844W        W49385  32.457  42.379   3.347
82845W        W49386  39.124  29.787   0.332
82846W        W49387  44.838  32.682   2.766
82847W        W49388  22.103   5.613  14.280
82848W        W49389  28.483  31.361   3.250
82849W        W49390  10.676  30.572  13.898
82850W        W49391  35.235   6.288  10.344
82851W        W49392  26.493  32.706  12.898
82852W        W49393  16.195  43.508   3.287
82853W        W49394   5.023  28.093   3.145
82854W        W49395   8.356   9.218   4.424
82855W        W49396  44.003   7.559  11.483
82856W        W49397  26.754  25.750  11.127
82857W        W49398  43.003  15.757   2.659
82858W        W49399  24.735  29.363  13.014
82859W        W49400  15.184  34.402   1.603
82860W        W49401  38.363  16.199  12.940
82861W        W49402  19.780  11.341   1.843
82862W        W49403  28.740  28.882   4.160
82863W        W49404   4.232  36.876   0.451
82864W        W49405  37.871  14.606   3.170
82865W        W49406  33.083  13.919  14.920
82866W        W49407   1.894  35.333  11.486
82867W        W49408   8.257   9.199   0.367
82868W        W49409   7.758  13.325   0.713
82869W        W49410  41.799  36.159   3.276
82870W        W49411  36.595  44.688  14.700
82871W        W49412  33.366  39.064   2.120
82872W        W49413  15.228  22.582  13.373
82873W        W49414  31.613  25.270   0.959
82874W        W49415  27.081  44.984   0.521
82875W        W49416  26.605  19.414  12.137
82876W        W49417   7.767  18.667  12.412
82877W        W49418  26.662  38.434   4.229
82878W        W49419  33.797   5.286  11.102
82879W        W49420  19.180   2.315   3.740
82880W        W49421  19.769  38.947   0.948
82881W        W49422  18.772  17.271   3.715
82882W        W49423   0.839  30.449   3.558
82883W        W49424  11.877  11.779   2.701
82884W        W49425   2.978  24.159  14.741
82885W        W49426  21.215  12.199  10.824
82886W        W49427   9.887  34.593  10.683
82887W        W49428  26.660  16.249  13.610
82888W        W49429  30.410  29.176   0.426
82889W        W49430  34.984  11.177   4.390
82890W        W49431  19.154  30.164  10.931
82891W        W49432  17.130  17.438  13.894
82892W        W49433  27.010  26.071  13.338
82893W        W49434  11.251  10.680   3.943
82894W        W49435  26.869  25.475  14.364
82895W        W49436  16.707  22.791  14.847
82896W        W49437  25.168   1.981   2.594
82897W        W49438  25.257  17.258   3.073
82898W        W49439  13.891  37.423  11.671
82899W        W49440  14.675  15.050   4.123
82900W        W49441  29.609  37.965   0.427
82901W        W49442  30.454  16.598   3.692
82902W        W49443  43.638  13.297  14.687
82903W        W49444  13.087   6.728  11.639
82904W        W49445  28.124  26.227   1.014
82905W        W49446   3.945  17.793  12.995
82906W        W49447  41.757  39.400  12.503
82907W        W49448  35.930  34.419  11.027
82908W        W49449  21.614  12.601   3.324
82909W        W49450  36.776  21.927   0.859
82910W        W49451  34.825   7.641   4.079
82911W        W49452  10.574  37.017  10.747
82912W        W49453  42.411  41.538  10.720
82913W        W49454   2.288  35.439   0.100
82914W        W49455  41.413  11.943   4.197
82915W        W49456   2.061  44.584  14.208
82916W        W49457  25.631   3.385  13.049
82917W        W49458  37.358  25.489  12.093
82918W        W49459   9.341  24.971   2.409
82919W        W49460  17.241  24.413  11.959
82920W        W49461  41.882  10.797  12.482
82921W        W49462  28.659  30.182  13.775
82922W        W49463  26.167  15.276  13.011
82923W        W49464   4.157  29.997  10.624
82924W        W49465   5.437  16.262  11.171
82925W        W49466   6.423  29.123   4.873
82926W        W49467  15.828  39.711  11.996
82927W        W49468  23.223  44.640  12.647
82928W        W49469  40.476  16.048  12.245
82929W        W49470  36.782  19.321   3.742
82930W        W49471   2.848  28.396  14.367
82931W        W49472  25.118  31.218  13.365
82932W        W49473  33.681  37.546  12.116
82933W        W49474  37.003  31.645  12.957
82934W        W49475  16.282  38.225   4.122
82935W        W49476   1.981  29.218   3.222
82936W        W49477  30.430  41.901   0.428
82937W        W49478   9.600  41.503  14.878
82938W        W49479   8.366   2.332  14.995
82939W        W49480  19.492  40.608  14.053
82940W        W49481  38.253  25.612   1.286
82941W        W49482  22.589  25.737  13.082
82942W        W49483  34.077   8.235  11.262
82943W        W49484   8.096  37.300  11.139
82944W        W49485  44.254  13.320  12.807
82945W        W49486  27.248  29.093   1.760
82946W        W49487  19.420   4.351  11.902
82947W        W49488  12.921  31.623   4.165
82948W        W49489  37.547   3.142   1.669
82949W        W49490  27.459  35.986  13.201
82950W        W49491  25.451  20.310  10.672
82951W        W49492   2.625  13.416   0.753
82952W        W49493  20.126  25.238   1.963
82953W        W49494  39.266   3.475  13.407
82954W        W49495  32.526  41.394   0.990
82955W        W49496  42.697   4.374   2.134
82956W        W49497   9.795  22.988  11.085
82957W        W49498  15.328   6.430   1.700
82958W        W49499  29.372  14.059   0.279
82959W        W49500   2.184   3.846  11.835
82960W        W49501   8.412  20.592  12.740
82961W        W49502  26.245  18.757   4.644
82962W        W49503  25.213  35.799   3.896
82963W        W49504   8.228  18.418  12.532
82964W        W49505   6.940  20.647  11.058
82965W        W49506   6.827  35.040   0.477
82966W        W49507  13.672  29.791  14.946
82967W        W49508   5.892  22.670   0.252
82968W        W49509  22.589   4.394  10.460
82969W        W49510  14.642  16.309   2.793
82970W        W49511  24.937   6.908   3.937
82971W        W49512  40.295  41.519  11.967
82972W        W49513  17.810   4.507  11.211
82973W        W49514   5.633   6.298   0.677
82974W        W49515   4.797  28.994   3.566
82975W        W49516  20.666  37.835  14.656
82976W        W49517  22.182  42.328   1.291
82977W        W49518  39.278   4.436   3.239
82978W        W49519   9.252  11.883  12.986
82979W        W49520  32.051  23.653  13.624
82980W        W49521   0.951   1.328   4.004
82981W        W49522  26.077  20.854  10.564
82982W        W49523  21.642  35.947  12.825
82983W        W49524  13.629  37.975   2.826
82984W        W49525  44.820  19.568  11.472
82985W        W49526  28.680  25.014   0.725
82986W        W49527  41.422  41.087   2.864
82987W        W49528  26.068  38.658   1.902
82988W        W49529  27.199  30.027   1.308
82989W        W49530  10.574  10.540  11.730
82990W        W49531  27.661  38.914   1.789
82991W        W49532  32.995   7.242  13.903
82992W        W49533  36.975   9.906   1.836
82993W        W49534  20.117  33.415  13.623
82994W        W49535  29.948  18.789   3.904
82995W        W49536  23.484   1.689   0.045
82996W        W49537   5.236  22.104   2.305
82997W        W49538   5.172   6.419  11.905
82998W        W49539  43.006  32.900  14.653
82999W        W49540  43.104  35.964  13.049
83000W        W49541  25.035  26.051  13.348
83001W        W49542   3.454  14.857   4.160
83002W        W49543  12.585  38.862  11.312
83003W        W49544  35.540  42.009  10.763
83004W        W49545  35.153  36.480  11.576
83005W        W49546   6.975  27.074  11.744
83006W        W49547   8.208  25.916   2.268
83007W        W49548  10.838  20.317   4.546
83008W        W49549   8.962  43.348  12.619
83009W        W49550  19.471  24.232  10.617
83010W        W49551   4.352  29.401   4.229
83011W        W49552  35.332  22.981  12.955
83012W        W49553   3.474  23.803  12.569
83013W        W49554  29.256  35.999   3.586
83014W        W49555  32.827  35.615   4.301
83015W        W49556   8.360  10.726   3.156
83016W        W49557   1.981   4.506   1.171
83017W        W49558  15.565   6.494  13.539
83018W        W49559   3.295  30.712  13.214
83019W        W49560  19.538  16.016   2.128
83020W        W49561  43.046  18.942   0.255
83021W        W49562  35.018  23.566   2.296
83022W        W49563   1.389  29.852   1.894
83023W        W49564  22.195  11.284  14.239
83024W        W49565   6.902  36.964  12.981
83025W        W49566  29.985   5.692   3.160
83026W        W49567  32.099  43.752   9.799
83027W        W49568  38.062  27.946  14.746
83028W        W49569  33.110  31.057  14.892
83029W        W49570  22.103  36.984   4.613
83030W        W49571  23.481  12.684  12.035
83031W        W49572  10.386  16.568  10.736
83032W        W49573  15.164  43.942   3.746
83033W        W49574  11.077   6.667   1.473
83034W        W49575  19.599  39.580  10.813
83035W        W49576  17.848   9.813  12.635
83036W        W49577  29.677  25.312   2.191
83037W        W49578   1.097  29.747   4.580
83038W        W49579  11.236  26.204   1.789
83039W        W49580  28.873  37.946  10.629
83040W        W49581  17.608  44.204  14.919
83041W        W49582   3.577   3.095  14.356
83042W        W49583  40.532  32.766   2.575
83043W        W49584   3.236  33.386   3.076
83044W        W49585  43.001  37.791   5.078
83045W        W49586   6.165  17.761   2.793
83046W        W49587  28.856  22.148   3.054
83047W        W49588  21.124  11.565   3.709
83048W        W49589   1.428  31.085   1.459
83049W        W49590   5.802  18.344   2.154
83050W        W49591   9.281  30.690  12.123
83051W        W49592  26.189  11.176  14.571
83052W        W49593   0.063  39.382  14.112
83053W        W49594   1.507  25.654  11.497
83054W        W49595  31.470  18.755   4.663
83055W        W49596   2.474  18.682  13.788
83056W        W49597  26.049  38.247  12.997
83057W        W49598  23.684  16.522   1.429
83058W        W49599  37.202   7.825   4.349
83059W        W49600  25.597  43.070   0.966
83060W        W49601  25.015   4.691   2.345
83061W        W49602   5.919   4.777   0.767
83062W        W49603  33.830  20.748   0.931
83063W        W49604   3.318  37.116  14.775
83064W        W49605   3.127   3.588  11.779
83065W        W49606  17.387  43.275  12.063
83066W        W49607   7.818  14.485  14.985
83067W        W49608  23.641  22.088   4.123
83068W        W49609   5.239  23.526   2.871
83069W        W49610  18.110  16.604   3.272
83070W        W49611  35.926   8.895   4.725
83071W        W49612  15.722  39.669   4.890
83072W        W49613  22.565  23.012   4.881
83073W        W49614   8.646   3.511  14.279
83074W        W49615  33.985  35.403  13.840
83075W        W49616   1.869  22.349  14.038
83076W        W49617  14.637  33.495   0.527
83077W        W49618  31.102  20.097  13.535
83078W        W49619  13.794  37.522   1.415
83079W        W49620  28.137  15.517   4.606
83080W        W49621  12.810  14.335   1.732
83081W        W49622  37.631  13.050   2.386
83082W        W49623  31.026  19.023   4.460
83083W        W49624  43.596  44.895  13.496
83084W        W49625  11.312  40.836  11.596
83085W        W49626  12.758  43.865   0.827
83086W        W49627  24.142  39.578   0.456
83087W        W49628   4.265  37.551  10.198
83088W        W49629  35.880  20.227   2.737
83089W        W49630   1.923  16.858   0.688
83090W        W49631  20.898  30.560   1.404
83091W        W49632  12.870  12.644   0.703
83092W        W49633  21.294  43.264   4.181
83093W        W49634  25.611  38.506   0.925
83094W        W49635   0.306  17.953  14.335
83095W        W49636   3.852  39.064   0.376
83096W        W49637  32.394  20.520   0.317
83097W        W49638  33.710  44.867   3.643
83098W        W49639   9.629  31.447   1.240
83099W        W49640  39.500  25.716  14.483
83100W        W49641  44.298   7.435   4.672
83101W        W49642  11.658  22.323  11.944
83102W        W49643  21.601  23.635  11.062
83103W        W49644   8.854  31.068   2.157
83104W        W49645  11.378  13.305   5.059
83105W        W49646  31.384   5.833  11.883
83106W        W49647  34.809  36.824   3.996
83107W        W49648  41.770  26.642   3.579
83108W        W49649  21.833  30.561   2.349
83109W        W49650   2.919  39.734  13.952
83110W        W49651  13.057  41.991  11.267
83111W        W49652   5.746   4.496   0.265
83112W        W49653  10.902  23.685   4.149
83113W        W49654  22.513   4.065   4.934
83114W        W49655  43.035  19.928   0.396
83115W        W49656   6.708  18.674   4.552
83116W        W49657  41.774   7.811  14.881
83117W        W49658   9.666  36.692  10.737
83118W        W49659   8.215  13.899   3.685
83119W        W49660  39.570   3.262   4.591
83120W        W49661  25.767  42.727   1.290
83121W        W49662  21.339   6.166  11.863
83122W        W49663   4.276  24.017   4.563
83123W        W49664   1.283  19.701   4.858
83124W        W49665  13.978   5.870  10.333
83125W        W49666  27.647   6.165   1.367
83126W        W49667  15.575  23.915   1.991
83127W        W49668   3.299  42.035   0.970
83128W        W49669  34.581  11.230   3.121
83129W        W49670  20.497  32.856   2.735
83130W        W49671  13.826   6.907  11.993
83131W        W49672  23.505  10.243   0.960
83132W        W49673  13.475  24.903  11.532
83133W        W49674  14.802  33.577   1.537
83134W        W49675  13.119  42.571   0.774
83135W        W49676   8.724  28.689   1.768
83136W        W49677  10.233  22.295   0.878
83137W        W49678   4.293  18.449   1.439
83138W        W49679  34.503  23.077   0.041
83139W        W49680  42.471  34.806  14.799
83140W        W49681  32.551  32.992  10.661
83141W        W49682  15.451  43.721   1.789
83142W        W49683  28.693  37.530  12.984
83143W        W49684  18.764  12.928  14.753
83144W        W49685  28.990  43.488  11.084
83145W        W49686   7.143   7.925   3.596
83146W        W49687   4.526   0.450   1.815
83147W        W49688  29.602  30.769   1.199
83148W        W49689  38.000  44.401   0.957
83149W        W49690  24.526  39.100   3.563
83150W        W49691  36.424   0.169  13.641
83151W        W49692  25.055   5.470   4.620
83152W        W49693  11.755   0.916  12.391
83153W        W49694  20.749   3.903  13.355
83154W        W49695  34.363  11.613  11.016
83155W        W49696  39.788  22.608  13.383
83156W        W49697   3.824   1.867   2.221
83157W        W49698  14.793  19.793   1.013
83158W        W49699  13.079  34.926   2.765
83159W        W49700  22.178  35.301  13.646
83160W        W49701  37.066  40.212  12.107
83161W        W49702   8.436  16.613   0.403
83162W        W49703  14.893  38.123  12.602
83163W        W49704  31.969  20.969   3.719
83164W        W49705  29.349  19.466   4.125
83165W        W49706   9.249  29.987   4.962
83166W        W49707   2.486  33.008   0.239
83167W        W49708   4.495  17.537  14.745
83168W        W49709  11.334  40.382   0.406
83169W        W49710  42.295   1.290   2.896
83170W        W49711  36.699  29.932  12.061
83171W        W49712  39.495  37.758   0.107
83172W        W49713   0.961  40.132   1.811
83173W        W49714  29.077   5.255   4.626
83174W        W49715  15.730   0.733   0.777
83175W        W49716  18.837  38.134  12.934
83176W        W49717  23.707  23.692  14.879
83177W        W49718  41.018  22.319   3.792
83178W        W49719  20.826  27.214  14.416
83179W        W49720   5.877  43.990   2.654
83180W        W49721  39.603  42.448   0.326
83181W        W49722  36.892  37.759  14.204
83182W        W49723  16.098  11.868  13.947
83183W        W49724   6.807  30.966  10.736
83184W        W49725  40.477  18.207   1.749
83185W        W49726   2.461  42.926   3.307
83186W        W49727  41.012   2.819   1.247
83187W        W49728  17.738  24.097  14.493
83188W        W49729  30.333  24.023   3.233
83189W        W49730  12.768  34.522  10.352
83190W        W49731   1.148  29.968  14.168
83191W        W49732  14.046   5.823  12.659
83192W        W49733  24.668  39.524  12.033
83193W        W49734   0.826  40.820  10.658
83194W        W49735   1.027   9.479   0.793
83195W        W49736  40.578  30.327  12.510
83196W        W49737  28.875  37.035  14.547
83197W        W49738   2.951  11.766  13.027
83198W        W49739  21.777  33.010  12.906
83199W        W49740  33.937  18.760  12.965
83200W        W49741  17.274   4.369  10.593
83201W        W49742  16.205  13.404  12.982
83202W        W49743   7.777   4.944  11.422
83203W        W49744  31.159  14.572  13.244
83204W        W49745  26.305   5.874   3.180
83205W        W49746  23.318  31.649  13.445
83206W        W49747  32.447  39.371   0.930
83207W        W49748  43.421  17.836  14.005
83208W        W49749   3.216  44.874   1.755
83209W        W49750  30.185  12.061  12.883
83210W        W49751   1.732   1.422  14.701
83211W        W49752   1.931  24.220  10.119
83212W        W49753  22.496  36.857   3.179
83213W        W49754  44.303   9.676  12.953
83214W        W49755  42.196   7.411   4.034
83215W        W49756   1.841  31.659  11.185
83216W        W49757  26.591  39.080  14.265
83217W        W49758  44.873  14.837   4.121
83218W        W49759  12.407  11.946   4.581
83219W        W49760  17.818  34.891  12.989
83220W        W49761  17.141  17.262  13.032
83221W        W49762  26.664  23.743  12.084
83222W        W49763  18.808  14.454   1.579
83223W        W49764   5.989  26.697  13.912
83224W        W49765  20.239  38.565   4.928
83225W        W49766   8.898  35.145  11.734
83226W        W49767  14.745  23.515   2.422
83227W        W49768  35.110  24.065  11.156
83228W        W49769  42.915   9.168   3.162
83229W        W49770  28.551  32.919  12.594
83230W        W49771  11.218   4.754   3.370
83231W        W49772  13.195  43.739   3.639
83232W        W49773  43.684  26.202  13.941
83233W        W49774  27.891   9.513  11.846
83234W        W49775  40.586  22.045   3.662
83235W        W49776   4.910  24.593   1.826
83236W        W49777  10.924  12.643  12.400
83237W        W49778  24.646  38.595  11.085
83238W        W49779   6.171  37.562   1.814
83239W        W49780  19.301  17.656  10.958
83240W        W49781  43.347  42.064   1.548
83241W        W49782  39.213  19.002  11.635
83242W        W49783  36.131  19.772   4.196
83243W        W49784  31.453  24.511  12.177
83244W        W49785  28.862   5.257  14.374
83245W        W49786   7.931   2.951  11.702
83246W        W49787   8.960  13.113   0.131
83247W        W49788  24.677  29.441   2.797
83248W        W49789  12.231   9.855   0.683
83249W        W49790  37.374  26.123   4.297
83250W        W49791   6.388  10.068   9.770
83251W        W49792   9.238  37.553  10.983
83252W        W49793   8.367   9.712   1.264
83253W        W49794  10.852  25.206   4.110
83254W        W49795  36.072   6.687  12.489
83255W        W49796  31.011   9.966  13.986
83256W        W49797  38.814  27.010  11.271
83257W        W49798   8.749   3.666  14.747
83258W        W49799  14.920  37.921   1.774
83259W        W49800   7.400  40.570  13.025
83260W        W49801   0.134  13.330  12.890
83261W        W49802   1.752  43.898  10.657
83262W        W49803  21.303  21.162  10.614
83263W        W49804  44.146  44.085   1.080
83264W        W49805  19.008   6.506  10.707
83265W        W49806  29.373   7.116  10.142
83266W        W49807   7.940  23.715  11.534
83267W        W49808  36.920  26.629  13.915
83268W        W49809  24.492  42.834   0.359
83269W        W49810  20.042  44.045  10.713
83270W        W49811  13.499   7.394   0.209
83271W        W49812   1.125  31.352   0.797
83272W        W49813   1.298   7.598  11.669
83273W        W49814  18.158  31.951   0.240
83274W        W49815   5.927  37.783   4.307
83275W        W49816  33.615   2.754   3.152
83276W        W49817  23.004  35.643  12.609
83277W        W49818  27.910  37.114   0.890
83278W        W49819  31.631  30.602  13.459
83279W        W49820  19.658  31.614   2.583
83280W        W49821  40.746  14.339  13.096
83281W        W49822   2.402  11.905   1.190
83282W        W49823  36.666  30.597  12.947
83283W        W49824  40.602  39.844  14.311
83284W        W49825   3.212   6.584  14.974
83285W        W49826  30.796  35.017   4.968
83286W        W49827  17.551  20.130   1.980
83287W        W49828  39.221  42.784   4.068
83288W        W49829  25.150   3.349   1.716
83289W        W49830  26.062  17.254  10.684
83290W        W49831  36.114  17.176  14.870
83291W        W49832  34.973  39.472   0.406
83292W        W49833   9.615  30.967  14.683
83293W        W49834  43.823  23.448  11.135
83294W        W49835   9.752  23.706   4.876
83295W        W49836  15.958  36.593   3.314
83296W        W49837  25.415  28.385   1.775
83297W        W49838  28.565  28.718   1.230
83298W        W49839  24.451  35.883  13.956
83299W        W49840   6.270  20.043  10.646
83300W        W49841   6.383  33.438  12.168
83301W        W49842  13.417   6.516  12.038
83302W        W49843  28.244  36.556   2.146
83303W        W49844  42.550  24.475   2.357
83304W        W49845  10.058  19.548  10.714
83305W        W49846  11.469  13.358   0.060
83306W        W49847  27.018   1.486  11.211
83307W        W49848  10.376   1.652   1.843
83308W        W49849  33.558  12.003   5.054
83309W        W49850  38.934  32.864  11.488
83310W        W49851  17.248  22.681  12.973
83311W        W49852  20.108  42.038   1.736
83312W        W49853  21.627  30.621  11.539
83313W        W49854   0.221  24.501  13.445
83314W        W49855  16.100  28.724   2.765
83315W        W49856  15.358  23.411   3.100
83316W        W49857  11.563  20.256  10.760
83317W        W49858  16.300  20.326   2.305
83318W        W49859   0.680  33.609   4.482
83319W        W49860  40.574   6.930  12.938
83320W        W49861  39.339  34.513   0.834
83321W        W49862  31.854  22.053  12.060
83322W        W49863   7.760  15.034   0.012
83323W        W49864   6.332  32.173  13.159
83324W        W49865  38.806  36.107   3.570
83325W        W49866  19.169  38.913  11.508
83326W        W49867   5.227  36.453   1.207
83327W        W49868   5.477  26.702  14.448
83328W        W49869  11.295   9.859   3.530
83329W        W49870  10.240  19.592   0.570
83330W        W49871  30.022  44.895   3.709
83331W        W49872  14.509  24.446  14.087
83332W        W49873  43.587   0.760  13.000
83333W        W49874   4.470  23.553  12.395
83334W        W49875   5.151  29.882  14.050
83335W        W49876  31.502  29.108  11.119
83336W        W49877  13.822  17.305   1.944
83337W        W49878  41.202  38.233   2.571
83338W        W49879  27.072   0.857   3.662
83339W        W49880   9.147  12.317   3.513
83340W        W49881  33.989   2.364  14.342
83341W        W49882  34.272  39.390  12.038
83342W        W49883  24.109  20.610  10.515
83343W        W49884  42.467  38.944   2.882
83344W        W49885   4.235  35.836   1.156
83345W        W49886   1.106  22.677  13.732
83346W        W49887  16.108  28.999  14.946
83347W        W49888  35.327  20.201  10.640
83348W        W49889  13.046  15.841   1.260
83349W        W49890  31.865  14.085  12.395
83350W        W49891  30.159  14.633   2.847
83351W        W49892  34.874  24.220  11.597
83352W        W49893  18.840  28.178  13.965
83353W        W49894  40.002  39.513   4.147
83354W        W49895  25.127  37.377   4.623
83355W        W49896   3.436  38.576  13.671
83356W        W49897  15.207  27.321   4.747
83357W        W49898  23.987  16.335   1.846
83358W        W49899  43.822  43.677  11.254
83359W        W49900   0.958  23.683   1.081
83360W        W49901  44.156  21.045   3.520
83361W        W49902   3.685  12.502  14.195
83362W        W49903  36.582   5.230   3.177
83363W        W49904  18.173  30.793  13.242
83364W        W49905   3.538  42.559  11.572
83365W        W49906  44.370   9.455   0.365
83366W        W49907  40.052  15.530  14.691
83367W        W49908  11.669   6.759  14.587
83368W        W49909   7.785  34.587  11.672
83369W        W49910  16.486  35.821   5.263
83370W        W49911   0.957  17.134  12.110
83371W        W49912  44.685  44.493  11.988
83372W        W49913  35.875  13.279  12.051
83373W        W49914  39.435  40.853  10.695
83374W        W49915  34.212   6.374   4.236
83375W        W49916  12.660  16.222   1.305
83376W        W49917  41.937  23.873   9.914
83377W        W49918  16.597  24.028  14.050
83378W        W49919  12.049  35.380   1.275
83379W        W49920  25.909  29.067   1.863
83380W        W49921   4.169  22.113  12.559
83381W        W49922   2.393   0.838   0.298
83382W        W49923  10.907  28.727   1.664
83383W        W49924   1.461   3.354  12.178
83384W        W49925  23.282  11.537  13.201
83385W        W49926  31.867  20.500   0.370
83386W        W49927  12.165  38.820   2.784
83387W        W49928  16.177   3.930  13.991
83388W        W49929   9.262  11.847  13.953
83389W        W49930  18.018  42.830   3.880
83390W        W49931  34.383  21.654   4.241
83391W        W49932  18.596   0.197  14.926
83392W        W49933  26.518   7.422  14.326
83393W        W49934  33.120  38.862  10.666
83394W        W49935  30.882   4.679   0.383
83395W        W49936  17.857   5.757  14.354
83396W        W49937  18.308  28.646   0.427
83397W        W49938  17.210   8.725  10.570
83398W        W49939   4.949  43.105  11.566
83399W        W49940   7.317  17.144  14.047
83400W        W49941  33.155  43.318   0.356
83401W        W49942   8.664  37.387   0.037
83402W        W49943  13.449  16.506  14.960
83403W        W49944  40.459  24.954   1.340
83404W        W49945  23.366  15.419   2.286
83405W        W49946  16.524  22.562   3.663
83406W        W49947  23.406  44.586  14.039
83407W        W49948  30.239  38.014  14.394
83408W        W49949  28.420  23.247   2.418
83409W        W49950  29.005  13.919   3.781
83410W        W49951  27.237  23.999   0.754
83411W        W49952  35.838  27.732   4.781
83412W        W49953   3.681  22.826   1.316
83413W        W49954   6.221   1.969  11.622
83414W        W49955  19.266  31.568   0.368
83415W        W49956   2.204  11.422  14.412
83416W        W49957  16.573  35.004   1.579
83417W        W49958  44.075  39.448   4.593
83418W        W49959  29.308  15.251   2.742
83419W        W49960  23.236  35.301   2.706
83420W        W49961   2.233  44.017   4.497
83421W        W49962  24.573  41.291  12.926
83422W        W49963  37.465  32.233  12.599
83423W        W49964  13.516  20.699  11.202
83424W        W49965  22.457  36.359   3.075
83425W        W49966  30.892  33.284  11.584
83426W        W49967  42.969   4.258   3.649
83427W        W49968  29.205  19.919   3.256
83428W        W49969   7.225  16.277  10.946
83429W        W49970  33.518  35.813  10.680
83430W        W49971  42.897  33.454   1.275
83431W        W49972  10.229   1.708   4.547
83432W        W49973   2.028  21.164   5.011
83433W        W49974  17.797  37.236  14.378
83434W        W49975  17.497   6.789  11.948
83435W        W49976  36.582  15.494  13.831
83436W        W49977  34.647  34.092   0.403
83437W        W49978  42.497  25.746  14.909
83438W        W49979   2.451  39.557   2.235
83439W        W49980  13.060  30.829   3.822
83440W        W49981  16.239  43.965  13.260
83441W        W49982  20.793  13.615   2.678
83442W        W49983  22.295   3.700   3.661
83443W        W49984  39.165  39.917   3.645
83444W        W49985  32.423  29.271  13.940
83445W        W49986  24.516  13.172  12.929
83446W        W49987  38.251  25.286   4.718
83447W        W49988   5.212   2.720  14.844
83448W        W49989  31.427  29.961   3.266
83449W        W49990   3.209  29.047   5.017
83450W        W49991   2.715   3.683   1.778
83451W        W49992   1.419  22.177  10.443
83452W        W49993  18.854  32.964  11.057
83453W        W49994  16.473  12.749   0.741
83454W        W49995  44.848   0.496   0.464
83455W        W49996   4.765   4.317  13.817
83456W        W49997  19.947   6.686  12.871
83457W        W49998  38.965  41.490   0.604
83458W        W49999   4.888  23.640   1.644
83459W        W50000  14.528  31.856  14.859
83460W        W50001   6.729   0.844   0.967
83461W        W50002   8.673  37.408  10.279
83462W        W50003  27.112  26.165  10.440
83463W        W50004   4.690  37.419   4.624
83464W        W50005  10.845   8.131  11.212
83465W        W50006  12.550  22.007  11.584
83466W        W50007  10.088  39.826  10.936
83467W        W50008   9.179  25.490  13.394
83468W        W50009  12.679  21.745  13.003
83469W        W50010  33.901  38.014   1.035
83470W        W50011  15.865  32.872   3.540
83471W        W50012   6.677   1.495   4.192
83472W        W50013   4.182  22.439  13.553
83473W        W50014  19.321  36.118   4.650
83474W        W50015   0.277  10.384  10.357
83475W        W50016  34.618   5.148   1.282
83476W        W50017   2.142  18.201   0.941
83477W        W50018  18.224  12.580   3.242
83478W        W50019  12.876  13.987   2.721
83479W        W50020  12.892  30.991  13.354
83480W        W50021  11.282  43.371  10.957
83481W        W50022  21.011  35.547  10.643
83482W        W50023  25.019   4.436  10.689
83483W        W50024  22.505  39.415   4.225
83484W        W50025   7.560  40.973  14.753
83485W        W50026  34.672   4.759   1.693
83486W        W50027  41.504  28.666  14.862
83487W        W50028  24.228  43.483  13.705
83488W        W50029  18.431  12.719  13.552
83489W        W50030  26.938  33.698  14.366
83490W        W50031  12.832  23.313   0.236
83491W        W50032  11.813  10.363   3.966
83492W        W50033  32.456  34.533   0.543
83493W        W50034   1.975  11.144  11.532
83494W        W50035   9.306  30.100   0.211
83495W        W50036  31.136  16.328   5.158
83496W        W50037  36.600  24.611   4.702
83497W        W50038   9.166   4.790   2.225
83498W        W50039  14.666  43.299  11.968
83499W        W50040  44.994  15.863  13.005
83500W        W50041   3.236  18.781  10.795
83501W        W50042  33.037   0.277  14.407
83502W        W50043  13.332  36.524   2.791
83503W        W50044  15.993  37.735  11.130
83504W        W50045   7.726  15.317  12.924
83505W        W50046  39.152   9.089   3.625
83506W        W50047  34.019  36.069   2.687
83507W        W50048   3.725  23.713   2.142
83508W        W50049  17.652  38.303   3.521
83509W        W50050  22.615  29.434   4.477
83510W        W50051  21.599  14.800   2.694
83511W        W50052  20.085   1.957   3.684
83512W        W50053  19.008  44.933   0.830
83513W        W50054   5.011  23.129  11.214
83514W        W50055  41.984  44.011  13.448
83515W        W50056  39.220  34.173   4.392
83516W        W50057  21.429  14.646  11.905
83517W        W50058   3.682  37.427  14.550
83518W        W50059   9.169  22.969  12.064
83519W        W50060  19.837   2.024  11.148
83520W        W50061   6.217  30.975   3.554
83521W        W50062  17.155  12.887  10.687
83522W        W50063  42.327  15.212  13.913
83523W        W50064  15.621  35.616   4.690
83524W        W50065  44.535  20.004   3.664
83525W        W50066  38.875   7.001  12.551
83526W        W50067   5.326  44.996   3.273
83527W        W50068  38.483  29.629   0.298
83528W        W50069  16.966   7.402  13.752
83529W        W50070  35.546  11.841   1.353
83530W        W50071  20.325  13.952  14.731
83531W        W50072  20.306  22.207  11.482
83532W        W50073   8.587  12.309  13.444
83533W        W50074  44.689  15.066  14.858
83534W        W50075  33.372   8.993   4.887
83535W        W50076  31.480   3.406   0.451
83536W        W50077  34.543   4.964  13.915
83537W        W50078  16.706  17.907   0.030
83538W        W50079  15.378   6.927  10.734
83539W        W50080   4.739  44.979   1.822
83540W        W50081   9.025  22.331  13.483
83541W        W50082  33.593  25.658  12.905
83542W        W50083  27.064  26.831  11.621
83543W        W50084  38.058  22.086  12.984
83544W        W50085  28.045  26.416   3.075
83545W        W50086   6.033   3.106   3.367
83546W        W50087  14.171  37.038  13.144
83547W        W50088   3.788   6.026   1.247
83548W        W50089  42.273  14.755   3.223
83549W        W50090   1.995  44.960  11.686
83550W        W50091  12.626  12.238  12.940
83551W        W50092  44.190  43.799   3.236
83552W        W50093  34.432  23.488  14.702
83553W        W50094  16.742  18.092  14.508
83554W        W50095  32.991  38.802  14.518
83555W        W50096  16.609   9.391  14.780
83556W        W50097   7.907  42.482  11.177
83557W        W50098  22.303  19.200  14.286
83558W        W50099  33.232  27.049   3.664
83559W        W50100  18.269   8.813  12.045
83560W        W50101  24.533   4.481  13.355
83561W        W50102  11.910  25.485   4.115
83562W        W50103  11.099  33.485   3.069
83563W        W50104  44.495  14.413   1.004
83564W        W50105  16.700  34.435   1.415
83565W        W50106  26.106  44.573   0.261
83566W        W50107  39.412  18.415   0.373
83567W        W50108   3.190  39.342   1.570
83568W        W50109   3.068   1.235   9.915
83569W        W50110  20.688  28.152  13.445
83570W        W50111   4.276  38.389   4.301
83571W        W50112  25.026  19.328  14.948
83572W        W50113   9.188   3.455   3.160
83573W        W50114  31.502   9.695  13.913
83574W        W50115  31.506  25.363  14.649
83575W        W50116  13.809   8.140   4.132
83576W        W50117   8.008  24.011   9.745
83577W        W50118   1.404   8.823  13.339
83578W        W50119   1.214   2.535   0.040
83579W        W50120  13.793  14.968  13.297
83580W        W50121  31.542   4.620   4.500
83581W        W50122   2.314  26.636  13.433
83582W        W50123   4.731  24.733   2.309
83583W        W50124  36.543  23.460  13.891
83584W        W50125  17.334  19.887   2.466
83585W        W50126  19.039  10.961   0.824
83586W        W50127  24.850  27.633   2.323
83587W        W50128  27.027  15.093   0.009
83588W        W50129  11.996  37.144  13.079
83589W        W50130  10.125  29.605   1.918
83590W        W50131  22.677  35.315  11.230
83591W        W50132  27.314  31.604   2.462
83592W        W50133  17.376   6.539  13.964
83593W        W50134   1.848  39.157   2.844
83594W        W50135  41.675  38.807  12.515
83595W        W50136   4.293  11.326   0.317
83596W        W50137  12.729  44.388   0.125
83597W        W50138   3.921  42.853   3.262
83598W        W50139   9.238   9.192   1.073
83599W        W50140  26.619  30.518  10.612
83600W        W50141  36.314  30.020   4.433
83601W        W50142  16.072  25.206  14.554
83602W        W50143  16.146  27.671   0.479
83603W        W50144  36.903   7.100   3.389
83604W        W50145  11.168  36.384  14.688
83605W        W50146  16.080   6.636  11.177
83606W        W50147  15.054  33.217  13.787
83607W        W50148  44.953  43.286   1.986
83608W        W50149  29.536  43.465   4.134
83609W        W50150   9.071  42.352  13.895
83610W        W50151  24.977   1.666   0.894
83611W        W50152   3.539  31.830   3.882
83612W        W50153  35.100  37.161   3.714
83613W        W50154  36.244   6.769   4.115
83614W        W50155  16.215   4.702  12.590
83615W        W50156  29.733  39.847  11.209
83616W        W50157  43.666  24.101  12.536
83617W        W50158  12.295  10.216   4.836
83618W        W50159   5.263  27.758   0.198
83619W        W50160  14.576  43.537  12.821
83620W        W50161  13.354  37.468   9.898
83621W        W50162  33.172  10.153   4.282
83622W        W50163   9.397  40.508  12.530
83623W        W50164   9.707   2.741   0.792
83624W        W50165  27.965  35.250  13.818
83625W        W50166   6.043  12.432   1.224
83626W        W50167  12.508  32.710   2.757
83627W        W50168  21.897  32.979   2.604
83628W        W50169  24.175   8.970  11.590
83629W        W50170  42.293  28.097  12.470
83630W        W50171   7.970  29.730  10.910
83631W        W50172   0.131  24.274   0.423
83632W        W50173   9.114  26.899  11.757
83633W        W50174  23.069   2.213   1.818
83634W        W50175   1.283   5.108   2.821
83635W        W50176  25.094  30.080  12.724
83636W        W50177  41.554  28.962  11.168
83637W        W50178   5.916  30.149   3.881
83638W        W50179  36.626  36.545   3.262
83639W        W50180   1.004  13.887   2.734
83640W        W50181  31.587  36.412   0.078
83641W        W50182  42.942  36.791  11.439
83642W        W50183   9.661  43.910   3.123
83643W        W50184  33.979   6.384  12.384
83644W        W50185   4.004   4.297   2.829
83645W        W50186  33.441  28.880  13.027
83646W        W50187  27.589  13.320   1.719
83647W        W50188   6.344  12.766   2.382
83648W        W50189  20.100  16.311   1.202
83649W        W50190   4.726  27.908   1.604
83650W        W50191  17.774   2.025   0.525
83651W        W50192  34.287  26.183  13.194
83652W        W50193  41.749  41.347   3.736
83653W        W50194  12.906   0.986   3.172
83654W        W50195  25.958  42.820  13.326
83655W        W50196  17.690  21.183   2.267
83656W        W50197  27.675  33.072   3.243
83657W        W50198  27.926  32.112   1.739
83658W        W50199  38.081  17.684   2.900
83659W        W50200  40.310  23.677   1.769
83660W        W50201  35.051   2.498   1.246
83661W        W50202   6.525  16.634  10.491
83662W        W50203  41.567  21.234  14.872
83663W        W50204  30.854  44.091   0.802
83664W        W50205  12.539   7.429  11.879
83665W        W50206   7.761  37.824  13.153
83666W        W50207   2.616  18.258   0.771
83667W        W50208  37.983  25.477   4.322
83668W        W50209  32.243  22.633   4.189
83669W        W50210  21.580  38.288   1.762
83670W        W50211  39.660  29.912  11.011
83671W        W50212  36.319   3.470   4.579
83672W        W50213  26.992   3.905   2.763
83673W        W50214  41.989   3.198   4.572
83674W        W50215  43.303  25.445   0.398
83675W        W50216  37.697   1.572  11.002
83676W        W50217  11.393   3.674  14.847
83677W        W50218   5.675  20.673  13.365
83678W        W50219  41.452   1.942   0.508
83679W        W50220  17.465   3.708  10.806
83680W        W50221  29.279   7.469  14.962
83681W        W50222  16.970  34.063   4.116
83682W        W50223  16.731  14.674   5.040
83683W        W50224  37.758  28.304  13.530
83684W        W50225  36.494   1.929  10.661
83685W        W50226  42.076  19.648  11.273
83686W        W50227  22.107  11.267   3.072
83687W        W50228  25.711  43.536   1.453
83688W        W50229  26.950  34.421   3.087
83689W        W50230  42.793  38.762   4.616
83690W        W50231  24.964  35.238  11.787
83691W        W50232  21.254  41.527  11.677
83692W        W50233   0.834  24.208  12.689
83693W        W50234   7.328   5.371  12.529
83694W        W50235  16.198  28.010  12.520
83695W        W50236  30.106  29.019   1.379
83696W        W50237  10.257  33.756   3.050
83697W        W50238  12.016  42.859   3.873
83698W        W50239  31.351  44.587  11.310
83699W        W50240  42.860   7.797   2.884
83700W        W50241  35.008  21.455   1.002
83701W        W50242  44.040   5.202   1.534
83702W        W50243  10.489  14.812  10.545
83703W        W50244  35.574  15.289  14.077
83704W        W50245  28.489  26.291   1.381
83705W        W50246  13.938  21.476   2.170
83706W        W50247   4.383  22.940  10.075
83707W        W50248  31.678  36.006   3.518
83708W        W50249  19.327  40.917  11.543
83709W        W50250  32.921   2.928  14.760
83710W        W50251   9.418  31.732  11.203
83711W        W50252  19.315  27.922   4.091
83712W        W50253  26.448  14.782   2.407
83713W        W50254  16.530  39.637   0.091
83714W        W50255  31.367  32.955   0.845
83715W        W50256  35.544   3.849   2.921
83716W        W50257  41.898  21.931  12.647
83717W        W50258  32.905  12.056  11.951
83718W        W50259   9.856  21.506   4.539
83719W        W50260  10.030  11.154   3.500
83720W        W50261  10.409  29.373  14.566
83721W        W50262  38.020  13.375   2.409
83722W        W50263   9.733  13.936   0.729
83723W        W50264  37.791  38.955   1.401
83724W        W50265  44.378   2.889   2.485
83725W        W50266   1.899  25.775  10.632
83726W        W50267  36.581  44.835  14.027
83727W        W50268  30.423  35.575  10.795
83728W        W50269   8.444  27.724   1.318
83729W        W50270  36.259  44.402  10.085
83730W        W50271  10.271  20.512  12.351
83731W        W50272  18.968   8.591   4.576
83732W        W50273  37.209  35.321   1.197
83733W        W50274   9.954  42.082  13.797
83734W        W50275  15.732  43.786  12.522
83735W        W50276  22.393  13.284   3.061
83736W        W50277  30.222  10.310  12.961
83737W        W50278  43.521  23.748  14.121
83738W        W50279  29.153  12.622   3.124
83739W        W50280  13.852   1.907   1.166
83740W        W50281  28.321  29.130   3.955
83741W        W50282  12.261  11.951   1.372
83742W        W50283  34.840  19.274  10.470
83743W        W50284  18.826  26.698  12.142
83744W        W50285  16.281  15.915  11.584
83745W        W50286  15.349   2.185  13.430
83746W        W50287  42.703  20.733  13.899
83747W        W50288  26.147  17.596  13.397
83748W        W50289  41.263  14.291  12.258
83749W        W50290  43.411  43.067   1.365
83750W        W50291  25.025  10.378  12.591
83751W        W50292   2.521  29.993  12.822
83752W        W50293  29.414  16.294   2.812
83753W        W50294  41.281  37.817  14.462
83754W        W50295   4.439   7.819  12.400
83755W        W50296  27.128  41.103  12.874
83756W        W50297  32.514  13.346   3.619
83757W        W50298   6.648  23.889   4.507
83758W        W50299  28.955  20.088  12.856
83759W        W50300   7.291  36.094   1.953
83760W        W50301  43.419   1.803   3.031
83761W        W50302  36.831  40.933  14.144
83762W        W50303  23.623  28.032  13.620
83763W        W50304  17.124  31.563   3.647
83764W        W50305  28.382  39.081   0.009
83765W        W50306  25.877  23.278   0.715
83766W        W50307  23.676   7.407  10.175
83767W        W50308  18.002  20.214   1.770
83768W        W50309  27.982  26.336  13.083
83769W        W50310  43.763  17.447   0.216
83770W        W50311   3.108  28.123  13.188
83771W        W50312  44.970  44.819   3.469
83772W        W50313  36.536  17.572  11.263
83773W        W50314  30.968  29.116   3.618
83774W        W50315  38.699   9.248  14.448
83775W        W50316  29.433  23.904  14.600
83776W        W50317   1.789  11.663  12.337
83777W        W50318  23.979  14.702  13.079
83778W        W50319  12.154   3.983  12.034
83779W        W50320  11.585   1.828  11.482
83780W        W50321  41.568  14.223  14.865
83781W        W50322  11.227  41.804   1.035
83782W        W50323  13.374  34.042  11.986
83783W        W50324  27.387  30.640  11.058
83784W        W50325  25.973  27.010   3.620
83785W        W50326  13.376  23.404   3.356
83786W        W50327  14.071  29.681  12.512
83787W        W50328  15.426   0.362  13.283
83788W        W50329  20.249  11.182   2.709
83789W        W50330  31.032  39.080   1.851
83790W        W50331   7.734  42.746   4.640
83791W        W50332  13.824  32.773  14.346
83792W        W50333  41.824  22.786  12.822
83793W        W50334  14.602   7.948  12.104
83794W        W50335  35.089  34.467  10.359
83795W        W50336   0.864  19.223   4.330
83796W        W50337  44.829   0.821  14.275
83797W        W50338  18.260  39.369  11.571
83798W        W50339  38.114  43.661   1.423
83799W        W50340  36.084  21.207   4.139
83800W        W50341  24.408  41.179  12.439
83801W        W50342  41.065   1.291  13.592
83802W        W50343  37.454  36.973   5.158
83803W        W50344   4.404  17.154   4.586
83804W        W50345  27.856  16.768  10.956
83805W        W50346  24.579  24.690   1.385
83806W        W50347  39.459  28.516   0.055
83807W        W50348  44.685  42.957   3.049
83808W        W50349  40.873  33.068  14.546
83809W        W50350  30.143  34.366  13.319
83810W        W50351  17.809   5.385   4.103
83811W        W50352  42.343  13.274  13.939
83812W        W50353  14.737  27.218  12.331
83813W        W50354  12.167   7.152  11.630
83814W        W50355   0.420   2.395  10.198
83815W        W50356  44.553  32.371  12.914
83816W        W50357  30.153   4.742   3.355
83817W        W50358   7.546   8.678   1.114
83818W        W50359   2.415  29.077  10.753
83819W        W50360  22.449  15.642   0.291
83820W        W50361  25.787  16.113   0.824
83821W        W50362  22.968  27.665  10.964
83822W        W50363  21.552  18.269  10.570
83823W        W50364  23.750  27.006   1.328
83824W        W50365  15.712  38.232  13.985
83825W        W50366  20.746  34.354  13.025
83826W        W50367   9.578  10.297   1.694
83827W        W50368  32.536  38.201   3.369
83828W        W50369  25.095  28.004  14.105
83829W        W50370   7.269  24.536  13.811
83830W        W50371   6.662  19.738   4.603
83831W        W50372  19.235  24.041   4.104
83832W        W50373  26.676   5.497   3.236
83833W        W50374  31.422  10.297  11.667
83834W        W50375   4.195  36.607  13.392
83835W        W50376  41.610  44.826   1.221
83836W        W50377  38.603   9.417   2.223
83837W        W50378  20.028  36.122  13.933
83838W        W50379   4.867   7.189  12.973
83839W        W50380  11.233  17.942  12.078
83840W        W50381  14.282   8.182   3.701
83841W        W50382  15.727  17.794   0.253
83842W        W50383  27.839  27.278   2.659
83843W        W50384  15.318  29.178   2.855
83844W        W50385  14.559  25.631   1.839
83845W        W50386  39.581  10.566   4.057
83846W        W50387  42.210  36.955   3.451
83847W        W50388   4.980   8.731   3.601
83848W        W50389  33.413  13.311   1.884
83849W        W50390  21.251  33.629  14.900
83850W        W50391  30.417  14.344   1.582
83851W        W50392  44.024   0.254  14.381
83852W        W50393   4.257  41.840   3.305
83853W        W50394  23.084   7.315  13.545
83854W        W50395  34.533  22.118   1.171
83855W        W50396   3.467  15.349  12.472
83856W        W50397   4.811  17.817   4.574
83857W        W50398  27.599  20.425   2.209
83858W        W50399  29.201  19.791   2.364
83859W        W50400  12.623  39.962  11.233
83860W        W50401   8.394   0.387  13.279
83861W        W50402  18.692   8.053  14.952
83862W        W50403   6.546  31.934  10.612
83863W        W50404  42.700  10.815  12.425
83864W        W50405  20.584  24.517  12.624
83865W        W50406  26.983  39.945  11.957
83866W        W50407  44.447  42.502   1.956
83867W        W50408  20.763  23.297  14.945
83868W        W50409  28.650  12.488   1.029
83869W        W50410  41.757  31.467   2.165
83870W        W50411  33.975  34.584   1.361
83871W        W50412  27.638   2.406   0.965
83872W        W50413  14.489  41.287   2.780
83873W        W50414  38.925  23.975  10.759
83874W        W50415  17.792  10.187  13.822
83875W        W50416  41.950  37.814   3.128
83876W        W50417  29.981  40.467   2.171
83877W        W50418  28.692  30.480  11.591
83878W        W50419  10.584  18.664  13.408
83879W        W50420  39.993  10.623  14.382
83880W        W50421  11.341  21.544   0.900
83881W        W50422   7.918  39.968  14.841
83882W        W50423  30.064  43.792  12.859
83883W        W50424  41.852  21.220  10.804
83884W        W50425  36.429  24.479   3.656
83885W        W50426  17.581   8.604   0.341
83886W        W50427  40.087  11.851  10.692
83887W        W50428  27.858  14.165  14.851
83888W        W50429   6.176  33.809   1.176
83889W        W50430   7.764  25.933   3.703
83890W        W50431  18.218  15.077  13.431
83891W        W50432  41.501  23.289  11.634
83892W        W50433  24.087  25.888  10.734
83893W        W50434  33.133  28.347   3.109
83894W        W50435   1.260  29.517   4.135
83895W        W50436  17.605  14.204  13.146
83896W        W50437  12.631  25.515   3.621
83897W        W50438   6.826  43.432   3.574
83898W        W50439  30.408  19.760  13.880
83899W        W50440  12.150  10.601   3.605
83900W        W50441  12.765   3.227   2.304
83901W        W50442   9.013  24.666  14.057
83902W        W50443  21.283  19.476  11.214
83903W        W50444  12.515  15.683   3.105
83904W        W50445  39.384   6.720   0.204
83905W        W50446  31.042  31.336  12.395
83906W        W50447   8.780  38.351   1.989
83907W        W50448   5.679  12.014   2.095
83908W        W50449  32.028  26.578  14.380
83909W        W50450  10.480  11.416  11.045
83910W        W50451   1.376  43.171   1.321
83911W        W50452   3.240  38.867  12.896
83912W        W50453   7.976  32.972  13.679
83913W        W50454   3.776  41.973  12.562
83914W        W50455  21.970  41.416   3.689
83915W        W50456  44.306  12.544   1.065
83916W        W50457   5.419   2.179  12.872
83917W        W50458  12.718   8.820   4.641
83918W        W50459  25.045  32.031   2.314
83919W        W50460  25.264   0.798   3.748
83920W        W50461  38.415  35.405   0.249
83921W        W50462  26.254  23.097   1.752
83922W        W50463  27.146  13.338   3.496
83923W        W50464  13.333   1.220   2.926
83924W        W50465  28.908   7.802   0.440
83925W        W50466   4.819  39.424   4.638
83926W        W50467  29.874  16.203  13.430
83927W        W50468  13.867  10.135   2.293
83928W        W50469  25.164  33.617  12.844
83929W        W50470  35.424  16.589   1.750
83930W        W50471  29.504  33.115   2.717
83931W        W50472  38.315  44.398  14.204
83932W        W50473  35.384  43.287  11.998
83933W        W50474  32.118  27.437  12.943
83934W        W50475  21.539  37.969  14.931
83935W        W50476  14.311  23.226   2.363
83936W        W50477  22.929  35.361  14.119
83937W        W50478  22.241  16.018  12.562
83938W        W50479  25.433  15.054   3.011
83939W        W50480  23.050   0.724  13.364
83940W        W50481  23.530  24.661  11.721
83941W        W50482  15.716  17.354  14.982
83942W        W50483  10.610  35.881   1.830
83943W        W50484   6.192  43.891   4.467
83944W        W50485  14.564   5.772  10.709
83945W        W50486  36.927  36.355  13.852
83946W        W50487   9.129   0.704  10.768
83947W        W50488  30.620  38.396  13.970
83948W        W50489  23.075  39.011  10.609
83949W        W50490  24.350  17.133  11.123
83950W        W50491  10.827  38.057  12.810
83951W        W50492  41.933   5.144  12.580
83952W        W50493  13.773  14.563  11.585
83953W        W50494  24.856  36.431  13.466
83954W        W50495   2.417  30.499  10.531
83955W        W50496   6.340  13.721  10.809
83956W        W50497  26.557  32.466   1.863
83957W        W50498  24.190   9.840  14.762
83958W        W50499  30.850   4.162   3.962
83959W        W50500  35.715  14.332   1.303
83960W        W50501  12.238  37.944  14.220
83961W        W50502  43.794  25.652  14.305
83962W        W50503  23.870  39.360  12.491
83963W        W50504  10.838  26.034   3.782
83964W        W50505  36.369  27.900  13.792
83965W        W50506  18.648   2.032   2.722
83966W        W50507  18.483   2.807   1.799
83967W        W50508  21.575  41.840   4.733
83968W        W50509   5.677  36.711  14.852
83969W        W50510  10.680  27.465  12.112
83970W        W50511  28.469  42.968   3.255
83971W        W50512  44.261  43.233   3.836
83972W        W50513  17.274  12.567   3.704
83973W        W50514   1.610  33.007   3.787
83974W        W50515   1.913  10.319   3.146
83975W        W50516  13.382  13.991   2.929
83976W        W50517  13.071  11.902  10.692
83977W        W50518  13.735  44.499   2.728
83978W        W50519   9.273  19.593  10.986
83979W        W50520  14.088  36.489   2.133
83980W        W50521  43.299  10.112  12.386
83981W        W50522  19.477   4.398  11.374
83982W        W50523  24.518  37.509  11.761
83983W        W50524   8.710  38.255  13.988
83984W        W50525  12.432  23.051  11.646
83985W        W50526  23.185   0.468  12.900
83986W        W50527   8.835  37.354  12.023
83987W        W50528  44.796  18.920  10.408
83988W        W50529  43.500  25.947   0.368
83989W        W50530  24.236  31.268   3.393
83990W        W50531  41.932  13.314  10.771
83991W        W50532  19.011  42.691   0.485
83992W        W50533  21.163  20.144   4.545
83993W        W50534  23.156  42.315  11.633
83994W        W50535  26.473  19.211   2.160
83995W        W50536  30.640  13.808  12.936
83996W        W50537  17.666  34.643   0.800
83997W        W50538  24.243  44.334   1.835
83998W        W50539  37.519   3.768  10.280
83999W        W50540  39.557  25.479   2.572
84000W        W50541  12.040  11.670   5.010
84001W        W50542  12.718  11.191   3.187
84002W        W50543  38.307  10.275   2.149
84003W        W50544   3.991  12.891   1.786
84004W        W50545  14.208  21.561   1.740
84005W        W50546  11.735  42.524   2.698
84006W        W50547  41.788  24.006   4.557
84007W        W50548  42.903   7.148  14.996
84008W        W50549  39.657   9.666   4.105
84009W        W50550  44.052  10.814   0.523
84010W        W50551  34.067  19.713  11.042
84011W        W50552  31.478  34.450  11.918
84012W        W50553  16.013  28.383  14.123
84013W        W50554  39.058  34.507   1.673
84014W        W50555   2.507  16.560   4.568
84015W        W50556  25.979   8.298   4.506
84016W        W50557  19.532   4.625   1.224
84017W        W50558  11.934  41.010  12.872
84018W        W50559   9.880  42.567   3.719
84019W        W50560  35.539   5.169   3.670
84020W        W50561  34.477   3.967  13.769
84021W        W50562  40.198   7.230  11.019
84022W        W50563   7.641  38.045   1.829
84023W        W50564  37.557  35.589   2.809
84024W        W50565   3.252  13.123  12.989
84025W        W50566  18.813  42.398  13.826
84026W        W50567  33.583  32.948   1.704
84027W        W50568  42.681  25.463   1.237
84028W        W50569  32.007  27.730  14.961
84029W        W50570  37.514  28.481   4.594
84030W        W50571  18.065  24.253  11.326
84031W        W50572  32.887  42.800   5.234
84032W        W50573   2.369  31.044   2.884
84033W        W50574  16.060  17.208   4.647
84034W        W50575  44.397  35.459   2.636
84035W        W50576   7.445   6.802  13.547
84036W        W50577  20.091  23.282   0.257
84037W        W50578  40.904  16.310  14.440
84038W        W50579  24.721   8.892  11.588
84039W        W50580   3.389   5.974   1.988
84040W        W50581  44.812  31.922   2.359
84041W        W50582  37.963  21.316   2.283
84042W        W50583  12.094  31.387  13.319
84043W        W50584  10.362  39.334   3.153
84044W        W50585  12.082   4.900  14.883
84045W        W50586  29.057   6.439   1.675
84046W        W50587  36.517  18.671  13.754
84047W        W50588  12.867  20.416  12.894
84048W        W50589  22.546  24.715  11.176
84049W        W50590  36.968  17.100  12.102
84050W        W50591  44.393  10.437   0.359
84051W        W50592  42.495  14.151  12.791
84052W        W50593  28.453  40.895  12.454
84053W        W50594  44.473  13.943  12.222
84054W        W50595   9.692   2.758  13.896
84055W        W50596   6.244  27.595   4.376
84056W        W50597  41.999  24.737  14.335
84057W        W50598   3.678  44.301  10.677
84058W        W50599  17.194   7.192   4.628
84059W        W50600  23.726  40.350   1.298
84060W        W50601  39.044   4.482   0.267
84061W        W50602  12.205   1.277   4.206
84062W        W50603  29.090  42.021   3.902
84063W        W50604   7.771  11.385  14.023
84064W        W50605  32.946  41.991   1.511
84065W        W50606   1.218   3.835  10.399
84066W        W50607   7.174  19.315  12.884
84067W        W50608  31.091  33.088  12.530
84068W        W50609  41.063  34.287   1.259
84069W        W50610  37.209  41.522  12.381
84070W        W50611  16.935  19.842  13.924
84071W        W50612   0.405  39.743   1.349
84072W        W50613  23.180  29.099  14.232
84073W        W50614  39.043   6.476  14.884
84074W        W50615  34.110   8.382   0.684
84075W        W50616  43.610  14.744  10.152
84076W        W50617  17.103  41.487  12.520
84077W        W50618  41.354  15.776   4.382
84078W        W50619  12.035  12.430   1.238
84079W        W50620   9.615   7.670   3.186
84080W        W50621  16.074   9.331   1.720
84081W        W50622  43.688  13.360  12.048
84082W        W50623  25.066  15.111  14.344
84083W        W50624  17.671  44.072   1.680
84084W        W50625   3.280  23.719   0.380
84085W        W50626  20.825  42.679  12.574
84086W        W50627  27.086   7.526  12.195
84087W        W50628  15.191  38.934  12.813
84088W        W50629   5.361   9.855   0.337
84089W        W50630  14.158   1.911  13.328
84090W        W50631  17.074   1.912   3.347
84091W        W50632   6.785   9.082  14.060
84092W        W50633  34.765  42.800  14.873
84093W        W50634  33.501  44.175   1.354
84094W        W50635  26.969  34.432  10.809
84095W        W50636   8.698  26.624   3.966
84096W        W50637  13.202  35.253   2.395
84097W        W50638  30.040   2.490   3.264
84098W        W50639   7.715  26.531   5.035
84099W        W50640  19.212  32.677   3.576
84100W        W50641  31.398  21.014  14.968
84101W        W50642  31.640  15.345  12.950
84102W        W50643  31.680  19.959  12.600
84103W        W50644  25.265  10.815  11.752
84104W        W50645  43.546   4.194  11.612
84105W        W50646  21.163  25.619   4.515
84106W        W50647   3.013   6.228   4.139
84107W        W50648  36.121  12.824  13.267
84108W        W50649   2.987   9.264   5.038
84109W        W50650  20.693  20.626  13.799
84110W        W50651  37.432   3.762  10.789
84111W        W50652  34.104  25.836   2.865
84112W        W50653  42.591   2.701   0.434
84113W        W50654   2.376  24.447  12.517
84114W        W50655  11.684  32.492  13.925
84115W        W50656   3.232  28.105  14.542
84116W        W50657  19.606  42.539  12.105
84117W        W50658  43.217  15.126  12.726
84118W        W50659  17.792  41.793   2.801
84119W        W50660  15.270   6.843  13.090
84120W        W50661  43.884  14.592  13.431
84121W        W50662  36.154  29.042  12.987
84122W        W50663  15.146  35.152  11.114
84123W        W50664  32.585  18.519  11.641
84124W        W50665  13.445  29.884  10.735
84125W        W50666   5.461  36.838  13.466
84126W        W50667  20.538  27.243  12.519
84127W        W50668  30.271  22.505   0.232
84128W        W50669  36.639  34.124   1.192
84129W        W50670  35.156   6.909  14.140
84130W        W50671  43.934  37.686  14.011
84131W        W50672  11.401  31.462   3.291
84132W        W50673  40.921  15.769  14.469
84133W        W50674  22.237  35.872   4.409
84134W        W50675  40.222  26.418   4.440
84135W        W50676  18.884   9.121   4.595
84136W        W50677  18.212  43.772  12.824
84137W        W50678  44.436  21.520  12.960
84138W        W50679  32.324  16.956  11.125
84139W        W50680  34.683  19.191   2.196
84140W        W50681  42.027  38.956   5.407
84141W        W50682  32.154  44.421   0.639
84142W        W50683  11.635  34.848  13.929
84143W        W50684   1.328   9.801  13.142
84144W        W50685   3.805  19.357  11.619
84145W        W50686  27.968   8.445  13.671
84146W        W50687  40.376   6.780   2.314
84147W        W50688  31.227  14.329  10.541
84148W        W50689  31.622  23.665   0.870
84149W        W50690  36.372  11.051  14.915
84150W        W50691   3.150  28.597   4.302
84151W        W50692  33.173   9.429  12.473
84152W        W50693  44.423  44.385  14.115
84153W        W50694  38.488  23.077   4.932
84154W        W50695  31.694  26.446   1.347
84155W        W50696  26.510  28.690  10.937
84156W        W50697  44.349   2.671  11.427
84157W        W50698   4.291  21.154   4.086
84158W        W50699  19.944  24.429  11.249
84159W        W50700  22.252  24.207  13.932
84160W        W50701  43.045  24.182   2.615
84161W        W50702  27.797   8.462  11.146
84162W        W50703  24.596  23.042   1.930
84163W        W50704  13.211  41.079   3.215
84164W        W50705  22.143   0.468  12.888
84165W        W50706  12.582  44.357  12.038
84166W        W50707  12.815  26.574   3.656
84167W        W50708  43.275  34.745  11.196
84168W        W50709  40.742  44.306  11.117
84169W        W50710  12.465  15.190   1.350
84170W        W50711  34.662  13.156   0.439
84171W        W50712  23.548  30.699   4.587
84172W        W50713   7.961  36.545   3.314
84173W        W50714  25.767  20.763  11.416
84174W        W50715   8.003  36.041  11.788
84175W        W50716  21.179  19.854  13.040
84176W        W50717  21.096   2.987  13.580
84177W        W50718  12.655  24.024  14.554
84178W        W50719  29.943  18.408  11.633
84179W        W50720  31.905   9.389  12.073
84180W        W50721   2.550  21.166  12.045
84181W        W50722  40.732  25.189  14.303
84182W        W50723  16.624  16.614   2.720
84183W        W50724   8.288  38.827   4.492
84184W        W50725  41.652  10.922   3.932
84185W        W50726   0.946  17.623  13.868
84186W        W50727   2.833   2.686   1.653
84187W        W50728  29.596  30.824   3.201
84188W        W50729  15.664  14.054   4.379
84189W        W50730   7.918  41.533   4.139
84190W        W50731  17.174  23.287  11.000
84191W        W50732  40.188  23.419  10.302
84192W        W50733  30.160   5.766   0.784
84193W        W50734  27.589  34.301   3.830
84194W        W50735  37.406   4.259   1.476
84195W        W50736  17.219  40.361   0.270
84196W        W50737  22.624  18.028   3.688
84197W        W50738   9.779  15.545  13.031
84198W        W50739   6.152  39.489  12.862
84199W        W50740  42.343  34.369   3.305
84200W        W50741  13.133   5.370  13.248
84201W        W50742   3.898  14.101  13.078
84202W        W50743  10.326  31.423   1.643
84203W        W50744   6.653  40.316  13.992
84204W        W50745  10.649  38.337  13.853
84205W        W50746  44.984  15.833   1.754
84206W        W50747   6.693  17.112  10.697
84207W        W50748  44.280  26.017  12.526
84208W        W50749   4.366  37.053   2.510
84209W        W50750  43.323  38.127  11.998
84210W        W50751   0.298  20.951   0.853
84211W        W50752   4.981  12.678  13.435
84212W        W50753  10.846  33.176  14.804
84213W        W50754  41.607  16.569   0.938
84214W        W50755  36.077  13.069  10.641
84215W        W50756  22.157  28.605   2.872
84216W        W50757  18.763  22.644   1.706
84217W        W50758  37.920  37.861  10.538
84218W        W50759  35.361   0.356  10.973
84219W        W50760  14.256  33.911   2.399
84220W        W50761  21.511   2.231  13.019
84221W        W50762  14.181  22.618   4.478
84222W        W50763  39.787  25.010   1.877
84223W        W50764  44.402  33.653   2.391
84224W        W50765  18.471   8.846   1.730
84225W        W50766  19.556   7.208  11.025
84226W        W50767  41.450  37.424  12.945
84227W        W50768  28.637   5.991  13.168
84228W        W50769  17.024  25.167  12.661
84229W        W50770  43.432  10.195   0.658
84230W        W50771  20.660   1.350  13.859
84231W        W50772  13.231   0.254  11.265
84232W        W50773  24.289  29.603  13.082
84233W        W50774  42.929   8.951  11.069
84234W        W50775  23.690   3.494  11.810
84235W        W50776  26.015  43.964   3.127
84236W        W50777  27.651   5.690   2.572
84237W        W50778  18.526  31.605  11.428
84238W        W50779   5.473   1.511  13.605
84239W        W50780  13.852   6.929   0.815
84240W        W50781   3.848   5.699  10.289
84241W        W50782  25.621  42.210   3.608
84242W        W50783  22.636   7.435  13.846
84243W        W50784   3.665   4.859   5.014
84244W        W50785   9.415  30.166   1.149
84245W        W50786  13.400  35.118   3.257
84246W        W50787  11.122   5.710  12.695
84247W        W50788  16.534  17.120  10.092
84248W        W50789  34.342  21.085   2.762
84249W        W50790  40.609  15.358   4.565
84250W        W50791  42.445  28.944  12.423
84251W        W50792  43.118   5.989  14.136
84252W        W50793   7.604   1.742   4.640
84253W        W50794  26.618  11.408   3.448
84254W        W50795  25.864  38.512   2.532
84255W        W50796  36.125  29.197  11.652
84256W        W50797   8.198  16.973  13.924
84257W        W50798   6.407  42.406   3.714
84258W        W50799  30.663  32.042  12.409
84259W        W50800  10.384  30.846  13.487
84260W        W50801  44.310  19.142   0.074
84261W        W50802  33.896  10.759  10.567
84262W        W50803  30.524  16.000   2.439
84263W        W50804   3.068  31.950   2.782
84264W        W50805   4.065   4.201  12.651
84265W        W50806   4.383  26.665  13.946
84266W        W50807  43.009   1.900  14.931
84267W        W50808   5.549   0.249   2.599
84268W        W50809  17.345  32.685   1.792
84269W        W50810  11.852  41.725   3.169
84270W        W50811   1.308  39.600   3.249
84271W        W50812   5.899   8.647  13.694
84272W        W50813  32.026  38.897  13.511
84273W        W50814   8.692   4.651  12.491
84274W        W50815  19.113  38.843  13.453
84275W        W50816  25.925  13.698  14.420
84276W        W50817  13.318  19.183   3.050
84277W        W50818   7.032  22.437  12.578
84278W        W50819   1.799   1.785   3.982
84279W        W50820  14.858  28.491  14.756
84280W        W50821   2.054  42.494  11.500
84281W        W50822  25.604  17.074  13.151
84282W        W50823  35.974  28.749   3.641
84283W        W50824  28.935  23.597   3.693
84284W        W50825  29.756  17.731  12.460
84285W        W50826  10.254  30.720   3.445
84286W        W50827  28.236  25.270  12.090
84287W        W50828  27.737  20.958  13.492
84288W        W50829  22.017  22.995   1.083
84289W        W50830  33.634  22.856  13.817
84290W        W50831  13.382  10.326   1.409
84291W        W50832  14.065  23.454  12.447
84292W        W50833  36.984  20.281  13.882
84293W        W50834  12.665  20.554   3.683
84294W        W50835  36.919  35.845   1.857
84295W        W50836  30.157  22.478  11.589
84296W        W50837  42.268   1.519  10.510
84297W        W50838  32.637  34.548   2.693
84298W        W50839  19.547  12.870  11.693
84299W        W50840   6.155  20.615   0.957
84300W        W50841  41.402   7.979   0.196
84301W        W50842  10.981   1.161   1.916
84302W        W50843  26.624   1.518  12.524
84303W        W50844  30.940  31.590   0.238
84304W        W50845  12.667  34.170   3.540
84305W        W50846  19.428  30.179   1.442
84306W        W50847  16.425  34.091   1.739
84307W        W50848  40.817  32.405  14.654
84308W        W50849  29.394  31.190   1.433
84309W        W50850   8.420  42.309   1.136
84310W        W50851  17.783  27.668   2.530
84311W        W50852  36.359   5.408   1.390
84312W        W50853   4.428  37.106  13.396
84313W        W50854  34.464  37.671   0.316
84314W        W50855  33.535  11.815  13.017
84315W        W50856  23.722  42.956  10.649
84316W        W50857   7.900  39.284  13.056
84317W        W50858   8.741  34.376  14.149
84318W        W50859  32.210  25.137  14.924
84319W        W50860   7.231  41.087   0.977
84320W        W50861   5.441   0.748  13.848
84321W        W50862  14.357  19.621  11.475
84322W        W50863  23.700  12.720  14.525
84323W        W50864  41.780  10.131  13.083
84324W        W50865  16.433   3.294  13.072
84325W        W50866   7.026  26.345  12.127
84326W        W50867  26.051   2.120   2.361
84327W        W50868  27.691  33.169   2.315
84328W        W50869  27.661   6.821  12.458
84329W        W50870  22.235  21.501   1.051
84330W        W50871  38.746  20.994   2.665
84331W        W50872  35.318  29.808   3.619
84332W        W50873   2.840  13.392   1.231
84333W        W50874   1.194  39.113   3.379
84334W        W50875  11.705  11.350   0.760
84335W        W50876  14.086  31.804  14.408
84336W        W50877  22.208   2.476  10.709
84337W        W50878   2.045  25.434   9.824
84338W        W50879   5.268  21.557   2.338
84339W        W50880  31.103   7.933  12.965
84340W        W50881  17.225  36.537  10.247
84341W        W50882  12.581  44.062  14.336
84342W        W50883   1.386  44.661   1.339
84343W        W50884   3.647  43.441  14.863
84344W        W50885  27.001  15.166   3.242
84345W        W50886  11.159  18.605   0.465
84346W        W50887  12.796  31.572   1.686
84347W        W50888  43.318   2.565   1.437
84348W        W50889   4.795  29.801   9.854
84349W        W50890  39.559  43.265  11.415
84350W        W50891  38.725  22.608   4.717
84351W        W50892  33.749  28.557   0.911
84352W        W50893  35.134   3.876  11.369
84353W        W50894  13.058  28.512   0.373
84354W        W50895  22.020  18.936  11.964
84355W        W50896  11.325  12.937   3.383
84356W        W50897  15.156  18.996   2.662
84357W        W50898  12.245  24.229   3.995
84358W        W50899  24.475   3.198  10.259
84359W        W50900  39.550   7.143   2.217
84360W        W50901  16.746  16.739   1.316
84361W        W50902   4.410  26.996   9.665
84362W        W50903  30.558  21.013   0.307
84363W        W50904  21.071   6.621   1.701
84364W        W50905  12.924  20.081   4.432
84365W        W50906  17.673  11.022   2.711
84366W        W50907  29.681  19.602   2.605
84367W        W50908   7.486  39.403   1.694
84368W        W50909  38.970  14.792  11.420
84369W        W50910  21.122   8.782  10.659
84370W        W50911  29.483  29.760   4.161
84371W        W50912  43.695  24.495   3.775
84372W        W50913  26.193  37.203   1.288
84373W        W50914  20.461  25.257  14.254
84374W        W50915  30.356  26.519   4.232
84375W        W50916   2.507  13.976  14.863
84376W        W50917   3.732  34.911  11.053
84377W        W50918  18.947  30.412  10.490
84378W        W50919   2.154   8.715  12.550
84379W        W50920  28.585  12.448  14.562
84380W        W50921  34.973  10.607  13.498
84381W        W50922  42.714  16.185   4.456
84382W        W50923  12.424   4.800  10.540
84383W        W50924   7.844  13.895  13.845
84384W        W50925  21.836  11.617  11.088
84385W        W50926   1.217   1.232   3.557
84386W        W50927  27.663  40.451  10.362
84387W        W50928  11.359  26.082  10.606
84388W        W50929  43.076   9.736  13.293
84389W        W50930   1.255  33.917  11.952
84390W        W50931  38.207   1.471  11.024
84391W        W50932  37.353  28.706   2.099
84392W        W50933   3.382   7.827   1.273
84393W        W50934  35.759  39.882   0.213
84394W        W50935  31.616  34.405   0.178
84395W        W50936  38.176   5.438   3.253
84396W        W50937  37.418  18.462  12.784
84397W        W50938  36.100  20.147   0.108
84398W        W50939  41.918  23.913   2.830
84399W        W50940  36.375  41.244   4.353
84400W        W50941   9.359  39.081  11.298
84401W        W50942   5.767   1.754   2.231
84402W        W50943  41.010  11.100   4.510
84403W        W50944  14.599  41.877  13.457
84404W        W50945  15.842  27.141   2.134
84405W        W50946  17.486   4.950   3.199
84406W        W50947   4.702  42.621  12.282
84407W        W50948   5.680  32.821   2.666
84408W        W50949  38.348  16.797   5.051
84409W        W50950  23.016   8.330  14.389
84410W        W50951   4.675  40.530   1.748
84411W        W50952  12.637  28.968   3.266
84412W        W50953  28.114  21.638  13.968
84413W        W50954  20.477  32.606  14.978
84414W        W50955  27.985  44.514   3.404
84415W        W50956  42.657  12.852  12.909
84416W        W50957  37.478  25.036  11.247
84417W        W50958  42.812  15.061  13.782
84418W        W50959  29.614  11.827   4.117
84419W        W50960   6.792  37.006   3.384
84420W        W50961  27.752  42.032   3.116
84421W        W50962  17.505  25.463   0.343
84422W        W50963  19.407  38.788  12.705
84423W        W50964  29.724  13.309  13.609
84424W        W50965  12.746  36.761   2.897
84425W        W50966   7.299   2.434  14.904
84426W        W50967   6.391  10.290   4.273
84427W        W50968  11.767  14.168  11.199
84428W        W50969  38.956  23.118  12.908
84429W        W50970   3.369  40.890   1.645
84430W        W50971  16.813  20.950  12.066
84431W        W50972  24.374  19.742  13.420
84432W        W50973  37.531  36.921   3.610
84433W        W50974  21.182  26.611   1.667
84434W        W50975  36.336  42.927   0.953
84435W        W50976  43.453  42.847   4.609
84436W        W50977   4.948  33.555   4.088
84437W        W50978  37.792  37.363   4.351
84438W        W50979  34.119   9.175   2.906
84439W        W50980  40.552  15.777  13.063
84440W        W50981  22.036  44.492   4.456
84441W        W50982  42.481  18.613  10.619
84442W        W50983  19.735  25.512   4.923
84443W        W50984   6.734  40.098   3.200
84444W        W50985  34.188  17.841  10.841
84445W        W50986  11.587  31.151   4.529
84446W        W50987  18.531   6.192  14.547
84447W        W50988  18.488  33.724  12.044
84448W        W50989   9.515   9.713  14.527
84449W        W50990  42.088   9.844   2.226
84450W        W50991  27.776  21.956  11.081
84451W        W50992   0.687  40.837   2.901
84452W        W50993  22.661  23.422  12.693
84453W        W50994  38.553  43.290   0.209
84454W        W50995  32.939  22.616   0.627
84455W        W50996  15.259  44.126   4.220
84456W        W50997   0.718  20.679   4.748
84457W        W50998  42.252  20.977  14.384
84458W        W50999  37.323  27.696  14.013
84459W        W51000  20.277  13.937  12.992
84460W        W51001  33.516  33.148  12.148
84461W        W51002  19.879   7.569  12.515
84462W        W51003  21.056  25.135   1.891
84463W        W51004  21.429  24.821   2.797
84464W        W51005  13.241  13.854  10.475
84465W        W51006  38.492  19.354   2.773
84466W        W51007  43.311   9.051   4.877
84467W        W51008  27.346   8.934   0.348
84468W        W51009  38.863  25.996   0.196
84469W        W51010  25.231  24.411  14.698
84470W        W51011   9.145  31.293   4.219
84471W        W51012  11.842  36.347  13.240
84472W        W51013  15.569  43.284  14.029
84473W        W51014  15.254  24.666   2.639
84474W        W51015  41.556  43.550  11.818
84475W        W51016   4.899   2.817   9.764
84476W        W51017  33.607  41.732   2.582
84477W        W51018  30.112   0.974  10.762
84478W        W51019  26.545  43.022   0.912
84479W        W51020  42.378   1.149  13.751
84480W        W51021  22.292   0.558  14.529
84481W        W51022  41.817  11.807   3.585
84482W        W51023  36.450  24.671   2.232
84483W        W51024   5.616  11.733   3.624
84484W        W51025   1.387  40.734   1.372
84485W        W51026  29.332  17.405  12.478
84486W        W51027  34.525   6.824  13.371
84487W        W51028   0.390  30.714  10.783
84488W        W51029  19.937  43.955  14.750
84489W        W51030  22.171  28.847   2.327
84490W        W51031  43.536  38.781   1.246
84491W        W51032  14.474  36.590  13.138
84492W        W51033   6.127  35.267  11.594
84493W        W51034  18.332  14.060   2.192
84494W        W51035   1.392  24.035   2.759
84495W        W51036   9.179  21.115   3.687
84496W        W51037  25.485  28.707  11.310
84497W        W51038  19.458  41.324   1.371
84498W        W51039  16.078  33.064  11.186
84499W        W51040  29.365  20.124   3.720
84500W        W51041   1.774  11.160   1.363
84501W        W51042  31.940  23.711   2.599
84502W        W51043   6.180  20.771  12.476
84503W        W51044  38.341   0.362   3.618
84504W        W51045  43.459  30.625  11.725
84505W        W51046  26.546   1.506  10.972
84506W        W51047  28.478  17.380   4.493
84507W        W51048  20.225   2.420   3.420
84508W        W51049  25.110  25.454   2.857
84509W        W51050  15.426  26.295  11.594
84510W        W51051  33.474  18.558  14.944
84511W        W51052  24.201  18.755  13.959
84512W        W51053  36.886  40.947   0.821
84513W        W51054  42.539  11.164   1.896
84514W        W51055  11.708  16.317   1.211
84515W        W51056  22.725  15.622   3.816
84516W        W51057  39.399  26.622   4.150
84517W        W51058  34.875   9.674   0.456
84518W        W51059  26.697  25.003   1.174
84519W        W51060   8.280  41.780  14.057
84520W        W51061   8.842   2.230   0.688
84521W        W51062  22.085   1.826   2.236
84522W        W51063  40.386  16.549  11.958
84523W        W51064  15.219  15.064  13.462
84524W        W51065  38.312  25.786  13.009
84525W        W51066  43.663  40.000   1.312
84526W        W51067   5.772  21.112   4.214
84527W        W51068  33.529   7.686   3.576
84528W        W51069  44.304  35.503   4.066
84529W        W51070   2.940  18.616  13.997
84530W        W51071  26.055  10.335  11.657
84531W        W51072  11.422  40.199  10.967
84532W        W51073  38.503  23.080   2.380
84533W        W51074   2.816  33.179  14.743
84534W        W51075  14.998  35.625  10.976
84535W        W51076  27.158  32.970   0.953
84536W        W51077  39.560  23.577  14.955
84537W        W51078  31.354  33.131   4.137
84538W        W51079  36.454  21.642   2.343
84539W        W51080  30.680  15.584  12.394
84540W        W51081  26.287  22.515   4.938
84541W        W51082  17.048  25.540   2.737
84542W        W51083  36.410  27.572   0.911
84543W        W51084  28.449   3.399   4.514
84544W        W51085  32.711  37.448  11.081
84545W        W51086  31.506   1.819   1.719
84546W        W51087   9.809   5.228   4.636
84547W        W51088  13.058   5.678  12.520
84548W        W51089  17.561  39.360   2.242
84549W        W51090  12.386  36.953   0.239
84550W        W51091  16.607   7.666  11.829
84551W        W51092  25.167  30.996  12.891
84552W        W51093  24.091  11.910   4.567
84553W        W51094  28.585   6.183   0.496
84554W        W51095  31.351  16.785   5.013
84555W        W51096  14.334   4.697   2.810
84556W        W51097  41.925  44.196  10.263
84557W        W51098  33.228  15.530   4.169
84558W        W51099   9.931  40.635  13.349
84559W        W51100  44.947  25.156   1.843
84560W        W51101   7.076  32.583  10.983
84561W        W51102  37.071  24.653   4.932
84562W        W51103   4.048  18.732  12.004
84563W        W51104  32.844   3.485   1.975
84564W        W51105   4.337   6.317  10.648
84565W        W51106  37.285  43.546  13.786
84566W        W51107  39.240  14.386  12.166
84567W        W51108  18.632  18.618   0.006
84568W        W51109   9.455  30.856   1.787
84569W        W51110  39.523  33.448  14.516
84570W        W51111  11.703   9.464   0.639
84571W        W51112  36.604  22.464  13.032
84572W        W51113  38.423   9.453   2.718
84573W        W51114  17.804  13.739   1.431
84574W        W51115   1.938  34.483   4.435
84575W        W51116  37.064  20.186   4.636
84576W        W51117  12.661  16.715   3.807
84577W        W51118   8.517  22.086  14.069
84578W        W51119  32.293  28.252   2.171
84579W        W51120  26.204   3.523   4.168
84580W        W51121  41.544  30.406   4.739
84581W        W51122  20.832   8.152   1.271
84582W        W51123  15.123  19.521   0.729
84583W        W51124  42.742   7.912  13.804
84584W        W51125  30.833  14.750   0.691
84585W        W51126  18.712  30.904  14.515
84586W        W51127  30.472   7.385   4.569
84587W        W51128  43.225  21.015  14.807
84588W        W51129  34.641   0.215  13.983
84589W        W51130  43.418  29.784   2.760
84590W        W51131  10.850  11.309  14.699
84591W        W51132  24.080  17.755   3.454
84592W        W51133  35.350  18.096  14.332
84593W        W51134  26.993  16.799  11.631
84594W        W51135  26.060   2.975  11.515
84595W        W51136   7.281  34.596  12.729
84596W        W51137  24.009  44.909  13.788
84597W        W51138  32.366  11.928  12.429
84598W        W51139  20.069  17.513  11.986
84599W        W51140  12.536  39.640  12.127
84600W        W51141   9.321  10.569   0.880
84601W        W51142  24.737   1.433   4.118
84602W        W51143  39.376  33.352   3.315
84603W        W51144  32.093  23.256  14.285
84604W        W51145  17.407   6.344   3.307
84605W        W51146  37.135   9.862  13.355
84606W        W51147  38.601   3.377   0.344
84607W        W51148  30.908  39.035  11.660
84608W        W51149  26.074  21.242  14.836
84609W        W51150   1.873  23.929   4.632
84610W        W51151   1.448  44.481  12.384
84611W        W51152  20.980  21.588  10.659
84612W        W51153   6.178  35.533  14.979
84613W        W51154  28.237  33.508  11.567
84614W        W51155   0.313  10.918   3.176
84615W        W51156  32.701   7.574   0.739
84616W        W51157  43.732  21.651   0.293
84617W        W51158  33.943  18.289   4.253
84618W        W51159   7.631  36.868   3.069
84619W        W51160   4.323  14.391   2.300
84620W        W51161  44.777   3.001   3.607
84621W        W51162  38.465  24.828   3.814
84622W        W51163  38.370  33.161   3.057
84623W        W51164  20.470  14.322  13.274
84624W        W51165   3.986  14.691  12.384
84625W        W51166   3.997  22.693  14.478
84626W        W51167  16.793  42.814  11.563
84627W        W51168   9.688  43.011  12.040
84628W        W51169  21.209   7.893  11.718
84629W        W51170  12.516   6.638  13.607
84630W        W51171  41.398  31.309  12.040
84631W        W51172  14.652  37.579  13.516
84632W        W51173  44.575  26.290   3.661
84633W        W51174  15.636  32.828  11.081
84634W        W51175   0.191  30.473   5.123
84635W        W51176   6.692  36.334  10.988
84636W        W51177  10.222  36.066  13.861
84637W        W51178  33.020  37.394   1.455
84638W        W51179  43.519  39.753  12.786
84639W        W51180  26.214  28.638  14.365
84640W        W51181  44.900  27.406   1.968
84641W        W51182  21.982  18.155   1.841
84642W        W51183  36.105  22.088  14.907
84643W        W51184  38.777  17.195  13.963
84644W        W51185  16.242  36.620   0.871
84645W        W51186   0.646  17.092   4.671
84646W        W51187   7.210   7.442   3.704
84647W        W51188  31.201  20.589   0.968
84648W        W51189  12.545  16.047  10.598
84649W        W51190  41.557  18.283   1.186
84650W        W51191   3.345  10.126  13.436
84651W        W51192  43.225   9.148   3.589
84652W        W51193   8.697  18.241  12.895
84653W        W51194  17.033  30.407  10.296
84654W        W51195  22.603  21.271   1.338
84655W        W51196  11.585  30.496  10.672
84656W        W51197   3.854  10.473   2.843
84657W        W51198  17.810  43.359  14.454
84658W        W51199  41.962  12.987   3.597
84659W        W51200  29.962   5.513  14.955
84660W        W51201  43.995  31.529   0.304
84661W        W51202  20.882  12.581   3.775
84662W        W51203  37.681  37.865  12.907
84663W        W51204  28.895   8.418   4.262
84664W        W51205  37.409  36.468   0.914
84665W        W51206  16.326  31.480   1.853
84666W        W51207  32.676  10.600  11.607
84667W        W51208  37.480  28.101   2.802
84668W        W51209  41.325  18.949   3.698
84669W        W51210   4.249   3.845   3.577
84670W        W51211  38.461  30.808  13.343
84671W        W51212  26.043  38.347   4.905
84672W        W51213  43.444  36.872   2.989
84673W        W51214   8.443  11.609   0.598
84674W        W51215   8.085  20.203   0.416
84675W        W51216  24.945  10.816  14.370
84676W        W51217  13.635  19.729  13.496
84677W        W51218   8.904   6.730   0.290
84678W        W51219  32.566  30.906   1.758
84679W        W51220  41.165   6.261  12.017
84680W        W51221  43.593   6.650   1.756
84681W        W51222   9.361   2.199   0.278
84682W        W51223  10.931  34.913  10.662
84683W        W51224  14.312  33.662   3.996
84684W        W51225  36.849  30.592  12.452
84685W        W51226  28.427  38.779   4.641
84686W        W51227   0.897  43.929   0.382
84687W        W51228  12.247  37.283  12.154
84688W        W51229  22.180   5.937  14.692
84689W        W51230  15.827  19.100  13.909
84690W        W51231   8.878  43.890   1.849
84691W        W51232  43.408  26.685   3.742
84692W        W51233  13.456   2.714  11.007
84693W        W51234   8.423   5.178   1.661
84694W        W51235  21.757  12.234   0.792
84695W        W51236  22.199  24.711   4.693
84696W        W51237   3.166  23.024   3.250
84697W        W51238  30.930  31.325   4.886
84698W        W51239  30.464  10.187  13.854
84699W        W51240   1.624   3.366  10.214
84700W        W51241  21.009  14.843  13.533
84701W        W51242  34.442  35.154  13.809
84702W        W51243  10.373  18.816  11.941
84703W        W51244   7.940   5.793  11.599
84704W        W51245  36.367   5.907  10.889
84705W        W51246  11.765  30.988   0.398
84706W        W51247  29.239   1.844   2.267
84707W        W51248   1.251  43.339   3.472
84708W        W51249  20.085  41.255  12.035
84709W        W51250  37.188   9.042  13.498
84710W        W51251  31.638  35.978   4.073
84711W        W51252  33.407  30.560   2.738
84712W        W51253   6.367  34.287   1.399
84713W        W51254  39.953  30.273   4.117
84714W        W51255  18.993  19.099  11.501
84715W        W51256  21.191  10.241   0.759
84716W        W51257   7.498  33.948   4.535
84717W        W51258  15.220  30.662  11.709
84718W        W51259  35.122   5.412   1.860
84719W        W51260  41.734  23.991  12.464
84720W        W51261   6.569   3.864  12.123
84721W        W51262  33.326  33.351   0.889
84722W        W51263   1.167  25.138   4.662
84723W        W51264  42.364   6.130   1.328
84724W        W51265  26.018  26.686  11.395
84725W        W51266  39.859  36.925  11.478
84726W        W51267  25.714  38.090   1.295
84727W        W51268   7.114   4.319  13.416
84728W        W51269  26.660   9.393  14.318
84729W        W51270  21.955  26.846  12.945
84730W        W51271  27.604  37.740  12.889
84731W        W51272   6.785  34.412   1.077
84732W        W51273  15.617  16.655   3.089
84733W        W51274  15.833   4.718   3.671
84734W        W51275   3.759  42.200  14.316
84735W        W51276   8.189  17.433  12.370
84736W        W51277  37.555   2.774  11.563
84737W        W51278  42.952  12.636  14.928
84738W        W51279   8.900  11.105  10.382
84739W        W51280  27.982   7.246   1.707
84740W        W51281   1.038   3.161  12.590
84741W        W51282  25.945  41.728  14.343
84742W        W51283  20.282  35.472   0.789
84743W        W51284  38.628  15.210   3.059
84744W        W51285  44.032   7.872   4.801
84745W        W51286  36.500   4.969  10.701
84746W        W51287  29.716  38.715  14.973
84747W        W51288  15.909  20.271  12.088
84748W        W51289  16.731  17.741   4.616
84749W        W51290  19.313  44.919   3.478
84750W        W51291  25.686   8.142  14.770
84751W        W51292  37.644   8.885  13.259
84752W        W51293   7.747  32.559   1.512
84753W        W51294  17.277  36.986   4.226
84754W        W51295  32.402  25.045   2.215
84755W        W51296  35.054  42.027   0.299
84756W        W51297  22.730   4.478  13.360
84757W        W51298  13.379   8.698  10.723
84758W        W51299   1.508  27.468   2.783
84759W        W51300  18.649   4.300   2.451
84760W        W51301  43.720  32.166  12.061
84761W        W51302  21.009  18.802   4.113
84762W        W51303   4.069  29.006  14.476
84763W        W51304   8.653   7.935   2.723
84764W        W51305  11.109  22.972  11.947
84765W        W51306  43.048  29.634  14.295
84766W        W51307   2.979  38.343  11.154
84767W        W51308  12.407   5.977   4.239
84768W        W51309  28.996  20.293   0.292
84769W        W51310  26.444  25.783   0.422
84770W        W51311  35.800   0.911   0.140
84771W        W51312   7.987  10.778   0.447
84772W        W51313  13.711  12.413  12.528
84773W        W51314  24.605  36.589   3.629
84774W        W51315  40.757   6.246  10.927
84775W        W51316  34.843  29.178  11.382
84776W        W51317  41.530  21.695   2.268
84777W        W51318  27.094  35.316   3.749
84778W        W51319  11.007  13.172   2.674
84779W        W51320  12.183  43.196   4.220
84780W        W51321   9.630  38.081  13.420
84781W        W51322  39.933  11.857  14.874
84782W        W51323  28.696  42.466   2.711
84783W        W51324  42.225  44.415  11.114
84784W        W51325  42.129  43.871   4.530
84785W        W51326  44.475  31.837  13.408
84786W        W51327  21.482  44.006   1.324
84787W        W51328  37.103  29.580  12.525
84788W        W51329  25.983  38.554  11.047
84789W        W51330  31.446  29.168   2.652
84790W        W51331  21.637  26.480  13.937
84791W        W51332  36.097  10.125  14.327
84792W        W51333  39.426  43.335   0.450
84793W        W51334  32.426  15.157   3.623
84794W        W51335   2.300  19.941  10.738
84795W        W51336  29.680  24.026   0.034
84796W        W51337  14.698  26.630   4.340
84797W        W51338  11.279  38.430   2.725
84798W        W51339  29.405  12.512   3.699
84799W        W51340  13.328  11.903  11.675
84800W        W51341  37.309  43.272   2.243
84801W        W51342  40.865  10.593   2.674
84802W        W51343  24.483  12.835   1.849
84803W        W51344  43.445   7.943   1.214
84804W        W51345  23.570  23.226  11.954
84805W        W51346  15.181  15.668  12.442
84806W        W51347   7.811   3.022   0.890
84807W        W51348  36.079  19.762  10.752
84808W        W51349  40.999  18.125   1.826
84809W        W51350  29.698  32.574   4.105
84810W        W51351   9.564  15.077  11.910
84811W        W51352  14.540  10.315   1.139
84812W        W51353  24.084   7.632  11.515
84813W        W51354  44.147  36.942   3.569
84814W        W51355  29.657  10.183   0.536
84815W        W51356  39.058   4.526   1.197
84816W        W51357  43.346   7.163  12.988
84817W        W51358   7.282  21.297   0.662
84818W        W51359  31.894  44.437   2.701
84819W        W51360  32.624   6.783  13.854
84820W        W51361  12.182   6.120   1.412
84821W        W51362   5.254  29.614   1.312
84822W        W51363  14.684   4.788  11.241
84823W        W51364   6.242  37.312   2.291
84824W        W51365  37.820  39.241  13.104
84825W        W51366  16.845  22.781   3.310
84826W        W51367  23.459   9.722  12.122
84827W        W51368  42.962   3.746  11.748
84828W        W51369  44.505  39.441  12.908
84829W        W51370  20.283  42.242  11.828
84830W        W51371  17.187  31.085   0.882
84831W        W51372  44.207  44.823  14.926
84832W        W51373   4.485   0.915  11.571
84833W        W51374  39.783  27.063  11.241
84834W        W51375  34.948  15.652   4.626
84835W        W51376  44.903  40.396   0.980
84836W        W51377  22.302  10.817   4.545
84837W        W51378  27.686  25.062  10.777
84838W        W51379  30.070  24.562  14.494
84839W        W51380  39.577  17.599  12.478
84840W        W51381   1.837  42.698  14.407
84841W        W51382  44.197  13.137  11.185
84842W        W51383  27.776  26.775   2.789
84843W        W51384  43.258  14.986   3.695
84844W        W51385  27.298  35.585   1.181
84845W        W51386  31.414   2.948   1.388
84846W        W51387  31.164  16.142   1.386
84847W        W51388  25.567  20.428  13.489
84848W        W51389  14.150  37.088  14.515
84849W        W51390   9.280   7.833  14.878
84850W        W51391  10.797  39.595  13.032
84851W        W51392   3.907   2.141   1.085
84852W        W51393  44.067  24.687   0.528
84853W        W51394  38.827  13.570  14.370
84854W        W51395  27.262  43.050  11.247
84855W        W51396   4.226   2.298  13.422
84856W        W51397  29.170   3.377  14.195
84857W        W51398  23.014   7.764   4.116
84858W        W51399  31.943  12.667   0.778
84859W        W51400  19.331  43.976   3.214
84860W        W51401  20.658  15.476  13.631
84861W        W51402  41.275  29.464   1.495
84862W        W51403  22.792  24.926   1.437
84863W        W51404  22.043   8.414   2.229
84864W        W51405  10.430   2.959   2.800
84865W        W51406   1.220  40.552  14.917
84866W        W51407  16.551   4.154   2.340
84867W        W51408  13.710  35.372   4.682
84868W        W51409  34.523  31.582   2.398
84869W        W51410  27.240  21.493  11.655
84870W        W51411  20.961  20.020  13.489
84871W        W51412  30.771  41.965   0.018
84872W        W51413  39.781  20.502  12.569
84873W        W51414  21.228  10.805  11.731
84874W        W51415   0.287  31.076   4.112
84875W        W51416  13.107  26.817   0.853
84876W        W51417   2.218   1.928   3.046
84877W        W51418  23.179  32.417   0.665
84878W        W51419  27.466   3.247  10.040
84879W        W51420   5.396  22.771  13.514
84880W        W51421  40.994  26.017   1.681
84881W        W51422  17.721   5.189   1.309
84882W        W51423  13.197   8.772   3.919
84883W        W51424  37.092  40.930  11.551
84884W        W51425  31.467  41.342  14.516
84885W        W51426  14.524   3.678  14.625
84886W        W51427  25.643  39.816  14.516
84887W        W51428   4.656  38.369  10.618
84888W        W51429  36.353  40.533   3.565
84889W        W51430  31.673  28.725  12.749
84890W        W51431   7.743  21.405   0.920
84891W        W51432   3.428  25.207  11.585
84892W        W51433   5.625  31.006  13.524
84893W        W51434  26.724  12.046  10.570
84894W        W51435  23.276  14.830   3.488
84895W        W51436   0.780  41.586  10.316
84896W        W51437  23.706  21.144  12.651
84897W        W51438   2.683  34.383   0.610
84898W        W51439   3.884  21.944   0.847
84899W        W51440  30.277  39.992  12.573
84900W        W51441  15.617  20.718  12.052
84901W        W51442  32.132   6.268  10.975
84902W        W51443  41.156  36.615   4.014
84903W        W51444  37.513  33.673   4.608
84904W        W51445  33.599  14.774   4.368
84905W        W51446  27.175  37.892  11.016
84906W        W51447  25.166   4.212   3.651
84907W        W51448  33.087  14.228   0.338
84908W        W51449  12.832  26.500  12.424
84909W        W51450  18.189  32.073   2.305
84910W        W51451  42.350  16.785   5.033
84911W        W51452  18.751  38.755  14.292
84912W        W51453  43.763  38.675  12.119
84913W        W51454  21.536  39.245  13.123
84914W        W51455  25.626  44.747  10.826
84915W        W51456  11.927  34.640  10.694
84916W        W51457  23.981  18.734  14.802
84917W        W51458  38.222  44.853   4.935
84918W        W51459  27.750  24.297  11.586
84919W        W51460  41.106  27.091  14.575
84920W        W51461   4.713  16.307   4.469
84921W        W51462  39.155  19.384  13.884
84922W        W51463  26.579   8.173  14.810
84923W        W51464  18.645  14.857  12.552
84924W        W51465   1.902  12.655   3.206
84925W        W51466   6.821   1.461  10.056
84926W        W51467   3.761   4.349  12.268
84927W        W51468  37.896  33.345   0.851
84928W        W51469  24.071  35.860   2.683
84929W        W51470  13.825  30.124   4.589
84930W        W51471   4.823  35.510  12.136
84931W        W51472   3.446   7.689   0.739
84932W        W51473  44.357   0.913   0.411
84933W        W51474  32.087   0.844   4.583
84934W        W51475  16.597   3.741   4.686
84935W        W51476  44.767   6.304   4.161
84936W        W51477   2.011  21.716   2.267
84937W        W51478  41.366  44.517  10.846
84938W        W51479  34.870   5.910  10.256
84939W        W51480  17.816  31.546   2.710
84940W        W51481  14.609   4.220   3.248
84941W        W51482  34.496  43.911  13.391
84942W        W51483  27.280  27.969   1.884
84943W        W51484   1.034   3.807  13.805
84944W        W51485  20.498  25.239  13.379
84945W        W51486  21.688   4.997  11.634
84946W        W51487  18.862  35.579  13.383
84947W        W51488  30.069  38.379  12.769
84948W        W51489  22.677  32.486   1.916
84949W        W51490  19.567  20.701   4.570
84950W        W51491   6.493  15.013  13.227
84951W        W51492  26.455  14.847  11.950
84952W        W51493  38.468  30.155   4.099
84953W        W51494  33.809  27.011  14.846
84954W        W51495  17.839  30.765   5.481
84955W        W51496   8.288  28.077   2.260
84956W        W51497  44.186  41.450   2.792
84957W        W51498  40.359  13.945  13.119
84958W        W51499  18.961  36.404  14.769
84959W        W51500  19.002  24.728   2.364
84960W        W51501  39.292  24.260  14.245
84961W        W51502  42.093   8.033   3.408
84962W        W51503  27.603  39.533  12.368
84963W        W51504   1.489  30.586   1.319
84964W        W51505  26.177  41.199   0.037
84965W        W51506  28.879  14.314   2.680
84966W        W51507  29.504   3.345   0.726
84967W        W51508   8.385  38.836   3.978
84968W        W51509  20.279  22.385  13.181
84969W        W51510  15.394  43.125  13.017
84970W        W51511  17.295   5.841  11.051
84971W        W51512  28.525  25.241   2.630
84972W        W51513  25.017  14.250   2.592
84973W        W51514  40.275  28.273  14.672
84974W        W51515  10.230  43.736  13.448
84975W        W51516   0.461   3.250   0.339
84976W        W51517   1.736   5.267   3.648
84977W        W51518   9.242   4.847  12.352
84978W        W51519  10.998  12.637  12.910
84979W        W51520  41.266   0.317  11.860
84980W        W51521  28.889  33.041  12.200
84981W        W51522  16.591  16.685   0.351
84982W        W51523  37.773   0.025   1.801
84983W        W51524  24.004   9.142  14.372
84984W        W51525  16.606  22.548   2.417
84985W        W51526  36.951  29.096  12.532
84986W        W51527  24.680  44.840  13.410
84987W        W51528  34.720  20.237   1.184
84988W        W51529  33.944  32.125  13.347
84989W        W51530  33.960  36.543   2.469
84990W        W51531  20.156  17.998   2.791
84991W        W51532  15.705  33.649  10.699
84992W        W51533   5.393  29.674  12.994
84993W        W51534  15.902  13.184   4.054
84994W        W51535  38.980  26.464  10.474
84995W        W51536  31.167   4.693   0.860
84996W        W51537  39.034  34.061   3.397
84997W        W51538  11.745   5.201  14.292
84998W        W51539   8.509   2.002  11.351
84999W        W51540   2.111  37.426   4.414
85000W        W51541   1.776  24.007  10.558
85001W        W51542  40.924  39.444   4.948
85002W        W51543   9.713  32.585   4.228
85003W        W51544   4.191   0.775   2.759
85004W        W51545  33.486  42.447   3.332
85005W        W51546   1.734  13.886  13.445
85006W        W51547  20.544  18.634  13.273
85007W        W51548  13.096  26.918   2.871
85008W        W51549   4.285  25.147  14.304
85009W        W51550  22.305  38.954  11.216
85010W        W51551   9.795  42.950  13.480
85011W        W51552   4.836   6.934  10.746
85012W        W51553   1.003  29.534   2.063
85013W        W51554  33.622  12.420   5.544
85014W        W51555  19.771  14.809   2.081
85015W        W51556  28.459  14.372  10.701
85016W        W51557  28.756   5.741   2.821
85017W        W51558   3.816  11.666  11.542
85018W        W51559  28.191  19.851  10.639
85019W        W51560  36.745   5.293  13.529
85020W        W51561  30.492  16.667  14.135
85021W        W51562  35.032  30.058   1.318
85022W        W51563  13.802  30.251  11.135
85023W        W51564  42.494  42.510   1.502
85024W        W51565   2.322  16.761   2.306
85025W        W51566  33.003   7.259   2.402
85026W        W51567   8.275  44.316   1.737
85027W        W51568  41.367  16.755  10.928
85028W        W51569  25.745  41.986   3.155
85029W        W51570  39.078   2.448  13.520
85030W        W51571   2.801   6.879  13.473
85031W        W51572  33.595  14.071  14.931
85032W        W51573  34.062   4.693   0.243
85033W        W51574   3.619   7.360  10.175
85034W        W51575  17.594  28.453  10.911
85035W        W51576  10.338  29.373   1.473
85036W        W51577  33.108  13.964  12.063
85037W        W51578  22.298  26.334   2.856
85038W        W51579  18.514  13.675   0.861
85039W        W51580  18.162  31.019  10.386
85040W        W51581  13.492  39.884  10.716
85041W        W51582  30.379   6.795  13.942
85042W        W51583  27.101   3.778  10.733
85043W        W51584   5.952  44.798   2.141
85044W        W51585  13.584  13.799  12.772
85045W        W51586  14.342  34.510  14.368
85046W        W51587  18.740  22.027  12.460
85047W        W51588  38.843  20.938  13.421
85048W        W51589  25.158   9.736   4.516
85049W        W51590  33.880  26.290   4.381
85050W        W51591  39.890   6.187   1.415
85051W        W51592  38.009  33.994  10.599
85052W        W51593  20.599  22.271   0.849
85053W        W51594  44.037  33.474  13.336
85054W        W51595   9.744   0.016   1.215
85055W        W51596  22.208  30.738  10.447
85056W        W51597  20.763  23.397  12.114
85057W        W51598   7.411  19.218   0.417
85058W        W51599   0.053  38.641   4.007
85059W        W51600  39.329  41.351   3.199
85060W        W51601  42.771  34.143  14.511
85061W        W51602   3.896  43.980   2.727
85062W        W51603   0.886  40.986   1.224
85063W        W51604  43.144   5.821   2.254
85064W        W51605  32.302  19.515   4.987
85065W        W51606  34.076  24.715   3.688
85066W        W51607  29.982  44.594  12.335
85067W        W51608  11.183  42.777   1.971
85068W        W51609  39.867  30.111   2.759
85069W        W51610   3.384  10.363   2.183
85070W        W51611  38.444  15.884  13.829
85071W        W51612  39.815  24.279  12.111
85072W        W51613  28.554  33.870  14.956
85073W        W51614   7.404  24.025  10.686
85074W        W51615  11.054  24.012   2.849
85075W        W51616  27.732  12.174   9.759
85076W        W51617  33.868   5.528   0.599
85077W        W51618  20.966  12.380  11.242
85078W        W51619  24.980  39.032   3.213
85079W        W51620  40.030  15.991   1.581
85080W        W51621  21.058   5.266  13.423
85081W        W51622  43.188  39.505  13.510
85082W        W51623   3.505  26.242   2.690
85083W        W51624   9.367  43.222   1.808
85084W        W51625  21.539  20.312   0.181
85085W        W51626  37.389  30.988  14.574
85086W        W51627  31.118  38.259  10.641
85087W        W51628  43.552  36.405   0.884
85088W        W51629   4.371   6.820   2.337
85089W        W51630  28.729   4.283   0.833
85090W        W51631   7.137  23.484   4.426
85091W        W51632  21.604  38.016   3.668
85092W        W51633  36.821  16.222  10.785
85093W        W51634   5.875   4.981  13.822
85094W        W51635   7.247  37.983  13.945
85095W        W51636   8.705  13.662  13.829
85096W        W51637  11.847  37.897  11.061
85097W        W51638  30.583   0.909  12.386
85098W        W51639   1.500  42.880   0.311
85099W        W51640  12.056  42.370  12.019
85100W        W51641  22.633   3.426  11.530
85101W        W51642  22.349   7.938   9.449
85102W        W51643  37.620   2.472   3.575
85103W        W51644  44.605  12.284  14.914
85104W        W51645  32.968  25.693  13.492
85105W        W51646  23.406   9.933   2.274
85106W        W51647  26.576  21.003  10.490
85107W        W51648  37.609   8.362   0.709
85108W        W51649  25.798   5.745   3.221
85109W        W51650  11.617   1.678   1.324
85110W        W51651  19.587  44.235  12.949
85111W        W51652  23.944   3.178  10.445
85112W        W51653  28.607  39.948  11.428
85113W        W51654  23.999   1.294   2.407
85114W        W51655  36.070   1.184  11.110
85115W        W51656  14.026  27.506  11.169
85116W        W51657   6.607  32.593  13.324
85117W        W51658  23.529  17.140   0.951
85118W        W51659  11.139  32.248  12.912
85119W        W51660  34.429   3.813   2.810
85120W        W51661  31.549  29.192  14.188
85121W        W51662  35.593  30.409   0.275
85122W        W51663  36.453  28.145   2.152
85123W        W51664  37.067   8.427   1.649
85124W        W51665  37.759  14.710   1.712
85125W        W51666  26.750  43.999   3.538
85126W        W51667  23.937  43.716   2.999
85127W        W51668  42.998  38.844  12.683
85128W        W51669   2.260  30.359   1.876
85129W        W51670  40.093  24.635   4.544
85130W        W51671  43.445   2.226  14.752
85131W        W51672   4.163  33.197   2.192
85132W        W51673  16.155  35.897  14.421
85133W        W51674  39.752  44.953  14.883
85134W        W51675  44.461  13.501   0.752
85135W        W51676  21.286  22.707   1.930
85136W        W51677  44.883   4.892   4.821
85137W        W51678  24.551   0.186  12.120
85138W        W51679  17.486  12.310  11.621
85139W        W51680   3.966   6.290  13.424
85140W        W51681  14.143   6.478  11.125
85141W        W51682  39.142  30.019   2.374
85142W        W51683  33.109  26.442  13.095
85143W        W51684  24.402   0.556   2.161
85144W        W51685  44.763  19.077   4.098
85145W        W51686  27.448  30.214  11.366
85146W        W51687  23.605  36.317  13.046
85147W        W51688  44.727  26.971  14.004
85148W        W51689  38.499  12.908   4.583
85149W        W51690  12.424  40.539  11.826
85150W        W51691  43.929  18.511  14.000
85151W        W51692  33.619  27.508   0.752
85152W        W51693   1.430  31.608   1.379
85153W        W51694  23.488  28.617  14.423
85154W        W51695  19.224   0.025   2.997
85155W        W51696  36.213  26.921   0.416
85156W        W51697  12.313  13.224   1.179
85157W        W51698  35.295  21.634   2.843
85158W        W51699   6.347  26.959  14.750
85159W        W51700  32.991  22.018  13.938
85160W        W51701   8.512  41.580  11.997
85161W        W51702  38.503  14.297   2.756
85162W        W51703   2.446  41.832  11.744
85163W        W51704   5.935  12.719   1.658
85164W        W51705  30.013  35.890  10.611
85165W        W51706  21.548  38.856   3.219
85166W        W51707  28.103  22.682  10.621
85167W        W51708  38.909  29.841  10.791
85168W        W51709  35.014  10.225   4.155
85169W        W51710  34.718  27.931  11.060
85170W        W51711  39.904  19.800   2.391
85171W        W51712  25.140   4.223   0.620
85172W        W51713  37.420   1.255  12.356
85173W        W51714  15.184  32.640  10.970
85174W        W51715  28.356  40.458   1.259
85175W        W51716  34.411  28.599  13.336
85176W        W51717  26.015  41.004  11.132
85177W        W51718  26.273  42.992  13.878
85178W        W51719   3.916  40.448  11.166
85179W        W51720  41.150  41.448  13.528
85180W        W51721   6.488  18.310  11.099
85181W        W51722  12.062  21.797  14.872
85182W        W51723   6.608  18.927   2.216
85183W        W51724   7.622   3.712  12.029
85184W        W51725  12.621   5.401   0.408
85185W        W51726   0.743  13.512  12.149
85186W        W51727  33.907  13.992  10.111
85187W        W51728  15.205  29.739  13.458
85188W        W51729  10.285   4.824  12.533
85189W        W51730  22.970   4.987   0.017
85190W        W51731   9.811   1.216  14.052
85191W        W51732  39.378   0.469  12.507
85192W        W51733  33.450   4.726   0.427
85193W        W51734  18.120  18.869  11.092
85194W        W51735   6.608  19.332  11.967
85195W        W51736  44.509  42.751  12.492
85196W        W51737  28.410  31.069  11.569
85197W        W51738   5.967  39.230  10.019
85198W        W51739  21.268   4.940   0.461
85199W        W51740   4.147   9.211   3.659
85200W        W51741  21.816  27.978  14.021
85201W        W51742   5.498   4.285  11.471
85202W        W51743   6.268  26.578   3.231
85203W        W51744  20.623   3.183  13.144
85204W        W51745  14.171  16.641  14.371
85205W        W51746   1.923   5.151  10.627
85206W        W51747   0.840  30.688  13.939
85207W        W51748  13.529   9.595   1.634
85208W        W51749   0.838  16.715   3.242
85209W        W51750  38.609  13.176  12.679
85210W        W51751   2.207  15.097   3.306
85211W        W51752  28.569   0.306  10.735
85212W        W51753   2.175   6.226   3.752
85213W        W51754  28.941   7.912  10.775
85214W        W51755  42.711   5.885  10.703
85215W        W51756   0.385  16.146  12.622
85216W        W51757  44.830  11.118   0.062
85217W        W51758  39.952  31.043   1.281
85218W        W51759  41.913  39.093  11.321
85219W        W51760  30.902  26.107  12.003
85220W        W51761  15.045  42.598   3.548
85221W        W51762  20.871  25.894   2.795
85222W        W51763  37.152   3.948  13.867
85223W        W51764  25.546  34.591   4.274
85224W        W51765  32.441  30.989  14.064
85225W        W51766  25.144   0.969  10.991
85226W        W51767  10.802  18.720   0.872
85227W        W51768   8.848   5.680  13.254
85228W        W51769  39.919  17.901   2.306
85229W        W51770  17.781  18.714  12.566
85230W        W51771  20.511  21.193  13.096
85231W        W51772  38.632  40.598   2.874
85232W        W51773  14.776   5.451   3.668
85233W        W51774  42.342  23.177  14.353
85234W        W51775   4.154  26.224  12.660
85235W        W51776   8.296  36.477  10.109
85236W        W51777  44.838  29.084  12.058
85237W        W51778   4.824  39.774   0.448
85238W        W51779  13.535  37.777   0.057
85239W        W51780   5.941  43.470   3.716
85240W        W51781   6.844  43.369   1.730
85241W        W51782  42.988   7.172  14.150
85242W        W51783  16.242   8.248   4.330
85243W        W51784   5.091  34.078   2.717
85244W        W51785  22.998  41.266  14.380
85245W        W51786  36.660  11.792  10.284
85246W        W51787  35.455  22.644  14.539
85247W        W51788   7.899   4.925   0.651
85248W        W51789  18.251  40.508  12.386
85249W        W51790  33.696   3.943   4.719
85250W        W51791  20.463  44.977  13.790
85251W        W51792  37.798  24.521   1.354
85252W        W51793  26.232  25.194   2.391
85253W        W51794  31.409   8.249   1.854
85254W        W51795   5.761  21.406  14.356
85255W        W51796  40.510   2.793  12.497
85256W        W51797   5.668   9.065   0.652
85257W        W51798  43.921  41.846  10.403
85258W        W51799  40.395  20.020   4.021
85259W        W51800  20.587  43.401   1.202
85260W        W51801  31.182  39.293   2.286
85261W        W51802  26.096   7.231   1.344
85262W        W51803   6.465  29.592  12.912
85263W        W51804  35.894   3.609   4.982
85264W        W51805  31.507  34.365  12.434
85265W        W51806  32.035   2.448   1.415
85266W        W51807   6.152   0.991  12.116
85267W        W51808  27.424  39.875   0.332
85268W        W51809  43.043  40.692   4.070
85269W        W51810  40.457  32.547  10.982
85270W        W51811   7.402  36.023  10.063
85271W        W51812   2.963   4.224  13.373
85272W        W51813  18.707  28.751  11.992
85273W        W51814  29.467  44.396  14.390
85274W        W51815  11.455  36.899   4.589
85275W        W51816   6.778   4.687   3.935
85276W        W51817  23.184  41.895  14.021
85277W        W51818  36.120  11.116  12.881
85278W        W51819  25.745  22.004   0.868
85279W        W51820   5.775  23.452   1.642
85280W        W51821  18.759  14.346  13.812
85281W        W51822  36.854  23.737  12.956
85282W        W51823  13.089   3.438  13.345
85283W        W51824   9.253   8.229   1.198
85284W        W51825  35.937  31.366  14.743
85285W        W51826  19.617  27.884  14.438
85286W        W51827  42.687  24.283   0.809
85287W        W51828  43.582  31.522   4.304
85288W        W51829   4.500  23.578   4.918
85289W        W51830   1.843  10.241   4.103
85290W        W51831   6.410  42.453   1.402
85291W        W51832  34.909  21.777   1.411
85292W        W51833  26.991  16.315  11.480
85293W        W51834   5.348  31.991  12.630
85294W        W51835  10.188  20.640  13.928
85295W        W51836  20.114  41.033  10.705
85296W        W51837  39.502  25.494   4.599
85297W        W51838   0.713  10.686  10.930
85298W        W51839  10.111  11.316   3.008
85299W        W51840  24.518  21.829   2.233
85300W        W51841   7.294  38.794  13.400
85301W        W51842  29.870   8.506  12.433
85302W        W51843  29.568   4.528  10.652
85303W        W51844  23.639  44.455  14.519
85304W        W51845  17.313  17.836   1.908
85305W        W51846  13.684   1.380   3.279
85306W        W51847  20.058  38.845   0.371
85307W        W51848  27.811  27.956   2.889
85308W        W51849   7.413  30.453   0.025
85309W        W51850   8.637   8.200  13.643
85310W        W51851  41.050  14.189  14.933
85311W        W51852  38.144  15.085   3.277
85312W        W51853  26.164   4.141   1.216
85313W        W51854   4.207  29.531   1.912
85314W        W51855  37.440  18.040   3.206
85315W        W51856   9.687  32.966  13.006
85316W        W51857  15.861  12.152   0.386
85317W        W51858  39.846   0.712   0.074
85318W        W51859  23.250  34.851  10.716
85319W        W51860  26.979  27.801  12.440
85320W        W51861   5.679   8.343   0.525
85321W        W51862   4.370  38.723  10.833
85322W        W51863  38.797  16.829   2.345
85323W        W51864   9.690  40.997  13.032
85324W        W51865  38.548  30.920   0.661
85325W        W51866  39.175  24.601   2.761
85326W        W51867   2.159  18.992  14.122
85327W        W51868  43.276  38.429  10.807
85328W        W51869  28.626   9.365   2.428
85329W        W51870   5.246  19.039  14.074
85330W        W51871  10.649  35.895  10.753
85331W        W51872   2.430  11.417  13.462
85332W        W51873   8.217  27.432  13.125
85333W        W51874  13.322  18.840  14.823
85334W        W51875  37.441  41.572   0.472
85335W        W51876  43.640   8.182   2.238
85336W        W51877  18.163  15.613   3.119
85337W        W51878  35.249  10.723   4.540
85338W        W51879  36.283  13.330   1.996
85339W        W51880  11.262  12.047  13.597
85340W        W51881  13.084   8.218  10.716
85341W        W51882  36.049   2.770   1.142
85342W        W51883   6.727  25.421   0.432
85343W        W51884  39.573  44.745  13.271
85344W        W51885  17.773  33.036   4.338
85345W        W51886  31.562  17.705   1.321
85346W        W51887  22.135   5.925   1.636
85347W        W51888  13.611  37.825  11.498
85348W        W51889  27.823  23.677  10.731
85349W        W51890  31.817   4.760   0.295
85350W        W51891  41.809  30.561  10.783
85351W        W51892  14.813  28.519  12.965
85352W        W51893  29.653  41.889  10.661
85353W        W51894  43.858   8.949   3.310
85354W        W51895   8.695  12.241  12.527
85355W        W51896   8.034  42.473  10.694
85356W        W51897   8.726   0.764  13.039
85357W        W51898  26.609  36.930   0.420
85358W        W51899  39.975  31.341   4.641
85359W        W51900  28.006  31.626   2.392
85360W        W51901  34.932   3.764  12.268
85361W        W51902  18.337  17.085  11.923
85362W        W51903  28.689   7.676  12.056
85363W        W51904  39.009   0.891  14.011
85364W        W51905  25.697  32.453  12.283
85365W        W51906  42.721  34.962   2.721
85366W        W51907   3.276   5.213  13.371
85367W        W51908  21.477  39.000   2.707
85368W        W51909   0.366  41.857  11.103
85369W        W51910  33.977  41.284  14.392
85370W        W51911  19.746  35.681   0.459
85371W        W51912  20.081  19.625  13.995
85372W        W51913  23.000  19.689   2.738
85373W        W51914  37.472  17.347   4.606
85374W        W51915  23.653  37.633   4.194
85375W        W51916   7.296  28.013  10.487
85376W        W51917  16.770  32.612  12.401
85377W        W51918  15.165  22.085   3.799
85378W        W51919  26.916  34.678  12.970
85379W        W51920  30.728  31.628  12.724
85380W        W51921  12.661  21.758  14.379
85381W        W51922  23.586  18.635   1.152
85382W        W51923  30.004  33.373  12.054
85383W        W51924  18.635  15.732   2.330
85384W        W51925   5.925  37.590  13.248
85385W        W51926  36.564  43.354  14.283
85386W        W51927  42.438  42.923  10.700
85387W        W51928  20.067   1.117  14.542
85388W        W51929   6.307  44.182   1.516
85389W        W51930   3.445  29.978   3.501
85390W        W51931   8.609   5.915   1.360
85391W        W51932  26.043  24.446   2.721
85392W        W51933  30.362  36.649  10.829
85393W        W51934  31.615  42.865  13.392
85394W        W51935  21.453  24.457   3.668
85395W        W51936  22.724  26.711  14.387
85396W        W51937  28.721  28.943  12.082
85397W        W51938  37.351   8.915  11.606
85398W        W51939  25.943  44.520  13.873
85399W        W51940   9.730   8.140  11.412
85400W        W51941   1.055   3.129  13.115
85401W        W51942  40.263   4.150   4.138
85402W        W51943   0.393  25.117  10.621
85403W        W51944  16.509   2.758  13.039
85404W        W51945  29.054  38.888  12.780
85405W        W51946   7.701  34.641   1.922
85406W        W51947  31.007  13.301  11.191
85407W        W51948   6.778  37.850  13.272
85408W        W51949  15.847  30.131  14.473
85409W        W51950  21.194  32.946   2.009
85410W        W51951   7.678  20.251  10.714
85411W        W51952  17.024   7.744  12.138
85412W        W51953  22.545  33.009   1.761
85413W        W51954  20.727  25.267  11.930
85414W        W51955  22.747  32.289   4.279
85415W        W51956  22.266  16.386   4.205
85416W        W51957   1.911  11.918  13.023
85417W        W51958  25.144  44.337  11.440
85418W        W51959  24.182  15.549  13.398
85419W        W51960  38.833   2.278   1.314
85420W        W51961  31.626  13.516   0.741
85421W        W51962  44.390   5.838   3.703
85422W        W51963  27.436  10.604   4.876
85423W        W51964  25.678  31.308   3.656
85424W        W51965   5.244  43.972  13.483
85425W        W51966  35.853  21.138  10.770
85426W        W51967  40.612  22.700  11.932
85427W        W51968  14.749  43.079   1.527
85428W        W51969  13.313   5.018   3.875
85429W        W51970  17.791  15.732  14.757
85430W        W51971   3.301  40.791  14.340
85431W        W51972  16.752  40.027  11.168
85432W        W51973   3.717   1.862  14.824
85433W        W51974   8.777  21.750  10.733
85434W        W51975  20.877  21.084   0.804
85435W        W51976  15.803   3.390   4.305
85436W        W51977  10.913  19.543  13.303
85437W        W51978  41.504  37.969   2.876
85438W        W51979  44.774  31.392   2.378
85439W        W51980  27.006  43.284   0.851
85440W        W51981  28.314  25.745   4.146
85441W        W51982  44.775   6.730  10.670
85442W        W51983   7.276  26.392  13.444
85443W        W51984  44.799  35.686   2.830
85444W        W51985  33.540  38.989  13.504
85445W        W51986   5.354   4.413   3.763
85446W        W51987   2.342  32.122   1.230
85447W        W51988  43.587  11.812  12.013
85448W        W51989  40.063  12.326  13.517
85449W        W51990  18.592  14.755  14.763
85450W        W51991  37.449  11.911  13.265
85451W        W51992  43.822   9.424  12.167
85452W        W51993  11.763   3.311   2.291
85453W        W51994  35.452  34.906   2.644
85454W        W51995  16.514   1.588  12.074
85455W        W51996  19.275  33.545  14.443
85456W        W51997  30.296  19.985  11.603
85457W        W51998  12.742  43.496   2.933
85458W        W51999  32.535  35.659   3.020
85459W        W52000  14.738  13.232   0.219
85460W        W52001  32.351  32.500  11.155
85461W        W52002  24.531  40.684   3.713
85462W        W52003   1.501  14.865   4.709
85463W        W52004   1.433  40.372   1.774
85464W        W52005  35.351   0.467  14.390
85465W        W52006  18.004   0.383   2.887
85466W        W52007  34.628  40.232   4.506
85467W        W52008  12.396   3.979  13.065
85468W        W52009  28.062   0.478  10.569
85469W        W52010   0.482  34.925  14.160
85470W        W52011  11.204  36.835  14.466
85471W        W52012  42.272  31.728   4.916
85472W        W52013   8.669  32.317  10.767
85473W        W52014  43.487  20.750   1.923
85474W        W52015  14.551  13.768  13.330
85475W        W52016  12.320  23.514  12.039
85476W        W52017   1.335  11.891  10.654
85477W        W52018   1.399  12.683   4.018
85478W        W52019  28.039   8.026  11.942
85479W        W52020  43.964   6.868   2.073
85480W        W52021  10.454  33.856  11.565
85481W        W52022  30.258  27.008   3.303
85482W        W52023  13.517  43.254   3.884
85483W        W52024   7.722  13.802   2.651
85484W        W52025   2.989   9.339  11.751
85485W        W52026  42.983  21.813  11.496
85486W        W52027  31.067  43.832   2.755
85487W        W52028  15.734  43.717   4.098
85488W        W52029  27.994  20.922  10.190
85489W        W52030  34.977  41.758   2.174
85490W        W52031  29.335   0.438  10.233
85491W        W52032   2.494   7.893   0.322
85492W        W52033  25.186  44.493   2.166
85493W        W52034  42.748  41.028   4.309
85494W        W52035   1.875  39.524   0.983
85495W        W52036  24.317   7.153  11.462
85496W        W52037   0.017  26.043   1.409
85497W        W52038  35.838  36.868  13.931
85498W        W52039  16.768  10.325   5.140
85499W        W52040  38.486   7.609   1.488
85500W        W52041   9.282  27.438  10.967
85501W        W52042  31.059   3.874   4.392
85502W        W52043  10.898  21.475  13.784
85503W        W52044  40.088  29.488   3.357
85504W        W52045  30.838  43.835  11.825
85505W        W52046   7.290   5.848   4.187
85506W        W52047   2.912  33.508  12.943
85507W        W52048  13.594  20.656   2.132
85508W        W52049  41.512   2.541  14.826
85509W        W52050  23.723  38.996   4.769
85510W        W52051  38.611  20.467   0.588
85511W        W52052   9.665  16.137   4.060
85512W        W52053  18.283  22.164   4.609
85513W        W52054   8.986  23.871   3.230
85514W        W52055  36.729   2.004   4.438
85515W        W52056  25.064  26.981  10.174
85516W        W52057  31.109  27.712   3.304
85517W        W52058  32.118  28.978   5.117
85518W        W52059  20.440   3.359   3.637
85519W        W52060  38.791  44.444   4.766
85520W        W52061  40.753  21.501  12.445
85521W        W52062  34.393  19.055  12.502
85522W        W52063  40.902  18.066  12.199
85523W        W52064  32.174  20.657   0.936
85524W        W52065  31.112  23.573   3.286
85525W        W52066  33.145  42.893  10.569
85526W        W52067  42.182  28.947  11.806
85527W        W52068   5.584   4.949  12.956
85528W        W52069   8.900  22.521  11.168
85529W        W52070  43.432  37.358  12.757
85530W        W52071   1.583  15.383   4.901
85531W        W52072  30.608  22.098   1.777
85532W        W52073  24.079  22.048  14.516
85533W        W52074  41.963  13.180   4.680
85534W        W52075  36.188  24.212   2.225
85535W        W52076  44.194  26.643   4.463
85536W        W52077  20.439  28.231   3.699
85537W        W52078  24.943  37.700  13.892
85538W        W52079   6.208   0.248  14.622
85539W        W52080  13.511  42.197   0.783
85540W        W52081  26.182   6.974   2.788
85541W        W52082   4.658  43.546  11.448
85542W        W52083  20.408  42.349  14.368
85543W        W52084  16.620  32.165  12.178
85544W        W52085  39.990  20.315  14.520
85545W        W52086  21.819  23.555  10.617
85546W        W52087  33.807   7.080   0.801
85547W        W52088  12.694  43.686   3.673
85548W        W52089  42.570  11.877   1.345
85549W        W52090   1.464  19.778  14.425
85550W        W52091   2.755   9.359  13.469
85551W        W52092  17.226  16.472  12.549
85552W        W52093  26.928  14.631  14.408
85553W        W52094  40.403   2.984   4.444
85554W        W52095   8.144   9.267  13.520
85555W        W52096  42.002   7.121  10.667
85556W        W52097  22.656  41.298  12.586
85557W        W52098  16.310  11.217  13.162
85558W        W52099  42.079  38.607  12.173
85559W        W52100  16.866   9.291  12.100
85560W        W52101  13.637  27.458   1.467
85561W        W52102   9.041  22.014  11.114
85562W        W52103  30.143  23.832  12.241
85563W        W52104  38.457  22.459   1.852
85564W        W52105  22.584  33.040  10.093
85565W        W52106  18.103  39.842   2.867
85566W        W52107  31.360  38.388   4.356
85567W        W52108   7.905  11.887  11.263
85568W        W52109  24.489  13.687   4.899
85569W        W52110  26.658  16.664  13.944
85570W        W52111   3.426  22.729   0.879
85571W        W52112   2.828  33.537   1.920
85572W        W52113  44.846   4.465   1.728
85573W        W52114  23.047  32.998  14.451
85574W        W52115  14.077   9.970   0.986
85575W        W52116   1.441  38.388  12.508
85576W        W52117  13.566  31.450  14.314
85577W        W52118  34.410   8.271  14.606
85578W        W52119  31.573   6.167   0.132
85579W        W52120  18.359  39.518   0.310
85580W        W52121  34.916  34.033  11.625
85581W        W52122   0.376  42.547  12.959
85582W        W52123  32.573   6.458  11.127
85583W        W52124  34.604  32.670   0.983
85584W        W52125  31.450  11.183  13.578
85585W        W52126   9.015  27.142  11.304
85586W        W52127  23.052  38.259  12.493
85587W        W52128  23.373  26.940  11.915
85588W        W52129  37.173  35.302   3.738
85589W        W52130  16.139   0.921   1.961
85590W        W52131   0.407  13.857   1.952
85591W        W52132  11.313  32.053   0.785
85592W        W52133  23.619  43.980   0.406
85593W        W52134  27.002  38.583  11.969
85594W        W52135  24.019  21.029  14.018
85595W        W52136  44.387   6.771   0.672
85596W        W52137  33.600  27.159   4.033
85597W        W52138  44.912   5.473   1.495
85598W        W52139  34.163  13.133   0.351
85599W        W52140  20.314  44.405   4.851
85600W        W52141   9.990  34.359  14.082
85601W        W52142   0.428  40.136   1.705
85602W        W52143  27.505   7.603  12.697
85603W        W52144  29.331  40.401  14.388
85604W        W52145  13.908  27.797   1.739
85605W        W52146  22.427   2.000   0.981
85606W        W52147  41.804  27.052  13.164
85607W        W52148  33.998  15.672   3.605
85608W        W52149   0.201  27.180   2.364
85609W        W52150  40.475  16.140   2.933
85610W        W52151  17.340  17.893   1.069
85611W        W52152  30.542  28.920  14.343
85612W        W52153  35.017  31.408   2.316
85613W        W52154  29.994  20.480  14.985
85614W        W52155  41.106  28.072   1.866
85615W        W52156  10.532   6.227   1.068
85616W        W52157  42.471   2.959  11.105
85617W        W52158  15.130  16.701  13.717
85618W        W52159  23.681   1.339  12.823
85619W        W52160  37.037  37.989  11.200
85620W        W52161  44.850  42.580   3.818
85621W        W52162   3.567  23.951  10.320
85622W        W52163   3.747  43.730  14.409
85623W        W52164  37.782   2.979  11.125
85624W        W52165  44.494  36.412  13.855
85625W        W52166  34.673   7.531   0.890
85626W        W52167  25.998  21.242  11.472
85627W        W52168  13.609  21.960  14.052
85628W        W52169  11.445  14.127   0.100
85629W        W52170  44.718  27.492  13.950
85630W        W52171  39.960  31.820  12.762
85631W        W52172   1.489  19.718   1.951
85632W        W52173   4.884  28.809   1.148
85633W        W52174   6.187  37.051  11.876
85634W        W52175   6.819  15.207  14.936
85635W        W52176  36.356  42.504   2.343
85636W        W52177  17.680  17.315   0.412
85637W        W52178   2.268  23.175   3.555
85638W        W52179  34.024  43.414  10.745
85639W        W52180  34.865   0.510  13.031
85640W        W52181  22.153  15.833   2.413
85641W        W52182  38.571  33.471  14.470
85642W        W52183  15.582  43.261  10.685
85643W        W52184  10.181   1.037   2.235
85644W        W52185  31.636   6.446   1.064
85645W        W52186  43.730  26.415   0.390
85646W        W52187   7.190  28.521   3.503
85647W        W52188  14.588  28.893  13.885
85648W        W52189   4.232   0.249  10.762
85649W        W52190  25.654   2.809  14.728
85650W        W52191  19.057  20.525   0.744
85651W        W52192  34.235  40.945  12.954
85652W        W52193  15.072  34.998   5.083
85653W        W52194  11.318   7.781   4.596
85654W        W52195  34.786  15.174   0.476
85655W        W52196  25.606   9.695  12.144
85656W        W52197  42.422  30.974  14.888
85657W        W52198  40.740   7.262   4.922
85658W        W52199  26.299  44.373   4.578
85659W        W52200   6.242   6.238   2.365
85660W        W52201  28.169   3.552  13.391
85661W        W52202   7.636  16.204   0.697
85662W        W52203  36.580   0.801   4.579
85663W        W52204   9.190  28.163   1.305
85664W        W52205   3.939   0.784   9.761
85665W        W52206  41.856  11.858   1.741
85666W        W52207  35.323  31.318   2.832
85667W        W52208  44.478  16.760  13.868
85668W        W52209  42.754   2.736  14.339
85669W        W52210  19.213   8.664  11.947
85670W        W52211   1.949  29.658  10.319
85671W        W52212   5.796  22.795  14.769
85672W        W52213  11.042  28.243   1.840
85673W        W52214  35.092   0.472  13.931
85674W        W52215  16.917  23.701  14.998
85675W        W52216   8.872  17.135  11.243
85676W        W52217  27.452   1.665   2.708
85677W        W52218  13.214  33.927  12.463
85678W        W52219  37.780   3.297   3.094
85679W        W52220  35.036   9.477   3.680
85680W        W52221   3.412   2.423   1.689
85681W        W52222  31.768   7.244   1.984
85682W        W52223  12.572  33.440   2.646
85683W        W52224  28.574  29.870   4.743
85684W        W52225   5.828  43.613   0.776
85685W        W52226  11.832   6.714  11.580
85686W        W52227  38.917  44.408  12.608
85687W        W52228  17.346  44.237  14.414
85688W        W52229  11.585  44.610  12.182
85689W        W52230  26.979  22.607   0.985
85690W        W52231  33.912  36.296  13.472
85691W        W52232  13.680  35.291  14.359
85692W        W52233   1.812   9.716   2.619
85693W        W52234  32.605  41.592   4.382
85694W        W52235  24.995  29.146  10.717
85695W        W52236  29.513  22.623   2.355
85696W        W52237   2.619  26.110  10.658
85697W        W52238  17.534   2.840  12.991
85698W        W52239  34.383   2.381  11.229
85699W        W52240  19.284  38.532   3.237
85700W        W52241  11.126   7.785   0.247
85701W        W52242   6.652  15.759   2.739
85702W        W52243  27.165  11.426  11.036
85703W        W52244   8.122   0.815   3.789
85704W        W52245  29.634  41.284   4.928
85705W        W52246  25.944  13.634  13.315
85706W        W52247  26.128  17.386  11.689
85707W        W52248  44.454  13.371  14.458
85708W        W52249  44.966   8.435  11.512
85709W        W52250  34.095  36.934  12.835
85710W        W52251  36.139  43.235   3.933
85711W        W52252  42.192   8.092   1.947
85712W        W52253   6.667  38.033  14.253
85713W        W52254  19.600  16.222  13.947
85714W        W52255  14.238  25.923   0.501
85715W        W52256  21.072  37.647   0.788
85716W        W52257  15.035  34.133  11.256
85717W        W52258  10.846   0.934   4.137
85718W        W52259   5.877  22.370  12.052
85719W        W52260  19.068   3.923  12.024
85720W        W52261   0.324  14.320  11.969
85721W        W52262   6.355  18.356  13.289
85722W        W52263   1.344  33.778  14.314
85723W        W52264  36.330  36.864  12.464
85724W        W52265  25.604  29.897   4.841
85725W        W52266   7.357  39.902   1.750
85726W        W52267  16.235  22.611  10.958
85727W        W52268   0.434   4.831  13.482
85728W        W52269  23.554  13.747  12.960
85729W        W52270  34.396  37.057   2.269
85730W        W52271   0.420  25.712   2.274
85731W        W52272  30.643  20.660  10.757
85732W        W52273   8.316   3.714  12.708
85733W        W52274  20.105  33.399   0.932
85734W        W52275   0.285  15.384  13.545
85735W        W52276  35.151  25.156   1.818
85736W        W52277  23.045  37.163   2.403
85737W        W52278   1.427  38.780  14.478
85738W        W52279  32.103  15.577  13.562
85739W        W52280  20.806  12.727   0.038
85740W        W52281  28.397  30.080  11.534
85741W        W52282  14.025  40.783  11.598
85742W        W52283  44.475  19.963  11.872
85743W        W52284  34.648  42.059   1.898
85744W        W52285  43.408  44.026  11.444
85745W        W52286  43.416  17.323  13.003
85746W        W52287   2.355  28.726  11.675
85747W        W52288   4.916  42.727  14.089
85748W        W52289  41.942   8.318  13.821
85749W        W52290  28.700  31.264  13.679
85750W        W52291  11.715  38.071   1.476
85751W        W52292  41.380  17.181   4.243
85752W        W52293   0.326  34.800   4.653
85753W        W52294  42.301  14.261  14.283
85754W        W52295  40.767  20.203   3.696
85755W        W52296  17.536  20.159  12.482
85756W        W52297  12.725   2.402   4.259
85757W        W52298  40.511  35.720   1.276
85758W        W52299  23.567  28.052  11.642
85759W        W52300   8.840   0.797   4.215
85760W        W52301  19.219  43.455   4.558
85761W        W52302  27.815  32.969   0.022
85762W        W52303  22.571   3.883  11.117
85763W        W52304  20.761  41.527   2.753
85764W        W52305  23.599  35.905  13.345
85765W        W52306  33.684   1.417   0.307
85766W        W52307   9.449  43.550  12.613
85767W        W52308  28.033  20.852  14.316
85768W        W52309  44.320  26.553   2.829
85769W        W52310  37.150  42.858   0.613
85770W        W52311  15.043   0.884   4.382
85771W        W52312  21.166  40.101   3.174
85772W        W52313  41.308  17.066  12.938
85773W        W52314  34.731  24.877  10.367
85774W        W52315   9.760   2.242  13.370
85775W        W52316  21.940   1.185   1.864
85776W        W52317  18.469  35.029  12.102
85777W        W52318  16.510  14.517   4.591
85778W        W52319   8.494   9.186  14.440
85779W        W52320  15.880  34.327  11.567
85780W        W52321  34.586  17.479  10.763
85781W        W52322  19.596  26.766  10.217
85782W        W52323  33.082   8.213  10.980
85783W        W52324  35.164  40.441  12.476
85784W        W52325  26.628  14.273  13.282
85785W        W52326  14.222  13.874   3.555
85786W        W52327   5.832  32.106  11.115
85787W        W52328   7.933  10.657  13.655
85788W        W52329  16.515  42.986   4.221
85789W        W52330  41.460  28.988   1.588
85790W        W52331   4.859   1.780  12.137
85791W        W52332   0.556   5.858   2.219
85792W        W52333   7.463  25.131   0.112
85793W        W52334  43.298  10.295  14.637
85794W        W52335  41.817  10.759  13.814
85795W        W52336  15.735  27.812  12.532
85796W        W52337  19.125  10.966   4.638
85797W        W52338  41.048  18.263  13.664
85798W        W52339  13.607  13.782   3.408
85799W        W52340   2.902  34.412  13.905
85800W        W52341   1.772  23.448  13.045
85801W        W52342  44.186   3.730  12.613
85802W        W52343  35.358  44.545  10.377
85803W        W52344  40.101  16.257   4.478
85804W        W52345  31.476   9.316  11.635
85805W        W52346   8.464  22.491  12.940
85806W        W52347  40.417  20.836   3.208
85807W        W52348  32.617  37.823   4.234
85808W        W52349  21.732  10.268  13.659
85809W        W52350   4.487  44.449  12.034
85810W        W52351  12.051  43.419   1.780
85811W        W52352  20.422  10.802   0.942
85812W        W52353  15.933  27.024  12.593
85813W        W52354  28.550   0.009  11.977
85814W        W52355   5.091  42.322  11.434
85815W        W52356  22.634  15.692  14.814
85816W        W52357  37.806   6.530   0.875
85817W        W52358   2.258  26.470  14.517
85818W        W52359  26.584  23.834  12.979
85819W        W52360  38.276  28.439  13.604
85820W        W52361  41.449   0.243   4.949
85821W        W52362   7.477  22.576   4.138
85822W        W52363  19.811  41.659   3.630
85823W        W52364  18.104   8.401  11.286
85824W        W52365   4.920  30.975   1.817
85825W        W52366   7.062  18.277   1.421
85826W        W52367   9.796  21.811   4.107
85827W        W52368  36.470  33.090  14.015
85828W        W52369  10.880  41.846   0.336
85829W        W52370  38.547  14.847   3.670
85830W        W52371  18.062  40.899   2.196
85831W        W52372  37.567  14.753   4.747
85832W        W52373  24.619  16.716  13.956
85833W        W52374  35.511  37.893   3.068
85834W        W52375  25.720  10.434   4.632
85835W        W52376  21.660   4.442   3.168
85836W        W52377  41.307  32.350   3.670
85837W        W52378  19.947   3.434   2.814
85838W        W52379   8.702  36.734  14.357
85839W        W52380  22.568  36.619  10.539
85840W        W52381  40.686  39.482   2.884
85841W        W52382  10.801  42.409  12.423
85842W        W52383  34.363  19.639   3.641
85843W        W52384  26.262  10.438   0.001
85844W        W52385  28.352  21.054   2.840
85845W        W52386  19.008   4.790   3.182
85846W        W52387  28.369  44.274  14.878
85847W        W52388   8.732  42.385  12.376
85848W        W52389   8.631  15.530  11.995
85849W        W52390  16.736  13.414   3.641
85850W        W52391  23.054  39.867   0.924
85851W        W52392  44.969  36.174   2.777
85852W        W52393   6.269  28.223  11.952
85853W        W52394   7.502  16.377   0.229
85854W        W52395   9.816  26.995  13.353
85855W        W52396   1.772  10.425  12.931
85856W        W52397  26.131  22.954   0.384
85857W        W52398  18.997  30.589  14.808
85858W        W52399  38.673  12.020  11.049
85859W        W52400  34.650  42.755  12.481
85860W        W52401  21.630  42.330  14.052
85861W        W52402  12.104  33.067   1.418
85862W        W52403  26.631  25.036   2.110
85863W        W52404  13.203  43.925   5.057
85864W        W52405  32.232  38.850  11.325
85865W        W52406  23.467  34.578  12.965
85866W        W52407  29.468  17.590   0.488
85867W        W52408   7.732   0.635   4.473
85868W        W52409  39.074  19.271   1.367
85869W        W52410  44.844   8.825   0.505
85870W        W52411   7.689  41.791   0.535
85871W        W52412   2.201   2.861  14.385
85872W        W52413  10.668   2.808   2.342
85873W        W52414  28.422  27.581   3.741
85874W        W52415  25.066  25.745   1.769
85875W        W52416  25.222  31.402   3.437
85876W        W52417  13.666  17.206  12.145
85877W        W52418  15.281  24.600  13.377
85878W        W52419  36.127  10.390   3.185
85879W        W52420  39.042  14.641  12.797
85880W        W52421  40.252   7.114   5.064
85881W        W52422  42.485   9.644   2.611
85882W        W52423  36.408   6.428   1.414
85883W        W52424  36.790  15.509   5.468
85884W        W52425  19.796  44.272   0.915
85885W        W52426  12.551   7.264   2.758
85886W        W52427   3.757  38.378   2.343
85887W        W52428   1.848  15.847   4.947
85888W        W52429   4.200  24.048   3.725
85889W        W52430  39.505  35.515   4.108
85890W        W52431   7.677  38.869  14.461
85891W        W52432  29.443  27.988   3.789
85892W        W52433  37.047  10.374  13.316
85893W        W52434  24.071  33.857   4.941
85894W        W52435  41.692  23.688   0.360
85895W        W52436   5.912   0.346   1.299
85896W        W52437   2.815   8.972  13.106
85897W        W52438  40.395  10.636  10.641
85898W        W52439  22.046   9.847  14.755
85899W        W52440  21.270  30.924  12.308
85900W        W52441   0.020  14.658   3.270
85901W        W52442  27.284  41.418   4.427
85902W        W52443  41.553  17.226   0.333
85903W        W52444  44.953  19.031   2.312
85904W        W52445  17.350  26.555  11.922
85905W        W52446  13.905  11.205   3.918
85906W        W52447  41.190  43.909   3.877
85907W        W52448  36.766  27.754   4.131
85908W        W52449  43.842   2.059   0.038
85909W        W52450  38.410  19.507  10.314
85910W        W52451  10.422  24.697  11.116
85911W        W52452  40.427  14.353  11.702
85912W        W52453   0.399  26.991  12.496
85913W        W52454   3.331  18.619  11.268
85914W        W52455  18.595  11.809   1.267
85915W        W52456  42.031  20.546   1.594
85916W        W52457  12.707   1.920  12.451
85917W        W52458  27.438  42.215   0.405
85918W        W52459  20.471  13.178   0.264
85919W        W52460   7.170  35.406   0.727
85920W        W52461  36.743  44.576  10.281
85921W        W52462  13.095   6.148   2.583
85922W        W52463  38.310  10.335  13.745
85923W        W52464  42.944  40.941  12.947
85924W        W52465  32.392  21.792   3.138
85925W        W52466  13.663  22.171   2.660
85926W        W52467  15.089  14.738   4.111
85927W        W52468  26.094   3.462   0.246
85928W        W52469   7.320  43.786   2.618
85929W        W52470  15.855  11.192   3.699
85930W        W52471   5.403   1.389  11.754
85931W        W52472  19.835  37.469  12.468
85932W        W52473  37.027   7.262   2.361
85933W        W52474  28.164  20.301   1.180
85934W        W52475  25.013   2.348  11.102
85935W        W52476  23.946   6.925  13.519
85936W        W52477  25.839  13.661   0.371
85937W        W52478  36.877  36.680  11.677
85938W        W52479  36.525  17.556   1.798
85939W        W52480  19.348  26.888   4.200
85940W        W52481  28.939   7.611  11.427
85941W        W52482  43.223  13.760   4.174
85942W        W52483  44.843   8.916   1.902
85943W        W52484  18.600   6.797  12.831
85944W        W52485  43.259   4.891   4.180
85945W        W52486   5.691  10.340  12.831
85946W        W52487   6.901  10.317  10.617
85947W        W52488   7.521  30.998   1.805
85948W        W52489  33.118  19.334   1.659
85949W        W52490  34.447  30.628  13.475
85950W        W52491   4.638   0.489   2.695
85951W        W52492  44.883  37.097  14.885
85952W        W52493  27.882  14.077  11.649
85953W        W52494  33.425  18.241  11.554
85954W        W52495  33.185  37.962   2.124
85955W        W52496  10.563  25.508  10.786
85956W        W52497  31.917   9.434  13.093
85957W        W52498  40.773   0.521  10.722
85958W        W52499   5.339  29.190   0.257
85959W        W52500  22.877  40.556  14.769
85960W        W52501  30.014   3.512   0.036
85961W        W52502  41.149  42.985   2.234
85962W        W52503  14.850  32.921  12.504
85963W        W52504  25.114  11.070  12.197
85964W        W52505  13.236  37.854   3.247
85965W        W52506  41.257  42.916  13.055
85966W        W52507  20.488  33.824   3.651
85967W        W52508  20.543  23.566  11.196
85968W        W52509   3.037   4.291  11.047
85969W        W52510  42.111  24.702   2.228
85970W        W52511  12.774  36.406   0.416
85971W        W52512   4.193  39.289   1.284
85972W        W52513  10.187   9.764   4.555
85973W        W52514  19.314  17.596   0.380
85974W        W52515   8.511   3.372  12.078
85975W        W52516  38.607  40.823   1.586
85976W        W52517   4.517  10.651   4.587
85977W        W52518  13.289  33.531   0.249
85978W        W52519   6.892  38.763  14.828
85979W        W52520  26.825  13.865   1.838
85980W        W52521  24.285  39.675  12.397
85981W        W52522   1.734  10.790   2.418
85982W        W52523  36.058  41.776   0.376
85983W        W52524  15.403  22.270  14.397
85984W        W52525  19.647   2.874  13.504
85985W        W52526  35.910  14.808  14.584
85986W        W52527   3.514  34.414  11.117
85987W        W52528  26.609  35.430   3.301
85988W        W52529   7.802  35.387  10.477
85989W        W52530  32.176   1.495   0.412
85990W        W52531  31.596  37.601  11.512
85991W        W52532  37.359  25.032   0.489
85992W        W52533  28.734  32.599   2.802
85993W        W52534  24.612  19.762  10.772
85994W        W52535  10.796  12.874   3.280
85995W        W52536  14.271   0.985   1.670
85996W        W52537  15.589  19.294   2.790
85997W        W52538  27.974  11.128  12.930
85998W        W52539  40.329  43.842  13.404
85999W        W52540  11.858  30.126   2.270
86000W        W52541  17.349   9.676   3.485
86001W        W52542  43.538  18.301  14.291
86002W        W52543   4.033  31.750  14.857
86003W        W52544  28.176  24.955   1.276
86004W        W52545  24.552  42.018  10.552
86005W        W52546  31.778   4.665  10.266
86006W        W52547  35.845  39.350  12.287
86007W        W52548  40.078  12.397  10.730
86008W        W52549  14.545   7.773   3.460
86009W        W52550  17.779  37.835   0.015
86010W        W52551  29.908  38.763   2.869
86011W        W52552   7.066  44.829  13.297
86012W        W52553  25.117  15.184   1.696
86013W        W52554  13.596  40.593  11.202
86014W        W52555  24.752  24.604   3.175
86015W        W52556  22.133   3.772  13.847
86016W        W52557   7.952  30.714  14.341
86017W        W52558   3.203  41.363   1.711
86018W        W52559   7.918  44.526  11.291
86019W        W52560  26.764  13.926  10.851
86020W        W52561   0.662  14.912   2.738
86021W        W52562  11.847  27.039  12.916
86022W        W52563  39.991  27.059  12.572
86023W        W52564  34.282   5.832  11.724
86024W        W52565   0.780  20.327  13.108
86025W        W52566  41.445  40.713  12.403
86026W        W52567   0.816  21.870  13.175
86027W        W52568  16.182  15.397  11.634
86028W        W52569   5.281  28.747   0.498
86029W        W52570  16.752   5.205   3.730
86030W        W52571  44.338  20.173  12.845
86031W        W52572  32.126   2.855  14.418
86032W        W52573  10.205  13.989   1.812
86033W        W52574   9.185   6.527   3.484
86034W        W52575  16.524   2.909   4.179
86035W        W52576  32.688  39.329   2.252
86036W        W52577  21.144  25.672  12.392
86037W        W52578  36.704  16.763  10.751
86038W        W52579  26.051  32.608  11.968
86039W        W52580  35.457  19.006  14.284
86040W        W52581  39.126  29.040  12.658
86041W        W52582  39.270  29.159  10.382
86042W        W52583   9.138  20.053  12.546
86043W        W52584   5.341  41.541  14.293
86044W        W52585  16.751  41.569  14.558
86045W        W52586  14.877  37.464  11.149
86046W        W52587  23.642  33.128   3.818
86047W        W52588  30.052  43.923  14.870
86048W        W52589  26.597  24.722  11.104
86049W        W52590  40.022  14.208  14.956
86050W        W52591  38.567   5.479  12.984
86051W        W52592   1.709  23.268  14.086
86052W        W52593   6.700   3.415  13.562
86053W        W52594  13.016  28.624   2.241
86054W        W52595  14.620  33.642  13.017
86055W        W52596  23.142  35.583   1.373
86056W        W52597  28.704  27.376   1.785
86057W        W52598  39.595  38.440  11.914
86058W        W52599   1.413  35.594  11.082
86059W        W52600  29.022   9.063   3.195
86060W        W52601  44.413   7.157   2.409
86061W        W52602  17.886  37.026   4.031
86062W        W52603  19.114  28.520  14.937
86063W        W52604  35.636   6.176   4.094
86064W        W52605  21.726  31.357  14.346
86065W        W52606  16.917  38.721   0.756
86066W        W52607  30.476  32.415   2.616
86067W        W52608  10.089  35.552  14.420
86068W        W52609  42.421  22.914  11.216
86069W        W52610  11.118  19.072   4.128
86070W        W52611  28.199   9.382  11.024
86071W        W52612  16.055  14.285   4.617
86072W        W52613  18.698   2.447   2.422
86073W        W52614   2.802   0.717   4.595
86074W        W52615  24.123  11.713   1.726
86075W        W52616  25.422  44.817   4.672
86076W        W52617   3.043   8.514  13.052
86077W        W52618  26.147  23.485  12.030
86078W        W52619  34.038  27.600  12.608
86079W        W52620  44.291   1.884   4.478
86080W        W52621   9.303  25.933   2.182
86081W        W52622  13.471  17.685  11.997
86082W        W52623   9.068  24.949  14.465
86083W        W52624  19.899  28.608   0.342
86084W        W52625  41.587  39.735   3.267
86085W        W52626  20.675  21.503   4.413
86086W        W52627  25.331   1.948  13.958
86087W        W52628   7.252  19.933  12.581
86088W        W52629   6.768  30.075   2.852
86089W        W52630   3.855  17.599  13.502
86090W        W52631  34.497  16.205  13.664
86091W        W52632  18.989  34.368  14.786
86092W        W52633  26.605  33.325   0.975
86093W        W52634  28.051  33.401   3.376
86094W        W52635   8.616  33.383  14.937
86095W        W52636  21.832  18.123  13.683
86096W        W52637  27.301   5.764   0.493
86097W        W52638  14.157  44.202   2.194
86098W        W52639  22.908  19.195   2.877
86099W        W52640   2.229  28.108  12.608
86100W        W52641  42.490  42.041  10.640
86101W        W52642   8.439  18.675  12.918
86102W        W52643   6.713   0.054   4.043
86103W        W52644  32.973  19.472   3.392
86104W        W52645  22.400   7.647  14.260
86105W        W52646  36.984  44.403  12.130
86106W        W52647  15.611  35.858  14.822
86107W        W52648   5.112   1.149   2.341
86108W        W52649  44.210   6.035   1.246
86109W        W52650  37.340  43.995   0.308
86110W        W52651  37.697  32.738   4.769
86111W        W52652   7.494   7.139  11.271
86112W        W52653  27.051   8.871   1.925
86113W        W52654  42.893   8.292   4.733
86114W        W52655  12.956   5.385   3.705
86115W        W52656  23.622  23.598   1.400
86116W        W52657  15.109  16.825   4.164
86117W        W52658  25.935  23.610  12.470
86118W        W52659   5.905  33.007   1.672
86119W        W52660  25.089  16.332   3.389
86120W        W52661  17.830  20.807  14.088
86121W        W52662  41.017  23.539  11.198
86122W        W52663  25.175  44.997   2.404
86123W        W52664  18.688  27.100   2.203
86124W        W52665  42.395  24.940   0.323
86125W        W52666  43.324  27.752   4.166
86126W        W52667  29.590  25.489   4.627
86127W        W52668   5.612  41.644  14.725
86128W        W52669  17.581  27.137   0.848
86129W        W52670  41.971  42.393  14.231
86130W        W52671   1.718  15.298   1.440
86131W        W52672   4.489  10.363   3.371
86132W        W52673  15.015   3.852   4.644
86133W        W52674  40.333  37.622  10.402
86134W        W52675  31.650   7.828  13.635
86135W        W52676  19.541  15.059  14.426
86136W        W52677  14.894   3.633   4.169
86137W        W52678  28.431  17.533  11.351
86138W        W52679  25.558  37.369   3.554
86139W        W52680  44.960  37.595   1.735
86140W        W52681  22.279   0.387   4.885
86141W        W52682  37.471  18.359  10.757
86142W        W52683   0.657   4.844  13.957
86143W        W52684   2.829   5.464   3.788
86144W        W52685   4.873   0.931   4.435
86145W        W52686  27.189  18.237   3.406
86146W        W52687   3.943  12.793   3.407
86147W        W52688   4.451  39.253  11.676
86148W        W52689  36.246  19.897   2.897
86149W        W52690  19.010   0.504   0.806
86150W        W52691   6.750  13.204  13.747
86151W        W52692  33.939  36.424   1.454
86152W        W52693  23.019  33.811   3.549
86153W        W52694   4.686  43.951  11.015
86154W        W52695  21.686  10.249   1.020
86155W        W52696  18.264  31.569   2.419
86156W        W52697   3.681  27.409  14.812
86157W        W52698  44.498   4.625  12.721
86158W        W52699  25.318  36.746  11.740
86159W        W52700   7.310   1.937  12.750
86160W        W52701  32.075  36.313   1.312
86161W        W52702  31.472  14.714   0.075
86162W        W52703   7.779  42.970  10.030
86163W        W52704  20.536  24.745   3.625
86164W        W52705  18.844  32.333   0.017
86165W        W52706  37.020   1.416   0.512
86166W        W52707  18.025  17.089  14.085
86167W        W52708  37.079  14.664   4.891
86168W        W52709  31.635   5.789  14.784
86169W        W52710  11.285  22.942  13.148
86170W        W52711  38.981  43.228  13.975
86171W        W52712  39.182  11.568  14.240
86172W        W52713  34.038  11.225   1.431
86173W        W52714  40.040   0.791  12.991
86174W        W52715  33.630   9.046  11.120
86175W        W52716  18.322  43.799   1.247
86176W        W52717  19.200  13.141   1.024
86177W        W52718  35.594  44.990   3.804
86178W        W52719  39.627   4.204  12.007
86179W        W52720  41.312   9.911  13.991
86180W        W52721   2.431   0.494  14.397
86181W        W52722  33.417  29.173   2.061
86182W        W52723  39.088  26.612   3.590
86183W        W52724  42.067   2.760   0.408
86184W        W52725  34.980  20.168  12.720
86185W        W52726  11.527  40.776  14.229
86186W        W52727  44.988   5.981   2.245
86187W        W52728  17.364  41.189  11.174
86188W        W52729  33.093  38.850   1.365
86189W        W52730  42.508  29.642  14.293
86190W        W52731  27.159  40.726   0.819
86191W        W52732   1.753  11.120   2.830
86192W        W52733  27.941  42.989  13.549
86193W        W52734   7.167  30.392  12.721
86194W        W52735  35.991  39.483   0.449
86195W        W52736  31.779  39.947  11.962
86196W        W52737  36.086   1.535  13.304
86197W        W52738   8.177  31.681  11.394
86198W        W52739  24.212  31.690   1.724
86199W        W52740  10.341  12.121   0.280
86200W        W52741  16.339  30.614  11.965
86201W        W52742  40.427  17.549  12.253
86202W        W52743   9.900  29.969  13.468
86203W        W52744   9.339  10.227  11.864
86204W        W52745  36.470   4.193   3.635
86205W        W52746  11.126  17.093  11.583
86206W        W52747  44.478  39.842   1.541
86207W        W52748  15.572  40.484   1.235
86208W        W52749  28.556  13.914   2.823
86209W        W52750  40.905  34.363   3.872
86210W        W52751  16.930  13.094  13.892
86211W        W52752   4.905  20.043   4.348
86212W        W52753   5.459  21.224   0.855
86213W        W52754  10.447  44.343  11.152
86214W        W52755   5.139  27.534   5.033
86215W        W52756  14.085  44.282  12.043
86216W        W52757  33.441  13.543  14.934
86217W        W52758  28.970  27.306   0.722
86218W        W52759  12.387  11.891  13.262
86219W        W52760  44.551  14.745   1.544
86220W        W52761   4.682  31.554  11.224
86221W        W52762  35.072  16.230  12.529
86222W        W52763  33.634  42.659   0.689
86223W        W52764  42.684  39.445  13.460
86224W        W52765  33.982  17.288  14.879
86225W        W52766  20.519  19.042   3.244
86226W        W52767   4.798  27.673   4.061
86227W        W52768  10.790  16.788   3.024
86228W        W52769  18.565  40.009   0.291
86229W        W52770   1.422  40.879  11.762
86230W        W52771   4.795  18.282   3.715
86231W        W52772  15.026   7.819  11.095
86232W        W52773   2.950  26.645   0.865
86233W        W52774   0.421  44.687  11.540
86234W        W52775  23.517  23.149   1.988
86235W        W52776   2.682  18.650   2.406
86236W        W52777  43.348   3.945   3.841
86237W        W52778  41.021  17.512  12.956
86238W        W52779  28.897  12.524   1.753
86239W        W52780   9.330   8.757   0.728
86240W        W52781  25.624  20.236  12.606
86241W        W52782  44.419  27.899   0.941
86242W        W52783   5.797  15.895   2.670
86243W        W52784   2.083   1.733  10.690
86244W        W52785  11.247  39.309   2.206
86245W        W52786  44.003  27.146  14.437
86246W        W52787  12.724  14.363  14.948
86247W        W52788  21.503  42.878  11.610
86248W        W52789   3.628  25.995   0.838
86249W        W52790  22.775   8.008   9.784
86250W        W52791  23.245  30.441   3.292
86251W        W52792  24.663  16.962  12.449
86252W        W52793  27.981  32.047   2.716
86253W        W52794  33.098  32.877   0.953
86254W        W52795  35.151  22.601  10.830
86255W        W52796  34.067   2.289  11.658
86256W        W52797  10.420  12.857  12.283
86257W        W52798  31.680  12.814  11.644
86258W        W52799   6.887  41.561   1.517
86259W        W52800  12.447  15.039  14.483
86260W        W52801   2.973  27.655  12.457
86261W        W52802  19.965  35.302  11.338
86262W        W52803  42.369  25.669  14.424
86263W        W52804   1.928  36.435   2.399
86264W        W52805  23.284  43.584   1.247
86265W        W52806  37.830  44.923   3.253
86266W        W52807   8.211   6.676   1.986
86267W        W52808  44.739   1.167  13.891
86268W        W52809   2.783  28.034   3.234
86269W        W52810  23.145   3.962  12.622
86270W        W52811  38.586   7.899   2.462
86271W        W52812  12.834   0.968   1.786
86272W        W52813  20.872  33.939   2.303
86273W        W52814  13.218  35.584   1.990
86274W        W52815   6.873  12.727   3.319
86275W        W52816  11.379   2.229   0.558
86276W        W52817  16.114  33.793  14.806
86277W        W52818  27.076  21.589   2.470
86278W        W52819   6.822   3.861   0.049
86279W        W52820   3.049  35.955  13.981
86280W        W52821  14.228  21.597   3.031
86281W        W52822  21.554  35.298   3.525
86282W        W52823  35.740  31.030  13.824
86283W        W52824  29.095  10.610  11.904
86284W        W52825  21.649   0.755   1.882
86285W        W52826  23.055  41.769  12.405
86286W        W52827  19.791  15.510  14.364
86287W        W52828  23.538  12.435  10.601
86288W        W52829  43.659  30.419   0.907
86289W        W52830  37.703  42.817  13.342
86290W        W52831  26.124   8.156   4.040
86291W        W52832  13.403  32.944   1.891
86292W        W52833   4.564  18.909  11.955
86293W        W52834  19.744  38.464   3.873
86294W        W52835  43.032  40.517  12.644
86295W        W52836  44.300  37.588   1.831
86296W        W52837  10.881   2.433  10.754
86297W        W52838   9.007  37.559  12.457
86298W        W52839  13.245  42.977   0.043
86299W        W52840  26.211  42.850   3.350
86300W        W52841  33.173  28.098   3.903
86301W        W52842  16.098  42.455   1.203
86302W        W52843  36.538   8.597  14.949
86303W        W52844   6.244  44.963  11.858
86304W        W52845  41.778  16.305   2.024
86305W        W52846   1.993  32.701   3.903
86306W        W52847   2.218   0.460  10.536
86307W        W52848  13.838  13.216  11.548
86308W        W52849   6.987  13.213   3.153
86309W        W52850  10.081   3.191   3.126
86310W        W52851  35.492  35.361   1.759
86311W        W52852   6.136  21.404  12.997
86312W        W52853  40.035  21.009  10.335
86313W        W52854  21.325  21.912  14.772
86314W        W52855  32.073   0.701  14.314
86315W        W52856  34.636  42.876   4.625
86316W        W52857  19.212  42.206  13.419
86317W        W52858   3.854  17.634  14.025
86318W        W52859  10.597   7.764   2.197
86319W        W52860  23.068  14.352   4.226
86320W        W52861  10.379  19.710  11.955
86321W        W52862   2.172  38.045   0.283
86322W        W52863  24.884  32.632   0.979
86323W        W52864  12.846  37.095   0.879
86324W        W52865  25.646  43.065   1.635
86325W        W52866   9.084  13.633   4.707
86326W        W52867  25.320  12.640  12.094
86327W        W52868  41.434  32.449  13.425
86328W        W52869   8.484  14.673  11.162
86329W        W52870  42.451  10.762   3.221
86330W        W52871  22.077   2.247  13.101
86331W        W52872  30.715  34.979   2.281
86332W        W52873  11.292  33.581  11.005
86333W        W52874  36.633  41.834  14.326
86334W        W52875  29.669  43.634   0.786
86335W        W52876  12.404  11.392  13.017
86336W        W52877   7.843  32.502  12.890
86337W        W52878  30.152  22.885  13.374
86338W        W52879  13.561  19.699  12.074
86339W        W52880  38.369  25.216   3.019
86340W        W52881  39.566  23.954   3.728
86341W        W52882   6.089  29.422   4.626
86342W        W52883  24.742  16.868  12.956
86343W        W52884  16.167  16.117   3.143
86344W        W52885  30.870  36.613  11.517
86345W        W52886  35.374  14.242  11.093
86346W        W52887  16.394  20.243   3.464
86347W        W52888  42.017  42.591   2.875
86348W        W52889   1.557  26.230   5.024
86349W        W52890   5.367  30.696   2.143
86350W        W52891  36.017   2.775  11.452
86351W        W52892   5.767  20.533   3.136
86352W        W52893  35.206  36.014   4.099
86353W        W52894  24.805   5.862   3.188
86354W        W52895   3.233   2.445  12.519
86355W        W52896  10.860  19.736  11.759
86356W        W52897  43.645  38.274   0.696
86357W        W52898   0.600   1.194   0.506
86358W        W52899  16.242  35.849  12.005
86359W        W52900  17.214   4.894   2.741
86360W        W52901  31.000   4.837  13.947
86361W        W52902  23.930  43.919  12.392
86362W        W52903  13.666  32.407  14.805
86363W        W52904  40.501   6.120   4.230
86364W        W52905   3.950   7.402   0.444
86365W        W52906  35.290  29.966   2.667
86366W        W52907  44.753   4.302   3.139
86367W        W52908  42.456  30.485   3.350
86368W        W52909  42.856  25.964   1.185
86369W        W52910  15.899   1.221  13.599
86370W        W52911  16.886  29.041   1.357
86371W        W52912  19.236   6.334  12.404
86372W        W52913  42.479  16.791   2.187
86373W        W52914  29.666  30.732  11.612
86374W        W52915  30.558  22.656  13.072
86375W        W52916  38.366  15.334  13.439
86376W        W52917  36.740   6.330   3.378
86377W        W52918   2.819  12.230   2.555
86378W        W52919  43.943   8.777   3.813
86379W        W52920   2.292  22.455  11.886
86380W        W52921  31.120   8.570   4.197
86381W        W52922  13.455   5.434   3.609
86382W        W52923  41.405  19.622  13.405
86383W        W52924  23.079   7.855  10.628
86384W        W52925  38.404  14.866  14.400
86385W        W52926  19.184  23.038   4.088
86386W        W52927  12.527  10.776   0.413
86387W        W52928   9.924  28.497   0.451
86388W        W52929   5.626  42.106  10.082
86389W        W52930  20.191  20.678  13.959
86390W        W52931   2.326  26.239  12.840
86391W        W52932  26.375   9.545  10.541
86392W        W52933   2.623  39.748   3.716
86393W        W52934  23.781  22.292  14.860
86394W        W52935   7.648  15.669   4.585
86395W        W52936  26.096   5.457  11.540
86396W        W52937  19.938  43.416   0.980
86397W        W52938  39.574  35.399  12.893
86398W        W52939   2.182   8.502   4.087
86399W        W52940   4.058  38.353   3.840
86400W        W52941  39.076   2.964  13.502
86401W        W52942  15.996  22.662   1.530
86402W        W52943  15.358  29.690  14.909
86403W        W52944  30.568  12.713   1.853
86404W        W52945   3.465  41.756  13.535
86405W        W52946   7.362  28.326  13.457
86406W        W52947  27.968  16.381   2.568
86407W        W52948  31.559   4.661   9.720
86408W        W52949  41.463   3.037   4.525
86409W        W52950  28.358  13.763   1.927
86410W        W52951   7.395  35.852   0.927
86411W        W52952  37.214  38.705   0.224
86412W        W52953   3.523  43.770   4.959
86413W        W52954  29.959   0.361   3.486
86414W        W52955  18.531   3.527   1.567
86415W        W52956  23.935  40.581   3.149
86416W        W52957  25.403   2.905   1.528
86417W        W52958  44.093  18.522  11.494
86418W        W52959  19.878   0.840   3.766
86419W        W52960  14.393  25.242  10.773
86420W        W52961  29.063  12.185  14.773
86421W        W52962  10.216  32.660   4.060
86422W        W52963  41.895  14.256   0.305
86423W        W52964   7.940  25.701   3.241
86424W        W52965  10.490  39.503   5.146
86425W        W52966  41.885  43.219  11.517
86426W        W52967  42.260   1.444  11.023
86427W        W52968  18.990  12.628  10.089
86428W        W52969   9.472  19.624   1.719
86429W        W52970   3.815  41.891   0.679
86430W        W52971   9.163   4.388  12.546
86431W        W52972   8.075  10.225   1.912
86432W        W52973  27.586  37.902   0.444
86433W        W52974  40.470  11.517   1.031
86434W        W52975  37.618  19.043   0.148
86435W        W52976  12.106   7.650  11.658
86436W        W52977  18.841  14.314  11.153
86437W        W52978  28.523  33.523   4.253
86438W        W52979  20.162  19.789   3.567
86439W        W52980   0.645  18.216   3.819
86440W        W52981  20.713   4.940  11.437
86441W        W52982   4.361  15.365   2.660
86442W        W52983  31.151  28.511  10.698
86443W        W52984   2.038  12.217   4.257
86444W        W52985  29.988   9.255   2.871
86445W        W52986  28.503  13.636   1.049
86446W        W52987   0.975   1.942  11.537
86447W        W52988  22.492  27.457   0.564
86448W        W52989  44.859   2.711   4.597
86449W        W52990   6.181  10.224   1.813
86450W        W52991  10.333  43.487  14.030
86451W        W52992  16.241  40.097  12.936
86452W        W52993  28.442  40.487  13.907
86453W        W52994  25.711  18.034  14.968
86454W        W52995  41.349  37.230   0.774
86455W        W52996  32.403  14.301   1.963
86456W        W52997   9.189  14.746   0.862
86457W        W52998   7.449  19.169  14.903
86458W        W52999   0.892   4.850  12.483
86459W        W53000  14.780   7.582  12.992
86460W        W53001   9.744  30.264  12.432
86461W        W53002  11.312   7.097   1.337
86462W        W53003  25.777  27.477   3.754
86463W        W53004  36.137  43.078   1.840
86464W        W53005  41.382  13.408   2.617
86465W        W53006  31.923  24.044   4.519
86466W        W53007   4.844  24.627   3.229
86467W        W53008   1.723  29.071   0.736
86468W        W53009  18.999  36.723   0.660
86469W        W53010  25.164  35.937   0.656
86470W        W53011  40.905  10.652  13.415
86471W        W53012   7.191  15.009  11.044
86472W        W53013  36.155  22.260   2.391
86473W        W53014  41.321  23.525  10.778
86474W        W53015   4.195  17.073   1.702
86475W        W53016  10.309   0.249  10.718
86476W        W53017  36.750  11.861   1.495
86477W        W53018   8.128  28.983  14.422
86478W        W53019  15.496   3.006   4.121
86479W        W53020   9.126  19.342   2.617
86480W        W53021  15.754   0.543  12.014
86481W        W53022  37.316   7.000   4.937
86482W        W53023  11.442  44.037  12.952
86483W        W53024  42.527  28.524   1.251
86484W        W53025  38.734  36.089  13.372
86485W        W53026  44.471  15.754  13.810
86486W        W53027   6.464  27.059   3.185
86487W        W53028  13.906  37.640   1.917
86488W        W53029  40.021  24.298  12.600
86489W        W53030  30.937  28.951  12.378
86490W        W53031  14.869  33.088  13.299
86491W        W53032  10.126  26.123  13.013
86492W        W53033  20.064  22.899   3.695
86493W        W53034  35.452  37.189   1.364
86494W        W53035  21.350  37.502  13.575
86495W        W53036  33.978  34.463   0.088
86496W        W53037  37.107  13.998  12.455
86497W        W53038  13.307  34.883   4.524
86498W        W53039  28.842  26.743  12.098
86499W        W53040  13.108  34.438  14.720
86500W        W53041   9.093  40.975  13.933
86501W        W53042  34.149  38.370  13.876
86502W        W53043   9.808  11.884  13.632
86503W        W53044   0.572   1.517  12.682
86504W        W53045  31.533   7.130   0.314
86505W        W53046  38.872  36.371   4.025
86506W        W53047  33.127   4.987   1.883
86507W        W53048  27.169  34.486   4.067
86508W        W53049  43.325   5.937  11.044
86509W        W53050  21.583  17.523   3.922
86510W        W53051  22.564  26.900  13.898
86511W        W53052   2.302   7.495  11.258
86512W        W53053  30.272  18.840  13.917
86513W        W53054  27.267   7.801   2.666
86514W        W53055  40.867  14.089  11.493
86515W        W53056  29.165  35.383  13.378
86516W        W53057  13.694   7.454   3.534
86517W        W53058  12.566   6.166   3.796
86518W        W53059   4.833  44.026   5.003
86519W        W53060  25.175  12.237   0.439
86520W        W53061  29.994  30.444   0.346
86521W        W53062  31.702  23.210   1.280
86522W        W53063   6.364  12.781  11.617
86523W        W53064   5.098  37.347  12.537
86524W        W53065   9.865   1.528  12.116
86525W        W53066   5.392  32.072  10.242
86526W        W53067   2.417  35.576  13.088
86527W        W53068  27.723  18.664   1.690
86528W        W53069  31.927  27.555  11.622
86529W        W53070  13.684  41.281   3.284
86530W        W53071  31.865  24.524  13.474
86531W        W53072  30.096   3.555   1.335
86532W        W53073  41.669  14.823   2.576
86533W        W53074  35.450   0.437  13.539
86534W        W53075  24.493  23.468   0.726
86535W        W53076   7.896   4.678  14.717
86536W        W53077   5.437  32.397   9.559
86537W        W53078  16.094  31.020   3.395
86538W        W53079   7.737  40.976  10.824
86539W        W53080  20.857  10.450  11.840
86540W        W53081  41.363  41.571   2.183
86541W        W53082   0.915  25.053  10.614
86542W        W53083  32.338  35.547   4.145
86543W        W53084  29.619  32.894   3.165
86544W        W53085   5.793  12.168  14.875
86545W        W53086   7.382  14.482  13.702
86546W        W53087  28.628  15.181   1.416
86547W        W53088   8.912  15.651   1.981
86548W        W53089  23.542  44.479  13.025
86549W        W53090   9.235  40.886   2.635
86550W        W53091  31.656  25.500  12.747
86551W        W53092  11.178  22.707  12.625
86552W        W53093  37.569  38.065   3.213
86553W        W53094  15.306  15.834  14.173
86554W        W53095  42.882  11.384  11.690
86555W        W53096  34.855  31.039   4.670
86556W        W53097  11.901  22.533  12.685
86557W        W53098   8.274  12.631  12.841
86558W        W53099  39.567   1.867   3.641
86559W        W53100  44.881  43.456   2.513
86560W        W53101   2.444  41.034  14.940
86561W        W53102  18.997  23.964  11.211
86562W        W53103  41.532  14.526   2.184
86563W        W53104   1.427  23.441   3.386
86564W        W53105   1.437  37.896  12.995
86565W        W53106  38.202   4.645  13.651
86566W        W53107  18.011   0.851  13.126
86567W        W53108   4.838   0.981   3.564
86568W        W53109  22.496  22.981   4.362
86569W        W53110  29.565  28.021   0.759
86570W        W53111  27.974  24.089   4.355
86571W        W53112  41.859  41.015   4.108
86572W        W53113  25.780  11.924  10.642
86573W        W53114  42.308  34.157  14.285
86574W        W53115  11.453  15.052   2.395
86575W        W53116  10.131  35.063  12.156
86576W        W53117  11.292  20.841   2.139
86577W        W53118   5.230   2.644   2.206
86578W        W53119  20.755  29.091   4.483
86579W        W53120  23.021  29.145   0.964
86580W        W53121  13.999  35.415   1.349
86581W        W53122  24.602   1.440   1.162
86582W        W53123  34.658  41.626   3.287
86583W        W53124  24.939  38.382   3.719
86584W        W53125  25.203   7.843  14.005
86585W        W53126   3.805  43.476  13.902
86586W        W53127  42.702  19.567   2.807
86587W        W53128  28.439   7.175  12.472
86588W        W53129  35.659   1.798   0.769
86589W        W53130  33.827  14.212  13.765
86590W        W53131  40.150   0.933   2.419
86591W        W53132   3.395  30.323  13.995
86592W        W53133  35.386  30.434   1.185
86593W        W53134  43.846  12.843  10.989
86594W        W53135  11.401  17.649  10.974
86595W        W53136   3.870   7.897   3.920
86596W        W53137  30.087  41.431   4.732
86597W        W53138  18.051  23.420   1.650
86598W        W53139  34.429   3.259   2.182
86599W        W53140  44.769  38.285   2.136
86600W        W53141   8.433   6.912   2.388
86601W        W53142  37.292  29.300  12.046
86602W        W53143  22.642   2.951   1.807
86603W        W53144  19.261  33.102   2.238
86604W        W53145  43.974  21.249  11.968
86605W        W53146  16.982  15.476  12.496
86606W        W53147   0.658  41.670   1.876
86607W        W53148  10.393  15.387  12.528
86608W        W53149   3.006  10.811   3.722
86609W        W53150  28.688   1.130   3.106
86610W        W53151  14.513   8.730   2.724
86611W        W53152  10.866  28.950  12.552
86612W        W53153  44.551  38.903  10.638
86613W        W53154   0.524  21.494  12.415
86614W        W53155  43.858  28.414   3.902
86615W        W53156   7.223   1.632   9.766
86616W        W53157  40.123  37.375  12.612
86617W        W53158  19.389  35.813   3.612
86618W        W53159  24.326  25.641   2.303
86619W        W53160  19.001  43.886  14.971
86620W        W53161  15.473  39.336  12.703
86621W        W53162  11.704  24.645   3.318
86622W        W53163  37.322   7.326  13.966
86623W        W53164  28.831  11.238   4.135
86624W        W53165  17.115   0.289  11.049
86625W        W53166  29.055  32.967  12.675
86626W        W53167   4.354  28.077   1.253
86627W        W53168   8.175  32.216   0.596
86628W        W53169   1.391  13.629  13.094
86629W        W53170  18.761   6.116  12.274
86630W        W53171   3.291  37.958   1.210
86631W        W53172  42.858  15.697   4.534
86632W        W53173  25.865   1.768   1.990
86633W        W53174  34.860  35.970   0.951
86634W        W53175   4.715  32.819   1.568
86635W        W53176  36.450   2.247  10.257
86636W        W53177  10.367  12.677   1.936
86637W        W53178  17.586   8.972  10.295
86638W        W53179  33.793  16.820   4.182
86639W        W53180   1.157  35.859  12.447
86640W        W53181  23.618  32.375   1.369
86641W        W53182  39.993  14.877  14.515
86642W        W53183   5.635  38.907   9.761
86643W        W53184  21.273   4.786  13.487
86644W        W53185  36.445  19.122  13.500
86645W        W53186  16.130  41.416   3.751
86646W        W53187   3.756  28.620  10.243
86647W        W53188   0.695  20.398  11.306
86648W        W53189  33.846  14.799  13.051
86649W        W53190  18.264  40.884   3.183
86650W        W53191   1.264   1.192  12.149
86651W        W53192  22.569  33.767   1.032
86652W        W53193  10.619  24.136  11.832
86653W        W53194  37.277  17.827   0.448
86654W        W53195   6.221  33.934  12.095
86655W        W53196  38.792  10.765   2.847
86656W        W53197  34.865  42.548   3.419
86657W        W53198  18.225  25.504   3.192
86658W        W53199  16.077  20.701  11.843
86659W        W53200   5.811   5.227   1.007
86660W        W53201   1.305   8.442  12.961
86661W        W53202   1.851   0.917   0.272
86662W        W53203  15.290  42.932  13.746
86663W        W53204  18.713  19.486  12.412
86664W        W53205  36.818  26.790   4.108
86665W        W53206  38.210  12.716   3.195
86666W        W53207  26.273  25.034  12.915
86667W        W53208  26.495  18.438  11.893
86668W        W53209  23.463  42.507  10.612
86669W        W53210  15.426  41.466   2.547
86670W        W53211  23.994  10.564  11.197
86671W        W53212   1.021  36.591   2.850
86672W        W53213  11.710  15.106   1.183
86673W        W53214  41.034  13.111  12.461
86674W        W53215  21.626  44.487  10.732
86675W        W53216  27.635   7.106   2.303
86676W        W53217  10.686  36.009  12.905
86677W        W53218  33.526  26.978  12.155
86678W        W53219  29.959   6.953  12.995
86679W        W53220  30.197  19.180   4.178
86680W        W53221   9.581   4.872  13.942
86681W        W53222  31.241  31.030   1.253
86682W        W53223  32.851   9.503   2.110
86683W        W53224  32.508  14.641   1.099
86684W        W53225  44.312  36.554  11.553
86685W        W53226  37.043  24.741  12.916
86686W        W53227  27.187  22.396   4.558
86687W        W53228  13.603   5.754   3.237
86688W        W53229  31.659  37.109   3.168
86689W        W53230  37.987  35.484  14.920
86690W        W53231  20.111  42.639  12.096
86691W        W53232  42.550  13.959   9.930
86692W        W53233  23.209  42.057  14.851
86693W        W53234  44.837  36.106  13.072
86694W        W53235   5.295   8.006   3.972
86695W        W53236  21.034  17.618   0.235
86696W        W53237  31.102   0.011  11.145
86697W        W53238  10.165  24.757  12.979
86698W        W53239  33.864  21.574  12.744
86699W        W53240  17.272   7.204  12.925
86700W        W53241  42.962   8.241   3.174
86701W        W53242  27.889  32.375   4.642
86702W        W53243  14.656   8.191  14.058
86703W        W53244   4.258  30.435   1.006
86704W        W53245  34.393  39.931   4.881
86705W        W53246  23.165  28.213   0.838
86706W        W53247   0.802   5.476   3.706
86707W        W53248  26.912   7.839  11.828
86708W        W53249  23.565  11.151  12.297
86709W        W53250  34.292  13.326  14.888
86710W        W53251  15.800  29.697  13.531
86711W        W53252  41.973  15.292   4.849
86712W        W53253  20.155  25.294   2.509
86713W        W53254  19.281  25.658   1.150
86714W        W53255  11.637  44.935  13.991
86715W        W53256  20.509  44.088   2.762
86716W        W53257   8.942   6.851  13.488
86717W        W53258  14.463  18.762  13.789
86718W        W53259   4.703  25.268   0.298
86719W        W53260  34.479  20.078  12.662
86720W        W53261   9.078  27.394   3.783
86721W        W53262  16.845  20.352  13.014
86722W        W53263  20.313   1.192   2.293
86723W        W53264   4.938  33.563  14.345
86724W        W53265  23.353  12.776  10.933
86725W        W53266  36.848  12.306   0.270
86726W        W53267  28.626   4.971  10.840
86727W        W53268  40.017  31.167  10.785
86728W        W53269   1.924   4.322   1.638
86729W        W53270  16.676  40.721  11.533
86730W        W53271  30.272   3.836   4.918
86731W        W53272  34.643  28.215   0.329
86732W        W53273  37.499  25.941  14.991
86733W        W53274  10.742  25.206  13.857
86734W        W53275  44.301  27.689  11.938
86735W        W53276   0.526  14.654   3.168
86736W        W53277  12.180  39.375   2.165
86737W        W53278  10.759  42.841  11.023
86738W        W53279   1.235  16.221   4.342
86739W        W53280  35.070  24.244   2.098
86740W        W53281  27.861  37.797  10.666
86741W        W53282  27.005  15.445   1.487
86742W        W53283  37.526   4.821  10.635
86743W        W53284  21.368  21.294   0.210
86744W        W53285  41.064  42.991  14.024
86745W        W53286  37.822   1.924   0.443
86746W        W53287   6.405  18.876  11.564
86747W        W53288  15.287   2.536  14.873
86748W        W53289  33.391  12.174  11.781
86749W        W53290  33.311   1.342  10.720
86750W        W53291  34.826  30.562   1.258
86751W        W53292  29.105   0.388  14.637
86752W        W53293  44.947  19.052  11.402
86753W        W53294  33.486   5.676   3.404
86754W        W53295  37.825   8.698  14.368
86755W        W53296  14.089  12.094  12.400
86756W        W53297  14.244  43.279  14.525
86757W        W53298  13.335  34.496  12.952
86758W        W53299  13.100   0.363   2.179
86759W        W53300  25.487  29.078  12.742
86760W        W53301  27.551   2.660   2.691
86761W        W53302  22.313  41.587  11.072
86762W        W53303  25.581  13.755   4.317
86763W        W53304  37.988  36.429  14.447
86764W        W53305  41.472   8.446  10.788
86765W        W53306   6.411  34.255  11.672
86766W        W53307  26.759  27.214  11.215
86767W        W53308   9.722  12.217  10.729
86768W        W53309  28.714   7.432  12.849
86769W        W53310  31.319  20.164   1.863
86770W        W53311  25.454  30.371   4.105
86771W        W53312   8.739  31.387   3.927
86772W        W53313  44.305  39.847  12.126
86773W        W53314  29.899  21.031   1.195
86774W        W53315  39.311   5.327   0.464
86775W        W53316  39.960  37.435   0.973
86776W        W53317  21.734  16.199  12.498
86777W        W53318  16.793  34.096  13.659
86778W        W53319  15.671  23.727   3.355
86779W        W53320   9.926   1.283  11.680
86780W        W53321  29.098  10.154   1.955
86781W        W53322  23.490  38.321   1.272
86782W        W53323  27.363  29.123  12.671
86783W        W53324  42.975  22.677  14.767
86784W        W53325   1.836  22.466  10.666
86785W        W53326  41.935  13.853   3.197
86786W        W53327  22.777  38.888   0.918
86787W        W53328  33.130  39.481  10.401
86788W        W53329   8.771  14.360   0.080
86789W        W53330  44.255  28.977   4.472
86790W        W53331  23.382  37.593   2.565
86791W        W53332  29.165  42.147  11.382
86792W        W53333  42.107   5.437   3.698
86793W        W53334  40.640   7.000  14.853
86794W        W53335  13.872  38.111   2.123
86795W        W53336  43.912  41.426  11.640
86796W        W53337  10.945   0.226  12.330
86797W        W53338   8.673  24.718   2.248
86798W        W53339  27.506   5.867  14.521
86799W        W53340  11.412  29.616  12.103
86800W        W53341  21.457  16.337  12.906
86801W        W53342  22.615  15.607   2.439
86802W        W53343  30.904  10.251  11.623
86803W        W53344   9.869   2.027  11.938
86804W        W53345  24.299   5.993   4.065
86805W        W53346  42.618  42.876  14.516
86806W        W53347   3.934  26.880  11.357
86807W        W53348  35.332  32.900   1.476
86808W        W53349  32.636  28.293  14.295
86809W        W53350  27.451   4.392   1.063
86810W        W53351  30.475   6.303  12.275
86811W        W53352  15.839  21.062   4.139
86812W        W53353   7.467  24.653  12.011
86813W        W53354  29.730   0.286   0.534
86814W        W53355  27.732  38.443   4.107
86815W        W53356  44.027  10.313   3.133
86816W        W53357  29.920  29.407   1.100
86817W        W53358  28.060   4.464  12.956
86818W        W53359   9.176  19.363  12.076
86819W        W53360  36.538   1.691  12.980
86820W        W53361  44.297  21.617  11.802
86821W        W53362  25.133   0.831  13.426
86822W        W53363  11.353  37.474  12.433
86823W        W53364  31.934   1.921   2.287
86824W        W53365  37.367  43.808  13.333
86825W        W53366  40.336  32.446   1.313
86826W        W53367   1.901  42.181  14.237
86827W        W53368  10.349   5.573  14.409
86828W        W53369  32.480  18.294   3.692
86829W        W53370   2.524  30.524   2.297
86830W        W53371   5.643  17.542  14.903
86831W        W53372  30.244   0.555  12.611
86832W        W53373  39.814  37.208  12.223
86833W        W53374   6.302  17.647   4.636
86834W        W53375  33.497   8.378  14.027
86835W        W53376  21.273  28.926  11.086
86836W        W53377  37.223   2.884   5.515
86837W        W53378  14.006  31.955  12.304
86838W        W53379  31.938  26.228  11.128
86839W        W53380   7.780  27.684   0.046
86840W        W53381  15.119  12.018   0.910
86841W        W53382  11.841  20.706  14.314
86842W        W53383  20.700  26.042   3.262
86843W        W53384  21.063  40.592  10.811
86844W        W53385   0.780  30.100   4.857
86845W        W53386  25.277   1.314  13.605
86846W        W53387  29.883   1.955  12.909
86847W        W53388  26.573  11.736   1.830
86848W        W53389  33.152  34.357  12.444
86849W        W53390  12.165  43.363  13.219
86850W        W53391  38.860  30.437   3.577
86851W        W53392  13.533  13.269  11.130
86852W        W53393  22.161  43.788  14.841
86853W        W53394   8.220  37.629   0.021
86854W        W53395  31.250  17.566  13.108
86855W        W53396  29.661  22.441  11.000
86856W        W53397  14.114   6.181   1.626
86857W        W53398   2.869  28.336  11.956
86858W        W53399  15.184   6.731   3.301
86859W        W53400  29.003  34.744   3.168
86860W        W53401  11.582  25.595  11.566
86861W        W53402  18.656   1.354   1.629
86862W        W53403  18.257  31.057   2.200
86863W        W53404  38.875  34.971   2.934
86864W        W53405  18.133  19.775  13.462
86865W        W53406  30.964  25.774   1.409
86866W        W53407   6.959  13.138   0.724
86867W        W53408  30.139  32.544   1.771
86868W        W53409  39.507   8.724  11.136
86869W        W53410  33.423  25.227   1.468
86870W        W53411  39.948  34.091   3.917
86871W        W53412  40.948  15.103   3.367
86872W        W53413  28.694  37.823   1.843
86873W        W53414  23.478  18.159   1.853
86874W        W53415  24.903   2.385   2.895
86875W        W53416  15.557  29.072  10.310
86876W        W53417   3.993  23.592   1.160
86877W        W53418  26.186   2.482  13.043
86878W        W53419  29.426  16.592   3.785
86879W        W53420  41.371  27.400   1.904
86880W        W53421   4.142  38.840  11.761
86881W        W53422  32.493   6.143  10.165
86882W        W53423  26.202  20.473   0.483
86883W        W53424  33.326   3.671   1.950
86884W        W53425  23.582  29.622   2.247
86885W        W53426   0.406  42.930   2.664
86886W        W53427  13.617   9.485   3.921
86887W        W53428  25.442   7.222  13.528
86888W        W53429  29.249  28.893   4.041
86889W        W53430  10.864  43.256   4.299
86890W        W53431  24.572  36.111   3.858
86891W        W53432  14.786   4.949   3.662
86892W        W53433  26.220  41.200   0.962
86893W        W53434  18.754  40.850  12.731
86894W        W53435  36.533  21.714  13.660
86895W        W53436  18.150  21.002   4.207
86896W        W53437  16.612   4.515  12.892
86897W        W53438  42.127  36.177  12.031
86898W        W53439  39.447  12.134  11.581
86899W        W53440  27.172  44.755  13.467
86900W        W53441  32.680  26.961  11.635
86901W        W53442  22.502   4.829  12.046
86902W        W53443  13.269  11.853   3.378
86903W        W53444   4.961  23.964  13.614
86904W        W53445  28.408  12.626  13.277
86905W        W53446   2.761  22.434  11.639
86906W        W53447  33.355  29.327   0.223
86907W        W53448  36.344  20.871   4.489
86908W        W53449  20.219   3.461   4.902
86909W        W53450  11.669  20.741  13.387
86910W        W53451  32.081   8.962   2.388
86911W        W53452  20.222   4.013  13.223
86912W        W53453   1.467   5.100  13.794
86913W        W53454  33.572  42.582  10.576
86914W        W53455  21.955  17.604  10.813
86915W        W53456   2.995   8.864   1.551
86916W        W53457  20.322   2.924  10.668
86917W        W53458  10.474  19.316   4.560
86918W        W53459   8.283   3.822  11.508
86919W        W53460  32.463  25.940  12.418
86920W        W53461  36.915   3.534  14.089
86921W        W53462   3.961  28.464  13.009
86922W        W53463  21.674  21.411   4.602
86923W        W53464  27.014  40.609  13.001
86924W        W53465  11.857  15.076   3.803
86925W        W53466   3.966   3.313   1.903
86926W        W53467  25.493  34.499   0.210
86927W        W53468  30.523  39.037   1.786
86928W        W53469  28.009  21.833   1.401
86929W        W53470   1.195   5.280  12.522
86930W        W53471  10.887   8.317   1.703
86931W        W53472  15.022   0.950  14.555
86932W        W53473  42.253   7.277   1.434
86933W        W53474  42.129   6.206  11.441
86934W        W53475  12.889  29.865   2.197
86935W        W53476  11.226  13.368  13.403
86936W        W53477   7.862  36.491  12.014
86937W        W53478  26.916  40.910  14.292
86938W        W53479  17.399  38.942   0.844
86939W        W53480  29.680  14.680  13.635
86940W        W53481  10.627  37.602   2.453
86941W        W53482  44.348   9.319   2.180
86942W        W53483   0.793  15.685   0.826
86943W        W53484  18.196  44.225  12.574
86944W        W53485  16.322  18.834  13.416
86945W        W53486  36.005  31.056  12.483
86946W        W53487  40.945  26.264   0.644
86947W        W53488  27.471  27.270   1.146
86948W        W53489  16.225  14.517   1.282
86949W        W53490  23.501  10.705   0.703
86950W        W53491  28.957  12.018  10.190
86951W        W53492  32.050  27.604  12.445
86952W        W53493  41.811  17.616  12.484
86953W        W53494  16.459  10.789  13.963
86954W        W53495  19.506  18.062  14.353
86955W        W53496  33.936  11.568  12.053
86956W        W53497  27.160  33.036  13.052
86957W        W53498   0.740  29.428  13.362
86958W        W53499   7.745  13.570   1.180
86959W        W53500   3.582   1.254  10.065
86960W        W53501  34.668  10.936   4.047
86961W        W53502  42.419  43.684   4.155
86962W        W53503  29.462  23.613   5.014
86963W        W53504  13.424  15.711  12.445
86964W        W53505  34.499  24.412   2.429
86965W        W53506  41.449  41.207  12.198
86966W        W53507  32.662  32.025   0.060
86967W        W53508  33.450  20.227  10.694
86968W        W53509  30.988  27.913   2.836
86969W        W53510  40.275   9.765  13.035
86970W        W53511  23.985  42.100  14.383
86971W        W53512  34.437   2.287   4.395
86972W        W53513  38.550   3.885  12.086
86973W        W53514  34.328  13.853  14.404
86974W        W53515  17.026  38.554   3.363
86975W        W53516  39.133  42.016   2.882
86976W        W53517  17.199  17.756   4.839
86977W        W53518   4.965  20.394  14.813
86978W        W53519  44.439   3.435   3.248
86979W        W53520  36.935  16.129   2.429
86980W        W53521  19.323  12.537   4.004
86981W        W53522  36.640  42.998   4.171
86982W        W53523   6.630  31.208  11.146
86983W        W53524  17.810   0.525   4.218
86984W        W53525  43.379  40.431   4.370
86985W        W53526  15.279  32.223  10.673
86986W        W53527  21.600   6.970   1.120
86987W        W53528   4.442  33.494   1.010
86988W        W53529   0.774  25.417  12.035
86989W        W53530  18.225  12.674  14.024
86990W        W53531  21.155  31.193  11.056
86991W        W53532  33.023  40.497  14.787
86992W        W53533  18.774  19.657   3.244
86993W        W53534  42.648  19.800  14.978
86994W        W53535  37.396  38.742  14.713
86995W        W53536  42.269  23.637   1.808
86996W        W53537  35.019  18.965  13.977
86997W        W53538   1.255  30.345   1.909
86998W        W53539   8.395   3.193  13.919
86999W        W53540  41.993  42.723  11.574
87000W        W53541  33.116  13.242   5.421
87001W        W53542  22.544  32.833   0.721
87002W        W53543  16.265  23.087  10.578
87003W        W53544   1.289  30.294   2.749
87004W        W53545  26.959  23.976   4.887
87005W        W53546   0.774   7.163  13.971
87006W        W53547  28.161  15.131   1.643
87007W        W53548  39.035   8.801   1.483
87008W        W53549  26.191  10.764   0.422
87009W        W53550  22.969  40.870  12.545
87010W        W53551   7.672  35.655  13.378
87011W        W53552   1.760  31.440  13.027
87012W        W53553   8.638  36.329   2.793
87013W        W53554  28.393  22.191   1.433
87014W        W53555  23.553  29.546  14.271
87015W        W53556  43.042   9.320  11.666
87016W        W53557   2.970  22.501   0.935
87017W        W53558   5.290  35.588   3.293
87018W        W53559  22.317   1.775   4.513
87019W        W53560  43.025   0.893  10.820
87020W        W53561  24.549  15.700   4.050
87021W        W53562  16.891   6.732  11.181
87022W        W53563  20.688  44.599  12.074
87023W        W53564  41.864  12.776  13.557
87024W        W53565   8.820  10.933  13.495
87025W        W53566  44.978  42.682  11.156
87026W        W53567  11.134  10.707  13.430
87027W        W53568  27.374  27.983  12.012
87028W        W53569  19.750  21.194   4.571
87029W        W53570  29.235  42.812   2.817
87030W        W53571  31.333  28.143   1.456
87031W        W53572  40.213   0.266   0.237
87032W        W53573  27.234  42.039   4.293
87033W        W53574  30.527  42.651  12.685
87034W        W53575  41.986  26.641   2.103
87035W        W53576  28.050  25.499   1.295
87036W        W53577  43.410  28.534   2.134
87037W        W53578  20.599  18.823   3.708
87038W        W53579  38.003  21.469   0.960
87039W        W53580   5.149  16.745   3.647
87040W        W53581  26.173  24.998  11.142
87041W        W53582  22.663   6.647  11.615
87042W        W53583  33.047  13.446  12.012
87043W        W53584  14.192   8.341  14.870
87044W        W53585  37.209  23.742   1.102
87045W        W53586  15.812   5.797   1.541
87046W        W53587   8.266  36.115  12.603
87047W        W53588  12.002  32.144   3.223
87048W        W53589  25.756  35.348  12.167
87049W        W53590  42.745  32.981  12.362
87050W        W53591   2.906  25.518  12.846
87051W        W53592  12.829  42.996  12.889
87052W        W53593  18.823  21.055  14.426
87053W        W53594   9.615  20.953   0.798
87054W        W53595  28.423  27.980  11.967
87055W        W53596  36.302   4.292   3.153
87056W        W53597  15.406  17.188  12.506
87057W        W53598  40.623   9.680   0.274
87058W        W53599   6.728  10.012   4.582
87059W        W53600  38.426  24.461   1.839
87060W        W53601  20.590  37.899   3.577
87061W        W53602  20.707   1.510   2.162
87062W        W53603  25.824  22.104  14.795
87063W        W53604  10.223  16.734   4.543
87064W        W53605   4.758   7.759   2.777
87065W        W53606  24.980  29.625  11.340
87066W        W53607  28.637  29.590   1.898
87067W        W53608  20.497  35.367  14.629
87068W        W53609  19.766  43.500   3.714
87069W        W53610   6.833   7.550   1.167
87070W        W53611   9.875  16.252   3.602
87071W        W53612  12.597  32.134   4.997
87072W        W53613  31.519  14.925  13.841
87073W        W53614   1.207  13.097  13.027
87074W        W53615  26.769  32.692   2.366
87075W        W53616   8.333   3.963  14.940
87076W        W53617  15.651  40.966   2.448
87077W        W53618   7.907  27.785  13.901
87078W        W53619  35.635  18.348   3.254
87079W        W53620  11.979  17.949  10.714
87080W        W53621   0.866  43.177   0.853
87081W        W53622   3.298  14.107  12.397
87082W        W53623  25.590  30.258   1.221
87083W        W53624  26.962  28.050   1.473
87084W        W53625  10.045  35.308  13.595
87085W        W53626  27.933  16.624   0.565
87086W        W53627   5.312  26.102  13.354
87087W        W53628  27.756  40.872  12.994
87088W        W53629  32.578  12.673   1.202
87089W        W53630  10.800  35.872  13.539
87090W        W53631  19.723  44.455  10.617
87091W        W53632  36.790  40.025   1.367
87092W        W53633  23.164  43.746   0.243
87093W        W53634   1.610  20.517   2.350
87094W        W53635  24.255  35.365  13.639
87095W        W53636  40.792  24.113   3.360
87096W        W53637  39.827  42.642  12.547
87097W        W53638  11.725  43.202   3.306
87098W        W53639  35.490  44.507   4.032
87099W        W53640  24.044  21.577  14.320
87100W        W53641  38.481  43.549   3.696
87101W        W53642  19.740   0.936   2.377
87102W        W53643  35.330  43.778   0.917
87103W        W53644   1.797  25.450  11.844
87104W        W53645   1.267  27.642  12.765
87105W        W53646  10.662   8.403   3.746
87106W        W53647  21.906  19.585  12.552
87107W        W53648  28.215   1.511  11.682
87108W        W53649  38.451  30.140  10.658
87109W        W53650  14.683  44.443   2.208
87110W        W53651  33.921   8.345  14.352
87111W        W53652   8.368   4.285   3.897
87112W        W53653  38.058  25.711  14.930
87113W        W53654  27.967  13.264   3.168
87114W        W53655  33.521   5.773   0.931
87115W        W53656  15.822  30.045   3.014
87116W        W53657  43.347  28.046  14.993
87117W        W53658  16.536  25.070  12.898
87118W        W53659  14.431   9.481  13.413
87119W        W53660   2.271  19.044  12.316
87120W        W53661   6.490  40.474  13.484
87121W        W53662   3.451  21.029  11.248
87122W        W53663  25.624  29.946   2.865
87123W        W53664  14.957   3.978  14.623
87124W        W53665  37.369  42.446   0.014
87125W        W53666  42.916   4.785   3.723
87126W        W53667  33.601  27.173   1.270
87127W        W53668  37.636  16.548  10.421
87128W        W53669   4.034  30.050   2.876
87129W        W53670  41.821   8.741   2.847
87130W        W53671  23.210  44.252   1.728
87131W        W53672   4.033  27.619  10.028
87132W        W53673  13.260  11.440  10.901
87133W        W53674  35.349  22.041  13.363
87134W        W53675  24.213  24.594  11.128
87135W        W53676  20.290  38.590  11.835
87136W        W53677  29.371  41.962   0.249
87137W        W53678   9.633   9.929  14.998
87138W        W53679   7.419  24.997  13.618
87139W        W53680  12.325  10.178  11.662
87140W        W53681  37.275   1.693  14.447
87141W        W53682  23.174  18.753   0.332
87142W        W53683  20.546  19.640  11.954
87143W        W53684   4.592  38.609  12.793
87144W        W53685  32.876  19.846  14.858
87145W        W53686  23.655  20.929   2.175
87146W        W53687  30.481  43.209   2.282
87147W        W53688   6.448  35.785   0.557
87148W        W53689  41.511  43.759  14.090
87149W        W53690   9.813  11.618  12.140
87150W        W53691  29.187  43.013  11.337
87151W        W53692  36.918  15.364  10.174
87152W        W53693  28.583  15.705   0.462
87153W        W53694  15.860   1.259   1.692
87154W        W53695  32.677  23.219   3.638
87155W        W53696  24.472  30.484  14.906
87156W        W53697  36.812  29.432  12.120
87157W        W53698   1.422  24.904   3.293
87158W        W53699   0.668  33.003   3.505
87159W        W53700  43.747  42.346   4.146
87160W        W53701  20.615  19.327   1.907
87161W        W53702  10.451  21.495  11.467
87162W        W53703  38.949  36.853   3.090
87163W        W53704  28.120  14.267   3.253
87164W        W53705  30.745  10.366  14.273
87165W        W53706  35.172  23.098   1.890
87166W        W53707  25.061  39.820   2.035
87167W        W53708  22.595  21.139   2.819
87168W        W53709   9.834  12.721   4.168
87169W        W53710  39.884  18.079  12.537
87170W        W53711   5.557  24.109   1.259
87171W        W53712   7.115   6.247   4.872
87172W        W53713  31.975  33.171   4.743
87173W        W53714  40.413  41.490   2.133
87174W        W53715   6.190  23.213   3.102
87175W        W53716  26.016  30.396   3.186
87176W        W53717  41.809  37.315   4.794
87177W        W53718   3.409  43.004  14.722
87178W        W53719  24.684   6.278   2.876
87179W        W53720  35.940  17.916  13.970
87180W        W53721  15.034  25.750  12.543
87181W        W53722  18.737  28.922   2.813
87182W        W53723  31.635  33.285   2.570
87183W        W53724  21.500  42.506   3.185
87184W        W53725  44.225  23.990   1.914
87185W        W53726   6.933  28.531  12.080
87186W        W53727  37.539  37.431   4.823
87187W        W53728  13.171  35.113  14.109
87188W        W53729  34.430  15.213  11.181
87189W        W53730  19.190   5.813  11.227
87190W        W53731   0.732  25.499  14.322
87191W        W53732  29.622  42.962   4.586
87192W        W53733  39.220  12.775   5.405
87193W        W53734  17.800   7.279   3.702
87194W        W53735   1.061  31.403  12.064
87195W        W53736  27.976  26.558  11.055
87196W        W53737  35.753   3.217  11.484
87197W        W53738   6.271  29.660   2.238
87198W        W53739  19.953  27.646  13.067
87199W        W53740   5.733   2.382  14.396
87200W        W53741  44.386  31.700   0.968
87201W        W53742  14.779  11.842   2.780
87202W        W53743  15.086   1.519  14.786
87203W        W53744  39.939  19.662   0.324
87204W        W53745   3.968  32.202   0.299
87205W        W53746  41.635  42.734   4.931
87206W        W53747  36.061  11.651  11.660
87207W        W53748  16.738  25.313   0.915
87208W        W53749  42.720  10.699   4.540
87209W        W53750  24.295   0.444  11.558
87210W        W53751  25.032  22.016   0.394
87211W        W53752   5.103   5.692   1.300
87212W        W53753   9.622  37.429   0.668
87213W        W53754   2.157   5.002   2.017
87214W        W53755  39.980  41.878  13.538
87215W        W53756  23.034  14.767   1.464
87216W        W53757  29.526  36.898   0.502
87217W        W53758   3.351  16.025   2.106
87218W        W53759  28.344  31.149  14.032
87219W        W53760  17.785   8.723   3.531
87220W        W53761  17.514  20.294   1.478
87221W        W53762   3.962  17.023   3.368
87222W        W53763   7.797   9.355  13.891
87223W        W53764  40.050  41.387  11.537
87224W        W53765  35.962  22.738   2.310
87225W        W53766  26.171   4.093  12.069
87226W        W53767  25.000  18.153  10.627
87227W        W53768  19.528  36.340   1.915
87228W        W53769  14.989  10.824  13.369
87229W        W53770  14.591   9.872   3.557
87230W        W53771  12.633  23.127  14.282
87231W        W53772  30.018   7.465  13.279
87232W        W53773  13.292   7.437  13.353
87233W        W53774   4.745  30.294   1.494
87234W        W53775   0.814  26.949  11.728
87235W        W53776  43.783  33.745  11.148
87236W        W53777  44.454   3.082  13.846
87237W        W53778   4.128  22.606   2.689
87238W        W53779  12.179   4.528  13.492
87239W        W53780  33.022  41.434  13.399
87240W        W53781  12.089  34.954   3.623
87241W        W53782  31.629  34.806  11.058
87242W        W53783   6.330  33.761   1.656
87243W        W53784  23.964   0.393   0.017
87244W        W53785  33.874  34.934  11.575
87245W        W53786  37.833  14.229   1.930
87246W        W53787   2.922  14.850  14.346
87247W        W53788  25.000   1.732  14.395
87248W        W53789   2.884  22.200   1.349
87249W        W53790  20.301   7.795   2.045
87250W        W53791  22.746  29.549   5.004
87251W        W53792  23.765  20.737  11.391
87252W        W53793  24.910  43.987   3.742
87253W        W53794   7.745  35.269   4.391
87254W        W53795   2.860   7.890   2.819
87255W        W53796  13.666  20.506   3.967
87256W        W53797  35.074  12.893  11.083
87257W        W53798  40.016  20.085  14.983
87258W        W53799  30.011  11.666  10.026
87259W        W53800   1.849  12.347   2.751
87260W        W53801   5.543  12.377  11.480
87261W        W53802  26.454  26.137   4.553
87262W        W53803  27.777  11.631  14.294
87263W        W53804  36.055   4.089  10.856
87264W        W53805  26.362   0.100   3.538
87265W        W53806   7.192   8.925   3.660
87266W        W53807  27.140  14.667  12.530
87267W        W53808  26.493   5.874  14.634
87268W        W53809  38.483  10.146  12.459
87269W        W53810  11.026  25.199  12.579
87270W        W53811  13.053  44.080  12.110
87271W        W53812  40.633  31.905  10.274
87272W        W53813  30.346  21.760  11.305
87273W        W53814  18.364  13.254  14.750
87274W        W53815  10.406  40.358  13.396
87275W        W53816  13.061   3.427  10.660
87276W        W53817  39.905  12.239  12.616
87277W        W53818   3.396  33.140   4.046
87278W        W53819  17.977  35.784   2.816
87279W        W53820  35.083   0.512   4.538
87280W        W53821  18.275  42.738  11.894
87281W        W53822  11.541  21.196  12.497
87282W        W53823   5.357  31.634   3.771
87283W        W53824   3.457  20.174   1.870
87284W        W53825   6.477  10.904   4.438
87285W        W53826  27.466   7.629  10.772
87286W        W53827  42.690  22.533   1.822
87287W        W53828   1.324  36.714   1.633
87288W        W53829  42.453  43.038   1.330
87289W        W53830  24.268  24.481  14.757
87290W        W53831  37.991  41.490   0.452
87291W        W53832  36.581  12.716  11.962
87292W        W53833  31.328   8.500  11.055
87293W        W53834  31.458  41.522  10.935
87294W        W53835  38.868  12.211  12.540
87295W        W53836   4.241  10.986  11.469
87296W        W53837  29.991   9.612   1.896
87297W        W53838  18.271  20.720   3.380
87298W        W53839  14.590  36.603  14.911
87299W        W53840  35.939  42.431   4.171
87300W        W53841   7.244  17.917  12.457
87301W        W53842  40.103  21.807  12.904
87302W        W53843  44.798  21.122  14.745
87303W        W53844  17.294  43.828   1.917
87304W        W53845  17.499  15.047  11.684
87305W        W53846  36.053  26.813   0.901
87306W        W53847   4.297   8.998   1.961
87307W        W53848   4.221  27.737   2.333
87308W        W53849  12.774  11.120   2.235
87309W        W53850  29.911  10.058  11.771
87310W        W53851   0.233  23.482  14.405
87311W        W53852  26.868  40.801   4.935
87312W        W53853  40.365  18.079  10.419
87313W        W53854  19.210  27.851   3.298
87314W        W53855  16.713  11.187   2.680
87315W        W53856  29.999   3.816  13.366
87316W        W53857  31.110  30.115   3.672
87317W        W53858  23.257  25.527  12.258
87318W        W53859   2.253  26.574  12.452
87319W        W53860  44.028  22.021  11.580
87320W        W53861  37.551   0.508   4.047
87321W        W53862  20.286  37.285  10.726
87322W        W53863  37.057  39.461   1.526
87323W        W53864  30.095   1.224   0.274
87324W        W53865  13.528  36.769  12.856
87325W        W53866  11.198  11.315   0.907
87326W        W53867  29.366  15.342  12.588
87327W        W53868  29.118  15.240  10.825
87328W        W53869  18.352  15.742  12.743
87329W        W53870   0.290  35.085  14.591
87330W        W53871  22.192  20.090   1.489
87331W        W53872  39.926  11.703   2.158
87332W        W53873  35.074  36.480   0.907
87333W        W53874  20.690  34.422   2.156
87334W        W53875  21.574  17.497   3.047
87335W        W53876  41.850   3.480  12.567
87336W        W53877  27.204  14.762   2.762
87337W        W53878  29.868  34.406  12.891
87338W        W53879  42.532  22.572   0.044
87339W        W53880  39.344   5.211  11.433
87340W        W53881   2.643  10.228  12.090
87341W        W53882  30.109  33.078  12.475
87342W        W53883  12.507  32.120  13.957
87343W        W53884  10.468   2.977  13.390
87344W        W53885  33.968  30.668   4.315
87345W        W53886   6.705  34.108  12.101
87346W        W53887  27.248  25.183  14.558
87347W        W53888  25.985  17.797  13.845
87348W        W53889  30.946  42.308   4.797
87349W        W53890  27.974  37.446   0.450
87350W        W53891  25.240  12.813   2.856
87351W        W53892  40.815  34.124   1.699
87352W        W53893  17.875   6.513   3.145
87353W        W53894  10.847  10.741   2.792
87354W        W53895  19.096  25.470  13.426
87355W        W53896  34.642  17.089   0.531
87356W        W53897  21.795  34.159   2.174
87357W        W53898   2.764  37.999  13.937
87358W        W53899  38.576  13.349  13.456
87359W        W53900  24.063  44.448  12.284
87360W        W53901  27.802  23.108   2.724
87361W        W53902  18.997  25.888   3.868
87362W        W53903  33.618  12.530   0.787
87363W        W53904  29.416  26.271   2.418
87364W        W53905  30.976   8.688  14.375
87365W        W53906  31.577  42.365   1.892
87366W        W53907  40.768   7.722  14.924
87367W        W53908  39.993  11.556  11.090
87368W        W53909   5.707  16.146  10.753
87369W        W53910  42.710   8.515  12.019
87370W        W53911   1.503  20.645   3.338
87371W        W53912  21.409  30.758  11.084
87372W        W53913  42.815  29.769   0.911
87373W        W53914  31.005  23.545   5.174
87374W        W53915  10.047  24.326  11.186
87375W        W53916  39.980   0.247   2.306
87376W        W53917  40.296  43.818   2.662
87377W        W53918  27.911  39.101  14.782
87378W        W53919   6.635   2.759   1.412
87379W        W53920  34.699  23.368  13.036
87380W        W53921  18.038   4.869  12.780
87381W        W53922  17.266  26.241  13.475
87382W        W53923  17.473  19.596   1.993
87383W        W53924  30.866  14.615  11.656
87384W        W53925  40.400  33.444   3.226
87385W        W53926  26.158  27.029  12.544
87386W        W53927   8.970  12.279   4.261
87387W        W53928  37.057  29.697  10.762
87388W        W53929  18.162  30.243   2.763
87389W        W53930  10.713   8.096  13.007
87390W        W53931  25.887   2.482  13.448
87391W        W53932   9.752  12.667   1.209
87392W        W53933  39.471  30.177   0.320
87393W        W53934  24.682   9.779   4.296
87394W        W53935  44.244  11.242   0.272
87395W        W53936   8.353  39.096  14.572
87396W        W53937  40.813   3.918   3.158
87397W        W53938   9.108  39.500   0.180
87398W        W53939  32.440  20.475   2.598
87399W        W53940   7.192   2.893  12.277
87400W        W53941  33.919  28.285   4.590
87401W        W53942   1.570  40.055  14.962
87402W        W53943  32.932  17.157  14.777
87403W        W53944  31.587  33.440   4.495
87404W        W53945  27.482  39.585   3.003
87405W        W53946  19.156   1.606   3.364
87406W        W53947   3.248  11.850   2.289
87407W        W53948  36.609  12.275  12.819
87408W        W53949  16.305  24.556  11.332
87409W        W53950  14.783  15.610   3.238
87410W        W53951   8.903  13.153  13.844
87411W        W53952  39.401  26.277  13.823
87412W        W53953  13.105  34.470   0.737
87413W        W53954  22.079  38.857   4.714
87414W        W53955   4.400   2.576  13.910
87415W        W53956  16.121   5.821   2.847
87416W        W53957   0.479  33.438  13.752
87417W        W53958   6.116  41.486  14.762
87418W        W53959  40.993  19.560   1.910
87419W        W53960   7.483  13.329  11.169
87420W        W53961  17.482   7.825   1.505
87421W        W53962  24.225  42.927  10.507
87422W        W53963  27.999  43.429  13.296
87423W        W53964  40.499  17.352  13.913
87424W        W53965  28.554  28.041   4.038
87425W        W53966  12.454   1.497   4.636
87426W        W53967   7.197  28.392   1.465
87427W        W53968  15.012  19.273   4.067
87428W        W53969  18.952   4.782   4.660
87429W        W53970  32.930   6.915  12.073
87430W        W53971  44.918  35.920   1.330
87431W        W53972   0.892  10.838   4.905
87432W        W53973  32.848  31.733   2.857
87433W        W53974  18.840   4.329  10.368
87434W        W53975  40.784  16.680   5.328
87435W        W53976  43.266  14.717  11.404
87436W        W53977  22.127  32.896   4.150
87437W        W53978   3.420  40.560   2.700
87438W        W53979  16.212   1.908  12.976
87439W        W53980  44.823  10.229   0.609
87440W        W53981   1.049  41.024  12.552
87441W        W53982  16.051  33.469  10.370
87442W        W53983  42.367  21.074   2.149
87443W        W53984  28.987  23.315   2.655
87444W        W53985  19.024   2.159  10.747
87445W        W53986  25.428  23.434  10.704
87446W        W53987  22.825   9.274  11.254
87447W        W53988  31.416  18.098  10.709
87448W        W53989  16.681  28.469  12.996
87449W        W53990  16.487   5.013  12.949
87450W        W53991   5.489  11.129   3.752
87451W        W53992  18.179  25.283   0.922
87452W        W53993  21.510  14.707  11.085
87453W        W53994  43.438  31.073  11.949
87454W        W53995  19.846  11.526   4.107
87455W        W53996  18.295  37.115   4.330
87456W        W53997  38.859  37.091   0.109
87457W        W53998  29.414   7.174  13.634
87458W        W53999   8.199   4.290   1.015
87459W        W54000   3.128  18.369   0.718
87460W        W54001  40.095   3.508   0.041
87461W        W54002   9.172   5.346  12.470
87462W        W54003  20.358  10.380  11.960
87463W        W54004  11.748  39.470  12.892
87464W        W54005  41.710  41.537  12.492
87465W        W54006   0.881  29.370   1.479
87466W        W54007   4.245  24.686   3.271
87467W        W54008  10.403  34.776  10.558
87468W        W54009  21.865  31.874   2.253
87469W        W54010   3.243  33.497   2.579
87470W        W54011  29.434  29.217   2.487
87471W        W54012  25.042  39.928   3.592
87472W        W54013  11.808  27.926  11.640
87473W        W54014   8.573  37.529   3.691
87474W        W54015  16.368  14.131  12.595
87475W        W54016  13.363   9.851   1.172
87476W        W54017  34.368  17.661   3.756
87477W        W54018  30.128  25.238  13.618
87478W        W54019  30.104  25.163  12.301
87479W        W54020  12.947  13.221   4.542
87480W        W54021  36.931  21.545  14.442
87481W        W54022  33.740   8.245  11.664
87482W        W54023  35.113  30.933   2.465
87483W        W54024  39.678  32.077  12.045
87484W        W54025  31.849  24.975  14.594
87485W        W54026  19.959  23.620  13.667
87486W        W54027  25.143  25.199   0.857
87487W        W54028  39.479   6.419  10.753
87488W        W54029  23.292   3.253   4.096
87489W        W54030   1.556  24.598  13.823
87490W        W54031  25.025  30.909  14.315
87491W        W54032   1.181  15.182   0.772
87492W        W54033  14.873  22.290  11.081
87493W        W54034  44.391  22.063  14.938
87494W        W54035  12.663   5.363   2.882
87495W        W54036   3.794   2.626   0.988
87496W        W54037  15.170  26.312   4.474
87497W        W54038  41.160  25.497   4.593
87498W        W54039  35.219   1.223   4.138
87499W        W54040  35.332   0.912   3.342
87500W        W54041  16.088  14.240  11.602
87501W        W54042  32.184  44.868  11.092
87502W        W54043  41.588  21.744  14.160
87503W        W54044   6.817   1.916  12.025
87504W        W54045  14.305  17.643  14.477
87505W        W54046   6.855   7.550  13.894
87506W        W54047  39.747  30.093   1.809
87507W        W54048   8.854  23.031   1.276
87508W        W54049   6.313  24.089   0.430
87509W        W54050  43.266  16.611   0.490
87510W        W54051  38.801  13.894   3.663
87511W        W54052  23.460  18.220   3.367
87512W        W54053  10.346   8.122  12.630
87513W        W54054  32.395  12.461  12.554
87514W        W54055  14.277  11.211   3.562
87515W        W54056  26.263  22.235   0.060
87516W        W54057  38.929  39.856   1.695
87517W        W54058  10.343   3.264   9.852
87518W        W54059  42.916   5.641  14.711
87519W        W54060  23.199  44.506  11.662
87520W        W54061  33.834  32.147  10.824
87521W        W54062  20.973  31.380  12.314
87522W        W54063  44.889   5.913   3.869
87523W        W54064  24.294  20.770  13.100
87524W        W54065   9.855  20.695  12.608
87525W        W54066  30.695  12.040   4.013
87526W        W54067  27.124  44.148   4.913
87527W        W54068  32.970   4.562  12.437
87528W        W54069  19.195  44.669   0.399
87529W        W54070  13.806  36.322  10.739
87530W        W54071   9.648   4.270   0.261
87531W        W54072  44.258  36.867  11.110
87532W        W54073  34.573  33.573   0.296
87533W        W54074  15.661  42.785  14.069
87534W        W54075  36.143  40.462  10.879
87535W        W54076  21.138  44.872   1.697
87536W        W54077  14.142  10.888   3.180
87537W        W54078  25.238  27.542   0.829
87538W        W54079  21.753  12.234  13.915
87539W        W54080   1.396   8.154  12.531
87540W        W54081  44.321  40.999  11.060
87541W        W54082  20.285   1.453   3.711
87542W        W54083  20.129  40.465   1.720
87543W        W54084  39.516  13.047   1.910
87544W        W54085  17.637  36.957   0.810
87545W        W54086  11.319  40.893   4.253
87546W        W54087   1.314  24.676   3.740
87547W        W54088  23.024  12.330   0.815
87548W        W54089  28.431  28.392  11.227
87549W        W54090  24.929  26.415  10.933
87550W        W54091  41.644  21.318   4.282
87551W        W54092  31.827  32.213   0.960
87552W        W54093  33.511  18.307  13.547
87553W        W54094  29.660  23.417   3.300
87554W        W54095   0.530   3.675   4.664
87555W        W54096  17.398  26.033   1.464
87556W        W54097  35.344   9.498   4.131
87557W        W54098  23.611  28.010   0.688
87558W        W54099  33.490  12.210  11.292
87559W        W54100  32.821   1.600  10.628
87560W        W54101  22.266  14.154  10.823
87561W        W54102   0.304  33.663   1.477
87562W        W54103   5.552  12.538   1.970
87563W        W54104  13.022  28.063  12.925
87564W        W54105  29.315  36.260   4.101
87565W        W54106  33.370  19.913   4.554
87566W        W54107   8.742  10.270  11.179
87567W        W54108  22.605  29.677  14.848
87568W        W54109  12.569  19.257   4.312
87569W        W54110  11.361  15.250  10.991
87570W        W54111   0.569   3.349  14.817
87571W        W54112  38.263  28.455   2.460
87572W        W54113  29.055  39.527   0.899
87573W        W54114   1.540   3.442   1.383
87574W        W54115  12.570  31.635   3.690
87575W        W54116  32.896  13.329  11.517
87576W        W54117  12.128   1.449   1.286
87577W        W54118  43.587  11.114  14.775
87578W        W54119  37.570  24.087   1.870
87579W        W54120  19.942  18.479  13.445
87580W        W54121  19.296  25.042   0.368
87581W        W54122  31.036  14.937  14.061
87582W        W54123  39.315  27.521  12.992
87583W        W54124  15.602  21.530  14.939
87584W        W54125  30.100  24.794  14.966
87585W        W54126   7.235  10.746  14.355
87586W        W54127   1.839   6.290  12.476
87587W        W54128  44.325   7.292  11.838
87588W        W54129  32.383  32.453  12.412
87589W        W54130  15.584   7.735   3.825
87590W        W54131  29.522  12.103   0.508
87591W        W54132  13.371  16.711   3.626
87592W        W54133  42.858  16.324  11.557
87593W        W54134  34.142  38.141   2.824
87594W        W54135  17.016   1.470  12.059
87595W        W54136  21.546  24.474   4.528
87596W        W54137  27.028  29.744   4.693
87597W        W54138  25.684  42.390  13.517
87598W        W54139  24.263  32.620   0.290
87599W        W54140  23.634  33.401   1.254
87600W        W54141  33.621  17.606  14.708
87601W        W54142  43.230  12.581  14.006
87602W        W54143  12.195  35.940   1.707
87603W        W54144  13.364  29.012   2.369
87604W        W54145  28.572  16.115  13.445
87605W        W54146  20.329  22.808   4.536
87606W        W54147  21.612  19.247   3.779
87607W        W54148  44.607   1.334  14.380
87608W        W54149  13.202   6.428   3.301
87609W        W54150  25.737  29.016   4.373
87610W        W54151  25.914  25.622   4.821
87611W        W54152  19.102  15.695   4.528
87612W        W54153  41.740  38.323  10.752
87613W        W54154  18.665  25.761  11.044
87614W        W54155  39.092  35.421  13.034
87615W        W54156  16.682  12.661   1.192
87616W        W54157  34.617  44.894   2.326
87617W        W54158  23.732  11.800  14.867
87618W        W54159  16.294   2.371   0.475
87619W        W54160   1.825  32.882   1.270
87620W        W54161  18.537   8.607   1.290
87621W        W54162  43.259  18.190   2.895
87622W        W54163   5.598  44.673  13.483
87623W        W54164   5.702  43.010  14.410
87624W        W54165  32.539   8.825  12.114
87625W        W54166   2.939  16.323   2.293
87626W        W54167   6.328  41.917  12.608
87627W        W54168  43.732  36.945  12.460
87628W        W54169   2.878  21.005   1.800
87629W        W54170  34.371  31.721  12.195
87630W        W54171   3.213  12.864  11.641
87631W        W54172  30.446   8.912  14.319
87632W        W54173  38.787  40.160   4.401
87633W        W54174  21.593  38.367  12.534
87634W        W54175  43.803  12.827   4.677
87635W        W54176  17.062  36.057  11.172
87636W        W54177   6.498   1.325   4.659
87637W        W54178  33.419  44.491   3.272
87638W        W54179  15.377  17.520   3.423
87639W        W54180  43.548   3.112  14.246
87640W        W54181  35.151  26.918   2.402
87641W        W54182  13.761  19.700  14.987
87642W        W54183   5.188  11.223   0.280
87643W        W54184  15.508   0.643  14.459
87644W        W54185  39.523  28.761  14.195
87645W        W54186  24.211  36.655  14.365
87646W        W54187  44.768  12.287   1.937
87647W        W54188   3.996   0.422  13.403
87648W        W54189  32.430  33.170  11.946
87649W        W54190  40.544  25.943  10.725
87650W        W54191  27.755  26.990   4.351
87651W        W54192  38.574  34.705  13.478
87652W        W54193  42.848   6.040   3.171
87653W        W54194  31.852  43.797   1.921
87654W        W54195   9.712   9.870   4.135
87655W        W54196  23.095  36.090   2.329
87656W        W54197  21.759  14.191   4.674
87657W        W54198  17.050  21.994  10.799
87658W        W54199  12.698  29.722   5.029
87659W        W54200   1.626   4.144   1.041
87660W        W54201   8.594  44.692  11.201
87661W        W54202   2.982  39.958   0.359
87662W        W54203   3.203   0.273   9.811
87663W        W54204  22.549   6.847  11.168
87664W        W54205   1.321  32.012   3.312
87665W        W54206  33.513  21.367  14.779
87666W        W54207   6.526  40.677  10.722
87667W        W54208  31.512  21.612  10.780
87668W        W54209  20.026  43.357   4.990
87669W        W54210  26.590  23.490   1.856
87670W        W54211   7.873  24.993   1.702
87671W        W54212  41.797   5.869  11.598
87672W        W54213   7.780  12.366  12.873
87673W        W54214  32.752   1.736  11.137
87674W        W54215   9.020  40.599   3.593
87675W        W54216  21.937  44.752  11.680
87676W        W54217  19.641   0.777   3.276
87677W        W54218  14.632  39.861  13.141
87678W        W54219  38.509  27.119  10.444
87679W        W54220  29.936  16.149  14.318
87680W        W54221  11.758  19.829   1.370
87681W        W54222  38.339   0.731   1.885
87682W        W54223   6.527  38.580   1.595
87683W        W54224  15.321  35.856  12.275
87684W        W54225   3.447  34.133   3.378
87685W        W54226  14.895   3.469  11.420
87686W        W54227  36.910  10.392   0.880
87687W        W54228  38.580  25.449  14.420
87688W        W54229  25.101  24.905  14.796
87689W        W54230  26.310   0.399  12.138
87690W        W54231  27.528   9.194  11.706
87691W        W54232   0.789  36.143   0.957
87692W        W54233  44.043  39.622  10.886
87693W        W54234   1.908  38.804  14.676
87694W        W54235   1.381   3.152  13.509
87695W        W54236  25.863  26.005   2.551
87696W        W54237  37.579  30.480  14.697
87697W        W54238  42.408  41.395   0.681
87698W        W54239  28.433  40.524   4.527
87699W        W54240  35.946  10.288  13.831
87700W        W54241   5.872  38.122  10.245
87701W        W54242  31.095  17.243   2.372
87702W        W54243   0.570  36.658   1.037
87703W        W54244  28.151  24.435   1.255
87704W        W54245   5.479  33.608  12.908
87705W        W54246  14.744   1.897   0.555
87706W        W54247  35.181  40.462   2.003
87707W        W54248  14.230  15.165   0.257
87708W        W54249  40.074   9.624   2.213
87709W        W54250  26.604  17.710  10.892
87710W        W54251  40.841  11.707  14.742
87711W        W54252  44.777  42.181   4.236
87712W        W54253   7.727  31.135  13.093
87713W        W54254  11.718  19.729  13.300
87714W        W54255  11.139  14.216  13.655
87715W        W54256  19.961  28.330  11.588
87716W        W54257  24.119  41.553  12.618
87717W        W54258  24.777  42.689  14.912
87718W        W54259  22.533  28.904   2.703
87719W        W54260  37.609  34.489   0.913
87720W        W54261  37.487   5.931   3.830
87721W        W54262  27.675  31.589   2.831
87722W        W54263  28.140   7.243   4.589
87723W        W54264  10.131  30.187   3.199
87724W        W54265  28.052  33.875  14.790
87725W        W54266  11.715   8.287  13.138
87726W        W54267  15.017  43.292   4.736
87727W        W54268  29.173  11.875  14.246
87728W        W54269  16.715   1.736  13.820
87729W        W54270   9.286  27.727   2.964
87730W        W54271  12.129   9.835  11.993
87731W        W54272  15.293  29.581   3.207
87732W        W54273  44.966  33.474  12.383
87733W        W54274   9.340  10.996  11.438
87734W        W54275  10.026  15.230   2.771
87735W        W54276  10.698   6.137  11.238
87736W        W54277  30.694  19.365   4.173
87737W        W54278  12.508  32.598  10.179
87738W        W54279   2.310  17.585   4.104
87739W        W54280  29.083  23.441   1.227
87740W        W54281  36.297  35.782  13.951
87741W        W54282  33.781  22.876   4.105
87742W        W54283  15.449  21.193  11.233
87743W        W54284   5.202  26.166  12.405
87744W        W54285   6.094   5.373  11.516
87745W        W54286  17.850  23.838   2.469
87746W        W54287  40.409  20.491  13.775
87747W        W54288  44.299   9.243   4.547
87748W        W54289  18.011  35.855   1.804
87749W        W54290   1.908  40.577  14.330
87750W        W54291  39.731  31.149   1.800
87751W        W54292  29.850  19.163   2.861
87752W        W54293  22.505  11.080  13.059
87753W        W54294  39.421  28.496   0.566
87754W        W54295   7.120  29.978  11.452
87755W        W54296  40.961  43.784  10.408
87756W        W54297  25.236  20.709   2.256
87757W        W54298  42.301  11.579   1.710
87758W        W54299   5.014  10.370   0.918
87759W        W54300  36.365  24.678  14.452
87760W        W54301  21.673  21.662  13.858
87761W        W54302  19.420  25.253  14.926
87762W        W54303  36.818  31.455   1.653
87763W        W54304  23.394  22.650  11.550
87764W        W54305  40.023  28.141   0.516
87765W        W54306   5.196  30.189   2.257
87766W        W54307  20.284   5.240  13.916
87767W        W54308  41.267  30.517   0.280
87768W        W54309  44.726  36.898   1.346
87769W        W54310  44.827  10.747   4.244
87770W        W54311   4.348   4.461   5.346
87771W        W54312  18.431  44.092   4.163
87772W        W54313  43.527  16.279   4.272
87773W        W54314  34.027  14.203   1.902
87774W        W54315  32.078  42.426   0.059
87775W        W54316  40.896  11.933  11.620
87776W        W54317   6.729  41.723  11.678
87777W        W54318  12.249  44.867   0.850
87778W        W54319  42.184  39.318  13.437
87779W        W54320   5.701   3.943   1.800
87780W        W54321  18.757   9.814   0.042
87781W        W54322  37.840  21.269   4.252
87782W        W54323  28.886  20.243   1.747
87783W        W54324  43.842  42.794  12.987
87784W        W54325   6.573  30.436  10.712
87785W        W54326  20.746  42.337  13.849
87786W        W54327   4.260  43.921  14.541
87787W        W54328  26.187  20.067   3.227
87788W        W54329   3.495  10.277   3.174
87789W        W54330  34.115  16.894   1.850
87790W        W54331  23.017  42.715   1.112
87791W        W54332   1.078  14.071   3.559
87792W        W54333  44.748   2.383  11.584
87793W        W54334  27.557   9.643  13.951
87794W        W54335  22.891  26.480  13.903
87795W        W54336  21.286  37.963  13.309
87796W        W54337  44.714  24.080   3.332
87797W        W54338  35.116  24.734  12.920
87798W        W54339  13.881  23.027   2.143
87799W        W54340   0.576  34.539  12.503
87800W        W54341  30.939  31.202  14.904
87801W        W54342  14.120  30.375  14.580
87802W        W54343  40.866  20.059   1.919
87803W        W54344  33.849   2.717   1.811
87804W        W54345  11.742  44.824   4.152
87805W        W54346  41.280  12.900   3.981
87806W        W54347  30.943  11.389  13.767
87807W        W54348  19.304  33.268  10.742
87808W        W54349  26.590   8.686  14.845
87809W        W54350  14.874  30.184   5.500
87810W        W54351  15.976  14.208   5.127
87811W        W54352  15.592  42.661  13.144
87812W        W54353  44.046  23.146  13.056
87813W        W54354  43.026   5.689   3.544
87814W        W54355  37.236  17.044   0.774
87815W        W54356   6.669  20.689   0.900
87816W        W54357  38.100  21.572  14.427
87817W        W54358   6.898  11.986   1.798
87818W        W54359   1.795  28.838   3.581
87819W        W54360  42.267  15.241  12.988
87820W        W54361   8.261  38.399  11.699
87821W        W54362   6.653  18.144   4.419
87822W        W54363  32.617  20.038   4.167
87823W        W54364  14.666  10.415  13.401
87824W        W54365  16.249   0.934   1.452
87825W        W54366  27.991  21.185  10.644
87826W        W54367  41.549  29.799  14.616
87827W        W54368  26.947  10.379   3.943
87828W        W54369  40.226   9.546  14.439
87829W        W54370  14.058   9.672   2.709
87830W        W54371  16.104  10.195  13.938
87831W        W54372  21.668  21.012  11.662
87832W        W54373  19.300   3.958  13.030
87833W        W54374   7.670  34.868  10.479
87834W        W54375  27.600   4.401   1.602
87835W        W54376   9.664   1.180   0.843
87836W        W54377   3.292   3.917  10.783
87837W        W54378  26.856   2.981  11.101
87838W        W54379   3.041   6.893  10.616
87839W        W54380  11.854  20.258  11.613
87840W        W54381  40.555   1.027   2.074
87841W        W54382  27.046  38.322  12.426
87842W        W54383  19.231   7.249  14.560
87843W        W54384  26.802  30.939  13.485
87844W        W54385  12.161  17.288   0.926
87845W        W54386  41.707  37.240  10.901
87846W        W54387   8.492  20.912   4.435
87847W        W54388   4.328  13.288   1.922
87848W        W54389  15.908   9.378  11.128
87849W        W54390  36.888  26.024  10.672
87850W        W54391  28.230  22.842  12.401
87851W        W54392  26.175  33.532  13.764
87852W        W54393  22.468  34.469   2.718
87853W        W54394  33.081  43.757   2.145
87854W        W54395  40.142  14.850  11.588
87855W        W54396  23.754  28.554  12.386
87856W        W54397  20.456   6.514  12.930
87857W        W54398   0.242   2.827   1.837
87858W        W54399  10.703  34.695  12.125
87859W        W54400  28.470  15.184   3.802
87860W        W54401  11.362  31.588  12.354
87861W        W54402   6.260  15.853   2.443
87862W        W54403  23.488  41.970  14.427
87863W        W54404  32.614   3.749  13.488
87864W        W54405  42.876  22.813  13.298
87865W        W54406   9.671  42.042  12.853
87866W        W54407  25.618  38.434   0.010
87867W        W54408  37.337  14.814  14.393
87868W        W54409  35.459  21.203   0.336
87869W        W54410  26.948  39.550   0.012
87870W        W54411  39.708   8.391  14.368
87871W        W54412   7.550   5.430  10.835
87872W        W54413  10.669  11.880   3.238
87873W        W54414  29.469   7.285  12.186
87874W        W54415  10.918  22.312  14.412
87875W        W54416  11.191  15.185   4.306
87876W        W54417  10.184  27.985   3.833
87877W        W54418   9.621  26.718   0.422
87878W        W54419  44.559  22.297  14.469
87879W        W54420  33.457  37.555   4.392
87880W        W54421  10.616  16.530  13.403
87881W        W54422  11.388  40.079  10.460
87882W        W54423   5.655  18.856  11.166
87883W        W54424   9.497  14.570   4.583
87884W        W54425  39.536  41.760   2.656
87885W        W54426  32.215   3.828  10.596
87886W        W54427  44.288  28.510   4.221
87887W        W54428  25.869   1.286  12.012
87888W        W54429  36.312  29.503   4.576
87889W        W54430   3.370   3.888  12.140
87890W        W54431  37.550  31.359   0.918
87891W        W54432   3.770  22.714   2.216
87892W        W54433  37.310   5.331   1.569
87893W        W54434  41.051  25.162   4.175
87894W        W54435  22.561  26.671  12.049
87895W        W54436  34.440  44.159   4.263
87896W        W54437  15.498  38.450   0.005
87897W        W54438  18.994  30.927   4.516
87898W        W54439  21.640  17.174  10.139
87899W        W54440  34.371  25.134   0.165
87900W        W54441  23.911   4.823  13.887
87901W        W54442  29.518   9.823  14.213
87902W        W54443  25.749  12.199   4.379
87903W        W54444   4.322  38.056   3.451
87904W        W54445  23.171  17.817   0.186
87905W        W54446  24.166  11.686  13.989
87906W        W54447  29.686  19.084   4.227
87907W        W54448  40.548  18.659   3.098
87908W        W54449  13.199  13.738  13.143
87909W        W54450  41.600  20.382   1.323
87910W        W54451  28.707  43.011   9.642
87911W        W54452   5.954  17.290  13.479
87912W        W54453  12.213  40.464   4.318
87913W        W54454  17.066  15.366  11.626
87914W        W54455  19.606  19.575   3.453
87915W        W54456  24.145   5.831   0.858
87916W        W54457  27.333  16.593  10.715
87917W        W54458  32.188  42.405   2.914
87918W        W54459  34.619  17.573   1.403
87919W        W54460  28.378  19.172   2.784
87920W        W54461  35.795  39.816   1.626
87921W        W54462  32.534  42.598   4.875
87922W        W54463   7.346   7.350   2.613
87923W        W54464  13.568  13.781   1.038
87924W        W54465  22.075  37.036  11.487
87925W        W54466  44.453  44.659  12.468
87926W        W54467  10.917  38.263   5.261
87927W        W54468  14.521  19.271   0.904
87928W        W54469  42.774  13.589  14.919
87929W        W54470  22.582  22.123   3.334
87930W        W54471   0.753  21.147   0.711
87931W        W54472   6.166  19.667   1.737
87932W        W54473   1.799  29.456  13.452
87933W        W54474  29.564  42.430   2.100
87934W        W54475  17.368  10.117   3.818
87935W        W54476  29.249   2.931   0.963
87936W        W54477   8.723  42.216   3.324
87937W        W54478  31.644  37.733   0.228
87938W        W54479  15.120  36.846  12.081
87939W        W54480  29.110   9.377  13.850
87940W        W54481  40.161  43.163   2.355
87941W        W54482  23.125   6.145   4.092
87942W        W54483  10.766  44.657   4.245
87943W        W54484  10.269   8.657  12.570
87944W        W54485   4.998  15.615  10.267
87945W        W54486  29.638  16.376  12.034
87946W        W54487  31.567  37.794   0.749
87947W        W54488  10.095   3.905  13.436
87948W        W54489  37.614  25.391  12.538
87949W        W54490  26.572  33.470  11.987
87950W        W54491  21.232   4.731   4.751
87951W        W54492   1.347  12.329   1.766
87952W        W54493   3.383  15.651   0.898
87953W        W54494  35.600   0.721   1.331
87954W        W54495   8.835  21.085  13.572
87955W        W54496  33.880  10.520  12.098
87956W        W54497   5.679  40.969   0.342
87957W        W54498  36.317  27.450  14.067
87958W        W54499  35.698  20.748   3.494
87959W        W54500   5.199  32.651  14.455
87960W        W54501   3.352  30.544  11.829
87961W        W54502  32.729  15.656   4.247
87962W        W54503  31.969  28.495   3.086
87963W        W54504  15.485   2.932  14.571
87964W        W54505   2.173   1.262   2.040
87965W        W54506   1.858   5.409   2.156
87966W        W54507  36.826  37.456  12.042
87967W        W54508   2.673  16.033  12.148
87968W        W54509  22.948  44.908  11.464
87969W        W54510  21.738  39.666  13.382
87970W        W54511  38.455  16.560  11.890
87971W        W54512  17.310   4.257   4.109
87972W        W54513  38.791  14.366   0.333
87973W        W54514  29.093  39.907  13.947
87974W        W54515  17.190   9.634  11.143
87975W        W54516   6.354  30.452   0.735
87976W        W54517  29.251   4.260   0.885
87977W        W54518  10.163  20.335   0.459
87978W        W54519  16.498  25.421  11.976
87979W        W54520  36.461  25.343   5.035
87980W        W54521  21.209  28.515   1.719
87981W        W54522  16.495  22.996  11.244
87982W        W54523  36.346  39.508   2.822
87983W        W54524  27.937  40.979   2.998
87984W        W54525   6.487   2.841   4.972
87985W        W54526  26.097  29.747  13.819
87986W        W54527   4.109  11.177   3.667
87987W        W54528  27.489  36.700   0.043
87988W        W54529   6.960   1.152  12.466
87989W        W54530   4.426  41.560   2.831
87990W        W54531  44.342  16.894  13.372
87991W        W54532  30.921  43.600   0.687
87992W        W54533  24.366  36.709  10.880
87993W        W54534  42.715  15.955  14.913
87994W        W54535   7.615  30.349  14.550
87995W        W54536   2.088  34.089   5.029
87996W        W54537  37.135  18.957  12.041
87997W        W54538  22.964  32.528  10.590
87998W        W54539  24.678   4.637  11.235
87999W        W54540  42.283   1.332  12.820
88000W        W54541  35.534  26.945  14.063
88001W        W54542  29.090  42.040  10.888
88002W        W54543  18.088  13.675  13.478
88003W        W54544   0.753  22.666  13.339
88004W        W54545   6.959  35.413  13.918
88005W        W54546  28.944  25.635  11.213
88006W        W54547   0.719  21.182   0.191
88007W        W54548  19.286  21.336   2.758
88008W        W54549  25.767  20.908  14.581
88009W        W54550   9.340  20.293  11.550
88010W        W54551  24.672  27.582  12.091
88011W        W54552   5.720   6.804   1.972
88012W        W54553  19.655  32.360   1.618
88013W        W54554  32.400   7.380   0.369
88014W        W54555  26.105   8.232  13.060
88015W        W54556  26.648   3.933  10.523
88016W        W54557   1.296  43.057  10.403
88017W        W54558  44.004  32.155  12.523
88018W        W54559   0.210  33.447  10.774
88019W        W54560  32.053  22.555  12.056
88020W        W54561  23.098  39.901   1.869
88021W        W54562  37.519  34.676   1.393
88022W        W54563  35.460  34.765  11.523
88023W        W54564  17.190  34.745   2.836
88024W        W54565  31.503  44.929   4.516
88025W        W54566  22.842  11.241   1.307
88026W        W54567  11.962  30.008  14.931
88027W        W54568   7.415  30.476  13.667
88028W        W54569  31.959   0.008   1.436
88029W        W54570  18.550  37.869   1.316
88030W        W54571  28.468  10.418   1.590
88031W        W54572  16.548   5.407   1.903
88032W        W54573  42.007  32.406   2.219
88033W        W54574  30.545  24.435  14.661
88034W        W54575  36.887  13.143  12.958
88035W        W54576   8.253  13.185   4.394
88036W        W54577  23.607  16.037   1.602
88037W        W54578  13.290  44.407   4.833
88038W        W54579  22.698  35.817  13.805
88039W        W54580  11.838  10.048   2.310
88040W        W54581  25.550   3.887   3.752
88041W        W54582  26.027   6.912  10.314
88042W        W54583  10.187  25.693  13.338
88043W        W54584  13.148   0.325   4.754
88044W        W54585  11.693  19.541   0.754
88045W        W54586   7.306  25.557   1.226
88046W        W54587  32.944   5.700   4.506
88047W        W54588  32.576  23.757   3.379
88048W        W54589  32.549   8.422   4.112
88049W        W54590   5.368   0.663   0.201
88050W        W54591   5.535  10.485   4.468
88051W        W54592  39.587  30.695   3.079
88052W        W54593  27.090  44.765  14.439
88053W        W54594  10.359   1.834   1.343
88054W        W54595  20.803  19.296  11.123
88055W        W54596  15.138  17.106  13.426
88056W        W54597  20.838   4.273   0.601
88057W        W54598   7.257  42.766   4.440
88058W        W54599  31.425  24.237   0.004
88059W        W54600  16.630  24.171  13.412
88060W        W54601  11.152  28.954  14.360
88061W        W54602   6.768  19.561  11.478
88062W        W54603  27.083   1.800   3.237
88063W        W54604  29.433  22.096   1.444
88064W        W54605  37.532  19.580   1.879
88065W        W54606  15.227   3.796  11.897
88066W        W54607  10.629  31.850   2.273
88067W        W54608  39.489  18.008   0.987
88068W        W54609  27.925  25.708  12.039
88069W        W54610  26.116  39.594  14.374
88070W        W54611   6.369   7.433   4.612
88071W        W54612  25.054   2.794  11.557
88072W        W54613   3.738  39.014  11.503
88073W        W54614  35.167   4.382   2.337
88074W        W54615  27.877  36.470   0.328
88075W        W54616   7.826  19.770   0.584
88076W        W54617  27.394  30.228  13.926
88077W        W54618  18.431   1.704   1.310
88078W        W54619  25.107  16.132  10.945
88079W        W54620   5.753   2.992   5.433
88080W        W54621   9.331   0.418  11.641
88081W        W54622  13.059  33.222  11.615
88082W        W54623  18.076   4.229  13.895
88083W        W54624  26.234  41.735   0.904
88084W        W54625  29.137  37.466  13.288
88085W        W54626  35.654  21.561  12.659
88086W        W54627  23.940  27.441  12.572
88087W        W54628   6.453  17.352  13.430
88088W        W54629  25.730  18.848   0.380
88089W        W54630   1.856   7.373  14.803
88090W        W54631  34.986  14.585   0.833
88091W        W54632  22.001  43.440   1.649
88092W        W54633  29.458  35.370   0.620
88093W        W54634  19.494  28.990  11.463
88094W        W54635   8.760  43.751  11.132
88095W        W54636  42.026  18.351  12.532
88096W        W54637  36.122   1.940  12.030
88097W        W54638   9.084  19.719   2.170
88098W        W54639  43.348  14.116  10.687
88099W        W54640   1.928  40.843   3.228
88100W        W54641  15.559  12.169   2.234
88101W        W54642  41.532  40.860  14.828
88102W        W54643  16.060  14.805   3.746
88103W        W54644   3.959  13.355   3.673
88104W        W54645  40.344  20.497   3.596
88105W        W54646  31.116  33.487  11.978
88106W        W54647  27.074   8.913  13.988
88107W        W54648  42.424  32.139  12.532
88108W        W54649  38.187   2.486   3.192
88109W        W54650  37.872  26.614  14.036
88110W        W54651  33.009  42.881  11.630
88111W        W54652  16.723  40.992  12.853
88112W        W54653  29.409  24.582  13.003
88113W        W54654   1.366   5.668  10.681
88114W        W54655   4.568  32.924  13.709
88115W        W54656   1.011  34.277  13.529
88116W        W54657   5.965  38.855   3.213
88117W        W54658  39.951  33.647  13.286
88118W        W54659  21.252   9.837  12.638
88119W        W54660  32.450   8.312  12.014
88120W        W54661  35.000  18.819   1.418
88121W        W54662   7.755  30.343  14.049
88122W        W54663  39.789  12.347   0.793
88123W        W54664  30.020  31.157   3.275
88124W        W54665  16.971  35.928   1.734
88125W        W54666   9.187  33.758  10.638
88126W        W54667   5.187  17.185   1.861
88127W        W54668  10.543  39.568  10.155
88128W        W54669  30.002   2.206  11.872
88129W        W54670  16.248  40.816   1.654
88130W        W54671  20.773   2.220   1.744
88131W        W54672   1.745  25.540  14.339
88132W        W54673  30.331  17.082  14.471
88133W        W54674  20.797  23.968   0.437
88134W        W54675  36.949  43.739  10.424
88135W        W54676   5.535  32.155   0.856
88136W        W54677  27.922  42.934   0.935
88137W        W54678  34.059  24.794   2.759
88138W        W54679  23.180  38.960  12.129
88139W        W54680  10.861  17.071   4.158
88140W        W54681  43.986  29.593  12.496
88141W        W54682  21.492   7.010   2.353
88142W        W54683  44.077  29.583   0.816
88143W        W54684  10.796  32.892   3.850
88144W        W54685   8.420   4.375  10.620
88145W        W54686  26.682   7.782   3.428
88146W        W54687  39.855  15.301  14.257
88147W        W54688  10.617   7.685  11.119
88148W        W54689  29.765  44.504  13.938
88149W        W54690  18.575  34.547   4.993
88150W        W54691  11.695  40.968   1.599
88151W        W54692  42.294  27.688   2.672
88152W        W54693  36.125  32.640  11.489
88153W        W54694   7.813  16.113  13.481
88154W        W54695   5.378  34.122  14.016
88155W        W54696  37.966  22.173   3.576
88156W        W54697   8.425   2.146   0.951
88157W        W54698  16.680  10.162  11.447
88158W        W54699  39.815   3.338   1.290
88159W        W54700  27.598  39.406   1.606
88160W        W54701   3.682  12.052  14.433
88161W        W54702  11.379  33.761   2.681
88162W        W54703  39.011  11.175  10.993
88163W        W54704  30.794   0.540  12.865
88164W        W54705  29.352   1.368   3.864
88165W        W54706  31.182  42.962   1.766
88166W        W54707   6.854  31.893  14.765
88167W        W54708   9.361  29.771  11.730
88168W        W54709   5.229   4.255  11.892
88169W        W54710   8.338  40.483   5.520
88170W        W54711  38.431   0.391  13.450
88171W        W54712  16.436  18.917   3.273
88172W        W54713  15.829  23.972   4.516
88173W        W54714  41.432  26.702   1.472
88174W        W54715  18.148  29.753  11.621
88175W        W54716   3.602  18.455   4.935
88176W        W54717  12.079  19.969  12.941
88177W        W54718  18.612  12.274  12.509
88178W        W54719  40.918  31.536  11.908
88179W        W54720  29.140  17.213   2.982
88180W        W54721  41.335  38.513   4.673
88181W        W54722  12.121  39.335   2.686
88182W        W54723  33.857   6.251   5.033
88183W        W54724  30.834  15.756  12.872
88184W        W54725   5.761  29.330  12.424
88185W        W54726   1.542   0.308   3.188
88186W        W54727   6.388  43.292   1.514
88187W        W54728  12.624  28.082   1.648
88188W        W54729   1.494  27.053  14.441
88189W        W54730  21.755  35.571   2.260
88190W        W54731  41.918  11.149   2.735
88191W        W54732  26.691  29.927   0.143
88192W        W54733  32.913  19.772  11.181
88193W        W54734  27.356  30.528   0.396
88194W        W54735  26.466  39.995   1.955
88195W        W54736  37.583  33.455  11.267
88196W        W54737   0.957   5.037  12.983
88197W        W54738  35.820  10.605  12.874
88198W        W54739  42.942  40.093   2.776
88199W        W54740  37.477  18.831  13.743
88200W        W54741  13.885  36.267  14.522
88201W        W54742  31.099  35.799   0.762
88202W        W54743  25.427  27.327   4.435
88203W        W54744   6.746  44.901   1.688
88204W        W54745  32.662   6.804  13.331
88205W        W54746   7.413   8.185  13.028
88206W        W54747  22.965   3.183  12.169
88207W        W54748  10.038  34.164   3.246
88208W        W54749   0.318  21.535   2.353
88209W        W54750  16.610   3.999  12.953
88210W        W54751  12.507  15.582  14.354
88211W        W54752   4.384   5.696  11.891
88212W        W54753  18.865  16.048   0.515
88213W        W54754   2.288  32.522  11.811
88214W        W54755   1.027  16.412  10.576
88215W        W54756  36.038  44.422  14.645
88216W        W54757   7.322  37.636  12.948
88217W        W54758  32.702  12.060  13.898
88218W        W54759   0.027  21.558   1.898
88219W        W54760  12.371  35.446  11.601
88220W        W54761   7.367  31.405  11.460
88221W        W54762  31.723  36.515   2.100
88222W        W54763  19.645   3.003   1.471
88223W        W54764  34.364  33.577  14.824
88224W        W54765  37.032  25.695  13.390
88225W        W54766  13.388  34.477  11.569
88226W        W54767  44.784   1.712  14.066
88227W        W54768  37.600  41.519   1.726
88228W        W54769  38.643  27.194   4.254
88229W        W54770  33.589   3.418  12.930
88230W        W54771  42.005  20.581   1.074
88231W        W54772  39.197  37.979  10.315
88232W        W54773  41.291  39.955  14.929
88233W        W54774  17.161   4.974  13.751
88234W        W54775  12.386  35.665  12.897
88235W        W54776  13.145   8.205   4.709
88236W        W54777  33.119  15.784   4.596
88237W        W54778  37.531   4.936  12.824
88238W        W54779  13.863  31.500  12.524
88239W        W54780   1.856  38.079  12.613
88240W        W54781  38.029   5.417  13.912
88241W        W54782  37.563  33.949  11.139
88242W        W54783  42.480  30.711  10.469
88243W        W54784  39.462   9.655  13.736
88244W        W54785  22.813  37.334  11.058
88245W        W54786  12.637   6.899   3.204
88246W        W54787  19.671  44.404  13.874
88247W        W54788  15.145  39.401  13.777
88248W        W54789  16.282  31.433  14.368
88249W        W54790  28.392  11.658  10.776
88250W        W54791  28.442   6.689   1.313
88251W        W54792  17.157  29.236  13.970
88252W        W54793  30.343  42.874   0.318
88253W        W54794  27.896  40.643   1.168
88254W        W54795  21.144  19.287   1.807
88255W        W54796   4.654   3.224  12.599
88256W        W54797  34.557  24.513  12.059
88257W        W54798  18.777  34.823  13.047
88258W        W54799   5.482  21.479   3.968
88259W        W54800  30.508  10.101  11.128
88260W        W54801   9.255  37.163  12.298
88261W        W54802  36.670   6.239   9.978
88262W        W54803  33.621  18.771  10.688
88263W        W54804   4.987  12.741   2.572
88264W        W54805  39.401  23.984  12.026
88265W        W54806   8.402   2.531   4.044
88266W        W54807  34.645  23.568   0.165
88267W        W54808  17.174  22.304   2.313
88268W        W54809  31.843  17.193   3.963
88269W        W54810   4.167  40.837   3.042
88270W        W54811  27.204   0.373  10.690
88271W        W54812  32.403  39.906   0.079
88272W        W54813  43.720   8.142  13.575
88273W        W54814   8.092  30.264  12.461
88274W        W54815  39.603   5.419   1.406
88275W        W54816  27.521  18.482   2.139
88276W        W54817  33.152  33.570  12.009
88277W        W54818   9.906  33.012  12.527
88278W        W54819  24.236  24.587   3.186
88279W        W54820   7.947  39.287   1.909
88280W        W54821  38.881  24.612  14.548
88281W        W54822   2.334  34.806   1.922
88282W        W54823  17.115   6.220  10.226
88283W        W54824   8.528   9.378  12.028
88284W        W54825  23.181   8.258  12.772
88285W        W54826  10.816  39.568  12.453
88286W        W54827  20.069  15.364  10.399
88287W        W54828  16.312   8.265   4.860
88288W        W54829  19.394  12.708  10.430
88289W        W54830  39.746  25.028   4.584
88290W        W54831  12.160  20.749   3.676
88291W        W54832  14.983   5.732   0.448
88292W        W54833   1.542  23.040   4.193
88293W        W54834  23.103  42.930   3.695
88294W        W54835  14.992  31.384  14.813
88295W        W54836   1.450   9.776  12.190
88296W        W54837  10.789  36.965  13.993
88297W        W54838  16.498  23.536   2.209
88298W        W54839  11.271  37.078  14.979
88299W        W54840  15.777  40.368   4.695
88300W        W54841  22.202  39.763  14.001
88301W        W54842  39.276   2.799   3.713
88302W        W54843  44.299  18.625   2.910
88303W        W54844  22.051  38.546  12.367
88304W        W54845  33.500  19.498   1.188
88305W        W54846  34.332  19.895  11.429
88306W        W54847  11.411   9.637   4.010
88307W        W54848  32.847   6.861   2.704
88308W        W54849  35.950  30.129   3.133
88309W        W54850  20.450  15.070  13.956
88310W        W54851  27.744  33.424  10.519
88311W        W54852  25.220  33.379  10.715
88312W        W54853  23.675  17.102   0.431
88313W        W54854  34.506   5.666   1.366
88314W        W54855  32.617  17.264   4.655
88315W        W54856   6.008  11.159   4.507
88316W        W54857  25.633  42.517   3.177
88317W        W54858  10.921  14.350   4.702
88318W        W54859  40.726  33.557   0.985
88319W        W54860  42.176  13.233   9.839
88320W        W54861  40.498  10.859  11.104
88321W        W54862  40.337  22.572  14.497
88322W        W54863  44.247  31.108   0.452
88323W        W54864  34.582   2.050   1.585
88324W        W54865  21.137  35.093   5.035
88325W        W54866  33.466   6.397  11.663
88326W        W54867  41.570  34.445   4.499
88327W        W54868  40.476   3.861  10.752
88328W        W54869  26.414  38.585  14.348
88329W        W54870  22.171  18.334   4.807
88330W        W54871  40.343  39.359   1.449
88331W        W54872  31.138  14.811   4.986
88332W        W54873  23.624   7.954   4.971
88333W        W54874  42.867  17.351  10.696
88334W        W54875  34.949  29.018   0.410
88335W        W54876   4.448   1.108   4.697
88336W        W54877  12.896   9.673  12.390
88337W        W54878   5.506  14.112   0.010
88338W        W54879   9.249  41.509   9.888
88339W        W54880  19.832  37.622   3.314
88340W        W54881  20.789  25.643  11.581
88341W        W54882  44.936  11.330   4.147
88342W        W54883  29.168  26.505   2.838
88343W        W54884  15.017  38.758   0.065
88344W        W54885  39.606  43.708   1.076
88345W        W54886  17.798   9.635   3.773
88346W        W54887  24.622   8.079   0.918
88347W        W54888  16.210  15.173  13.842
88348W        W54889  37.153  37.751  13.771
88349W        W54890  16.259  24.692  12.325
88350W        W54891  14.760  26.625   0.773
88351W        W54892  37.966  13.420  12.136
88352W        W54893  15.095  41.812  14.404
88353W        W54894  20.097   5.938   3.644
88354W        W54895  39.417  25.717   3.035
88355W        W54896  30.378   5.429  11.301
88356W        W54897  31.147  40.476  14.935
88357W        W54898  25.026  36.782   0.840
88358W        W54899  23.979  12.729  10.732
88359W        W54900   8.182   2.931  14.317
88360W        W54901  28.633  12.406   0.500
88361W        W54902  17.063   0.803  10.902
88362W        W54903  23.460  38.548   3.624
88363W        W54904  27.433  15.532   4.168
88364W        W54905  36.835  15.560   3.215
88365W        W54906  18.749  12.324   1.000
88366W        W54907  32.826  26.301  12.631
88367W        W54908  23.608  34.040  12.022
88368W        W54909  14.111  22.477  12.158
88369W        W54910  44.842  39.934   4.693
88370W        W54911   5.718   6.817   1.440
88371W        W54912  27.962   9.014  11.971
88372W        W54913  20.226   8.201   3.901
88373W        W54914  40.308  36.898  12.620
88374W        W54915  19.336  22.273   2.413
88375W        W54916  34.500  14.630  12.090
88376W        W54917  12.630   2.469   1.035
88377W        W54918  31.443  14.110  13.375
88378W        W54919  16.931  40.592  13.097
88379W        W54920  38.521  18.136   0.463
88380W        W54921  15.044  22.047  12.668
88381W        W54922  42.695  22.159   4.055
88382W        W54923  21.658  32.074   0.402
88383W        W54924  36.585  34.466  13.989
88384W        W54925  25.262   4.428  13.930
88385W        W54926   0.130  17.303   2.741
88386W        W54927   6.185  26.836  11.966
88387W        W54928  19.714   0.817  13.590
88388W        W54929  28.636   6.860   0.857
88389W        W54930  13.541  14.118  10.126
88390W        W54931  44.600  27.000   3.008
88391W        W54932   2.409  10.980  12.065
88392W        W54933   7.257  10.812   4.768
88393W        W54934  26.037  39.914   4.863
88394W        W54935  32.144  14.666  13.453
88395W        W54936  40.492  28.626   4.819
88396W        W54937   0.454  44.262   1.313
88397W        W54938  30.487  31.934   2.834
88398W        W54939  30.992   0.378   2.100
88399W        W54940   2.947   6.807   2.792
88400W        W54941  21.900  22.763   3.645
88401W        W54942  11.222   3.529   2.777
88402W        W54943  21.716  12.843  14.419
88403W        W54944   4.393   8.985  13.930
88404W        W54945  32.747  26.130  10.542
88405W        W54946  29.892  10.704  12.856
88406W        W54947  23.363   7.873   5.445
88407W        W54948  38.771  15.497   1.356
88408W        W54949  20.543  25.726   2.425
88409W        W54950  11.887  15.427   5.073
88410W        W54951  15.301  19.638  12.979
88411W        W54952  31.077  33.522   3.191
88412W        W54953  41.354   1.023   3.226
88413W        W54954  16.167  29.142   2.163
88414W        W54955  12.477   2.961   2.632
88415W        W54956  18.705  35.320   3.082
88416W        W54957  24.234  36.117   1.227
88417W        W54958  39.818  16.564  11.158
88418W        W54959  23.996   7.703   1.393
88419W        W54960   8.176  28.131   3.268
88420W        W54961   3.899   4.478  14.493
88421W        W54962   8.193  12.688   2.600
88422W        W54963   1.874  29.515   2.814
88423W        W54964  41.496  15.236  12.454
88424W        W54965  24.781  36.326   2.724
88425W        W54966   3.283  18.165  12.585
88426W        W54967   8.108  31.085  14.003
88427W        W54968   7.396  15.150  12.526
88428W        W54969  40.743   3.400  10.629
88429W        W54970   3.344  10.288  12.801
88430W        W54971  15.854  19.149  12.159
88431W        W54972  39.685  22.692  11.995
88432W        W54973   3.061  23.909  12.291
88433W        W54974   0.052  37.850   2.192
88434W        W54975  27.210  33.463   0.730
88435W        W54976  32.855   4.315   3.059
88436W        W54977   1.420  11.313  12.451
88437W        W54978  28.241  23.674   2.161
88438W        W54979  36.422  16.455   4.239
88439W        W54980  38.549  38.260   0.407
88440W        W54981  13.405  35.339   3.735
88441W        W54982  25.521  27.282  13.346
88442W        W54983  44.728  39.316  11.408
88443W        W54984  13.877   5.878   1.266
88444W        W54985  35.793  40.315   1.432
88445W        W54986  44.457  39.276   3.805
88446W        W54987   1.357  30.339   0.442
88447W        W54988  37.481  14.251  14.766
88448W        W54989  18.993   8.904   1.699
88449W        W54990   6.123  26.537   1.851
88450W        W54991  19.840  10.247  10.726
88451W        W54992  18.599  34.270   0.545
88452W        W54993   7.829  34.443  14.604
88453W        W54994  14.828  16.538  12.625
88454W        W54995   6.425  28.454  14.989
88455W        W54996  12.543  32.773  11.092
88456W        W54997  26.668   7.022   4.361
88457W        W54998  27.773   7.845   2.713
88458W        W54999   6.479   0.699   1.822
88459W        W55000   1.298  37.543   2.171
88460W        W55001  41.562  16.601   0.012
88461W        W55002  39.611   3.834   1.863
88462W        W55003  26.125  24.623  14.975
88463W        W55004  15.388  26.146   4.030
88464W        W55005   2.299  27.194   3.186
88465W        W55006  34.732  29.707  12.636
88466W        W55007   7.106   9.929   3.831
88467W        W55008  26.579  34.126   1.264
88468W        W55009  30.918  19.166  13.073
88469W        W55010  16.233   1.875   3.432
88470W        W55011   1.490  20.544  12.645
88471W        W55012  14.590   3.358   2.843
88472W        W55013  42.934  18.962   3.815
88473W        W55014  23.846  26.998  12.808
88474W        W55015  29.112  26.230  10.635
88475W        W55016  26.844  18.131   1.913
88476W        W55017  28.595  39.808   1.752
88477W        W55018  12.513  23.249  11.160
88478W        W55019  17.723   0.165  12.965
88479W        W55020  29.810  19.112  12.815
88480W        W55021  13.317  29.070  11.972
88481W        W55022  24.657  18.552  10.722
88482W        W55023   5.852  34.541   3.130
88483W        W55024  36.651  35.447   3.111
88484W        W55025   5.963  16.902  12.495
88485W        W55026  30.920  19.809  13.972
88486W        W55027   7.175   1.739  10.317
88487W        W55028  43.968  30.078   2.386
88488W        W55029  23.777  26.731   4.179
88489W        W55030  38.853  27.082   2.701
88490W        W55031  37.652  14.782   2.409
88491W        W55032  43.816  40.304   4.071
88492W        W55033   6.715  29.030  12.104
88493W        W55034  19.860   3.667  13.070
88494W        W55035  41.438  40.848   4.393
88495W        W55036  20.858  37.421  14.369
88496W        W55037  24.864  31.740   2.731
88497W        W55038   7.652  42.015   3.175
88498W        W55039  33.641  32.910  11.288
88499W        W55040  20.473  28.730  14.257
88500W        W55041   2.847  40.306  13.993
88501W        W55042  11.437  29.534  13.091
88502W        W55043   7.046  37.048   3.871
88503W        W55044  32.998  33.526  13.819
88504W        W55045  18.761  34.503   2.858
88505W        W55046  29.493  16.611   0.707
88506W        W55047   7.779  12.133   1.546
88507W        W55048  41.389   9.176  12.105
88508W        W55049   5.085  11.298   4.721
88509W        W55050   1.762  32.615   1.729
88510W        W55051  37.569  35.007   0.987
88511W        W55052  21.621   8.738   0.116
88512W        W55053  16.964   3.720  11.573
88513W        W55054  23.452  41.889   0.275
88514W        W55055  17.178   3.792   2.240
88515W        W55056  18.789  25.884   1.453
88516W        W55057  35.026  23.542  13.409
88517W        W55058  25.286  33.314  13.251
88518W        W55059  24.627  23.990  11.687
88519W        W55060   3.413   6.847  11.878
88520W        W55061  35.458  13.426  13.471
88521W        W55062  42.564  26.044  10.797
88522W        W55063  24.178  40.190  12.471
88523W        W55064   3.442  38.900   1.431
88524W        W55065   5.653  13.673  14.412
88525W        W55066  12.124   7.393  13.448
88526W        W55067  15.878   6.043   4.205
88527W        W55068  12.338  12.697  12.919
88528W        W55069  22.598   3.467   1.753
88529W        W55070  36.767  26.010  12.433
88530W        W55071  18.336  18.281  10.887
88531W        W55072  28.014   1.200  14.630
88532W        W55073  14.403   9.422   0.373
88533W        W55074   8.316  17.627  13.938
88534W        W55075  35.486  28.075   4.555
88535W        W55076  37.096  15.085   3.270
88536W        W55077  13.395  25.565   0.798
88537W        W55078  30.336  36.423   3.272
88538W        W55079  27.921  44.331  10.525
88539W        W55080  40.043  18.950   4.265
88540W        W55081   6.184  23.528   4.311
88541W        W55082  17.860  31.683  10.390
88542W        W55083  26.577  16.154  12.608
88543W        W55084  14.375  11.918  10.957
88544W        W55085  21.121  16.282   4.459
88545W        W55086  24.156   2.409   2.367
88546W        W55087  24.141   6.897  14.064
88547W        W55088  31.853   9.392  10.666
88548W        W55089  26.131   4.488   2.714
88549W        W55090  41.890  31.198   0.338
88550W        W55091  36.067  17.479  11.106
88551W        W55092   0.934   3.973   4.513
88552W        W55093  21.036  17.047   0.924
88553W        W55094  24.076  14.476  12.617
88554W        W55095  26.185  30.393   0.935
88555W        W55096  15.563  31.385  13.815
88556W        W55097  37.387   8.843   4.645
88557W        W55098  23.029  29.578  14.445
88558W        W55099   4.793   5.854   4.035
88559W        W55100   1.539  13.776   2.856
88560W        W55101  13.100   5.747   1.731
88561W        W55102  20.760  21.251   2.671
88562W        W55103  24.222   3.993  12.756
88563W        W55104   9.343  22.778  11.196
88564W        W55105  42.349  24.571  13.795
88565W        W55106  44.279  35.913  10.375
88566W        W55107  19.921  40.363   9.833
88567W        W55108  37.069  29.124   4.306
88568W        W55109  24.721   4.399  12.892
88569W        W55110  40.431  27.401  13.350
88570W        W55111  12.283   5.952   3.405
88571W        W55112   3.262  28.645  12.024
88572W        W55113  35.649  39.250   3.358
88573W        W55114  34.147   0.529   0.186
88574W        W55115  12.203  13.816  11.104
88575W        W55116  21.289  36.321   1.101
88576W        W55117   2.164  13.610  13.348
88577W        W55118  40.064  12.126  13.976
88578W        W55119  33.058  18.354  10.739
88579W        W55120  35.412  31.218  11.176
88580W        W55121  24.211  23.056   4.844
88581W        W55122   2.296   4.010   1.822
88582W        W55123  40.801  27.076  12.076
88583W        W55124   9.198   8.661   4.710
88584W        W55125   7.647  32.372   0.505
88585W        W55126   0.171  34.594   0.433
88586W        W55127  42.091   4.028  11.408
88587W        W55128  18.691   6.367  13.277
88588W        W55129  12.892  41.878  10.760
88589W        W55130  13.120   3.802   0.529
88590W        W55131  19.276   8.398   4.181
88591W        W55132   4.457   2.507  12.995
88592W        W55133  14.684  19.376  14.543
88593W        W55134  10.120  25.614   1.913
88594W        W55135  41.083  16.195   4.592
88595W        W55136  15.933   8.634   4.146
88596W        W55137  31.656  37.601  10.402
88597W        W55138  39.140  29.333  14.806
88598W        W55139   8.358  28.349  13.220
88599W        W55140  10.863  33.632  13.060
88600W        W55141  14.132  10.862   1.411
88601W        W55142  33.958  36.468   1.961
88602W        W55143   6.441   0.311   0.060
88603W        W55144  33.701  26.864   1.780
88604W        W55145  30.279  11.057  11.576
88605W        W55146  37.418  39.135   4.639
88606W        W55147  11.219  12.317   2.764
88607W        W55148  36.625  41.668   4.209
88608W        W55149  41.054  39.320  11.220
88609W        W55150   1.024  12.653  12.117
88610W        W55151  37.484  40.136  11.479
88611W        W55152  40.804  42.733   1.311
88612W        W55153  27.454   0.784  14.712
88613W        W55154  23.935  36.844   4.240
88614W        W55155  16.175   4.158  11.883
88615W        W55156   8.433  42.027   0.667
88616W        W55157  25.470  32.848  12.539
88617W        W55158   9.629  19.098   1.739
88618W        W55159  26.088  40.730  10.701
88619W        W55160  33.360  10.070  11.276
88620W        W55161   5.209  20.312  11.428
88621W        W55162   6.707  21.708   4.614
88622W        W55163  27.179  38.430   4.283
88623W        W55164  42.120  19.557   3.680
88624W        W55165   6.786  36.219   3.788
88625W        W55166  39.756   6.438   4.602
88626W        W55167  24.602  15.121   3.444
88627W        W55168  32.063  22.538  12.603
88628W        W55169  43.205  16.207  11.191
88629W        W55170  21.626  20.874   4.703
88630W        W55171  13.772  12.694  13.445
88631W        W55172   3.018  38.830   1.716
88632W        W55173  10.847  26.248   4.264
88633W        W55174  30.855  31.446   4.383
88634W        W55175  31.553  15.546   3.734
88635W        W55176   7.159   7.245  13.279
88636W        W55177  39.819  25.616   2.123
88637W        W55178  39.141  25.342  11.256
88638W        W55179  11.656  14.276  13.767
88639W        W55180  16.338   2.472  13.454
88640W        W55181  43.116  15.003   2.234
88641W        W55182   5.402  35.794  10.694
88642W        W55183  40.798  35.840   4.431
88643W        W55184  14.655  21.133  14.087
88644W        W55185  30.929  15.335   9.757
88645W        W55186  37.535  32.998  11.535
88646W        W55187  15.134   5.832   3.682
88647W        W55188   4.893  42.075  13.582
88648W        W55189  10.933  24.437   0.758
88649W        W55190   5.763  14.163  10.921
88650W        W55191   1.736  36.870  14.568
88651W        W55192  31.580   5.729  12.807
88652W        W55193  16.240   0.439  12.869
88653W        W55194   2.850  34.589  14.798
88654W        W55195  40.043  19.159   1.250
88655W        W55196   2.383  35.114   2.364
88656W        W55197  22.695  23.923   2.861
88657W        W55198  11.258  34.931   0.786
88658W        W55199  40.761   4.997   5.090
88659W        W55200  15.749  27.991  13.021
88660W        W55201  23.973  42.364   2.743
88661W        W55202  32.387   5.415  11.180
88662W        W55203  41.091  39.543  14.225
88663W        W55204   5.221   7.467  13.908
88664W        W55205  27.657  40.080  14.883
88665W        W55206  35.830  23.225  14.889
88666W        W55207  34.846  20.621   4.138
88667W        W55208  16.166  30.972   1.860
88668W        W55209  12.024  14.145   0.831
88669W        W55210  34.027  14.335   0.751
88670W        W55211   6.962  10.322   1.214
88671W        W55212  23.355  13.099   3.327
88672W        W55213   7.658  32.871   3.062
88673W        W55214  29.485  35.125  11.606
88674W        W55215  26.104  44.029   0.263
88675W        W55216   3.772   9.238  14.147
88676W        W55217  39.341  10.338   0.114
88677W        W55218   2.877  15.622   2.931
88678W        W55219  18.846   5.210   1.362
88679W        W55220  33.381   9.487   2.128
88680W        W55221  40.171  43.130   3.188
88681W        W55222   8.715  28.531  11.536
88682W        W55223  38.556   0.487  11.010
88683W        W55224  22.191  33.848  10.611
88684W        W55225  36.322  30.611   0.852
88685W        W55226  35.505  26.525   0.333
88686W        W55227  17.892  23.809  10.866
88687W        W55228   9.174  35.251   2.182
88688W        W55229  40.718  26.442  14.250
88689W        W55230  37.256  22.437  14.403
88690W        W55231  24.187  13.247  13.977
88691W        W55232  44.842  10.266  11.687
88692W        W55233  26.587  33.525   4.467
88693W        W55234  39.810  38.405   0.756
88694W        W55235  43.271  26.528  11.241
88695W        W55236   8.617  37.466   4.615
88696W        W55237  36.005   0.345   2.385
88697W        W55238   7.143  14.098  10.506
88698W        W55239  31.964  21.554   1.204
88699W        W55240  26.039  40.814   4.365
88700W        W55241  12.259  19.531   1.907
88701W        W55242  41.917  21.273  13.590
88702W        W55243  20.517  39.494   1.004
88703W        W55244  32.998  44.891  10.668
88704W        W55245  35.409  40.288  13.026
88705W        W55246  17.948  25.264   1.388
88706W        W55247  18.567   8.314   2.757
88707W        W55248  28.886  32.528   4.468
88708W        W55249  17.192  28.968   0.946
88709W        W55250   9.241   3.236   2.579
88710W        W55251   6.750   7.716  13.340
88711W        W55252  30.554  19.673   1.190
88712W        W55253  29.497  14.955   1.098
88713W        W55254   5.415  26.138   2.909
88714W        W55255  42.228  34.605  13.958
88715W        W55256  39.702  27.673  13.867
88716W        W55257  17.193  38.418   4.314
88717W        W55258  35.038  35.421  11.855
88718W        W55259  42.388   2.035   4.033
88719W        W55260  43.924  43.803  12.178
88720W        W55261  27.249  30.072  14.424
88721W        W55262  21.765   3.403  10.777
88722W        W55263  28.053  36.659  10.241
88723W        W55264   3.971  22.159   3.757
88724W        W55265  38.675  37.921   1.890
88725W        W55266   9.456  27.360  14.432
88726W        W55267   8.321  11.677   3.784
88727W        W55268   4.878  22.688  13.378
88728W        W55269  16.835  16.177   0.355
88729W        W55270   6.734  17.314  14.450
88730W        W55271  15.756  33.406   1.184
88731W        W55272   6.232   4.657   1.713
88732W        W55273   6.877  43.963   2.376
88733W        W55274  35.934  36.557  12.517
88734W        W55275  28.070  14.589  12.462
88735W        W55276  17.776   8.922   2.203
88736W        W55277  13.459  23.239  13.970
88737W        W55278  42.466  36.329   2.115
88738W        W55279  21.637  34.629  14.602
88739W        W55280   5.772   9.678   3.314
88740W        W55281  10.618  30.872  14.326
88741W        W55282  42.388   3.498  11.262
88742W        W55283  39.523   2.480   1.028
88743W        W55284  35.845  33.823   3.690
88744W        W55285  17.245   8.962   4.201
88745W        W55286  33.844  40.893  13.394
88746W        W55287  38.127  43.929   3.575
88747W        W55288   4.380  21.285  10.614
88748W        W55289  28.465  20.410  12.076
88749W        W55290  26.013  21.504  13.916
88750W        W55291  34.051  41.367  12.733
88751W        W55292  13.020   7.438  12.018
88752W        W55293  28.606  24.716   3.385
88753W        W55294  35.080  26.572  10.224
88754W        W55295  12.377  22.563   2.797
88755W        W55296  23.953  13.582  10.973
88756W        W55297  30.482   2.219  11.564
88757W        W55298  14.714  29.948  13.489
88758W        W55299  20.194  14.836  13.148
88759W        W55300  41.498  28.427  11.229
88760W        W55301  42.970  30.946  14.030
88761W        W55302  12.152  19.293   3.459
88762W        W55303  17.753  30.066  11.691
88763W        W55304   3.402   9.342   3.131
88764W        W55305  17.566  34.006  10.712
88765W        W55306  40.399  10.679  12.680
88766W        W55307   7.729  41.221  12.045
88767W        W55308  20.014  30.154   2.180
88768W        W55309  33.350  37.897  10.611
88769W        W55310  21.839  13.185  14.018
88770W        W55311   3.821  27.014  11.879
88771W        W55312   7.245   6.788  11.698
88772W        W55313  14.171  43.288   2.545
88773W        W55314  18.628  24.551   4.645
88774W        W55315  44.204  12.869  11.621
88775W        W55316  10.367  13.287   1.279
88776W        W55317  29.466  19.692  10.729
88777W        W55318  14.706   6.162   0.406
88778W        W55319  37.576  42.388   1.022
88779W        W55320  13.177  21.476  12.385
88780W        W55321  30.239  11.590   5.507
88781W        W55322  37.820  17.952  10.646
88782W        W55323  23.516  35.642   0.977
88783W        W55324  38.729  21.991  11.907
88784W        W55325  39.233  21.197   4.314
88785W        W55326  20.349  32.193  13.806
88786W        W55327   9.245  35.071  12.590
88787W        W55328  12.855  14.660  11.906
88788W        W55329  10.871  20.579   3.160
88789W        W55330  39.337  43.018   1.448
88790W        W55331  18.770  37.029   3.735
88791W        W55332   7.634  25.563   4.049
88792W        W55333   7.841  23.218  14.450
88793W        W55334  37.350  36.036   4.162
88794W        W55335  37.460  24.341  14.745
88795W        W55336  43.961  30.598   2.402
88796W        W55337  27.859  24.031   3.448
88797W        W55338   9.412  32.813  10.715
88798W        W55339  44.383  37.942  13.857
88799W        W55340  40.953   9.937   3.217
88800W        W55341  31.156  29.150  13.487
88801W        W55342  18.035  22.483  10.847
88802W        W55343  35.066  26.273  11.568
88803W        W55344  11.711  42.520   0.927
88804W        W55345  44.310  13.624  11.053
88805W        W55346  11.553  40.509  14.921
88806W        W55347  33.168  32.700   1.975
88807W        W55348  29.532  22.192   9.794
88808W        W55349   4.044   2.502  12.088
88809W        W55350  40.928  20.204  14.351
88810W        W55351  15.598  11.566  11.414
88811W        W55352  21.489  19.638  11.671
88812W        W55353  28.133  11.251  14.228
88813W        W55354  32.850   4.587   0.378
88814W        W55355  36.137  21.780   4.139
88815W        W55356  16.016  20.654   3.666
88816W        W55357   2.778  35.858   2.430
88817W        W55358   0.427  12.070  13.421
88818W        W55359  36.840  33.025   4.790
88819W        W55360  37.008  30.380   3.204
88820W        W55361  15.150  25.027   1.176
88821W        W55362   3.519   6.880  10.390
88822W        W55363   5.287  16.358  13.898
88823W        W55364  42.139   9.646   0.445
88824W        W55365  20.869   7.578   1.348
88825W        W55366   7.391  37.957  12.533
88826W        W55367   9.390  28.681   2.951
88827W        W55368  44.662  26.214  12.107
88828W        W55369  21.875  33.609  13.563
88829W        W55370   9.697  21.813   3.135
88830W        W55371   3.447  31.421  13.972
88831W        W55372  25.698   0.025  11.250
88832W        W55373  13.190  38.778   2.847
88833W        W55374  41.864   2.943  14.897
88834W        W55375  39.973  16.494   1.779
88835W        W55376  26.703   6.970  12.383
88836W        W55377   9.312  34.815   0.480
88837W        W55378  24.172  10.766   2.587
88838W        W55379  22.855  15.239  14.045
88839W        W55380  19.842  11.462   2.850
88840W        W55381  25.671  11.636  14.258
88841W        W55382  21.085   8.747  11.679
88842W        W55383  20.751  26.150  11.739
88843W        W55384  20.122  37.042   3.421
88844W        W55385  30.428  25.493  10.654
88845W        W55386  25.760  25.465  13.450
88846W        W55387  22.023  24.573  11.244
88847W        W55388  28.625   5.371   1.377
88848W        W55389  42.077  32.974   4.338
88849W        W55390  11.143  34.571   3.207
88850W        W55391   0.189   1.517  11.751
88851W        W55392  24.481  39.666   3.612
88852W        W55393   5.204   9.782   4.171
88853W        W55394  21.141   6.100   1.886
88854W        W55395   1.731   4.959   1.274
88855W        W55396  41.733  10.474  10.599
88856W        W55397  35.449  15.003   3.449
88857W        W55398   8.126  36.350   1.386
88858W        W55399  23.522  36.885   2.240
88859W        W55400  42.881  22.723   3.145
88860W        W55401  41.804   1.259  11.917
88861W        W55402  34.566  39.202   1.378
88862W        W55403  23.253  41.077   1.782
88863W        W55404  15.962  20.511   1.002
88864W        W55405   1.218  11.391   4.544
88865W        W55406   0.486  24.030   2.626
88866W        W55407  19.224  14.620   3.258
88867W        W55408  39.071  27.396   4.003
88868W        W55409  32.942  37.934  11.732
88869W        W55410  22.712  34.044  13.599
88870W        W55411  41.565   9.192  13.356
88871W        W55412  21.196   0.686  10.763
88872W        W55413  34.061   1.337   1.810
88873W        W55414   1.090  11.828   3.683
88874W        W55415  39.289   4.974   1.328
88875W        W55416  33.863   1.945  13.035
88876W        W55417  13.293   3.364   1.407
88877W        W55418  11.763  33.451  12.831
88878W        W55419  12.315  35.010  13.329
88879W        W55420  22.636  17.567   4.511
88880W        W55421  28.866  14.366   3.599
88881W        W55422  16.733  18.984   2.873
88882W        W55423  22.118  19.612  13.828
88883W        W55424  41.136  26.360  10.165
88884W        W55425  24.287   5.437  11.784
88885W        W55426  23.628  34.843   1.429
88886W        W55427   0.052  38.829  10.556
88887W        W55428   9.758  43.406   3.206
88888W        W55429  44.274  38.980   3.324
88889W        W55430  29.656  18.856  14.254
88890W        W55431  19.328   3.903   1.839
88891W        W55432  35.821  23.028  14.427
88892W        W55433  39.710  11.048  12.131
88893W        W55434  23.050  19.739   4.936
88894W        W55435  36.536  31.121  12.428
88895W        W55436  12.353  33.121   3.008
88896W        W55437  31.542   6.018   2.165
88897W        W55438  23.325  34.119  12.421
88898W        W55439  33.268  13.884  10.640
88899W        W55440  40.340  37.949   1.405
88900W        W55441  11.921   5.384  14.775
88901W        W55442  21.310  41.891  11.127
88902W        W55443   7.112  30.138  13.436
88903W        W55444   9.579  14.353  11.313
88904W        W55445  14.097  11.659   1.836
88905W        W55446   9.308   7.375   1.813
88906W        W55447  44.659   1.047  12.633
88907W        W55448  23.604   3.834  13.899
88908W        W55449  26.887  18.219   4.365
88909W        W55450  23.063   8.155  11.030
88910W        W55451   4.826  15.580  13.809
88911W        W55452  30.630   1.563  13.064
88912W        W55453  17.444  34.418  12.509
88913W        W55454  23.298  19.917  10.993
88914W        W55455  23.094  44.257   2.947
88915W        W55456  36.963   3.734  13.425
88916W        W55457  35.048  43.480   4.605
88917W        W55458  33.503  31.258   0.272
88918W        W55459  24.617  32.685   4.528
88919W        W55460   5.754  44.762   4.263
88920W        W55461  21.601  32.180   3.148
88921W        W55462  19.101  23.472  13.481
88922W        W55463  39.918  30.444  13.217
88923W        W55464  39.241  31.364  14.801
88924W        W55465  12.253  39.238   1.147
88925W        W55466  40.746   1.134  14.320
88926W        W55467  28.532   6.223  11.394
88927W        W55468  26.908  30.884   3.093
88928W        W55469   8.932  17.392   0.443
88929W        W55470  23.104  33.608   0.149
88930W        W55471  43.458   9.134   1.974
88931W        W55472  41.471   4.766   3.567
88932W        W55473  19.754  21.541   1.956
88933W        W55474  17.471  18.214  10.636
88934W        W55475  33.644  20.660  11.570
88935W        W55476  38.849  36.071   0.242
88936W        W55477  21.785  33.557  12.186
88937W        W55478  43.241  13.390  11.145
88938W        W55479  23.057  16.263  13.245
88939W        W55480  14.772   3.636   2.426
88940W        W55481  26.524  30.174   0.578
88941W        W55482  18.024   4.790  13.814
88942W        W55483  39.372   8.391   4.482
88943W        W55484  26.805   7.757  11.319
88944W        W55485  39.066  26.134  13.434
88945W        W55486  39.405  30.560  13.266
88946W        W55487   8.620   2.283  12.923
88947W        W55488  42.809  35.032  14.418
88948W        W55489  39.995  14.851  12.949
88949W        W55490  22.657  27.209   3.582
88950W        W55491  34.803  25.231   2.268
88951W        W55492  10.109  28.360  14.082
88952W        W55493  12.585  23.527   3.783
88953W        W55494   8.351  20.526  14.002
88954W        W55495  35.638   3.296  13.366
88955W        W55496   5.376  40.618   2.946
88956W        W55497  10.047  39.774   3.645
88957W        W55498  41.026  11.095  10.281
88958W        W55499  42.022  37.482   1.820
88959W        W55500  20.129  30.123   4.303
88960W        W55501  27.579  29.583  12.618
88961W        W55502  38.648  30.038   2.499
88962W        W55503  13.873   6.628   2.820
88963W        W55504  42.907  23.579  12.088
88964W        W55505   4.244  43.537  10.374
88965W        W55506  33.665  13.096   2.823
88966W        W55507  31.725  25.208   0.089
88967W        W55508  16.245  11.374  11.090
88968W        W55509   0.976  24.629  12.358
88969W        W55510  13.340  12.733  12.686
88970W        W55511  36.648   6.654   0.276
88971W        W55512  36.136  15.421   4.139
88972W        W55513   0.299  27.511   2.733
88973W        W55514  26.784   8.706  10.648
88974W        W55515  43.939  33.252   3.030
88975W        W55516  38.723  26.949  13.109
88976W        W55517   4.999  22.557  14.277
88977W        W55518   0.440   3.351  13.335
88978W        W55519  39.883  24.229   0.456
88979W        W55520  37.315  41.033  12.404
88980W        W55521  25.750   7.130   4.150
88981W        W55522  14.103   4.515  14.830
88982W        W55523  33.453  39.489  11.919
88983W        W55524   8.111  10.968  11.588
88984W        W55525  22.283   3.293   0.019
88985W        W55526  26.216  16.513  13.591
88986W        W55527  27.011  37.603   0.389
88987W        W55528  27.711  30.176   4.756
88988W        W55529  19.050  27.037   0.728
88989W        W55530  17.045   1.961   2.327
88990W        W55531   1.665   8.675  12.374
88991W        W55532  32.049   2.473  13.547
88992W        W55533  37.374   1.108   4.885
88993W        W55534  25.276  22.674   3.155
88994W        W55535  35.719  14.755  12.377
88995W        W55536  29.872  18.316   3.202
88996W        W55537   8.024  13.672   4.542
88997W        W55538  18.681  40.348  12.621
88998W        W55539  27.123  40.935   3.236
88999W        W55540   4.837  27.509  10.180
89000W        W55541  42.859  14.124   0.455
89001W        W55542  14.684  42.588  13.014
89002W        W55543  37.151  41.612   4.233
89003W        W55544  16.035  11.330  11.567
89004W        W55545  28.371   4.346  14.829
89005W        W55546  35.857  13.364  13.969
89006W        W55547  33.556  22.277  12.908
89007W        W55548  13.750  31.626  12.019
89008W        W55549   7.490  37.468   0.344
89009W        W55550  21.673  10.215   3.923
89010W        W55551   0.871  33.151   1.793
89011W        W55552  24.509   4.921  12.944
89012W        W55553   6.363  38.005  10.091
89013W        W55554  26.376  32.091   3.558
89014W        W55555  21.183  37.499  10.647
89015W        W55556  44.457   2.740  12.422
89016W        W55557  38.955   5.397   3.157
89017W        W55558  31.481  18.662   1.770
89018W        W55559  41.868   0.444  12.890
89019W        W55560   8.317  23.554  10.665
89020W        W55561  38.619  20.049   0.285
89021W        W55562  20.136  20.258  10.754
89022W        W55563  21.564  30.602   3.631
89023W        W55564  23.695  29.728  12.318
89024W        W55565   1.290  41.209  12.116
89025W        W55566  27.263  38.889  11.597
89026W        W55567  27.499  42.432  12.101
89027W        W55568  35.172  10.122   0.444
89028W        W55569   6.780  16.699   1.178
89029W        W55570  34.316  21.618   2.878
89030W        W55571   8.640  18.237   3.197
89031W        W55572   8.666  19.101  11.983
89032W        W55573   3.704  22.989  14.761
89033W        W55574   9.257  14.092  10.987
89034W        W55575   7.417  21.081   4.753
89035W        W55576  18.954  34.412  11.636
89036W        W55577  12.763   2.452  13.993
89037W        W55578  20.179  38.632   4.125
89038W        W55579  34.266  22.080   2.635
89039W        W55580  27.955  21.986   0.409
89040W        W55581  34.408  27.731   3.249
89041W        W55582   4.023  21.787  11.218
89042W        W55583  33.015  23.726   3.096
89043W        W55584   1.347   5.552  11.692
89044W        W55585  14.182  30.182  12.568
89045W        W55586  27.869   8.063   1.709
89046W        W55587  35.260  42.443  13.619
89047W        W55588  26.954  15.542   2.385
89048W        W55589  26.659  35.907  14.390
89049W        W55590  13.173  18.975   1.009
89050W        W55591  20.268  19.912   1.429
89051W        W55592  38.375  22.033  14.424
89052W        W55593  31.432  16.037  11.501
89053W        W55594   3.312  38.794  11.261
89054W        W55595   2.926   8.697   1.069
89055W        W55596   3.694   3.845   0.895
89056W        W55597  27.003  17.999  13.532
89057W        W55598  39.275  25.711   0.375
89058W        W55599  29.586  39.163   3.716
89059W        W55600   1.720   5.301  13.371
89060W        W55601  16.111  12.397  10.402
89061W        W55602  41.267  15.346  12.898
89062W        W55603   5.757  26.455  11.831
89063W        W55604  31.052  37.821  11.114
89064W        W55605   2.304   4.485  10.997
89065W        W55606  29.903  35.924   1.369
89066W        W55607  42.970   8.691  10.642
89067W        W55608  34.270  44.694  11.155
89068W        W55609  19.481  31.310   3.269
89069W        W55610   0.517  31.375   0.189
89070W        W55611  35.978  34.651   3.381
89071W        W55612  30.167  26.281   2.920
89072W        W55613  27.472  36.063   1.982
89073W        W55614  21.539  41.802  13.765
89074W        W55615   7.331  29.677  12.114
89075W        W55616  28.303   8.429  13.102
89076W        W55617  41.568   8.982   0.967
89077W        W55618  37.605  12.356   0.692
89078W        W55619  39.294  20.307   4.714
89079W        W55620  19.294  21.218  10.683
89080W        W55621  20.978   3.461   0.423
89081W        W55622   3.090   7.769  14.458
89082W        W55623   7.285  10.193  13.624
89083W        W55624  13.751  25.425  14.514
89084W        W55625  44.277  26.034   0.712
89085W        W55626  18.776  31.588   2.632
89086W        W55627  35.224  14.780  12.565
89087W        W55628  28.184   0.715  14.754
89088W        W55629  11.735  29.784   1.370
89089W        W55630  24.754  43.755   4.168
89090W        W55631  36.627  10.348  10.372
89091W        W55632  11.873  40.732   2.118
89092W        W55633   7.380  21.515  13.448
89093W        W55634  32.818  41.601   2.351
89094W        W55635  44.652  34.495   0.359
89095W        W55636  30.673  22.256  13.452
89096W        W55637  17.952  23.176  12.603
89097W        W55638  33.541   4.467   4.547
89098W        W55639  25.234   5.026  10.059
89099W        W55640  25.152  31.250   0.946
89100W        W55641  24.211  39.348  12.871
89101W        W55642  27.233   3.833  14.369
89102W        W55643  11.368   7.077   0.572
89103W        W55644  27.950   3.807  10.516
89104W        W55645  17.340  18.161  12.938
89105W        W55646   7.826   1.288  14.466
89106W        W55647  38.458  21.359   4.949
89107W        W55648  23.203  20.242  12.448
89108W        W55649  26.942  36.398  13.960
89109W        W55650  19.159  30.613   0.299
89110W        W55651   2.981  22.501   1.798
89111W        W55652  30.348  13.461   1.394
89112W        W55653  15.610  13.331  12.484
89113W        W55654  19.306   7.710  14.316
89114W        W55655  29.917  25.184   4.924
89115W        W55656  32.867  31.528  12.591
89116W        W55657   6.428  17.169   2.626
89117W        W55658   2.323  26.844   2.799
89118W        W55659   8.722  22.122   3.299
89119W        W55660  19.085  27.886  13.057
89120W        W55661  40.240   1.438   4.708
89121W        W55662  12.047  33.904  14.814
89122W        W55663   0.696  38.615   3.776
89123W        W55664  38.402  17.951   1.282
89124W        W55665  28.226  41.374   1.914
89125W        W55666   6.601  31.810  11.579
89126W        W55667  32.126  34.848  12.914
89127W        W55668  36.034  43.988  14.955
89128W        W55669  39.069   3.998  11.956
89129W        W55670  40.522  10.213  12.844
89130W        W55671  18.903  17.258  10.596
89131W        W55672  31.907  41.585   2.831
89132W        W55673  42.370  28.930  13.475
89133W        W55674  11.747  10.863   3.812
89134W        W55675  28.904  39.259  14.784
89135W        W55676  41.404  27.185  13.889
89136W        W55677  24.316  41.560   2.233
89137W        W55678  40.186   8.449   3.247
89138W        W55679  37.483  25.945  14.019
89139W        W55680  23.465  36.605   3.154
89140W        W55681  36.090  39.960   0.639
89141W        W55682  30.980  24.178   1.254
89142W        W55683  39.441   1.454   4.287
89143W        W55684   6.851  26.553  11.430
89144W        W55685  43.776   6.893   3.478
89145W        W55686  16.337  37.841   1.954
89146W        W55687  18.003  20.262   1.265
89147W        W55688  28.161  43.674  12.053
89148W        W55689   5.889  10.377   4.078
89149W        W55690  13.239  27.605  10.773
89150W        W55691  29.325  39.053  14.984
89151W        W55692  17.111  13.225  11.652
89152W        W55693  41.792  11.614   4.089
89153W        W55694  41.837  30.246  14.483
89154W        W55695  10.565   7.602  13.003
89155W        W55696  21.243  17.223   0.483
89156W        W55697  28.489  21.068  14.150
89157W        W55698  27.768  42.284  13.073
89158W        W55699  38.501   1.492   1.496
89159W        W55700  44.826   0.027  12.575
89160W        W55701   5.807   0.206   3.080
89161W        W55702  25.944  11.088   4.062
89162W        W55703  29.184   7.717  14.463
89163W        W55704  37.049  24.669   4.406
89164W        W55705  21.297  34.372  13.907
89165W        W55706  13.396   5.934   0.455
89166W        W55707  42.662   2.323  13.259
89167W        W55708  18.315  42.313   3.173
89168W        W55709  22.779  36.078  14.925
89169W        W55710  30.381  15.895   4.304
89170W        W55711  29.420  40.101   3.750
89171W        W55712   5.790   8.135   2.246
89172W        W55713  34.367  17.950   4.182
89173W        W55714  36.114   5.914   0.207
89174W        W55715   9.655  32.045   2.661
89175W        W55716   1.937  14.726  14.307
89176W        W55717  26.190   9.418  11.077
89177W        W55718  31.852  17.134  14.674
89178W        W55719   5.390  15.539  14.939
89179W        W55720   7.675  42.469   4.156
89180W        W55721  34.612  42.554  13.943
89181W        W55722  14.766   8.432   3.619
89182W        W55723  34.066  18.308   1.878
89183W        W55724  35.408  22.586  12.084
89184W        W55725   8.978  13.557   3.796
89185W        W55726  35.436  14.822   4.590
89186W        W55727  13.672  12.036   0.972
89187W        W55728  11.252   1.004  12.276
89188W        W55729  25.187  11.016   4.168
89189W        W55730  19.523  40.560  12.134
89190W        W55731  35.085  44.944  13.877
89191W        W55732   6.313  28.893  13.304
89192W        W55733   5.756  24.492   1.542
89193W        W55734  22.695  42.343   1.429
89194W        W55735   7.805  23.761  12.998
89195W        W55736  38.517  21.842  13.012
89196W        W55737   7.807   1.027   4.168
89197W        W55738   9.587  40.985  14.821
89198W        W55739  14.124   2.439   0.016
89199W        W55740   6.938  25.379   2.744
89200W        W55741  18.791  27.657  13.491
89201W        W55742  42.103  30.541  14.947
89202W        W55743   5.816   6.296   2.043
89203W        W55744  12.270   9.907   3.121
89204W        W55745  10.759  16.858  13.799
89205W        W55746  12.541   4.517  13.080
89206W        W55747   1.146  28.399   1.801
89207W        W55748  31.670  17.981  13.857
89208W        W55749  44.111   2.674   4.230
89209W        W55750  41.855  30.467   2.354
89210W        W55751  25.479  11.213  10.544
89211W        W55752  29.109  27.854  13.357
89212W        W55753  37.333  17.161   3.769
89213W        W55754  39.317  12.328  13.398
89214W        W55755  25.726  24.533   1.368
89215W        W55756  42.429  22.268  13.876
89216W        W55757  19.949  38.328   1.437
89217W        W55758  31.006  14.352  11.231
89218W        W55759  43.561  27.140  11.616
89219W        W55760  34.883  27.685  12.576
89220W        W55761  26.157  10.729   1.320
89221W        W55762  31.555   0.988   2.048
89222W        W55763  18.286   4.252   2.891
89223W        W55764   8.491  19.007  11.074
89224W        W55765   2.066  25.118  10.255
89225W        W55766  38.972   3.278  11.192
89226W        W55767  41.534  35.641  13.395
89227W        W55768  10.404  24.727   2.785
89228W        W55769  27.481  10.614   1.106
89229W        W55770  11.630  34.033  12.539
89230W        W55771   7.901  27.499   0.589
89231W        W55772   0.260  35.772   2.593
89232W        W55773  38.115  16.762   1.442
89233W        W55774  36.527   6.995  12.388
89234W        W55775   9.549   6.878   3.658
89235W        W55776   9.786  17.513   1.305
89236W        W55777  33.007  11.125   1.654
89237W        W55778   8.809   9.268   3.053
89238W        W55779  10.800  41.148  13.686
89239W        W55780   3.914   3.637  13.380
89240W        W55781  20.700  27.750   2.806
89241W        W55782   8.730  18.791   0.157
89242W        W55783  20.218  29.025   0.516
89243W        W55784  15.178  34.069  11.749
89244W        W55785  34.053   4.282  12.438
89245W        W55786  20.739   0.759   4.181
89246W        W55787  11.927   3.695  12.435
89247W        W55788   0.788  28.504  13.342
89248W        W55789  35.521  29.156  14.543
89249W        W55790  25.242  32.423   0.646
89250W        W55791   4.104   1.692   1.270
89251W        W55792  41.038   9.173  13.494
89252W        W55793  24.756  31.587  11.715
89253W        W55794  41.413  28.531  11.701
89254W        W55795   7.300  21.534   2.278
89255W        W55796  26.038  40.826   1.458
89256W        W55797  34.369  25.240  12.433
89257W        W55798  34.783  27.244  11.858
89258W        W55799  41.646  44.449  14.371
89259W        W55800  19.918  42.022   2.242
89260W        W55801  13.047  15.838   0.401
89261W        W55802   0.244   4.283   3.242
89262W        W55803  38.402  19.179  14.293
89263W        W55804   7.404  22.123   2.886
89264W        W55805  37.928  43.089   4.756
89265W        W55806   0.005  39.024   4.790
89266W        W55807   8.659  38.482  12.529
89267W        W55808  13.293   6.682  11.173
89268W        W55809  31.875  26.613  13.848
89269W        W55810   8.381   4.965   3.340
89270W        W55811  16.208  11.281   2.790
89271W        W55812  25.897  17.033  13.588
89272W        W55813  10.771  29.162   4.871
89273W        W55814  41.621  17.700  11.892
89274W        W55815  39.726   5.915   3.828
89275W        W55816  27.652  35.362  12.545
89276W        W55817  13.821  36.707  13.290
89277W        W55818  24.989  37.467  11.493
89278W        W55819  25.489  10.831   2.774
89279W        W55820  32.379   4.423  11.424
89280W        W55821  20.641   5.873   4.968
89281W        W55822  42.278  43.959   3.251
89282W        W55823  15.011  38.162  13.121
89283W        W55824  24.046  43.708   0.306
89284W        W55825  44.163  42.509  11.015
89285W        W55826  25.289   9.935  13.379
89286W        W55827  44.954  29.750   2.164
89287W        W55828  40.848  44.185   4.613
89288W        W55829  25.179   0.688   1.297
89289W        W55830  27.113  23.828  14.793
89290W        W55831  30.445   8.434   2.727
89291W        W55832  30.722  10.934  14.274
89292W        W55833  16.066  42.948   3.992
89293W        W55834  15.163  39.467  14.819
89294W        W55835  41.815  32.080  12.923
89295W        W55836  36.844  23.067  10.679
89296W        W55837  15.598  13.307  14.222
89297W        W55838  36.731  32.866  14.418
89298W        W55839  12.943   6.940   2.766
89299W        W55840   3.338  31.612  11.775
89300W        W55841   5.045   7.263   4.662
89301W        W55842   0.307   2.046  10.969
89302W        W55843   9.810  32.129   1.703
89303W        W55844  15.732  35.293  11.116
89304W        W55845  34.394  43.768   0.964
89305W        W55846  20.289   7.676  13.619
89306W        W55847  38.754  15.652  13.485
89307W        W55848  25.629  32.669   0.893
89308W        W55849  20.875   5.128  12.964
89309W        W55850  18.854  41.256  12.443
89310W        W55851  19.680  13.109  10.612
89311W        W55852   3.792  44.131   4.652
89312W        W55853  21.075  21.239  14.205
89313W        W55854   8.309  18.256  10.737
89314W        W55855  26.133  19.737   3.667
89315W        W55856  38.627  26.894   0.348
89316W        W55857  34.396   0.280  13.153
89317W        W55858  31.350   0.645  12.081
89318W        W55859   5.207   2.418  14.394
89319W        W55860  44.570  38.519   4.146
89320W        W55861  22.302  14.484  13.846
89321W        W55862  28.383  29.580  14.443
89322W        W55863   3.161   9.238  12.217
89323W        W55864  11.301  19.313  14.769
89324W        W55865  40.091   7.639  10.738
89325W        W55866  40.577  32.939   4.158
89326W        W55867   6.220  31.007  14.958
89327W        W55868  13.288  33.677  11.638
89328W        W55869  32.395  18.083  11.394
89329W        W55870   4.602  23.086  12.145
89330W        W55871   8.650  41.537  12.474
89331W        W55872  10.772  17.833  14.808
89332W        W55873  28.824  17.680  12.620
89333W        W55874  43.820   1.347  13.140
89334W        W55875  16.119  37.624   4.990
89335W        W55876   2.661  28.059   2.584
89336W        W55877  13.616  18.270   0.447
89337W        W55878  24.311  22.588   4.638
89338W        W55879   2.341   5.277   3.700
89339W        W55880  24.192   0.479  13.037
89340W        W55881  24.236   2.353   1.458
89341W        W55882   3.388  35.894   0.765
89342W        W55883   2.530   0.647  13.167
89343W        W55884   8.380  35.141  13.018
89344W        W55885  20.788  40.608   0.506
89345W        W55886  37.841  19.760  13.751
89346W        W55887  34.651   1.817   3.632
89347W        W55888   2.986  38.014   2.178
89348W        W55889  19.804   8.319   0.884
89349W        W55890  40.462  25.030  13.026
89350W        W55891  10.877  32.162  11.587
89351W        W55892   2.436  37.327   3.584
89352W        W55893  28.556  32.418   3.253
89353W        W55894  41.464  22.193  12.569
89354W        W55895  23.964  16.337  12.335
89355W        W55896   7.238  23.245   0.072
89356W        W55897  21.231  12.873  13.494
89357W        W55898  18.931  26.205  11.260
89358W        W55899  14.614  25.223   3.259
89359W        W55900  25.752   6.483  10.251
89360W        W55901  25.117  21.937   2.730
89361W        W55902  34.172   2.855   0.552
89362W        W55903  16.022  36.591  12.540
89363W        W55904   6.667  11.213   1.256
89364W        W55905   4.765  31.140   3.281
89365W        W55906   7.141  14.664   2.146
89366W        W55907  32.004   3.722  12.398
89367W        W55908  23.229  12.642   3.609
89368W        W55909  20.322  30.553   1.996
89369W        W55910  24.192  43.852   2.162
89370W        W55911   9.149  21.446   0.112
89371W        W55912  20.102  30.154  11.850
89372W        W55913   0.827  30.389  14.868
89373W        W55914  28.702  13.769   1.535
89374W        W55915   1.807  16.576   0.256
89375W        W55916  35.619   3.948   2.426
89376W        W55917  36.722  41.455  13.998
89377W        W55918   1.246  33.012  10.970
89378W        W55919  43.278  43.423  10.590
89379W        W55920  19.795  37.619  10.770
89380W        W55921   3.955   5.933   3.473
89381W        W55922  36.749  23.443  11.620
89382W        W55923  42.838   6.786   2.448
89383W        W55924  42.842  21.756  10.978
89384W        W55925   5.824  38.868  10.783
89385W        W55926  20.162  22.584   1.527
89386W        W55927  13.256   0.220   3.086
89387W        W55928  10.532   1.793  14.220
89388W        W55929  11.841   3.951  14.799
89389W        W55930  21.165   6.185  12.356
89390W        W55931   5.354  40.336  14.939
89391W        W55932  28.475  19.160   3.929
89392W        W55933  22.249  39.837  14.532
89393W        W55934  17.786   6.873   4.055
89394W        W55935  33.592  35.523  12.053
89395W        W55936  23.708  42.244  12.942
89396W        W55937  12.726  44.882   2.883
89397W        W55938  30.901  14.860  12.109
89398W        W55939  19.796  35.558  12.180
89399W        W55940  22.536  43.279  13.459
89400W        W55941  34.284  44.791  12.957
89401W        W55942  44.284  21.094  13.284
89402W        W55943  12.103  24.527  10.658
89403W        W55944  24.263   5.309   0.857
89404W        W55945  42.739  42.083   2.662
89405W        W55946  25.557  39.647   2.125
89406W        W55947  23.450  23.139   3.278
89407W        W55948  34.737  41.530  13.482
89408W        W55949   1.431  38.806   0.884
89409W        W55950  37.783   6.778   4.772
89410W        W55951  14.569  43.191  10.922
89411W        W55952  32.036  32.052  13.485
89412W        W55953  43.781  24.974  11.158
89413W        W55954  26.253  36.914  13.174
89414W        W55955  16.470  13.340  13.853
89415W        W55956  23.783  14.320  10.536
89416W        W55957  14.883  13.354   9.989
89417W        W55958   0.415  18.489   1.768
89418W        W55959  30.769  23.628  13.448
89419W        W55960  29.014  36.602  12.821
89420W        W55961  44.692  43.366   4.921
89421W        W55962  31.313  15.629   4.183
89422W        W55963  11.117  27.767   0.285
89423W        W55964  40.097   8.882   2.687
89424W        W55965  37.577  27.716   3.161
89425W        W55966  42.362  35.858  11.127
89426W        W55967  10.181  30.998  12.214
89427W        W55968  15.697  34.404  12.049
89428W        W55969  24.933  14.954  10.770
89429W        W55970  38.193  44.047  11.107
89430W        W55971   4.571   6.729   2.804
89431W        W55972  18.932  22.810  11.932
89432W        W55973  14.660  38.294  11.975
89433W        W55974  23.813  34.683   0.974
89434W        W55975   8.266   8.930   1.792
89435W        W55976  33.108  16.707  14.603
89436W        W55977  24.966  35.409   1.803
89437W        W55978  37.523  22.572  13.059
89438W        W55979  25.365  21.732   4.159
89439W        W55980  22.615  14.838   1.776
89440W        W55981  25.727   2.912  13.678
89441W        W55982  19.879  15.229  12.608
89442W        W55983  23.063   9.893  11.847
89443W        W55984  12.986  30.747   9.874
89444W        W55985  42.590  24.012  10.701
89445W        W55986  31.872  43.280   0.887
89446W        W55987   1.659   6.650  14.867
89447W        W55988  36.078   1.351  14.785
89448W        W55989  35.893  24.043   3.885
89449W        W55990   7.717  32.567  14.976
89450W        W55991  11.110  16.847  14.937
89451W        W55992  31.388  31.029  13.629
89452W        W55993  12.805  11.609  13.444
89453W        W55994  19.542   1.686  12.994
89454W        W55995   9.644  36.005   1.758
89455W        W55996  44.529  26.122   0.217
89456W        W55997  33.547  41.976   4.683
89457W        W55998  35.299  22.706   3.618
89458W        W55999   3.558   3.700  12.999
89459W        W56000  24.604  16.533   3.612
89460W        W56001  41.809  25.536   2.699
89461W        W56002  41.939  39.768   4.484
89462W        W56003  28.847   8.948   2.181
89463W        W56004  35.267   5.050  12.864
89464W        W56005   5.155  18.385  11.358
89465W        W56006   2.953  34.841  10.625
89466W        W56007  36.659  20.686   4.098
89467W        W56008  37.544  43.324   5.103
89468W        W56009  27.432   6.665  10.705
89469W        W56010  36.792  30.151  10.768
89470W        W56011  17.882  42.765   3.140
89471W        W56012  11.766  43.030   0.840
89472W        W56013   9.044  22.569  10.432
89473W        W56014  10.088  18.024  11.333
89474W        W56015  25.639   2.439  12.969
89475W        W56016   1.367  36.474  13.465
89476W        W56017  34.466  30.475   4.309
89477W        W56018  17.401  23.611   2.319
89478W        W56019   5.011  29.479   1.757
89479W        W56020  19.318  18.658  12.627
89480W        W56021  33.674  11.799   4.443
89481W        W56022  41.804  28.847   4.791
89482W        W56023  10.387  42.960  14.011
89483W        W56024  30.959  26.251   1.236
89484W        W56025  34.197   5.270   4.576
89485W        W56026  23.037   4.792   0.492
89486W        W56027   4.125  14.230   0.910
89487W        W56028  29.980  18.231   0.786
89488W        W56029  20.268  24.015  11.204
89489W        W56030  15.773  29.870  10.708
89490W        W56031  12.134  29.715   3.444
89491W        W56032   6.609  15.727  10.756
89492W        W56033  38.585  19.564  11.066
89493W        W56034  41.961   7.412  12.079
89494W        W56035  15.712   7.024  11.137
89495W        W56036  20.051  26.902  13.350
89496W        W56037  23.489  34.266   0.787
89497W        W56038  11.276  30.932  11.234
89498W        W56039  35.051   4.919   2.045
89499W        W56040  37.891  24.707  13.874
89500W        W56041  33.509  13.805  11.087
89501W        W56042  36.542   2.870  13.658
89502W        W56043  27.541  41.231   1.300
89503W        W56044  25.501  11.093   0.456
89504W        W56045   5.815  28.078   2.778
89505W        W56046  25.024  18.198  12.898
89506W        W56047  15.996  18.149   4.683
89507W        W56048  37.317   0.190  13.364
89508W        W56049  29.921  29.504   4.039
89509W        W56050  26.172  29.608  10.763
89510W        W56051   9.864  21.970  14.446
89511W        W56052  18.721  44.601   4.382
89512W        W56053   6.342  15.989  12.951
89513W        W56054  39.321   6.694   2.048
89514W        W56055  32.318   1.500  14.549
89515W        W56056  31.083  20.459  12.471
89516W        W56057  39.359  26.988  13.139
89517W        W56058   3.431  22.010   4.651
89518W        W56059   6.333  10.945   3.509
89519W        W56060  22.251  33.000  12.671
89520W        W56061  19.571  11.876  14.369
89521W        W56062  35.278   1.177   0.266
89522W        W56063  30.185  11.775  12.017
89523W        W56064   9.553  44.906   2.721
89524W        W56065  30.194  19.314  13.723
89525W        W56066  22.934   0.427   3.043
89526W        W56067  14.631  14.276   3.462
89527W        W56068  21.016  24.676   0.776
89528W        W56069   5.488  14.015   2.688
89529W        W56070   0.701   7.242   0.764
89530W        W56071   4.294  14.700  14.804
89531W        W56072  23.638  20.561   1.814
89532W        W56073  19.226  37.122  12.003
89533W        W56074  21.922  13.131   0.731
89534W        W56075  43.447  20.166  12.446
89535W        W56076  30.421  15.341  11.320
89536W        W56077  34.492  14.290   0.103
89537W        W56078  41.538  12.751  14.719
89538W        W56079  27.596   7.437  11.829
89539W        W56080  33.996  41.993   3.770
89540W        W56081  20.555  17.660   2.818
89541W        W56082  22.627  14.565  11.718
89542W        W56083  26.900  35.975   1.145
89543W        W56084  42.508  37.776  13.687
89544W        W56085  15.865  12.308   1.267
89545W        W56086  30.075  13.317  11.880
89546W        W56087   1.034  38.114   3.211
89547W        W56088  14.307  11.136   2.731
89548W        W56089  23.717  38.648   4.068
89549W        W56090   2.741  42.244   2.433
89550W        W56091  38.890   8.339   4.210
89551W        W56092   3.490  44.944   1.305
89552W        W56093   6.369  34.049   3.624
89553W        W56094  34.493  31.143   2.131
89554W        W56095  37.920   7.346   0.980
89555W        W56096  44.891  10.132  13.646
89556W        W56097  26.641   1.052   1.000
89557W        W56098  16.888  19.368   3.176
89558W        W56099  10.219  38.780   4.200
89559W        W56100  38.039  15.116   2.215
89560W        W56101  15.441   0.570   4.222
89561W        W56102  12.408  13.223  12.884
89562W        W56103   5.937  28.703  13.987
89563W        W56104   0.891  23.179   1.028
89564W        W56105  11.200   2.263   2.844
89565W        W56106  31.566  19.519   2.691
89566W        W56107   8.879  32.786  10.750
89567W        W56108  14.208  19.737  12.306
89568W        W56109   2.114  17.312  11.584
89569W        W56110   1.801  43.312  12.362
89570W        W56111  42.746  37.081  12.208
89571W        W56112   2.186  30.033   1.483
89572W        W56113   8.736   2.088  13.380
89573W        W56114  20.512  36.377  11.671
89574W        W56115  16.166  18.742  10.628
89575W        W56116  35.683  11.671  10.847
89576W        W56117   7.155  15.227  11.889
89577W        W56118   3.875   5.493  11.538
89578W        W56119  11.752  19.188   0.013
89579W        W56120  20.018  18.907  10.603
89580W        W56121  18.719  31.744   1.198
89581W        W56122  24.153  18.142   2.689
89582W        W56123  43.297  44.775  14.761
89583W        W56124  35.649  16.860   3.174
89584W        W56125   6.949   9.033  10.776
89585W        W56126  26.211   2.318  13.825
89586W        W56127  41.407   7.626  12.112
89587W        W56128  22.579  24.431   2.878
89588W        W56129   7.883  33.430  12.979
89589W        W56130  10.256  36.068   2.424
89590W        W56131   1.276   3.839   4.161
89591W        W56132  28.324   0.232  12.451
89592W        W56133   9.189  31.843   2.816
89593W        W56134  30.982  26.940   1.739
89594W        W56135  38.398  41.506  11.767
89595W        W56136   2.764  35.003  13.817
89596W        W56137  25.603   8.615  11.172
89597W        W56138  43.947  15.856   1.735
89598W        W56139  22.246  30.192   0.506
89599W        W56140  15.463  13.239  13.702
89600W        W56141  43.476  37.893  11.557
89601W        W56142  34.811  32.413  11.084
89602W        W56143  13.781  33.709   2.926
89603W        W56144  21.043  34.103   0.933
89604W        W56145  28.103  19.801  12.382
89605W        W56146  18.525   9.399  14.840
89606W        W56147  13.503  18.486  11.778
89607W        W56148  32.776  27.688  12.079
89608W        W56149  16.653   2.130   3.577
89609W        W56150  22.047  13.615  11.070
89610W        W56151  40.975   4.801   1.352
89611W        W56152  25.209   8.482  13.476
89612W        W56153  44.592   6.980   9.976
89613W        W56154  29.854  27.148  13.426
89614W        W56155  42.293  35.469  11.506
89615W        W56156  21.116   5.727  12.578
89616W        W56157  33.555  11.215  12.569
89617W        W56158  33.951  20.244  11.383
89618W        W56159  27.036  19.750   0.526
89619W        W56160  14.606  42.386  14.853
89620W        W56161  29.091  16.727  11.471
89621W        W56162  10.178  23.427   3.782
89622W        W56163  16.460  30.841  12.396
89623W        W56164  43.976  37.534  11.406
89624W        W56165  20.576  24.470   4.067
89625W        W56166  12.200  38.262   1.438
89626W        W56167  36.957  25.728   2.721
89627W        W56168  34.608  10.598  11.002
89628W        W56169  42.929  28.438   0.880
89629W        W56170   7.854  40.750   4.065
89630W        W56171  21.147  40.342   3.924
89631W        W56172  15.846  21.242   0.762
89632W        W56173  21.173   8.597  13.743
89633W        W56174  18.240  12.783  11.442
89634W        W56175  25.363   6.627   1.107
89635W        W56176  23.353   8.929   2.261
89636W        W56177  23.581  32.903  10.698
89637W        W56178   9.105  14.206  11.460
89638W        W56179   4.733  32.143  11.860
89639W        W56180  25.038  17.059   4.564
89640W        W56181  33.929  43.793   3.086
89641W        W56182  37.406  33.980  13.475
89642W        W56183  10.322  11.357   4.712
89643W        W56184  26.915  20.598   0.032
89644W        W56185  44.278  21.452   4.509
89645W        W56186  20.812  28.177   3.356
89646W        W56187   0.314  37.924  12.879
89647W        W56188  34.637  20.777  11.041
89648W        W56189   2.327  42.992   3.868
89649W        W56190  31.558   4.273  12.042
89650W        W56191  29.531   9.362  14.500
89651W        W56192  26.669  39.064   4.599
89652W        W56193  39.800  28.729  12.052
89653W        W56194  40.250  35.989   3.282
89654W        W56195  34.636  11.089   2.095
89655W        W56196  36.790   3.776   3.661
89656W        W56197  42.414   7.272   0.058
89657W        W56198   7.333  26.090  12.975
89658W        W56199  30.069  36.604  12.140
89659W        W56200   1.970  44.529  14.728
89660W        W56201  23.123  33.512   4.541
89661W        W56202   4.701   3.254   0.166
89662W        W56203  22.231  16.009   0.951
89663W        W56204  35.176  40.103   2.390
89664W        W56205   1.361  35.323  11.501
89665W        W56206  34.820  28.107   1.275
89666W        W56207  28.941   5.291  11.202
89667W        W56208  18.263  38.874   4.094
89668W        W56209   2.033  43.296  11.878
89669W        W56210  43.755  38.412   2.823
89670W        W56211  33.274  20.194   2.881
89671W        W56212  11.468  20.475   3.147
89672W        W56213  37.390  19.679   0.899
89673W        W56214   8.528  12.720  12.385
89674W        W56215   3.347  11.273   2.578
89675W        W56216  24.747  23.665   2.509
89676W        W56217  44.173  14.122  10.357
89677W        W56218  19.797  12.622  10.769
89678W        W56219  19.047  29.520  13.428
89679W        W56220   0.342  34.112   1.233
89680W        W56221  23.986  30.169   1.798
89681W        W56222  43.294  19.683  11.870
89682W        W56223  14.484  23.761   4.085
89683W        W56224  19.964  17.877  11.633
89684W        W56225  42.871  42.469   0.222
89685W        W56226  17.065  23.556   0.488
89686W        W56227  12.331  42.447   3.747
89687W        W56228  23.185  33.877   4.917
89688W        W56229   3.570  12.361  13.591
89689W        W56230  40.747   8.392   3.243
89690W        W56231  42.366   0.311   1.556
89691W        W56232   7.010  33.067   2.395
89692W        W56233   2.847  18.754  13.060
89693W        W56234  34.849  36.266  13.015
89694W        W56235   5.180  43.997   3.331
89695W        W56236   5.236  23.746   3.842
89696W        W56237  12.459   7.124  11.042
89697W        W56238  12.789  16.259  13.022
89698W        W56239  15.804   3.890  12.658
89699W        W56240  32.107   9.365   3.732
89700W        W56241  25.519   0.296   1.074
89701W        W56242  40.324  30.749   0.491
89702W        W56243  22.767   7.338   5.054
89703W        W56244  18.647  18.632   0.939
89704W        W56245  18.349   7.711  12.383
89705W        W56246  26.189  24.313  12.368
89706W        W56247  24.421  28.562  14.061
89707W        W56248  16.357   9.272  12.104
89708W        W56249  26.317  29.021   0.974
89709W        W56250  21.971  11.719   0.851
89710W        W56251  11.686  32.608   4.002
89711W        W56252  16.975  25.960  13.784
89712W        W56253   3.950   7.515   1.500
89713W        W56254   1.404  28.918   4.361
89714W        W56255  44.544  25.666  14.910
89715W        W56256  19.885   3.795   1.324
89716W        W56257  28.147  19.354  14.507
89717W        W56258   0.922  24.738  14.653
89718W        W56259  42.264  36.014  14.182
89719W        W56260  37.158  43.025   3.296
89720W        W56261  12.707  27.329   2.952
89721W        W56262   6.869  26.070  10.146
89722W        W56263  25.868  25.572  14.573
89723W        W56264  11.247   5.849  11.744
89724W        W56265  22.767   1.940  13.528
89725W        W56266  41.365  41.704   4.961
89726W        W56267   9.298  38.474   3.804
89727W        W56268  24.167  40.064   1.235
89728W        W56269  33.574  12.009   0.778
89729W        W56270  26.125  13.286   1.170
89730W        W56271  34.104  18.873  11.569
89731W        W56272   1.713  36.328  13.083
89732W        W56273  33.310  10.306   2.645
89733W        W56274   1.050  23.491  14.175
89734W        W56275   8.471  43.398   2.720
89735W        W56276   5.416  19.406   3.042
89736W        W56277  43.495  17.621   0.639
89737W        W56278  38.762   4.194  14.359
89738W        W56279  11.749  38.037   3.220
89739W        W56280  29.162  22.418   1.150
89740W        W56281  18.029  20.313   3.015
89741W        W56282  31.322  35.532  11.413
89742W        W56283  22.002   4.065   4.903
89743W        W56284  16.636  15.710  10.915
89744W        W56285  22.674  29.976  14.341
89745W        W56286  38.357  12.714   0.962
89746W        W56287  11.402   2.863  12.873
89747W        W56288  13.903  11.482   2.709
89748W        W56289   6.482  39.374   2.015
89749W        W56290   8.058  16.127  14.374
89750W        W56291   2.286  37.108  12.259
89751W        W56292  29.317  16.230  14.926
89752W        W56293  20.150  34.872  11.153
89753W        W56294  40.779  20.778   2.310
89754W        W56295  33.433  29.548   1.186
89755W        W56296  10.834  43.962  12.515
89756W        W56297  43.298  33.644   4.045
89757W        W56298  35.305  33.382  13.637
89758W        W56299  28.279  12.048  12.964
89759W        W56300   1.325  24.247  10.615
89760W        W56301  40.002  20.194   1.009
89761W        W56302   7.200  19.806   2.824
89762W        W56303  22.377  21.595  12.744
89763W        W56304  36.418  23.616  11.234
89764W        W56305  26.431  15.735  11.045
89765W        W56306  31.677  16.538  12.251
89766W        W56307  15.625  30.539  13.127
89767W        W56308   3.935  36.340   3.027
89768W        W56309  23.458  25.637   3.306
89769W        W56310  13.314  32.384  11.486
89770W        W56311  21.541  39.554   1.993
89771W        W56312  22.222  20.350  13.113
89772W        W56313   9.482   1.704   0.345
89773W        W56314  22.067  13.890  13.734
89774W        W56315  22.568  40.797   1.474
89775W        W56316  23.121  16.608  12.343
89776W        W56317  20.698   2.389   3.175
89777W        W56318   6.371  16.322   4.240
89778W        W56319  23.466  20.664   3.586
89779W        W56320  35.304  37.338   1.875
89780W        W56321   5.306  20.194  10.430
89781W        W56322  24.258   0.001  10.743
89782W        W56323   3.667  37.989  13.794
89783W        W56324  20.017  32.008   2.676
89784W        W56325   8.394  33.450   2.744
89785W        W56326   8.873  17.137  13.582
89786W        W56327  28.617  40.104   2.181
89787W        W56328   6.743   1.593   5.574
89788W        W56329  33.629  34.856  13.317
89789W        W56330   5.281  42.950  13.460
89790W        W56331   0.722   2.158   4.615
89791W        W56332  18.105  30.197  11.335
89792W        W56333  37.990  28.664  13.241
89793W        W56334  23.164  27.781   2.137
89794W        W56335  11.113  39.455  11.595
89795W        W56336  10.200  37.047  11.932
89796W        W56337  36.643  29.640   0.959
89797W        W56338  29.371  16.328  13.500
89798W        W56339   9.876  19.309  14.605
89799W        W56340  10.575  14.608   1.035
89800W        W56341  43.480  17.996  14.734
89801W        W56342  27.506  42.085  10.384
89802W        W56343   8.437  22.996   2.954
89803W        W56344  15.880  20.501   1.548
89804W        W56345   9.698   6.839   4.230
89805W        W56346  23.851   3.747  14.339
89806W        W56347  21.253  21.254  11.503
89807W        W56348  34.905  22.116  11.545
89808W        W56349   5.643  13.763  11.999
89809W        W56350  21.580  43.400  12.534
89810W        W56351  16.687  28.105   1.792
89811W        W56352   8.274  20.741  13.219
89812W        W56353  31.427   1.961   3.726
89813W        W56354   9.680  43.723  11.533
89814W        W56355  34.449   8.009   0.884
89815W        W56356   8.760  28.942  13.827
89816W        W56357  19.747  32.002   2.041
89817W        W56358   4.052   2.178  12.956
89818W        W56359  22.083   7.705  14.963
89819W        W56360   8.262  26.733  13.872
89820W        W56361  28.099  40.468  12.105
89821W        W56362  15.890  26.019   4.102
89822W        W56363  20.166  16.677  12.471
89823W        W56364   9.271   7.102   1.277
89824W        W56365  34.509  17.660  11.235
89825W        W56366   3.755  25.733   0.400
89826W        W56367  28.378  18.251  14.998
89827W        W56368  42.461  40.895  10.587
89828W        W56369  43.458   5.428   2.330
89829W        W56370  41.598   3.539   4.558
89830W        W56371  21.185  11.612  14.096
89831W        W56372  14.717  20.193   3.166
89832W        W56373  24.556  29.434  14.020
89833W        W56374  15.677  23.626  14.801
89834W        W56375  25.752   0.402  14.558
89835W        W56376  41.976  21.879   3.619
89836W        W56377  33.339  30.280  10.954
89837W        W56378  11.079  36.964  10.746
89838W        W56379  37.570   1.937   3.631
89839W        W56380  29.525  20.403  11.650
89840W        W56381  12.582  24.985   1.673
89841W        W56382  31.478  23.164   1.784
89842W        W56383   9.407  43.814   1.830
89843W        W56384   8.074  44.765   1.883
89844W        W56385  33.846  34.417  13.491
89845W        W56386  13.755  41.909  12.491
89846W        W56387   2.859  33.913   3.886
89847W        W56388   0.677  15.165   0.822
89848W        W56389  13.299   7.005  12.004
89849W        W56390   1.291  18.217  12.511
89850W        W56391  16.301  44.475   3.357
89851W        W56392  36.350  10.654  12.773
89852W        W56393  26.085   8.003   2.718
89853W        W56394  13.355   1.180  13.507
89854W        W56395  37.705  23.841   2.880
89855W        W56396  16.707  30.438   0.403
89856W        W56397  16.775  11.372   1.640
89857W        W56398  19.175  15.621   0.598
89858W        W56399  26.262  17.808   1.807
89859W        W56400  27.527  33.361   1.732
89860W        W56401  19.106  40.487  12.879
89861W        W56402  37.441   4.468  11.400
89862W        W56403  28.906   3.052   3.650
89863W        W56404   0.933  35.934  11.968
89864W        W56405  31.473   3.930   1.317
89865W        W56406  30.158  20.174   0.939
89866W        W56407  12.456   9.209  14.107
89867W        W56408  36.459  37.970  14.037
89868W        W56409  29.820  16.066  14.812
89869W        W56410  40.776  31.076  14.348
89870W        W56411   9.795  44.366   3.375
89871W        W56412  16.362  26.483  14.559
89872W        W56413  33.084  34.354  14.209
89873W        W56414  15.169  18.212   1.272
89874W        W56415  32.697  19.085  14.971
89875W        W56416  12.252  30.905  11.556
89876W        W56417  37.498  21.421   1.392
89877W        W56418  31.187   5.712  14.480
89878W        W56419   5.896   2.740  12.289
89879W        W56420   9.981  15.558  11.521
89880W        W56421  22.800  30.099   3.742
89881W        W56422  34.080  35.788  13.424
89882W        W56423  22.023  17.090   5.006
89883W        W56424   4.851   7.997   2.276
89884W        W56425  33.474  13.848  13.006
89885W        W56426  29.588  43.260  13.411
89886W        W56427   7.036  39.261  13.395
89887W        W56428  28.162  11.195   0.738
89888W        W56429  35.078  31.627  11.154
89889W        W56430  24.770  34.153   2.833
89890W        W56431  19.143  25.005  13.637
89891W        W56432  41.927   1.757   5.026
89892W        W56433  23.946   8.658   4.468
89893W        W56434  22.650  20.427   3.807
89894W        W56435   4.365  41.871  10.714
89895W        W56436  23.126  20.069  14.359
89896W        W56437  26.096  43.298   3.569
89897W        W56438  37.408  32.308  14.864
89898W        W56439  12.187   3.888  11.519
89899W        W56440  33.452  26.208   1.184
89900W        W56441   9.353  23.058  12.910
89901W        W56442   4.328  43.832   3.409
89902W        W56443  24.592  24.775  13.338
89903W        W56444  30.131  10.648   1.018
89904W        W56445  16.160  40.516  12.420
89905W        W56446  23.258   2.952   4.555
89906W        W56447  22.738  24.448  13.825
89907W        W56448  29.984  19.049   4.659
89908W        W56449   1.963  26.001   2.738
89909W        W56450  39.518  39.020   3.336
89910W        W56451  18.168  22.556   1.018
89911W        W56452   7.301  43.284   4.486
89912W        W56453  40.011  42.337   4.890
89913W        W56454  34.535   4.861  11.882
89914W        W56455  35.905  11.707   4.082
89915W        W56456  35.024  11.883  13.775
89916W        W56457  22.544  21.601  10.603
89917W        W56458   1.304  36.489  13.966
89918W        W56459   0.762   5.434  14.310
89919W        W56460   1.450  35.800   5.743
89920W        W56461   3.772  15.363  10.114
89921W        W56462  25.585  32.892  13.062
89922W        W56463  29.978  13.253   3.217
89923W        W56464  30.904  15.294  10.619
89924W        W56465  24.388   7.817  13.222
89925W        W56466   9.134  27.532   4.277
89926W        W56467  44.599  10.315   3.350
89927W        W56468  44.820  44.582   4.066
89928W        W56469  36.593  12.719   1.396
89929W        W56470  18.724  44.937   0.376
89930W        W56471  11.865  23.857  11.377
89931W        W56472  22.722  18.211  12.191
89932W        W56473  44.550  27.169  13.560
89933W        W56474  18.158   6.460   2.403
89934W        W56475  11.762  43.765   2.099
89935W        W56476  16.568   5.929   1.939
89936W        W56477  26.587  17.374   1.437
89937W        W56478   9.060  11.735   0.871
89938W        W56479  35.829  19.471  12.254
89939W        W56480  42.990   7.968  14.648
89940W        W56481  21.385  16.853  10.999
89941W        W56482  12.339  17.185   1.892
89942W        W56483  23.539  31.439  11.107
89943W        W56484  42.670  40.348   1.924
89944W        W56485  44.021  42.982   0.666
89945W        W56486  39.308  27.422  12.009
89946W        W56487   6.981  37.910  10.668
89947W        W56488  23.715  10.322   0.315
89948W        W56489   7.951  43.369  12.433
89949W        W56490   0.627   0.557   3.191
89950W        W56491  44.882  37.552   0.834
89951W        W56492  29.188  29.509   0.583
89952W        W56493  43.206  29.695  12.911
89953W        W56494  32.723  40.602   0.878
89954W        W56495  35.290   8.217  13.861
89955W        W56496  27.250  13.679  12.233
89956W        W56497  15.792   1.038  14.336
89957W        W56498  15.198   3.904  11.400
89958W        W56499  34.561  28.297  11.405
89959W        W56500  37.020  25.468   1.859
89960W        W56501   0.195  12.325  14.031
89961W        W56502   9.279  15.866   1.670
89962W        W56503  23.970  41.743   3.873
89963W        W56504  27.196  39.821   2.050
89964W        W56505  10.609  26.481   4.645
89965W        W56506   4.759  40.320   3.603
89966W        W56507  13.072  13.689   4.731
89967W        W56508  43.631  14.257  12.578
89968W        W56509   1.306   3.911   1.369
89969W        W56510   4.246  17.905  13.822
89970W        W56511   8.847   8.179  14.650
89971W        W56512  10.052   0.816   1.789
89972W        W56513  29.893   0.391   0.015
89973W        W56514  38.854  42.126  14.824
89974W        W56515  17.108   0.991  11.871
89975W        W56516  18.756   6.889  11.966
89976W        W56517   4.214   4.089   0.388
89977W        W56518   1.125  34.588   4.285
89978W        W56519  10.357  40.897  13.524
89979W        W56520  41.547  31.890   3.748
89980W        W56521   4.163   7.431   4.720
89981W        W56522  20.170  23.377   3.514
89982W        W56523  12.308  34.353  10.526
89983W        W56524  28.069  32.596  11.319
89984W        W56525  19.813  29.157   2.150
89985W        W56526   4.303  28.027  10.652
89986W        W56527  19.069  38.020   2.285
89987W        W56528  24.850  10.169  11.170
89988W        W56529  15.073  23.449   4.590
89989W        W56530  15.364  42.354  13.518
89990W        W56531  40.417  40.955  10.426
89991W        W56532  18.994  27.678   3.757
89992W        W56533  30.214  28.396   1.820
89993W        W56534   0.495  34.039  13.073
89994W        W56535  29.350  30.028   1.664
89995W        W56536  34.304   9.375  10.710
89996W        W56537   7.941  14.673  11.167
89997W        W56538  35.733  30.846   1.135
89998W        W56539  26.518  36.099  10.404
89999W        W56540  44.178  15.149  14.938
90000W        W56541  40.977  33.839   4.493
90001W        W56542  38.761  14.986   1.524
90002W        W56543  36.874  26.329  11.078
90003W        W56544  41.030  17.820   2.239
90004W        W56545  35.092   1.629   3.445
90005W        W56546  18.170  38.993  10.718
90006W        W56547  42.306  16.245   2.099
90007W        W56548  20.208  42.408  11.362
90008W        W56549   2.395  15.577  10.242
90009W        W56550   0.103  32.938   2.236
90010W        W56551   2.742  32.818   3.252
90011W        W56552  40.424  19.404  14.435
90012W        W56553  35.003  14.043   1.796
90013W        W56554  36.529  29.132   0.947
90014W        W56555  27.201  39.700   0.792
90015W        W56556  24.236  30.552   2.798
90016W        W56557  16.605  35.171  14.242
90017W        W56558  29.601  27.345   0.167
90018W        W56559  37.665  36.491  11.998
90019W        W56560  35.916   4.980   3.395
90020W        W56561  26.511  12.114  14.264
90021W        W56562  12.471  27.966  11.156
90022W        W56563   9.148   7.422   3.313
90023W        W56564  35.460  23.504   2.740
90024W        W56565  41.819  40.543   3.849
90025W        W56566  27.860  38.365  11.449
90026W        W56567  17.950  41.592   1.186
90027W        W56568  31.843  32.399  12.551
90028W        W56569  38.657  27.914  11.125
90029W        W56570  22.738  34.861   0.486
90030W        W56571  32.606  20.539  13.263
90031W        W56572  14.109  19.742  13.305
90032W        W56573   5.799  22.827  10.431
90033W        W56574   8.970  41.366  12.085
90034W        W56575  43.823  44.849  13.009
90035W        W56576  34.552  32.059   0.011
90036W        W56577   0.324  11.903   4.353
90037W        W56578  29.608  16.510  14.489
90038W        W56579  18.097  11.397   3.530
90039W        W56580   1.963   5.461   5.077
90040W        W56581  14.101   7.988   3.268
90041W        W56582   7.348  44.088   1.658
90042W        W56583  31.474  14.161   3.665
90043W        W56584  44.959  33.510  13.823
90044W        W56585   7.718  10.273  13.351
90045W        W56586   2.125   1.387  12.747
90046W        W56587  29.566  32.891  13.791
90047W        W56588   8.289   3.271   2.967
90048W        W56589  19.982  28.938   1.373
90049W        W56590  27.128  40.552   4.162
90050W        W56591  27.550  29.244   4.490
90051W        W56592  38.948   3.506  12.025
90052W        W56593  44.243  43.759   2.473
90053W        W56594  10.273  25.023   3.245
90054W        W56595  40.942   4.331  12.470
90055W        W56596  23.026  11.248  12.389
90056W        W56597  17.693   0.164   4.581
90057W        W56598  43.015  19.253  13.722
90058W        W56599  26.943  14.105  12.001
90059W        W56600  43.305  43.226   0.884
90060W        W56601  17.242   2.990   4.811
90061W        W56602  33.934  43.400   3.801
90062W        W56603  25.311  17.681   2.700
90063W        W56604  22.803  36.588   2.762
90064W        W56605  22.199  14.531  14.340
90065W        W56606  36.555  41.930  12.992
90066W        W56607  30.728   1.784  11.700
90067W        W56608  27.265  25.076  12.189
90068W        W56609   8.624  25.423  11.403
90069W        W56610   7.628  12.220   4.716
90070W        W56611  42.893  29.682   4.550
90071W        W56612   6.732  23.191  12.477
90072W        W56613  43.728  29.377  12.078
90073W        W56614   5.283   5.260  14.850
90074W        W56615  42.561   3.261  14.612
90075W        W56616  11.880  13.739  12.432
90076W        W56617  41.313  31.058   3.373
90077W        W56618  32.176  19.455   1.433
90078W        W56619  14.727  35.142   3.161
90079W        W56620  19.713  15.602  13.233
90080W        W56621  11.162  34.141   2.305
90081W        W56622   6.801  35.488  11.899
90082W        W56623   9.860  11.625   1.346
90083W        W56624  35.826  34.958   1.830
90084W        W56625  31.419  23.934  14.434
90085W        W56626  27.010   7.798   2.239
90086W        W56627  34.009  16.137   1.344
90087W        W56628   9.386   3.355   4.554
90088W        W56629  43.477   6.813  12.074
90089W        W56630  31.480  23.582   2.840
90090W        W56631  22.271  42.372   4.090
90091W        W56632  30.194  27.643   4.045
90092W        W56633  12.108   8.158  11.646
90093W        W56634  39.731  21.864  11.961
90094W        W56635  43.587  36.161  11.611
90095W        W56636   1.726   1.070   1.827
90096W        W56637   2.846  11.602   1.291
90097W        W56638  26.110  11.564  14.897
90098W        W56639  34.991   0.248   4.118
90099W        W56640  18.278   7.661  11.481
90100W        W56641  42.361  40.081  14.351
90101W        W56642  36.435  11.799  12.949
90102W        W56643  41.515   9.610   1.349
90103W        W56644  21.193  31.168   0.366
90104W        W56645  22.483  35.476   3.027
90105W        W56646   2.009   7.800  14.505
90106W        W56647  40.093  24.078   3.767
90107W        W56648  32.648  36.830   0.830
90108W        W56649  23.944   9.874   4.944
90109W        W56650   9.663  26.055  10.809
90110W        W56651  44.257  16.074  10.410
90111W        W56652   2.516  11.259  12.522
90112W        W56653  12.047   8.292   4.874
90113W        W56654  36.061  14.886  11.025
90114W        W56655  29.992  21.598   4.170
90115W        W56656  27.570  32.389   1.978
90116W        W56657   3.484   0.847   3.831
90117W        W56658  42.037  25.177   3.940
90118W        W56659  13.944   8.993   5.093
90119W        W56660   6.695  27.661  14.240
90120W        W56661  43.217   1.271   1.760
90121W        W56662  32.959  30.907  13.954
90122W        W56663   3.261  36.599   4.833
90123W        W56664  44.913  34.893   1.411
90124W        W56665  26.459  37.352  12.942
90125W        W56666  16.235  43.959  10.815
90126W        W56667  22.611   7.602  10.739
90127W        W56668  23.312  22.195  13.519
90128W        W56669   8.409   0.802  14.059
90129W        W56670  16.290   7.250   3.690
90130W        W56671   5.772   4.919   2.200
90131W        W56672  30.940  36.529   1.928
90132W        W56673   8.972  23.450  12.030
90133W        W56674  42.988  33.024   1.560
90134W        W56675  35.872  35.081   0.995
90135W        W56676   5.241  36.562  13.077
90136W        W56677  31.347   8.149  10.675
90137W        W56678  20.635   7.344   4.666
90138W        W56679  13.010  34.135  11.624
90139W        W56680  18.143   7.973   1.989
90140W        W56681  21.700  39.474  12.690
90141W        W56682  14.333  25.050   0.266
90142W        W56683  32.185  33.507  11.644
90143W        W56684  44.786  15.117  11.166
90144W        W56685  37.772   1.869   5.587
90145W        W56686  17.816  32.674  10.365
90146W        W56687  43.702  23.968   1.847
90147W        W56688  26.655   4.456  10.395
90148W        W56689  40.365   0.202   0.728
90149W        W56690  43.554  40.112   2.181
90150W        W56691   8.911   8.771  11.430
90151W        W56692   3.467  15.458  14.174
90152W        W56693  32.632  28.961  11.491
90153W        W56694  10.861  36.786  14.868
90154W        W56695   2.003  20.333   4.913
90155W        W56696  39.965  38.619   4.897
90156W        W56697  10.701  44.879   2.126
90157W        W56698   2.478  29.929  13.766
90158W        W56699  20.203  17.283   2.251
90159W        W56700  34.047  41.164  13.858
90160W        W56701  21.149  22.180   1.263
90161W        W56702  38.362  22.712  10.759
90162W        W56703   7.744  31.360   2.134
90163W        W56704  40.735  37.319  13.409
90164W        W56705  35.521   6.715   3.429
90165W        W56706  23.164  27.802  12.413
90166W        W56707   2.278   0.440   0.774
90167W        W56708  42.243   7.505  12.543
90168W        W56709   7.395  15.605   3.181
90169W        W56710   9.640  11.148  10.750
90170W        W56711  11.988  14.768  14.440
90171W        W56712   5.314  29.125   2.226
90172W        W56713   7.845   7.126  12.980
90173W        W56714  42.920  16.279  10.774
90174W        W56715  37.067  22.548   2.911
90175W        W56716  25.073  23.077  13.476
90176W        W56717  28.556  17.358  13.567
90177W        W56718   7.910  38.294   2.690
90178W        W56719  39.450   0.446   0.856
90179W        W56720  35.464   8.870  14.680
90180W        W56721   9.197  15.773   0.772
90181W        W56722  41.343  23.126   0.506
90182W        W56723   0.281  42.362  12.059
90183W        W56724  38.903  35.842   3.132
90184W        W56725  29.042  23.396   4.150
90185W        W56726  30.885  35.810   9.870
90186W        W56727  23.985  36.853   1.740
90187W        W56728  30.457   2.797  10.721
90188W        W56729  25.772   2.870   1.942
90189W        W56730   4.269  13.954   0.135
90190W        W56731   3.094  14.323   1.570
90191W        W56732  22.176   7.975   0.430
90192W        W56733  20.819  22.217  11.461
90193W        W56734  13.264  32.464   4.504
90194W        W56735  14.677  25.219  11.845
90195W        W56736  13.027  26.546   4.979
90196W        W56737  26.801  43.863  12.033
90197W        W56738   7.094  34.948  13.049
90198W        W56739   7.682   0.161  12.065
90199W        W56740   9.487  26.459   3.799
90200W        W56741  11.678   7.865   1.258
90201W        W56742  26.520  26.223  14.098
90202W        W56743  40.271  39.451   2.341
90203W        W56744  17.832  35.974   0.425
90204W        W56745  24.122  37.957  11.531
90205W        W56746  26.433  41.954  11.493
90206W        W56747  34.354  28.039   2.803
90207W        W56748  40.451  43.528  14.978
90208W        W56749  17.219  42.593   1.931
90209W        W56750  44.618  36.599   2.797
90210W        W56751   5.179  37.913  11.227
90211W        W56752   6.793   5.955  11.534
90212W        W56753  43.477   8.434   4.048
90213W        W56754  28.385  16.825   0.851
90214W        W56755  23.047  42.623  13.038
90215W        W56756  37.350  38.946   3.228
90216W        W56757  41.264   2.408   3.217
90217W        W56758  29.535  38.237   0.855
90218W        W56759  43.117  40.856  11.344
90219W        W56760   4.726  15.645   1.896
90220W        W56761  30.420  26.442  13.625
90221W        W56762  37.939  36.475   3.617
90222W        W56763  15.828  38.746   5.148
90223W        W56764  37.085   8.723   4.226
90224W        W56765  30.914  14.642   1.202
90225W        W56766  10.780  17.731  13.138
90226W        W56767  28.032  43.533  11.087
90227W        W56768   1.956  21.145   4.521
90228W        W56769  36.849  42.534   4.165
90229W        W56770  38.550  18.511   3.205
90230W        W56771  20.406  16.843   1.742
90231W        W56772  26.115  34.371   1.378
90232W        W56773  16.767  21.768   3.252
90233W        W56774  26.646   3.845   4.592
90234W        W56775  39.367  38.037   2.759
90235W        W56776  12.051  31.037  10.077
90236W        W56777  25.108  14.631  14.547
90237W        W56778  15.341  30.592  12.193
90238W        W56779   8.212  28.489   0.415
90239W        W56780  29.751  28.113  12.360
90240W        W56781  34.433  11.721  12.046
90241W        W56782  25.472   5.803  12.876
90242W        W56783  38.431  40.222   0.505
90243W        W56784  13.112  10.716   2.220
90244W        W56785  34.192  22.882  10.488
90245W        W56786   0.996  44.806  13.130
90246W        W56787  28.975  32.033   2.590
90247W        W56788  34.734  44.529  11.162
90248W        W56789   9.216  19.576   4.506
90249W        W56790  30.769  39.978  12.049
90250W        W56791   2.496   9.779  11.850
90251W        W56792  36.785   8.715  11.033
90252W        W56793  38.581   2.249   0.485
90253W        W56794  31.423  29.551  14.540
90254W        W56795   8.816  15.590  13.991
90255W        W56796  36.935  12.881  10.396
90256W        W56797   8.461  44.289   3.961
90257W        W56798   6.441  24.163   4.098
90258W        W56799  19.113  30.200   1.011
90259W        W56800  15.361  40.518   0.759
90260W        W56801  38.498  14.344  12.734
90261W        W56802  25.650  40.256   4.760
90262W        W56803  34.718   7.283  12.608
90263W        W56804  29.784  29.199  11.602
90264W        W56805  20.715  44.438  12.552
90265W        W56806  22.431   1.662   2.662
90266W        W56807   3.365  12.719  11.098
90267W        W56808  28.968  17.513  11.163
90268W        W56809  34.363  20.250  14.894
90269W        W56810   6.082  23.987   5.343
90270W        W56811  40.981  12.429  10.747
90271W        W56812  20.553  27.198   2.277
90272W        W56813  35.838  26.923  12.816
90273W        W56814   8.664  18.581  11.912
90274W        W56815  27.349  34.621   5.044
90275W        W56816   5.209  14.804   2.576
90276W        W56817  15.353  28.065  14.329
90277W        W56818   0.348   0.751  11.222
90278W        W56819   8.172  28.357   3.749
90279W        W56820   4.738  44.366   0.753
90280W        W56821   6.316   5.515  12.635
90281W        W56822  37.087  26.525   4.456
90282W        W56823   6.989  29.672   0.992
90283W        W56824  22.026  38.074   3.282
90284W        W56825  30.426  40.453   2.858
90285W        W56826  11.692  34.371  11.057
90286W        W56827  32.381  12.793   0.354
90287W        W56828  30.795  30.690   1.951
90288W        W56829  11.415   3.750  12.525
90289W        W56830  31.522  28.896  13.220
90290W        W56831  34.530   1.159   1.476
90291W        W56832  28.075  24.469  12.479
90292W        W56833  23.990  11.386   4.371
90293W        W56834  31.744   4.234   3.858
90294W        W56835  38.679  38.911   4.665
90295W        W56836  38.031  16.258  12.006
90296W        W56837  13.664   6.765   2.370
90297W        W56838  36.848  29.877   3.151
90298W        W56839  42.866  10.770  14.576
90299W        W56840  20.473  31.369  12.967
90300W        W56841   2.182  26.077   3.203
90301W        W56842  19.283  15.158  10.730
90302W        W56843  44.558  26.273  14.360
90303W        W56844  12.912  35.600  12.852
90304W        W56845  23.756  20.998   0.338
90305W        W56846  44.963  30.060   4.894
90306W        W56847  34.532  42.849  11.984
90307W        W56848  31.866  24.245  10.951
90308W        W56849  17.723  43.810   3.069
90309W        W56850  14.267  10.785  12.790
90310W        W56851  17.174  29.686  14.992
90311W        W56852  28.610  31.408  14.997
90312W        W56853  39.323   2.419  13.057
90313W        W56854  33.676  10.800   2.310
90314W        W56855  13.669  21.491  14.285
90315W        W56856  44.095  23.511   4.581
90316W        W56857  27.063  14.356   1.766
90317W        W56858   8.612   1.811   0.015
90318W        W56859  28.054  22.301   0.955
90319W        W56860  14.555   5.884  12.596
90320W        W56861   0.921   7.441   4.104
90321W        W56862  22.529  39.562   2.112
90322W        W56863  32.526  11.649   3.657
90323W        W56864  37.633  34.407  13.265
90324W        W56865  12.881   7.403  10.980
90325W        W56866   0.089  29.513  14.246
90326W        W56867   3.377  23.006  11.477
90327W        W56868  33.582   9.899   2.376
90328W        W56869   4.684  26.618  14.945
90329W        W56870  43.922   0.961   2.674
90330W        W56871  31.724  10.103  14.491
90331W        W56872  43.006   5.901  12.874
90332W        W56873   2.923  13.733   0.431
90333W        W56874  17.026  18.190   2.216
90334W        W56875  44.795  32.220  14.377
90335W        W56876  41.532  32.133   1.379
90336W        W56877  28.592  42.247  10.924
90337W        W56878  25.854   7.750  10.259
90338W        W56879   1.406  38.951   1.930
90339W        W56880  28.671  40.327   3.244
90340W        W56881  39.745  17.551  11.154
90341W        W56882  17.296  29.718   1.811
90342W        W56883  25.804   1.229   4.622
90343W        W56884   6.708  27.160   4.626
90344W        W56885   3.825   5.888   0.295
90345W        W56886   4.837  30.682   0.858
90346W        W56887  26.611  34.102   3.315
90347W        W56888  24.906   2.700   0.945
90348W        W56889  27.904  43.857   1.854
90349W        W56890  18.162  27.079  12.191
90350W        W56891  25.207  29.413   1.386
90351W        W56892  23.093  44.516  10.790
90352W        W56893  13.589  31.831   1.209
90353W        W56894  31.924   0.331  11.314
90354W        W56895  40.781  17.264  10.734
90355W        W56896  22.296  31.185   0.340
90356W        W56897  43.405  16.122   2.973
90357W        W56898  28.748   4.154   4.077
90358W        W56899  24.010   7.430  14.958
90359W        W56900   1.829  34.568   0.757
90360W        W56901  16.699  13.523  14.291
90361W        W56902  11.032  16.840  13.372
90362W        W56903  18.246  27.073   1.435
90363W        W56904   3.918  41.186   3.767
90364W        W56905  31.176  28.071   4.582
90365W        W56906  14.776   6.329  12.503
90366W        W56907   5.561   9.844  12.794
90367W        W56908  19.610   3.496   1.658
90368W        W56909  37.774  38.051   4.537
90369W        W56910  18.245  37.487  10.730
90370W        W56911  27.700  27.401  11.129
90371W        W56912  30.591   0.687  14.940
90372W        W56913  14.811  42.698  10.253
90373W        W56914  30.552  10.751   9.736
90374W        W56915   1.454  32.856   0.787
90375W        W56916  44.141  39.360  11.408
90376W        W56917  39.040  25.531  12.777
90377W        W56918  11.810  13.717  11.442
90378W        W56919   9.838  39.645   0.144
90379W        W56920   8.053  21.522   3.305
90380W        W56921  23.198   2.380  10.589
90381W        W56922  38.591  18.314   0.956
90382W        W56923  10.341  35.562  13.960
90383W        W56924  14.893  23.986   3.779
90384W        W56925  32.055  33.131  10.556
90385W        W56926   8.474  39.786  11.241
90386W        W56927  24.701  28.701  10.696
90387W        W56928   5.887  18.149  13.163
90388W        W56929  22.321  40.359   1.393
90389W        W56930  29.032  11.285  11.262
90390W        W56931   3.886  39.108  11.029
90391W        W56932  42.565  35.935  10.672
90392W        W56933   6.227  28.014   1.826
90393W        W56934  42.360  15.563   4.632
90394W        W56935  10.057   7.729   0.283
90395W        W56936  32.681  35.926  12.390
90396W        W56937  40.553  43.862  14.241
90397W        W56938   1.398   7.642  12.563
90398W        W56939   3.399  36.782   2.912
90399W        W56940  24.261  34.719  14.544
90400W        W56941  44.633  32.201   2.771
90401W        W56942  32.499  12.431   0.735
90402W        W56943   7.721   7.194   0.950
90403W        W56944  35.943  43.060   4.793
90404W        W56945  11.163  26.621   0.903
90405W        W56946  41.339  28.200   4.148
90406W        W56947  41.804  38.995  14.416
90407W        W56948  29.425   3.800  12.936
90408W        W56949   4.092  35.599   3.969
90409W        W56950  17.308   3.957  11.222
90410W        W56951  31.642   7.946  15.000
90411W        W56952  19.404  26.034  12.169
90412W        W56953   4.253  42.886  12.450
90413W        W56954  17.947  33.443  13.748
90414W        W56955  13.707  29.407   3.223
90415W        W56956  15.118  37.647  13.003
90416W        W56957  35.282   7.238  14.603
90417W        W56958  38.774  41.314  10.957
90418W        W56959  21.563  18.201  14.561
90419W        W56960  44.809  37.434  10.888
90420W        W56961   7.968  22.472   4.131
90421W        W56962  14.701  11.589   2.274
90422W        W56963  35.915  42.010  14.948
90423W        W56964  39.300  28.907   3.151
90424W        W56965  33.356   8.678  12.086
90425W        W56966  31.472  34.726   3.682
90426W        W56967  18.091  37.576  11.208
90427W        W56968  39.954   3.846   1.319
90428W        W56969  23.602   1.838   4.003
90429W        W56970  22.057  24.759   1.395
90430W        W56971  44.276  42.099   1.685
90431W        W56972  26.587  18.940  13.261
90432W        W56973  17.992   6.667  12.032
90433W        W56974   0.894  11.299   1.552
90434W        W56975   6.391  23.917  13.467
90435W        W56976  31.383  24.970  14.324
90436W        W56977   1.366   8.076  13.891
90437W        W56978   8.265  21.587   3.809
90438W        W56979   5.481  32.575   3.523
90439W        W56980  24.969   1.898   3.101
90440W        W56981  19.574   9.607  12.826
90441W        W56982  18.883  40.054   2.441
90442W        W56983  39.885  13.893   2.798
90443W        W56984  20.345  13.272   3.702
90444W        W56985  17.189  29.371  11.595
90445W        W56986  28.476  40.104  11.972
90446W        W56987  28.953  31.516  13.307
90447W        W56988  44.309  13.657   4.345
90448W        W56989  34.954  44.283   1.682
90449W        W56990  16.632   0.867  11.168
90450W        W56991  10.760   9.703   1.905
90451W        W56992  25.171   9.373   2.174
90452W        W56993  26.911   5.657   2.270
90453W        W56994   1.820  39.395  14.955
90454W        W56995  12.714  31.503  11.136
90455W        W56996   7.654  43.258   1.351
90456W        W56997   0.693   4.991  11.547
90457W        W56998  28.356  10.188  13.456
90458W        W56999  16.004   7.298  12.540
90459W        W57000  33.852   9.480  10.942
90460W        W57001  10.236   5.618  10.760
90461W        W57002  15.667  16.585   2.590
90462W        W57003  12.376  18.739  13.923
90463W        W57004   8.147  32.395  10.788
90464W        W57005  36.491   2.889  11.206
90465W        W57006  43.631  43.677  13.527
90466W        W57007  37.557  24.669   0.156
90467W        W57008  24.632  24.791  14.505
90468W        W57009  17.105  26.249  10.985
90469W        W57010  17.820  26.204   2.914
90470W        W57011  38.990  34.870  11.611
90471W        W57012  14.240  40.512  14.814
90472W        W57013   7.806  22.254  10.671
90473W        W57014  22.021  24.282   4.432
90474W        W57015   5.619  44.884  14.853
90475W        W57016  10.188  23.096  11.924
90476W        W57017   4.562  30.666  10.454
90477W        W57018  38.987  30.270   0.487
90478W        W57019  23.600  12.843  12.509
90479W        W57020  43.579  41.779  14.132
90480W        W57021  13.711  23.012  10.674
90481W        W57022   9.462  20.475  10.799
90482W        W57023  17.932  16.220   4.105
90483W        W57024  13.131  20.512  13.328
90484W        W57025  24.799  41.998   1.629
90485W        W57026  17.172  24.226   1.201
90486W        W57027  13.278  42.313   3.808
90487W        W57028   1.188  19.211  14.251
90488W        W57029  31.180  17.110  13.378
90489W        W57030  34.166  23.921  14.474
90490W        W57031  28.688  41.548   3.177
90491W        W57032  31.919   4.714   2.187
90492W        W57033  15.795  17.598  10.428
90493W        W57034  35.940  27.395   2.380
90494W        W57035  19.235  11.244   4.062
90495W        W57036  21.724   3.829  14.372
90496W        W57037  12.983  44.620  14.369
90497W        W57038  44.526  29.884   4.645
90498W        W57039  34.575   8.684   3.660
90499W        W57040  40.304  25.102   4.749
90500W        W57041  44.175  20.686   4.078
90501W        W57042  38.962  31.120   0.376
90502W        W57043  43.320  34.909  12.529
90503W        W57044   7.851  25.299   4.927
90504W        W57045  24.033   8.301  13.466
90505W        W57046  18.708  26.031   4.277
90506W        W57047  36.636  44.370  13.758
90507W        W57048  28.615  11.880   0.408
90508W        W57049  36.103  30.588   4.373
90509W        W57050  12.893   9.318  11.986
90510W        W57051   9.300  17.739  14.072
90511W        W57052  30.411   4.581   2.171
90512W        W57053  24.048   2.962  14.979
90513W        W57054  42.009  42.363  11.969
90514W        W57055  17.472  40.603  12.648
90515W        W57056  31.159  36.246   3.201
90516W        W57057  43.664  39.543  11.211
90517W        W57058   4.121  24.212  11.969
90518W        W57059  34.679  33.527  12.190
90519W        W57060  22.299  12.753   1.370
90520W        W57061  19.302  24.704  12.090
90521W        W57062   8.198  22.582  10.608
90522W        W57063  20.995  22.409  11.926
90523W        W57064  17.620  33.967  11.994
90524W        W57065   3.930  20.946   0.581
90525W        W57066   7.354  34.366   3.625
90526W        W57067  31.524  11.662  11.657
90527W        W57068   8.636  14.165   2.299
90528W        W57069  31.740  39.180  12.549
90529W        W57070  16.999  14.105  11.513
90530W        W57071   7.978  29.663   2.266
90531W        W57072  41.022  36.504   2.296
90532W        W57073   4.758  27.030   0.512
90533W        W57074  29.594  25.420   3.692
90534W        W57075   0.948  17.701   0.239
90535W        W57076  16.590   0.702   1.819
90536W        W57077  36.441  12.315   4.383
90537W        W57078  44.114  35.747   4.838
90538W        W57079  24.613  21.725  14.449
90539W        W57080  30.495   8.381  14.334
90540W        W57081  18.531  28.974  11.569
90541W        W57082  42.007   3.451   0.782
90542W        W57083  16.957  16.646  13.539
90543W        W57084  26.999  31.011  12.958
90544W        W57085  20.452  37.371   2.213
90545W        W57086  32.954  32.240   2.780
90546W        W57087  25.102  15.692  11.643
90547W        W57088  44.114   4.204   2.331
90548W        W57089  41.738  30.773  14.416
90549W        W57090   0.875  37.078   2.959
90550W        W57091   5.912  42.240  13.487
90551W        W57092   5.486  39.049  13.883
90552W        W57093  42.756  33.793   0.827
90553W        W57094  15.393  30.169  14.732
90554W        W57095  42.507  32.998   2.465
90555W        W57096  30.421   8.716  10.827
90556W        W57097  37.269  12.189  11.985
90557W        W57098   2.724  36.928   0.966
90558W        W57099   2.254  25.601  10.288
90559W        W57100  39.880   1.447   3.170
90560W        W57101   6.331   2.511  13.263
90561W        W57102   3.876  13.767   0.452
90562W        W57103  26.133  41.844  10.690
90563W        W57104  36.927  17.383  12.541
90564W        W57105  17.494  42.064   3.781
90565W        W57106  29.914  11.581   3.207
90566W        W57107   9.611   9.126   2.123
90567W        W57108  32.833   3.339  14.437
90568W        W57109  21.807  19.512   0.711
90569W        W57110   0.271   5.329  11.601
90570W        W57111  35.311  17.356   3.174
90571W        W57112  15.700   5.936  13.432
90572W        W57113   9.651   9.035  12.080
90573W        W57114  44.932  25.234  13.313
90574W        W57115  20.732  16.119   1.793
90575W        W57116  32.354  31.138  11.184
90576W        W57117  29.681  28.949  10.998
90577W        W57118  17.189   6.336  14.482
90578W        W57119  15.824   8.817   3.267
90579W        W57120  11.634  20.338  13.964
90580W        W57121   9.016   5.809   2.356
90581W        W57122  12.338  28.199  11.581
90582W        W57123  15.699  24.470  14.126
90583W        W57124  13.323  25.166  12.537
90584W        W57125  20.966   1.491  12.963
90585W        W57126  22.510  10.098   3.357
90586W        W57127  17.607   4.704  14.992
90587W        W57128   8.350  21.467  11.128
90588W        W57129   3.760  42.018   1.713
90589W        W57130  40.436  34.370  14.473
90590W        W57131  14.382  22.218  13.426
90591W        W57132  24.164  26.988   3.535
90592W        W57133  26.593   5.616   1.874
90593W        W57134  20.581  38.698  13.540
90594W        W57135  43.585  16.388  13.031
90595W        W57136  27.140  33.243  11.720
90596W        W57137  28.090  29.219  11.584
90597W        W57138  37.954  21.275  11.581
90598W        W57139  21.558   0.444  11.355
90599W        W57140  18.099  20.829   4.688
90600W        W57141   9.476  31.433  14.865
90601W        W57142  15.348  29.420   0.712
90602W        W57143  17.754  33.179  10.285
90603W        W57144  42.605   0.912   2.741
90604W        W57145  33.186   1.285   2.251
90605W        W57146   3.263  11.714  10.358
90606W        W57147  11.650   4.771   0.726
90607W        W57148  35.411  18.679   2.750
90608W        W57149  26.159  16.003  14.461
90609W        W57150  37.888  18.322   2.334
90610W        W57151  39.175  20.620  10.757
90611W        W57152  22.526  11.561   3.128
90612W        W57153   4.144  34.908  13.944
90613W        W57154  30.558   1.872   1.345
90614W        W57155  29.216   8.771   4.560
90615W        W57156  42.477  26.818   3.723
90616W        W57157   4.022  39.591  10.970
90617W        W57158   5.208  37.180  13.764
90618W        W57159   7.258  20.179  13.780
90619W        W57160  27.045  12.537  12.621
90620W        W57161  10.797  29.474  12.415
90621W        W57162   4.599  25.950   3.494
90622W        W57163   4.234   7.940  14.897
90623W        W57164  37.540  15.204   2.122
90624W        W57165   6.176  16.600   3.822
90625W        W57166  12.467  23.635  12.525
90626W        W57167  13.156  30.633   5.071
90627W        W57168  16.270  26.069  10.961
90628W        W57169  26.627  17.110  12.576
90629W        W57170  19.551  41.925  13.808
90630W        W57171  43.749   0.930  13.463
90631W        W57172   1.317  18.817  14.573
90632W        W57173  27.226  17.760   1.816
90633W        W57174  12.432  44.003  14.897
90634W        W57175  11.140  19.509   4.507
90635W        W57176   6.692  16.691   4.683
90636W        W57177   1.925  40.538   1.783
90637W        W57178  12.945  23.301  13.893
90638W        W57179  11.959   6.437  12.000
90639W        W57180  34.180  16.682  10.970
90640W        W57181  12.809   2.127   2.427
90641W        W57182   4.852   6.153  13.044
90642W        W57183  44.952  29.016  14.129
90643W        W57184  16.152  40.526   4.316
90644W        W57185  16.728   5.925   2.847
90645W        W57186   9.317  37.040   2.601
90646W        W57187   2.220  37.625   2.053
90647W        W57188  12.337  41.179   0.870
90648W        W57189  38.483   1.215   3.327
90649W        W57190  30.433  43.113  12.440
90650W        W57191  36.263  21.724  10.976
90651W        W57192  42.910  39.549   2.753
90652W        W57193   1.229  37.213   0.683
90653W        W57194  25.074   4.926   2.888
90654W        W57195  29.953   0.782   2.736
90655W        W57196  36.516   7.696   0.007
90656W        W57197  38.478  25.689   3.217
90657W        W57198  34.647   4.147   5.301
90658W        W57199  40.940   7.850   0.415
90659W        W57200  27.936  19.814  11.505
90660W        W57201  12.071  16.310   3.598
90661W        W57202  26.753  37.506   4.536
90662W        W57203  16.297  34.215   2.238
90663W        W57204  21.192  39.739  11.146
90664W        W57205  17.815  19.771   4.720
90665W        W57206   4.922  34.037   3.595
90666W        W57207   4.886  13.371   4.769
90667W        W57208  33.870  43.952  12.964
90668W        W57209   3.150  18.758   2.622
90669W        W57210  35.507  41.921   1.396
90670W        W57211  24.466  31.447  13.938
90671W        W57212  42.705  26.581  10.149
90672W        W57213   1.821  31.329   3.544
90673W        W57214  20.815  32.408  13.874
90674W        W57215  44.502  26.213  11.044
90675W        W57216  15.386  23.796   4.329
90676W        W57217  41.649  20.607   2.641
90677W        W57218  25.289  31.941  14.872
90678W        W57219  26.198  43.791  13.436
90679W        W57220  21.548  32.799   2.948
90680W        W57221  29.452  16.596   1.799
90681W        W57222  43.479  29.877   2.260
90682W        W57223   8.345   7.314  12.776
90683W        W57224  15.394  20.827   2.175
90684W        W57225  34.890   4.687   0.661
90685W        W57226  30.593  19.537   1.682
90686W        W57227  44.002   0.843  11.330
90687W        W57228  18.076  38.019   1.223
90688W        W57229  30.603  32.947  12.478
90689W        W57230  18.288  41.300  14.796
90690W        W57231   3.702   6.218   0.772
90691W        W57232  44.241  31.001  10.625
90692W        W57233   8.261  39.931   3.236
90693W        W57234  12.213  35.691   2.171
90694W        W57235  26.694  27.601  12.871
90695W        W57236  39.957   0.282  12.903
90696W        W57237  38.313  27.197   3.437
90697W        W57238  44.573  34.052  10.253
90698W        W57239  39.994  15.086  13.812
90699W        W57240  27.710  18.680   3.481
90700W        W57241   7.142  16.712  13.808
90701W        W57242  38.496   3.459  11.110
90702W        W57243  44.351  14.184   0.192
90703W        W57244  31.586  18.818  14.495
90704W        W57245  13.029  14.166   2.247
90705W        W57246  30.646  34.505   4.246
90706W        W57247   6.931  38.730   0.648
90707W        W57248   4.249  11.667   3.898
90708W        W57249  16.226  23.156   1.521
90709W        W57250  20.676  30.120  12.671
90710W        W57251   4.426  35.277  14.749
90711W        W57252   1.448  38.334   1.155
90712W        W57253  12.864  20.976   3.901
90713W        W57254  15.608  10.984  12.549
90714W        W57255   7.748  17.592   4.734
90715W        W57256  10.911  13.887  14.407
90716W        W57257   4.059   7.678  12.067
90717W        W57258  37.925  28.225   1.373
90718W        W57259  40.047  26.861  10.828
90719W        W57260   0.278  23.048   2.115
90720W        W57261  26.100  22.185   4.239
90721W        W57262  21.735  36.569   0.437
90722W        W57263  37.614  35.331  11.430
90723W        W57264  20.186   8.639   4.170
90724W        W57265  15.292  25.620  14.338
90725W        W57266  35.812   9.450  12.624
90726W        W57267   5.169  43.465  13.383
90727W        W57268  20.018   3.884   0.711
90728W        W57269  39.839  38.059   0.356
90729W        W57270  39.924   4.454  13.752
90730W        W57271   1.404  37.811   3.459
90731W        W57272  20.140  14.775   3.381
90732W        W57273  35.416  13.155   1.823
90733W        W57274  35.014  11.779  14.312
90734W        W57275  25.381  24.975  12.496
90735W        W57276   9.378  29.910  12.372
90736W        W57277  30.085  43.314   0.472
90737W        W57278  28.865  40.933   4.310
90738W        W57279   2.216  35.129  11.140
90739W        W57280  42.414  34.247   1.576
90740W        W57281   5.695  40.299  12.561
90741W        W57282   6.187  40.976  12.734
90742W        W57283   6.328  40.520   0.881
90743W        W57284  20.295  43.362   2.210
90744W        W57285  20.703  41.436  13.495
90745W        W57286  44.210  21.566   3.517
90746W        W57287  13.778  17.791   2.901
90747W        W57288  27.694  28.373   2.387
90748W        W57289  19.141  25.965  10.848
90749W        W57290   9.244  32.332   2.473
90750W        W57291  28.499  35.150   1.184
90751W        W57292  27.912  38.537   1.180
90752W        W57293   6.897  39.262   0.705
90753W        W57294   9.762  41.302  11.506
90754W        W57295  19.156  12.622  11.909
90755W        W57296  13.699  12.010  11.271
90756W        W57297  21.221  33.168  12.205
90757W        W57298   9.572  29.314   0.541
90758W        W57299  19.129  13.598  12.617
90759W        W57300  43.202  26.343   1.202
90760W        W57301  32.041  26.163   4.114
90761W        W57302  25.525  44.835   3.727
90762W        W57303   6.148  42.125   4.543
90763W        W57304  43.903  28.808  11.590
90764W        W57305  30.342  21.989   4.072
90765W        W57306  26.039  39.828  12.082
90766W        W57307  31.431   0.087   2.197
90767W        W57308  34.645  35.971   0.452
90768W        W57309  42.009  34.282  11.175
90769W        W57310  25.775   3.779  14.319
90770W        W57311  15.306  29.185   4.116
90771W        W57312  34.926  43.841   3.760
90772W        W57313   4.714   6.230   2.713
90773W        W57314  32.938  27.408  11.681
90774W        W57315  44.993   8.082   2.366
90775W        W57316  33.595  23.235   3.351
90776W        W57317  29.658   7.633   3.166
90777W        W57318  15.888   2.114  13.344
90778W        W57319  38.060   2.782  12.488
90779W        W57320  21.159  43.384   0.347
90780W        W57321  31.044   1.379  12.421
90781W        W57322  33.498   5.803   4.428
90782W        W57323  25.769  19.742  12.237
90783W        W57324  14.795  35.948  11.433
90784W        W57325   8.715   3.138   0.963
90785W        W57326  15.953  16.692   4.716
90786W        W57327  21.794  40.459  12.430
90787W        W57328  26.034  34.508   3.431
90788W        W57329  21.988  31.912  12.910
90789W        W57330  20.257  10.661  13.291
90790W        W57331  44.041  31.075  13.491
90791W        W57332   5.380   5.102  13.996
90792W        W57333  32.077  39.450  13.778
90793W        W57334  13.381  10.471   0.466
90794W        W57335  12.654  39.831   2.283
90795W        W57336  26.346   1.510   1.910
90796W        W57337  40.461  37.505   1.165
90797W        W57338  33.617   1.797  14.891
90798W        W57339  27.475  28.160   1.426
90799W        W57340  36.894  35.317  12.127
90800W        W57341  28.213  31.589   0.282
90801W        W57342  23.726   0.518   4.197
90802W        W57343  42.598  42.525  10.415
90803W        W57344  31.427   1.073   2.555
90804W        W57345   9.237  24.935  12.016
90805W        W57346  17.603   1.591  12.971
90806W        W57347  44.380  34.962   0.070
90807W        W57348   3.915  15.238  14.350
90808W        W57349  32.126   5.189   0.238
90809W        W57350  22.104  22.288  14.333
90810W        W57351  20.434   2.680   4.294
90811W        W57352  34.341  36.908  14.892
90812W        W57353  26.185   1.520   3.291
90813W        W57354   1.308  30.613   2.362
90814W        W57355   1.218  41.101  14.874
90815W        W57356  29.970  12.927   1.893
90816W        W57357   1.412  29.580  11.546
90817W        W57358  30.083  14.278   3.487
90818W        W57359  18.109  44.113  11.527
90819W        W57360  13.743  41.555  14.341
90820W        W57361   0.826  39.820  10.711
90821W        W57362  44.017  27.034  11.303
90822W        W57363   1.894  34.096   0.907
90823W        W57364  28.168   4.515   2.853
90824W        W57365  44.628  40.197  14.969
90825W        W57366   8.819   1.181   2.447
90826W        W57367  30.490  15.153  12.185
90827W        W57368  15.594  36.866  14.251
90828W        W57369  31.563  12.824  13.829
90829W        W57370   8.849  15.883  14.421
90830W        W57371  26.156  37.007  11.258
90831W        W57372   0.598  42.627   0.706
90832W        W57373  36.030  21.071   2.739
90833W        W57374  18.769  18.085   3.189
90834W        W57375  30.629  21.992   3.662
90835W        W57376  35.369  43.942  14.372
90836W        W57377  25.614  15.300   1.059
90837W        W57378  19.490  30.381  12.101
90838W        W57379  21.839  43.040  11.264
90839W        W57380  29.395  34.834  13.768
90840W        W57381   9.426  13.965   0.328
90841W        W57382  30.889  23.420  12.551
90842W        W57383  33.928  15.859   1.758
90843W        W57384  36.515  35.026   9.858
90844W        W57385   2.510   8.549   2.867
90845W        W57386  34.155  36.739  13.313
90846W        W57387  23.252  36.562  10.953
90847W        W57388  10.232  39.457  11.277
90848W        W57389  37.027  39.382  11.647
90849W        W57390  42.491  33.169   4.091
90850W        W57391  16.325   2.838  10.941
90851W        W57392  14.583   6.276   3.301
90852W        W57393   5.708  19.548  11.816
90853W        W57394   0.351  31.883   1.784
90854W        W57395   4.863   6.183   3.630
90855W        W57396  32.214  38.667  13.040
90856W        W57397  20.531  13.664   2.136
90857W        W57398  38.318  14.517  12.185
90858W        W57399  24.801  24.733   4.082
90859W        W57400  13.173  13.369  12.063
90860W        W57401  41.807  19.108   3.572
90861W        W57402  19.723   8.801   4.345
90862W        W57403  29.794  31.619  14.490
90863W        W57404  33.102  20.276   0.145
90864W        W57405  13.405  13.225  12.506
90865W        W57406  16.063  33.407  13.957
90866W        W57407  37.241  37.412   4.420
90867W        W57408   7.928  24.519   4.143
90868W        W57409  37.137  33.332  12.182
90869W        W57410  18.782  39.615  14.231
90870W        W57411  13.779  12.507   0.728
90871W        W57412  21.274  24.775  13.404
90872W        W57413  11.327  37.147  10.325
90873W        W57414  30.562   6.111  13.596
90874W        W57415  10.893  24.054  11.025
90875W        W57416  21.695  12.058   4.507
90876W        W57417  18.263  31.506   0.954
90877W        W57418   1.497  25.523  13.858
90878W        W57419  44.091  38.897  12.447
90879W        W57420  38.022  41.997  12.559
90880W        W57421  27.098  34.123  11.594
90881W        W57422  25.599  38.224  14.531
90882W        W57423  39.837   8.093   2.337
90883W        W57424  18.535  33.056   1.072
90884W        W57425   4.926  27.531   1.887
90885W        W57426  28.155  39.248   0.859
90886W        W57427  43.501  31.569  12.012
90887W        W57428  18.537  42.917   4.024
90888W        W57429  24.033  26.005  12.498
90889W        W57430  11.121  30.071   4.254
90890W        W57431   8.403   0.107  12.498
90891W        W57432  44.805  16.216   4.931
90892W        W57433  11.799  36.217  12.200
90893W        W57434  39.082  21.180   2.324
90894W        W57435  44.532  14.577  13.795
90895W        W57436   2.005  27.536  11.668
90896W        W57437   7.331  30.872  12.850
90897W        W57438   4.252   2.281   2.247
90898W        W57439  13.720  36.307   3.726
90899W        W57440  33.599  33.161  12.658
90900W        W57441  38.138  17.764  12.089
90901W        W57442   9.415  25.644   3.296
90902W        W57443  11.892   6.193  12.917
90903W        W57444  31.400  18.307   3.843
90904W        W57445  41.928  35.672  11.955
90905W        W57446  24.443  33.296  11.666
90906W        W57447  21.621  44.035  10.965
90907W        W57448   9.005  21.072   5.014
90908W        W57449   1.410  18.298   2.407
90909W        W57450  12.859  22.616  13.372
90910W        W57451  14.672  18.054  11.552
90911W        W57452  33.856  16.257  12.191
90912W        W57453  28.691  21.935  11.432
90913W        W57454  33.670   3.348  13.797
90914W        W57455  39.817  16.007   2.399
90915W        W57456  41.676   8.706  13.517
90916W        W57457  11.110  14.205  11.419
90917W        W57458   5.149  27.602   3.289
90918W        W57459  29.237  42.704  14.109
90919W        W57460  23.479  14.138   1.016
90920W        W57461   6.937   9.819  12.808
90921W        W57462  30.883   2.977  11.568
90922W        W57463  30.452  31.556   2.061
90923W        W57464  19.193  38.502  10.738
90924W        W57465  16.670   1.678  13.115
90925W        W57466  43.496  15.558   3.862
90926W        W57467  24.461  20.125  11.113
90927W        W57468  35.608  21.586  13.507
90928W        W57469   4.843   6.018   2.222
90929W        W57470  10.202  23.785   0.794
90930W        W57471  37.605  23.312   4.112
90931W        W57472  26.764   5.694   2.776
90932W        W57473  39.625  11.253  13.014
90933W        W57474  41.785  39.945  14.739
90934W        W57475  15.993  40.313   2.701
90935W        W57476  35.804   7.881  13.021
90936W        W57477  17.783  27.753   4.729
90937W        W57478  38.476   7.778   3.763
90938W        W57479  30.691  26.778   2.184
90939W        W57480   8.511  44.315   4.525
90940W        W57481  37.436   0.734   4.525
90941W        W57482  23.664  25.183  10.932
90942W        W57483  28.041  44.122  11.834
90943W        W57484   2.698  23.906   3.883
90944W        W57485   5.674  35.673  14.939
90945W        W57486  36.129  15.435  12.918
90946W        W57487  11.194  39.525  12.100
90947W        W57488  14.801   5.388   1.288
90948W        W57489   8.156  37.467   9.869
90949W        W57490  18.750   9.018   1.051
90950W        W57491  23.742  39.413  13.835
90951W        W57492  13.395  22.550   4.684
90952W        W57493   9.472  23.393  12.135
90953W        W57494   8.457  26.526   3.521
90954W        W57495   9.379   1.204   1.296
90955W        W57496  22.285  42.498  11.572
90956W        W57497   1.479  44.955   3.840
90957W        W57498  28.362   2.756   1.427
90958W        W57499  13.817   1.223   0.742
90959W        W57500  44.869  17.660  11.061
90960W        W57501  28.725  22.603   1.375
90961W        W57502  21.264   0.761   4.826
90962W        W57503   2.814  34.483   5.034
90963W        W57504  43.680  40.297   0.010
90964W        W57505  24.073  10.155  12.461
90965W        W57506  25.608   8.628   3.225
90966W        W57507  15.372  30.655   4.074
90967W        W57508   4.890  33.292   1.398
90968W        W57509  13.197  19.687   4.693
90969W        W57510   9.654  25.432   3.734
90970W        W57511  19.598  35.379   3.175
90971W        W57512  20.490  19.568   3.240
90972W        W57513  15.067  28.258   0.172
90973W        W57514  41.232  18.697   4.595
90974W        W57515  19.582  38.974  12.252
90975W        W57516  27.396  40.008  13.608
90976W        W57517   0.150  35.387  11.286
90977W        W57518  24.120  32.020  10.192
90978W        W57519  27.097  10.606  12.357
90979W        W57520  12.385  17.199  14.730
90980W        W57521  32.146  12.728   2.627
90981W        W57522  30.010  33.521   2.211
90982W        W57523  13.653   8.793  11.148
90983W        W57524  35.505  39.558  10.766
90984W        W57525  19.707  30.462   4.542
90985W        W57526  20.955  32.271  11.868
90986W        W57527  33.629  25.794   3.209
90987W        W57528  26.267  25.500  13.616
90988W        W57529  25.559  28.552  10.824
90989W        W57530  22.248  20.239  12.118
90990W        W57531  23.382  24.018  14.566
90991W        W57532  12.027  21.172  13.992
90992W        W57533  42.515  32.502   2.230
90993W        W57534  29.854  17.648  13.393
90994W        W57535   8.701  15.587   2.855
90995W        W57536  26.973   2.492   4.313
90996W        W57537  21.751  37.836  13.534
90997W        W57538   3.840  26.037  12.301
90998W        W57539   4.646  27.022   2.844
90999W        W57540  30.599   3.934   3.238
91000W        W57541  43.309  36.173  11.163
91001W        W57542   9.439  29.951   1.628
91002W        W57543  27.508   2.978  10.508
91003W        W57544   0.632  31.421   0.957
91004W        W57545  36.271  39.050   3.646
91005W        W57546  20.378  38.525  14.705
91006W        W57547   7.843  27.065   3.583
91007W        W57548   6.481   7.847   4.298
91008W        W57549  37.012   9.575  10.808
91009W        W57550  25.978  31.079   1.466
91010W        W57551  10.512  36.848   4.114
91011W        W57552  30.717  39.726  13.302
91012W        W57553  36.286   4.976  11.162
91013W        W57554  26.267  14.931  10.832
91014W        W57555   3.453  44.672   2.217
91015W        W57556   9.437   0.437  13.429
91016W        W57557  10.778  27.970  11.903
91017W        W57558  37.798   6.725   1.373
91018W        W57559  22.223  10.331  13.772
91019W        W57560  18.582  15.690   0.273
91020W        W57561   1.883   3.347  11.420
91021W        W57562  34.162  16.444   4.179
91022W        W57563  16.103   1.559  11.391
91023W        W57564  19.585  23.547   4.699
91024W        W57565  36.603   1.443  14.731
91025W        W57566  15.230  20.693   0.343
91026W        W57567  41.476  36.854  14.468
91027W        W57568   8.404  16.020  12.062
91028W        W57569  33.135  31.885   3.261
91029W        W57570  30.029  25.805  11.600
91030W        W57571  36.707  30.623  13.827
91031W        W57572  16.367  19.419   3.246
91032W        W57573  12.655  27.557   2.355
91033W        W57574  10.369  35.364   2.750
91034W        W57575   3.407  17.672   4.902
91035W        W57576  17.234   3.147  11.514
91036W        W57577  10.153  15.523  14.342
91037W        W57578   6.728   2.195   2.160
91038W        W57579  42.834   1.251   1.400
91039W        W57580   9.257  38.966   2.816
91040W        W57581   7.485  16.767  10.699
91041W        W57582   7.204  16.942  12.105
91042W        W57583  30.423  23.401   0.892
91043W        W57584  18.697  21.534  12.068
91044W        W57585  15.349  32.458   4.439
91045W        W57586  36.521   5.800   4.669
91046W        W57587  15.609  14.143  10.658
91047W        W57588  37.478  33.455   1.887
91048W        W57589  24.863  19.067  11.626
91049W        W57590   0.761  36.942   1.446
91050W        W57591  18.523  18.777   1.907
91051W        W57592  42.174   7.053   1.898
91052W        W57593  31.207  19.727   3.851
91053W        W57594   1.568  43.091   3.795
91054W        W57595  26.780   7.918   4.807
91055W        W57596  33.363  43.877   0.385
91056W        W57597  44.512  15.635  13.001
91057W        W57598  27.004   6.745   4.669
91058W        W57599   0.354  30.657   1.392
91059W        W57600  42.213  10.408   2.840
91060W        W57601  21.325  30.526  14.090
91061W        W57602  31.504  36.279   2.814
91062W        W57603  11.835  27.674   3.256
91063W        W57604  18.230  32.582  12.569
91064W        W57605  23.012  35.176  11.627
91065W        W57606  18.951  40.563  11.445
91066W        W57607   1.804  26.989   3.682
91067W        W57608   1.956  39.046  12.914
91068W        W57609  34.109  20.588  10.580
91069W        W57610  13.237  31.950  13.044
91070W        W57611  13.400  40.438  12.850
91071W        W57612   0.462  12.122  14.419
91072W        W57613  24.833  19.968  13.572
91073W        W57614  15.001   6.223   4.122
91074W        W57615  23.950  34.874  12.469
91075W        W57616  33.817  42.196   2.469
91076W        W57617  21.820   2.931   4.638
91077W        W57618  30.464  27.713   1.143
91078W        W57619  11.905  42.648   1.395
91079W        W57620  26.563  31.839  10.924
91080W        W57621  23.209  29.411   1.434
91081W        W57622   3.242  14.866  11.696
91082W        W57623  32.038  18.992   1.775
91083W        W57624  32.940  17.828   1.788
91084W        W57625  34.236  12.194  11.988
91085W        W57626  13.539   0.192   3.784
91086W        W57627  26.109  43.501  12.949
91087W        W57628  39.492  21.138   2.655
91088W        W57629   5.878  34.976   0.377
91089W        W57630  40.308  13.037   0.795
91090W        W57631  20.480   1.130  12.979
91091W        W57632  16.309  42.058  10.733
91092W        W57633   9.187  35.982   1.494
91093W        W57634  10.167  36.046  12.944
91094W        W57635  29.782  33.087  10.608
91095W        W57636  11.219   8.200  12.956
91096W        W57637  32.111  10.934  11.149
91097W        W57638  19.645   1.464  10.798
91098W        W57639  38.242   8.739   0.198
91099W        W57640  10.140  16.015   4.934
91100W        W57641   2.817  31.472  14.432
91101W        W57642  30.705  35.055  12.947
91102W        W57643  15.095  37.830   3.248
91103W        W57644  38.505   6.488  11.988
91104W        W57645  22.000   3.902   3.273
91105W        W57646  36.187  41.459  13.889
91106W        W57647  43.826  16.159  13.526
91107W        W57648  24.736   5.789   9.933
91108W        W57649   0.848   8.708  11.265
91109W        W57650  17.257  27.073  10.654
91110W        W57651   8.332  32.969  12.008
91111W        W57652   6.270  26.336  12.064
91112W        W57653  29.239  37.064  12.972
91113W        W57654   4.964  16.088  12.913
91114W        W57655  17.302  36.617   1.321
91115W        W57656   3.079   3.190  14.328
91116W        W57657  33.430  10.543  14.686
91117W        W57658   3.394  15.044   2.323
91118W        W57659  40.855  29.430  14.338
91119W        W57660  20.759  24.868  12.289
91120W        W57661  26.196  39.689  11.619
91121W        W57662  11.501  37.002  11.674
91122W        W57663   1.537  13.941   4.932
91123W        W57664  14.879   9.287  12.068
91124W        W57665  41.112   1.504   0.793
91125W        W57666  41.467   6.618  14.433
91126W        W57667   3.414  13.857  11.557
91127W        W57668   7.448  37.723   5.273
91128W        W57669  10.689  33.101   1.897
91129W        W57670  41.346  21.099  14.437
91130W        W57671   2.522  22.479  14.723
91131W        W57672  36.546  23.576  10.293
91132W        W57673  27.445  14.586  14.443
91133W        W57674   1.984   4.515  13.423
91134W        W57675  32.597  12.565  13.783
91135W        W57676   7.856  42.062  11.480
91136W        W57677  24.720  40.560  13.984
91137W        W57678   5.035   5.709   3.565
91138W        W57679  15.167  26.913   0.524
91139W        W57680   4.719   2.867   2.768
91140W        W57681   0.789  31.870  12.063
91141W        W57682  24.160  13.483  13.520
91142W        W57683  27.954  11.760   1.981
91143W        W57684   0.794  31.929   3.457
91144W        W57685  30.916  31.860   1.050
91145W        W57686  39.585  40.750  14.873
91146W        W57687   1.898   6.057  13.925
91147W        W57688  21.114  43.918   1.652
91148W        W57689  17.477  24.037  11.642
91149W        W57690  25.331  35.432  12.769
91150W        W57691  32.684  14.749  13.374
91151W        W57692  27.083  22.609  10.726
91152W        W57693  25.117  12.758   0.403
91153W        W57694  11.086   9.795  14.271
91154W        W57695  25.609  35.747  14.415
91155W        W57696   0.965   1.070  13.711
91156W        W57697  43.068   7.705  14.159
91157W        W57698  29.939  31.601   1.962
91158W        W57699  35.564  17.189  13.985
91159W        W57700  39.639  25.408  13.339
91160W        W57701  44.195  10.937   1.452
91161W        W57702  42.851  24.151  13.479
91162W        W57703   0.390   4.976  12.480
91163W        W57704  29.614  23.037  14.957
91164W        W57705  37.412   3.439  13.946
91165W        W57706  27.587  42.522   1.728
91166W        W57707  27.971   7.661   1.377
91167W        W57708  40.875  23.542   2.627
91168W        W57709  13.539   3.669  11.936
91169W        W57710  37.854  12.636  13.422
91170W        W57711  10.213  15.866  12.953
91171W        W57712  27.934   0.355  12.006
91172W        W57713  35.862  38.745   3.752
91173W        W57714  25.079  19.206  13.986
91174W        W57715  40.853  22.471  11.540
91175W        W57716   3.899  17.240  11.326
91176W        W57717  10.548  37.399   4.035
91177W        W57718  36.537  24.273   0.308
91178W        W57719  40.717  16.706   1.375
91179W        W57720  37.323   0.586   3.552
91180W        W57721  24.169  12.801  14.277
91181W        W57722  27.521  11.101   0.900
91182W        W57723  39.270   9.362   0.304
91183W        W57724  33.100  14.201   4.652
91184W        W57725  38.340   8.679  10.735
91185W        W57726   9.572  27.513   4.563
91186W        W57727   8.253  38.029  12.333
91187W        W57728  25.375   9.181   3.807
91188W        W57729   8.856  32.507   4.594
91189W        W57730  25.058  35.143   1.365
91190W        W57731  41.110  37.632   0.474
91191W        W57732  37.414  26.123  14.505
91192W        W57733  17.159  35.143   0.406
91193W        W57734   7.980  19.461   3.620
91194W        W57735  34.505   8.633   1.845
91195W        W57736   7.815   2.317  14.811
91196W        W57737  10.230  31.084  10.523
91197W        W57738  15.496   7.370   2.734
91198W        W57739   0.422  39.046   0.337
91199W        W57740  19.103  28.789   0.823
91200W        W57741   6.841  14.334   4.585
91201W        W57742   9.533   8.731  14.549
91202W        W57743  44.824  37.409  11.473
91203W        W57744  31.965  20.047   0.670
91204W        W57745  34.035  22.040  12.931
91205W        W57746   3.306  30.946   3.373
91206W        W57747   0.931  26.765   2.984
91207W        W57748  33.547  34.097  13.742
91208W        W57749   8.735   4.361   1.285
91209W        W57750  20.289  34.158  10.652
91210W        W57751   8.445   6.413  14.378
91211W        W57752  21.175  12.348   4.705
91212W        W57753  17.032  31.687  10.183
91213W        W57754  41.595  20.032   3.307
91214W        W57755  38.854  38.342   1.663
91215W        W57756  10.734   5.199  11.608
91216W        W57757  28.248   4.071  13.508
91217W        W57758  16.733  17.205   0.269
91218W        W57759   9.904  33.989   2.771
91219W        W57760  36.807  28.059   3.688
91220W        W57761   4.794   4.259   1.679
91221W        W57762  41.073  44.356   4.141
91222W        W57763  44.758  22.543   1.679
91223W        W57764  10.207  21.038  12.227
91224W        W57765   6.125  20.573  10.761
91225W        W57766  32.382  40.838  13.534
91226W        W57767  39.617   8.171   3.666
91227W        W57768  42.880  22.138  12.539
91228W        W57769  34.548  15.139  12.203
91229W        W57770  32.533   1.398  10.113
91230W        W57771  34.508  41.579   1.940
91231W        W57772  32.756  44.553  10.245
91232W        W57773   9.825  16.876   0.375
91233W        W57774  13.346  43.826   3.149
91234W        W57775   5.422  14.145   3.592
91235W        W57776  23.504  11.100   1.875
91236W        W57777   0.618  21.956  14.256
91237W        W57778   8.726   6.577   4.137
91238W        W57779  44.057  37.460   0.059
91239W        W57780   6.869  41.907   0.856
91240W        W57781   5.825  21.912   0.762
91241W        W57782   3.987  32.884   1.769
91242W        W57783  30.375   1.349   2.036
91243W        W57784   0.318  10.326  13.889
91244W        W57785  19.026  29.835   1.362
91245W        W57786  36.556  39.142  10.745
91246W        W57787   1.704  21.062  10.189
91247W        W57788  31.438  43.176   1.196
91248W        W57789  13.568  12.276   3.257
91249W        W57790   8.803   7.727  11.560
91250W        W57791   5.377  25.783   1.849
91251W        W57792  15.346  27.474  14.869
91252W        W57793  11.276   3.042  11.898
91253W        W57794   1.277  13.315  10.728
91254W        W57795  12.785   6.146   3.340
91255W        W57796  17.586  42.579   2.749
91256W        W57797  17.166  28.503   4.812
91257W        W57798  22.568  10.048   4.171
91258W        W57799  10.820  34.132  12.992
91259W        W57800  43.963  10.416  10.692
91260W        W57801  15.066  26.901   2.048
91261W        W57802   8.836  25.042  12.829
91262W        W57803  40.697   8.440  13.582
91263W        W57804  21.161  37.390   4.670
91264W        W57805  40.313   7.228   4.050
91265W        W57806  37.108  41.438  11.502
91266W        W57807   7.339  36.526   2.686
91267W        W57808  10.806  39.088  12.879
91268W        W57809  28.986  12.064  13.807
91269W        W57810  26.712  13.360  12.226
91270W        W57811  18.071  19.932  14.344
91271W        W57812  11.196  13.558  12.915
91272W        W57813  35.423  13.527  12.961
91273W        W57814  37.873  42.379   4.181
91274W        W57815  24.573  10.177  14.888
91275W        W57816  17.083  28.483  10.840
91276W        W57817   3.019  12.672  12.930
91277W        W57818  37.113  16.632  11.069
91278W        W57819  25.218  42.153  12.899
91279W        W57820  10.905  22.709   1.351
91280W        W57821  31.722  43.269  11.370
91281W        W57822   0.074  14.131  14.920
91282W        W57823  25.708  23.623   1.297
91283W        W57824  16.474  34.633  12.392
91284W        W57825  11.313   1.941  12.874
91285W        W57826   8.666  38.251  11.997
91286W        W57827  42.787  39.919  13.982
91287W        W57828   2.208   5.129   0.267
91288W        W57829  17.443  29.012  13.101
91289W        W57830  18.766  37.143  13.033
91290W        W57831  24.968  40.828   2.293
91291W        W57832  24.996   1.396   2.422
91292W        W57833   3.736  27.786   4.013
91293W        W57834  29.679  27.562   4.036
91294W        W57835  16.428   6.783  10.832
91295W        W57836  11.153  43.605   3.068
91296W        W57837  37.528  31.754  12.819
91297W        W57838  17.259  44.940  13.903
91298W        W57839   4.175  27.602  14.054
91299W        W57840  13.665   3.417  12.565
91300W        W57841  14.438  22.268  11.562
91301W        W57842  18.651   2.516   2.943
91302W        W57843  27.093  33.493  13.320
91303W        W57844  15.349  17.359  10.558
91304W        W57845  25.934  15.744  12.931
91305W        W57846  16.543  41.004  11.099
91306W        W57847   2.655  17.179  11.530
91307W        W57848  21.996  38.731   0.444
91308W        W57849   4.215  44.672   4.832
91309W        W57850   1.716  31.873  12.024
91310W        W57851  38.525  42.060   2.556
91311W        W57852  21.024  29.118   3.492
91312W        W57853  27.184   0.856  14.262
91313W        W57854  22.631  19.496   5.103
91314W        W57855  16.288  22.021   2.825
91315W        W57856  19.329  38.821   3.933
91316W        W57857  38.100  42.004   0.383
91317W        W57858   2.720  39.112   1.405
91318W        W57859  38.231  32.219   2.757
91319W        W57860   9.666  40.029   1.713
91320W        W57861  25.082  36.654  13.901
91321W        W57862   9.184   2.333  12.968
91322W        W57863  26.436  23.937  10.704
91323W        W57864  38.953  20.553  13.023
91324W        W57865  16.718  35.115  12.371
91325W        W57866  15.347   4.439  14.417
91326W        W57867  23.801   9.065  10.993
91327W        W57868   0.764  32.356  14.977
91328W        W57869  38.130  40.058   2.743
91329W        W57870  43.357   7.082  13.511
91330W        W57871  25.153  40.653   1.823
91331W        W57872  18.799  14.109   0.739
91332W        W57873  44.170  44.000  10.096
91333W        W57874  39.911  34.543  12.646
91334W        W57875   6.305  11.589  13.980
91335W        W57876  11.729  44.413  12.638
91336W        W57877  39.666  12.954   1.428
91337W        W57878   2.753  29.827   0.845
91338W        W57879  24.493  27.530  13.476
91339W        W57880  10.232   5.400   2.722
91340W        W57881   4.751  24.615  12.856
91341W        W57882   9.408  20.640   3.685
91342W        W57883  14.675   6.627   4.148
91343W        W57884  25.060   2.355   2.207
91344W        W57885   3.772  23.605  11.634
91345W        W57886  20.224  18.720   5.012
91346W        W57887  34.762  16.470  11.650
91347W        W57888  12.612  40.508   4.701
91348W        W57889  41.267   3.371  10.656
91349W        W57890  34.535  34.445  12.127
91350W        W57891  43.669   7.487   0.731
91351W        W57892  41.724  37.449  13.380
91352W        W57893  12.381  40.905   1.305
91353W        W57894  41.423   5.905   4.686
91354W        W57895  32.881  37.371   0.929
91355W        W57896  34.193   3.372  13.910
91356W        W57897   2.275  26.037  12.356
91357W        W57898  18.442   0.346  11.201
91358W        W57899  12.627  14.688   3.485
91359W        W57900  40.846  24.184   4.844
91360W        W57901  15.312  22.523   4.060
91361W        W57902   8.810  14.259  14.559
91362W        W57903   5.082  32.431  12.616
91363W        W57904   7.108  16.101   0.768
91364W        W57905  37.403  40.497  12.887
91365W        W57906  11.313  36.975  11.196
91366W        W57907  34.691  36.072   2.392
91367W        W57908  43.201  34.089  14.247
91368W        W57909  27.351   5.442  11.199
91369W        W57910   4.663   5.193   3.304
91370W        W57911  42.280  23.961   0.695
91371W        W57912  16.690  27.707  10.893
91372W        W57913   7.072  30.562   3.187
91373W        W57914  34.633  38.042  13.287
91374W        W57915   2.282  26.590   1.517
91375W        W57916  43.365  11.811   2.702
91376W        W57917  31.327  32.416   2.180
91377W        W57918   2.456   5.820   1.505
91378W        W57919  34.616  24.177  13.353
91379W        W57920  17.613   6.284  11.575
91380W        W57921  26.471  26.683   0.304
91381W        W57922  18.897  12.771   0.259
91382W        W57923  19.213  20.028  11.946
91383W        W57924  17.724  30.730  12.463
91384W        W57925  19.534  31.715   1.630
91385W        W57926   9.449  15.624   2.107
91386W        W57927  28.441  42.245   4.298
91387W        W57928  44.041   3.394  13.007
91388W        W57929  33.594  31.319   3.871
91389W        W57930  31.526  31.203  14.098
91390W        W57931  20.350  17.268   4.039
91391W        W57932  14.554  34.439   0.815
91392W        W57933  21.486  12.012  11.211
91393W        W57934  15.118   1.196   2.756
91394W        W57935   7.396   6.730   0.945
91395W        W57936  41.629  29.392  10.454
91396W        W57937  30.391   8.244   4.143
91397W        W57938  40.284  41.596   0.405
91398W        W57939  20.036   4.899   3.750
91399W        W57940  37.393  16.170  13.097
91400W        W57941  21.700  13.614   3.725
91401W        W57942  31.886   0.418  13.612
91402W        W57943   6.075  13.326   1.349
91403W        W57944  21.517  43.118  12.062
91404W        W57945  32.924   7.233  14.447
91405W        W57946   3.934  12.423   0.552
91406W        W57947  32.224   5.506  11.985
91407W        W57948  31.058  22.284   4.639
91408W        W57949  20.272  25.567   1.167
91409W        W57950  40.425  33.238  11.510
91410W        W57951   2.543  13.815   2.685
91411W        W57952  37.259   5.752  14.264
91412W        W57953  26.079   5.425  12.510
91413W        W57954   4.645  30.180  13.399
91414W        W57955   1.803  39.042   1.193
91415W        W57956  12.151  44.529   3.788
91416W        W57957  28.158   8.751  10.299
91417W        W57958   0.946   9.933   4.532
91418W        W57959   1.775  21.400  10.620
91419W        W57960  35.648  30.310  12.995
91420W        W57961  27.683   7.490  13.169
91421W        W57962  21.024  36.582  14.780
91422W        W57963  11.279   8.411  13.423
91423W        W57964  18.115   8.089  11.678
91424W        W57965  34.529  31.118   3.140
91425W        W57966   6.400  10.370   4.779
91426W        W57967  35.669   1.606  10.302
91427W        W57968  26.225  18.635   0.412
91428W        W57969  38.453   4.117   2.255
91429W        W57970  29.778  23.270  13.489
91430W        W57971  39.487  18.372   1.816
91431W        W57972   3.406  35.822  12.829
91432W        W57973   1.480  42.805  13.340
91433W        W57974   5.744  23.982   1.742
91434W        W57975  21.518  26.298  10.924
91435W        W57976  24.230   4.498  12.046
91436W        W57977   9.580  18.370  11.975
91437W        W57978   3.260  13.429   4.689
91438W        W57979  10.542  25.788  14.936
91439W        W57980  17.627  20.897  11.739
91440W        W57981  12.382  23.188   2.293
91441W        W57982   8.162  20.171  12.497
91442W        W57983  18.533  43.653  14.946
91443W        W57984  11.420   4.410  13.100
91444W        W57985   4.798  39.578   2.790
91445W        W57986  11.762  31.442  11.239
91446W        W57987  40.420  20.335  12.041
91447W        W57988  23.398  26.532  13.917
91448W        W57989   5.914  22.617   4.246
91449W        W57990  34.421  35.624  14.069
91450W        W57991  13.323  33.098  14.016
91451W        W57992  37.347  39.103  14.336
91452W        W57993  35.278  26.065  13.389
91453W        W57994  41.417  12.810  13.793
91454W        W57995  43.815   1.319   3.647
91455W        W57996  28.643  27.950   3.049
91456W        W57997  17.592  43.691  14.869
91457W        W57998  44.275  26.093  14.783
91458W        W57999  14.347   7.685  11.626
91459W        W58000  30.566  20.641   1.644
91460W        W58001  35.003   6.547   0.973
91461W        W58002  33.840   5.273   1.928
91462W        W58003  32.998  33.305  12.544
91463W        W58004  36.496   5.726   1.874
91464W        W58005   1.483  22.573  14.462
91465W        W58006  42.761  10.304  12.506
91466W        W58007  10.848   6.669   4.217
91467W        W58008   1.180   5.119   0.032
91468W        W58009  40.024   2.881  13.454
91469W        W58010  36.846   1.855   9.713
91470W        W58011  26.575  43.549   0.903
91471W        W58012  14.882  27.599  13.814
91472W        W58013  41.354  43.525  14.756
91473W        W58014  21.620  22.519  14.268
91474W        W58015  13.203  36.382  11.948
91475W        W58016  23.449  24.527  14.585
91476W        W58017  33.211   1.210   0.369
91477W        W58018  30.097   4.303  13.444
91478W        W58019  21.438   3.272  12.270
91479W        W58020  20.679   1.312  12.542
91480W        W58021   3.935  14.621  10.853
91481W        W58022   7.127  37.646  11.112
91482W        W58023   7.667  24.431   0.837
91483W        W58024  29.578  29.149   1.428
91484W        W58025  16.031  34.873  12.186
91485W        W58026  28.381   0.541   0.196
91486W        W58027  18.730  44.046  11.251
91487W        W58028  33.749  41.132  12.385
91488W        W58029  13.203  39.852   2.246
91489W        W58030  16.474  26.193  11.731
91490W        W58031  38.883   7.827   4.092
91491W        W58032  28.604   1.729  14.372
91492W        W58033   8.452  27.383   3.773
91493W        W58034   6.568   2.419  10.726
91494W        W58035  20.010  31.125  13.016
91495W        W58036   4.391  23.093  13.110
91496W        W58037  20.493  12.136  14.426
91497W        W58038  22.557  14.441   1.075
91498W        W58039  26.234  24.600   0.485
91499W        W58040  17.159  13.941  14.613
91500W        W58041  31.676  34.141  13.296
91501W        W58042  41.479  27.936   3.704
91502W        W58043   3.749   0.798  10.237
91503W        W58044  22.663  35.864  12.912
91504W        W58045  11.234  33.110   3.644
91505W        W58046  23.521  40.367  13.020
91506W        W58047   8.901  28.960  12.438
91507W        W58048  27.961  13.085  10.762
91508W        W58049  29.846  11.546  14.891
91509W        W58050  28.485   2.841   0.333
91510W        W58051  15.719  22.415  12.607
91511W        W58052   5.453  40.192  12.120
91512W        W58053  42.390   8.741   2.833
91513W        W58054  11.218  34.514   1.929
91514W        W58055  11.049   8.889   1.707
91515W        W58056  42.534   0.163  13.549
91516W        W58057  44.733  22.771  13.669
91517W        W58058   9.819  32.269  14.410
91518W        W58059  31.365   5.475   1.309
91519W        W58060  25.521   7.620   4.418
91520W        W58061  44.393  20.268  13.345
91521W        W58062  41.977  25.663  10.732
91522W        W58063  39.408  19.788   4.659
91523W        W58064   3.735  13.801  13.480
91524W        W58065  38.853  10.491  11.216
91525W        W58066  23.607   7.928  10.209
91526W        W58067  31.950  32.173   4.476
91527W        W58068   2.858  23.252   4.653
91528W        W58069   3.511  33.861  12.462
91529W        W58070  37.492  34.089  10.664
91530W        W58071  38.555   3.601  12.702
91531W        W58072  19.791   4.315  13.835
91532W        W58073   2.245  34.872   2.818
91533W        W58074   8.433  28.085  11.143
91534W        W58075  30.052  30.617   3.262
91535W        W58076  27.394  18.289  14.938
91536W        W58077  31.587   0.678   4.600
91537W        W58078  36.462  13.611  11.004
91538W        W58079  21.660   2.690   0.280
91539W        W58080   6.674   0.190  12.447
91540W        W58081  39.596  21.019  11.900
91541W        W58082   8.059  19.468   5.110
91542W        W58083  21.509  16.818  13.740
91543W        W58084   4.799  12.338   2.850
91544W        W58085  34.679  24.709   0.025
91545W        W58086  37.892  22.167  14.279
91546W        W58087  37.888  12.179   1.944
91547W        W58088   4.424  34.406   0.703
91548W        W58089  16.037   8.698   2.800
91549W        W58090  40.357  41.204  12.954
91550W        W58091  17.197   5.463   3.614
91551W        W58092  22.065   0.256  12.424
91552W        W58093  34.062  28.920  11.869
91553W        W58094  33.101   5.006  11.599
91554W        W58095  28.487  14.758  13.381
91555W        W58096  18.863  36.358   0.305
91556W        W58097  27.037  40.198   3.712
91557W        W58098   3.607  31.053   5.072
91558W        W58099  21.269  13.024  12.949
91559W        W58100  40.339   3.806   2.805
91560W        W58101   2.780  41.916   4.616
91561W        W58102  31.429  27.674   1.625
91562W        W58103  26.601  15.426   0.253
91563W        W58104  30.410  44.688   1.351
91564W        W58105  26.687   3.410   1.439
91565W        W58106  26.189  22.900   2.604
91566W        W58107  42.432  10.042  14.736
91567W        W58108  44.316  14.279   1.453
91568W        W58109   3.851  28.692   0.340
91569W        W58110  43.732  16.702   0.255
91570W        W58111  10.123  26.300   1.368
91571W        W58112   4.717  21.586   4.578
91572W        W58113  33.255  29.773  12.408
91573W        W58114  12.765  38.052  12.160
91574W        W58115  14.307   3.844  11.941
91575W        W58116  36.129  14.217   3.634
91576W        W58117  25.607  11.266   0.944
91577W        W58118  33.357   3.203   0.188
91578W        W58119  40.183  15.078   5.259
91579W        W58120   4.930  31.280   4.862
91580W        W58121  21.647   7.939  14.804
91581W        W58122  16.208  32.485   1.895
91582W        W58123   6.885  42.558  13.355
91583W        W58124  14.590  43.348   0.333
91584W        W58125  31.597  34.178   3.678
91585W        W58126   8.765  13.215   4.537
91586W        W58127  41.900  24.155   4.088
91587W        W58128  13.466  33.401   4.551
91588W        W58129  19.811  27.466  11.601
91589W        W58130  38.418  24.726  13.846
91590W        W58131  37.887  40.420  12.467
91591W        W58132  36.188   2.442  12.099
91592W        W58133  36.030   5.761  10.511
91593W        W58134  23.243  20.649  13.141
91594W        W58135  33.071  36.055  14.905
91595W        W58136  14.592  33.412   1.101
91596W        W58137  10.785  30.611   1.681
91597W        W58138  36.935  25.277  13.010
91598W        W58139   9.872  12.911  13.362
91599W        W58140  25.406  41.277   4.623
91600W        W58141  39.022  16.309  10.993
91601W        W58142   6.940   1.319  11.114
91602W        W58143  16.578  11.361  14.778
91603W        W58144  26.737  11.260  13.873
91604W        W58145  34.699   4.216  14.982
91605W        W58146   9.074  15.068   3.793
91606W        W58147   6.436   3.464   3.224
91607W        W58148  19.626  44.438   1.372
91608W        W58149  28.112  44.469  11.474
91609W        W58150   7.327  24.468  14.324
91610W        W58151  40.143  29.712  11.105
91611W        W58152   5.949  30.877  14.429
91612W        W58153   9.081   7.300  12.776
91613W        W58154  27.350  11.958   4.153
91614W        W58155  26.254  31.674  13.036
91615W        W58156   2.786  21.627   2.620
91616W        W58157  31.806  35.365  11.577
91617W        W58158  22.694  29.602   3.650
91618W        W58159  12.152   7.926  12.099
91619W        W58160  18.660  19.997  14.967
91620W        W58161   4.467   8.668  14.402
91621W        W58162  39.567  33.631  12.527
91622W        W58163  19.304   7.557   4.483
91623W        W58164  11.839  31.459   1.884
91624W        W58165  41.540  12.856   0.221
91625W        W58166   7.707  33.071  14.566
91626W        W58167  42.368  31.270  11.726
91627W        W58168  38.458  33.671   3.148
91628W        W58169  11.631  42.839   2.285
91629W        W58170  11.509  22.294  12.446
91630W        W58171  31.449  19.127  12.916
91631W        W58172  36.026   7.497  13.931
91632W        W58173  31.364  37.295   1.691
91633W        W58174  42.256  17.471  14.971
91634W        W58175  19.046  37.002   1.222
91635W        W58176  13.928  32.690  11.449
91636W        W58177   9.803   6.875  10.711
91637W        W58178  10.645  42.300   0.236
91638W        W58179  11.402  36.458  12.416
91639W        W58180   3.168  27.729   3.383
91640W        W58181   7.919   6.468  12.451
91641W        W58182  12.953  32.465  11.116
91642W        W58183  35.523  13.370   1.317
91643W        W58184  44.010  43.448   2.858
91644W        W58185  18.825  24.485   1.279
91645W        W58186  37.875   5.495   1.860
91646W        W58187  16.829  44.336   1.740
91647W        W58188  31.078   9.750   2.139
91648W        W58189   8.327  25.148   4.755
91649W        W58190  30.939   7.671   3.755
91650W        W58191   3.184   0.227  14.007
91651W        W58192   7.945  35.004   0.806
91652W        W58193  29.163  43.520   2.347
91653W        W58194  34.939  18.064  13.960
91654W        W58195  42.837   1.264  11.840
91655W        W58196  39.947  38.338  13.868
91656W        W58197  18.014  28.838  12.603
91657W        W58198  34.939  21.274   1.483
91658W        W58199  15.505  29.663   5.115
91659W        W58200  23.216  15.647   3.686
91660W        W58201  37.318  10.874  12.469
91661W        W58202  27.503   7.113  12.829
91662W        W58203  11.333  16.592   4.679
91663W        W58204  26.454  27.085  12.951
91664W        W58205  39.504  44.268  13.458
91665W        W58206  39.078  23.341  14.856
91666W        W58207   0.725  17.963   0.927
91667W        W58208   1.809   7.401   4.127
91668W        W58209   6.171  22.590  10.750
91669W        W58210  43.292  30.593   1.217
91670W        W58211  19.653  16.049   1.195
91671W        W58212   5.473  38.426   3.887
91672W        W58213  23.924  37.141  14.333
91673W        W58214  19.206  35.749  10.674
91674W        W58215   9.907  24.705  14.338
91675W        W58216   0.268  33.231  12.875
91676W        W58217   1.824  37.340  12.204
91677W        W58218  30.617  34.169  13.413
91678W        W58219  42.919  39.845  11.505
91679W        W58220  27.995   9.384  14.083
91680W        W58221  20.091  29.855  13.343
91681W        W58222  36.139   8.144   3.156
91682W        W58223  37.396  23.620   1.994
91683W        W58224  34.898  42.829  13.025
91684W        W58225  24.120  26.389  10.791
91685W        W58226  44.943  16.587  14.733
91686W        W58227  22.638  35.585   3.512
91687W        W58228  31.866  15.374  14.451
91688W        W58229   3.070   9.416  12.963
91689W        W58230  10.877  16.702  12.360
91690W        W58231  31.013  44.290   4.692
91691W        W58232  44.803   9.133   2.355
91692W        W58233   5.430   9.893  11.040
91693W        W58234  25.960   2.014  11.628
91694W        W58235  13.360  10.366  10.485
91695W        W58236  19.779  30.682   5.040
91696W        W58237  26.715   0.502   4.327
91697W        W58238   2.282   3.001  12.136
91698W        W58239  16.129  24.332   1.409
91699W        W58240  37.077  44.507   2.233
91700W        W58241  25.000  32.506  12.061
91701W        W58242  32.899   3.988   4.433
91702W        W58243  27.241  20.315  12.502
91703W        W58244  23.059  12.810  12.349
91704W        W58245  16.671  38.509   1.415
91705W        W58246   1.427  30.510  12.701
91706W        W58247  27.215  37.514  11.716
91707W        W58248  43.136  29.018  11.043
91708W        W58249  16.221  19.292  11.596
91709W        W58250  41.413  34.481   4.003
91710W        W58251   1.498   0.194   1.474
91711W        W58252  31.391  30.506  10.899
91712W        W58253   4.219  35.996  10.629
91713W        W58254   1.572  14.150  13.016
91714W        W58255  44.758  33.628  11.948
91715W        W58256  43.066   4.818  13.926
91716W        W58257  39.796  31.502   0.509
91717W        W58258  11.725  33.609  14.535
91718W        W58259  12.510  36.336   3.111
91719W        W58260  30.364  19.668  14.851
91720W        W58261  35.944  31.892   3.167
91721W        W58262   0.533  28.947  13.490
91722W        W58263  21.894  21.205  14.041
91723W        W58264  24.680  20.992   3.255
91724W        W58265  35.563  39.247   0.765
91725W        W58266  41.683  20.142  14.256
91726W        W58267  36.088  18.572  14.477
91727W        W58268   5.759   1.974  11.128
91728W        W58269  38.100   0.564   2.327
91729W        W58270  40.017  36.707  14.495
91730W        W58271  15.892   5.448  13.552
91731W        W58272  38.514  42.795   0.442
91732W        W58273  19.481  34.421  13.322
91733W        W58274  10.614  35.574  14.427
91734W        W58275  29.525  23.539  14.968
91735W        W58276  24.142  44.267  11.330
91736W        W58277  40.029  10.965  12.914
91737W        W58278   4.905  23.081  10.170
91738W        W58279   0.334  41.272  11.156
91739W        W58280  32.872  39.649   1.833
91740W        W58281  43.190  20.684   4.431
91741W        W58282   6.598  17.568   3.729
91742W        W58283   1.877   1.360   4.266
91743W        W58284  12.083  12.663   2.423
91744W        W58285  25.924  10.809   0.863
91745W        W58286  11.111  34.423  12.685
91746W        W58287  13.608  38.163   0.391
91747W        W58288  24.279  18.293   4.116
91748W        W58289  40.964  22.886   0.811
91749W        W58290   3.184  36.211  12.027
91750W        W58291  36.667  17.819  13.415
91751W        W58292   0.451  18.310  11.660
91752W        W58293  27.656  32.197   4.153
91753W        W58294  37.695  12.745  11.304
91754W        W58295   1.885  28.327   9.584
91755W        W58296  15.594  39.329   2.436
91756W        W58297  18.938  42.491   2.329
91757W        W58298  28.471  30.579   3.974
91758W        W58299  34.465  15.686   3.386
91759W        W58300  25.902  15.558  14.347
91760W        W58301  44.580  38.971   5.060
91761W        W58302  28.646  32.589   0.282
91762W        W58303  38.968   0.269   1.427
91763W        W58304   9.713  18.163   2.524
91764W        W58305  36.357  18.128   1.178
91765W        W58306  25.809  30.615   4.391
91766W        W58307  41.942  37.815   4.698
91767W        W58308  16.779  35.968  13.737
91768W        W58309  29.962  14.060  13.028
91769W        W58310   7.164  43.438  11.698
91770W        W58311  19.547   0.649  12.965
91771W        W58312   4.170  32.186  13.390
91772W        W58313   1.914  14.043   3.625
91773W        W58314  16.621  42.032  11.141
91774W        W58315  33.463   2.552   2.689
91775W        W58316   6.007   2.528   9.856
91776W        W58317  31.916  44.905  12.600
91777W        W58318   3.151  35.075  12.222
91778W        W58319  42.571  12.493   4.570
91779W        W58320  35.353  19.698  11.586
91780W        W58321  35.394  34.156  14.930
91781W        W58322   0.747   0.495   2.268
91782W        W58323  35.237  42.216  12.456
91783W        W58324  10.280  11.755   1.025
91784W        W58325  11.801  30.514   1.912
91785W        W58326   3.369  17.800  13.924
91786W        W58327  12.541   8.401  11.579
91787W        W58328   2.691   9.735   1.700
91788W        W58329  32.867  14.658  12.898
91789W        W58330   6.303   1.443  12.333
91790W        W58331   4.138   3.292  12.542
91791W        W58332  38.790   0.600   5.115
91792W        W58333  39.522  42.841   1.910
91793W        W58334  11.249  44.810   1.757
91794W        W58335  31.422  40.597  11.203
91795W        W58336  11.885  13.385   0.367
91796W        W58337  15.611  30.370   2.614
91797W        W58338  11.669  43.051   1.811
91798W        W58339  14.394  37.921  12.573
91799W        W58340  22.060  44.815  10.798
91800W        W58341  17.110  21.824  13.759
91801W        W58342   7.712  37.894   9.871
91802W        W58343  38.387  19.279   3.664
91803W        W58344   4.752  13.023   2.167
91804W        W58345  13.691  39.253  12.622
91805W        W58346  18.940  14.694   2.043
91806W        W58347  11.943  31.294  11.698
91807W        W58348   4.771  38.570   2.823
91808W        W58349  25.947   3.817   0.867
91809W        W58350   4.743  43.028  12.608
91810W        W58351  20.020  13.393  11.216
91811W        W58352  38.922  15.744   2.256
91812W        W58353  34.071  24.437  14.482
91813W        W58354  37.776  16.086  11.540
91814W        W58355  28.438  23.560  11.494
91815W        W58356   0.354  38.525  14.854
91816W        W58357   3.405   5.193  13.903
91817W        W58358  14.680  36.576   3.629
91818W        W58359   5.610   5.282  13.390
91819W        W58360   6.373  35.301   0.396
91820W        W58361  33.895  32.233  11.844
91821W        W58362   0.888  23.739   0.558
91822W        W58363  22.685  23.937  13.979
91823W        W58364  38.763  33.376   3.471
91824W        W58365  41.410  42.515   3.535
91825W        W58366   3.134  44.875  12.829
91826W        W58367  38.063   4.268   3.766
91827W        W58368  12.661  43.299  13.903
91828W        W58369   4.848  16.632  13.911
91829W        W58370  43.948  32.448   0.736
91830W        W58371   8.288   7.083   4.367
91831W        W58372   9.227  40.932  10.805
91832W        W58373  23.061  41.827  11.484
91833W        W58374  42.807  12.251   1.694
91834W        W58375  35.146  11.721   3.166
91835W        W58376   9.787  27.001  14.268
91836W        W58377  25.130  22.376  10.248
91837W        W58378  27.190   5.399   2.631
91838W        W58379  36.107  39.229  12.705
91839W        W58380  39.908   6.817  11.033
91840W        W58381  42.589  14.797  12.020
91841W        W58382  44.037  38.871  10.596
91842W        W58383   5.667  18.245   1.290
91843W        W58384  35.035  18.640  13.089
91844W        W58385  20.292  38.038  11.748
91845W        W58386   2.813  25.492   3.430
91846W        W58387   6.570  10.778  14.044
91847W        W58388  14.593  18.372   0.333
91848W        W58389  23.666  18.528   3.754
91849W        W58390  17.854  41.391   4.393
91850W        W58391  44.229  37.919  12.412
91851W        W58392   3.373  43.578   3.197
91852W        W58393  31.681  18.197  12.078
91853W        W58394   7.015  10.549  13.926
91854W        W58395  25.505  10.813  14.995
91855W        W58396   7.181  10.886  12.376
91856W        W58397   2.119  24.715   4.623
91857W        W58398  21.167   2.326  10.763
91858W        W58399  26.492  18.012  11.624
91859W        W58400   7.855  16.779  11.119
91860W        W58401   0.987   1.880   1.810
91861W        W58402  12.760  22.178  12.033
91862W        W58403  43.185  25.471   2.807
91863W        W58404  23.209  15.031   0.836
91864W        W58405  11.093  32.394   4.131
91865W        W58406  12.372  16.724  11.182
91866W        W58407  37.372  18.600   3.841
91867W        W58408   3.854   7.594  14.817
91868W        W58409  38.402  34.825   2.292
91869W        W58410   4.492  13.285  14.860
91870W        W58411  43.981  13.765   0.878
91871W        W58412  28.409   8.683   4.156
91872W        W58413  41.333  18.115  11.902
91873W        W58414  36.465  29.554   2.710
91874W        W58415  11.834  34.862  11.177
91875W        W58416  10.593   3.331  12.395
91876W        W58417  43.867  37.738  10.568
91877W        W58418  17.711  34.370  12.959
91878W        W58419  43.332  39.924   3.044
91879W        W58420   6.259  19.311   3.899
91880W        W58421  43.254  18.299   3.490
91881W        W58422  36.225  24.850   4.980
91882W        W58423  28.503  29.520  13.151
91883W        W58424  22.673   7.598   0.712
91884W        W58425  15.535  17.807  13.385
91885W        W58426  33.941   9.135  14.888
91886W        W58427  19.094  37.482   4.163
91887W        W58428  31.431  28.567  11.116
91888W        W58429  23.467  19.803  12.436
91889W        W58430   9.459  38.187   4.471
91890W        W58431   5.119  26.776   1.740
91891W        W58432   0.478  33.193   1.378
91892W        W58433  11.886  42.884  13.394
91893W        W58434  19.662  29.872   1.794
91894W        W58435  43.145  22.313  11.695
91895W        W58436  42.872   5.220  13.655
91896W        W58437  41.050   7.437  13.792
91897W        W58438  39.415  35.213   4.504
91898W        W58439  20.686   2.263   0.853
91899W        W58440  32.596  27.983  12.439
91900W        W58441   7.670  40.222  14.236
91901W        W58442  14.059  13.843   3.042
91902W        W58443  12.768   7.113   3.661
91903W        W58444   5.152  11.788   4.538
91904W        W58445  25.571   4.104   2.634
91905W        W58446  27.297  30.882  13.354
91906W        W58447  30.671  27.444   4.154
91907W        W58448   9.646  39.850   1.226
91908W        W58449  35.055  35.521   4.716
91909W        W58450  36.772  12.256  12.026
91910W        W58451  40.906  24.726   2.198
91911W        W58452  34.795  13.829  10.800
91912W        W58453  20.006  25.615   2.915
91913W        W58454  35.864  32.834   4.561
91914W        W58455  27.877  10.280  13.588
91915W        W58456  19.114  13.321   0.331
91916W        W58457  39.447  41.592   2.181
91917W        W58458  38.592  25.247  13.887
91918W        W58459  19.768  22.069  12.418
91919W        W58460  13.084  42.139   0.306
91920W        W58461   9.220   6.714   4.034
91921W        W58462  36.945  23.560   4.801
91922W        W58463  14.625  30.490  14.493
91923W        W58464   0.916   1.756   2.746
91924W        W58465  32.616  39.096   1.351
91925W        W58466  19.828  22.141   2.537
91926W        W58467   0.430  43.252   3.277
91927W        W58468  32.594  31.383  13.222
91928W        W58469  25.772  44.239  13.470
91929W        W58470  22.558  37.051  14.274
91930W        W58471   3.398  18.126  12.068
91931W        W58472  15.618   3.715   2.202
91932W        W58473  15.110  34.169  10.752
91933W        W58474  31.925   7.466  14.407
91934W        W58475  16.936  43.581   4.741
91935W        W58476  40.532  38.507  14.296
91936W        W58477  17.046  15.104  13.802
91937W        W58478  24.701  42.159  14.891
91938W        W58479  20.844  13.754   1.744
91939W        W58480  25.217  34.670   1.470
91940W        W58481  10.445  27.999  11.055
91941W        W58482   2.727  33.454   0.226
91942W        W58483  33.303  24.953   4.172
91943W        W58484   3.949   3.393   3.700
91944W        W58485  23.068  33.914   1.127
91945W        W58486  32.669  12.784   2.809
91946W        W58487  42.623  19.597   1.864
91947W        W58488  19.029  43.690   4.135
91948W        W58489  33.383   3.399   0.671
91949W        W58490   4.764  35.071   0.140
91950W        W58491  39.840  13.204  13.076
91951W        W58492  34.349   7.507  12.063
91952W        W58493   0.760  39.879  12.084
91953W        W58494  25.164  44.096   2.948
91954W        W58495  13.806  22.473   0.995
91955W        W58496   4.680  13.106   0.327
91956W        W58497  16.149  42.873  14.920
91957W        W58498  14.601   5.242   2.345
91958W        W58499   8.701  40.924  12.141
91959W        W58500  16.377  12.428   3.255
91960W        W58501  41.402  16.497   1.731
91961W        W58502  22.343  17.808   4.107
91962W        W58503  34.163   7.331  14.848
91963W        W58504  10.160   2.253  13.046
91964W        W58505  15.352   1.618   4.032
91965W        W58506   2.769  24.290   2.268
91966W        W58507   7.726  14.374  12.109
91967W        W58508  33.689  27.592  13.406
91968W        W58509   8.692  11.048  13.973
91969W        W58510   8.185  18.969   2.944
91970W        W58511  33.464   5.868  11.657
91971W        W58512  36.812  16.568   0.199
91972W        W58513   1.788  37.465   2.332
91973W        W58514  18.502  21.659  14.935
91974W        W58515  24.250  31.731   4.736
91975W        W58516  27.077   5.240  14.036
91976W        W58517  28.211  21.642  10.548
91977W        W58518  15.703  37.386  10.120
91978W        W58519  35.735  28.668  12.504
91979W        W58520  21.026  15.952   3.521
91980W        W58521  14.379   1.571   4.959
91981W        W58522   2.939   8.680   2.497
91982W        W58523  42.947  18.731   3.341
91983W        W58524  15.910  17.290   1.866
91984W        W58525  28.207  38.803  13.826
91985W        W58526  11.317  20.129   3.818
91986W        W58527   7.973   6.665  14.271
91987W        W58528  42.813  27.357  13.875
91988W        W58529  31.548  31.416  12.363
91989W        W58530  21.589  25.805  10.720
91990W        W58531  18.454  29.865  11.161
91991W        W58532  31.885  24.676   2.243
91992W        W58533  34.014   4.804  12.537
91993W        W58534  21.207  32.826   3.341
91994W        W58535  24.981  30.484   4.366
91995W        W58536  13.138  23.209  14.363
91996W        W58537  23.728  43.016   4.377
91997W        W58538  14.603  34.385  11.171
91998W        W58539   4.331   7.240   1.741
91999W        W58540  34.990  10.273  10.840
92000W        W58541  33.799  26.511   3.271
92001W        W58542   7.144  25.681   4.147
92002W        W58543   1.718  10.141  12.500
92003W        W58544  35.808  26.633  14.475
92004W        W58545  36.842  22.514   4.813
92005W        W58546   7.105   3.898   3.770
92006W        W58547  18.624  10.267   0.240
92007W        W58548  17.210   0.868  12.818
92008W        W58549  18.164   0.226   2.193
92009W        W58550  14.671  37.952   0.345
92010W        W58551  26.448  32.008   0.512
92011W        W58552   4.298  18.282   2.062
92012W        W58553  14.299  44.799  13.475
92013W        W58554  39.891   6.237   1.930
92014W        W58555  35.424   2.519  14.388
92015W        W58556  33.569  10.424   1.619
92016W        W58557  32.857  24.082  10.647
92017W        W58558  30.828  32.265   0.587
92018W        W58559  41.334   0.456   2.467
92019W        W58560  40.940  19.255  13.581
92020W        W58561  10.859   7.358  12.585
92021W        W58562   9.583  15.025   2.975
92022W        W58563   9.174  28.916  12.005
92023W        W58564  20.083  13.277   3.258
92024W        W58565   0.311  41.859  11.983
92025W        W58566  22.793  42.635  10.016
92026W        W58567  33.185  15.966  11.060
92027W        W58568  10.157  30.197  14.955
92028W        W58569  10.276  33.142  13.882
92029W        W58570  22.244  25.210  10.488
92030W        W58571  30.638  39.826  13.846
92031W        W58572  34.326  44.825   4.613
92032W        W58573  29.885  11.844  13.464
92033W        W58574   6.715  24.583   3.258
92034W        W58575  19.009  21.059   2.406
92035W        W58576   1.296  16.871  13.369
92036W        W58577  10.156   8.403   4.444
92037W        W58578   2.043   1.496  14.301
92038W        W58579  11.814  44.507  11.317
92039W        W58580  42.277  30.728   3.757
92040W        W58581  10.826  34.022   3.694
92041W        W58582   6.167  23.348  12.048
92042W        W58583  13.066  10.071   3.531
92043W        W58584   2.180  44.434   0.195
92044W        W58585  41.821  10.135  10.965
92045W        W58586  32.554  10.970  14.835
92046W        W58587   2.675  35.808  14.320
92047W        W58588  44.560  31.102   1.449
92048W        W58589  10.280  40.489  14.326
92049W        W58590  40.801  28.559   0.385
92050W        W58591  36.894  27.241  11.146
92051W        W58592   4.995  22.224   2.780
92052W        W58593  14.141   8.151   4.584
92053W        W58594  27.049   1.302   3.418
92054W        W58595  11.263  32.685   0.247
92055W        W58596  37.125  35.845   2.850
92056W        W58597   0.805  20.839  11.025
92057W        W58598  36.264   6.234  12.046
92058W        W58599  41.976  30.285  11.188
92059W        W58600  37.814  18.140   5.016
92060W        W58601  31.618  38.698  12.665
92061W        W58602  17.112  44.747  11.081
92062W        W58603  20.178  29.523  14.809
92063W        W58604  34.605  14.253  10.588
92064W        W58605   9.129  30.178  13.783
92065W        W58606   7.538  22.836   3.250
92066W        W58607   9.391   5.683  10.906
92067W        W58608  15.336   5.646   1.379
92068W        W58609  35.106  10.298   3.150
92069W        W58610   1.874  22.528   0.465
92070W        W58611  26.462  39.569   3.708
92071W        W58612  19.499  35.118  11.174
92072W        W58613   6.527  18.623  14.049
92073W        W58614  16.313   3.633   0.837
92074W        W58615  32.460  32.832  14.964
92075W        W58616  41.468  12.654   1.735
92076W        W58617   9.313  17.789   4.555
92077W        W58618   0.473  39.102   2.701
92078W        W58619  39.138  17.942  14.497
92079W        W58620  42.414  10.268   3.305
92080W        W58621  33.612  10.832   0.298
92081W        W58622  37.901  36.322   3.128
92082W        W58623  34.940  42.073   3.220
92083W        W58624   5.363  28.981  11.611
92084W        W58625  44.756  20.557   0.918
92085W        W58626  19.887  12.755  10.276
92086W        W58627  19.292  15.712  13.545
92087W        W58628  23.110   5.781   3.107
92088W        W58629  20.669  32.692  11.772
92089W        W58630   3.947  35.666  12.057
92090W        W58631  10.292  30.137  11.343
92091W        W58632  20.006  34.348  13.295
92092W        W58633  35.386   1.936  13.603
92093W        W58634   9.255  36.157   2.071
92094W        W58635  29.286  13.320  12.698
92095W        W58636  31.031  11.583  10.608
92096W        W58637  31.887   7.425   9.935
92097W        W58638   0.314  11.917  10.355
92098W        W58639  13.039  39.742  12.027
92099W        W58640  27.615  39.031  12.932
92100W        W58641  32.673  34.926   1.262
92101W        W58642  38.368  25.880   0.328
92102W        W58643   2.446  13.423  14.313
92103W        W58644  34.473  27.728   2.399
92104W        W58645   5.421  31.118   3.056
92105W        W58646  39.687  26.875   1.980
92106W        W58647   2.120  14.188  12.978
92107W        W58648  30.849  26.752  10.684
92108W        W58649  37.527   4.714   0.572
92109W        W58650  39.967  10.487   1.840
92110W        W58651  29.628  42.256  11.631
92111W        W58652   8.638   1.361   3.314
92112W        W58653  13.555  22.939   3.166
92113W        W58654  44.763   8.100  11.832
92114W        W58655  21.481  36.592   0.007
92115W        W58656  40.296  12.705   3.123
92116W        W58657  34.105  11.600  14.750
92117W        W58658  44.526  44.808   3.213
92118W        W58659  30.102  19.556   4.580
92119W        W58660   4.157  25.056   1.126
92120W        W58661   5.792  43.655  11.672
92121W        W58662  37.261  19.222  11.610
92122W        W58663  20.216   5.867   3.128
92123W        W58664  11.003  22.205  12.541
92124W        W58665  20.103  24.584   0.804
92125W        W58666   5.893  40.408  14.483
92126W        W58667  10.453  20.947   3.160
92127W        W58668  31.614  33.555  12.071
92128W        W58669  13.468  39.961   4.392
92129W        W58670   9.127  31.478  12.519
92130W        W58671  16.757  22.228  12.496
92131W        W58672   9.869   1.750  11.481
92132W        W58673  28.533  25.121  12.784
92133W        W58674  19.235  15.523   2.773
92134W        W58675  27.019  39.935   1.225
92135W        W58676  15.657  20.489  11.592
92136W        W58677  16.710   0.686   3.632
92137W        W58678  44.698   1.385  11.731
92138W        W58679   0.664  12.607  10.332
92139W        W58680  25.861   7.457   0.863
92140W        W58681  44.682  42.832   4.910
92141W        W58682  20.948  24.477  13.678
92142W        W58683  26.202  14.695   3.740
92143W        W58684  12.615  39.466   3.636
92144W        W58685  44.365  32.197   2.319
92145W        W58686  10.712   9.591   4.603
92146W        W58687  42.937  24.574  12.142
92147W        W58688  38.830   8.852  12.528
92148W        W58689  42.775  30.034   3.593
92149W        W58690   5.174  29.032  14.757
92150W        W58691  21.471  34.392   0.009
92151W        W58692  33.662   6.293   2.714
92152W        W58693  19.229  10.028   1.830
92153W        W58694  20.080  17.486   2.721
92154W        W58695   5.606   6.745  12.580
92155W        W58696  17.526  15.214  13.980
92156W        W58697   3.933  14.165  11.692
92157W        W58698   8.213  32.185  13.876
92158W        W58699   1.517  23.281  11.464
92159W        W58700   2.577  12.366   0.419
92160W        W58701   3.020  26.786   1.353
92161W        W58702  27.380  31.958   4.541
92162W        W58703  41.415  39.900  14.393
92163W        W58704  43.456  30.753   4.925
92164W        W58705   7.287  19.648   1.836
92165W        W58706   2.261  39.330   0.205
92166W        W58707  31.571   1.806   3.266
92167W        W58708  23.099  35.815   2.766
92168W        W58709   1.909  28.424   2.792
92169W        W58710  15.650   6.302  11.865
92170W        W58711  35.444  30.446  13.487
92171W        W58712   4.207   2.975   2.758
92172W        W58713  33.568  20.543   1.712
92173W        W58714  10.451  18.655  12.903
92174W        W58715  16.165  41.005   4.552
92175W        W58716   5.417   4.682  14.797
92176W        W58717  23.988  12.174  12.603
92177W        W58718  21.068   2.821  12.568
92178W        W58719  11.178   4.512   3.840
92179W        W58720  43.466   9.455  10.947
92180W        W58721   2.563  32.670  11.389
92181W        W58722  18.987   9.592  12.001
92182W        W58723   2.272  42.784   1.815
92183W        W58724   6.943  42.121  11.962
92184W        W58725  21.542  24.012  10.717
92185W        W58726  31.536  43.520   4.624
92186W        W58727  35.233   4.194  14.901
92187W        W58728  30.943   2.708  14.319
92188W        W58729  25.233  22.569  14.781
92189W        W58730  38.312  11.882  13.112
92190W        W58731  26.248  10.795  10.383
92191W        W58732  31.034  12.931  12.013
92192W        W58733  31.166  44.826  13.372
92193W        W58734  33.913  22.527   3.705
92194W        W58735   8.961  10.223   3.615
92195W        W58736  37.093  11.200  12.840
92196W        W58737  32.418   4.881   2.303
92197W        W58738  40.423  35.035   0.462
92198W        W58739  32.014  36.416   0.380
92199W        W58740  23.089  15.070  14.564
92200W        W58741   7.456  34.680  13.359
92201W        W58742  32.590  30.980   4.666
92202W        W58743   1.990  15.651   1.152
92203W        W58744  15.153  16.260   1.698
92204W        W58745  39.358  27.604   0.969
92205W        W58746   3.898  12.932   4.362
92206W        W58747   2.033  20.769   4.185
92207W        W58748  37.915  34.145   0.298
92208W        W58749  37.519  42.930   0.252
92209W        W58750  26.535  16.995  14.298
92210W        W58751  10.284  38.906   1.316
92211W        W58752   5.680  16.795   4.932
92212W        W58753  19.097  41.171   3.781
92213W        W58754  29.513  43.455  13.967
92214W        W58755  17.979  24.033  14.039
92215W        W58756   3.165  43.534   2.213
92216W        W58757  27.937  25.540  13.807
92217W        W58758  20.163  34.102  12.856
92218W        W58759  43.875  21.546  11.499
92219W        W58760  41.504  30.414  12.607
92220W        W58761  28.064  38.056  11.080
92221W        W58762  33.935  10.744  13.135
92222W        W58763  40.575  23.285  11.117
92223W        W58764  36.861   7.162   2.863
92224W        W58765  29.476  34.075  11.644
92225W        W58766  24.996  16.872   0.078
92226W        W58767  23.472   8.746  11.282
92227W        W58768  12.660  29.042  14.928
92228W        W58769  43.879   3.044  14.679
92229W        W58770  25.756   8.191   3.687
92230W        W58771   3.096  16.816  10.355
92231W        W58772  31.180  26.639   2.136
92232W        W58773  23.275  32.850  11.566
92233W        W58774  33.008  30.635   1.455
92234W        W58775  22.032  13.456   2.452
92235W        W58776  24.201  11.121   1.162
92236W        W58777  19.859  39.328  11.180
92237W        W58778   3.963  21.445   0.744
92238W        W58779   7.883  25.181   2.181
92239W        W58780   3.862  12.345   3.171
92240W        W58781  10.791  24.469  14.036
92241W        W58782  17.576   4.678  12.990
92242W        W58783  37.624  23.498  11.213
92243W        W58784  24.414   4.865  11.736
92244W        W58785  24.160  22.200  12.883
92245W        W58786   9.810  41.456   1.596
92246W        W58787   5.279  30.066   4.168
92247W        W58788  21.716   4.677   0.428
92248W        W58789  36.938  16.680   2.102
92249W        W58790  43.010   2.954  11.087
92250W        W58791  33.877  18.541  11.148
92251W        W58792   8.544  25.020  11.098
92252W        W58793  15.842   3.093  13.765
92253W        W58794  34.498  39.566   2.695
92254W        W58795   5.266  41.599   1.738
92255W        W58796  29.598   2.164  14.952
92256W        W58797  22.157  30.550  10.922
92257W        W58798   3.207  10.614   4.146
92258W        W58799  33.242  37.878   1.610
92259W        W58800  43.607  20.608   4.753
92260W        W58801  28.445   2.653  13.569
92261W        W58802   6.329  27.730  12.067
92262W        W58803  44.021  15.054   3.167
92263W        W58804   9.602  43.746   0.952
92264W        W58805  20.377  43.616   3.328
92265W        W58806  20.157  39.423   2.164
92266W        W58807  38.954   0.185  13.123
92267W        W58808  34.430   6.329  13.071
92268W        W58809  12.855   6.264  14.339
92269W        W58810  13.254  30.823   0.444
92270W        W58811  16.635  16.149  12.110
92271W        W58812  42.556  19.626  11.462
92272W        W58813  42.856  30.196  12.573
92273W        W58814  19.168  20.635   0.250
92274W        W58815  16.094  19.813  13.482
92275W        W58816  22.572  24.360  11.569
92276W        W58817  15.127   6.901   1.449
92277W        W58818  30.941  36.390   4.087
92278W        W58819  40.963   9.791  12.399
92279W        W58820  23.032   6.910   0.936
92280W        W58821  15.703  14.602   1.277
92281W        W58822  42.889  22.704   4.663
92282W        W58823  20.314  31.591   4.698
92283W        W58824  38.810  34.927  10.741
92284W        W58825  30.451  31.219   4.050
92285W        W58826   1.376  33.427   3.605
92286W        W58827  43.627  16.199  14.934
92287W        W58828  14.387   5.403  12.663
92288W        W58829  42.882  22.019  13.942
92289W        W58830  27.570  22.753   4.640
92290W        W58831  23.023   4.735   0.985
92291W        W58832  38.429  36.026  12.931
92292W        W58833   0.059   3.382   2.210
92293W        W58834  15.041   3.450   3.091
92294W        W58835  14.417   4.559   3.645
92295W        W58836  28.961  33.933   0.493
92296W        W58837  35.954  43.535   3.563
92297W        W58838  19.639   1.422  11.703
92298W        W58839   7.605  25.271  11.043
92299W        W58840  13.847   4.968  12.563
92300W        W58841  24.848  25.698   1.294
92301W        W58842  12.766   7.239   1.701
92302W        W58843  14.691  39.972   1.374
92303W        W58844  15.125  26.099   1.442
92304W        W58845   7.259  27.936  14.484
92305W        W58846   3.697  25.574  13.439
92306W        W58847  14.042   2.400   3.342
92307W        W58848  33.617  22.644   4.534
92308W        W58849  16.403  16.901  11.570
92309W        W58850  13.034   5.354   4.622
92310W        W58851  31.065  41.411   1.197
92311W        W58852  38.068  15.610  12.722
92312W        W58853  32.065  34.065  12.417
92313W        W58854  36.289   4.395   4.334
92314W        W58855  29.499  42.993  12.761
92315W        W58856  39.039  43.453   0.104
92316W        W58857  37.661   2.508  10.934
92317W        W58858  23.166   8.329   2.857
92318W        W58859  28.152  42.455   0.864
92319W        W58860  22.309  24.912   0.807
92320W        W58861  35.846  36.820   1.305
92321W        W58862  29.740  40.115  14.257
92322W        W58863  11.695  22.782   3.238
92323W        W58864  10.876  42.006  13.378
92324W        W58865  26.989  41.721   1.805
92325W        W58866  23.676  41.690  14.817
92326W        W58867  27.651  22.620   2.790
92327W        W58868   7.706  16.810  13.982
92328W        W58869  40.808  38.086   4.620
92329W        W58870  21.455  15.781  10.706
92330W        W58871   4.883  38.339   0.539
92331W        W58872  29.665  43.571   1.722
92332W        W58873  34.579   1.450   1.921
92333W        W58874  13.865  34.180  14.371
92334W        W58875  31.084  14.165  12.928
92335W        W58876  28.650  13.554  11.987
92336W        W58877  10.194  26.667   4.186
92337W        W58878  30.958  30.726   3.224
92338W        W58879  43.479  34.967  14.038
92339W        W58880  38.496  18.820  13.893
92340W        W58881  22.411  44.785   0.289
92341W        W58882  16.538  35.514   3.639
92342W        W58883  27.962  13.555  12.466
92343W        W58884  18.344  14.899   2.771
92344W        W58885  28.037  44.219   9.956
92345W        W58886  18.960  23.718  13.927
92346W        W58887  26.584  23.713  11.160
92347W        W58888  26.113  30.036   3.578
92348W        W58889   8.295   7.474   3.220
92349W        W58890  40.914  11.846   0.732
92350W        W58891  11.122  16.621   0.388
92351W        W58892  44.398   1.960   1.176
92352W        W58893  29.638   1.365   3.333
92353W        W58894  20.942   5.704   2.813
92354W        W58895  10.944  34.931   1.786
92355W        W58896  15.306  14.614  10.575
92356W        W58897  41.538  25.574   0.697
92357W        W58898  42.854  25.523  14.569
92358W        W58899  39.836  26.506  12.589
92359W        W58900  38.922  39.094  14.971
92360W        W58901  32.670  16.526   2.883
92361W        W58902  27.165  25.111  13.611
92362W        W58903  21.564  31.536   0.382
92363W        W58904  29.654  18.743  11.052
92364W        W58905   6.326   6.262   3.733
92365W        W58906  37.225  41.625   3.358
92366W        W58907  30.151   7.874   3.243
92367W        W58908  11.932  10.307   0.106
92368W        W58909   1.683  11.165   4.572
92369W        W58910  40.195  39.742   2.772
92370W        W58911  41.993  22.663   4.400
92371W        W58912  31.546   5.076   3.660
92372W        W58913  37.902  26.153  14.721
92373W        W58914  20.378  39.419  14.837
92374W        W58915   1.598  31.343  12.108
92375W        W58916  21.634  13.302   4.143
92376W        W58917   3.387   1.381  13.247
92377W        W58918  40.331  19.981   3.505
92378W        W58919  20.022   6.147  10.723
92379W        W58920  25.169  14.421  12.096
92380W        W58921  14.254  41.147   3.241
92381W        W58922   7.319  20.342   4.245
92382W        W58923  42.262  12.405  12.050
92383W        W58924  42.942   5.594  11.065
92384W        W58925   0.966  21.075  13.445
92385W        W58926  17.021  18.080  12.483
92386W        W58927  38.806  25.675  12.328
92387W        W58928  40.510  11.375  11.173
92388W        W58929   7.958   2.913  10.677
92389W        W58930   4.363   4.330   4.214
92390W        W58931  21.669  44.343   2.140
92391W        W58932   5.474   1.928  13.316
92392W        W58933  33.508  30.535  13.385
92393W        W58934  32.600  23.801  14.987
92394W        W58935  29.039   9.780   1.257
92395W        W58936  41.097  27.997  10.606
92396W        W58937  12.146  20.163   1.432
92397W        W58938  18.427   1.439   0.848
92398W        W58939  18.039  40.468  10.953
92399W        W58940  13.094  35.972   2.879
92400W        W58941  22.418  18.625  14.803
92401W        W58942  39.387   6.389  12.197
92402W        W58943  31.450  22.585   0.839
92403W        W58944  33.831   6.243  10.534
92404W        W58945   9.440  32.973  13.458
92405W        W58946   2.294  12.977   3.196
92406W        W58947   4.949   8.404   1.030
92407W        W58948  32.562  16.294   0.688
92408W        W58949  23.252  38.054  12.037
92409W        W58950  38.508  37.799  14.769
92410W        W58951  33.145  39.604  12.850
92411W        W58952  39.082  41.958  13.138
92412W        W58953   5.365  28.195   0.991
92413W        W58954   8.961  12.192   1.158
92414W        W58955   3.501  10.645   3.716
92415W        W58956  38.973  30.058   4.404
92416W        W58957  38.319  13.764   3.578
92417W        W58958  14.369  28.499   4.093
92418W        W58959  39.780  36.918   3.314
92419W        W58960  20.269   7.286   3.841
92420W        W58961   5.542  33.977   9.458
92421W        W58962  40.488  26.658  11.029
92422W        W58963   1.284  12.343  14.958
92423W        W58964  42.815  25.102  11.486
92424W        W58965   9.335   7.376  11.007
92425W        W58966  12.425  41.722   4.075
92426W        W58967  14.315   6.680   0.866
92427W        W58968   5.308  39.071   3.966
92428W        W58969  35.998  42.552   1.957
92429W        W58970  29.015  21.147  10.632
92430W        W58971  18.995  35.624   1.937
92431W        W58972  18.136  14.315   3.608
92432W        W58973  13.712  36.878  14.799
92433W        W58974  44.525  15.563  11.226
92434W        W58975  11.157   1.685  13.471
92435W        W58976  44.396  19.016  12.056
92436W        W58977  44.890  10.695  14.739
92437W        W58978  28.998  17.062  13.543
92438W        W58979   4.205  29.496  14.356
92439W        W58980  28.019  18.182  10.672
92440W        W58981  10.760  12.930   4.153
92441W        W58982  27.890  18.040  14.892
92442W        W58983   8.833  12.907   1.829
92443W        W58984  16.199   5.617   0.522
92444W        W58985  16.164   0.937   0.938
92445W        W58986  12.227  31.523  13.875
92446W        W58987  21.934  33.713   1.899
92447W        W58988  18.703  17.070   0.431
92448W        W58989  34.098  14.718   2.183
92449W        W58990   1.695   1.119  14.285
92450W        W58991  26.483  17.751   3.219
92451W        W58992  13.654  16.328  11.928
92452W        W58993  26.507  36.435   1.709
92453W        W58994   6.690  29.662   1.405
92454W        W58995  33.053  43.855   1.092
92455W        W58996  13.716  24.166   3.187
92456W        W58997  23.555  39.026  14.900
92457W        W58998  35.868  41.541  12.511
92458W        W58999  31.505  24.037   1.409
92459W        W59000  24.040  17.741  13.855
92460W        W59001  30.144  14.833  13.447
92461W        W59002  34.307   1.814   3.284
92462W        W59003  27.117   4.533   1.435
92463W        W59004  17.041  21.299   3.318
92464W        W59005   1.370  18.334  13.589
92465W        W59006   9.548  11.838   4.581
92466W        W59007  27.288  36.881  13.087
92467W        W59008   9.265  39.496   3.536
92468W        W59009  37.565  40.890  10.904
92469W        W59010  24.168  11.259  12.821
92470W        W59011   2.636  24.508   5.227
92471W        W59012  30.021  37.290  14.466
92472W        W59013   2.896  20.599   2.181
92473W        W59014  30.610  44.847  13.238
92474W        W59015  42.749  33.525  12.662
92475W        W59016  31.296   8.906   1.381
92476W        W59017  11.516  17.672   0.386
92477W        W59018  36.547  32.361  10.712
92478W        W59019  37.002  13.199  14.812
92479W        W59020   1.367  42.970   2.689
92480W        W59021   4.605  36.406  14.307
92481W        W59022  35.255  13.679  10.639
92482W        W59023  29.063  12.791   1.221
92483W        W59024  41.945  24.631  10.706
92484W        W59025  40.729  14.769   3.026
92485W        W59026  22.991  36.927   3.133
92486W        W59027  18.064  32.935   9.935
92487W        W59028  11.714  30.907   3.648
92488W        W59029   7.943  33.703  10.298
92489W        W59030  19.050  31.809  10.357
92490W        W59031  30.128  31.683   0.645
92491W        W59032  41.568  10.017   3.805
92492W        W59033   0.150   5.679   0.346
92493W        W59034  37.353  12.986  11.642
92494W        W59035  30.249  41.624   2.421
92495W        W59036  25.633  33.682  10.776
92496W        W59037  41.075   8.505  12.431
92497W        W59038  10.902  21.523   0.136
92498W        W59039  37.677   2.113   9.791
92499W        W59040   4.142  12.678  14.333
92500W        W59041   4.526  21.277   2.088
92501W        W59042  17.078  27.644   4.228
92502W        W59043  15.843  44.870   0.004
92503W        W59044  24.329   4.631   4.831
92504W        W59045  41.319  36.174   4.201
92505W        W59046  24.936   4.302   4.621
92506W        W59047   7.442  14.862   1.231
92507W        W59048  42.586  32.972   1.948
92508W        W59049  20.810  22.909  11.977
92509W        W59050  42.714  20.402  11.051
92510W        W59051   1.796  30.909  14.839
92511W        W59052  18.821  43.437  14.571
92512W        W59053  39.511   4.233  13.972
92513W        W59054   6.088   5.867   1.377
92514W        W59055  44.241  27.437  13.244
92515W        W59056  10.147  16.658  14.910
92516W        W59057  21.097  30.883   3.322
92517W        W59058  44.179  25.190   5.164
92518W        W59059  43.888  26.489  13.556
92519W        W59060  43.808  23.972  12.041
92520W        W59061  24.294  21.654   0.525
92521W        W59062  28.679   2.399  10.769
92522W        W59063   4.579   8.421   4.919
92523W        W59064   1.032  10.214   1.335
92524W        W59065  42.284  28.973  14.406
92525W        W59066  19.340  44.821   2.269
92526W        W59067  33.153  39.878   1.450
92527W        W59068   6.623   1.415  12.824
92528W        W59069  22.239  34.996   1.628
92529W        W59070  29.780  26.090   3.219
92530W        W59071  19.746  37.304  11.611
92531W        W59072  41.041   0.706  12.149
92532W        W59073  19.342  17.485   2.189
92533W        W59074  38.530   4.660  14.945
92534W        W59075  18.676  28.973   2.312
92535W        W59076  25.664  21.279  12.436
92536W        W59077  24.561  27.688  10.708
92537W        W59078  29.469   7.230   5.032
92538W        W59079   6.392   6.300   1.316
92539W        W59080  42.848   8.007  12.037
92540W        W59081   3.195   1.657  13.997
92541W        W59082   9.467  41.292  12.153
92542W        W59083   4.212  15.069   4.526
92543W        W59084  30.864  26.080  11.165
92544W        W59085  39.637  12.596  13.723
92545W        W59086  40.855  33.196   2.703
92546W        W59087  16.507  27.995   1.287
92547W        W59088  12.414  16.593   2.863
92548W        W59089  17.019   3.478   2.692
92549W        W59090  27.920   1.627   2.981
92550W        W59091  18.640   7.834   2.157
92551W        W59092  24.683   7.812  13.983
92552W        W59093  36.805  31.458   0.245
92553W        W59094  36.449  12.881  14.086
92554W        W59095  39.850  21.997   1.693
92555W        W59096   2.936  20.105   1.835
92556W        W59097  39.578  13.704   3.170
92557W        W59098  28.900  24.958   4.217
92558W        W59099  40.462  23.863   5.008
92559W        W59100  43.958  18.841  11.857
92560W        W59101  15.262  31.135  10.715
92561W        W59102  43.235  42.950  11.131
92562W        W59103  13.113   7.362  10.508
92563W        W59104  31.458   5.492  14.063
92564W        W59105  12.714  18.509   4.612
92565W        W59106   9.178   3.552   1.668
92566W        W59107  33.984  12.494  14.261
92567W        W59108  23.931  13.987   3.364
92568W        W59109  26.483  24.773   2.749
92569W        W59110  30.524  44.708   2.692
92570W        W59111  20.717  14.624  13.993
92571W        W59112   1.922  44.272  12.340
92572W        W59113  14.672   6.191  14.903
92573W        W59114  41.299  19.769  12.930
92574W        W59115   5.765  34.053  10.369
92575W        W59116  30.105  22.419   1.288
92576W        W59117  22.013  18.286  12.809
92577W        W59118  23.148  16.801   4.226
92578W        W59119  10.705  11.452   0.159
92579W        W59120   7.939  24.475   1.757
92580W        W59121  37.334  31.267  12.846
92581W        W59122  39.972  23.989   0.010
92582W        W59123   4.671  36.271   1.221
92583W        W59124  28.159  31.971  14.319
92584W        W59125  28.919  32.127   0.320
92585W        W59126  24.670  11.320  12.648
92586W        W59127  33.674  12.857   1.772
92587W        W59128  31.878  24.206  14.397
92588W        W59129  43.985  25.606   0.627
92589W        W59130  19.016  12.207  11.609
92590W        W59131  17.223  41.424  13.508
92591W        W59132  15.273  19.251   1.340
92592W        W59133  17.843   3.960   1.863
92593W        W59134  25.848   1.887  13.755
92594W        W59135  19.263   6.213   4.705
92595W        W59136  34.074  18.176   4.776
92596W        W59137  42.858  12.997   3.842
92597W        W59138  34.941  11.416  11.065
92598W        W59139   4.743  17.242   1.210
92599W        W59140  18.020  17.784  14.744
92600W        W59141  32.411  20.382  14.400
92601W        W59142  36.919  14.698   2.967
92602W        W59143  24.665  44.370   4.588
92603W        W59144  35.738   9.731   4.402
92604W        W59145  12.282  27.679  12.317
92605W        W59146  19.130  23.599   0.262
92606W        W59147  11.709  16.540  10.062
92607W        W59148   1.559  18.216  13.112
92608W        W59149  35.859   0.383  14.370
92609W        W59150   3.378   4.515  11.982
92610W        W59151  39.963  18.542   0.413
92611W        W59152  11.310  34.268  13.134
92612W        W59153  24.972  44.962  11.923
92613W        W59154  25.763   6.617  14.780
92614W        W59155  22.148  25.648   2.216
92615W        W59156  22.106   5.971  11.265
92616W        W59157   9.261   7.299  12.305
92617W        W59158   2.229   4.105   3.609
92618W        W59159  39.151   2.444  12.151
92619W        W59160  26.159  12.187   1.967
92620W        W59161  38.266  30.093   5.109
92621W        W59162  37.428  20.779   1.931
92622W        W59163  43.451   5.800   3.262
92623W        W59164  35.975  28.091   1.192
92624W        W59165  17.518  40.386   3.179
92625W        W59166  37.338   9.663  14.794
92626W        W59167  37.114  31.552   3.568
92627W        W59168  16.191  41.713   2.745
92628W        W59169  18.164  38.288   0.807
92629W        W59170  25.567  25.346  14.196
92630W        W59171  10.366  17.257  11.891
92631W        W59172  41.969   6.094   2.282
92632W        W59173  11.095  43.453   0.183
92633W        W59174  39.852  22.770   3.322
92634W        W59175  31.739  22.437   2.206
92635W        W59176  36.314   5.502   2.817
92636W        W59177  24.927  44.474  12.578
92637W        W59178  28.014  23.134   1.313
92638W        W59179   9.637  16.621  14.947
92639W        W59180  32.618   1.663  13.429
92640W        W59181  11.657  36.446   0.722
92641W        W59182   8.856  37.000   4.708
92642W        W59183  42.310  20.959  13.359
92643W        W59184  41.805  22.382   1.702
92644W        W59185  16.301   3.312   3.970
92645W        W59186  26.132  27.434   3.366
92646W        W59187  30.358   9.245   3.733
92647W        W59188  27.014   0.318  14.339
92648W        W59189   7.738  31.664  11.987
92649W        W59190  30.139  31.402  13.271
92650W        W59191  15.304   1.808  13.985
92651W        W59192   9.514  21.454   2.780
92652W        W59193  43.721  31.574   1.246
92653W        W59194  41.702  24.320  14.323
92654W        W59195  13.831  10.669   0.306
92655W        W59196  25.156  13.335   2.889
92656W        W59197  41.361   2.198  12.466
92657W        W59198  33.821  23.514   2.986
92658W        W59199  10.795  30.378  12.907
92659W        W59200   5.196   8.869   3.167
92660W        W59201  24.740  34.972   4.314
92661W        W59202  25.521  36.910  13.782
92662W        W59203   8.142   0.730   2.826
92663W        W59204  36.125   0.748   1.369
92664W        W59205  28.489  13.280   3.288
92665W        W59206  36.047   3.747   0.690
92666W        W59207  31.778  35.838  14.468
92667W        W59208   7.542  32.135  13.100
92668W        W59209   8.178  14.314  10.923
92669W        W59210  42.526  32.092   2.573
92670W        W59211  12.868  35.403   3.756
92671W        W59212  35.186  23.656  14.259
92672W        W59213   1.268  42.870  11.414
92673W        W59214  16.257   0.064  11.506
92674W        W59215  33.594  34.779  10.694
92675W        W59216   6.462  17.289  12.609
92676W        W59217  41.111  26.332  12.459
92677W        W59218   4.313  40.926  10.415
92678W        W59219  35.906  37.499  14.599
92679W        W59220  43.274   1.345   0.819
92680W        W59221  10.628  15.497   2.818
92681W        W59222   4.411   2.922  11.198
92682W        W59223  41.117  17.095   4.689
92683W        W59224  13.238   1.853  14.566
92684W        W59225  15.130  10.800   2.303
92685W        W59226  44.207  39.134   0.333
92686W        W59227   1.946  31.671  13.966
92687W        W59228  35.618   3.707  11.527
92688W        W59229  10.404  32.410  11.496
92689W        W59230  37.600  36.932  12.278
92690W        W59231  12.422   9.064  12.855
92691W        W59232  11.624  17.168  14.232
92692W        W59233  29.954  10.109  14.002
92693W        W59234  17.031  39.389   2.262
92694W        W59235  27.551  44.049   4.561
92695W        W59236   4.435   5.267   0.900
92696W        W59237  11.291   8.826   2.578
92697W        W59238  28.405  44.474  10.627
92698W        W59239  38.937   2.969  10.287
92699W        W59240  25.144  17.777  11.976
92700W        W59241  18.741   3.835   4.123
92701W        W59242  19.242   3.224  14.278
92702W        W59243  10.099  28.864   3.670
92703W        W59244  24.078  15.834   0.453
92704W        W59245  38.720  44.769  12.917
92705W        W59246  11.475  40.303  12.429
92706W        W59247  37.315  19.162  12.485
92707W        W59248  24.391  42.480  11.210
92708W        W59249  35.453   2.208  11.737
92709W        W59250   2.788  35.622   2.880
92710W        W59251   2.475  41.988   2.821
92711W        W59252   0.218  31.560  13.936
92712W        W59253  25.182  33.135   4.250
92713W        W59254  25.740   1.390   0.014
92714W        W59255   7.273  26.479  11.707
92715W        W59256  42.202  30.750  11.044
92716W        W59257  26.262   1.578  11.598
92717W        W59258   1.411  33.450  11.213
92718W        W59259  35.801  12.949   4.382
92719W        W59260  37.983  37.071  10.951
92720W        W59261  23.498  24.894   2.791
92721W        W59262   0.808  29.054   2.140
92722W        W59263  22.190   2.767   3.701
92723W        W59264   4.675  29.347  11.631
92724W        W59265   8.184  26.218  14.078
92725W        W59266  42.953   6.881  14.561
92726W        W59267  36.974   4.424  11.201
92727W        W59268  18.274  25.512  10.765
92728W        W59269  27.148   6.181  11.557
92729W        W59270  33.041   0.024   2.868
92730W        W59271  17.575  26.906  14.859
92731W        W59272  32.666   7.278  11.023
92732W        W59273  23.549   2.420  14.281
92733W        W59274  31.610   2.224  13.364
92734W        W59275  31.137  44.468   5.149
92735W        W59276  33.100  32.202  11.526
92736W        W59277  32.353  26.442  14.806
92737W        W59278  22.496  25.881  11.733
92738W        W59279  13.303  18.400   3.565
92739W        W59280  11.101  39.221   5.702
92740W        W59281  28.093  17.135  10.675
92741W        W59282  15.571   7.753  13.355
92742W        W59283  36.673  40.843  10.877
92743W        W59284  38.491  13.281   9.933
92744W        W59285  20.144  40.756  14.467
92745W        W59286  43.328   6.771   3.214
92746W        W59287  10.729   0.342   2.359
92747W        W59288  39.518  23.812  11.376
92748W        W59289  16.309  10.583   1.676
92749W        W59290   2.506  15.877  14.981
92750W        W59291  34.442  37.220  14.489
92751W        W59292  22.063   7.953  14.507
92752W        W59293  31.135  40.289  12.185
92753W        W59294  39.457   1.020  13.262
92754W        W59295   1.963  36.399   3.350
92755W        W59296  37.322   4.096  11.772
92756W        W59297  42.310  26.524  11.451
92757W        W59298  40.381  43.456  10.889
92758W        W59299  14.203  27.607  10.700
92759W        W59300  43.287  17.657   0.126
92760W        W59301   2.721  16.537   3.153
92761W        W59302   1.340  17.178  12.448
92762W        W59303   4.009  43.841   1.205
92763W        W59304  32.049  44.815   0.966
92764W        W59305  26.172  30.969   0.969
92765W        W59306  27.466  32.696   4.137
92766W        W59307  12.162   0.204  13.688
92767W        W59308  20.171   9.687  13.556
92768W        W59309  19.296  10.244   3.321
92769W        W59310  26.518  30.170  13.953
92770W        W59311   5.063  35.931   1.220
92771W        W59312  23.234  29.407  11.066
92772W        W59313  19.060  11.541   3.137
92773W        W59314   9.678   8.598   4.545
92774W        W59315  28.464   5.345  12.901
92775W        W59316  44.256  42.354   4.295
92776W        W59317  25.999  13.034   4.197
92777W        W59318   2.810  26.429   0.419
92778W        W59319  43.019  22.044   3.648
92779W        W59320  14.995  44.582   4.164
92780W        W59321  41.528  38.803   1.749
92781W        W59322  33.046  34.039  13.827
92782W        W59323   0.291  28.826   0.410
92783W        W59324  27.204  21.709  12.516
92784W        W59325  32.941   1.803   0.730
92785W        W59326  44.337  34.544   2.530
92786W        W59327   3.438  10.050  14.331
92787W        W59328  15.551  19.121  13.027
92788W        W59329  39.952  15.864  10.286
92789W        W59330  20.184  43.728   0.492
92790W        W59331  21.652  35.059  13.382
92791W        W59332  19.562   9.070  12.717
92792W        W59333  44.079   3.193   4.321
92793W        W59334  42.925   1.451  13.763
92794W        W59335  22.280   3.245   5.326
92795W        W59336   7.286   9.919   1.029
92796W        W59337   4.442  42.089   2.901
92797W        W59338  44.262   8.002  13.474
92798W        W59339  31.468  18.235  11.622
92799W        W59340   8.308  35.403  14.211
92800W        W59341  20.451  29.406   0.231
92801W        W59342  24.217  18.647  12.854
92802W        W59343   8.964  42.921  14.764
92803W        W59344  44.048   7.237  10.569
92804W        W59345   2.183  19.976  11.534
92805W        W59346  43.883  28.111  14.391
92806W        W59347  26.962   4.275  10.760
92807W        W59348  13.560  36.372  14.919
92808W        W59349  31.333   9.795   2.657
92809W        W59350   1.393  35.649  11.917
92810W        W59351  30.070  40.486   1.277
92811W        W59352  35.936  22.489  13.407
92812W        W59353  30.734  43.787  12.306
92813W        W59354  29.641   4.860  11.073
92814W        W59355  22.903   7.505   9.807
92815W        W59356   8.719  11.580   3.251
92816W        W59357  24.999  27.520   4.174
92817W        W59358   1.455  17.301   3.274
92818W        W59359  28.142  13.780  12.029
92819W        W59360  18.935  19.297   1.137
92820W        W59361  18.305   8.118  12.732
92821W        W59362  44.984   3.791  12.922
92822W        W59363   2.280  20.227   1.634
92823W        W59364   7.830  15.263   0.474
92824W        W59365  29.558   6.671  10.901
92825W        W59366  42.642  17.049   4.656
92826W        W59367  11.289  27.646  13.328
92827W        W59368   7.079  27.366   1.200
92828W        W59369   3.473   0.325  13.518
92829W        W59370  18.778   8.498   0.830
92830W        W59371   6.169  11.262   2.664
92831W        W59372  12.735   1.875   0.406
92832W        W59373   6.455  35.660  11.543
92833W        W59374   5.196  42.998   2.417
92834W        W59375  14.332  43.139   2.050
92835W        W59376  25.139  19.557   2.805
92836W        W59377  11.678   6.127   4.070
92837W        W59378  37.778  16.770  12.558
92838W        W59379  39.512  20.352  14.275
92839W        W59380  24.324  12.765   2.639
92840W        W59381   1.226  12.324  10.950
92841W        W59382  39.429  36.994   2.878
92842W        W59383  35.361   3.491   2.557
92843W        W59384  34.965  43.234  12.664
92844W        W59385   2.505  26.435  14.965
92845W        W59386   1.702  43.374   0.318
92846W        W59387   3.854  31.589   1.248
92847W        W59388  35.113  27.469  11.204
92848W        W59389  30.407  22.133   2.290
92849W        W59390  35.899   6.986   0.845
92850W        W59391  23.502  29.940  10.632
92851W        W59392  18.657   2.926   2.276
92852W        W59393  20.053  27.833  11.348
92853W        W59394  40.971  32.860   2.320
92854W        W59395  31.372  39.032   3.182
92855W        W59396  13.600  37.403   0.919
92856W        W59397  43.973  33.788  12.250
92857W        W59398  25.724  33.423  13.502
92858W        W59399  10.725   8.202   5.074
92859W        W59400  12.104  39.399  10.514
92860W        W59401  37.668  26.622  11.219
92861W        W59402  28.636  10.757   4.232
92862W        W59403  33.941  37.643  14.563
92863W        W59404  25.180  22.154   3.883
92864W        W59405   5.173  37.992   3.134
92865W        W59406  20.652   7.941   3.351
92866W        W59407  36.069   1.456  13.829
92867W        W59408  15.732   5.008   4.122
92868W        W59409  42.393  21.594   3.464
92869W        W59410  39.931  38.826  14.033
92870W        W59411   5.878   6.145  13.404
92871W        W59412  44.018  15.409   4.006
92872W        W59413  43.204  10.911   4.514
92873W        W59414   1.348  14.679   0.704
92874W        W59415   9.431  24.469   2.436
92875W        W59416  21.720  21.658   2.923
92876W        W59417   4.684   1.245  13.907
92877W        W59418  21.523  29.041  12.185
92878W        W59419  20.130  37.046  12.496
92879W        W59420  12.102   0.322  11.218
92880W        W59421   2.780  10.352   3.964
92881W        W59422  25.073  38.784  13.869
92882W        W59423  16.541  14.930   3.543
92883W        W59424  18.985  30.098  14.666
92884W        W59425   1.997  26.930  14.519
92885W        W59426  33.027   7.971   4.722
92886W        W59427  16.302  17.267  12.019
92887W        W59428   9.448  34.383   1.277
92888W        W59429  34.892  21.778   2.263
92889W        W59430  21.150  36.961  10.666
92890W        W59431  14.559  13.916  11.505
92891W        W59432  27.370  12.900   4.397
92892W        W59433   3.430   1.838  14.403
92893W        W59434  21.994  24.237  12.542
92894W        W59435  43.452  17.466   2.292
92895W        W59436  33.033  21.504   3.307
92896W        W59437  43.004  29.271   2.309
92897W        W59438  27.727  41.770  13.101
92898W        W59439  38.632  38.383   4.746
92899W        W59440   9.434  15.561  11.573
92900W        W59441  29.623  25.027  14.845
92901W        W59442  16.311  40.432   0.828
92902W        W59443  31.440   3.116   4.927
92903W        W59444  10.219  34.832   1.302
92904W        W59445   2.918  30.431   3.271
92905W        W59446   0.946  32.332   3.115
92906W        W59447  31.169  24.681  11.775
92907W        W59448  44.456  24.875   0.250
92908W        W59449  40.625  43.386   0.448
92909W        W59450  20.281   3.163   4.101
92910W        W59451  36.589  33.859  12.032
92911W        W59452  42.382  13.607   1.797
92912W        W59453  18.706  15.680   0.835
92913W        W59454  16.505  37.799  11.186
92914W        W59455  27.159  12.701  11.718
92915W        W59456  42.265  25.646   2.901
92916W        W59457  36.562  30.103   9.858
92917W        W59458  32.391  29.092  14.409
92918W        W59459  33.162  39.157  12.206
92919W        W59460  14.169  34.894   5.103
92920W        W59461   7.294  29.969  12.998
92921W        W59462   1.717  11.391  11.905
92922W        W59463   8.723   1.798  13.806
92923W        W59464   9.163  37.485  10.469
92924W        W59465  41.858  23.527  10.921
92925W        W59466   0.668  42.210   1.950
92926W        W59467   8.065  12.610   0.265
92927W        W59468  21.486  37.866  12.446
92928W        W59469  42.852  42.268   4.504
92929W        W59470  16.265  11.180  12.140
92930W        W59471  37.590  40.957   1.345
92931W        W59472   6.160  36.559  12.617
92932W        W59473  13.330   5.828  14.946
92933W        W59474   3.515  42.123   2.691
92934W        W59475  11.495  27.371   0.260
92935W        W59476  20.155  22.093   4.040
92936W        W59477  39.598  17.519  10.656
92937W        W59478  28.551  32.476  10.640
92938W        W59479   3.299  23.958   2.254
92939W        W59480   7.295  43.191   3.509
92940W        W59481  11.204  35.650   0.477
92941W        W59482   7.741  23.803  12.059
92942W        W59483   9.613   1.799  13.587
92943W        W59484  39.795  40.551  14.420
92944W        W59485  28.038   7.466   4.125
92945W        W59486  21.540  16.016  11.565
92946W        W59487  16.552   7.689  13.678
92947W        W59488   6.654   2.976  12.971
92948W        W59489  30.152  30.419   4.855
92949W        W59490  21.448  40.975   2.227
92950W        W59491  13.446   7.908   2.165
92951W        W59492   4.186  19.140  14.028
92952W        W59493   8.680  31.949  13.829
92953W        W59494  29.013  15.803  11.936
92954W        W59495  28.045   7.984   2.281
92955W        W59496  31.723  43.913  14.279
92956W        W59497  24.453  33.061   1.871
92957W        W59498   4.492  13.399  12.064
92958W        W59499  30.073  10.084   0.239
92959W        W59500  42.096  35.979   1.880
92960W        W59501  27.201  29.971  11.985
92961W        W59502  15.029  28.814  13.348
92962W        W59503  23.217  16.720  13.468
92963W        W59504  44.763  34.560  13.946
92964W        W59505  35.413   6.272   1.216
92965W        W59506  19.091  31.010   3.119
92966W        W59507  31.922  32.104  12.980
92967W        W59508  42.924  27.190   0.935
92968W        W59509  21.800   6.506   1.244
92969W        W59510  13.219  41.585   3.218
92970W        W59511  37.355  32.194  10.779
92971W        W59512   0.796  15.962   4.048
92972W        W59513  29.022  38.088   4.278
92973W        W59514  11.367  18.646   4.384
92974W        W59515  30.072  43.373   2.002
92975W        W59516  25.715  18.042   0.879
92976W        W59517   8.544   8.291  11.956
92977W        W59518  28.709  30.622   0.278
92978W        W59519   6.911  17.598  10.469
92979W        W59520  39.707  26.194  14.424
92980W        W59521  27.267   4.029   1.390
92981W        W59522  35.018   6.784  11.683
92982W        W59523  43.079  19.789  13.269
92983W        W59524  19.080  39.294   3.898
92984W        W59525  28.029  28.365  11.941
92985W        W59526   0.935  40.732  11.607
92986W        W59527  25.956   2.820   1.398
92987W        W59528  37.519   8.932   2.738
92988W        W59529   5.232  15.659   1.853
92989W        W59530  27.479  43.536   4.598
92990W        W59531   5.276  11.080   1.286
92991W        W59532  16.361  41.363  13.567
92992W        W59533  17.276   8.341   1.784
92993W        W59534  36.677  15.592   4.975
92994W        W59535  11.414  30.555  12.083
92995W        W59536  11.486  29.095  12.739
92996W        W59537  10.574  26.081   2.943
92997W        W59538  40.721  10.199   4.988
92998W        W59539  26.313  29.995  14.727
92999W        W59540  32.003  11.481  11.895
93000W        W59541  12.146  32.670   0.477
93001W        W59542  22.135   1.750   3.551
93002W        W59543   6.305   0.894  13.518
93003W        W59544  22.006   4.543   4.002
93004W        W59545  37.064  28.082   1.277
93005W        W59546  32.160  20.591   1.457
93006W        W59547  38.837  35.571   0.516
93007W        W59548  26.471  14.278  13.760
93008W        W59549  18.020   6.204  10.725
93009W        W59550  17.718  26.193  11.930
93010W        W59551  35.667  25.454  11.854
93011W        W59552  32.987  30.116   2.767
93012W        W59553  12.336  38.714  13.855
93013W        W59554  13.323  14.121   1.378
93014W        W59555   3.730  25.227   3.266
93015W        W59556  36.923  35.343  12.958
93016W        W59557   6.039  10.008  12.625
93017W        W59558  19.049  10.723   3.434
93018W        W59559  17.527  28.764   4.534
93019W        W59560   8.646   4.641   3.662
93020W        W59561  10.767  43.326   1.405
93021W        W59562   1.906  16.783  10.675
93022W        W59563  32.358   2.477  12.053
93023W        W59564  34.032   7.887   0.580
93024W        W59565  21.186  27.676  10.523
93025W        W59566  39.007  25.816  11.448
93026W        W59567   8.770  29.249  12.017
93027W        W59568  28.247  35.127  11.219
93028W        W59569  18.143  30.346  10.845
93029W        W59570  38.793   1.032   4.735
93030W        W59571  10.625  37.075   2.382
93031W        W59572  33.476  32.088   4.038
93032W        W59573  16.626  17.689  13.337
93033W        W59574  29.744   9.225   0.498
93034W        W59575  38.998  17.313  11.074
93035W        W59576  29.246  36.880  12.009
93036W        W59577  20.303   1.886   4.735
93037W        W59578  10.512  14.182  13.576
93038W        W59579  32.190   5.118  12.380
93039W        W59580  38.678  29.507  13.916
93040W        W59581   4.938   1.933   0.232
93041W        W59582  12.098   8.376  14.780
93042W        W59583  14.702  32.949   0.933
93043W        W59584  40.505  26.491   0.542
93044W        W59585  28.489   2.818  12.453
93045W        W59586  32.326  14.841  11.746
93046W        W59587  18.440   9.398   1.744
93047W        W59588  22.625  17.294  14.361
93048W        W59589   2.449  34.060  13.082
93049W        W59590  34.449   5.066  12.371
93050W        W59591  32.392   5.953   1.354
93051W        W59592  15.068  15.013  10.836
93052W        W59593  21.260  10.585   2.451
93053W        W59594   2.488  22.930   9.789
93054W        W59595  34.510  41.831   2.402
93055W        W59596  29.367  40.453   2.858
93056W        W59597   3.336  44.358  11.112
93057W        W59598  38.881  29.273   0.273
93058W        W59599  19.233   6.847   1.871
93059W        W59600  10.649  44.437  11.694
93060W        W59601  31.633  25.129   4.778
93061W        W59602  13.772  37.050   4.893
93062W        W59603  10.896  21.225  14.250
93063W        W59604  12.261   4.234   0.740
93064W        W59605  16.275  27.242   0.230
93065W        W59606   7.520   4.216  14.347
93066W        W59607  24.925  26.790   1.834
93067W        W59608  28.751   8.646   3.783
93068W        W59609  36.299   1.003  11.522
93069W        W59610  37.918  10.177   0.506
93070W        W59611   2.016  18.732  10.500
93071W        W59612  26.713  20.169  14.742
93072W        W59613  42.040  16.533   2.901
93073W        W59614  44.331  12.637  13.113
93074W        W59615   8.327  15.045  12.573
93075W        W59616  30.928  17.914  11.239
93076W        W59617  27.057  39.746  10.609
93077W        W59618  14.671   9.713   4.801
93078W        W59619  27.072  24.733   4.283
93079W        W59620  29.942   6.438  13.108
93080W        W59621  26.940  44.965  14.920
93081W        W59622  42.758  10.638  14.082
93082W        W59623  32.648  15.656   3.455
93083W        W59624  37.988  38.449   2.004
93084W        W59625   7.589  42.495  11.564
93085W        W59626   2.656  23.005  14.751
93086W        W59627  28.544  10.234   4.165
93087W        W59628  19.462  23.065   3.130
93088W        W59629  33.103  12.434  13.798
93089W        W59630  41.776  23.592  10.415
93090W        W59631  28.885  38.307   1.945
93091W        W59632   4.001  36.556   1.830
93092W        W59633  35.094  21.179  11.611
93093W        W59634   7.958  29.970  13.752
93094W        W59635  22.491  44.469  10.149
93095W        W59636  15.540   3.624   3.083
93096W        W59637  26.080  19.728  10.489
93097W        W59638  17.347   0.808   5.196
93098W        W59639  29.109  35.813   4.289
93099W        W59640  43.132  43.505   1.723
93100W        W59641   7.763  13.843   0.735
93101W        W59642  40.970  19.989  12.523
93102W        W59643  17.391  22.184   1.405
93103W        W59644  37.774  43.406   2.002
93104W        W59645  17.505  21.217   3.131
93105W        W59646  25.611  35.459   3.426
93106W        W59647  14.084  43.923   0.845
93107W        W59648  40.872  34.549  12.572
93108W        W59649  37.407  15.706  11.446
93109W        W59650   8.849  39.018   0.235
93110W        W59651  10.320  16.367  13.016
93111W        W59652   2.406  25.747  11.449
93112W        W59653  24.223  29.223  13.455
93113W        W59654  10.625  17.060  11.464
93114W        W59655   7.012  18.814   1.553
93115W        W59656  11.321   4.862  14.283
93116W        W59657  32.923  39.506   2.688
93117W        W59658  26.504  41.743  11.032
93118W        W59659  28.588  38.256  11.606
93119W        W59660  15.886  10.282   4.720
93120W        W59661  43.463  19.637   2.301
93121W        W59662  28.793  23.133   4.533
93122W        W59663  15.910  30.914   2.409
93123W        W59664  44.434  22.190   1.444
93124W        W59665  11.594  18.850  10.694
93125W        W59666  34.868   0.810  12.555
93126W        W59667  12.285  18.001   1.725
93127W        W59668  35.974  40.164  12.053
93128W        W59669  18.879   1.144   0.810
93129W        W59670   9.734  18.725   4.721
93130W        W59671  25.638  38.026  10.590
93131W        W59672  21.806  29.615   2.419
93132W        W59673  43.952  26.703   0.826
93133W        W59674  21.628  18.649  14.336
93134W        W59675  23.668  24.013  13.042
93135W        W59676  17.218  21.500  10.829
93136W        W59677   3.956  43.870  12.888
93137W        W59678  37.708  20.063  14.428
93138W        W59679  38.343  30.383  14.823
93139W        W59680  22.201  12.824   3.675
93140W        W59681   9.031  36.227  11.610
93141W        W59682  38.367   3.463   4.642
93142W        W59683  36.975  25.968  14.197
93143W        W59684  44.295  15.492   5.057
93144W        W59685  22.205  35.586  10.096
93145W        W59686  40.268  37.537   2.207
93146W        W59687   1.003  44.830   0.752
93147W        W59688  25.015  19.117   3.069
93148W        W59689  18.640  22.485  12.191
93149W        W59690   3.723  22.164  13.650
93150W        W59691  35.943  32.147  11.585
93151W        W59692  15.307  28.882   0.614
93152W        W59693  19.414  34.964  12.022
93153W        W59694  38.050   9.267  12.305
93154W        W59695   0.373  36.905   2.997
93155W        W59696   9.562  33.436  13.278
93156W        W59697   9.247  34.894   3.106
93157W        W59698  27.672  13.577  11.941
93158W        W59699  37.544  38.325  13.132
93159W        W59700  44.357  26.996   1.090
93160W        W59701  21.190  43.054   1.912
93161W        W59702  43.447   1.587   4.366
93162W        W59703  32.790   5.983  12.517
93163W        W59704  36.141  24.427  12.174
93164W        W59705  38.076  23.734   0.849
93165W        W59706  24.787  17.096  14.268
93166W        W59707  30.798  20.975  11.132
93167W        W59708  36.788  30.826  11.998
93168W        W59709  27.987   3.730  12.598
93169W        W59710  24.603  22.474  13.018
93170W        W59711  44.492  43.529   2.085
93171W        W59712  15.829  37.465   3.729
93172W        W59713  41.576  42.326   3.083
93173W        W59714  24.738  29.583   1.336
93174W        W59715   9.339  36.965   3.639
93175W        W59716  18.329   5.812  12.353
93176W        W59717   7.167  36.481  10.067
93177W        W59718  19.256  13.127  14.859
93178W        W59719   3.880  36.648  11.629
93179W        W59720  22.154  30.179  10.575
93180W        W59721   5.329  13.365   4.496
93181W        W59722  32.949   4.898   3.589
93182W        W59723  36.044   9.338   2.626
93183W        W59724   0.763   9.260  11.188
93184W        W59725   3.898   0.797   1.270
93185W        W59726   3.306  33.422   0.409
93186W        W59727   2.379  35.952   1.272
93187W        W59728  21.203   3.829   1.237
93188W        W59729   0.313  29.027   0.946
93189W        W59730  40.511  34.474   0.426
93190W        W59731  34.281  44.758  14.905
93191W        W59732  36.360  10.195   1.033
93192W        W59733  23.032  21.784  14.351
93193W        W59734  44.033   3.281   2.236
93194W        W59735  24.203  11.573   4.992
93195W        W59736  31.090  25.924  12.642
93196W        W59737  35.001  18.290   1.890
93197W        W59738  19.188  19.063   2.805
93198W        W59739   9.226  10.386   3.153
93199W        W59740  38.883  17.260   0.045
93200W        W59741  36.573   3.265  14.418
93201W        W59742  43.842  22.174  12.310
93202W        W59743  22.822  42.991  14.070
93203W        W59744  44.787   2.076   0.861
93204W        W59745  15.516  36.526  10.683
93205W        W59746  33.893  31.429  14.920
93206W        W59747   9.308  43.097   4.365
93207W        W59748   6.555  44.768  13.294
93208W        W59749  26.526  30.013  10.739
93209W        W59750  16.030  14.205  13.864
93210W        W59751   4.833  23.498  13.851
93211W        W59752   1.503  30.545  14.068
93212W        W59753   0.428   5.333  12.096
93213W        W59754  26.728   3.405  11.812
93214W        W59755  30.454  18.296   4.093
93215W        W59756  26.489  11.949   0.741
93216W        W59757  13.639  19.639   2.336
93217W        W59758  28.555  17.852   4.695
93218W        W59759  32.116   9.740  14.508
93219W        W59760  21.022  40.793   4.139
93220W        W59761  30.422  31.093  14.871
93221W        W59762  32.852  39.858  13.193
93222W        W59763  38.508  11.375   2.954
93223W        W59764   5.986  42.891  14.848
93224W        W59765  33.565  24.498   4.223
93225W        W59766  31.442   9.824   4.233
93226W        W59767  18.055  29.455   1.529
93227W        W59768   7.823   6.598  12.966
93228W        W59769  33.817  18.570  14.534
93229W        W59770   0.417  12.461   2.297
93230W        W59771   1.597  28.789   2.589
93231W        W59772  35.518  41.992  13.607
93232W        W59773  14.806  16.813   0.994
93233W        W59774   3.934  44.827  10.582
93234W        W59775  39.500  38.928  11.731
93235W        W59776  36.094  25.947  13.017
93236W        W59777  14.373  17.993  14.928
93237W        W59778  44.397  31.841   3.695
93238W        W59779   0.780  32.505  12.686
93239W        W59780   2.319  41.509  13.541
93240W        W59781  14.947  17.059  14.420
93241W        W59782  19.283   5.623   1.291
93242W        W59783   7.945  27.277   4.452
93243W        W59784  37.866   8.312   4.106
93244W        W59785  42.219  30.448   2.886
93245W        W59786  22.956   5.664   2.214
93246W        W59787  17.708   9.675   2.737
93247W        W59788  17.812   6.551   1.575
93248W        W59789   4.787  23.500   4.051
93249W        W59790   2.726  16.675   2.601
93250W        W59791  19.768   5.293   0.370
93251W        W59792  20.790  37.989  11.563
93252W        W59793  38.725   1.253  14.227
93253W        W59794  17.993   5.848  11.623
93254W        W59795  38.423  19.985   4.689
93255W        W59796  30.426  35.959   1.378
93256W        W59797  23.416  44.512   2.142
93257W        W59798   3.718  35.610   0.323
93258W        W59799  35.071   8.765   0.980
93259W        W59800  26.621  16.852  10.307
93260W        W59801  23.538   2.281  12.807
93261W        W59802  37.762  22.554   4.887
93262W        W59803  25.782  10.171  10.867
93263W        W59804  32.705  26.113  11.500
93264W        W59805   0.855  43.004   1.403
93265W        W59806  35.776  10.220   3.637
93266W        W59807  16.811  37.500  14.469
93267W        W59808  25.564   9.111  10.745
93268W        W59809  39.518  36.855   4.929
93269W        W59810  41.378  42.975  10.711
93270W        W59811  26.930  15.027   2.387
93271W        W59812   4.038  25.574   2.356
93272W        W59813  24.238  44.700   2.479
93273W        W59814  20.980  12.790   3.076
93274W        W59815   7.818  38.256   3.514
93275W        W59816  27.067   3.739  11.608
93276W        W59817  25.128  23.688   1.229
93277W        W59818  12.157   5.833  14.672
93278W        W59819  26.511   5.837  14.116
93279W        W59820   9.564  35.397   2.476
93280W        W59821  37.289  34.517  11.907
93281W        W59822  36.274   1.233  12.929
93282W        W59823  16.043  23.091  11.032
93283W        W59824  31.859  39.032  13.029
93284W        W59825  29.376   1.955  13.003
93285W        W59826  32.245  36.469   2.177
93286W        W59827  23.296   6.415   3.207
93287W        W59828  10.102   1.953   2.185
93288W        W59829   3.938  23.586   1.677
93289W        W59830  25.615   5.717  13.362
93290W        W59831   4.577  14.100   4.028
93291W        W59832  14.713  14.225  13.552
93292W        W59833  28.750  41.041   3.112
93293W        W59834  14.211   5.111  13.597
93294W        W59835  40.302   0.271   3.633
93295W        W59836  24.711  16.788   1.734
93296W        W59837  15.556  23.677  12.788
93297W        W59838  32.573  43.839  13.353
93298W        W59839  29.104   3.703   3.009
93299W        W59840   9.456  43.454   0.437
93300W        W59841  12.354  29.567  12.274
93301W        W59842  20.576   7.437   0.412
93302W        W59843  39.633   6.649   1.605
93303W        W59844  35.308   2.971   2.634
93304W        W59845  35.081  34.825   3.411
93305W        W59846  43.669  43.400  13.972
93306W        W59847  15.275  15.346  14.355
93307W        W59848  22.245  17.813   1.491
93308W        W59849  23.536  44.343   3.987
93309W        W59850   1.744  14.337   0.720
93310W        W59851  26.274  24.753   4.418
93311W        W59852  12.988  10.420   3.159
93312W        W59853  12.981  42.153   2.187
93313W        W59854  31.140  25.158  11.051
93314W        W59855  12.591  14.043  10.806
93315W        W59856  39.294   1.047   1.456
93316W        W59857  32.974  43.018  14.910
93317W        W59858  36.432  14.493  13.378
93318W        W59859  43.978  36.985  11.522
93319W        W59860   1.253   2.067  14.841
93320W        W59861   1.306  24.411  14.787
93321W        W59862  12.786   6.738  11.168
93322W        W59863  35.606  40.760   0.568
93323W        W59864   8.254  41.108   3.647
93324W        W59865  32.012  33.548  12.655
93325W        W59866   0.053  25.325  11.557
93326W        W59867  14.705  20.277   1.827
93327W        W59868  25.678  29.632  12.055
93328W        W59869  17.181  38.472   1.516
93329W        W59870   4.097  43.365  13.287
93330W        W59871  25.781   1.659   3.635
93331W        W59872  36.434  17.667  10.778
93332W        W59873   9.193  40.805  12.151
93333W        W59874   9.576   9.086   4.394
93334W        W59875   8.080   3.503   2.108
93335W        W59876  27.369  11.723  12.737
93336W        W59877  13.038   5.421   1.307
93337W        W59878  41.375  20.531   3.614
93338W        W59879  33.944  19.533   0.822
93339W        W59880   4.999   4.362  12.326
93340W        W59881  30.372  41.579  11.002
93341W        W59882  19.065  39.935  10.704
93342W        W59883  41.335  30.141   0.928
93343W        W59884  15.307   3.745  13.496
93344W        W59885  18.380  33.061   1.771
93345W        W59886  44.770   1.807   0.409
93346W        W59887   0.715  28.300   1.539
93347W        W59888   7.923   2.154  11.025
93348W        W59889   2.785  12.687  14.754
93349W        W59890  23.480  22.121  10.796
93350W        W59891  26.132   8.700   3.293
93351W        W59892  30.663  31.486   2.550
93352W        W59893  16.171  34.600  13.521
93353W        W59894  34.160   9.110  11.123
93354W        W59895  17.792  40.376   2.194
93355W        W59896   0.346  39.882   4.053
93356W        W59897  13.686  41.254  14.774
93357W        W59898  28.372  26.901  11.110
93358W        W59899  17.446  36.924  12.063
93359W        W59900  12.886   0.788  14.873
93360W        W59901  19.522  21.696  14.763
93361W        W59902  36.037  33.663   4.178
93362W        W59903  16.634  36.873   1.277
93363W        W59904  17.097  20.959  12.535
93364W        W59905  33.244  28.668   0.903
93365W        W59906  38.583  25.643  14.903
93366W        W59907  22.540  28.389  11.520
93367W        W59908  11.700  12.894  14.814
93368W        W59909  10.889  22.511  10.373
93369W        W59910  35.848  42.878   0.031
93370W        W59911   2.833   6.107   3.334
93371W        W59912  11.865  35.299  14.065
93372W        W59913  16.214  29.246  14.049
93373W        W59914  27.685  21.203  14.653
93374W        W59915  42.461  28.118   4.305
93375W        W59916  12.384  32.230  14.494
93376W        W59917  43.049  27.961  13.070
93377W        W59918  15.614  30.624   1.254
93378W        W59919  28.552   1.806   3.852
93379W        W59920  24.549  43.850   0.397
93380W        W59921  23.984   1.727  12.933
93381W        W59922  36.850  19.038   1.779
93382W        W59923  29.610  25.717   4.153
93383W        W59924  32.732  13.175   3.184
93384W        W59925  37.104  32.031  14.500
93385W        W59926  15.377  21.637  14.102
93386W        W59927  11.878  24.532  14.517
93387W        W59928  12.411  27.625  14.681
93388W        W59929  22.428   9.402  13.569
93389W        W59930  30.014  24.737   0.925
93390W        W59931  34.769  28.468   0.872
93391W        W59932  43.298  34.855  13.536
93392W        W59933  28.519  23.261   3.389
93393W        W59934  23.474  15.952  13.895
93394W        W59935  13.713  30.639   0.272
93395W        W59936   0.435  21.143  13.951
93396W        W59937  42.844  18.357  13.567
93397W        W59938  34.154  32.635   4.188
93398W        W59939  43.786  42.509  10.660
93399W        W59940  20.040  31.658  12.955
93400W        W59941  34.815  18.778   1.917
93401W        W59942  31.014  32.154  12.036
93402W        W59943  13.961  36.271   0.434
93403W        W59944   1.982   5.599   0.236
93404W        W59945  34.463  25.371  13.080
93405W        W59946  36.324   6.666   0.894
93406W        W59947   5.331  42.579   2.924
93407W        W59948   9.862  37.849  13.871
93408W        W59949  40.970  15.698   4.713
93409W        W59950  17.346  14.511  11.631
93410W        W59951  41.831  17.690   1.696
93411W        W59952  17.663  29.593  13.284
93412W        W59953   4.376  18.372  11.115
93413W        W59954  22.282  19.309  12.868
93414W        W59955  28.227  42.877  13.996
93415W        W59956  14.384  36.455   4.349
93416W        W59957  28.621  38.853  13.047
93417W        W59958  14.109  35.902   3.711
93418W        W59959  36.203  40.349   4.985
93419W        W59960  24.037  28.299   3.171
93420W        W59961  39.305  14.362  14.426
93421W        W59962  13.968  13.427   3.318
93422W        W59963  20.172  37.449  12.881
93423W        W59964   3.213   9.866  12.509
93424W        W59965  35.369  38.665  13.251
93425W        W59966  23.291  19.129  14.069
93426W        W59967  18.558  30.480  13.573
93427W        W59968  11.649  31.563   0.034
93428W        W59969  12.614  21.775   3.313
93429W        W59970   6.945  40.693  12.747
93430W        W59971  10.616  33.490   0.183
93431W        W59972  10.453   7.625  13.526
93432W        W59973  37.982  44.134  11.565
93433W        W59974  26.647  12.908  10.874
93434W        W59975   2.995   2.271   1.936
93435W        W59976  24.223  34.558  13.945
93436W        W59977  39.820  24.766  14.544
93437W        W59978  37.798  20.348  11.601
93438W        W59979   0.934  16.160  13.417
93439W        W59980  12.456   9.101   3.574
93440W        W59981  31.489  37.744  13.856
93441W        W59982  25.507   0.535  11.235
93442W        W59983   3.733   9.516   2.713
93443W        W59984   6.802  28.913   3.549
93444W        W59985  34.500  33.725  13.097
93445W        W59986   5.740  26.530  14.856
93446W        W59987  28.918  41.220  11.234
93447W        W59988   5.259  15.845  13.989
93448W        W59989  10.296   5.813  11.247
93449W        W59990  30.197   6.480  13.560
93450W        W59991  35.774  32.392   0.339
93451W        W59992  20.225   7.326   3.320
93452W        W59993  10.631  40.966   3.310
93453W        W59994  34.407  11.744  10.531
93454W        W59995  31.232  24.221   2.743
93455W        W59996  15.978  25.624   4.481
93456W        W59997  41.567  30.578  13.550
93457W        W59998  13.577  12.788   2.162
93458W        W59999  29.666  30.838   0.183
93459W        W60000  10.602  34.194   3.209
93460W        W60001  19.976  18.569  11.258
93461W        W60002  20.946   4.460  11.613
93462W        W60003  16.295  37.549  12.431
93463W        W60004  14.924  14.346  14.403
93464W        W60005  17.521   4.384   3.214
93465W        W60006  17.383  39.407  11.625
93466W        W60007  31.476  36.392  10.742
93467W        W60008  26.846   4.763   2.421
93468W        W60009  35.088  16.779   3.819
93469W        W60010  12.265  29.629  12.787
93470W        W60011  40.066  30.050  12.891
93471W        W60012  26.881  14.709  13.392
93472W        W60013   1.465  29.071  13.545
93473W        W60014  38.518  14.968   2.251
93474W        W60015  19.617  10.305   4.705
93475W        W60016   2.902   5.052   1.249
93476W        W60017  11.607  23.095  14.505
93477W        W60018  23.316   8.395   4.648
93478W        W60019  33.549  24.189  12.863
93479W        W60020  41.375  21.191   3.424
93480W        W60021  17.997  13.349  12.153
93481W        W60022  34.983  12.433   4.715
93482W        W60023  36.154  13.589  11.682
93483W        W60024   6.535  12.699  14.514
93484W        W60025  41.121  15.504   1.898
93485W        W60026   2.769  32.087   0.764
93486W        W60027  21.945  35.000   1.189
93487W        W60028  12.146   0.990   9.887
93488W        W60029   0.067  12.272   1.243
93489W        W60030  41.338  21.662   0.057
93490W        W60031  24.701   4.000   3.066
93491W        W60032  21.749  18.624  13.190
93492W        W60033  13.392  37.521   3.610
93493W        W60034  17.374  21.015  10.880
93494W        W60035  24.462  25.230  10.499
93495W        W60036  39.300  32.820   3.254
93496W        W60037  41.914  14.568  11.693
93497W        W60038  27.056  37.786   1.804
93498W        W60039  39.840   5.166   2.743
93499W        W60040  21.168  20.392   4.084
93500W        W60041  29.809  29.427   5.082
93501W        W60042  11.722  14.580   0.984
93502W        W60043  38.649  27.630   4.533
93503W        W60044  32.051   7.780   1.924
93504W        W60045   1.914  18.591  13.032
93505W        W60046  33.525  30.653   4.626
93506W        W60047   6.460  14.181   2.675
93507W        W60048  21.268   2.027  11.199
93508W        W60049   4.350  44.568   3.048
93509W        W60050  31.513   1.706  13.321
93510W        W60051  26.011   5.946  11.271
93511W        W60052  17.621  18.107  10.130
93512W        W60053  22.204   1.547  14.313
93513W        W60054  35.454   4.711  11.544
93514W        W60055  11.779  27.657   2.137
93515W        W60056   9.342  23.089  14.357
93516W        W60057  25.718   9.904   4.663
93517W        W60058  33.354   7.332  11.678
93518W        W60059   3.510  29.969  14.926
93519W        W60060  17.006  12.801   4.592
93520W        W60061  17.313  26.561  10.598
93521W        W60062  44.274  35.861   0.403
93522W        W60063  21.941  16.165   3.892
93523W        W60064   7.140   2.779  11.256
93524W        W60065   2.032  37.323  13.021
93525W        W60066  30.197  15.222  13.912
93526W        W60067  38.602  10.045  11.121
93527W        W60068  18.088  40.506  11.474
93528W        W60069  35.636  39.343  14.429
93529W        W60070  30.035  27.977  13.633
93530W        W60071  12.063  38.624  12.411
93531W        W60072  21.646  29.463  10.727
93532W        W60073  25.218  17.047   2.303
93533W        W60074  36.084  43.781   4.030
93534W        W60075  30.018  44.008  13.322
93535W        W60076  16.826   3.018   0.274
93536W        W60077   4.862  42.406   2.733
93537W        W60078  31.043  44.714   4.372
93538W        W60079  17.696  31.201  10.555
93539W        W60080  18.489  11.261  14.954
93540W        W60081   2.383  38.520  13.872
93541W        W60082  25.509  26.367   3.231
93542W        W60083  13.525  15.595   3.132
93543W        W60084  34.381  10.105   1.900
93544W        W60085   5.443  30.699  14.472
93545W        W60086  19.134  25.517   4.201
93546W        W60087  13.193   5.885  13.850
93547W        W60088  24.705   6.736   1.725
93548W        W60089  19.860   8.493  11.515
93549W        W60090  32.866   0.516   2.863
93550W        W60091  39.218   6.388   3.378
93551W        W60092  33.219  34.907   2.300
93552W        W60093   4.761  40.611  10.506
93553W        W60094  21.624  33.449  13.145
93554W        W60095  20.666  42.051   2.699
93555W        W60096  37.183  12.258  13.993
93556W        W60097   9.922  11.250   3.992
93557W        W60098  44.672  12.604   2.786
93558W        W60099  13.199  18.114   4.014
93559W        W60100  16.124   7.159  13.919
93560W        W60101   9.677   7.776   4.216
93561W        W60102  33.482  13.284   4.685
93562W        W60103  23.582  33.115  14.405
93563W        W60104  40.652  42.344  12.486
93564W        W60105  40.558  27.573   3.713
93565W        W60106  42.719  44.304  10.968
93566W        W60107   0.519   3.400   1.228
93567W        W60108  34.358  26.620  14.332
93568W        W60109  22.363   7.082  11.613
93569W        W60110  16.254   2.555   1.805
93570W        W60111  14.729  13.854   3.798
93571W        W60112  39.344   3.223  10.506
93572W        W60113  17.293  19.778  13.163
93573W        W60114  27.292   8.444  11.114
93574W        W60115  32.927  40.326  12.967
93575W        W60116  12.227  43.730   4.205
93576W        W60117  28.077  17.171  13.578
93577W        W60118  27.393  17.201  14.392
93578W        W60119  11.999  11.367   3.828
93579W        W60120  40.142  20.950  13.812
93580W        W60121   3.773   8.758  14.948
93581W        W60122  28.138   9.164  12.534
93582W        W60123  16.807   3.722   0.921
93583W        W60124  12.271   7.189   1.615
93584W        W60125  36.508  37.339  14.920
93585W        W60126  40.688  31.529   2.870
93586W        W60127  20.513  25.440   2.857
93587W        W60128  27.322   4.380   3.180
93588W        W60129  14.426  27.748   1.732
93589W        W60130  19.492   5.902  10.389
93590W        W60131  29.750   3.424  10.786
93591W        W60132  44.912  23.076  14.444
93592W        W60133   8.720  41.283  10.737
93593W        W60134  15.967  19.207   0.971
93594W        W60135  37.951  16.619   2.374
93595W        W60136  38.297  37.337   4.088
93596W        W60137  27.341  21.260  12.292
93597W        W60138   9.334  36.051   3.099
93598W        W60139   4.590   8.800  13.442
93599W        W60140  24.023  34.090   1.811
93600W        W60141   5.208  35.908  14.956
93601W        W60142  23.151   8.302  11.893
93602W        W60143  31.370  11.653  10.223
93603W        W60144  11.138  17.084   4.597
93604W        W60145  11.152  39.158  12.466
93605W        W60146  15.741  40.942   1.911
93606W        W60147  29.041   0.162   3.205
93607W        W60148  30.855   2.379   2.711
93608W        W60149  19.262  14.043   2.275
93609W        W60150  32.721  34.938  14.834
93610W        W60151  36.450  28.575   1.852
93611W        W60152   1.620  37.516  13.307
93612W        W60153  30.547  28.170   2.344
93613W        W60154  20.944   3.267   3.649
93614W        W60155  23.296   2.050   1.277
93615W        W60156  20.480   4.409  13.425
93616W        W60157  25.114   1.523  13.156
93617W        W60158  25.976   9.789   2.345
93618W        W60159   2.500  10.189  13.923
93619W        W60160  18.291   6.648  10.705
93620W        W60161  17.019  38.455  14.832
93621W        W60162  16.337   9.718   1.920
93622W        W60163  41.891  39.524  11.572
93623W        W60164  29.054  38.547  10.711
93624W        W60165  14.894  26.120   3.189
93625W        W60166  43.339  43.735  14.817
93626W        W60167   4.906  26.569  11.091
93627W        W60168  37.491  39.622  11.531
93628W        W60169  12.323   7.264   3.391
93629W        W60170  15.817  25.569  12.115
93630W        W60171  11.003  32.882  14.359
93631W        W60172  25.444  37.753   4.417
93632W        W60173  38.292  12.971  10.312
93633W        W60174  43.447  35.062   0.921
93634W        W60175  26.947  28.785   2.081
93635W        W60176  15.048  21.594   2.018
93636W        W60177   5.402  20.198  12.505
93637W        W60178  37.812  36.489  12.521
93638W        W60179  33.527  42.730   4.000
93639W        W60180  38.822  37.093   3.560
93640W        W60181  33.438  24.457  13.298
93641W        W60182   3.133  26.725  13.262
93642W        W60183  24.551  26.009  12.441
93643W        W60184   8.287   4.479  14.989
93644W        W60185  36.669  18.072  11.151
93645W        W60186  25.480  37.995  11.076
93646W        W60187  37.826   4.798  14.497
93647W        W60188  33.315  43.739  12.942
93648W        W60189  34.561  22.739  13.594
93649W        W60190  40.849  23.682  12.745
93650W        W60191  37.650   8.598   1.358
93651W        W60192  30.839   3.996  13.841
93652W        W60193   6.031  36.726   9.651
93653W        W60194  38.362   3.904   1.292
93654W        W60195  26.502   6.877  14.345
93655W        W60196  30.618   7.904  14.516
93656W        W60197  40.072  11.160   1.231
93657W        W60198  25.489  41.714   3.524
93658W        W60199  36.967  39.787  13.910
93659W        W60200  12.720  10.560  11.652
93660W        W60201  26.676  32.960  12.202
93661W        W60202  26.194   2.830  13.879
93662W        W60203  42.703  21.047  11.625
93663W        W60204  16.551  39.710  11.586
93664W        W60205  14.546  11.945   4.146
93665W        W60206  34.619  14.123   4.483
93666W        W60207  18.610  31.190   4.303
93667W        W60208   1.277  18.637   4.514
93668W        W60209  42.610  37.698  11.187
93669W        W60210  24.582  17.601   3.468
93670W        W60211  21.296  41.404   4.891
93671W        W60212  22.983  18.251  14.538
93672W        W60213   9.131  37.889   3.078
93673W        W60214  31.542  10.077   0.863
93674W        W60215  22.680  13.655   2.144
93675W        W60216  29.958  31.949   2.768
93676W        W60217  43.043   4.480   1.683
93677W        W60218  15.502  32.483   0.454
93678W        W60219   5.272  38.737   3.550
93679W        W60220  29.810  27.596  12.884
93680W        W60221   0.053   9.846  11.480
93681W        W60222  22.219  13.523   1.987
93682W        W60223  13.850  33.188   2.811
93683W        W60224  14.496  13.361  13.650
93684W        W60225  32.406  42.334  10.839
93685W        W60226  38.766   0.783  11.900
93686W        W60227   8.761   6.240  11.593
93687W        W60228  14.110  40.290   2.584
93688W        W60229  37.963   2.542  11.360
93689W        W60230  34.844   7.898   4.513
93690W        W60231   7.633   6.887  12.575
93691W        W60232  18.024   7.452  14.887
93692W        W60233   6.197  12.395  13.498
93693W        W60234  31.155   6.222   4.101
93694W        W60235  29.005  14.862   1.253
93695W        W60236  21.351  15.026   5.158
93696W        W60237   5.912   5.901  14.817
93697W        W60238  23.462  22.115   1.580
93698W        W60239   2.976  37.381   4.288
93699W        W60240  35.370  34.123  10.727
93700W        W60241   6.624  40.534   0.421
93701W        W60242   3.821  40.311  14.374
93702W        W60243  11.276  25.941  14.365
93703W        W60244  17.432  32.083   4.165
93704W        W60245  13.689  29.657   4.764
93705W        W60246  13.394  25.178   0.405
93706W        W60247  40.125  40.100   1.225
93707W        W60248  16.730  10.422   4.215
93708W        W60249  22.389   5.669  11.571
93709W        W60250   8.162  25.461   4.238
93710W        W60251  24.446  44.026   0.903
93711W        W60252  17.034  34.618  13.956
93712W        W60253  10.512   7.970   3.220
93713W        W60254  36.608  16.959  14.857
93714W        W60255  12.879  20.620   0.613
93715W        W60256   7.238  30.080   4.052
93716W        W60257  13.299  38.938  10.720
93717W        W60258  17.682  19.321  12.826
93718W        W60259  14.179  37.413   2.310
93719W        W60260  17.615  13.307  14.378
93720W        W60261  11.131  33.129   1.608
93721W        W60262  28.252   3.666   4.938
93722W        W60263  27.649  14.566  11.583
93723W        W60264  10.621  10.242   2.783
93724W        W60265  43.781  32.424   3.825
93725W        W60266  10.867  33.900   2.807
93726W        W60267   8.140   1.972  13.386
93727W        W60268  18.701   3.877  10.670
93728W        W60269  31.057   0.617   1.208
93729W        W60270  30.905  13.556  11.649
93730W        W60271  39.208  10.155   3.127
93731W        W60272  27.061   8.772   1.272
93732W        W60273   1.901   4.733   0.345
93733W        W60274   2.312   6.404  10.582
93734W        W60275   9.224   6.574   1.315
93735W        W60276  21.049  29.702   1.282
93736W        W60277  18.251  42.371   1.833
93737W        W60278  16.728  36.074   2.200
93738W        W60279  14.688  33.963  11.656
93739W        W60280  28.411  22.289  13.621
93740W        W60281  33.030  20.684   2.850
93741W        W60282  22.509   8.835   1.289
93742W        W60283  25.324   8.334  13.977
93743W        W60284  41.455   3.354  11.604
93744W        W60285   3.542  35.097   0.367
93745W        W60286  26.944   0.883   0.172
93746W        W60287  37.533  32.951   2.647
93747W        W60288  37.929   7.974  12.992
93748W        W60289  12.672  39.904   1.376
93749W        W60290  21.125   0.378  12.638
93750W        W60291   7.745   4.403  13.844
93751W        W60292   2.218  28.731   3.259
93752W        W60293  10.698  35.987  14.034
93753W        W60294  32.488  29.635  14.336
93754W        W60295  36.535  21.158   3.908
93755W        W60296   5.060  37.872  12.554
93756W        W60297  19.837  27.915   1.648
93757W        W60298   8.984  22.485   4.062
93758W        W60299  43.286  11.716  11.558
93759W        W60300   5.115  13.292  13.589
93760W        W60301  16.420  34.292  11.526
93761W        W60302  20.273  21.249   4.609
93762W        W60303  22.301  14.533  12.105
93763W        W60304  23.451  14.519   0.014
93764W        W60305  28.971  32.223  13.881
93765W        W60306   5.867  19.134   3.088
93766W        W60307   4.258   6.793   1.298
93767W        W60308  27.693  16.233   0.962
93768W        W60309  19.725  10.840  11.531
93769W        W60310  24.498  11.721   1.343
93770W        W60311  35.605   9.526   2.424
93771W        W60312  36.885   8.273  12.215
93772W        W60313  33.503  29.067  10.836
93773W        W60314  24.939  16.386  13.035
93774W        W60315  19.370   2.237  11.131
93775W        W60316  34.669  42.011   3.655
93776W        W60317   0.481  21.293   4.580
93777W        W60318   5.198  37.585   4.581
93778W        W60319  39.782  40.762  12.460
93779W        W60320  17.036  11.061  10.774
93780W        W60321  40.250  37.382   3.647
93781W        W60322  20.238  27.685   0.708
93782W        W60323   6.844  43.450   1.221
93783W        W60324  30.411  23.052  12.817
93784W        W60325  12.783  16.258   0.343
93785W        W60326  27.839  21.153  13.035
93786W        W60327   2.068  34.341   3.942
93787W        W60328  25.634  27.031  12.598
93788W        W60329  27.465  19.687  14.073
93789W        W60330   7.000  14.843   3.715
93790W        W60331   6.824  31.836   3.320
93791W        W60332   0.676  33.955   3.623
93792W        W60333  40.586  34.135  12.992
93793W        W60334  23.986  32.898   3.514
93794W        W60335  14.124  26.548   1.623
93795W        W60336   8.900   1.501   3.759
93796W        W60337  11.275   8.990  12.101
93797W        W60338  23.668  37.535  10.697
93798W        W60339  23.733   4.698  14.760
93799W        W60340  32.131  35.804   4.839
93800W        W60341  34.567  19.822  10.950
93801W        W60342  31.479  40.093  10.456
93802W        W60343  11.642   3.208  14.300
93803W        W60344  24.283  11.181  12.334
93804W        W60345   7.785  14.673   4.842
93805W        W60346  27.704  10.162  12.639
93806W        W60347  17.991   0.039   4.171
93807W        W60348  19.701  19.720   1.421
93808W        W60349  37.303  22.274   4.798
93809W        W60350  26.912  32.986   2.766
93810W        W60351  23.484  35.385  11.607
93811W        W60352  41.874  22.606  14.652
93812W        W60353  13.472  38.905   2.429
93813W        W60354  44.821  20.560   3.246
93814W        W60355  25.795  12.236  11.054
93815W        W60356  40.456   9.760  12.552
93816W        W60357   7.383   5.927  10.733
93817W        W60358  19.819  13.407   2.794
93818W        W60359  15.159  27.628   3.176
93819W        W60360  25.668  23.686  11.117
93820W        W60361  14.736   7.998   3.907
93821W        W60362   2.365   3.997  12.321
93822W        W60363  15.490  19.746   0.352
93823W        W60364   6.391  21.802  14.676
93824W        W60365  28.251  39.410   0.374
93825W        W60366  20.353  22.165  14.738
93826W        W60367  27.407  37.376  12.578
93827W        W60368   9.488  18.264   4.594
93828W        W60369   3.044  24.137   1.258
93829W        W60370  44.776  44.040   4.140
93830W        W60371  32.159   4.959   0.707
93831W        W60372  43.389  10.905   0.920
93832W        W60373  11.846  14.968   2.757
93833W        W60374  44.397   0.895  12.217
93834W        W60375  23.142  23.605  11.877
93835W        W60376  10.722  23.924  10.534
93836W        W60377  38.254  44.549  14.779
93837W        W60378   0.859  13.482  14.372
93838W        W60379  24.933  39.328   1.081
93839W        W60380   1.258  43.282   4.711
93840W        W60381  28.046   5.369   2.637
93841W        W60382   8.691  15.828  10.662
93842W        W60383  18.725  16.785   1.418
93843W        W60384  22.052  10.332  13.258
93844W        W60385  36.087  37.592   0.903
93845W        W60386   8.981   6.224   0.412
93846W        W60387  33.571  42.667  11.944
93847W        W60388  30.954   0.506  11.176
93848W        W60389  10.782  38.937   0.626
93849W        W60390  33.890  40.545   1.199
93850W        W60391  19.258  41.516  14.009
93851W        W60392  24.802  22.595   1.699
93852W        W60393  29.396   1.038  13.087
93853W        W60394  44.500  34.960   3.261
93854W        W60395  28.075   0.389   2.798
93855W        W60396  18.172   5.993   3.648
93856W        W60397  13.737  31.136   2.703
93857W        W60398  24.936  11.143  13.942
93858W        W60399  42.447  44.147   4.850
93859W        W60400  35.798  20.150  13.472
93860W        W60401  44.222  13.262  10.677
93861W        W60402   0.344  16.611   3.312
93862W        W60403  21.768   3.753   3.723
93863W        W60404  34.260   1.279   4.997
93864W        W60405  26.679  17.571  13.429
93865W        W60406  17.868  17.558   4.052
93866W        W60407   9.705  13.625  13.991
93867W        W60408  37.070  35.380  13.841
93868W        W60409  18.153  25.651   0.013
93869W        W60410  19.828  19.145   0.792
93870W        W60411   1.512  41.699   1.650
93871W        W60412  18.973  11.297  11.472
93872W        W60413  26.678  30.929  12.570
93873W        W60414  18.619  17.638  12.115
93874W        W60415  18.870  15.887   1.853
93875W        W60416  19.979  31.410   3.768
93876W        W60417  37.049  36.571   1.268
93877W        W60418  35.623  12.650  13.920
93878W        W60419  28.648  27.215  12.028
93879W        W60420  20.122  34.196  11.905
93880W        W60421   1.387  38.406  13.489
93881W        W60422  15.771  26.144  11.159
93882W        W60423   3.329  24.229   0.217
93883W        W60424  24.789  34.853  14.540
93884W        W60425   5.663  40.432   0.374
93885W        W60426   4.678  22.224  12.534
93886W        W60427  15.188  39.126  12.332
93887W        W60428  22.232  23.202  14.031
93888W        W60429  14.353   7.237  12.824
93889W        W60430  26.964  11.769   2.388
93890W        W60431   5.918  16.451  11.117
93891W        W60432   5.839  39.845   1.742
93892W        W60433  42.446  32.657   0.273
93893W        W60434  26.675  40.227   2.905
93894W        W60435  12.962  33.872  14.581
93895W        W60436  21.581   7.924   4.142
93896W        W60437  28.042  38.282  10.597
93897W        W60438  40.133  34.533   9.851
93898W        W60439  13.181  40.303  11.381
93899W        W60440  43.737  21.658   3.340
93900W        W60441   0.860  39.539   3.560
93901W        W60442  10.842  22.853  14.461
93902W        W60443   6.536  25.732   5.549
93903W        W60444   0.252   3.720  11.631
93904W        W60445   5.319   5.425   0.352
93905W        W60446  36.338  21.585   1.274
93906W        W60447  28.979  42.331   4.307
93907W        W60448   0.220  33.571   0.153
93908W        W60449  29.347  24.757   4.090
93909W        W60450  28.205  21.421  13.509
93910W        W60451  44.347  27.963  14.593
93911W        W60452  16.913   8.266  12.071
93912W        W60453  30.592   5.413   1.914
93913W        W60454  19.737   9.464   2.191
93914W        W60455  19.546   6.858  14.442
93915W        W60456  12.419  15.367   5.142
93916W        W60457   5.366  17.658  14.479
93917W        W60458   1.813   4.129  12.598
93918W        W60459  25.666  12.866   2.565
93919W        W60460  33.217  41.350   2.586
93920W        W60461  32.847  32.333  11.097
93921W        W60462  27.153  24.034  10.252
93922W        W60463  29.844  42.880  13.123
93923W        W60464  39.216  31.977   2.715
93924W        W60465  20.131  38.960  14.866
93925W        W60466   6.800  25.275   4.163
93926W        W60467  25.236   8.055   3.751
93927W        W60468  31.673  13.849   1.623
93928W        W60469  22.709  25.021   2.459
93929W        W60470  33.967  37.334  14.157
93930W        W60471   3.865  19.824   1.307
93931W        W60472   6.363   3.475  10.726
93932W        W60473   2.368   5.808   2.949
93933W        W60474  35.221  16.397   0.819
93934W        W60475  34.550  14.305  11.487
93935W        W60476  26.131  24.000  12.757
93936W        W60477   7.395  17.795  14.832
93937W        W60478   9.541  36.684   0.205
93938W        W60479  25.549   2.811  10.615
93939W        W60480  41.356  40.231  11.063
93940W        W60481  22.517  19.056  13.272
93941W        W60482  33.062  27.467   0.389
93942W        W60483  41.589  33.370  11.175
93943W        W60484   4.211  16.703   0.451
93944W        W60485  43.542  33.414  13.122
93945W        W60486  34.229  40.307  14.126
93946W        W60487  16.707  25.582  14.052
93947W        W60488  15.700   4.991   0.218
93948W        W60489  27.906  11.877   3.372
93949W        W60490  18.268  38.851  11.613
93950W        W60491  28.176  27.609  13.818
93951W        W60492  17.536   2.251   4.420
93952W        W60493  23.100   6.605   2.340
93953W        W60494   7.389   8.280  12.501
93954W        W60495  35.140   5.408  10.917
93955W        W60496   9.776  24.934   3.755
93956W        W60497  10.191  33.191  14.422
93957W        W60498  30.139  33.559  13.826
93958W        W60499  30.252  41.834   1.936
93959W        W60500  14.472   7.454  11.180
93960W        W60501   8.724  25.901   0.984
93961W        W60502  30.535  23.546  14.039
93962W        W60503   4.388  35.559   0.741
93963W        W60504  11.806  38.537   1.235
93964W        W60505  15.352  26.703  10.164
93965W        W60506  25.566   5.362   9.836
93966W        W60507  25.118   4.968   4.807
93967W        W60508  44.259  41.466   4.097
93968W        W60509   5.986  37.761   2.357
93969W        W60510  33.216  39.894  10.061
93970W        W60511   4.436  11.117  11.942
93971W        W60512  12.261  30.515   4.576
93972W        W60513  28.664  21.610  14.977
93973W        W60514  15.871  23.068  13.458
93974W        W60515  20.323  24.427   2.730
93975W        W60516  21.067  18.030  10.698
93976W        W60517   3.779  31.427  14.456
93977W        W60518   9.416  17.299  10.635
93978W        W60519  33.245  26.981  11.710
93979W        W60520  44.826  19.621   1.567
93980W        W60521  39.926   7.720   0.823
93981W        W60522  35.966  13.114  11.565
93982W        W60523  11.914  43.457  14.841
93983W        W60524   4.528   1.283  11.195
93984W        W60525   7.816  22.737   2.328
93985W        W60526  23.871   7.286  12.486
93986W        W60527  14.321  23.334  12.928
93987W        W60528  27.184  41.234   0.880
93988W        W60529  24.090  10.424   1.742
93989W        W60530  43.499   0.742   2.868
93990W        W60531  20.496  43.818   2.333
93991W        W60532  10.301  33.559   4.960
93992W        W60533  30.122  10.733  10.048
93993W        W60534  31.444  22.996  11.189
93994W        W60535  30.212  39.279   1.423
93995W        W60536   7.307  19.714   0.465
93996W        W60537  13.052  28.774  11.501
93997W        W60538   1.021  35.043   2.197
93998W        W60539   8.753  37.705  10.715
93999W        W60540   9.212   6.381  14.960
94000W        W60541  40.550  18.860   4.113
94001W        W60542   9.695  44.240  13.003
94002W        W60543   2.429   9.787  10.864
94003W        W60544  33.256  17.537  12.519
94004W        W60545  42.285  41.097  11.044
94005W        W60546  41.405  23.996  12.032
94006W        W60547  42.030  33.470   3.203
94007W        W60548  41.878  39.909  14.179
94008W        W60549  21.261  37.332  11.139
94009W        W60550   7.565  10.152  14.498
94010W        W60551  43.443  44.462   3.346
94011W        W60552  21.258  27.953   1.085
94012W        W60553  23.278   3.295   4.989
94013W        W60554  21.156   6.352  14.218
94014W        W60555   7.893  23.046   2.881
94015W        W60556  27.600   8.198  10.751
94016W        W60557  34.278   4.847  14.374
94017W        W60558  12.651   6.231  13.300
94018W        W60559  17.557   5.070   2.177
94019W        W60560   8.827  11.461  14.280
94020W        W60561  36.150  21.321   3.183
94021W        W60562  19.563   2.466  11.572
94022W        W60563   4.230  21.459   1.226
94023W        W60564  35.941  29.149  12.525
94024W        W60565  37.554  37.017  14.274
94025W        W60566  39.837  42.981  10.966
94026W        W60567  12.909  26.201  11.491
94027W        W60568   7.763  35.944   3.754
94028W        W60569  36.955  17.906  12.504
94029W        W60570  39.837  41.885   4.158
94030W        W60571   1.521  24.384   3.343
94031W        W60572  15.824   2.585  13.559
94032W        W60573  31.653  21.307   1.547
94033W        W60574  15.163   1.698   2.728
94034W        W60575  18.325  21.133  11.237
94035W        W60576  27.287   6.399   3.539
94036W        W60577  10.780  20.097  13.973
94037W        W60578  40.450   6.422   3.821
94038W        W60579  10.857  40.263  13.799
94039W        W60580  23.316  21.586   5.083
94040W        W60581  33.542  35.377   3.732
94041W        W60582  27.814  12.165  11.164
94042W        W60583  26.237  26.221  10.536
94043W        W60584   9.205  20.749  11.749
94044W        W60585  10.085  25.790  11.648
94045W        W60586  28.023  10.835   2.415
94046W        W60587  30.478   2.741  14.021
94047W        W60588   5.110  38.610  12.997
94048W        W60589  32.322  35.985  14.406
94049W        W60590  26.877  42.935   3.564
94050W        W60591  43.379  23.118   2.678
94051W        W60592  39.588  20.354   1.799
94052W        W60593  30.244  26.941   2.395
94053W        W60594  40.759   4.364   0.232
94054W        W60595  17.065  11.678   1.355
94055W        W60596  39.956   6.461  12.534
94056W        W60597   0.347  43.227  12.616
94057W        W60598  43.792  11.099  14.271
94058W        W60599   0.198   5.902   1.355
94059W        W60600   6.313  36.306   3.972
94060W        W60601   7.156  35.642  13.480
94061W        W60602  17.927  39.855   4.195
94062W        W60603  37.096  44.193   1.225
94063W        W60604   1.059  18.031   5.093
94064W        W60605  39.908  11.067  10.176
94065W        W60606   3.813  41.697  11.556
94066W        W60607  26.399  14.340   4.050
94067W        W60608  33.299   7.713   3.089
94068W        W60609  40.309  18.907  14.519
94069W        W60610  23.700  13.523  11.543
94070W        W60611  24.126  42.865   0.963
94071W        W60612  44.980   2.745  12.345
94072W        W60613  27.905   5.696   3.614
94073W        W60614  34.576  28.708   1.314
94074W        W60615  30.831  43.373   1.124
94075W        W60616  19.980  10.765   1.841
94076W        W60617  44.347  23.289   0.245
94077W        W60618   0.054   9.659  13.360
94078W        W60619  20.188  28.992  12.502
94079W        W60620   5.580  29.748  13.775
94080W        W60621  32.682   8.554  13.094
94081W        W60622  12.254   2.206   3.071
94082W        W60623  43.556  39.512  12.334
94083W        W60624  12.771  36.067  11.975
94084W        W60625  12.720  24.698   4.094
94085W        W60626  24.974  11.637   4.562
94086W        W60627  30.530   5.610   1.444
94087W        W60628  13.793  19.969  12.929
94088W        W60629   0.775  26.558   4.473
94089W        W60630  19.214   6.380  13.369
94090W        W60631   7.342   6.338  12.894
94091W        W60632  29.447   4.939   1.373
94092W        W60633   2.487  44.046   0.340
94093W        W60634  34.488  14.714  14.300
94094W        W60635  23.905  39.364   1.285
94095W        W60636  39.350  39.461   2.405
94096W        W60637   6.095  40.331   1.708
94097W        W60638  44.262  15.329  12.063
94098W        W60639  29.347   2.974  14.450
94099W        W60640   3.718  41.315  13.347
94100W        W60641   5.584  33.438   4.546
94101W        W60642  27.626  40.980   0.855
94102W        W60643  35.034   5.368   4.852
94103W        W60644  21.050  38.578   0.853
94104W        W60645  14.897   0.206  10.630
94105W        W60646  11.338  26.194  12.221
94106W        W60647  24.627   9.237   1.969
94107W        W60648   7.733  39.312   2.849
94108W        W60649   1.416   8.134   0.370
94109W        W60650  30.123  23.888  14.004
94110W        W60651  19.502  15.255   0.823
94111W        W60652  14.703   1.074  10.242
94112W        W60653  41.579   3.419  14.989
94113W        W60654  40.862  38.090   1.325
94114W        W60655  18.144  42.416  12.910
94115W        W60656  12.746  40.380  12.643
94116W        W60657  33.689  21.166   4.932
94117W        W60658  42.797  20.508  11.945
94118W        W60659  31.921  20.996   1.251
94119W        W60660   6.294  29.283   1.295
94120W        W60661   5.168  24.674  14.248
94121W        W60662   2.351  36.867  12.758
94122W        W60663  31.266  12.444   4.083
94123W        W60664  17.627  12.911  14.990
94124W        W60665  40.076  10.609   0.128
94125W        W60666  26.650  43.304   1.345
94126W        W60667  20.727  29.463   3.187
94127W        W60668  39.876  30.131  14.979
94128W        W60669  25.492  14.393   0.809
94129W        W60670  19.376  13.289  11.980
94130W        W60671  34.010   2.194   3.583
94131W        W60672  35.516  34.704   3.147
94132W        W60673  28.529  27.422   0.940
94133W        W60674  42.575  29.878  12.860
94134W        W60675  10.373  30.059   1.993
94135W        W60676   6.155  11.018  12.390
94136W        W60677  18.695  43.958  14.546
94137W        W60678  18.644  27.631   4.163
94138W        W60679  28.660  29.677   1.306
94139W        W60680  13.092  26.590   4.109
94140W        W60681  22.640  10.084  13.033
94141W        W60682  21.177  14.560  11.465
94142W        W60683  21.503  16.970   3.056
94143W        W60684  38.825  19.642  10.608
94144W        W60685  21.156  44.801   3.981
94145W        W60686  31.291  28.549  12.404
94146W        W60687   0.301   2.477  14.905
94147W        W60688  26.620   1.384  13.549
94148W        W60689   0.979  21.083   4.543
94149W        W60690  19.335  20.844  12.046
94150W        W60691  21.828  23.243   2.526
94151W        W60692  33.089  35.523  10.732
94152W        W60693  10.243  28.803  11.530
94153W        W60694  32.472  34.310   4.071
94154W        W60695  33.883  22.500   2.160
94155W        W60696  43.936  30.201  11.069
94156W        W60697  12.307  37.772   1.363
94157W        W60698  36.564   1.312  11.182
94158W        W60699  30.669  42.938   3.201
94159W        W60700  16.286  28.197   3.861
94160W        W60701  22.876  38.149  13.361
94161W        W60702  17.403  37.314  10.484
94162W        W60703   1.711   2.653  13.484
94163W        W60704  30.127  33.629  11.390
94164W        W60705   1.448  28.133  12.003
94165W        W60706   6.069   3.581   0.313
94166W        W60707  21.977  15.691  11.520
94167W        W60708  12.870  17.615  10.709
94168W        W60709   1.765  37.563   1.799
94169W        W60710  42.553  28.748   1.744
94170W        W60711  28.149  33.293   4.723
94171W        W60712  18.564  31.613  10.920
94172W        W60713  32.039  10.585  14.001
94173W        W60714   5.345  34.156  12.098
94174W        W60715  16.682  16.151  12.625
94175W        W60716  35.823  23.123  13.169
94176W        W60717  31.202  23.823  12.583
94177W        W60718   5.887  36.281   4.256
94178W        W60719  28.197  11.508   3.606
94179W        W60720   3.036  28.423   0.712
94180W        W60721   4.920   5.210   1.668
94181W        W60722  27.626  28.537   3.362
94182W        W60723   6.357  19.838  11.690
94183W        W60724  30.128  11.380   0.280
94184W        W60725   8.197  19.683   4.668
94185W        W60726  32.007   6.861   0.970
94186W        W60727  34.576   3.788   3.326
94187W        W60728  12.739   2.389   4.788
94188W        W60729  41.667   5.390  11.667
94189W        W60730  28.775  17.407   3.309
94190W        W60731  37.169  26.773  11.151
94191W        W60732  33.396  37.149  11.702
94192W        W60733   7.920  25.205   1.216
94193W        W60734  17.062   9.092  13.900
94194W        W60735  12.291  36.266  12.023
94195W        W60736  44.161  35.905   4.350
94196W        W60737   8.344  37.999   2.659
94197W        W60738   9.311   8.586  12.689
94198W        W60739  36.518   7.327  13.268
94199W        W60740  21.812  17.733  12.350
94200W        W60741  19.216  33.827   4.695
94201W        W60742  13.783  16.084  14.940
94202W        W60743  14.355  29.514   1.689
94203W        W60744  31.896  20.499   4.652
94204W        W60745  20.582   6.069  14.975
94205W        W60746  25.539  22.194  12.808
94206W        W60747  28.901  32.552  12.375
94207W        W60748  18.937  37.986   0.632
94208W        W60749  24.011   8.804  13.986
94209W        W60750  38.986  33.146   3.001
94210W        W60751  29.064  22.154   0.727
94211W        W60752  13.959   0.474   1.211
94212W        W60753  41.373  21.037  10.957
94213W        W60754  23.008  29.608  11.481
94214W        W60755  20.166  17.200  14.439
94215W        W60756  12.556  32.060  10.280
94216W        W60757  38.765  13.209  10.396
94217W        W60758  27.714  13.674  13.041
94218W        W60759  29.482   6.722  12.895
94219W        W60760  44.500  15.925  11.676
94220W        W60761  22.654   5.034   3.563
94221W        W60762  16.090  43.594  11.854
94222W        W60763  10.856  36.270   0.066
94223W        W60764  25.672  36.463  10.584
94224W        W60765  32.027   8.996  13.303
94225W        W60766  17.759  10.407   4.057
94226W        W60767   5.363  23.118   0.750
94227W        W60768   7.161   3.924   2.869
94228W        W60769  43.042  27.820  10.387
94229W        W60770  22.757   9.789  10.454
94230W        W60771  40.739   0.317   0.360
94231W        W60772   9.313   4.935  13.252
94232W        W60773  13.873   2.512  14.553
94233W        W60774  31.209   8.384   1.390
94234W        W60775  14.804  39.472   1.361
94235W        W60776   3.325  33.641   4.006
94236W        W60777  22.123   0.303  10.582
94237W        W60778  40.390  33.311  12.554
94238W        W60779  15.762  40.910  11.225
94239W        W60780   7.874   0.481  13.350
94240W        W60781  37.111  24.985   1.708
94241W        W60782  31.721  18.275   2.559
94242W        W60783  16.000  28.002   1.261
94243W        W60784  19.216  29.648   3.687
94244W        W60785  15.311  16.646   2.194
94245W        W60786  42.199  41.444   0.218
94246W        W60787   0.228  15.400  12.114
94247W        W60788   0.830   7.280   1.252
94248W        W60789  23.073  24.935  12.078
94249W        W60790  39.052  23.218  10.325
94250W        W60791   4.449   2.225   4.209
94251W        W60792  13.893   2.440  11.604
94252W        W60793   2.941  21.568   0.832
94253W        W60794  12.678  29.637  13.612
94254W        W60795  14.359  13.225   1.239
94255W        W60796   3.028  17.160   4.323
94256W        W60797  15.116  18.288   0.329
94257W        W60798  29.519  35.038   3.832
94258W        W60799  17.314  35.059   3.673
94259W        W60800  40.350  23.555  14.370
94260W        W60801  36.000   9.789   1.055
94261W        W60802  33.670  33.558   4.052
94262W        W60803  20.292   3.823  10.411
94263W        W60804  18.569  33.640   1.173
94264W        W60805  13.432  20.061   3.882
94265W        W60806  38.022  34.925  12.465
94266W        W60807  41.663  28.684   3.383
94267W        W60808  38.758  17.058   4.223
94268W        W60809  37.258  43.086  11.014
94269W        W60810  40.169  44.419   1.816
94270W        W60811  25.701  42.509  10.592
94271W        W60812  14.721  25.755   5.008
94272W        W60813  33.014   8.988   4.509
94273W        W60814   1.551   0.480  11.434
94274W        W60815  15.648  36.815  13.365
94275W        W60816  33.394  29.065   3.746
94276W        W60817  41.985   3.178  11.125
94277W        W60818  43.816  14.768  14.803
94278W        W60819  30.668  13.046   1.429
94279W        W60820  15.760  26.632  11.901
94280W        W60821  11.057  19.952   4.232
94281W        W60822  14.209  17.633  10.991
94282W        W60823  20.057  29.174  11.096
94283W        W60824  25.697  18.218   2.736
94284W        W60825  26.088  13.551   4.096
94285W        W60826  27.912  15.022   4.522
94286W        W60827  30.093  38.270   2.829
94287W        W60828  28.596  20.548   1.429
94288W        W60829  18.022   0.800  10.427
94289W        W60830  11.660  44.834   9.986
94290W        W60831  18.776  21.647   1.797
94291W        W60832  16.095  29.596   2.832
94292W        W60833  22.715  43.536  11.599
94293W        W60834  11.151  40.105   0.826
94294W        W60835   0.326  38.902  11.940
94295W        W60836  42.401   1.278   3.387
94296W        W60837   3.807   8.426   0.400
94297W        W60838  11.212  42.730  12.767
94298W        W60839  10.592  33.824  12.622
94299W        W60840  15.760   6.333  14.261
94300W        W60841  34.802  22.411   3.696
94301W        W60842   9.858  26.577  13.990
94302W        W60843  36.517   1.716   0.566
94303W        W60844  18.509  27.246  12.912
94304W        W60845   3.138  29.456  11.191
94305W        W60846  41.858   2.766   4.306
94306W        W60847   9.189  21.691  12.137
94307W        W60848  14.610  36.785  11.487
94308W        W60849  26.694   1.346   0.593
94309W        W60850  43.021  40.522   0.947
94310W        W60851   8.377  14.608   4.400
94311W        W60852  13.865  40.636   2.246
94312W        W60853  43.351  29.970  13.355
94313W        W60854  44.384  34.044   3.240
94314W        W60855  19.785  17.341  13.153
94315W        W60856  38.367   9.388   3.984
94316W        W60857  15.984  37.905  12.865
94317W        W60858  32.387   4.477  11.930
94318W        W60859   3.164  35.898   4.162
94319W        W60860  27.947   3.017   0.225
94320W        W60861  38.342  18.658   0.328
94321W        W60862  16.611  20.602  12.603
94322W        W60863  12.717  39.563  13.863
94323W        W60864   7.902  32.602  10.388
94324W        W60865  27.476  21.721  12.045
94325W        W60866   9.541  10.918   4.231
94326W        W60867  16.110  26.767   0.355
94327W        W60868  21.464  16.243  10.442
94328W        W60869   9.785  18.688   1.453
94329W        W60870  33.596  40.036  12.595
94330W        W60871  36.932  19.581  14.293
94331W        W60872  25.221  22.097   0.860
94332W        W60873   6.491  32.678   2.439
94333W        W60874  40.442  26.953   0.361
94334W        W60875  34.190  38.156  14.354
94335W        W60876  40.233  22.461   3.177
94336W        W60877  31.460  11.118  10.179
94337W        W60878  19.804  23.743  12.872
94338W        W60879   4.931   5.506   2.177
94339W        W60880  12.154  26.438   2.187
94340W        W60881  18.552  10.247   4.691
94341W        W60882  14.502  32.943  11.640
94342W        W60883   8.936  11.936  13.416
94343W        W60884  10.372   8.457   3.239
94344W        W60885   6.164  14.150  13.201
94345W        W60886  27.545  11.048   2.456
94346W        W60887  15.694  24.782   4.061
94347W        W60888  44.014  39.550  13.142
94348W        W60889  39.896  26.290  12.142
94349W        W60890  40.984  17.672  14.305
94350W        W60891  36.477  35.698  11.030
94351W        W60892  27.015  40.464  13.511
94352W        W60893  36.867  16.877   1.103
94353W        W60894  13.013   8.700   2.426
94354W        W60895  43.768  40.441   0.531
94355W        W60896  30.743  26.002  14.733
94356W        W60897  18.668  25.040   0.847
94357W        W60898  26.639  27.352  12.015
94358W        W60899   7.660  27.674   2.716
94359W        W60900  11.831  35.487  11.591
94360W        W60901  24.746  21.241  10.734
94361W        W60902   4.912  13.057  11.987
94362W        W60903  41.004  28.413  14.891
94363W        W60904   6.607  35.943   1.258
94364W        W60905  41.250  28.600   1.865
94365W        W60906  28.118  13.278   1.867
94366W        W60907  33.378  16.485  13.349
94367W        W60908  36.874  31.073  14.762
94368W        W60909  28.662  34.626   4.301
94369W        W60910  22.762   0.391  13.993
94370W        W60911  36.384   7.217   4.919
94371W        W60912  41.944  44.279  14.764
94372W        W60913  43.243  17.844  12.952
94373W        W60914  17.056  12.145  12.581
94374W        W60915   5.068   8.289  11.522
94375W        W60916  11.012   6.397   4.644
94376W        W60917  29.465  28.651  13.516
94377W        W60918  42.414  18.319   1.239
94378W        W60919  37.437  12.720  10.339
94379W        W60920  31.146  24.782   3.958
94380W        W60921   8.229  27.698   4.132
94381W        W60922  18.320  32.137  13.814
94382W        W60923  13.545  24.981  13.274
94383W        W60924  25.021   1.694  12.663
94384W        W60925  11.219  36.503  10.965
94385W        W60926   2.329  13.483   3.238
94386W        W60927   2.172   6.593   0.011
94387W        W60928   6.851  27.629  13.279
94388W        W60929  31.710  42.976  14.347
94389W        W60930  20.693  38.457  10.645
94390W        W60931  22.599   7.924  11.187
94391W        W60932  13.687  10.674   3.273
94392W        W60933  14.571  18.929  12.445
94393W        W60934  21.444  16.778   0.702
94394W        W60935  40.403   1.743  10.267
94395W        W60936   6.211   9.780  10.593
94396W        W60937  40.852   1.441  12.638
94397W        W60938  33.201  27.214  12.663
94398W        W60939  27.568  12.051  13.345
94399W        W60940  27.604  25.823   2.372
94400W        W60941  42.388  25.481  13.915
94401W        W60942  19.245  42.525   4.371
94402W        W60943  30.456  28.395  12.046
94403W        W60944  28.615  26.308  11.950
94404W        W60945   4.150  13.881   3.682
94405W        W60946  11.283  29.666  14.136
94406W        W60947  33.564  14.331  14.261
94407W        W60948  17.917   8.593  11.748
94408W        W60949  42.653  31.363   1.418
94409W        W60950  41.055  12.041   2.879
94410W        W60951   0.675  30.168  14.307
94411W        W60952   7.474  16.925   4.224
94412W        W60953  41.541  13.284  14.850
94413W        W60954  16.140  27.072  12.106
94414W        W60955  18.683  30.242   2.897
94415W        W60956  28.590  31.554   1.987
94416W        W60957  34.329  40.481  12.119
94417W        W60958  20.227  15.179  12.236
94418W        W60959  18.070  22.109   3.336
94419W        W60960  14.686  19.935  12.404
94420W        W60961  29.035   5.922   1.824
94421W        W60962  10.274  22.593  14.988
94422W        W60963   2.912  11.627   0.768
94423W        W60964  16.225  10.429   3.013
94424W        W60965  15.098   6.804   1.962
94425W        W60966   5.798  32.932   4.653
94426W        W60967  37.163  20.084  14.326
94427W        W60968   4.307  22.744  14.880
94428W        W60969  26.394  30.431  14.411
94429W        W60970  39.779  28.137  12.410
94430W        W60971   6.946   2.468   1.765
94431W        W60972  34.645  39.861   3.104
94432W        W60973  12.495  36.514   4.995
94433W        W60974  37.512  16.600   0.857
94434W        W60975   4.905  15.243   3.518
94435W        W60976  34.439  36.067  13.775
94436W        W60977  10.305   9.534  13.455
94437W        W60978  29.650  34.073  14.385
94438W        W60979  27.741   0.988   4.830
94439W        W60980  44.428  26.924   0.588
94440W        W60981  16.801  17.102  11.865
94441W        W60982  43.804  44.523   4.666
94442W        W60983   0.705  42.369   0.269
94443W        W60984  33.884  44.779   3.113
94444W        W60985   9.967  14.226  14.769
94445W        W60986  41.291  14.658  14.969
94446W        W60987  37.878  12.384  10.987
94447W        W60988  13.630  11.478   1.867
94448W        W60989  15.095   8.892   4.274
94449W        W60990   6.699  16.253  10.815
94450W        W60991  41.746  43.324  10.522
94451W        W60992  29.715  31.514   2.871
94452W        W60993  24.506  22.767  14.319
94453W        W60994  38.993  28.384  11.965
94454W        W60995  35.717   2.626  11.993
94455W        W60996  11.736  22.700  13.146
94456W        W60997  13.759  19.295  11.104
94457W        W60998  16.688   2.849   1.700
94458W        W60999  27.948  40.068   1.274
94459W        W61000  13.634  27.737   0.045
94460W        W61001   8.109  29.040   0.446
94461W        W61002  24.661   9.656  14.856
94462W        W61003  22.038  34.215  12.924
94463W        W61004   4.429   4.748   2.234
94464W        W61005  10.924  20.780  14.535
94465W        W61006  28.119  31.512  10.696
94466W        W61007  44.967  19.339   3.685
94467W        W61008  23.652  42.538   4.157
94468W        W61009  34.823  12.144   1.301
94469W        W61010  10.753  16.814  11.012
94470W        W61011  32.441  37.426  12.797
94471W        W61012  15.578  18.560  12.962
94472W        W61013  31.693  33.836  14.667
94473W        W61014  21.820  29.985  12.023
94474W        W61015  43.929  34.783   4.597
94475W        W61016  21.086   8.176   1.778
94476W        W61017  39.027  39.097   2.175
94477W        W61018  23.704  41.749  12.021
94478W        W61019  19.510  12.723   5.713
94479W        W61020  35.058  17.454   0.841
94480W        W61021  27.645  17.056   1.296
94481W        W61022  35.782  21.837  13.088
94482W        W61023   9.237  13.538   0.578
94483W        W61024   6.766  43.378  14.306
94484W        W61025   8.897  41.489  10.282
94485W        W61026   4.967   6.430  13.470
94486W        W61027   5.300   1.919  11.886
94487W        W61028   9.795  15.521  11.022
94488W        W61029  38.070  24.373  12.963
94489W        W61030  25.242  40.828   3.275
94490W        W61031  19.819   0.963   4.762
94491W        W61032   3.279  34.600   4.779
94492W        W61033  24.507   3.063  12.052
94493W        W61034  30.561  26.984  12.912
94494W        W61035   9.291  23.436   2.349
94495W        W61036   5.235  14.124  12.094
94496W        W61037  37.198  44.827  12.999
94497W        W61038   5.573  18.316  14.987
94498W        W61039   6.465  18.197  13.756
94499W        W61040   9.405  39.640  14.787
94500W        W61041  15.254   3.768  12.403
94501W        W61042  33.665  24.365   3.712
94502W        W61043   4.347  35.370  11.940
94503W        W61044   9.895  40.551   1.503
94504W        W61045  43.497   8.640   2.091
94505W        W61046  18.286  26.140   1.363
94506W        W61047  27.433  41.360  14.013
94507W        W61048  22.089  13.757  10.539
94508W        W61049  31.358   6.495   2.158
94509W        W61050  26.082  18.325  11.563
94510W        W61051   9.581  22.036  12.178
94511W        W61052  44.938  30.183  12.122
94512W        W61053  19.300  16.899   9.855
94513W        W61054  32.695  30.132  10.720
94514W        W61055  27.154  19.219  11.497
94515W        W61056   3.913  41.460  12.478
94516W        W61057   0.856  43.985  12.485
94517W        W61058  10.052  33.627  13.295
94518W        W61059  21.305  42.218   3.793
94519W        W61060  41.996  42.007   1.800
94520W        W61061  25.191  34.932  10.528
94521W        W61062  17.363  30.905   3.727
94522W        W61063  27.051  20.636  11.444
94523W        W61064   3.923   0.900   5.523
94524W        W61065  28.842   1.342   3.885
94525W        W61066  16.763  44.311   2.872
94526W        W61067  10.655  25.147   2.686
94527W        W61068  25.170  17.149  12.863
94528W        W61069  17.047   9.996   4.294
94529W        W61070   0.004  26.783  10.836
94530W        W61071   4.450   6.495   3.702
94531W        W61072   9.603  31.521   3.345
94532W        W61073  20.606  40.463   1.500
94533W        W61074  37.336  12.584   2.348
94534W        W61075  36.519  30.908   4.540
94535W        W61076  35.101   9.705   1.400
94536W        W61077  29.470  37.469  12.186
94537W        W61078  21.100  31.130  12.738
94538W        W61079   7.212   5.334   0.031
94539W        W61080  41.765   5.258  12.134
94540W        W61081  19.984  25.871  14.352
94541W        W61082  20.861  32.424   1.161
94542W        W61083  36.905  34.097   4.458
94543W        W61084   8.678   7.345   3.591
94544W        W61085  30.665  27.450   3.152
94545W        W61086  31.146  11.044   3.139
94546W        W61087  39.355  29.184  13.471
94547W        W61088   6.735  34.465  12.877
94548W        W61089   3.447  15.289   3.880
94549W        W61090   2.855  17.025   2.937
94550W        W61091  35.879  24.485   3.483
94551W        W61092   0.977   8.230   1.347
94552W        W61093  29.817  16.996  14.336
94553W        W61094  32.496  35.653  13.989
94554W        W61095   3.865  39.107   1.679
94555W        W61096   5.687  23.100   2.217
94556W        W61097  31.257   8.813  11.900
94557W        W61098  22.617  33.796  14.524
94558W        W61099  22.113  44.236  10.957
94559W        W61100   0.034  23.159  11.626
94560W        W61101  21.572  10.981   1.746
94561W        W61102  13.863  10.675  13.838
94562W        W61103  36.082  11.191  14.046
94563W        W61104   0.973  29.473  12.482
94564W        W61105   9.649  21.295   2.258
94565W        W61106  26.004  25.034  14.669
94566W        W61107  40.268   2.248   2.023
94567W        W61108   9.833  23.967  12.850
94568W        W61109  16.770  30.259  10.717
94569W        W61110  42.426   5.745   0.932
94570W        W61111   3.698   1.827  13.947
94571W        W61112  39.027   0.465   3.214
94572W        W61113  25.662  27.911  11.609
94573W        W61114  26.859  30.913  10.894
94574W        W61115  17.826  32.117  10.707
94575W        W61116  11.339  19.643   2.147
94576W        W61117   4.346  17.504   1.405
94577W        W61118  12.558  28.041   3.645
94578W        W61119  26.154  29.225   4.798
94579W        W61120   2.241  15.011  13.973
94580W        W61121  38.317   4.857  14.387
94581W        W61122  37.290  32.697   1.200
94582W        W61123  21.297  18.162  13.529
94583W        W61124  20.229  30.980  12.134
94584W        W61125   9.126   0.106  12.646
94585W        W61126  31.245  21.711   4.130
94586W        W61127  27.485   8.408   0.393
94587W        W61128   6.835  11.001   3.321
94588W        W61129   1.494  40.330   4.930
94589W        W61130   4.174  35.471  14.345
94590W        W61131   9.910  23.964   2.268
94591W        W61132   9.305  25.108  10.711
94592W        W61133  34.818  39.167   4.511
94593W        W61134  40.801  10.230  14.558
94594W        W61135  44.002  40.553  11.104
94595W        W61136  20.815   1.019   2.297
94596W        W61137  30.874  30.965   2.712
94597W        W61138   5.145  22.074   5.056
94598W        W61139  17.796   2.865  12.543
94599W        W61140   5.651  31.637  11.109
94600W        W61141  33.694  10.843   4.221
94601W        W61142  39.515  11.998   4.135
94602W        W61143  36.518  44.234  14.951
94603W        W61144  40.563  12.909  13.924
94604W        W61145  36.435  35.814   4.581
94605W        W61146  18.573   2.798  11.410
94606W        W61147  39.762  36.064   4.172
94607W        W61148   1.713   1.882  14.951
94608W        W61149  25.667   5.026  10.353
94609W        W61150  11.394  20.256  12.479
94610W        W61151  43.025  40.626   2.715
94611W        W61152   7.261  15.274   3.882
94612W        W61153  29.866  40.332  12.425
94613W        W61154   1.587  32.301  12.989
94614W        W61155  29.554  36.351   0.486
94615W        W61156  23.091  18.267   0.495
94616W        W61157  31.702  16.090  11.973
94617W        W61158   8.237  22.946   3.937
94618W        W61159  43.442   5.659  14.793
94619W        W61160  17.090   8.798   0.248
94620W        W61161  34.032   0.083   5.070
94621W        W61162  36.010  24.022   0.335
94622W        W61163  36.127  25.293  11.073
94623W        W61164  36.571  38.833  13.351
94624W        W61165  37.803  12.628   4.102
94625W        W61166  32.139  28.047  11.544
94626W        W61167  15.702  28.493   4.516
94627W        W61168  19.760  35.478   4.192
94628W        W61169  11.433   7.287   3.710
94629W        W61170  14.704  15.415   0.250
94630W        W61171  18.026  33.430  13.176
94631W        W61172   2.745  14.605   3.749
94632W        W61173  25.406  26.586  10.162
94633W        W61174  25.006  10.969  10.429
94634W        W61175   5.131  33.528   3.612
94635W        W61176  39.981   4.251   4.600
94636W        W61177  18.866   7.816  12.373
94637W        W61178  29.408  14.316  12.424
94638W        W61179   6.158  12.045   0.293
94639W        W61180  39.888  23.889  10.536
94640W        W61181  18.595  33.029  14.210
94641W        W61182   7.322  31.091  10.734
94642W        W61183  17.365  40.210   1.517
94643W        W61184  26.821   4.244   4.277
94644W        W61185  27.472  39.781   3.688
94645W        W61186  17.691  41.109   1.239
94646W        W61187  11.994  13.441  14.211
94647W        W61188  10.330  42.517  11.521
94648W        W61189  19.470  10.282  11.640
94649W        W61190   3.272  35.325  14.032
94650W        W61191  26.176   8.403  12.581
94651W        W61192   6.881  15.069  11.476
94652W        W61193  19.816  40.832   0.246
94653W        W61194  25.167  44.483   0.209
94654W        W61195  39.205  29.469   1.595
94655W        W61196  15.649  13.730  10.315
94656W        W61197  32.696   8.979  13.926
94657W        W61198   0.501  17.537  14.093
94658W        W61199  13.471  26.991  13.387
94659W        W61200  33.735  39.397  11.061
94660W        W61201  31.052   8.494   4.912
94661W        W61202  17.146  33.311   2.862
94662W        W61203  27.059  18.766  13.782
94663W        W61204  13.778  11.642   4.541
94664W        W61205  41.954  30.546  12.848
94665W        W61206  42.566  23.623   4.693
94666W        W61207  35.492  31.665   3.333
94667W        W61208  44.330   8.598   1.660
94668W        W61209  36.022  32.840   3.741
94669W        W61210  33.943  19.065   3.412
94670W        W61211  39.321  17.487  11.460
94671W        W61212   2.472  19.884   1.961
94672W        W61213  40.496  14.965   4.856
94673W        W61214  43.141  30.078   1.311
94674W        W61215   7.795  15.065   3.907
94675W        W61216  39.655   1.677   2.751
94676W        W61217  40.299   6.025   2.787
94677W        W61218  35.648  31.433  12.456
94678W        W61219  20.669  42.024   1.163
94679W        W61220  23.529  36.930  13.809
94680W        W61221  22.887  13.520   4.030
94681W        W61222   4.834   6.617  14.449
94682W        W61223  28.927  20.321  10.875
94683W        W61224  16.176   0.437   3.591
94684W        W61225   5.730  25.977  13.605
94685W        W61226  35.083  25.726   3.153
94686W        W61227  44.437  18.669   3.405
94687W        W61228   9.529  19.757  10.132
94688W        W61229  12.335  37.041  12.592
94689W        W61230  25.478  42.903  10.270
94690W        W61231  14.404  38.853  13.898
94691W        W61232  33.670  30.210   0.263
94692W        W61233   5.390  12.310   3.302
94693W        W61234  20.252  36.313   3.693
94694W        W61235  17.586  21.146   1.768
94695W        W61236  10.898  19.803   3.744
94696W        W61237  34.988  27.191  13.338
94697W        W61238   5.212   0.508   4.116
94698W        W61239  40.272   8.305  11.800
94699W        W61240  28.445  36.662  12.625
94700W        W61241   2.900  35.338  10.641
94701W        W61242   2.441  28.578  12.654
94702W        W61243  13.656  37.319   4.434
94703W        W61244   2.853  20.531  13.537
94704W        W61245  10.129   2.327  14.773
94705W        W61246  15.065  16.252  14.486
94706W        W61247  24.752   4.386  14.825
94707W        W61248  12.387  31.024  13.934
94708W        W61249  36.484   6.150   0.969
94709W        W61250   3.820  31.453   2.340
94710W        W61251   7.324  32.591  12.579
94711W        W61252   6.470  44.219  11.546
94712W        W61253  30.347  40.527  12.514
94713W        W61254  30.908  44.064  13.032
94714W        W61255  20.081  12.238  12.388
94715W        W61256  41.574  33.149   2.151
94716W        W61257  40.304  22.034  14.481
94717W        W61258  31.641  26.934   2.215
94718W        W61259   8.222  40.325  13.061
94719W        W61260  31.480  31.365  11.327
94720W        W61261  10.332   9.203  14.805
94721W        W61262  31.653  20.552   1.299
94722W        W61263  43.268  26.085  14.907
94723W        W61264  23.919   2.107   2.758
94724W        W61265  35.398  36.793  12.656
94725W        W61266  38.355  40.261  12.499
94726W        W61267  11.021  35.798   0.942
94727W        W61268  39.560  10.220   2.754
94728W        W61269   2.834  36.798   0.463
94729W        W61270  15.759  26.375   1.805
94730W        W61271  23.220  23.024   1.427
94731W        W61272  39.337   8.318   2.854
94732W        W61273  12.491  31.511   1.081
94733W        W61274   2.636   7.248  14.080
94734W        W61275  25.015  31.506   2.280
94735W        W61276  24.991  39.373   4.241
94736W        W61277  17.304  42.492   4.094
94737W        W61278  12.878   9.811  13.798
94738W        W61279   6.431   8.857  14.932
94739W        W61280  11.932  44.455  11.820
94740W        W61281  31.533   0.384   1.342
94741W        W61282  25.511  40.254  11.223
94742W        W61283  41.864  43.511  14.381
94743W        W61284  13.564   5.452   1.333
94744W        W61285  19.110  24.076   3.161
94745W        W61286  13.134   8.856  12.011
94746W        W61287  19.684  24.854   3.141
94747W        W61288  17.164  21.105   4.593
94748W        W61289  39.421  32.504  11.949
94749W        W61290  38.043   5.237   1.345
94750W        W61291  13.723  39.421   2.597
94751W        W61292  43.694  19.321  11.917
94752W        W61293  23.615  41.617  10.670
94753W        W61294  13.171  17.077   1.323
94754W        W61295  44.337  29.399   4.794
94755W        W61296  28.086  27.117  12.595
94756W        W61297   8.392  26.734  11.540
94757W        W61298   9.722  41.744   2.436
94758W        W61299  26.779  29.704   1.389
94759W        W61300  39.525  14.247  11.726
94760W        W61301  44.962  19.686   3.297
94761W        W61302  25.697  11.137  11.017
94762W        W61303  21.584  34.885   2.682
94763W        W61304  38.858   3.788   4.003
94764W        W61305  40.239  17.653  11.191
94765W        W61306  27.919  33.919  11.493
94766W        W61307   3.365  18.279   2.849
94767W        W61308  17.375  19.644   1.199
94768W        W61309  40.905  40.503  14.815
94769W        W61310  44.145  17.171  12.015
94770W        W61311  10.152  11.148  10.646
94771W        W61312  13.671   2.517   4.097
94772W        W61313   5.835  37.328   2.638
94773W        W61314  29.464  35.464   3.536
94774W        W61315  36.951  24.542   1.461
94775W        W61316  13.862  28.689   1.446
94776W        W61317  10.259   1.330   1.392
94777W        W61318  44.226  42.369   2.387
94778W        W61319  26.279  12.216  12.906
94779W        W61320  37.012   6.465  14.929
94780W        W61321   1.455  44.971  11.617
94781W        W61322  39.285  38.459   0.848
94782W        W61323  30.546  35.224  13.400
94783W        W61324   3.369  31.881  12.626
94784W        W61325  44.003  40.713   1.671
94785W        W61326   8.164   2.800   1.216
94786W        W61327  25.284  15.050   0.305
94787W        W61328  43.924  21.220   0.721
94788W        W61329  15.028  36.073  12.644
94789W        W61330  31.537  11.115   3.689
94790W        W61331  12.616  39.885   0.475
94791W        W61332  22.069  43.294  12.607
94792W        W61333  15.371  28.625   4.095
94793W        W61334  17.629  16.275  11.186
94794W        W61335  17.603  21.554  12.310
94795W        W61336  16.995  37.556   3.340
94796W        W61337   3.491  16.752  14.959
94797W        W61338  23.560  41.239   0.037
94798W        W61339  24.830  22.537   4.532
94799W        W61340  16.695  38.901  13.405
94800W        W61341  24.162  14.206   2.228
94801W        W61342   7.839  43.793  10.704
94802W        W61343  31.318   2.655   0.007
94803W        W61344   3.241   4.731   1.468
94804W        W61345  14.604  31.956   2.289
94805W        W61346  44.263   8.946  11.189
94806W        W61347  27.167  33.831   1.271
94807W        W61348  36.833  16.655  13.037
94808W        W61349  11.437   7.343  12.880
94809W        W61350  22.615  23.706   3.328
94810W        W61351  32.992  17.807   2.611
94811W        W61352  17.603  31.346   3.698
94812W        W61353  25.368  37.025  14.903
94813W        W61354  21.984  38.354   1.421
94814W        W61355  31.650  42.566   3.796
94815W        W61356  34.953  25.118  11.596
94816W        W61357  33.978   3.770  12.568
94817W        W61358  31.413  24.160   0.917
94818W        W61359  21.601  25.045   4.383
94819W        W61360  14.143  13.373   0.810
94820W        W61361  40.783   6.703   0.433
94821W        W61362   5.665   1.499  13.118
94822W        W61363  35.793  38.836  12.768
94823W        W61364  17.756  33.086   0.270
94824W        W61365  39.399  35.900  11.050
94825W        W61366  19.800  42.528   2.940
94826W        W61367  42.036  41.434  12.071
94827W        W61368  15.062  19.184  13.187
94828W        W61369  39.578  17.654  13.810
94829W        W61370  40.129   2.880  11.078
94830W        W61371   2.855   4.891  11.074
94831W        W61372  28.266  11.688  14.487
94832W        W61373  29.630  31.733   2.395
94833W        W61374  21.437   5.370   2.714
94834W        W61375  16.210  19.041   2.825
94835W        W61376   2.991  17.972  13.443
94836W        W61377  44.063  36.444   1.034
94837W        W61378  41.346  10.935   2.628
94838W        W61379  21.168  34.383   2.375
94839W        W61380  42.498  15.960  10.717
94840W        W61381  43.477  39.346   3.423
94841W        W61382  10.008  23.152   3.355
94842W        W61383  16.259  35.060  12.605
94843W        W61384  37.393  25.525   0.298
94844W        W61385  36.274  30.398  13.977
94845W        W61386  43.379   2.018   0.278
94846W        W61387  35.554  35.238  14.546
94847W        W61388  14.274  36.348  10.961
94848W        W61389  29.604  32.027  11.222
94849W        W61390  22.617   2.129   2.820
94850W        W61391  29.907   4.335   4.280
94851W        W61392  39.297  30.961  14.463
94852W        W61393   0.442  39.741   2.227
94853W        W61394  23.436  22.538   0.480
94854W        W61395   5.983  40.302  13.502
94855W        W61396   8.132  12.083  13.646
94856W        W61397  31.445  15.540  11.894
94857W        W61398  19.557  30.941   0.339
94858W        W61399  32.915  41.424  10.711
94859W        W61400  36.565  23.170   2.231
94860W        W61401  35.994  33.543  12.594
94861W        W61402  38.837  17.920  10.835
94862W        W61403  14.668   4.219  10.717
94863W        W61404   8.603  31.162  13.141
94864W        W61405  29.624  16.187   0.386
94865W        W61406  26.035   9.306   0.843
94866W        W61407  38.783   6.654  11.601
94867W        W61408  34.138  36.379  11.160
94868W        W61409  18.318  23.795  11.175
94869W        W61410  43.996  15.843   9.996
94870W        W61411   7.812  36.982  11.870
94871W        W61412  39.148   1.715   2.733
94872W        W61413  41.838   9.802  11.722
94873W        W61414  43.801   2.954   0.168
94874W        W61415  20.702  27.486   1.876
94875W        W61416  18.518  24.719   3.666
94876W        W61417  16.113  17.787  13.471
94877W        W61418  38.291  21.757   3.580
94878W        W61419  20.538  16.864  13.791
94879W        W61420  14.757   3.657  13.244
94880W        W61421  27.369  31.932  10.795
94881W        W61422  19.654  10.613   0.024
94882W        W61423  19.408  21.000  11.554
94883W        W61424   9.689  21.561  12.629
94884W        W61425  39.521  35.367   1.357
94885W        W61426  12.400   6.457   3.337
94886W        W61427   9.443  15.868  12.203
94887W        W61428  29.130  26.177   5.244
94888W        W61429  34.640  27.714   4.570
94889W        W61430  43.943  13.837  11.335
94890W        W61431  14.641   8.228  14.584
94891W        W61432   2.703  29.099  14.052
94892W        W61433  43.492  13.839   1.146
94893W        W61434   1.398   7.888   1.222
94894W        W61435  30.176  31.603  11.821
94895W        W61436  20.772   6.195   3.247
94896W        W61437  23.961  16.758   2.997
94897W        W61438   5.775  25.540  14.969
94898W        W61439  19.081  30.421  12.403
94899W        W61440  38.025  42.081   4.580
94900W        W61441  40.525  43.513   2.224
94901W        W61442  34.233   1.890   2.396
94902W        W61443  36.285  21.078   1.436
94903W        W61444  41.809  32.824  13.395
94904W        W61445  27.440  10.842  11.182
94905W        W61446  15.276  25.036   4.784
94906W        W61447  44.484  29.133   0.308
94907W        W61448  23.992  31.139  11.159
94908W        W61449  40.115  22.259   2.695
94909W        W61450  37.792  15.608  14.603
94910W        W61451  27.974   4.367  10.464
94911W        W61452  14.618  25.208  11.311
94912W        W61453  15.398  27.963  11.127
94913W        W61454   6.624  30.009   2.363
94914W        W61455   4.379  27.377   0.512
94915W        W61456  16.610   7.769   1.826
94916W        W61457  32.199  32.855  14.532
94917W        W61458  17.902   8.914  12.567
94918W        W61459  16.206  31.795  10.191
94919W        W61460  43.830   7.486   4.416
94920W        W61461  19.449  42.056  11.992
94921W        W61462  28.972  41.347  13.999
94922W        W61463  12.238  35.365   1.761
94923W        W61464  14.271  12.143  13.294
94924W        W61465   2.923  42.271  12.399
94925W        W61466  42.843   2.957  13.113
94926W        W61467   9.448  12.197  14.374
94927W        W61468  42.672   1.270  10.732
94928W        W61469   5.811  16.989   2.441
94929W        W61470  33.898   7.224   2.731
94930W        W61471  38.562   7.850  12.475
94931W        W61472  12.637  30.567  11.567
94932W        W61473   6.962  42.468   1.430
94933W        W61474  21.727  32.479  12.476
94934W        W61475  44.509   4.121  11.650
94935W        W61476   2.482  20.578   0.393
94936W        W61477   9.248  31.558   0.322
94937W        W61478   6.326  31.586   4.846
94938W        W61479  14.622  22.332   1.747
94939W        W61480  40.200  25.518   0.159
94940W        W61481  17.243  11.526  13.536
94941W        W61482  13.434   9.876  13.585
94942W        W61483  34.967  42.685   4.172
94943W        W61484  36.476   3.322  12.930
94944W        W61485  21.133  38.019   3.395
94945W        W61486   5.875   4.309   4.374
94946W        W61487  26.969  29.927  13.968
94947W        W61488   2.864   7.163   3.374
94948W        W61489  28.241  27.290   3.062
94949W        W61490  27.095   3.327   0.771
94950W        W61491  30.373   6.417   1.807
94951W        W61492  18.249  36.310   1.809
94952W        W61493   0.403   3.471  12.052
94953W        W61494  39.068  32.035   0.227
94954W        W61495   1.212  11.087  14.470
94955W        W61496  19.208  31.039  14.968
94956W        W61497  42.319   6.313  13.009
94957W        W61498   8.727  12.167  11.650
94958W        W61499  15.200  12.766  13.764
94959W        W61500  43.323  22.539   2.882
94960W        W61501  11.829   8.979   0.823
94961W        W61502  25.596  36.427  12.990
94962W        W61503  16.365  29.203  14.545
94963W        W61504   1.276  29.694   1.324
94964W        W61505  44.836  12.995   0.341
94965W        W61506   3.884  36.097  12.988
94966W        W61507  10.845  39.397  11.122
94967W        W61508  10.394  42.264  13.224
94968W        W61509  43.744  23.077  13.486
94969W        W61510  21.206  26.450   2.166
94970W        W61511   5.686  26.336   0.326
94971W        W61512  23.078   8.671  10.964
94972W        W61513   9.165  23.365   3.585
94973W        W61514  18.153  15.644  13.486
94974W        W61515  41.551  34.365  14.441
94975W        W61516   7.821  37.748   3.601
94976W        W61517  23.663  39.820   1.321
94977W        W61518  15.844  41.816  10.719
94978W        W61519  30.942  29.423   1.694
94979W        W61520  39.945  39.624   1.166
94980W        W61521  13.221  44.067   0.728
94981W        W61522  32.816  42.044   4.235
94982W        W61523  34.411  27.924  14.919
94983W        W61524  14.120  39.347   2.945
94984W        W61525  15.627   4.101  14.042
94985W        W61526  28.296   8.800  10.804
94986W        W61527  11.548  10.736  12.312
94987W        W61528  42.930   4.424  13.055
94988W        W61529  18.380  10.278  10.296
94989W        W61530  28.617  22.297   1.922
94990W        W61531  24.670   9.890   0.329
94991W        W61532  13.432  16.629  11.134
94992W        W61533  38.244  15.639  14.934
94993W        W61534  26.127  36.643   0.445
94994W        W61535  36.431  30.837   3.057
94995W        W61536   8.576  10.729   3.869
94996W        W61537  43.844  41.234   1.746
94997W        W61538  18.846  38.403  13.408
94998W        W61539  15.516  41.725  11.559
94999W        W61540  27.017   9.673  12.303
95000W        W61541  16.675  16.389  14.928
95001W        W61542  43.814  39.643  14.107
95002W        W61543  10.332  42.009  11.538
95003W        W61544  23.970  16.091   3.674
95004W        W61545   8.395  40.821  12.545
95005W        W61546  24.172   8.339   0.767
95006W        W61547   7.954  28.156  12.066
95007W        W61548  28.935  42.545   0.340
95008W        W61549   7.388  18.648  13.883
95009W        W61550  42.917   7.241  13.257
95010W        W61551  30.710  40.312  13.467
95011W        W61552   8.363  42.528   0.218
95012W        W61553  42.084  39.420   4.089
95013W        W61554  29.869  17.106   1.273
95014W        W61555  37.584  24.859  14.676
95015W        W61556  38.298  24.661   1.302
95016W        W61557  13.808   8.011  12.897
95017W        W61558  26.215   2.496   2.714
95018W        W61559  13.119  29.842   1.731
95019W        W61560  41.566  17.635  11.402
95020W        W61561  37.452  35.549   1.846
95021W        W61562  14.239  25.220  12.651
95022W        W61563  28.678  25.571   1.904
95023W        W61564  31.450  36.948   2.283
95024W        W61565   2.661  25.711   3.887
95025W        W61566  10.651   1.279   1.050
95026W        W61567  21.670  42.794   0.232
95027W        W61568  38.566  23.306  14.992
95028W        W61569  31.919  22.997  12.835
95029W        W61570  23.001   7.964   2.449
95030W        W61571  19.173   2.781   1.410
95031W        W61572  18.678   1.902  13.911
95032W        W61573  44.453  27.201  12.010
95033W        W61574   8.675   6.677  12.003
95034W        W61575   5.326  43.238  12.024
95035W        W61576  29.671  34.135  13.400
95036W        W61577  24.370  32.112   0.438
95037W        W61578  44.811   3.345  11.103
95038W        W61579  22.621  25.174  13.039
95039W        W61580   9.348  25.018  12.675
95040W        W61581  16.885   3.458  12.810
95041W        W61582  28.735   2.746  13.157
95042W        W61583   1.210  40.208   2.287
95043W        W61584  28.544  24.626   4.410
95044W        W61585  44.727   5.920   2.839
95045W        W61586  39.846  41.956   2.244
95046W        W61587  35.693  40.365   4.886
95047W        W61588  19.106  35.210  12.902
95048W        W61589   7.588  32.896   4.345
95049W        W61590  40.315   4.795  11.043
95050W        W61591   8.681  30.129  14.555
95051W        W61592  18.529  43.556  11.245
95052W        W61593   7.782  15.627   0.094
95053W        W61594  42.235  31.322  11.201
95054W        W61595  37.864   8.761  11.549
95055W        W61596  14.841   0.821  13.867
95056W        W61597  38.439  11.629   2.487
95057W        W61598   8.148  10.824  10.761
95058W        W61599  16.015  34.839  10.218
95059W        W61600  39.770  43.811  13.496
95060W        W61601  38.734  26.682   1.714
95061W        W61602  14.244  14.761   4.031
95062W        W61603  13.739  29.251   4.435
95063W        W61604  31.164   6.440   1.342
95064W        W61605  42.939  34.982  14.944
95065W        W61606  22.388  34.147  14.836
95066W        W61607  10.866   4.320   1.691
95067W        W61608  32.045  12.382  14.495
95068W        W61609  33.166  30.110  12.016
95069W        W61610   4.495  41.936   1.936
95070W        W61611  36.894  10.183   2.688
95071W        W61612  35.086  35.508   4.190
95072W        W61613   7.326  40.762  14.069
95073W        W61614   9.127  18.831  12.042
95074W        W61615   1.742  44.921   4.288
95075W        W61616  28.988  35.408   3.944
95076W        W61617   0.514  39.035   3.501
95077W        W61618  41.832  11.150   1.167
95078W        W61619  24.980  44.717   1.483
95079W        W61620  10.653  13.585   0.982
95080W        W61621   6.677  15.995  13.346
95081W        W61622   7.909   7.910   1.526
95082W        W61623  37.087  36.092  14.324
95083W        W61624  19.597  35.561  14.964
95084W        W61625  13.619  40.638  13.761
95085W        W61626  12.181  28.488   1.104
95086W        W61627  20.707  27.519  11.414
95087W        W61628   6.867  34.521   1.562
95088W        W61629  31.316  16.185  13.544
95089W        W61630  41.726  16.936  14.468
95090W        W61631  31.471  24.253  11.743
95091W        W61632  16.618  23.159   0.864
95092W        W61633  29.869   0.826  12.954
95093W        W61634   7.814  13.709  10.988
95094W        W61635  30.965  23.469   1.637
95095W        W61636  14.335  34.464   2.741
95096W        W61637  33.405  32.509   2.396
95097W        W61638  40.478  14.351  14.032
95098W        W61639  10.518  16.157   2.205
95099W        W61640  26.652  10.125   2.226
95100W        W61641   6.473  27.545   1.856
95101W        W61642  38.990  14.363   2.794
95102W        W61643  19.773  22.165   1.182
95103W        W61644  21.316  25.735  13.443
95104W        W61645  26.582  12.292   1.143
95105W        W61646  44.964   8.234   0.197
95106W        W61647  17.228   8.763   3.721
95107W        W61648   9.383   6.096  14.465
95108W        W61649  17.281  18.990  13.910
95109W        W61650  23.624  19.351  14.402
95110W        W61651  43.946  30.456   0.488
95111W        W61652  41.285  42.866   2.719
95112W        W61653   1.786  30.082  14.236
95113W        W61654   6.546   5.131  11.836
95114W        W61655   5.486   2.341   3.712
95115W        W61656  33.697  17.828  11.665
95116W        W61657  17.299  34.510  14.816
95117W        W61658  42.587  40.782  13.345
95118W        W61659  34.527  18.761   0.667
95119W        W61660  26.064  25.092   0.439
95120W        W61661  40.455   3.170  14.865
95121W        W61662   1.874  36.592  13.519
95122W        W61663  37.013  44.450  14.097
95123W        W61664  18.718   8.289  12.461
95124W        W61665  31.940   0.197   1.936
95125W        W61666  16.660  40.285  13.429
95126W        W61667  12.515  10.528  12.489
95127W        W61668  34.079   7.681   2.886
95128W        W61669  44.993  37.327   1.278
95129W        W61670  29.693   0.317  11.532
95130W        W61671  22.797   3.280   2.190
95131W        W61672  43.867  17.185   2.296
95132W        W61673   6.659  35.835  11.066
95133W        W61674   0.931  15.685   4.465
95134W        W61675  42.571  10.186  13.881
95135W        W61676   5.839  39.245   4.697
95136W        W61677  37.307  30.154  10.824
95137W        W61678  29.872  23.504   4.071
95138W        W61679  31.678   1.849   2.742
95139W        W61680  23.103   2.870  11.404
95140W        W61681  22.718  12.638  12.945
95141W        W61682   0.930  17.514   0.724
95142W        W61683  22.014  24.757   3.672
95143W        W61684  35.040  32.736  12.520
95144W        W61685   3.506  37.567   3.514
95145W        W61686  36.883  19.843   3.859
95146W        W61687  36.540  42.449  13.884
95147W        W61688   9.123  11.360  12.935
95148W        W61689  24.212  37.572   0.235
95149W        W61690  20.074  32.990   4.130
95150W        W61691  42.313   3.358   4.222
95151W        W61692  31.023  14.296   3.910
95152W        W61693   1.783  43.361   4.837
95153W        W61694   6.232  35.093  13.575
95154W        W61695  19.741  36.135   1.492
95155W        W61696  28.849  27.700  12.007
95156W        W61697  12.650  19.756  13.814
95157W        W61698  15.055   7.363  10.786
95158W        W61699  36.548   6.457  12.451
95159W        W61700  17.634  22.660   0.328
95160W        W61701  37.378  16.211  11.189
95161W        W61702  33.062  28.178   4.406
95162W        W61703  22.932   1.228   3.877
95163W        W61704  39.940  42.736  10.531
95164W        W61705  23.651  24.127  10.738
95165W        W61706  25.235  14.714   1.876
95166W        W61707  11.288  37.090   4.157
95167W        W61708  35.946   0.154  12.368
95168W        W61709  38.154   0.886  12.959
95169W        W61710  28.680  33.417  12.460
95170W        W61711   8.786  32.715   4.130
95171W        W61712  26.360  39.446   0.761
95172W        W61713  34.744  31.919  10.861
95173W        W61714  32.578  39.426  13.613
95174W        W61715   7.461  21.856  12.847
95175W        W61716  36.941  20.453   0.973
95176W        W61717   9.707  28.588  13.337
95177W        W61718  34.692  15.808  11.115
95178W        W61719  32.353   1.244  13.594
95179W        W61720   2.665  38.850   4.117
95180W        W61721  23.072  11.884   4.536
95181W        W61722  41.071  44.425   3.615
95182W        W61723  21.080   1.093  13.288
95183W        W61724  19.179  16.849  12.856
95184W        W61725  20.762   3.437  13.579
95185W        W61726   3.233   6.487  10.216
95186W        W61727  15.808  32.573  12.077
95187W        W61728  43.898  24.821   2.414
95188W        W61729  41.489   1.487   2.353
95189W        W61730  32.714  32.883   1.765
95190W        W61731  28.031  43.857  14.786
95191W        W61732  12.840  37.214   1.928
95192W        W61733  31.197  32.049   0.295
95193W        W61734  14.898  11.454   1.799
95194W        W61735   7.949  34.452  12.161
95195W        W61736  17.545  31.525   0.257
95196W        W61737  31.848   0.779  12.965
95197W        W61738  25.912  27.526   4.278
95198W        W61739   1.894  21.033   1.463
95199W        W61740  16.989  13.536  10.156
95200W        W61741   7.261  36.029  14.438
95201W        W61742  12.785  17.313   4.139
95202W        W61743  32.473  36.724   2.702
95203W        W61744  29.963  27.571   4.506
95204W        W61745  13.643   4.772  10.287
95205W        W61746  41.013  38.058  12.030
95206W        W61747  33.311  31.518   2.874
95207W        W61748  38.303  30.455   4.689
95208W        W61749  18.594  10.051  12.881
95209W        W61750  44.568  36.513   1.030
95210W        W61751  25.111  23.326  13.002
95211W        W61752  20.532  44.967  10.730
95212W        W61753  18.600   6.457   0.875
95213W        W61754  17.094  13.237   0.264
95214W        W61755  12.188  14.351   0.368
95215W        W61756  36.853  43.777   2.824
95216W        W61757  23.605   4.266   2.273
95217W        W61758  30.731  15.827   9.956
95218W        W61759   0.395  34.631   1.255
95219W        W61760  38.002  36.454   5.121
95220W        W61761  35.055  11.572  12.493
95221W        W61762  26.151  21.146   0.784
95222W        W61763  28.118   2.333  14.051
95223W        W61764  33.389  25.909   4.538
95224W        W61765  24.611  12.615  14.469
95225W        W61766  14.367  19.278  12.121
95226W        W61767  25.032   9.949  14.660
95227W        W61768  35.511   8.293   1.958
95228W        W61769  15.094  24.592  11.606
95229W        W61770   1.997   9.242   0.325
95230W        W61771   8.616  34.669  12.959
95231W        W61772  14.562  29.357  14.594
95232W        W61773  28.481  26.924  13.980
95233W        W61774  25.233  39.885   2.521
95234W        W61775  20.734   4.526   1.447
95235W        W61776  19.654  42.023   4.743
95236W        W61777   1.215  20.520  14.991
95237W        W61778  44.731  41.804   1.713
95238W        W61779  37.879   2.538   1.875
95239W        W61780  40.653   7.863   2.769
95240W        W61781  21.495  36.918  12.339
95241W        W61782   0.175   7.611  14.293
95242W        W61783  15.778  44.760  10.708
95243W        W61784  23.322  39.859  12.975
95244W        W61785  37.653   4.938   2.356
95245W        W61786   5.353  20.691  14.624
95246W        W61787  39.465   0.809  11.337
95247W        W61788   7.363  36.308  12.064
95248W        W61789  11.435  35.528  11.898
95249W        W61790  21.129  29.987  14.828
95250W        W61791  39.546   0.938  12.766
95251W        W61792  17.816  12.610   2.506
95252W        W61793  27.988  17.816   3.085
95253W        W61794  21.571   6.696  14.335
95254W        W61795  14.705  41.028   0.379
95255W        W61796  43.825   3.466   0.025
95256W        W61797  26.199  23.689   2.192
95257W        W61798   6.018  19.130   0.287
95258W        W61799  20.321  10.421  10.756
95259W        W61800  17.450  42.268  14.346
95260W        W61801  11.127  28.551  13.391
95261W        W61802  14.655  15.912   0.378
95262W        W61803  28.337  44.463   2.977
95263W        W61804  44.969  19.187  14.796
95264W        W61805   6.750  32.581   1.028
95265W        W61806   6.735  24.636  13.787
95266W        W61807  23.142  32.646  14.831
95267W        W61808  38.604  13.059   2.721
95268W        W61809  22.758  37.417   0.276
95269W        W61810  39.311  42.597  12.509
95270W        W61811  30.839  16.376   2.863
95271W        W61812  29.125  24.666  14.186
95272W        W61813  32.979   2.459   0.002
95273W        W61814  31.217  25.741   5.032
95274W        W61815  19.227   5.935  12.060
95275W        W61816  14.266  20.330   3.932
95276W        W61817  13.266  44.337   2.400
95277W        W61818  16.454  43.776   4.952
95278W        W61819  44.982   9.227  12.145
95279W        W61820  17.825  29.668   3.851
95280W        W61821  24.859  38.933   3.946
95281W        W61822  33.500   5.355  11.536
95282W        W61823   5.190  12.471  14.392
95283W        W61824  37.387  42.581  11.118
95284W        W61825  23.120   1.945   4.179
95285W        W61826  17.828   5.949  12.500
95286W        W61827  13.722  11.191   3.309
95287W        W61828  32.953  10.631   0.942
95288W        W61829  12.773  31.477  12.624
95289W        W61830  15.984   5.858  14.085
95290W        W61831  35.722  17.691   2.320
95291W        W61832  35.624   7.407  13.621
95292W        W61833  36.297  32.957   1.328
95293W        W61834  44.276   7.855   3.837
95294W        W61835  36.791   1.643   1.389
95295W        W61836  43.845   6.096  12.664
95296W        W61837  42.918  32.880  10.119
95297W        W61838  10.874  10.370   4.118
95298W        W61839  40.353  23.367   1.337
95299W        W61840  22.131  31.383  11.211
95300W        W61841  24.121   1.174   2.927
95301W        W61842  43.700  19.801  12.148
95302W        W61843  34.031  21.760   0.849
95303W        W61844  17.708  21.195  14.900
95304W        W61845  40.293  33.665   1.896
95305W        W61846  29.457   5.689   3.178
95306W        W61847  39.283  31.344   2.576
95307W        W61848  41.851  31.570  12.927
95308W        W61849   7.704  21.639   1.424
95309W        W61850  44.969  33.035  11.145
95310W        W61851  16.261  33.094  10.684
95311W        W61852  37.556  30.356  12.874
95312W        W61853  17.755  20.076  10.700
95313W        W61854  12.720  41.466  14.305
95314W        W61855  28.692   6.253   0.015
95315W        W61856  29.894   5.856  10.500
95316W        W61857   5.383   7.479   3.868
95317W        W61858  24.474  40.412  11.796
95318W        W61859  12.284   2.302   4.000
95319W        W61860   8.206   4.389   0.507
95320W        W61861   2.672   9.414  12.155
95321W        W61862   2.864  43.610   9.415
95322W        W61863  29.912   2.250   3.742
95323W        W61864  43.986  10.703   3.463
95324W        W61865  10.898  27.064   0.814
95325W        W61866  35.438  41.433   1.631
95326W        W61867  17.777  10.558   1.869
95327W        W61868  31.039  27.376   2.762
95328W        W61869   6.636  44.359   2.744
95329W        W61870   1.441   1.837   0.385
95330W        W61871  18.187  43.185   4.265
95331W        W61872  43.574  37.380  12.254
95332W        W61873  32.615  41.247  12.915
95333W        W61874  11.398   0.353   1.736
95334W        W61875  34.465   1.436   4.555
95335W        W61876  24.072  37.490   1.166
95336W        W61877  31.209  22.133   1.916
95337W        W61878  12.824  43.043  14.330
95338W        W61879   4.003  44.472   1.756
95339W        W61880  14.974  33.978   1.787
95340W        W61881   7.787   2.869  12.227
95341W        W61882  40.070   3.346   4.607
95342W        W61883  19.190  36.341  11.529
95343W        W61884  12.192  23.204   3.624
95344W        W61885  16.813  16.141   1.810
95345W        W61886   0.504  17.726  13.585
95346W        W61887  37.796  18.578   2.817
95347W        W61888  10.287  37.265   1.173
95348W        W61889  30.105   5.442  14.063
95349W        W61890  21.718  21.609  14.901
95350W        W61891  32.901   0.021  12.842
95351W        W61892  15.586  33.958   3.693
95352W        W61893   3.168  35.438   4.981
95353W        W61894  30.166   5.697   3.918
95354W        W61895  10.470  23.505  14.847
95355W        W61896  42.991   6.182  12.356
95356W        W61897  21.583  30.657  12.744
95357W        W61898   4.740  27.426   1.392
95358W        W61899   7.876  39.788   1.781
95359W        W61900  14.787  40.864   2.751
95360W        W61901  17.608  29.981  14.943
95361W        W61902   4.310  38.832   1.677
95362W        W61903   4.124  40.381   1.246
95363W        W61904  30.992   6.567  14.981
95364W        W61905   8.111  38.588   1.330
95365W        W61906  22.234  29.738   2.750
95366W        W61907  24.187  14.160  13.532
95367W        W61908   3.051  38.834   1.085
95368W        W61909  42.754  11.276   0.271
95369W        W61910  40.985  21.730   0.464
95370W        W61911  41.626  15.612   2.787
95371W        W61912  26.028   0.512   3.155
95372W        W61913  12.845   5.993  14.823
95373W        W61914  29.930  37.482   0.781
95374W        W61915   2.017  34.269   9.796
95375W        W61916  35.953  11.351  13.574
95376W        W61917   9.245   3.086  11.155
95377W        W61918   1.012  32.589  13.135
95378W        W61919  38.386  33.712  12.378
95379W        W61920  38.575  43.906   2.247
95380W        W61921  10.466   8.923  12.076
95381W        W61922  31.559  40.215  14.822
95382W        W61923   9.774  11.759   4.111
95383W        W61924   2.583  42.930  10.532
95384W        W61925  32.385  27.268   1.812
95385W        W61926   1.010   2.449  14.045
95386W        W61927  32.702  29.226   1.263
95387W        W61928  19.919  30.333   1.710
95388W        W61929  31.603  27.625   0.280
95389W        W61930  17.229  33.462  13.941
95390W        W61931   2.609  38.911  12.087
95391W        W61932  11.878  38.031   2.316
95392W        W61933  32.482  38.127  11.615
95393W        W61934  13.851  31.360   1.289
95394W        W61935  42.515   3.274   1.862
95395W        W61936  10.220  12.566  14.523
95396W        W61937  29.901   3.183   1.033
95397W        W61938  24.461  13.599   3.900
95398W        W61939  16.882  31.103   2.323
95399W        W61940  13.219  35.883  12.194
95400W        W61941   5.379  23.743   0.868
95401W        W61942  14.900  43.460   0.734
95402W        W61943   6.459  26.289   2.859
95403W        W61944  23.942  10.262  11.652
95404W        W61945  18.040  34.410  13.399
95405W        W61946  35.493  10.711  11.185
95406W        W61947   7.700  23.999   1.862
95407W        W61948   7.898  18.536  11.428
95408W        W61949  43.440  28.903  12.529
95409W        W61950  44.835  33.107  12.025
95410W        W61951  39.813  22.308   4.115
95411W        W61952  11.910  10.714  11.044
95412W        W61953  44.568  16.129  12.928
95413W        W61954   7.725  43.283  10.747
95414W        W61955  12.306  43.516   3.216
95415W        W61956   5.749  18.674  13.481
95416W        W61957  38.800   3.413   1.783
95417W        W61958  11.860   6.207   3.246
95418W        W61959  12.354   9.670  13.838
95419W        W61960  39.594   3.621  10.709
95420W        W61961  41.490  15.265  11.406
95421W        W61962   9.811   6.316  14.284
95422W        W61963  27.885  25.030  13.935
95423W        W61964   8.421   9.800   2.805
95424W        W61965   2.788  13.278  12.107
95425W        W61966  18.108   6.753   1.972
95426W        W61967   5.827  14.363  12.319
95427W        W61968  24.346  39.824  10.583
95428W        W61969   6.092  40.751  13.206
95429W        W61970  34.349  20.755   0.834
95430W        W61971  25.791  32.314  14.065
95431W        W61972   3.916  23.193   3.664
95432W        W61973  35.448  17.584   3.719
95433W        W61974   3.399  13.897  10.628
95434W        W61975   6.388  41.481   0.199
95435W        W61976   5.480  16.961  12.696
95436W        W61977   0.733  25.980  13.846
95437W        W61978  10.331  21.383  10.131
95438W        W61979   7.128  36.619  13.868
95439W        W61980  29.500   0.035  13.127
95440W        W61981  12.889  12.348   2.170
95441W        W61982  28.678   2.288  11.782
95442W        W61983  11.214  26.361  14.934
95443W        W61984   0.620  32.991  12.579
95444W        W61985  32.447   5.820   4.651
95445W        W61986  35.320  35.576   3.723
95446W        W61987  17.002  29.526  11.147
95447W        W61988  33.562  38.301   0.706
95448W        W61989  40.782  33.554  11.719
95449W        W61990  31.960  15.543  10.255
95450W        W61991  28.676  10.479   1.099
95451W        W61992  18.274  31.203  11.228
95452W        W61993  12.228   7.207  12.578
95453W        W61994   2.680  19.842  11.099
95454W        W61995  28.896  34.559  12.010
95455W        W61996  14.631  15.165  10.582
95456W        W61997  28.157  18.830   4.163
95457W        W61998  33.218   0.632   0.230
95458W        W61999  12.348  42.529  11.631
95459W        W62000  13.301  12.910  13.714
95460W        W62001  13.557  30.382  10.688
95461W        W62002  17.039  42.826   0.004
95462W        W62003  44.734  14.866   1.066
95463W        W62004   1.306  32.449   3.655
95464W        W62005  13.409  10.478  13.073
95465W        W62006  33.161  28.474   2.241
95466W        W62007  13.361   0.346   4.269
95467W        W62008  14.847  21.988  11.495
95468W        W62009  21.720  23.538  14.286
95469W        W62010  15.715  26.504  12.920
95470W        W62011  28.791  14.578   0.803
95471W        W62012  37.071  39.323  10.752
95472W        W62013   1.298  10.795   4.595
95473W        W62014  27.378   2.004  12.866
95474W        W62015  41.459   4.698  13.870
95475W        W62016  40.009  19.061   0.376
95476W        W62017  23.949  34.121  14.773
95477W        W62018   6.612  12.218   3.738
95478W        W62019  15.616  29.726   0.378
95479W        W62020   1.227  32.936   3.456
95480W        W62021  17.673  25.455  12.446
95481W        W62022  14.610  38.759  11.551
95482W        W62023  42.922  30.440   4.192
95483W        W62024  24.534  34.889  14.979
95484W        W62025   4.491  32.286  10.124
95485W        W62026  17.374  16.671  11.789
95486W        W62027  44.367  40.526   2.442
95487W        W62028  33.101  18.643  11.602
95488W        W62029  29.125  30.431  13.392
95489W        W62030   5.036  25.955   3.827
95490W        W62031   6.451   5.875  13.459
95491W        W62032  37.601   7.327   3.220
95492W        W62033  41.516   5.547   1.158
95493W        W62034  15.597  40.346   3.556
95494W        W62035  26.570  11.410   2.477
95495W        W62036  31.980  25.139   2.490
95496W        W62037  42.086  33.048  10.737
95497W        W62038  29.678  35.642   0.984
95498W        W62039  41.076  24.500   2.999
95499W        W62040  32.375  14.759   0.252
95500W        W62041  29.595  41.117  11.121
95501W        W62042   8.732  26.992   3.624
95502W        W62043  23.950   4.904   0.918
95503W        W62044  29.120  33.008   0.980
95504W        W62045   9.632   0.795  10.704
95505W        W62046  32.026  21.500   4.592
95506W        W62047  41.572  44.061  12.595
95507W        W62048  15.184  29.898   4.611
95508W        W62049  32.101  40.324  12.022
95509W        W62050  42.455  18.946  10.999
95510W        W62051  41.538  43.027   1.320
95511W        W62052  36.825  12.691   2.292
95512W        W62053  42.838  35.437  13.139
95513W        W62054  34.576  22.242  13.755
95514W        W62055  10.236   4.919   0.312
95515W        W62056  34.062   7.465   2.307
95516W        W62057  32.279  34.617   2.290
95517W        W62058  26.522  42.528   4.077
95518W        W62059  40.788  10.701  11.498
95519W        W62060  23.785   1.791  12.111
95520W        W62061  31.917  42.487   1.486
95521W        W62062  40.012   7.825   1.855
95522W        W62063  17.593  37.826   3.328
95523W        W62064   2.650  33.320   1.495
95524W        W62065  30.858  37.990  13.075
95525W        W62066  11.734  40.542   3.668
95526W        W62067  18.259  28.041  14.874
95527W        W62068   7.375  35.718  10.498
95528W        W62069  13.974  29.453   5.143
95529W        W62070  39.987   7.704  14.451
95530W        W62071  35.774  43.617  10.787
95531W        W62072  10.963  11.195   3.755
95532W        W62073  42.912   8.245   2.639
95533W        W62074  39.464  38.833  10.750
95534W        W62075  33.917  26.499   2.103
95535W        W62076  29.964   2.706  10.572
95536W        W62077   1.239  44.356   3.231
95537W        W62078  27.386  42.991  11.751
95538W        W62079  20.984  43.039  14.981
95539W        W62080  19.858  18.430   0.505
95540W        W62081  21.548  12.758   0.773
95541W        W62082  16.745  13.653  14.799
95542W        W62083   6.603  13.123   3.532
95543W        W62084  33.071  11.590   1.893
95544W        W62085  15.237   0.986   3.456
95545W        W62086  29.946   2.967   2.564
95546W        W62087  44.267  32.018   0.520
95547W        W62088  15.623   2.761   2.448
95548W        W62089  41.932   9.572   3.255
95549W        W62090  19.506  13.415   4.562
95550W        W62091  20.697  36.838   4.145
95551W        W62092   2.796  18.543   4.707
95552W        W62093  10.871  12.194   2.159
95553W        W62094  39.932  30.239  11.906
95554W        W62095  12.160  23.745  13.549
95555W        W62096  43.696   8.230  11.134
95556W        W62097   8.801  29.732  10.620
95557W        W62098  11.212   3.670   4.180
95558W        W62099  15.731  11.848  13.589
95559W        W62100  15.693   8.452   0.860
95560W        W62101  24.813  17.657   1.752
95561W        W62102   6.763  10.748   1.446
95562W        W62103  30.487  11.318  11.134
95563W        W62104  31.553  18.603  10.837
95564W        W62105  42.126  25.166   1.988
95565W        W62106  42.092   8.461  13.343
95566W        W62107  26.751  41.321  14.570
95567W        W62108  42.906  25.721   3.160
95568W        W62109   7.179   2.808   3.818
95569W        W62110  38.634  41.928   3.053
95570W        W62111   8.662  17.282  10.781
95571W        W62112  30.847  20.668   0.596
95572W        W62113  18.281   8.939  14.902
95573W        W62114  30.567  27.681   2.670
95574W        W62115  23.464  38.148   2.901
95575W        W62116  41.536  40.985  12.905
95576W        W62117  14.127  38.854   4.656
95577W        W62118  17.883  18.726   2.211
95578W        W62119   7.516  10.403  14.042
95579W        W62120  39.466   4.731  13.772
95580W        W62121  31.913  30.590  12.184
95581W        W62122  31.411  25.919  12.013
95582W        W62123   9.252   4.856  14.366
95583W        W62124  39.034  43.317  11.493
95584W        W62125  29.990   9.431  12.005
95585W        W62126  38.601  36.265   4.800
95586W        W62127   0.948  16.648   4.589
95587W        W62128  23.215  29.086   3.834
95588W        W62129  31.047   0.378   3.129
95589W        W62130  28.004  12.321  13.300
95590W        W62131  31.074  17.553   1.610
95591W        W62132  40.912  24.605   3.491
95592W        W62133  28.654   3.438  14.795
95593W        W62134  37.565  26.632   4.653
95594W        W62135  31.957   5.866   4.858
95595W        W62136   9.265  19.800  13.446
95596W        W62137  38.027  11.701   1.858
95597W        W62138  33.120  27.976   0.305
95598W        W62139  26.223   9.664   0.479
95599W        W62140  20.582  42.835   3.630
95600W        W62141  40.071  22.394   0.938
95601W        W62142  16.669   5.534   0.268
95602W        W62143  35.830  39.789   3.662
95603W        W62144  38.071  26.646   4.798
95604W        W62145  44.003  14.883  13.007
95605W        W62146  19.843   2.884   0.449
95606W        W62147   8.203  18.213   2.381
95607W        W62148   4.987  44.418  11.127
95608W        W62149   3.879   6.714  12.063
95609W        W62150  16.880  34.855   1.192
95610W        W62151  12.262  11.087   4.302
95611W        W62152  33.656  39.661  12.969
95612W        W62153  22.977  35.124   2.256
95613W        W62154  30.895  42.448   3.367
95614W        W62155  12.288  24.167   0.434
95615W        W62156  33.469  12.733  11.365
95616W        W62157  17.540  16.353   3.196
95617W        W62158   5.250   8.835   2.258
95618W        W62159  39.397  41.483   1.574
95619W        W62160   7.766   7.015  13.927
95620W        W62161  19.934   5.604   0.970
95621W        W62162   7.354  14.120   0.906
95622W        W62163  20.769   7.225   3.106
95623W        W62164  38.134  19.128   4.512
95624W        W62165   8.328  32.496  14.406
95625W        W62166  28.054   5.662  10.651
95626W        W62167  10.625  18.985  10.700
95627W        W62168  42.453  24.684  12.324
95628W        W62169  14.913   6.478   2.925
95629W        W62170  26.232  39.837   2.389
95630W        W62171  19.937   5.198  11.563
95631W        W62172  33.716  31.532  14.417
95632W        W62173  22.630  12.811   1.813
95633W        W62174  35.597  16.343   3.180
95634W        W62175  22.670  11.730   4.953
95635W        W62176  18.618  16.625   3.435
95636W        W62177  43.064  29.409   2.822
95637W        W62178  33.527  19.632   4.122
95638W        W62179  24.476  34.033   4.642
95639W        W62180  23.842   4.366   3.150
95640W        W62181   0.863   5.789   4.120
95641W        W62182  37.942  31.137  10.699
95642W        W62183  23.492  31.517   1.288
95643W        W62184   3.389  25.144   1.871
95644W        W62185  29.292  30.636   3.838
95645W        W62186   8.703  30.672  10.659
95646W        W62187  21.230  21.255   1.879
95647W        W62188  37.432  39.989  14.026
95648W        W62189  34.104  12.698   0.824
95649W        W62190  33.027  40.816  12.867
95650W        W62191  38.756  28.559  14.487
95651W        W62192  40.989  13.149   1.237
95652W        W62193  29.457  20.065   2.821
95653W        W62194  34.048   1.813  12.168
95654W        W62195  30.387  11.904  13.374
95655W        W62196  33.194  24.222   2.864
95656W        W62197  15.274  13.347  12.915
95657W        W62198  21.191  22.767   4.223
95658W        W62199   2.262  13.850  12.604
95659W        W62200  43.337  12.952   4.555
95660W        W62201  27.326  10.668   1.631
95661W        W62202   8.178  27.869  10.729
95662W        W62203  21.886   8.500  11.879
95663W        W62204  16.834   5.651   1.554
95664W        W62205  24.010   3.710   1.270
95665W        W62206  15.032  26.082  14.446
95666W        W62207  22.100  13.843   0.062
95667W        W62208   1.322  13.677   3.327
95668W        W62209  21.154  35.976  12.056
95669W        W62210  42.247  18.297  11.582
95670W        W62211  40.620   6.424  11.401
95671W        W62212  24.778  12.791  13.222
95672W        W62213   0.975  38.790  14.250
95673W        W62214   8.765  21.592   0.423
95674W        W62215  31.121   3.545  11.788
95675W        W62216   3.739  10.834  11.488
95676W        W62217  27.046  25.311   0.008
95677W        W62218   6.748  23.131  14.541
95678W        W62219  27.977  37.036   4.904
95679W        W62220  37.574  23.091  13.074
95680W        W62221   4.914  25.462   3.722
95681W        W62222  31.232  29.156   1.299
95682W        W62223   3.506  20.263  14.968
95683W        W62224  36.446   0.310  12.036
95684W        W62225  22.336  28.216   0.497
95685W        W62226  31.840  44.486  11.240
95686W        W62227   0.797   0.268  14.930
95687W        W62228  43.272  35.195   1.940
95688W        W62229   6.665  40.839  14.761
95689W        W62230  33.810  33.646   1.444
95690W        W62231  43.038  30.112  14.582
95691W        W62232  18.306  26.164  14.964
95692W        W62233  25.036  16.554   0.938
95693W        W62234   5.598  19.322   4.549
95694W        W62235  11.849  17.435  10.734
95695W        W62236  24.093  38.306   0.744
95696W        W62237  33.933   9.591   4.189
95697W        W62238   4.530   3.565   4.879
95698W        W62239   9.880  38.126   4.918
95699W        W62240  43.639  28.376  10.994
95700W        W62241  37.070   8.288   4.531
95701W        W62242  34.752  41.324   2.330
95702W        W62243  33.795  13.817  10.652
95703W        W62244  34.913  17.126  10.993
95704W        W62245  36.808   1.252  12.961
95705W        W62246  40.297  28.665  11.904
95706W        W62247  36.382  27.205  11.053
95707W        W62248   4.085  18.663   4.085
95708W        W62249  35.564   3.700   0.457
95709W        W62250  20.239   3.931  11.883
95710W        W62251  36.126  36.660  11.916
95711W        W62252  16.322  14.703  11.599
95712W        W62253  36.892  33.351  14.545
95713W        W62254  25.439  14.689   2.344
95714W        W62255  27.201   2.442   1.876
95715W        W62256  11.860   1.705  14.417
95716W        W62257  22.548  12.898  12.508
95717W        W62258  10.474  15.673   2.365
95718W        W62259  34.418  18.334   2.699
95719W        W62260  38.570  22.820  14.046
95720W        W62261   5.210   6.906  11.092
95721W        W62262  11.735   0.756  11.466
95722W        W62263  23.523  30.996  11.384
95723W        W62264  31.586  22.225   1.194
95724W        W62265  36.925  44.046  13.457
95725W        W62266  19.914  23.603  14.443
95726W        W62267  31.481  33.459   0.825
95727W        W62268  10.319  13.011   3.818
95728W        W62269  11.236  33.186   4.536
95729W        W62270  15.036  22.064  14.062
95730W        W62271  27.199  14.166  12.435
95731W        W62272  35.347  28.926   3.092
95732W        W62273  29.726  28.808   3.867
95733W        W62274  10.380  13.075  10.625
95734W        W62275  11.862  23.640  11.843
95735W        W62276  15.884  41.290   0.815
95736W        W62277   1.088  41.690   2.826
95737W        W62278  37.613  35.067   2.764
95738W        W62279  26.754  27.203   0.342
95739W        W62280  20.535  41.552   0.242
95740W        W62281   5.107  25.880   3.298
95741W        W62282  39.948  10.865  10.642
95742W        W62283  19.062   3.929   3.706
95743W        W62284   5.698   7.357   2.756
95744W        W62285  31.048   5.693   1.870
95745W        W62286  41.073  39.078   1.891
95746W        W62287   6.607   1.433   3.127
95747W        W62288  19.565  23.131   2.644
95748W        W62289   3.625  16.837   1.687
95749W        W62290   4.871  17.750  13.120
95750W        W62291  44.769  28.030   4.876
95751W        W62292  23.574  18.308  11.443
95752W        W62293  36.469  43.476   1.712
95753W        W62294  21.086   8.399  12.602
95754W        W62295  26.095  37.136  12.618
95755W        W62296  23.142  27.339  12.153
95756W        W62297  18.820   2.757  13.227
95757W        W62298  39.749  27.527   1.358
95758W        W62299  14.605   4.208   4.687
95759W        W62300   3.557   5.402  12.394
95760W        W62301  29.108  30.165  14.037
95761W        W62302   4.877   3.986  11.593
95762W        W62303  36.563  27.908   3.201
95763W        W62304  33.803  34.315  14.638
95764W        W62305  15.361  44.802   1.604
95765W        W62306  24.971   3.186  14.295
95766W        W62307  40.495  26.180  11.461
95767W        W62308  13.582  21.982  10.650
95768W        W62309  23.746  17.543  11.658
95769W        W62310  16.830  22.998   2.667
95770W        W62311  41.447  10.626  14.670
95771W        W62312  25.123  38.777  13.061
95772W        W62313  26.591  35.116  14.771
95773W        W62314  29.354  18.268  12.917
95774W        W62315  13.203   0.854   4.957
95775W        W62316  32.095  39.911   4.086
95776W        W62317   9.561  11.018  12.972
95777W        W62318  31.601  17.088  12.200
95778W        W62319  33.881   8.799   2.644
95779W        W62320  30.352  12.723  14.312
95780W        W62321  28.214  22.953   0.331
95781W        W62322   6.933  26.460  13.870
95782W        W62323  23.270   5.378   1.760
95783W        W62324  42.301  18.163   0.329
95784W        W62325  27.593  12.303   1.175
95785W        W62326  25.541   9.890  14.812
95786W        W62327  34.317  10.826   1.699
95787W        W62328  33.795   1.653  12.601
95788W        W62329  33.620  14.770   4.926
95789W        W62330  30.807   2.570   0.271
95790W        W62331  11.963  11.178   4.755
95791W        W62332  26.026  32.420   1.819
95792W        W62333  38.567  17.189  13.053
95793W        W62334   3.887  20.308  11.501
95794W        W62335  21.980  43.932   1.284
95795W        W62336   4.511  10.812   3.723
95796W        W62337   8.754   6.132  14.946
95797W        W62338  38.026  25.141   1.206
95798W        W62339   5.031  15.836  11.590
95799W        W62340   2.731  28.064   4.989
95800W        W62341  34.740  17.360   4.991
95801W        W62342  16.691  23.498   2.698
95802W        W62343  10.152  33.815   3.623
95803W        W62344  32.594  34.436   1.385
95804W        W62345  37.350  22.531  13.567
95805W        W62346  27.454  39.600  14.894
95806W        W62347  17.291   7.713   1.005
95807W        W62348  26.482  29.249  11.800
95808W        W62349  29.623  26.666   1.245
95809W        W62350  43.890  27.180   2.265
95810W        W62351   9.837  38.090   1.325
95811W        W62352   5.739   4.772  11.477
95812W        W62353  22.609  27.169  12.113
95813W        W62354  13.487   7.676   2.664
95814W        W62355  40.359  22.938  12.735
95815W        W62356  42.986  30.510  11.907
95816W        W62357  44.796   4.922  11.206
95817W        W62358  39.855   2.962  11.933
95818W        W62359   8.263  36.215   0.218
95819W        W62360  27.727  42.791  13.080
95820W        W62361  41.061   6.773  13.326
95821W        W62362  21.635  30.633  13.260
95822W        W62363  39.400  17.213   0.071
95823W        W62364  44.280  43.722  11.431
95824W        W62365  22.597  24.493   0.683
95825W        W62366   4.982  32.430   3.689
95826W        W62367  19.652  38.894   3.149
95827W        W62368  21.044   4.691   2.718
95828W        W62369  30.526  43.951  12.727
95829W        W62370  14.212  20.138   1.774
95830W        W62371  36.085  14.659  13.726
95831W        W62372  25.048  42.660  12.974
95832W        W62373  36.051  10.355   2.260
95833W        W62374   9.334  19.150  10.746
95834W        W62375  24.598  25.650  11.672
95835W        W62376  37.011   2.174  11.582
95836W        W62377  18.188   2.149   1.397
95837W        W62378  13.045  41.053  14.392
95838W        W62379  26.594  44.019   4.912
95839W        W62380  29.909  29.490  12.558
95840W        W62381  12.660  32.982   4.185
95841W        W62382  44.644   7.665  12.080
95842W        W62383  24.916  13.602  10.994
95843W        W62384  43.735   0.064  14.846
95844W        W62385  13.849  34.689  14.381
95845W        W62386  31.756  36.504  11.182
95846W        W62387  17.497  14.933   1.911
95847W        W62388  26.269  43.259  13.388
95848W        W62389  35.134   1.789   0.764
95849W        W62390   2.995  25.000   2.742
95850W        W62391  39.076   5.145  14.465
95851W        W62392  17.227  20.243  11.200
95852W        W62393   7.212   2.004   1.673
95853W        W62394  33.360  15.610   0.935
95854W        W62395  34.521   8.886  13.814
95855W        W62396  42.493  37.481   1.616
95856W        W62397  36.932  12.187   2.317
95857W        W62398  28.550  36.987  13.752
95858W        W62399  13.758   3.749  14.782
95859W        W62400   0.858   4.030  10.763
95860W        W62401  15.706  35.568   3.210
95861W        W62402  29.803  40.040  13.516
95862W        W62403   9.394  26.118  14.802
95863W        W62404  36.652  39.366   4.333
95864W        W62405  38.022  32.682  14.696
95865W        W62406  25.945  22.464  11.293
95866W        W62407  27.971  41.161  12.446
95867W        W62408  21.736  41.225   1.351
95868W        W62409  18.679  25.729   3.474
95869W        W62410   0.131  33.759   4.466
95870W        W62411   7.210  39.861   3.176
95871W        W62412   8.741  31.006  11.050
95872W        W62413  30.214   9.680  11.618
95873W        W62414  18.071  40.991   2.716
95874W        W62415  34.301  27.281   3.511
95875W        W62416  30.583  38.957  13.436
95876W        W62417  10.872  16.557  10.542
95877W        W62418  31.421  29.419   0.046
95878W        W62419   6.249  27.765   2.757
95879W        W62420   9.276  32.602   1.271
95880W        W62421  19.809  14.114  12.923
95881W        W62422  28.073   1.699  14.488
95882W        W62423  13.786   0.936   3.037
95883W        W62424  30.357  37.496   3.207
95884W        W62425  12.241  40.759  11.349
95885W        W62426  16.299   0.373   4.769
95886W        W62427  34.467  15.655   2.371
95887W        W62428  17.530  36.118  13.349
95888W        W62429  20.307   8.352  14.927
95889W        W62430   9.091  42.323  11.997
95890W        W62431  44.987   1.516   2.302
95891W        W62432  41.544  37.020   1.227
95892W        W62433  44.491  17.843  12.508
95893W        W62434   5.820  23.685   1.189
95894W        W62435   8.104   8.723   0.012
95895W        W62436  11.297  17.038   3.115
95896W        W62437   6.536  36.548   0.005
95897W        W62438  23.302   4.373   3.215
95898W        W62439  28.174  13.259  14.479
95899W        W62440   5.692   3.477   2.501
95900W        W62441  32.451  35.540   0.503
95901W        W62442  10.151   7.784   1.936
95902W        W62443   9.147  21.049   2.855
95903W        W62444  32.563  35.744  11.916
95904W        W62445  11.208   5.599  11.285
95905W        W62446  43.976   5.885  12.219
95906W        W62447   5.881  13.637   2.942
95907W        W62448  39.040  11.354   3.695
95908W        W62449  44.889  43.102  12.401
95909W        W62450  15.821   1.861  14.081
95910W        W62451  19.831  40.736   1.365
95911W        W62452  18.938   6.387   5.091
95912W        W62453  13.592  32.607   3.671
95913W        W62454  44.593  11.413  12.525
95914W        W62455  34.586  38.576   3.642
95915W        W62456   1.238  31.860   0.805
95916W        W62457   2.121  13.644   4.445
95917W        W62458  37.868  23.055  11.022
95918W        W62459  42.844  30.050   1.735
95919W        W62460   7.189  44.911   4.156
95920W        W62461   5.340  33.963  14.522
95921W        W62462  28.023  19.323   4.092
95922W        W62463   4.374   2.123   1.285
95923W        W62464   3.490  28.814   2.489
95924W        W62465  44.772   4.133   9.996
95925W        W62466  31.139  13.180   3.260
95926W        W62467  13.216   6.253   1.759
95927W        W62468  23.662  25.231  14.003
95928W        W62469  34.961  17.368   3.617
95929W        W62470  29.881  28.079  14.604
95930W        W62471   0.505   1.546   2.260
95931W        W62472  40.777  36.431   1.828
95932W        W62473  15.473  40.490  11.369
95933W        W62474  26.685  12.414   4.417
95934W        W62475   0.835  22.092   2.429
95935W        W62476  29.415  40.269  11.239
95936W        W62477  38.358   8.135   0.697
95937W        W62478  36.125  36.368   4.239
95938W        W62479  43.824  42.182  14.927
95939W        W62480  26.900  40.976  13.344
95940W        W62481  12.692  42.740   1.766
95941W        W62482  15.777   7.371   1.825
95942W        W62483   7.622  26.900  12.481
95943W        W62484  39.077   5.387  14.963
95944W        W62485  14.698   5.487   1.803
95945W        W62486  15.539   2.977  12.704
95946W        W62487  11.227  26.000   4.565
95947W        W62488  37.807  32.269   0.863
95948W        W62489  37.349  41.631   2.168
95949W        W62490   3.862  12.619  12.426
95950W        W62491  32.664  12.144   1.150
95951W        W62492  26.819  18.513   0.650
95952W        W62493  33.582   3.797   0.978
95953W        W62494  35.447   6.867  12.142
95954W        W62495  19.744  35.417   2.674
95955W        W62496  42.377  19.993  13.516
95956W        W62497  38.603  28.009   0.066
95957W        W62498  42.888   3.690   3.692
95958W        W62499   2.829  35.349   0.780
95959W        W62500  30.192  18.194   1.756
95960W        W62501  31.158  12.288   1.401
95961W        W62502  43.842  36.858  14.406
95962W        W62503  44.502  25.499  13.988
95963W        W62504  11.347  18.600  11.073
95964W        W62505  29.306  25.406  12.645
95965W        W62506  36.718   3.173  10.121
95966W        W62507  40.270  24.446   1.310
95967W        W62508  42.989  23.508   3.758
95968W        W62509   1.474  26.208  13.045
95969W        W62510  40.925  16.577   3.202
95970W        W62511  31.277  32.534   1.669
95971W        W62512  42.506  33.860  13.843
95972W        W62513   3.200  23.442  12.111
95973W        W62514  17.446  23.685  12.981
95974W        W62515  15.704  40.322  12.615
95975W        W62516  35.119  22.076   4.015
95976W        W62517  42.216  41.909   4.961
95977W        W62518  37.524  14.083   4.105
95978W        W62519  28.134   3.819   4.461
95979W        W62520   0.929  36.071   2.779
95980W        W62521  13.144  11.223   0.045
95981W        W62522  13.719  20.022   0.390
95982W        W62523  15.122  33.570  13.366
95983W        W62524  28.864   5.806  12.501
95984W        W62525  24.556   5.789   2.728
95985W        W62526  15.101   7.881   2.762
95986W        W62527  32.610   4.565  14.799
95987W        W62528  26.737   2.466  13.846
95988W        W62529  31.276   3.885   5.005
95989W        W62530  17.171  14.389   2.333
95990W        W62531  19.024  42.026   4.155
95991W        W62532   1.316  23.691   0.260
95992W        W62533  22.083  35.611  11.677
95993W        W62534  40.337   6.974   1.223
95994W        W62535   8.274  17.778  14.443
95995W        W62536  28.573  22.612   3.138
95996W        W62537  27.270  11.630   1.324
95997W        W62538  34.973  41.514  12.135
95998W        W62539  19.615  21.517  12.545
95999W        W62540  15.041  11.986   4.281
96000W        W62541  22.173  26.004  14.344
96001W        W62542  23.321   5.166  14.654
96002W        W62543  29.731   6.375   4.252
96003W        W62544  14.510  21.558  11.976
96004W        W62545  41.496   0.733  14.128
96005W        W62546  18.375  27.201   4.238
96006W        W62547  39.721  34.027   0.850
96007W        W62548  36.440   4.732  11.891
96008W        W62549   4.438  27.048   0.971
96009W        W62550  21.886  35.133  12.424
96010W        W62551  13.369  12.527   3.670
96011W        W62552  14.941  38.573   3.618
96012W        W62553  36.103  43.768  13.415
96013W        W62554  33.121   8.665   3.201
96014W        W62555  33.739  31.723  11.112
96015W        W62556  43.866  38.113   2.168
96016W        W62557  39.433  30.175   3.692
96017W        W62558  31.822   2.300   4.616
96018W        W62559  14.764   4.981   1.931
96019W        W62560  22.782  32.106   3.740
96020W        W62561  17.752  24.184   0.014
96021W        W62562  44.665  12.246   3.912
96022W        W62563  21.240  11.631   5.087
96023W        W62564  43.358  43.366  11.901
96024W        W62565  38.358  31.018   4.357
96025W        W62566  40.520  26.972  12.516
96026W        W62567  36.016  35.884  11.200
96027W        W62568   8.722   1.993  12.506
96028W        W62569  36.867  11.501  11.734
96029W        W62570  22.009  26.335  14.820
96030W        W62571  19.090  29.649   2.218
96031W        W62572  42.760  26.846  14.008
96032W        W62573   4.658  10.076   3.760
96033W        W62574  22.106  20.763  13.850
96034W        W62575  34.158  36.871   0.723
96035W        W62576   7.828  12.279   2.506
96036W        W62577  19.774  12.743   3.790
96037W        W62578  21.071  36.494  12.810
96038W        W62579  40.592  14.310   3.174
96039W        W62580  18.548  42.381  14.297
96040W        W62581  42.459  13.771   0.702
96041W        W62582  14.801   7.075  13.043
96042W        W62583  22.538  36.604   1.852
96043W        W62584  42.477  43.449   2.443
96044W        W62585   3.290  44.479   5.137
96045W        W62586  11.254  31.620  14.358
96046W        W62587   4.900  36.668   4.084
96047W        W62588  20.536  16.324   0.899
96048W        W62589   4.761  35.536   3.332
96049W        W62590  29.889  37.457  11.882
96050W        W62591  30.300  12.387   0.917
96051W        W62592  23.877  42.913  12.575
96052W        W62593  23.530  28.424  13.928
96053W        W62594  24.490  32.995   0.853
96054W        W62595  20.574  23.195   3.757
96055W        W62596  34.698  22.983  10.556
96056W        W62597  15.497  30.567   0.021
96057W        W62598   1.191  35.539  13.251
96058W        W62599  10.278  25.040  14.474
96059W        W62600   1.392  37.846   2.954
96060W        W62601  42.848  21.281   2.310
96061W        W62602  11.211  25.435  11.151
96062W        W62603  35.441  20.141   1.896
96063W        W62604   2.812  40.828  12.126
96064W        W62605  11.489  27.586  12.500
96065W        W62606   4.245  28.470  14.545
96066W        W62607  39.377   6.242   1.793
96067W        W62608   2.913  41.924   0.639
96068W        W62609  30.056   2.797  14.376
96069W        W62610  40.098   5.732   4.206
96070W        W62611  14.167   6.128  13.380
96071W        W62612  10.421  41.354  12.853
96072W        W62613   0.931  12.252  14.577
96073W        W62614  14.657  13.769   2.808
96074W        W62615   4.421  22.497  11.253
96075W        W62616  26.544  32.163  12.829
96076W        W62617   7.326  38.270   2.212
96077W        W62618   9.555  34.502   3.309
96078W        W62619  42.323  10.215  11.082
96079W        W62620   2.397  34.695  13.476
96080W        W62621  37.055  20.542   0.433
96081W        W62622   9.854  27.636   0.333
96082W        W62623  32.403   0.271   2.816
96083W        W62624  26.035   5.733  13.949
96084W        W62625   0.239  44.797  12.803
96085W        W62626  29.361  19.218   1.393
96086W        W62627  26.420  32.625  13.433
96087W        W62628   4.308   2.189  12.465
96088W        W62629  41.545  20.511   4.494
96089W        W62630  16.674  17.948   3.155
96090W        W62631  26.683  14.539   3.649
96091W        W62632  31.222  35.167   3.562
96092W        W62633  11.740   7.156   4.098
96093W        W62634  26.249  15.512  13.446
96094W        W62635  34.908   1.803  14.426
96095W        W62636  23.007  11.162  11.518
96096W        W62637   6.894  40.485   2.192
96097W        W62638  16.039   8.539  12.834
96098W        W62639  41.380  13.406  13.919
96099W        W62640  29.456   3.668   3.823
96100W        W62641  18.579  43.775  11.752
96101W        W62642   9.614   4.172  14.276
96102W        W62643  21.435   0.707  12.900
96103W        W62644  12.349  11.874  12.736
96104W        W62645  11.203   6.867  14.816
96105W        W62646  44.710  11.719   3.105
96106W        W62647  29.821  12.699  11.623
96107W        W62648  33.321  26.486   0.767
96108W        W62649   0.224  19.235  13.653
96109W        W62650   6.220  24.602   1.340
96110W        W62651  32.343  21.913   0.374
96111W        W62652  12.211   1.923   4.810
96112W        W62653  31.205  16.504   4.032
96113W        W62654  25.702  44.170   3.970
96114W        W62655  11.172  36.566  11.481
96115W        W62656  42.853   1.496   3.690
96116W        W62657  37.034   0.621   4.831
96117W        W62658  14.292  30.225  11.650
96118W        W62659  31.559   5.406  13.513
96119W        W62660  18.088  13.070   2.377
96120W        W62661  11.384   3.893   0.363
96121W        W62662  35.622  13.291  12.520
96122W        W62663  28.193   3.279   4.057
96123W        W62664  22.544  36.982   0.458
96124W        W62665  27.211  10.866   4.079
96125W        W62666   0.103   1.990  13.769
96126W        W62667   7.536  16.224  14.439
96127W        W62668  28.999  13.841   2.528
96128W        W62669  23.539  29.089   1.194
96129W        W62670  19.700  40.864  14.700
96130W        W62671  43.964   8.766   1.311
96131W        W62672   3.643  16.690   2.610
96132W        W62673  39.271   6.170   3.866
96133W        W62674  39.588   6.341   2.347
96134W        W62675  40.827  16.906   2.401
96135W        W62676  23.405  11.713  14.450
96136W        W62677   2.316   4.207  10.544
96137W        W62678  36.925  27.893   4.933
96138W        W62679  19.220  19.563  12.216
96139W        W62680  41.994   0.890  14.053
96140W        W62681  22.949  33.947  11.047
96141W        W62682   8.530  14.606  11.901
96142W        W62683  14.713   7.162  13.916
96143W        W62684  22.301  37.329  11.118
96144W        W62685  39.248  18.755   3.933
96145W        W62686  24.910  16.493   4.895
96146W        W62687   1.972  28.161  13.215
96147W        W62688  30.332  29.614  14.744
96148W        W62689  26.131  42.454  10.863
96149W        W62690  31.192  29.440  13.061
96150W        W62691  31.451  40.130   0.341
96151W        W62692  32.057  25.105  12.474
96152W        W62693  39.031  22.305  14.763
96153W        W62694  13.553  32.034   1.706
96154W        W62695   4.549  11.789   1.293
96155W        W62696   6.761   2.486   3.690
96156W        W62697   6.391   6.759  10.619
96157W        W62698  17.756   6.368   0.711
96158W        W62699  15.823  34.951  13.338
96159W        W62700  13.728  43.383   2.117
96160W        W62701  13.813  10.986  14.888
96161W        W62702   6.956  28.852  11.684
96162W        W62703  27.639  24.344   0.696
96163W        W62704  35.430  20.918   2.174
96164W        W62705  21.541   9.693  14.734
96165W        W62706  18.940  37.872  14.270
96166W        W62707  25.469  12.348  13.496
96167W        W62708  16.233  18.851  11.872
96168W        W62709  14.226  18.724   2.143
96169W        W62710  42.873  28.221   3.121
96170W        W62711  12.245  26.220  12.811
96171W        W62712  24.246   9.673  10.755
96172W        W62713  11.089  39.563   0.793
96173W        W62714  17.715  43.955   0.377
96174W        W62715  32.601  44.785   2.754
96175W        W62716  37.424  12.235  10.540
96176W        W62717  26.165  27.929   3.251
96177W        W62718   2.248  17.079  13.962
96178W        W62719   2.690  23.650  13.019
96179W        W62720  24.242  44.808  14.336
96180W        W62721  41.558  16.885   1.378
96181W        W62722  43.743  27.008  14.855
96182W        W62723  38.496  29.346   1.947
96183W        W62724  37.185   3.431   5.353
96184W        W62725  13.374  29.820  11.450
96185W        W62726  32.954  19.596   4.447
96186W        W62727  23.496  14.856  13.395
96187W        W62728   4.800  44.990   2.648
96188W        W62729  11.639  18.447   2.265
96189W        W62730   2.290   4.198   4.579
96190W        W62731  36.631  34.599   1.767
96191W        W62732   5.611  33.338   1.950
96192W        W62733  38.894  38.057  11.610
96193W        W62734  21.969  38.962  14.018
96194W        W62735   9.587  15.903  10.637
96195W        W62736  15.633  10.601  10.461
96196W        W62737  15.690  35.571  14.006
96197W        W62738  31.182  33.474  12.885
96198W        W62739   3.144  43.260  14.029
96199W        W62740   5.433  17.192   3.718
96200W        W62741  30.647   2.565  10.304
96201W        W62742  29.576   7.921   2.208
96202W        W62743  34.149  21.713   1.838
96203W        W62744   3.974  17.548  10.720
96204W        W62745  16.575  31.374   2.661
96205W        W62746  35.013  15.086   0.957
96206W        W62747  31.836  13.784   1.145
96207W        W62748  41.634  31.969  11.214
96208W        W62749  18.111   7.855   3.997
96209W        W62750  31.037   8.442   3.609
96210W        W62751  11.614  44.138   1.315
96211W        W62752  19.064   3.294   4.771
96212W        W62753  10.839  38.375  10.644
96213W        W62754  27.246   9.450   3.122
96214W        W62755   5.215   3.873  14.419
96215W        W62756  44.797  44.263  13.777
96216W        W62757  24.421  29.969  11.048
96217W        W62758  31.060   4.309   1.200
96218W        W62759  44.957  30.088  11.143
96219W        W62760  15.524   0.952   5.199
96220W        W62761  44.828   8.593   1.502
96221W        W62762  23.549   7.977  12.984
96222W        W62763   4.878  16.418   1.308
96223W        W62764  17.520  35.619  13.287
96224W        W62765  43.862  11.568  13.510
96225W        W62766  17.823   6.642   0.214
96226W        W62767  10.202   2.876  11.918
96227W        W62768   8.368  28.617  14.119
96228W        W62769  43.896  19.466   1.987
96229W        W62770   1.498   7.386   3.571
96230W        W62771  37.565  44.846  10.591
96231W        W62772  38.170  21.046   3.365
96232W        W62773   5.464  10.255   3.165
96233W        W62774  14.674  42.378   3.890
96234W        W62775   3.585   3.699  10.406
96235W        W62776   1.786  28.118  11.036
96236W        W62777  35.728   0.966  12.018
96237W        W62778  19.702  25.623   2.447
96238W        W62779  12.421  37.429  10.863
96239W        W62780  12.145  19.306  11.565
96240W        W62781   3.915  26.480  14.483
96241W        W62782  30.800  13.044  11.571
96242W        W62783  43.518  13.557   0.693
96243W        W62784  11.675  37.859  12.549
96244W        W62785  20.868  32.924  14.875
96245W        W62786  12.219  28.973   1.305
96246W        W62787  22.053  41.094   4.668
96247W        W62788  44.612  30.936  12.792
96248W        W62789  10.566  37.338  11.698
96249W        W62790   3.118  15.021   5.055
96250W        W62791  42.550  40.409   2.729
96251W        W62792   7.204  34.113   1.211
96252W        W62793  35.904  17.250  11.551
96253W        W62794  10.773  22.943  13.123
96254W        W62795  28.267  37.419   4.567
96255W        W62796  40.552  26.846   1.121
96256W        W62797   7.085  37.554   3.716
96257W        W62798  36.211  33.538   2.171
96258W        W62799  12.918   3.221  11.543
96259W        W62800   8.462   1.568  12.459
96260W        W62801  21.218  24.750   4.200
96261W        W62802  39.156   6.983  14.794
96262W        W62803  24.914  30.971  11.942
96263W        W62804  33.418  19.287  10.604
96264W        W62805  15.084  19.528   3.634
96265W        W62806   0.396  16.025   0.772
96266W        W62807  32.362  34.950   4.752
96267W        W62808  31.683  28.080   4.683
96268W        W62809  13.073  14.277  10.758
96269W        W62810  13.333  16.228   1.438
96270W        W62811  31.985  22.770   2.829
96271W        W62812  33.880   0.892   2.011
96272W        W62813  35.112   7.313  13.794
96273W        W62814  20.261  15.693  14.479
96274W        W62815  17.811  39.963   3.301
96275W        W62816  37.255   6.312  11.877
96276W        W62817  43.378  18.687   4.505
96277W        W62818   3.722  23.215   2.252
96278W        W62819  41.044  35.892   1.955
96279W        W62820  15.208  37.990   4.611
96280W        W62821  22.465  20.772   1.246
96281W        W62822   4.544   9.683   0.628
96282W        W62823  13.799  36.782  13.797
96283W        W62824  35.172  16.706   3.313
96284W        W62825   4.026  27.647   4.449
96285W        W62826  38.514  15.669  10.856
96286W        W62827  29.121  36.279   0.788
96287W        W62828  32.502  26.789  14.447
96288W        W62829  27.834   7.002   4.179
96289W        W62830   2.735  12.690  13.369
96290W        W62831   9.285   3.514   0.743
96291W        W62832  35.874  11.407  11.259
96292W        W62833  28.330  26.780  12.027
96293W        W62834  30.948  41.398  14.436
96294W        W62835  44.628  41.212   2.723
96295W        W62836  30.873   2.871   1.523
96296W        W62837   8.293  29.942  10.577
96297W        W62838  28.521   3.464   3.585
96298W        W62839  24.666  37.408   0.453
96299W        W62840  16.574  34.511   3.931
96300W        W62841  14.595   2.745  13.030
96301W        W62842  18.315  15.787  11.389
96302W        W62843  43.788   3.425  11.721
96303W        W62844  25.529  34.540  11.878
96304W        W62845  12.379   1.890  14.079
96305W        W62846  24.517  38.902   0.604
96306W        W62847   9.933  22.743   4.853
96307W        W62848  16.314  25.645  14.388
96308W        W62849  18.014  29.708   0.107
96309W        W62850  41.454  44.395  14.883
96310W        W62851  27.341  35.146  13.449
96311W        W62852  38.967  42.980  12.671
96312W        W62853  38.602   5.290   4.897
96313W        W62854   2.514  40.287  13.145
96314W        W62855   7.298  13.163   4.473
96315W        W62856   1.990  33.283   5.030
96316W        W62857  19.346  16.292  14.396
96317W        W62858  34.150  16.678  12.254
96318W        W62859  34.890  17.514   2.847
96319W        W62860  13.416  42.360   4.918
96320W        W62861  28.393   8.803  12.207
96321W        W62862  27.130  13.696   4.857
96322W        W62863  39.355   0.399  13.438
96323W        W62864  13.573  43.317  12.988
96324W        W62865  11.740   0.459  14.886
96325W        W62866  23.055  10.321   2.477
96326W        W62867  12.095  30.573   9.783
96327W        W62868  36.892  26.168   4.058
96328W        W62869   8.633  22.960  11.234
96329W        W62870  28.913  13.868  11.583
96330W        W62871  28.818  26.100  11.055
96331W        W62872  26.016  25.200   0.945
96332W        W62873  36.419   0.013   4.110
96333W        W62874  35.369   3.726  13.183
96334W        W62875  26.383  11.321   0.283
96335W        W62876  42.258  40.121  12.673
96336W        W62877  17.226  21.990  12.625
96337W        W62878  43.920  32.535  14.390
96338W        W62879  38.861  32.394  14.031
96339W        W62880  24.326  31.598  13.381
96340W        W62881  20.128  18.103  13.763
96341W        W62882  26.884  12.166   0.036
96342W        W62883  33.330  21.898  12.605
96343W        W62884  39.440  33.022  13.263
96344W        W62885  34.951  24.708   3.125
96345W        W62886  12.145  43.780  13.561
96346W        W62887   4.156   0.272   2.637
96347W        W62888  12.102  24.056   4.512
96348W        W62889  40.352  14.638   3.875
96349W        W62890   1.524  36.211  12.616
96350W        W62891  17.948  44.502  12.220
96351W        W62892  25.371  13.628  13.288
96352W        W62893  41.816  44.547  12.570
96353W        W62894  29.372  26.929  10.960
96354W        W62895  41.383  43.045  14.964
96355W        W62896   7.278  31.013   2.286
96356W        W62897   4.524  27.834   4.478
96357W        W62898  36.469   9.817   1.979
96358W        W62899  30.865  31.518   3.876
96359W        W62900  36.080  23.973  14.439
96360W        W62901  35.541  16.700  13.795
96361W        W62902  34.433   4.654  14.856
96362W        W62903   8.928   7.809   3.703
96363W        W62904  42.962  26.078   4.114
96364W        W62905  27.962  10.362   4.128
96365W        W62906  20.468  19.320  13.432
96366W        W62907  37.618  25.237  14.328
96367W        W62908  34.056  35.906  11.941
96368W        W62909  28.652  23.020   1.044
96369W        W62910   5.437  12.853   2.368
96370W        W62911   1.064  30.501   5.025
96371W        W62912   1.424   3.342  14.506
96372W        W62913  19.743  38.371  14.527
96373W        W62914  36.702   8.440   2.590
96374W        W62915  31.719   2.425   2.286
96375W        W62916  38.124  39.040   0.402
96376W        W62917   7.880   9.964   1.242
96377W        W62918  32.464  34.478  14.802
96378W        W62919   5.717  33.990   4.404
96379W        W62920  38.167  31.995  11.023
96380W        W62921  42.005   5.753   3.305
96381W        W62922  16.292  33.411   3.307
96382W        W62923  42.196  31.159  14.439
96383W        W62924  32.530  35.417   2.008
96384W        W62925  42.567   1.714  12.049
96385W        W62926  12.986   4.219   2.296
96386W        W62927  30.030  38.381  14.723
96387W        W62928  28.230  27.504  12.045
96388W        W62929  25.103  31.908   4.990
96389W        W62930  12.955  29.977  12.803
96390W        W62931  33.987  34.919   3.762
96391W        W62932  39.588  17.004   3.138
96392W        W62933  28.903  37.043  10.499
96393W        W62934  29.232   6.898   2.872
96394W        W62935   6.316  20.755   0.481
96395W        W62936  18.143  37.253  12.523
96396W        W62937  44.362  28.638   1.753
96397W        W62938  28.597  21.136   0.724
96398W        W62939  17.583  25.501  11.183
96399W        W62940  25.768   1.406  11.536
96400W        W62941  17.698   4.166   1.400
96401W        W62942   1.950  41.236  13.806
96402W        W62943  44.455  44.243  10.458
96403W        W62944  24.479  34.554   2.649
96404W        W62945  15.494  32.526   1.360
96405W        W62946  31.857  19.707   1.071
96406W        W62947   5.474  17.200   2.794
96407W        W62948   6.232  13.490  12.494
96408W        W62949  18.804   4.361   2.929
96409W        W62950  12.747  26.400  11.060
96410W        W62951  16.548  20.334   2.979
96411W        W62952   4.706  11.542  11.881
96412W        W62953  24.593   8.188   4.138
96413W        W62954  44.029   5.669  12.853
96414W        W62955   5.779   3.377  11.548
96415W        W62956   4.022  35.008  14.521
96416W        W62957  12.096   4.824   1.489
96417W        W62958   4.163   1.339  11.551
96418W        W62959  35.336  24.703   2.753
96419W        W62960  26.696   4.905  14.267
96420W        W62961   5.174  44.318  14.813
96421W        W62962  19.004  31.382   3.471
96422W        W62963  28.216  35.000   4.815
96423W        W62964  29.554  27.589  11.577
96424W        W62965  39.508  27.342  13.484
96425W        W62966  38.313  23.685  11.662
96426W        W62967  13.931  40.325  12.890
96427W        W62968   6.258  30.597  12.208
96428W        W62969  33.040  13.880   0.728
96429W        W62970  15.211  28.606  10.787
96430W        W62971  15.080  15.072   3.736
96431W        W62972  40.609  17.824   2.516
96432W        W62973  17.727  19.665  12.417
96433W        W62974  14.817  36.524   4.602
96434W        W62975  28.566  41.740   1.330
96435W        W62976   6.067  18.112   4.491
96436W        W62977  24.959  26.585  14.933
96437W        W62978  17.054   9.342   1.661
96438W        W62979  28.771  35.148   0.726
96439W        W62980  21.920  34.392   4.716
96440W        W62981  17.679  28.945   3.208
96441W        W62982  10.198  23.648  10.680
96442W        W62983  36.715  10.751  10.703
96443W        W62984   4.681  28.561  12.562
96444W        W62985  39.206  22.046  12.110
96445W        W62986  19.713  36.272  12.657
96446W        W62987  15.435  33.509   4.462
96447W        W62988  21.523  28.618   2.324
96448W        W62989   4.893  24.506   0.833
96449W        W62990  26.487  17.568  11.361
96450W        W62991  16.525  11.647   2.598
96451W        W62992  33.433  41.698  12.045
96452W        W62993  31.976  33.958   4.040
96453W        W62994  29.874  26.036  14.417
96454W        W62995  15.796   1.306   2.230
96455W        W62996  10.105  12.137  11.551
96456W        W62997  33.116  43.369  11.850
96457W        W62998  35.165   0.442   1.272
96458W        W62999  14.050   5.035  10.598
96459W        W63000  42.734  15.800   1.349
96460W        W63001  33.208  23.577   0.865
96461W        W63002  12.433  37.258  14.790
96462W        W63003  14.418  19.090   3.228
96463W        W63004  40.581  14.066   2.282
96464W        W63005  11.368  25.773  12.955
96465W        W63006  30.144   0.289  11.243
96466W        W63007  33.508   0.267   2.818
96467W        W63008   4.918  11.083  14.337
96468W        W63009  43.604  27.743   3.714
96469W        W63010  35.149   2.968   1.507
96470W        W63011  16.642  14.859  13.988
96471W        W63012   9.158  33.654   3.878
96472W        W63013  30.864  20.105  13.048
96473W        W63014   9.654   3.227   0.991
96474W        W63015  20.858  33.786  11.481
96475W        W63016  14.532   7.249   4.353
96476W        W63017  18.119  11.994   5.198
96477W        W63018  41.188  35.472   0.766
96478W        W63019  10.217  16.361  12.501
96479W        W63020  34.877  43.866  14.377
96480W        W63021  33.227  18.624   4.918
96481W        W63022   6.568  30.264   0.292
96482W        W63023   6.969  17.605   2.320
96483W        W63024  18.100  10.240  14.262
96484W        W63025  19.481  29.568  11.522
96485W        W63026   2.801  14.604  11.720
96486W        W63027  33.923  21.421   1.425
96487W        W63028  12.694  42.879   1.231
96488W        W63029   0.377  27.555  10.594
96489W        W63030  39.247  13.865  14.399
96490W        W63031  40.007  25.842   1.678
96491W        W63032  14.683  27.262   3.679
96492W        W63033  42.428  29.550   1.217
96493W        W63034   4.391  34.621   1.917
96494W        W63035  39.360   9.880   2.425
96495W        W63036   8.094  37.903  11.750
96496W        W63037  42.637  23.278  11.492
96497W        W63038   7.921   7.870   3.895
96498W        W63039  31.851  15.636   1.753
96499W        W63040  20.543   9.007   1.875
96500W        W63041  31.125  44.883   4.861
96501W        W63042  32.462   9.798   3.968
96502W        W63043  25.415   2.919   0.310
96503W        W63044   0.504  24.463  12.141
96504W        W63045  19.279  26.112   1.451
96505W        W63046  26.184  32.948   0.112
96506W        W63047   6.641  39.099   1.594
96507W        W63048  24.962  11.464   3.231
96508W        W63049  29.446  36.765   4.107
96509W        W63050  19.710  19.094   2.045
96510W        W63051  40.818  19.445   4.705
96511W        W63052  22.790   3.238  14.946
96512W        W63053  39.933  25.629   1.180
96513W        W63054  42.598  17.270   1.963
96514W        W63055   7.813  25.716   1.133
96515W        W63056  36.407  35.392   1.028
96516W        W63057  44.693  15.855   0.333
96517W        W63058  38.809  36.594   0.207
96518W        W63059  34.048  20.713  14.336
96519W        W63060  40.747  22.702   2.236
96520W        W63061   9.240  33.926   1.347
96521W        W63062  44.762  25.667   4.603
96522W        W63063  21.654  41.804   0.675
96523W        W63064   9.781  44.223  11.501
96524W        W63065  11.274  15.903  14.849
96525W        W63066  16.955  14.680  12.849
96526W        W63067  28.005  10.819  14.766
96527W        W63068   5.941   0.108  11.478
96528W        W63069  38.063  12.576   1.376
96529W        W63070  10.524   5.523  12.963
96530W        W63071  14.829  35.797   4.222
96531W        W63072  22.671  11.944   2.796
96532W        W63073  17.189   4.394   3.623
96533W        W63074  13.893  44.938   1.977
96534W        W63075  37.974  12.969   4.495
96535W        W63076  25.878  37.622   4.166
96536W        W63077   8.527  29.959  12.202
96537W        W63078  43.042  41.780  10.794
96538W        W63079  33.197  21.564  13.903
96539W        W63080   0.074  31.561   4.114
96540W        W63081  43.357  39.154  11.104
96541W        W63082  43.368  41.197  10.717
96542W        W63083  16.401  22.662   0.702
96543W        W63084   8.210  31.597   2.239
96544W        W63085   4.236   0.361   9.865
96545W        W63086  23.918  43.595  13.310
96546W        W63087  27.168  42.997  13.984
96547W        W63088  39.628  33.967   2.204
96548W        W63089   9.310  13.282   2.451
96549W        W63090  43.342  16.102  11.680
96550W        W63091  33.333  40.374   0.200
96551W        W63092  21.056  14.956  11.005
96552W        W63093  43.133  34.957  11.659
96553W        W63094  14.423  17.869   2.320
96554W        W63095  15.789  16.077  13.131
96555W        W63096  31.571  38.830   4.565
96556W        W63097  28.077  37.555  12.004
96557W        W63098  17.118  17.590  13.414
96558W        W63099  29.129   2.140  13.515
96559W        W63100  26.637  30.677  11.677
96560W        W63101   3.521   4.101  14.537
96561W        W63102  44.271   3.446  11.125
96562W        W63103   1.349  29.132   2.171
96563W        W63104  27.222  19.683   4.661
96564W        W63105  43.538  15.729  10.186
96565W        W63106   5.403  15.081   0.874
96566W        W63107  19.586   2.497   0.247
96567W        W63108  22.914  42.473   3.564
96568W        W63109  25.248   8.949  14.882
96569W        W63110  38.329  20.789   2.406
96570W        W63111  13.697  34.053   2.281
96571W        W63112  36.433  33.568   1.696
96572W        W63113   4.937  12.264  12.442
96573W        W63114  13.837  34.112  13.528
96574W        W63115  17.992  40.161   4.610
96575W        W63116  28.848  43.757   4.061
96576W        W63117  27.644  28.866   1.020
96577W        W63118  41.418  12.133  12.608
96578W        W63119  39.834  16.759  11.633
96579W        W63120  14.558  36.969   4.578
96580W        W63121  21.606  37.211  10.659
96581W        W63122   4.474   2.702  10.738
96582W        W63123  43.714  36.047   4.539
96583W        W63124   9.395  37.937   3.584
96584W        W63125  12.141  22.984  12.721
96585W        W63126  38.875  16.534  12.915
96586W        W63127  21.715  43.419  11.640
96587W        W63128  42.395  27.186   4.589
96588W        W63129  11.066  10.520  11.187
96589W        W63130  15.472  23.401   5.174
96590W        W63131   4.451  12.655   1.916
96591W        W63132  13.176  24.764   3.528
96592W        W63133  37.448  27.935  13.341
96593W        W63134   8.726  24.445   1.413
96594W        W63135  15.321  18.834  10.638
96595W        W63136  42.426  18.056  13.548
96596W        W63137  41.837   6.137   4.090
96597W        W63138  31.258  16.685   1.348
96598W        W63139  13.546   1.026  11.940
96599W        W63140  34.076  15.463   4.084
96600W        W63141  19.059  28.147  12.573
96601W        W63142  18.328  19.128   3.836
96602W        W63143   0.801  28.043   1.965
96603W        W63144  25.051  14.908  11.971
96604W        W63145  41.231  44.255   0.357
96605W        W63146   3.181  15.871  14.424
96606W        W63147  44.558  34.328  11.486
96607W        W63148  44.930  12.351   2.437
96608W        W63149  21.822  31.843  14.979
96609W        W63150  21.170  36.882   4.732
96610W        W63151  30.826  33.861  12.944
96611W        W63152   4.977   9.664   3.722
96612W        W63153  38.355   3.817   0.331
96613W        W63154  14.195  15.397   0.730
96614W        W63155  29.952  17.036   2.959
96615W        W63156   6.736  38.333   2.841
96616W        W63157  11.336  41.750   3.026
96617W        W63158  21.273  44.263  14.576
96618W        W63159   2.993  28.620   2.218
96619W        W63160   5.723  22.371  10.706
96620W        W63161  15.759  15.717  13.499
96621W        W63162  16.112  42.499  12.018
96622W        W63163  33.528  37.662  13.977
96623W        W63164   9.224  20.341  12.108
96624W        W63165   4.914   4.857  12.118
96625W        W63166  35.244  27.944  11.097
96626W        W63167   1.323   0.202   0.484
96627W        W63168  16.634   0.432  10.898
96628W        W63169  17.260  21.051   0.826
96629W        W63170  42.987  17.276  14.616
96630W        W63171  15.743  12.909   2.717
96631W        W63172  44.353  16.361   3.133
96632W        W63173   3.689  15.464  10.704
96633W        W63174  26.646  38.608   1.982
96634W        W63175  13.876   7.764   0.009
96635W        W63176  19.583  21.463  11.675
96636W        W63177  33.459  41.905  13.760
96637W        W63178  30.660   2.220   2.242
96638W        W63179  20.128  41.056  14.896
96639W        W63180  12.121   0.453   0.972
96640W        W63181  31.870  11.438  10.241
96641W        W63182  34.321   6.887   4.216
96642W        W63183   0.928  37.784  11.901
96643W        W63184   7.271  25.568   1.746
96644W        W63185   1.194  17.883  10.742
96645W        W63186  23.737  33.953   0.430
96646W        W63187   4.220   0.021   1.723
96647W        W63188  14.182   1.524   1.115
96648W        W63189  14.813  10.630   4.614
96649W        W63190  22.090  28.568  12.838
96650W        W63191  24.430   3.738   1.657
96651W        W63192   2.678   5.039   2.200
96652W        W63193  41.950   6.562  10.654
96653W        W63194  14.601  34.367  14.968
96654W        W63195  17.560  43.337   1.259
96655W        W63196  16.883  17.578   1.923
96656W        W63197  11.282  38.824  12.842
96657W        W63198  15.216  17.663   0.975
96658W        W63199   9.332  21.545  13.086
96659W        W63200  32.455  36.012  10.705
96660W        W63201  37.992  40.063   1.660
96661W        W63202  40.615  18.449   1.262
96662W        W63203   6.117  31.017  13.735
96663W        W63204  42.734  20.246   2.300
96664W        W63205  44.783  20.040  11.262
96665W        W63206  38.099  42.347  11.529
96666W        W63207  15.221   9.090   2.234
96667W        W63208  16.660  41.988   4.070
96668W        W63209  43.545  32.870   4.546
96669W        W63210   7.454  17.819  13.357
96670W        W63211  21.225  38.316  12.912
96671W        W63212  25.391   8.347  10.382
96672W        W63213  28.701  38.373  14.883
96673W        W63214  21.822  25.662  13.591
96674W        W63215  26.519  16.238  12.099
96675W        W63216  26.220  16.627  14.488
96676W        W63217  18.190  26.545   3.113
96677W        W63218   3.412  21.075   1.801
96678W        W63219  29.186  18.875   3.330
96679W        W63220  42.481   9.629   0.060
96680W        W63221  11.677  40.142   4.926
96681W        W63222  10.693  39.842   0.908
96682W        W63223  42.196   5.967  10.681
96683W        W63224  19.522  13.723  14.426
96684W        W63225  33.003  27.772   4.726
96685W        W63226  23.957  30.475  14.961
96686W        W63227   6.828  18.982   2.730
96687W        W63228  40.666  14.547   2.541
96688W        W63229  26.072  23.096   4.230
96689W        W63230   5.114  15.937   0.548
96690W        W63231  38.775  40.664   4.586
96691W        W63232  32.362  30.982  11.688
96692W        W63233  40.341  42.781  12.539
96693W        W63234  15.722  14.404   2.543
96694W        W63235  15.239  32.067  12.280
96695W        W63236   3.726   4.525   4.194
96696W        W63237  38.388  22.108  12.587
96697W        W63238  24.712  14.202  13.546
96698W        W63239  24.921  42.893  12.537
96699W        W63240  28.684  22.394   2.637
96700W        W63241  38.350  39.460  11.429
96701W        W63242  19.733  20.621  11.468
96702W        W63243  30.115  19.544   0.279
96703W        W63244  37.872  24.503   1.990
96704W        W63245  38.985  25.138  14.546
96705W        W63246  44.191  28.194  12.916
96706W        W63247  41.438  24.724   0.993
96707W        W63248  29.745  35.969  11.385
96708W        W63249   3.916  16.799   2.123
96709W        W63250  29.145  21.640   1.922
96710W        W63251  28.344  13.278  14.987
96711W        W63252   5.075  10.292   0.017
96712W        W63253  14.716  28.049  13.213
96713W        W63254  28.747  26.916  13.528
96714W        W63255  11.883  24.713   0.003
96715W        W63256  22.979   8.019   4.572
96716W        W63257  40.606  26.373  13.332
96717W        W63258  30.369  44.638  14.989
96718W        W63259   6.816  32.846   3.283
96719W        W63260   9.439   2.674  13.457
96720W        W63261   0.259  19.829  11.475
96721W        W63262   4.537  28.612   2.451
96722W        W63263  11.654  28.059   0.740
96723W        W63264  13.325   8.858   0.185
96724W        W63265  23.767  17.464   3.748
96725W        W63266   6.861   5.568  14.281
96726W        W63267  36.035  30.591  10.706
96727W        W63268  42.367   6.276  14.055
96728W        W63269  39.540  11.296  11.121
96729W        W63270   6.692  42.516   3.298
96730W        W63271  35.833  29.258   3.648
96731W        W63272  32.856  40.573   0.274
96732W        W63273  36.092  17.607   4.569
96733W        W63274  33.571  11.671  11.694
96734W        W63275  10.751  12.720  11.919
96735W        W63276  36.440  26.536   0.187
96736W        W63277  12.499   5.622   3.765
96737W        W63278   1.124  22.585  11.059
96738W        W63279  40.025  38.451  13.368
96739W        W63280  20.704   3.965   3.290
96740W        W63281  15.194  21.596  13.436
96741W        W63282  19.032  13.548   2.388
96742W        W63283  30.954  20.357   2.720
96743W        W63284  34.755  43.829   1.807
96744W        W63285  15.701  15.560   4.321
96745W        W63286   0.887  11.612  12.879
96746W        W63287   8.839   2.464   2.302
96747W        W63288  16.733  31.007   3.258
96748W        W63289  25.799  25.810  11.151
96749W        W63290  17.119  34.215  10.484
96750W        W63291  30.576  31.081   2.234
96751W        W63292   2.083   0.217   4.052
96752W        W63293  19.974  29.545  14.310
96753W        W63294  17.657  21.741   2.324
96754W        W63295   9.561  35.881   4.847
96755W        W63296  11.903  21.986   2.915
96756W        W63297  17.335   7.378   1.752
96757W        W63298   6.264  16.725   2.433
96758W        W63299  12.915  17.810   4.324
96759W        W63300  34.988  23.908   3.695
96760W        W63301  21.679  12.309  12.000
96761W        W63302  23.412  10.242  11.631
96762W        W63303  27.020  21.050  10.206
96763W        W63304  23.230  42.347   2.311
96764W        W63305  19.220   2.543  11.948
96765W        W63306  35.702   4.809  13.027
96766W        W63307   8.000  44.220  13.922
96767W        W63308  13.791  40.301  13.402
96768W        W63309  10.722   6.343  12.446
96769W        W63310  35.035  35.358   1.031
96770W        W63311  26.969  39.446  11.104
96771W        W63312  37.047  28.283  14.946
96772W        W63313  27.873  22.316   3.164
96773W        W63314  31.284  33.928   4.615
96774W        W63315  22.664  30.408  11.592
96775W        W63316  11.882   9.518   2.391
96776W        W63317   8.390   0.660   0.349
96777W        W63318   5.370   4.002   0.844
96778W        W63319  33.078  39.106  12.706
96779W        W63320  33.039  14.553  11.206
96780W        W63321  19.092  17.199  11.082
96781W        W63322  36.608  44.388   2.027
96782W        W63323  14.666  31.955   3.162
96783W        W63324  16.540  34.617  11.137
96784W        W63325  16.821   7.263   3.732
96785W        W63326   0.456  43.385  10.736
96786W        W63327  39.392  20.828  12.807
96787W        W63328   8.496   5.675   1.807
96788W        W63329  29.953  20.149   1.407
96789W        W63330  24.580   7.697   2.162
96790W        W63331  32.744  38.117  13.504
96791W        W63332   6.003   0.646   4.517
96792W        W63333  10.317  17.336  13.263
96793W        W63334   6.229   2.457   1.452
96794W        W63335   6.875  11.244   2.221
96795W        W63336   0.984  32.558  11.859
96796W        W63337  23.309  18.881   2.352
96797W        W63338   3.690   4.452  14.980
96798W        W63339   7.454  14.583  11.128
96799W        W63340  37.899  18.502   3.727
96800W        W63341  40.782  26.852   3.693
96801W        W63342  30.631   3.762  10.676
96802W        W63343  34.088   2.197  10.836
96803W        W63344   1.962  19.834   0.737
96804W        W63345   9.322  36.758  11.999
96805W        W63346  13.240  26.093   3.827
96806W        W63347  40.419  14.240  12.724
96807W        W63348  17.647  16.186  14.008
96808W        W63349  32.810  41.734  12.935
96809W        W63350   6.625  29.774  11.556
96810W        W63351  43.440  33.321   2.358
96811W        W63352  44.717  41.963  11.579
96812W        W63353  11.199   5.233   2.424
96813W        W63354  16.878   6.404  14.072
96814W        W63355   5.733  27.417   1.353
96815W        W63356  21.154   9.837   9.668
96816W        W63357  33.166  31.939   4.681
96817W        W63358  28.506  28.922  12.542
96818W        W63359  29.625  29.892  12.921
96819W        W63360  18.513  17.539  13.482
96820W        W63361  10.839  27.951  12.433
96821W        W63362  15.581  14.721  13.274
96822W        W63363  21.675  26.009   2.253
96823W        W63364   6.877  43.043   3.220
96824W        W63365   2.337  29.408  13.827
96825W        W63366   3.578  35.529   4.097
96826W        W63367  19.048   3.528   3.375
96827W        W63368  19.704  29.916  13.002
96828W        W63369  13.272  13.793  13.673
96829W        W63370  10.540  34.720   3.192
96830W        W63371  29.041  29.431   1.065
96831W        W63372  12.875  24.595  10.942
96832W        W63373  31.032  11.216  13.273
96833W        W63374  12.281  32.385  13.556
96834W        W63375  40.326  19.531   2.564
96835W        W63376   7.177  43.294  13.516
96836W        W63377  20.408  20.652   3.272
96837W        W63378   2.911  41.955   0.133
96838W        W63379  34.023  12.653   2.196
96839W        W63380  32.030  22.732   0.111
96840W        W63381  28.181  29.125   0.460
96841W        W63382   1.339  24.243  13.503
96842W        W63383   9.792  15.489   3.153
96843W        W63384  39.008   8.278   1.346
96844W        W63385  41.764  31.709  12.046
96845W        W63386   2.505  28.421   2.210
96846W        W63387  21.009   6.146   0.233
96847W        W63388  21.289  39.938   4.782
96848W        W63389   3.153  14.121   0.689
96849W        W63390  28.355   5.738  10.145
96850W        W63391   1.015  35.465   3.223
96851W        W63392  40.309  19.083   2.864
96852W        W63393  11.727  21.703  14.438
96853W        W63394  41.997  22.463   3.027
96854W        W63395  19.731  41.708   5.174
96855W        W63396  22.769  22.050   2.272
96856W        W63397   4.594  25.463  12.866
96857W        W63398   6.976  33.977   2.735
96858W        W63399   6.163  39.466  12.348
96859W        W63400  21.228  33.524   2.679
96860W        W63401  20.666   0.488  10.692
96861W        W63402  37.418  38.944  13.854
96862W        W63403  19.522   1.777   2.180
96863W        W63404   9.790   5.843  10.644
96864W        W63405  42.406  12.358  14.407
96865W        W63406   4.791  12.815  10.740
96866W        W63407  12.352  33.555  11.665
96867W        W63408  10.907  18.038   2.451
96868W        W63409  38.131  23.552   2.860
96869W        W63410  33.175  39.502   3.135
96870W        W63411  43.327  33.150   4.173
96871W        W63412  42.792   0.965  14.452
96872W        W63413   5.656  28.068  14.037
96873W        W63414  26.871   4.734  12.420
96874W        W63415  28.219  13.733  12.893
96875W        W63416  12.062   5.861   3.867
96876W        W63417  15.266  34.734   4.409
96877W        W63418  11.711  20.064  14.409
96878W        W63419  43.159  16.946   4.693
96879W        W63420  44.374  21.567  13.997
96880W        W63421  31.902  26.872   2.650
96881W        W63422  33.059   6.420  12.347
96882W        W63423   3.452   8.294   4.341
96883W        W63424  16.213  35.501   3.236
96884W        W63425  12.222  13.846   1.246
96885W        W63426  35.370   6.471  13.433
96886W        W63427  12.035  14.189   2.205
96887W        W63428   3.662  12.766   4.796
96888W        W63429  40.562  20.738  12.867
96889W        W63430  29.193  32.935   2.302
96890W        W63431  15.620  31.605   2.211
96891W        W63432  13.682   0.204  14.835
96892W        W63433  38.436   7.664  14.784
96893W        W63434   9.542  33.113   2.868
96894W        W63435  38.966  12.554   5.010
96895W        W63436  24.467  27.495   4.168
96896W        W63437   5.485  10.773  13.008
96897W        W63438  43.381   1.413   3.364
96898W        W63439  44.883  12.696  13.288
96899W        W63440  41.721  31.140   4.267
96900W        W63441   6.204   7.611   0.848
96901W        W63442  44.067  35.967   3.231
96902W        W63443   2.781  18.536   2.910
96903W        W63444  18.706  22.243  10.666
96904W        W63445  44.972  43.297  14.381
96905W        W63446   8.264  33.492  11.921
96906W        W63447  22.675   4.766  14.649
96907W        W63448  17.036  20.107  14.360
96908W        W63449  21.701  27.581   1.752
96909W        W63450  28.124  12.754   1.665
96910W        W63451  21.641   1.976   3.596
96911W        W63452  10.873  27.031  11.878
96912W        W63453  24.966   7.057  13.425
96913W        W63454   4.684  37.513   0.770
96914W        W63455   3.472   6.886  10.900
96915W        W63456  33.465  42.173   0.727
96916W        W63457   3.932  19.177   1.798
96917W        W63458  36.610  35.528  14.884
96918W        W63459   9.575  40.146   2.202
96919W        W63460   4.249  35.562   3.481
96920W        W63461   6.419  17.257  11.163
96921W        W63462   7.260  24.168  13.431
96922W        W63463  13.815  25.937  13.169
96923W        W63464  31.934  13.162  13.919
96924W        W63465  36.631  30.926  13.365
96925W        W63466  22.995   8.554   1.307
96926W        W63467   3.741  32.939   0.900
96927W        W63468   2.822  34.665   4.539
96928W        W63469  11.741  34.943   4.759
96929W        W63470   5.856  23.657  12.591
96930W        W63471  28.187  34.557   4.521
96931W        W63472  38.332  12.130  13.713
96932W        W63473  24.665  19.269   1.262
96933W        W63474  29.577   1.988  14.408
96934W        W63475  20.305  26.029  11.460
96935W        W63476  34.854   8.063   2.296
96936W        W63477   4.402   7.333  14.867
96937W        W63478  38.959  16.790  14.831
96938W        W63479   5.250   9.786   3.224
96939W        W63480  33.318  24.808  11.191
96940W        W63481  12.143   7.618  12.976
96941W        W63482  27.768  39.317   0.233
96942W        W63483  42.876  10.925   0.995
96943W        W63484  20.794  30.135   3.732
96944W        W63485   6.150  36.789   4.100
96945W        W63486  44.996  14.349  13.755
96946W        W63487   1.458  10.784  11.156
96947W        W63488   6.906   2.341  11.110
96948W        W63489   6.523  21.738   0.217
96949W        W63490  33.039  35.397   2.395
96950W        W63491   6.992  13.461  11.193
96951W        W63492  12.455   9.366   0.551
96952W        W63493  43.832  38.749   0.820
96953W        W63494   2.292  38.802  14.330
96954W        W63495  13.864  39.567   3.597
96955W        W63496   4.948  37.796  14.262
96956W        W63497   5.851   4.454   2.481
96957W        W63498  33.800   8.578  11.001
96958W        W63499  10.107  36.493  14.161
96959W        W63500  20.623   6.721   3.271
96960W        W63501  19.219   2.233   4.772
96961W        W63502   8.650  11.578   2.290
96962W        W63503  21.063  20.095  11.668
96963W        W63504  34.340  42.108  14.030
96964W        W63505  32.588  34.643  11.458
96965W        W63506   9.368   4.296   4.702
96966W        W63507  28.003  40.269   4.645
96967W        W63508  39.412   0.741   0.390
96968W        W63509   9.885  39.360  13.867
96969W        W63510  25.978  37.359  11.577
96970W        W63511   2.848   7.748   1.388
96971W        W63512  26.972  32.323   2.663
96972W        W63513  43.497  24.747  13.830
96973W        W63514  20.875  37.584  12.438
96974W        W63515   1.775   6.483   0.352
96975W        W63516  12.874   7.720   0.866
96976W        W63517  14.825  17.566  14.402
96977W        W63518  12.750  40.493   2.766
96978W        W63519   7.838   5.746   3.882
96979W        W63520  16.644  36.137  13.261
96980W        W63521   7.785  11.637   1.641
96981W        W63522   7.305   3.743   4.602
96982W        W63523   1.157  13.182   3.889
96983W        W63524  21.691   1.382   0.596
96984W        W63525  38.307   3.365  13.154
96985W        W63526   7.695  23.234   2.306
96986W        W63527  32.078  37.313   0.336
96987W        W63528  44.798  38.372   2.667
96988W        W63529   7.797  38.782  13.379
96989W        W63530  34.774  21.644  10.598
96990W        W63531   0.807  16.202   1.023
96991W        W63532  20.045  37.285   2.969
96992W        W63533  15.862  14.726  14.888
96993W        W63534  32.352  44.379  11.091
96994W        W63535  11.921  15.161  14.049
96995W        W63536  44.266  11.897  14.731
96996W        W63537  21.026  17.721  13.552
96997W        W63538  13.656  39.872   1.285
96998W        W63539   6.431  31.898   0.426
96999W        W63540  30.142   6.485  12.636
97000W        W63541  10.782   4.079  12.956
97001W        W63542   1.709  32.134  12.482
97002W        W63543  21.999  25.136  13.632
97003W        W63544  12.321   5.279   0.808
97004W        W63545  14.098   8.491   3.282
97005W        W63546  39.505  25.489  14.958
97006W        W63547   8.561  43.840   4.775
97007W        W63548  38.257  30.526   0.395
97008W        W63549  16.600  19.108  12.513
97009W        W63550  14.980  43.180  11.566
97010W        W63551   8.309  29.465   0.683
97011W        W63552  12.304  41.242   2.861
97012W        W63553   0.339  11.334   0.911
97013W        W63554  18.145   3.516   4.838
97014W        W63555  31.183   6.196  14.255
97015W        W63556   4.554  40.019  13.548
97016W        W63557  13.690   8.182  14.690
97017W        W63558  29.455  12.260  14.026
97018W        W63559  11.721  35.963   2.215
97019W        W63560  21.536   8.543  12.333
97020W        W63561  18.500   0.849  11.089
97021W        W63562  33.577  40.538  10.623
97022W        W63563  21.943   7.320   2.279
97023W        W63564  42.813  20.286   3.898
97024W        W63565  25.678  18.787  12.806
97025W        W63566  15.180  26.468   0.251
97026W        W63567   3.329  28.448  12.483
97027W        W63568  19.346  36.575   1.029
97028W        W63569  37.015  18.776  12.907
97029W        W63570   1.419   5.172  10.826
97030W        W63571  17.579  39.814   2.873
97031W        W63572  32.454  37.286   4.201
97032W        W63573  43.644  39.088   4.766
97033W        W63574  15.382  11.693  12.329
97034W        W63575  35.886  22.026  12.604
97035W        W63576  22.831  24.590  10.756
97036W        W63577  17.126   8.139  11.191
97037W        W63578   2.243  23.436   1.199
97038W        W63579  24.770  33.657  13.787
97039W        W63580  16.407   6.646  14.839
97040W        W63581  31.399   4.554   3.637
97041W        W63582   8.870  37.307   2.776
97042W        W63583  37.021  28.544   3.734
97043W        W63584  11.744   5.320  10.595
97044W        W63585  21.196   9.225  12.895
97045W        W63586  13.773  26.347  14.033
97046W        W63587  41.504  29.204  14.838
97047W        W63588  11.785  36.044   3.229
97048W        W63589  41.425  10.928  12.680
97049W        W63590  44.616  22.994   4.314
97050W        W63591   4.816  23.556  13.325
97051W        W63592  19.533  25.123  10.743
97052W        W63593  18.037  19.772   1.082
97053W        W63594  14.701  13.272  12.147
97054W        W63595  28.250  11.895  11.200
97055W        W63596  30.911  32.164  12.843
97056W        W63597  21.775  24.532   1.839
97057W        W63598  16.542   1.426   1.336
97058W        W63599  36.054  13.802   3.312
97059W        W63600  40.099  12.017   1.727
97060W        W63601  28.590  18.280   3.740
97061W        W63602  31.481   5.868  11.377
97062W        W63603  39.314  39.897  14.885
97063W        W63604  39.332   8.137  13.841
97064W        W63605   3.553   6.885  14.415
97065W        W63606  41.945  30.656   3.297
97066W        W63607   9.309  11.798  14.980
97067W        W63608  13.173  38.456   2.008
97068W        W63609  28.573   3.228  13.329
97069W        W63610  44.161  19.275  11.668
97070W        W63611  31.076  44.221  10.571
97071W        W63612  32.509  43.716   0.210
97072W        W63613   6.906  22.572  12.111
97073W        W63614   2.845  32.100  12.566
97074W        W63615   3.612  25.870   1.341
97075W        W63616  27.399  12.644   2.937
97076W        W63617  30.576  36.657  13.298
97077W        W63618   7.305  36.737   3.561
97078W        W63619   4.886  25.882  11.601
97079W        W63620   0.435  27.416   3.227
97080W        W63621   7.953   6.459  11.134
97081W        W63622  11.451  13.735   1.146
97082W        W63623  30.966  39.037  14.457
97083W        W63624  12.431   9.256   1.345
97084W        W63625   6.781   9.447  13.140
97085W        W63626  12.177  15.630   4.306
97086W        W63627  15.034  34.285   4.365
97087W        W63628  19.759   5.123   1.863
97088W        W63629   4.329  43.306   3.382
97089W        W63630  41.077  18.965   4.156
97090W        W63631   5.798  14.880  12.137
97091W        W63632  38.963   8.120   4.691
97092W        W63633  16.117   6.124   0.443
97093W        W63634  17.862  20.306  14.011
97094W        W63635  13.665  26.880  13.992
97095W        W63636  15.868  10.082   3.140
97096W        W63637  17.267  28.439  11.310
97097W        W63638  38.521   5.880  13.375
97098W        W63639   1.597  34.319  14.201
97099W        W63640  21.658  12.543  13.476
97100W        W63641  37.639   1.494  11.934
97101W        W63642  22.128  23.638   2.229
97102W        W63643  42.228  27.060  14.916
97103W        W63644  33.893  25.733   3.675
97104W        W63645  37.434   6.401  12.666
97105W        W63646   3.154  25.766  11.897
97106W        W63647  31.986  41.422  10.734
97107W        W63648   2.599  44.989  14.258
97108W        W63649  39.841  31.431  11.240
97109W        W63650  34.493  20.211   3.331
97110W        W63651  29.971  27.298   3.683
97111W        W63652  28.707  25.010   1.232
97112W        W63653  40.164   2.558  12.128
97113W        W63654  35.387  23.185  13.459
97114W        W63655  11.563   6.353   2.702
97115W        W63656  30.613  41.823  11.388
97116W        W63657  43.766  18.621  11.098
97117W        W63658  22.246  18.322   2.297
97118W        W63659   5.514  27.155  11.494
97119W        W63660  14.273  35.803  13.884
97120W        W63661   4.063   6.218  14.864
97121W        W63662  15.743  28.141  12.093
97122W        W63663  22.778  44.897   1.341
97123W        W63664  11.919  42.599   4.448
97124W        W63665  31.914  10.345   1.263
97125W        W63666   2.814   6.930  14.964
97126W        W63667  29.080  34.901   4.067
97127W        W63668  36.842   0.992   2.675
97128W        W63669   8.663   5.221  13.048
97129W        W63670   0.000  41.320   3.062
97130W        W63671  15.978  21.634   3.650
97131W        W63672  13.324  27.432  14.784
97132W        W63673   2.294  12.848   4.034
97133W        W63674   7.490  28.888  12.537
97134W        W63675  17.967   4.950   4.400
97135W        W63676  35.025  21.073   0.662
97136W        W63677  29.578  44.291  12.530
97137W        W63678  21.468  43.040   1.437
97138W        W63679  30.852  40.385  10.347
97139W        W63680  37.032   2.663  11.858
97140W        W63681  27.106  16.096  10.548
97141W        W63682   9.123  14.110   3.119
97142W        W63683  40.494  41.017   2.353
97143W        W63684  28.295  29.339  14.989
97144W        W63685   0.825  32.661   0.914
97145W        W63686  35.335  42.016   2.904
97146W        W63687  19.285  36.114   1.268
97147W        W63688   9.482  32.491   2.911
97148W        W63689  28.885  32.253   4.016
97149W        W63690  28.246   6.243  10.651
97150W        W63691  26.684  36.805   1.287
97151W        W63692  33.602  15.383   3.312
97152W        W63693   5.777  15.478  12.018
97153W        W63694  40.369  32.629  13.045
97154W        W63695   7.783  34.035  10.664
97155W        W63696  37.554  16.486  11.922
97156W        W63697  21.557  38.554   4.568
97157W        W63698  10.654   7.297   5.004
97158W        W63699   8.131  29.058   2.429
97159W        W63700  22.957  14.012   0.909
97160W        W63701  42.435  15.759  14.484
97161W        W63702  22.575  41.319   0.561
97162W        W63703  27.467   1.239   3.709
97163W        W63704   7.229  31.354   3.642
97164W        W63705   1.441  42.442  13.736
97165W        W63706   3.664  34.546  14.380
97166W        W63707   2.003  23.022   0.323
97167W        W63708   4.482   8.447   3.474
97168W        W63709  33.616  42.899   3.158
97169W        W63710  11.375   1.360   0.299
97170W        W63711  44.785   5.678  10.764
97171W        W63712  32.960  33.639   3.807
97172W        W63713   1.588  29.889   4.694
97173W        W63714  32.664   3.778  10.327
97174W        W63715  42.152  39.021   4.893
97175W        W63716  26.907  16.123  14.843
97176W        W63717  39.553  35.361   2.254
97177W        W63718  14.286  15.220   1.506
97178W        W63719  44.545  38.025   1.710
97179W        W63720  11.236   2.705   3.134
97180W        W63721  24.177  25.496  14.905
97181W        W63722   0.402  13.159  12.470
97182W        W63723   8.080  29.496   4.537
97183W        W63724  37.106  36.362   2.717
97184W        W63725  30.081  33.476   0.271
97185W        W63726  41.972   4.357  12.564
97186W        W63727  14.226  44.852   4.634
97187W        W63728  19.606  39.565   2.818
97188W        W63729  31.564  27.741  12.507
97189W        W63730   4.976   1.072  11.643
97190W        W63731  41.060  43.935   3.368
97191W        W63732  32.058   3.789  11.889
97192W        W63733  38.498   7.482   4.249
97193W        W63734  42.041  14.721   2.215
97194W        W63735  41.533  29.931   1.364
97195W        W63736  24.162  32.080   2.421
97196W        W63737  37.936  26.139   0.242
97197W        W63738  39.539  14.852   1.189
97198W        W63739  32.280  11.847   0.336
97199W        W63740  29.585  18.097   3.697
97200W        W63741  41.214  34.420  14.820
97201W        W63742   5.658  40.298  11.674
97202W        W63743  20.257   1.032  11.771
97203W        W63744  30.067  35.340  14.416
97204W        W63745  27.021  16.859   2.691
97205W        W63746  27.478   3.981  13.929
97206W        W63747  37.153  31.024  13.270
97207W        W63748   0.721   7.070  14.868
97208W        W63749  14.017   1.021   3.498
97209W        W63750  42.774  11.161   4.280
97210W        W63751  22.185  36.345   0.997
97211W        W63752  17.817   3.531  12.569
97212W        W63753  17.024  29.659   0.476
97213W        W63754  10.608  12.402   3.243
97214W        W63755   7.286  28.643   0.558
97215W        W63756  16.630  39.064  11.940
97216W        W63757  38.538   5.396   1.336
97217W        W63758   9.214   0.203  14.391
97218W        W63759  11.909  25.987  13.919
97219W        W63760  33.065   8.176  13.838
97220W        W63761  27.146  40.197  12.417
97221W        W63762  23.249  35.604   0.534
97222W        W63763  35.463  28.919   4.504
97223W        W63764  36.322  37.529  12.084
97224W        W63765  41.412  19.098  13.420
97225W        W63766  22.450  34.510   1.760
97226W        W63767   0.798  40.053   4.864
97227W        W63768   0.850  39.979   3.849
97228W        W63769   4.605  22.609  13.839
97229W        W63770  40.391  36.947  13.506
97230W        W63771   4.778  38.184  11.596
97231W        W63772  30.394  11.615   3.961
97232W        W63773  42.749   7.782  12.473
97233W        W63774  34.119   0.312  12.228
97234W        W63775   5.126   6.526   2.608
97235W        W63776   2.775  38.094   1.294
97236W        W63777  22.341  13.122   5.247
97237W        W63778  10.145  41.394  14.854
97238W        W63779  24.202  20.844   1.002
97239W        W63780  25.408  15.191  12.469
97240W        W63781  44.874  19.143   1.323
97241W        W63782  11.020  42.893  10.170
97242W        W63783  38.553   8.842   4.883
97243W        W63784  30.011   7.299  13.910
97244W        W63785  17.747  36.069   1.385
97245W        W63786  15.034  32.623   0.250
97246W        W63787  40.973  13.798   0.718
97247W        W63788  37.336  12.756   0.846
97248W        W63789  28.423  17.810  12.335
97249W        W63790  23.761  41.503   1.370
97250W        W63791  12.025   6.868   1.954
97251W        W63792  41.896  43.420   3.586
97252W        W63793  39.388  15.211  10.656
97253W        W63794  18.558  33.403   2.173
97254W        W63795  10.344  19.265  11.021
97255W        W63796  35.885  39.258   2.881
97256W        W63797   4.008  44.758   3.393
97257W        W63798  37.105   3.782   2.140
97258W        W63799  43.861  15.548   3.209
97259W        W63800  41.442  22.201  10.980
97260W        W63801  19.193   5.983   4.236
97261W        W63802  34.620  11.267   3.646
97262W        W63803   4.488  30.668   2.191
97263W        W63804  27.115  34.400   2.588
97264W        W63805   8.403  23.640   2.540
97265W        W63806  20.735  33.279   1.326
97266W        W63807  31.920  27.858   2.263
97267W        W63808  25.052  27.857  10.823
97268W        W63809   1.959  34.394   2.161
97269W        W63810  11.859  27.921  12.530
97270W        W63811  20.836  36.614   0.982
97271W        W63812  23.743  32.930  13.570
97272W        W63813  11.214  19.936  12.077
97273W        W63814  21.453  36.005   4.089
97274W        W63815  30.190  40.008   0.987
97275W        W63816  44.452  30.375  12.097
97276W        W63817   7.947  19.085  14.746
97277W        W63818  24.788   5.905   1.872
97278W        W63819  14.359   1.166   0.805
97279W        W63820  20.788   2.720  14.496
97280W        W63821  36.658  20.816   3.532
97281W        W63822  10.998  23.358   0.657
97282W        W63823  36.557  37.228  11.159
97283W        W63824  35.869   9.453  10.796
97284W        W63825  18.580  36.173  10.801
97285W        W63826   4.059   3.281  14.277
97286W        W63827   4.268   3.001   3.577
97287W        W63828  37.299  36.995   1.099
97288W        W63829  14.324  21.026   2.210
97289W        W63830  44.374  17.335   2.222
97290W        W63831  17.898  22.099   1.532
97291W        W63832  44.436  25.593   0.913
97292W        W63833  17.812   8.280  13.961
97293W        W63834  24.039  33.125  10.873
97294W        W63835  30.051  33.502  14.715
97295W        W63836  44.266   1.184  10.420
97296W        W63837   5.826  19.116  11.566
97297W        W63838  12.366  21.824   0.360
97298W        W63839  13.608  41.484   0.248
97299W        W63840  21.252  39.160  12.493
97300W        W63841  29.172  34.980  12.015
97301W        W63842  41.479  38.376  13.274
97302W        W63843  29.558   1.724   1.620
97303W        W63844  38.898  41.748   3.825
97304W        W63845  37.513  40.654  11.424
97305W        W63846  43.943   8.529   4.273
97306W        W63847  30.841  22.260  12.003
97307W        W63848   1.278  39.103   4.316
97308W        W63849  15.303  26.916   0.007
97309W        W63850   3.715  24.141  12.286
97310W        W63851  32.101  40.976   1.566
97311W        W63852  30.174   2.233   1.366
97312W        W63853  19.789   8.196  12.863
97313W        W63854  18.000  33.907  11.626
97314W        W63855  39.071  28.319   4.107
97315W        W63856  33.169  12.496  11.004
97316W        W63857  33.429  13.086  10.292
97317W        W63858  12.437  34.472  11.577
97318W        W63859   3.315  17.088   2.114
97319W        W63860  12.075  16.693   2.442
97320W        W63861  14.218  22.554  12.645
97321W        W63862  23.088  30.662   0.920
97322W        W63863  18.616  43.268  10.806
97323W        W63864  44.543  32.087  12.450
97324W        W63865   1.455  18.517   2.864
97325W        W63866  28.612  15.398  10.688
97326W        W63867  43.300   3.210   0.748
97327W        W63868  23.111  22.731   2.807
97328W        W63869   0.902   4.679   3.204
97329W        W63870  14.897  35.103   1.286
97330W        W63871  35.585  23.061   4.451
97331W        W63872  38.845  15.047  12.538
97332W        W63873  17.266  18.830  10.000
97333W        W63874  29.682  32.429  11.598
97334W        W63875  23.219  27.173   0.178
97335W        W63876   8.753  33.008   0.724
97336W        W63877   4.784  28.105  12.810
97337W        W63878   6.408  37.974   2.629
97338W        W63879  44.218  24.766   4.144
97339W        W63880   9.864  32.072  13.539
97340W        W63881  41.147  25.294   0.486
97341W        W63882  23.753  26.612  13.494
97342W        W63883   7.184  24.617   4.889
97343W        W63884  16.080   9.666  14.049
97344W        W63885  27.413  38.666   1.129
97345W        W63886   1.767  23.048   3.169
97346W        W63887  41.014  28.884   2.249
97347W        W63888  26.995  38.461  13.379
97348W        W63889  13.305  44.295   2.939
97349W        W63890  15.806  16.813   2.101
97350W        W63891  42.489  16.302   1.154
97351W        W63892  35.195   3.609   4.454
97352W        W63893  32.673  34.234  12.544
97353W        W63894   4.284   7.854   4.234
97354W        W63895  41.567  13.777  12.121
97355W        W63896  38.657  17.674  13.253
97356W        W63897  37.186  32.568  11.644
97357W        W63898  15.104  43.943   1.308
97358W        W63899  39.195  37.947   1.782
97359W        W63900  11.800  20.932  14.898
97360W        W63901  22.146  22.173  12.335
97361W        W63902  39.471  17.553   0.711
97362W        W63903  26.479  10.614  13.069
97363W        W63904  37.481   6.429   4.545
97364W        W63905   7.142   9.672  11.911
97365W        W63906  16.075  35.621  13.603
97366W        W63907  32.057  22.030   4.575
97367W        W63908   4.199   0.667   4.562
97368W        W63909  21.449   9.240  14.372
97369W        W63910  38.190  42.297  10.624
97370W        W63911  18.031   7.416  11.108
97371W        W63912  12.196  43.041   3.419
97372W        W63913  21.159  11.348   4.661
97373W        W63914  12.601  32.428   0.304
97374W        W63915   0.412  42.920  11.018
97375W        W63916  30.305   0.943   4.093
97376W        W63917  39.604  29.661  13.789
97377W        W63918  44.283  22.497  13.793
97378W        W63919  30.726   9.080   0.230
97379W        W63920  28.061  30.787   4.224
97380W        W63921  34.550  12.619  12.038
97381W        W63922  35.633  15.302  13.043
97382W        W63923  13.084   3.967   1.027
97383W        W63924   1.860   5.672  11.599
97384W        W63925   5.422   9.348  12.877
97385W        W63926  10.423  23.665   1.440
97386W        W63927  20.966   3.344  12.503
97387W        W63928  24.552  39.539   4.482
97388W        W63929  23.492  34.150  14.050
97389W        W63930  16.695   7.854  12.726
97390W        W63931  37.398   2.112   2.713
97391W        W63932  23.153  38.468   3.194
97392W        W63933  13.169   2.275  11.078
97393W        W63934   4.807  26.556   2.698
97394W        W63935   0.022   7.695   4.576
97395W        W63936  39.550  40.007  12.224
97396W        W63937   4.849  20.032  11.176
97397W        W63938  11.930  44.316   0.435
97398W        W63939  15.304  33.755  11.000
97399W        W63940   0.121   5.881  12.832
97400W        W63941  44.837  28.915   1.862
97401W        W63942  39.476   4.879  14.282
97402W        W63943  29.419  27.230   1.973
97403W        W63944   1.802  43.227  11.170
97404W        W63945   5.761  42.677  12.559
97405W        W63946   5.844   6.251   3.562
97406W        W63947   0.138   6.852  11.035
97407W        W63948  43.037   2.437   0.003
97408W        W63949  29.458  10.886  12.626
97409W        W63950  20.942   4.749   0.824
97410W        W63951  10.383  29.562  14.091
97411W        W63952  15.620  18.501  11.543
97412W        W63953  32.974  19.976   3.346
97413W        W63954   9.687  42.745  14.370
97414W        W63955   4.414  25.726  11.941
97415W        W63956  13.341  41.886  14.257
97416W        W63957  22.524  14.705  12.832
97417W        W63958   6.345   0.940  11.613
97418W        W63959  18.853  37.021   0.239
97419W        W63960  41.003   6.351   0.760
97420W        W63961  13.731  32.102   3.670
97421W        W63962  27.629   5.202   0.919
97422W        W63963  12.368  37.152   3.599
97423W        W63964  15.953   4.577  10.245
97424W        W63965  21.260  38.353  12.109
97425W        W63966  13.128  26.183   1.476
97426W        W63967  27.088  13.646   1.391
97427W        W63968   9.671  18.057   3.023
97428W        W63969  11.793   6.456   0.002
97429W        W63970  41.108  15.654   2.774
97430W        W63971   3.561  32.236   5.429
97431W        W63972   4.156  17.554   0.217
97432W        W63973  25.825  24.704   5.072
97433W        W63974  15.228  42.542   0.756
97434W        W63975  23.458  31.637   3.176
97435W        W63976  13.155   7.914   0.325
97436W        W63977  31.556  28.660  14.225
97437W        W63978   9.637  28.589  14.086
97438W        W63979  15.742  42.808   5.053
97439W        W63980   8.720  12.258  10.713
97440W        W63981  37.047  25.327  11.268
97441W        W63982  11.801   2.635  11.170
97442W        W63983  24.061  30.196   0.406
97443W        W63984  13.123  33.180   4.015
97444W        W63985   0.507   9.459  10.770
97445W        W63986  42.373  43.975   2.732
97446W        W63987   8.796  20.418  12.424
97447W        W63988  28.945   1.200  13.297
97448W        W63989  29.487  11.747   0.889
97449W        W63990  23.614  41.379  13.395
97450W        W63991  24.000  25.167   2.584
97451W        W63992   7.474  44.679   3.629
97452W        W63993  12.704  36.769  14.459
97453W        W63994  34.800  17.643   4.027
97454W        W63995  25.535  43.914   1.728
97455W        W63996  36.740   7.342   3.818
97456W        W63997  28.574  41.461   2.301
97457W        W63998   8.775  39.817   3.229
97458W        W63999  36.150  31.626   0.876
97459W        W64000  13.374  17.241  14.528
97460W        W64001  34.105  35.503   1.342
97461W        W64002   8.746  35.977   0.295
97462W        W64003  24.155  40.249   1.728
97463W        W64004  29.717  32.582   1.258
97464W        W64005   1.868  13.741  12.927
97465W        W64006   1.277  35.156  13.592
97466W        W64007  39.326  24.507   0.320
97467W        W64008  41.414  43.221   0.807
97468W        W64009  15.694  23.548  13.853
97469W        W64010  24.079  38.591   0.318
97470W        W64011  15.075   7.930  11.907
97471W        W64012  15.765  29.355  10.698
97472W        W64013  31.527  32.471   4.390
97473W        W64014  41.426  27.562  11.651
97474W        W64015   4.379  42.379  12.615
97475W        W64016  17.609  42.954  12.421
97476W        W64017  31.874  28.613   4.813
97477W        W64018  39.577   3.699  14.059
97478W        W64019  39.446  43.933  10.810
97479W        W64020  11.737  28.695   2.431
97480W        W64021   0.827   9.059   4.158
97481W        W64022  21.342  39.904   3.730
97482W        W64023  34.150   9.550  11.883
97483W        W64024  20.158  38.456   1.943
97484W        W64025  28.552  22.015  10.670
97485W        W64026   4.064  32.582  11.094
97486W        W64027  25.129  41.810   1.993
97487W        W64028  24.539  44.909   4.640
97488W        W64029  31.566  23.671   1.787
97489W        W64030   1.441  22.424  12.776
97490W        W64031  25.629   9.945   3.804
97491W        W64032  39.967  40.935   1.213
97492W        W64033  15.218   6.952   2.829
97493W        W64034  39.884  28.460  11.596
97494W        W64035  17.756  24.919   1.026
97495W        W64036  21.489  44.498  11.686
97496W        W64037  21.011  28.560   2.192
97497W        W64038  15.744   7.947  14.461
97498W        W64039   8.277   4.954   2.436
97499W        W64040  34.453  21.327  10.323
97500W        W64041  35.126  18.606   2.299
97501W        W64042   2.708  34.296   9.788
97502W        W64043   4.461  10.943   1.758
97503W        W64044  30.422  31.577  12.290
97504W        W64045  32.216  40.434  10.758
97505W        W64046  35.244  39.931   0.347
97506W        W64047  25.884  24.476  11.989
97507W        W64048  12.290   4.731   3.021
97508W        W64049  15.867  12.627   1.908
97509W        W64050  43.782   6.708  10.661
97510W        W64051  13.240  17.623  11.539
97511W        W64052  31.613  12.089   2.740
97512W        W64053  10.659  13.745   3.192
97513W        W64054   7.477   8.627   3.302
97514W        W64055   7.334  36.247   5.014
97515W        W64056  29.917  14.848   1.376
97516W        W64057  34.125  30.991  12.419
97517W        W64058   8.014  15.627   9.984
97518W        W64059   9.188  32.327  10.751
97519W        W64060  30.233  34.939   3.782
97520W        W64061  17.481  15.594  12.435
97521W        W64062  42.883  30.746   4.630
97522W        W64063  39.244  36.407   0.383
97523W        W64064   8.360  38.046  10.664
97524W        W64065   7.444  17.597  13.815
97525W        W64066  11.379  23.028   0.457
97526W        W64067  24.895   6.738   1.251
97527W        W64068  28.870  42.087   0.121
97528W        W64069  18.070  25.992  14.006
97529W        W64070  37.318  36.537   4.916
97530W        W64071  31.990  21.646   0.681
97531W        W64072  41.264  10.929  13.156
97532W        W64073  20.669  22.741  13.276
97533W        W64074  42.382  28.089   0.032
97534W        W64075  23.907  27.228   2.673
97535W        W64076  32.040   8.075  11.759
97536W        W64077  15.725   5.037   4.806
97537W        W64078  38.348  26.132   4.147
97538W        W64079  31.662  12.321   3.251
97539W        W64080   4.168  21.927  13.454
97540W        W64081   7.340  32.078  12.614
97541W        W64082  14.816  39.895  12.673
97542W        W64083  42.774  40.967  10.993
97543W        W64084  16.201  41.512   4.775
97544W        W64085   9.660  11.126   3.142
97545W        W64086  27.118  15.197  12.654
97546W        W64087  15.093  44.702   2.904
97547W        W64088  29.764   5.482  12.504
97548W        W64089  19.197  34.101  12.844
97549W        W64090  33.454  37.727   1.165
97550W        W64091  11.066   5.539   1.133
97551W        W64092  18.580   4.817   1.150
97552W        W64093  23.568  18.221  13.297
97553W        W64094  33.387  29.488   4.533
97554W        W64095   6.333  12.667   2.897
97555W        W64096   8.151  41.618   3.692
97556W        W64097   2.513   0.105   4.307
97557W        W64098  10.855  30.240   4.686
97558W        W64099  17.284  34.913  13.038
97559W        W64100  33.261  11.390  14.517
97560W        W64101  25.768  20.223   4.634
97561W        W64102  41.538   4.811   2.208
97562W        W64103  11.299  31.370  10.939
97563W        W64104  39.509   5.401  14.285
97564W        W64105  21.507  31.467   2.401
97565W        W64106   3.044  22.086  13.641
97566W        W64107  15.155  28.564  14.324
97567W        W64108  44.254  25.776  10.957
97568W        W64109  36.886  29.630   0.054
97569W        W64110  36.215  10.621   1.299
97570W        W64111   0.189  19.693   1.927
97571W        W64112   5.138  41.853   3.650
97572W        W64113  10.224   8.646   0.537
97573W        W64114  44.442  20.280  10.545
97574W        W64115  37.356  27.208   2.456
97575W        W64116  29.196   8.664   2.442
97576W        W64117   4.887  14.162   0.494
97577W        W64118  39.630  38.663   1.204
97578W        W64119  41.864  23.291   3.745
97579W        W64120  12.423  42.221  14.380
97580W        W64121  12.108  25.983   2.425
97581W        W64122   0.174  41.580   2.637
97582W        W64123  15.802  38.436   0.996
97583W        W64124   7.275  32.454   1.284
97584W        W64125  12.596   5.833  11.183
97585W        W64126   7.809  28.790  11.978
97586W        W64127  30.378  16.497  12.041
97587W        W64128  27.630  44.762   0.368
97588W        W64129  30.071  14.254  12.051
97589W        W64130  31.964  17.934   1.751
97590W        W64131  39.988   2.403   4.057
97591W        W64132  34.946  32.681   4.711
97592W        W64133  30.605  19.221  14.961
97593W        W64134  11.703   3.797   4.865
97594W        W64135   3.404  39.983   3.790
97595W        W64136  44.323  13.780   2.201
97596W        W64137  30.037  10.128   1.826
97597W        W64138  18.017  28.614   4.511
97598W        W64139   1.283  21.963   2.656
97599W        W64140  19.655   2.265   0.750
97600W        W64141  41.536  23.282   0.940
97601W        W64142   2.931  12.721   0.256
97602W        W64143  29.631   1.881   5.083
97603W        W64144  17.690  18.971  11.864
97604W        W64145  21.723  37.544   3.453
97605W        W64146   4.348  12.098   3.103
97606W        W64147   7.161   1.226   0.311
97607W        W64148   7.840  17.299  12.717
97608W        W64149  18.805   8.606   4.067
97609W        W64150  41.481  16.784   2.160
97610W        W64151  24.835  11.497   2.318
97611W        W64152  10.704  30.469   2.715
97612W        W64153   4.391  42.359  11.581
97613W        W64154  25.457  31.021   1.701
97614W        W64155   6.957   0.344   1.462
97615W        W64156  29.994  17.453   3.814
97616W        W64157  36.025  34.400  10.499
97617W        W64158  41.735  37.813  10.837
97618W        W64159  17.681   1.640   2.759
97619W        W64160  10.273  42.249   2.883
97620W        W64161  42.720  19.160  10.602
97621W        W64162  12.191  33.858   4.633
97622W        W64163  25.259  14.522   3.751
97623W        W64164   0.676  38.005   1.099
97624W        W64165  31.877  41.546  11.226
97625W        W64166   2.399   5.901  10.792
97626W        W64167  31.966  29.429  13.765
97627W        W64168  37.520  13.152   1.156
97628W        W64169   5.339   6.919  11.981
97629W        W64170  23.311  43.227  14.922
97630W        W64171   0.987   2.810   0.689
97631W        W64172  11.797  28.550  10.969
97632W        W64173  23.676  17.092  14.885
97633W        W64174  19.081   7.733   1.452
97634W        W64175  16.877  17.504  10.146
97635W        W64176  39.026  23.611   4.678
97636W        W64177   8.687  37.821   4.979
97637W        W64178  36.652   2.398  13.456
97638W        W64179  32.899  11.352  14.868
97639W        W64180  36.352  43.028   2.326
97640W        W64181  15.422  27.233   3.370
97641W        W64182   9.140  31.898   4.170
97642W        W64183  20.129  23.570   0.698
97643W        W64184  21.714   2.801   1.677
97644W        W64185  27.717  21.589  12.464
97645W        W64186  35.572  42.017   0.392
97646W        W64187  23.534  25.457  13.025
97647W        W64188  10.151  22.204  10.738
97648W        W64189   0.946  24.396  10.963
97649W        W64190  24.867  44.897  11.375
97650W        W64191  10.765   7.629   1.202
97651W        W64192  21.468  21.693  10.552
97652W        W64193  10.913  16.320  13.776
97653W        W64194  20.216  20.721   2.102
97654W        W64195  11.109  18.046   1.588
97655W        W64196   3.222   7.633   1.757
97656W        W64197   8.324  21.279   1.180
97657W        W64198  36.505  42.667  14.438
97658W        W64199  28.519  27.530  10.742
97659W        W64200  43.350  44.016   2.343
97660W        W64201  12.637  18.756  12.169
97661W        W64202  35.159  39.387  10.416
97662W        W64203   5.358  44.394   1.949
97663W        W64204  21.531   2.478   1.269
97664W        W64205  40.227  44.268   0.473
97665W        W64206  33.886   9.570   2.641
97666W        W64207   1.400  39.262   3.837
97667W        W64208  42.953  43.810   1.350
97668W        W64209  44.998  36.571  12.520
97669W        W64210   3.786   1.140  11.145
97670W        W64211  17.948  41.339   3.126
97671W        W64212  34.351  16.002  12.286
97672W        W64213  23.628   7.760   1.778
97673W        W64214  12.795  22.061   1.874
97674W        W64215  39.660  44.453   1.994
97675W        W64216   1.728  26.861  11.881
97676W        W64217  21.209  11.207  14.419
97677W        W64218  27.451  21.973   4.353
97678W        W64219  34.883   9.578  11.557
97679W        W64220   4.452  19.229   1.807
97680W        W64221  42.216  23.112  13.337
97681W        W64222   5.755  44.143   0.725
97682W        W64223  12.862  14.793   3.041
97683W        W64224  31.617  16.177  13.061
97684W        W64225   4.598  14.297   1.844
97685W        W64226  43.994  22.272  10.773
97686W        W64227  37.468  24.591   4.061
97687W        W64228  40.362  23.419  12.001
97688W        W64229   2.172  21.716   4.849
97689W        W64230  17.915  38.726   3.677
97690W        W64231  25.175  42.325   1.880
97691W        W64232   2.076  25.344   4.890
97692W        W64233  31.379  15.018  12.022
97693W        W64234   6.089  11.631   3.044
97694W        W64235   1.986  37.071   3.678
97695W        W64236  42.567   8.571  13.590
97696W        W64237  31.941  44.304   5.057
97697W        W64238   9.682  11.232  13.918
97698W        W64239  40.363  28.017  12.989
97699W        W64240  16.553  11.800   1.410
97700W        W64241  22.124  34.251  11.866
97701W        W64242  17.870   0.827   2.606
97702W        W64243   0.820  31.920  13.468
97703W        W64244  14.235   0.285   2.182
97704W        W64245  18.483  14.993   2.201
97705W        W64246  36.077  19.866  12.014
97706W        W64247  16.268  10.240  12.387
97707W        W64248  32.315  10.142  14.010
97708W        W64249  33.015  34.947  11.384
97709W        W64250  13.617  38.277  14.888
97710W        W64251  34.222  32.981   3.754
97711W        W64252  32.623   2.732   2.351
97712W        W64253  12.127   0.817   2.769
97713W        W64254  35.259  28.516  12.326
97714W        W64255  14.826  33.825   0.897
97715W        W64256  26.047  25.952  12.864
97716W        W64257   0.389  40.486  13.298
97717W        W64258  44.008  10.800  12.644
97718W        W64259  44.282   6.245   4.016
97719W        W64260  23.312  40.894  11.526
97720W        W64261  10.222  44.487   0.216
97721W        W64262  38.253  39.110  12.870
97722W        W64263   8.780  18.250  11.543
97723W        W64264  35.649  32.318  14.475
97724W        W64265  14.782  33.046   4.111
97725W        W64266  25.483   7.778  13.556
97726W        W64267   3.851  30.186   4.270
97727W        W64268  23.243  21.068   0.278
97728W        W64269  43.406  44.019  10.517
97729W        W64270   1.285  14.650  14.675
97730W        W64271   8.893  21.067   0.363
97731W        W64272  11.812   0.265  13.330
97732W        W64273  43.702  26.466   1.264
97733W        W64274  10.973   1.790   4.269
97734W        W64275  11.315  25.015  14.337
97735W        W64276  22.405  31.597  12.913
97736W        W64277  13.378  16.138  13.749
97737W        W64278   6.719   0.248  13.446
97738W        W64279  27.055  23.548   2.745
97739W        W64280  28.860   7.894   4.941
97740W        W64281  40.568  34.613   2.809
97741W        W64282  42.276  11.148   1.435
97742W        W64283  11.289  44.221  12.442
97743W        W64284  12.841  32.972  13.957
97744W        W64285   2.837  36.711   1.438
97745W        W64286  44.617  17.276   2.725
97746W        W64287  28.175   0.786   4.582
97747W        W64288  43.291  27.546   0.857
97748W        W64289  27.029  17.771   3.208
97749W        W64290   0.759  33.667  10.698
97750W        W64291  13.842  44.993   2.488
97751W        W64292  35.053  41.258  11.701
97752W        W64293  23.593  26.804   2.587
97753W        W64294  23.142  40.761   3.365
97754W        W64295  26.220   6.455   2.813
97755W        W64296  32.623  22.963   0.392
97756W        W64297  30.487  33.873   2.344
97757W        W64298  33.434   2.913   0.823
97758W        W64299   4.344  16.380  12.108
97759W        W64300   6.552   8.572   2.633
97760W        W64301  41.259  34.434   2.191
97761W        W64302  17.145  17.880  14.216
97762W        W64303  24.785  34.887   1.750
97763W        W64304  16.580  16.942  14.857
97764W        W64305  22.151  16.346  13.439
97765W        W64306  22.731  21.454  11.975
97766W        W64307  30.357  42.559   3.360
97767W        W64308  40.386  29.153  11.704
97768W        W64309   7.950  33.506  14.432
97769W        W64310  42.890  36.876   3.681
97770W        W64311  41.327  18.348  12.357
97771W        W64312   0.659  35.586  12.495
97772W        W64313   9.052  18.004   0.844
97773W        W64314  30.540  44.424  10.681
97774W        W64315  30.975  12.294   3.651
97775W        W64316  10.373  28.053   4.308
97776W        W64317   2.021  12.947  12.093
97777W        W64318  44.953  14.245   2.285
97778W        W64319  18.445  17.520  12.948
97779W        W64320  31.282   2.881  12.911
97780W        W64321   7.550  40.580  11.548
97781W        W64322   9.237  10.213  11.066
97782W        W64323   0.870   2.895   3.059
97783W        W64324   9.242  14.987   0.377
97784W        W64325  37.826  17.155   3.638
97785W        W64326  29.637  35.691   2.687
97786W        W64327  13.840  28.522  14.771
97787W        W64328  37.768   1.884   2.430
97788W        W64329  25.566  21.624   0.556
97789W        W64330  39.383  23.999   1.675
97790W        W64331   2.930  35.686   4.593
97791W        W64332  41.287  26.787   2.766
97792W        W64333  17.056  35.176  11.756
97793W        W64334  13.125  32.955   4.479
97794W        W64335  18.659  31.535  12.858
97795W        W64336  10.318  32.209   2.004
97796W        W64337  30.844  11.796   0.680
97797W        W64338  11.379  40.848   1.985
97798W        W64339  38.767   3.342  13.364
97799W        W64340  23.075  30.713  11.418
97800W        W64341   7.310   3.895  13.678
97801W        W64342  27.047  17.484  14.974
97802W        W64343  23.483  35.606  12.474
97803W        W64344  13.892   3.801   4.135
97804W        W64345  27.517   2.289   2.346
97805W        W64346  13.322   4.055  14.708
97806W        W64347  27.946  15.287   2.503
97807W        W64348  19.464  35.622   4.579
97808W        W64349  22.579  18.190   1.397
97809W        W64350  29.967   2.019   1.799
97810W        W64351  28.411  11.905   3.221
97811W        W64352  32.028   7.560  11.732
97812W        W64353   2.331   6.689   4.965
97813W        W64354   0.066  40.690   1.382
97814W        W64355  22.798  36.992   3.601
97815W        W64356  42.818  35.731  12.705
97816W        W64357  25.149  38.098   4.159
97817W        W64358   7.714  17.724  12.457
97818W        W64359  10.122  38.293  13.826
97819W        W64360  44.911  18.786   3.662
97820W        W64361  11.820   1.227  11.291
97821W        W64362  27.402  40.871  11.096
97822W        W64363   3.272  13.201  11.276
97823W        W64364  26.533  25.761  12.003
97824W        W64365  36.105  21.147  14.784
97825W        W64366  19.552  39.874   3.357
97826W        W64367  27.638   0.811   4.350
97827W        W64368  36.389  43.928  12.247
97828W        W64369  13.452  10.231   3.242
97829W        W64370  37.404  31.961   4.267
97830W        W64371  20.508  14.069  12.531
97831W        W64372  39.805  42.844   2.912
97832W        W64373   2.909  11.332   0.325
97833W        W64374  32.170  32.712  11.999
97834W        W64375   6.720  16.099  14.901
97835W        W64376  32.306  10.891   1.963
97836W        W64377  22.798   6.732   3.293
97837W        W64378   0.184  27.394   0.215
97838W        W64379  28.094  33.107   1.834
97839W        W64380  32.593  39.391  12.091
97840W        W64381  38.937   2.999   0.326
97841W        W64382   4.894   2.092   2.730
97842W        W64383   1.286  10.275  12.884
97843W        W64384  30.149  20.594  10.781
97844W        W64385  11.883  41.764   4.102
97845W        W64386  19.853  20.099   4.669
97846W        W64387  27.663  43.189   3.747
97847W        W64388  18.760  11.421  12.579
97848W        W64389   4.333   7.801   1.153
97849W        W64390   4.854  44.673   4.169
97850W        W64391   9.550  12.110  12.176
97851W        W64392  28.868  23.440  12.766
97852W        W64393  11.872  26.127  11.537
97853W        W64394  35.541  14.876   0.082
97854W        W64395  34.069  44.289   3.909
97855W        W64396  18.220  30.753   5.111
97856W        W64397  32.067   4.477  14.900
97857W        W64398  43.047   9.251  10.676
97858W        W64399   1.896  17.289  12.937
97859W        W64400  40.944   4.862   2.258
97860W        W64401   7.700  11.210   0.332
97861W        W64402   1.503  20.100  14.022
97862W        W64403  26.143  28.876   1.442
97863W        W64404  15.872  43.943  10.361
97864W        W64405  42.972  30.323   3.220
97865W        W64406  13.465  12.614  12.115
97866W        W64407   8.627  37.694  13.241
97867W        W64408  14.766  12.408   4.111
97868W        W64409  16.032   0.846  12.584
97869W        W64410   2.060  16.612  13.869
97870W        W64411  12.662   3.175  13.439
97871W        W64412  29.761  32.115   2.037
97872W        W64413   1.233  44.441  13.747
97873W        W64414  30.840  43.815  11.281
97874W        W64415   1.168  10.235  10.940
97875W        W64416  30.505  24.511   3.365
97876W        W64417   2.994  12.045   3.013
97877W        W64418  43.437  12.699  12.237
97878W        W64419   1.602  21.551   0.342
97879W        W64420  10.970  26.525  13.135
97880W        W64421   7.821  26.621  14.125
97881W        W64422  15.042  20.799   4.056
97882W        W64423  26.566  12.839   2.464
97883W        W64424  29.230  15.249  14.821
97884W        W64425  42.413  36.222   3.616
97885W        W64426  41.954  38.070   2.657
97886W        W64427  26.988  20.779   5.005
97887W        W64428   1.316   0.181  12.954
97888W        W64429  17.325  25.618   2.242
97889W        W64430   9.094  23.908  13.796
97890W        W64431   8.866  35.447   0.355
97891W        W64432   6.200   8.808   2.320
97892W        W64433   2.370  35.466  13.572
97893W        W64434  31.089  14.768   9.745
97894W        W64435  17.708  17.546  11.030
97895W        W64436  34.343  36.665  11.577
97896W        W64437  42.498  11.529   4.551
97897W        W64438   9.943  42.998   1.638
97898W        W64439  24.650  30.891  12.975
97899W        W64440  43.939  37.500  12.595
97900W        W64441   3.597  23.101  10.993
97901W        W64442  35.241  10.487  12.065
97902W        W64443  20.760  21.464   0.480
97903W        W64444  20.209  32.885   4.635
97904W        W64445  43.876   2.506   1.835
97905W        W64446   0.524  16.565  12.973
97906W        W64447  16.732   5.710  11.908
97907W        W64448  42.397   1.805   3.570
97908W        W64449  34.669   2.802   9.880
97909W        W64450   5.753  29.473   1.363
97910W        W64451   6.662   8.819   3.060
97911W        W64452  41.399  30.842  10.670
97912W        W64453  10.915  26.685  14.008
97913W        W64454  19.518  30.265   3.093
97914W        W64455  23.202  37.600   1.051
97915W        W64456  42.769  33.109  11.407
97916W        W64457  24.639   3.563  12.128
97917W        W64458   7.952   2.785   4.014
97918W        W64459  19.137   3.675   0.762
97919W        W64460  33.916  11.839   0.179
97920W        W64461  27.223  23.083  12.603
97921W        W64462  20.221  38.393  12.733
97922W        W64463   5.653  44.204   3.246
97923W        W64464   5.588  41.715  11.955
97924W        W64465  21.686  18.736   0.264
97925W        W64466  39.121   3.708  11.490
97926W        W64467  35.009  28.963  12.279
97927W        W64468  32.580  26.080  13.886
97928W        W64469  37.822  40.299  14.918
97929W        W64470  23.827  43.486   4.568
97930W        W64471  16.046  23.503   4.352
97931W        W64472   0.760  13.102   1.701
97932W        W64473  12.868  37.961   0.824
97933W        W64474  21.047  36.941   3.179
97934W        W64475  10.377  38.989   2.738
97935W        W64476  28.960  10.673   0.704
97936W        W64477  30.427  12.572   0.437
97937W        W64478  11.226  11.921  11.154
97938W        W64479  24.409   5.474   3.931
97939W        W64480  27.442  29.977   1.815
97940W        W64481  20.423  33.254  13.997
97941W        W64482  31.846   4.324   1.847
97942W        W64483  43.368   2.830   4.636
97943W        W64484  11.648  16.280  12.481
97944W        W64485  34.807  42.442  13.374
97945W        W64486   9.658  26.362  14.423
97946W        W64487  21.664   2.372   4.730
97947W        W64488  33.051  24.706   3.773
97948W        W64489  41.861  31.759   1.240
97949W        W64490  39.998  44.906   1.843
97950W        W64491   5.410   3.352   2.921
97951W        W64492   6.396  40.953  13.575
97952W        W64493  36.661  21.040  11.590
97953W        W64494  35.677  40.345  12.449
97954W        W64495   3.735   6.194  12.076
97955W        W64496  36.825  15.832  12.491
97956W        W64497  32.114  34.095  14.760
97957W        W64498  13.486  23.659   1.035
97958W        W64499  43.548  18.268  13.766
97959W        W64500  16.183  38.694   3.178
97960W        W64501  30.026  13.256  14.021
97961W        W64502  22.697  30.985  13.540
97962W        W64503  26.684  30.162  11.749
97963W        W64504   2.606  37.013  14.075
97964W        W64505  19.254  11.617  14.680
97965W        W64506  27.398  33.826  13.045
97966W        W64507  30.496   3.233   1.406
97967W        W64508  39.569  22.657   0.933
97968W        W64509  10.610  23.735   2.851
97969W        W64510   3.215   2.205   0.642
97970W        W64511  12.140  22.176   0.686
97971W        W64512  15.176  18.348  10.737
97972W        W64513  14.315  44.059  10.828
97973W        W64514  19.392  21.783  12.899
97974W        W64515   6.708  24.803   2.366
97975W        W64516   3.908  40.135  11.571
97976W        W64517  31.931  10.198  10.439
97977W        W64518  17.687   7.977  13.552
97978W        W64519   0.372  43.900  14.810
97979W        W64520  34.505   7.950   3.155
97980W        W64521  15.334   9.686   0.732
97981W        W64522  38.220  33.913  12.825
97982W        W64523  43.263  44.278  13.051
97983W        W64524  26.117  26.548   4.450
97984W        W64525  32.345  31.480   4.140
97985W        W64526  35.823   8.586  14.423
97986W        W64527  36.407  19.741   0.882
97987W        W64528  23.985  30.991  12.225
97988W        W64529  33.758   7.714  14.243
97989W        W64530  29.067  22.665  10.952
97990W        W64531  24.292   7.883  14.932
97991W        W64532  27.562  32.406  10.661
97992W        W64533  14.338  21.641   0.010
97993W        W64534  28.316  14.871   4.229
97994W        W64535  29.083  18.153   3.582
97995W        W64536   1.959   2.895   3.360
97996W        W64537  18.726  21.557  13.500
97997W        W64538  19.106   3.200  12.442
97998W        W64539  34.077  13.323   2.528
97999W        W64540  11.881   1.924  12.012
98000W        W64541  16.772  22.068  14.265
98001W        W64542   9.378  37.835   0.401
98002W        W64543  41.479  20.988   0.744
98003W        W64544   2.801  13.675   4.168
98004W        W64545  36.296  24.640   3.184
98005W        W64546   1.423  17.177   1.484
98006W        W64547  20.001  35.797  11.205
98007W        W64548  43.240  27.354  13.554
98008W        W64549  20.206  18.053   0.231
98009W        W64550  19.815  18.200  12.022
98010W        W64551  22.282  38.189   4.153
98011W        W64552  21.930   9.688   3.952
98012W        W64553   4.838  13.809  12.573
98013W        W64554  39.875  31.665  10.739
98014W        W64555   2.696  36.619  11.069
98015W        W64556   0.906  36.518  11.238
98016W        W64557   1.781  43.470   1.505
98017W        W64558   3.843  19.969   0.243
98018W        W64559  22.966  40.336   3.035
98019W        W64560  26.753  20.918   4.111
98020W        W64561   7.177  25.724   2.228
98021W        W64562  27.183  31.829  12.548
98022W        W64563  39.314   1.014   4.563
98023W        W64564  44.652  13.566  13.136
98024W        W64565  14.649  33.129   3.226
98025W        W64566  35.894   5.657   1.398
98026W        W64567  38.706  14.929  10.368
98027W        W64568  13.864  24.669   0.876
98028W        W64569   0.319  42.860   4.201
98029W        W64570  16.090  23.824   1.274
98030W        W64571   9.208  38.875  12.896
98031W        W64572  12.626  39.670  12.965
98032W        W64573  30.445  29.273   1.670
98033W        W64574  23.931  34.964  13.796
98034W        W64575   2.690  17.542  11.977
98035W        W64576  39.055  13.464   1.906
98036W        W64577  19.941  27.372   1.468
98037W        W64578  33.597   8.149  10.683
98038W        W64579  26.925  10.385  14.813
98039W        W64580  44.017   9.843   2.780
98040W        W64581  19.484  33.580   2.221
98041W        W64582  43.793  16.686  10.483
98042W        W64583  19.795   4.712  12.542
98043W        W64584  38.467  23.610   2.461
98044W        W64585  37.949  20.479   1.270
98045W        W64586   9.517  21.066  12.838
98046W        W64587  40.504  23.156   0.866
98047W        W64588  21.029  37.489  14.872
98048W        W64589  42.863  44.480  14.693
98049W        W64590  40.791  29.891  11.597
98050W        W64591   4.404  34.402   3.457
98051W        W64592   6.876  12.759  11.600
98052W        W64593   3.019   7.918   0.914
98053W        W64594  43.306  33.369  11.781
98054W        W64595  11.370   6.036   4.876
98055W        W64596  21.283   2.905  14.918
98056W        W64597   7.138  16.602   3.008
98057W        W64598  42.697  26.131   3.651
98058W        W64599  38.527  25.458  12.680
98059W        W64600  16.304   3.905   1.814
98060W        W64601   2.006   5.354   2.696
98061W        W64602   1.762  32.960  13.473
98062W        W64603  44.390  13.366   1.830
98063W        W64604   1.468  38.859  11.747
98064W        W64605  31.070  32.293   4.560
98065W        W64606  20.100  16.783  10.676
98066W        W64607   2.328  42.472   2.644
98067W        W64608  31.190  27.210  14.103
98068W        W64609  35.609  18.297   2.454
98069W        W64610  37.027  17.668   1.748
98070W        W64611  33.871  40.749  12.048
98071W        W64612  21.075  18.610  13.923
98072W        W64613  39.514  16.689  12.913
98073W        W64614  12.546  35.119  11.972
98074W        W64615  42.058  35.832  12.418
98075W        W64616  13.709  38.994   2.887
98076W        W64617   4.299  20.845  13.012
98077W        W64618   4.282  12.649   3.809
98078W        W64619  24.235  25.202   0.794
98079W        W64620  21.656  24.688  11.636
98080W        W64621  40.377  37.186   0.753
98081W        W64622  26.223  29.032   3.265
98082W        W64623   5.667   4.979   3.139
98083W        W64624   4.213   0.726  11.972
98084W        W64625  19.090   3.109   4.275
98085W        W64626   9.114  39.743  12.925
98086W        W64627   3.614  36.487  12.062
98087W        W64628  34.911   0.756  14.409
98088W        W64629  30.148  20.477   4.010
98089W        W64630  12.938   6.359  13.800
98090W        W64631  39.198  35.942   2.215
98091W        W64632  39.844  37.252  14.400
98092W        W64633  40.461   9.207   1.882
98093W        W64634   6.837  19.319   0.718
98094W        W64635  29.493   1.727  12.560
98095W        W64636  18.029  15.978  10.975
98096W        W64637  22.982  31.615  13.838
98097W        W64638  41.863   9.637   4.293
98098W        W64639  17.196  32.196  10.150
98099W        W64640  29.144  39.468   4.468
98100W        W64641   8.361  33.149   2.316
98101W        W64642  12.682  35.805  13.930
98102W        W64643   1.007  10.719   0.389
98103W        W64644  25.232   7.267  10.866
98104W        W64645  36.651  33.061  14.907
98105W        W64646  22.123  19.786   4.607
98106W        W64647  23.006  40.067   2.362
98107W        W64648  35.368   2.013  14.320
98108W        W64649  22.718   0.325  11.238
98109W        W64650   3.530  24.652   1.830
98110W        W64651  43.377  32.300  10.717
98111W        W64652  31.505  14.174   1.235
98112W        W64653   4.351   4.963  13.813
98113W        W64654  16.225   9.920   4.853
98114W        W64655  38.234  11.229  12.334
98115W        W64656  41.793   4.740  10.872
98116W        W64657  37.053  36.905  14.343
98117W        W64658  33.131  32.345  14.474
98118W        W64659  34.284  16.618  11.474
98119W        W64660  40.508  18.120   0.829
98120W        W64661  16.626   2.390  11.551
98121W        W64662  41.267  31.454   2.889
98122W        W64663   1.098  32.924  12.735
98123W        W64664  18.091   3.959   0.925
98124W        W64665  27.368  12.094  14.866
98125W        W64666  20.697   4.045  11.194
98126W        W64667   1.510   4.700  14.939
98127W        W64668  34.033   9.186   3.857
98128W        W64669  26.172  17.863  14.727
98129W        W64670  43.666  25.659   4.652
98130W        W64671  33.386  11.226   2.592
98131W        W64672  35.374  16.714   1.209
98132W        W64673   7.963  10.104   4.911
98133W        W64674  24.601  29.857   4.287
98134W        W64675  32.544  38.490  10.643
98135W        W64676   0.899   5.270  10.671
98136W        W64677   2.157  22.923  14.844
98137W        W64678  10.164  19.127  10.453
98138W        W64679  28.772  30.381   3.102
98139W        W64680  12.261  10.598   4.113
98140W        W64681  20.350  21.780   4.766
98141W        W64682  19.084   8.293   2.823
98142W        W64683  38.839  21.468  13.403
98143W        W64684   3.692  26.907  14.880
98144W        W64685  12.367  25.608  12.055
98145W        W64686  33.049   4.412  13.830
98146W        W64687  24.887  25.039  12.588
98147W        W64688   3.903  31.664  13.932
98148W        W64689  23.589   0.140  11.145
98149W        W64690   2.290  25.785   1.827
98150W        W64691  10.661  23.736  13.423
98151W        W64692   3.847   6.886   0.408
98152W        W64693   0.852  37.995  11.446
98153W        W64694   8.012  43.487   0.396
98154W        W64695  39.080  26.275   5.006
98155W        W64696  31.124  37.748   4.541
98156W        W64697  39.826  24.144   1.378
98157W        W64698  20.670  19.769   2.815
98158W        W64699  23.698  44.287  13.681
98159W        W64700  43.717  15.904  12.911
98160W        W64701   5.008  30.981  14.400
98161W        W64702  12.251  37.505  11.696
98162W        W64703  29.616  26.211  13.092
98163W        W64704  20.165  44.250   2.284
98164W        W64705  27.040  38.411   0.896
98165W        W64706   1.319  21.367  10.358
98166W        W64707   3.059   3.667  10.386
98167W        W64708  28.640  28.487   3.270
98168W        W64709   0.576  43.302  11.724
98169W        W64710   8.672  44.522   5.011
98170W        W64711  14.745   4.674  13.046
98171W        W64712   8.365   1.035   0.749
98172W        W64713  34.509  39.408  11.578
98173W        W64714  31.808  15.458   4.310
98174W        W64715   9.639  23.201  13.911
98175W        W64716  20.820  20.297   5.098
98176W        W64717  33.844   0.279   3.229
98177W        W64718  22.452  34.901   4.100
98178W        W64719   5.777   3.470   3.714
98179W        W64720  20.170  12.474   4.071
98180W        W64721   6.492  39.933   4.842
98181W        W64722  32.964  22.631   1.859
98182W        W64723  20.100  26.964   0.799
98183W        W64724  41.386   8.841  13.038
98184W        W64725  17.535  18.508  11.782
98185W        W64726  19.512  23.945  12.500
98186W        W64727  33.367  27.471  14.001
98187W        W64728  12.399  13.368   0.458
98188W        W64729  24.106  20.202  12.378
98189W        W64730   0.389  24.011   0.799
98190W        W64731  13.859   1.280   1.758
98191W        W64732   4.426  11.789  14.047
98192W        W64733  22.167   7.416   0.825
98193W        W64734   3.751  19.636  13.023
98194W        W64735  27.728  15.495  10.526
98195W        W64736  26.393  34.803   2.288
98196W        W64737   6.984   6.743   1.293
98197W        W64738   6.649  12.192   0.208
98198W        W64739   0.447   2.135   0.301
98199W        W64740   9.319  25.691  13.880
98200W        W64741  12.143  43.003  10.782
98201W        W64742  41.493  15.321   4.612
98202W        W64743  18.121  38.035   2.449
98203W        W64744  37.634  17.034   3.130
98204W        W64745  35.559  35.167   2.224
98205W        W64746  29.564  44.531  13.111
98206W        W64747  25.008  36.379   3.228
98207W        W64748  38.102   8.395   1.523
98208W        W64749  23.570   3.337  10.787
98209W        W64750  32.025   3.939   3.202
98210W        W64751  18.389  35.862   3.701
98211W        W64752  31.724   0.873  10.267
98212W        W64753  21.770  36.505  14.065
98213W        W64754  41.242   3.372  12.482
98214W        W64755  34.457  29.447   0.779
98215W        W64756  21.551   9.326  13.482
98216W        W64757   1.877   7.390   1.839
98217W        W64758  14.465   7.158  11.605
98218W        W64759  14.932  20.914  14.523
98219W        W64760  20.538  32.413  13.008
98220W        W64761  41.354  13.746  11.634
98221W        W64762  34.969  27.140   1.278
98222W        W64763  16.186  23.092   4.052
98223W        W64764  18.661  27.269   1.705
98224W        W64765  31.131  18.968   5.005
98225W        W64766   5.725  40.203  10.394
98226W        W64767  32.094  23.121   4.958
98227W        W64768  29.947  29.338  13.465
98228W        W64769  21.909   3.396  13.576
98229W        W64770   6.380   8.590  14.426
98230W        W64771  20.951  14.533  14.845
98231W        W64772  26.905  14.612  12.053
98232W        W64773  21.101  23.005  13.909
98233W        W64774  23.462  33.719   0.811
98234W        W64775  37.142  34.447  11.416
98235W        W64776  35.907  21.607  11.376
98236W        W64777  29.717  38.121  13.585
98237W        W64778   1.900  26.521   2.696
98238W        W64779   9.563  31.063  12.870
98239W        W64780  29.023  37.116   4.417
98240W        W64781  39.835  35.957  14.887
98241W        W64782  30.794   3.790   4.859
98242W        W64783  19.122  39.093  14.401
98243W        W64784  16.584  35.999  14.707
98244W        W64785  30.162   3.199  11.496
98245W        W64786  21.267  44.258   3.156
98246W        W64787  42.696   9.604  12.957
98247W        W64788  24.201   0.848   4.745
98248W        W64789  29.559  40.354  10.753
98249W        W64790  16.631  42.554  11.142
98250W        W64791  12.753  38.603  14.704
98251W        W64792  43.279  24.456  13.439
98252W        W64793  30.839   1.504  10.381
98253W        W64794  13.513  44.703   1.742
98254W        W64795  38.018  44.993  13.442
98255W        W64796  34.580  19.092  11.654
98256W        W64797  19.974  12.599  11.729
98257W        W64798  29.669  25.427  13.772
98258W        W64799  22.752  16.272   4.123
98259W        W64800  18.198  27.028  10.631
98260W        W64801  15.242  40.692   3.390
98261W        W64802  39.437  34.324   1.320
98262W        W64803  35.059  40.982  12.208
98263W        W64804  30.772  26.099   0.243
98264W        W64805  23.078  12.201  10.803
98265W        W64806   3.291  27.108   2.173
98266W        W64807  22.946  38.789  14.370
98267W        W64808  18.508  20.252   1.251
98268W        W64809  38.302  25.367   0.244
98269W        W64810  24.569  30.472  12.627
98270W        W64811   7.736  11.068   4.096
98271W        W64812  23.420  28.977  11.562
98272W        W64813  38.994  25.435  10.551
98273W        W64814  14.396   0.284  13.287
98274W        W64815  19.307  24.107  13.991
98275W        W64816  26.647  37.416  10.473
98276W        W64817  32.244  29.112   1.487
98277W        W64818  32.043   3.705   0.322
98278W        W64819  11.474  11.049   1.243
98279W        W64820   6.079  35.537   4.817
98280W        W64821   2.250   3.308   0.993
98281W        W64822  13.839  17.964  11.111
98282W        W64823  21.226  18.328   4.077
98283W        W64824  30.288  27.819  12.867
98284W        W64825  13.020  23.748  10.740
98285W        W64826  12.728  11.703   1.448
98286W        W64827  44.027  21.182   4.009
98287W        W64828  13.908  40.964   3.608
98288W        W64829  32.981   2.785   2.729
98289W        W64830  14.659  33.445  14.054
98290W        W64831  19.725   0.376   2.241
98291W        W64832   0.038  38.113   1.721
98292W        W64833  44.347  31.884  10.728
98293W        W64834  42.020  18.532  12.045
98294W        W64835  41.847  40.550   3.321
98295W        W64836  24.073  12.969  12.692
98296W        W64837  23.649  26.615  10.803
98297W        W64838  39.899   5.678   2.864
98298W        W64839  41.745  12.288   2.312
98299W        W64840  20.163   7.214   4.906
98300W        W64841  30.662  31.460  11.679
98301W        W64842   2.262  19.306  11.872
98302W        W64843  44.404   0.434  12.001
98303W        W64844  39.701  20.681   2.783
98304W        W64845  27.956  36.529  12.458
98305W        W64846  13.460  11.601  12.047
98306W        W64847  25.556  42.002  10.706
98307W        W64848  22.274   1.965  10.715
98308W        W64849  14.884  29.899   3.137
98309W        W64850  44.358  16.234   0.469
98310W        W64851   3.202  18.827   2.115
98311W        W64852  41.994   3.436   3.629
98312W        W64853  25.012   3.287   3.444
98313W        W64854  38.014  29.164   1.440
98314W        W64855  40.462  25.628   2.758
98315W        W64856  26.760  15.297  11.990
98316W        W64857   3.850  11.645   1.234
98317W        W64858  18.662  32.811   0.132
98318W        W64859  38.958  13.171   3.112
98319W        W64860  25.201  16.436  12.204
98320W        W64861  16.016   7.784   1.296
98321W        W64862  41.934  19.565  13.918
98322W        W64863  17.627   9.285   4.293
98323W        W64864  24.097  26.163   1.569
98324W        W64865  19.852  13.107  13.107
98325W        W64866  44.640   4.953  13.075
98326W        W64867   4.643  35.988   1.881
98327W        W64868   5.992  26.569  14.416
98328W        W64869  30.747  22.968   4.223
98329W        W64870  28.555   3.834  13.128
98330W        W64871  30.504  29.267   5.073
98331W        W64872  31.640  39.612   0.419
98332W        W64873  41.618  13.813   0.180
98333W        W64874   4.868   6.008  10.237
98334W        W64875   4.637  13.697   3.695
98335W        W64876  23.476   8.819   1.254
98336W        W64877  31.458   4.987  10.515
98337W        W64878  40.126   1.928   4.495
98338W        W64879  37.249  25.619  14.485
98339W        W64880   9.778  16.361   0.425
98340W        W64881  15.327  31.078  14.531
98341W        W64882   7.489  21.327  12.985
98342W        W64883  32.039  22.637  14.599
98343W        W64884  37.197   7.110  12.027
98344W        W64885  18.490  26.659  14.919
98345W        W64886  42.943  28.928   0.719
98346W        W64887  11.662  40.578  12.934
98347W        W64888  12.445  17.719  11.956
98348W        W64889  38.473  43.745   0.427
98349W        W64890  14.328   7.237  10.711
98350W        W64891  33.133   1.769  13.382
98351W        W64892  30.527   9.552  12.037
98352W        W64893  39.525  33.802   1.314
98353W        W64894  17.480   2.166  10.559
98354W        W64895  12.939  39.915   4.492
98355W        W64896  34.454  35.611  12.099
98356W        W64897  17.970  14.811  13.783
98357W        W64898  37.742  33.112  14.390
98358W        W64899  42.472  37.131  12.939
98359W        W64900   7.535  34.041  14.404
98360W        W64901  38.202  21.052   1.907
98361W        W64902  38.818  25.643   3.697
98362W        W64903  33.603  20.913  14.505
98363W        W64904  33.653  33.596  11.934
98364W        W64905   6.881  44.310  11.858
98365W        W64906  20.506  23.791   2.826
98366W        W64907  41.809  24.257   3.199
98367W        W64908   6.631  11.946  12.023
98368W        W64909  39.216  39.427  13.906
98369W        W64910  29.965  44.484   3.401
98370W        W64911  36.264  28.757  12.525
98371W        W64912  17.044  17.988   3.923
98372W        W64913  12.815  23.031   1.339
98373W        W64914  15.257  34.469   3.400
98374W        W64915  19.820   7.849  14.302
98375W        W64916  38.566  33.050   0.303
98376W        W64917  22.160  32.127   0.298
98377W        W64918  11.587  30.401   3.473
98378W        W64919  17.786  20.728   3.194
98379W        W64920  14.833   2.983  12.199
98380W        W64921  25.493  34.704  13.481
98381W        W64922  22.166  43.980  12.947
98382W        W64923   7.386  27.295  13.693
98383W        W64924  34.431  39.854   3.581
98384W        W64925  36.989   2.955  12.307
98385W        W64926  14.277  44.492  13.928
98386W        W64927   3.905  20.070  13.277
98387W        W64928   5.010  18.021  12.212
98388W        W64929  36.806  36.898  14.791
98389W        W64930   6.828  26.697  13.437
98390W        W64931  39.038  28.886  13.149
98391W        W64932  25.368  23.652   1.708
98392W        W64933  16.702  29.891   4.151
98393W        W64934  36.472  11.114  14.403
98394W        W64935  26.465  28.905   3.746
98395W        W64936  31.213  34.524  11.436
98396W        W64937  16.322  26.554  14.041
98397W        W64938  30.850  11.815  10.188
98398W        W64939  37.788  17.087  11.569
98399W        W64940  14.524  28.966   3.259
98400W        W64941  42.472  24.497  10.855
98401W        W64942  21.526  30.694   4.609
98402W        W64943  33.811  38.391  13.477
98403W        W64944   4.284  40.962  10.958
98404W        W64945   0.067  33.410   1.096
98405W        W64946   3.963   3.047   1.246
98406W        W64947  29.511  38.779  14.084
98407W        W64948   9.415  35.997  13.552
98408W        W64949  11.771  38.818  10.613
98409W        W64950   4.488  35.818  13.731
98410W        W64951  31.456  34.766   0.493
98411W        W64952   0.888  25.485   2.188
98412W        W64953  40.390  17.291   1.880
98413W        W64954   5.031   5.642  12.094
98414W        W64955  42.914  24.253  14.927
98415W        W64956  25.090  31.024   2.477
98416W        W64957   0.143  25.032  12.078
98417W        W64958   9.186  27.442  14.971
98418W        W64959  28.621  37.481   3.746
98419W        W64960  43.990  27.231   0.718
98420W        W64961  34.498  24.552   2.924
98421W        W64962  30.503  24.534  13.733
98422W        W64963  37.430  28.795  12.067
98423W        W64964  41.867  39.820  12.818
98424W        W64965  30.967   1.414   2.804
98425W        W64966  14.247   5.199   2.788
98426W        W64967  40.528  10.448   1.789
98427W        W64968  19.025  32.731   3.090
98428W        W64969  19.964  24.810   2.699
98429W        W64970  14.557  26.182   2.320
98430W        W64971  36.931   0.499   2.549
98431W        W64972   3.784  17.145  14.750
98432W        W64973  42.271  18.456  11.091
98433W        W64974   6.726  37.869   0.300
98434W        W64975  29.153  44.334   0.314
98435W        W64976   6.762   1.332  14.364
98436W        W64977  19.738  41.584   2.704
98437W        W64978   8.646  44.999   0.323
98438W        W64979  35.385  36.582  13.939
98439W        W64980  27.193  12.916   3.826
98440W        W64981  25.171  15.013  13.836
98441W        W64982  40.926  41.298   1.453
98442W        W64983  22.045  15.017   0.677
98443W        W64984  31.933   7.872   5.022
98444W        W64985   3.412  39.834  11.552
98445W        W64986  24.169   7.225  14.508
98446W        W64987   2.456   8.199  12.478
98447W        W64988  40.444  11.705   0.555
98448W        W64989  19.598   5.760  10.882
98449W        W64990  44.347  11.110   0.925
98450W        W64991  17.005  20.485   4.560
98451W        W64992   6.386   1.871   3.245
98452W        W64993  11.021  27.367  12.504
98453W        W64994  17.063   4.032  13.864
98454W        W64995  27.510  17.261  14.905
98455W        W64996  27.660  43.765   3.703
98456W        W64997  21.463  41.246  14.855
98457W        W64998  34.464  20.175   4.734
98458W        W64999  11.153  28.766  14.903
98459W        W65000  39.744  14.661  14.900
98460W        W65001  13.276  31.798   0.742
98461W        W65002   7.331  30.920  13.397
98462W        W65003  33.031  18.857   2.780
98463W        W65004  27.045   9.343  11.082
98464W        W65005  30.539  35.886  12.633
98465W        W65006   5.788  35.863   0.897
98466W        W65007  40.943  22.291   2.516
98467W        W65008  43.856   8.353   4.787
98468W        W65009  25.483  43.799   0.280
98469W        W65010  24.139  42.725   4.153
98470W        W65011  20.177   0.689   2.287
98471W        W65012  33.934   0.043   2.633
98472W        W65013  14.752  36.813  14.388
98473W        W65014  17.318  21.260   2.618
98474W        W65015  38.270  26.182   4.654
98475W        W65016   7.370   8.218  13.562
98476W        W65017   8.876  15.876   0.360
98477W        W65018  41.999  16.638  12.509
98478W        W65019  10.207  12.582  11.893
98479W        W65020  21.687   9.710   0.945
98480W        W65021  22.988   7.105  11.104
98481W        W65022  14.360  28.450  14.821
98482W        W65023  15.729   4.481   0.290
98483W        W65024  22.787   7.507   2.747
98484W        W65025  23.274  17.638   2.923
98485W        W65026  39.818  31.847   4.527
98486W        W65027  22.347   8.833   2.102
98487W        W65028  33.584  28.547   4.975
98488W        W65029  43.651   6.089  14.989
98489W        W65030  31.325  11.867   3.230
98490W        W65031  22.165  41.621   4.583
98491W        W65032  38.995  31.415  10.679
98492W        W65033  28.332  32.919   1.406
98493W        W65034  24.516  28.893   1.803
98494W        W65035  43.832  29.880  14.609
98495W        W65036  37.313  33.066  11.084
98496W        W65037  16.451   0.956   0.498
98497W        W65038  35.538   5.262   2.132
98498W        W65039  13.428  37.337  11.445
98499W        W65040  20.248  33.633  10.637
98500W        W65041  15.444  18.283   4.001
98501W        W65042   0.542  29.060  10.744
98502W        W65043   8.152   6.575  11.993
98503W        W65044  13.778   6.845  11.094
98504W        W65045  36.014  36.050  12.515
98505W        W65046   3.229  11.877   4.699
98506W        W65047  37.239  43.285  10.506
98507W        W65048  43.160  44.754   3.699
98508W        W65049  44.816  33.951   2.212
98509W        W65050  32.536   4.267  12.382
98510W        W65051  44.754  35.821  14.461
98511W        W65052  27.991   7.145  11.668
98512W        W65053  23.985  27.741  13.392
98513W        W65054   9.073  12.531  11.615
98514W        W65055  25.423  40.562   0.018
98515W        W65056  11.376  17.752  13.949
98516W        W65057   7.698  18.714   0.876
98517W        W65058  32.943  28.939  11.056
98518W        W65059  31.526  14.420  12.906
98519W        W65060   4.642  37.120  14.694
98520W        W65061  29.601  20.858   4.571
98521W        W65062   0.030  28.880   4.427
98522W        W65063   7.431  38.062  11.198
98523W        W65064  25.333  11.598   2.262
98524W        W65065  17.649  16.259  11.699
98525W        W65066  11.353  25.711  12.032
98526W        W65067  38.399  14.613   3.193
98527W        W65068  11.311  29.356   3.134
98528W        W65069  31.536  15.757   4.643
98529W        W65070  37.362  15.166  14.006
98530W        W65071  25.308  26.625   0.904
98531W        W65072  16.389  15.015   1.295
98532W        W65073   3.263  40.579  12.026
98533W        W65074  40.345  42.102  11.194
98534W        W65075   0.829  10.931   1.919
98535W        W65076   7.462   1.216  11.167
98536W        W65077  17.496  12.611   4.756
98537W        W65078  42.376   2.809  13.965
98538W        W65079   3.303  23.470   2.402
98539W        W65080  37.763  14.585   4.157
98540W        W65081  11.623  44.414  14.987
98541W        W65082  41.888   2.760   2.235
98542W        W65083   1.349   9.368  14.335
98543W        W65084  21.302  28.435  11.262
98544W        W65085  37.559  43.602  14.222
98545W        W65086  29.060  37.332  11.862
98546W        W65087  24.192  38.810   4.950
98547W        W65088  23.136  35.563   3.660
98548W        W65089  26.387  35.447   1.525
98549W        W65090   7.253  17.415  12.330
98550W        W65091   3.159  36.744  12.049
98551W        W65092   5.415   3.526  12.299
98552W        W65093  41.975  26.015  14.517
98553W        W65094  42.930  32.048  12.546
98554W        W65095  27.133  22.646   3.292
98555W        W65096  27.056   5.672  14.328
98556W        W65097  27.719  17.741   2.635
98557W        W65098   6.462   0.533   2.315
98558W        W65099  18.572  42.464   1.430
98559W        W65100   8.166  25.582   0.230
98560W        W65101   0.891   5.432   2.815
98561W        W65102  10.803  19.018  11.193
98562W        W65103  16.390   9.578  11.161
98563W        W65104   3.257  19.858   1.482
98564W        W65105  43.481  30.149  13.836
98565W        W65106  10.867  17.123   3.393
98566W        W65107   7.167  11.247   1.335
98567W        W65108  25.440  10.389   1.828
98568W        W65109  23.198  11.784  14.934
98569W        W65110  17.048   0.945   1.855
98570W        W65111  18.203  44.520  13.522
98571W        W65112  10.510  27.068  11.496
98572W        W65113  27.088  42.003   3.007
98573W        W65114  37.051   8.467  10.686
98574W        W65115  36.885  15.107   1.917
98575W        W65116  41.980  43.369  12.996
98576W        W65117  42.468  12.697   0.769
98577W        W65118  42.767  42.384   2.263
98578W        W65119   4.191  31.675  13.477
98579W        W65120  21.845  24.638  14.780
98580W        W65121   2.873  34.339   2.308
98581W        W65122   7.897  20.165   0.940
98582W        W65123  24.912  32.734  12.513
98583W        W65124  18.835  36.547   1.117
98584W        W65125  30.361  17.251   1.328
98585W        W65126  42.641   9.126   1.763
98586W        W65127  28.873  16.660   0.717
98587W        W65128   1.556  35.828  10.648
98588W        W65129  26.109  33.319   2.832
98589W        W65130   9.169  34.067  11.034
98590W        W65131  15.059  22.657  12.026
98591W        W65132  15.377   5.327  13.458
98592W        W65133  19.733  29.563   3.638
98593W        W65134  33.981  26.976   0.344
98594W        W65135  36.880  10.281  10.826
98595W        W65136  44.492  18.860  11.566
98596W        W65137  43.467  16.755   1.840
98597W        W65138  31.056  40.007  13.028
98598W        W65139  40.588  39.100   3.276
98599W        W65140  44.302  39.359   1.462
98600W        W65141   0.729  10.250  11.193
98601W        W65142  13.901   5.940   0.549
98602W        W65143   0.434  40.320   4.319
98603W        W65144  17.492  24.576   4.113
98604W        W65145  37.011  28.878  10.773
98605W        W65146   9.343  16.494  13.871
98606W        W65147  22.256  30.611   4.221
98607W        W65148  32.905  24.207   1.884
98608W        W65149  44.966  24.764   0.325
98609W        W65150  25.873  12.766   4.617
98610W        W65151  28.726  42.480   1.697
98611W        W65152   5.221  31.020   0.735
98612W        W65153  13.232  24.939   3.040
98613W        W65154  19.900  28.038  14.006
98614W        W65155  34.636  35.495   0.072
98615W        W65156   3.048   6.875  14.484
98616W        W65157   3.539  32.999  13.990
98617W        W65158   7.678  13.845   3.183
98618W        W65159  43.409   2.271   1.837
98619W        W65160  21.662  13.742  14.712
98620W        W65161   9.169   4.370   0.075
98621W        W65162  20.973  21.878  11.100
98622W        W65163  34.509  21.193   0.600
98623W        W65164   4.484  34.560  12.508
98624W        W65165  11.704  23.562  10.134
98625W        W65166  14.719  10.288  11.724
98626W        W65167  43.353  32.947   1.952
98627W        W65168  41.916  20.438   3.415
98628W        W65169  44.430  17.216   0.211
98629W        W65170  19.127  26.976   2.439
98630W        W65171  25.672  27.080  14.404
98631W        W65172  18.654   2.284   3.843
98632W        W65173  10.848  43.038   0.933
98633W        W65174   3.197  23.530   3.284
98634W        W65175  17.915  33.573   5.062
98635W        W65176  28.613   4.942   3.744
98636W        W65177  43.846  10.715   0.028
98637W        W65178  29.970  15.998  12.552
98638W        W65179  23.196  26.969   3.255
98639W        W65180  12.161  36.202  13.925
98640W        W65181  28.769  16.765  14.419
98641W        W65182  18.831  40.992   2.941
98642W        W65183  28.597   6.143   4.171
98643W        W65184  40.997  29.482  13.469
98644W        W65185   6.278  31.014   0.732
98645W        W65186  10.553  13.855   2.252
98646W        W65187  21.564  20.085   4.236
98647W        W65188  26.604   2.836  14.178
98648W        W65189  31.580  39.929   0.812
98649W        W65190  33.103   5.474  11.863
98650W        W65191   3.284  37.315  10.215
98651W        W65192   7.651  15.480   3.612
98652W        W65193   4.458  16.343   3.941
98653W        W65194   9.269  41.381  11.655
98654W        W65195  23.515  32.048   0.536
98655W        W65196  26.596  30.187   1.348
98656W        W65197  24.129  27.945  12.941
98657W        W65198  19.647  29.228   3.184
98658W        W65199  28.551  12.856   1.952
98659W        W65200  31.022  44.486  12.058
98660W        W65201   9.893  44.020   0.012
98661W        W65202   8.717  23.853  12.336
98662W        W65203  13.916  32.669   2.828
98663W        W65204  20.675  41.519   3.668
98664W        W65205  13.532   2.633   0.805
98665W        W65206  11.673  11.703  10.594
98666W        W65207  39.345  38.323  13.513
98667W        W65208  15.037  25.155  14.392
98668W        W65209   0.104  34.258  12.648
98669W        W65210  15.658  11.792   3.180
98670W        W65211  30.944  19.773  10.653
98671W        W65212   1.452  35.353  14.589
98672W        W65213  40.963   1.221  11.241
98673W        W65214   5.925  28.716  12.989
98674W        W65215  27.249  40.325  10.033
98675W        W65216  28.504   1.506  12.339
98676W        W65217   4.355  28.516  14.005
98677W        W65218  40.015  16.646  13.079
98678W        W65219   6.084  30.654  12.667
98679W        W65220  38.000  26.253   3.760
98680W        W65221   6.873   6.524  14.085
98681W        W65222  42.302  10.325   2.331
98682W        W65223   1.478  30.064   0.979
98683W        W65224  38.339  44.281   2.641
98684W        W65225  10.257  43.540   3.237
98685W        W65226   4.621  43.781  14.097
98686W        W65227  39.360  33.129  12.696
98687W        W65228   3.447   9.759   0.313
98688W        W65229  14.634  42.845  13.455
98689W        W65230  39.338  13.330  12.975
98690W        W65231   1.484  20.608  11.679
98691W        W65232  32.451  26.098   4.412
98692W        W65233   4.879  31.389  11.699
98693W        W65234  28.887   2.206   3.932
98694W        W65235  23.908   9.050   5.452
98695W        W65236  16.294  29.208   3.162
98696W        W65237  36.429  32.056  12.647
98697W        W65238  44.509  13.656   2.992
98698W        W65239   9.399   6.502   0.439
98699W        W65240   1.639  33.312  12.867
98700W        W65241   9.866  24.520   1.167
98701W        W65242   6.521  41.024  11.094
98702W        W65243  30.173   4.797  13.343
98703W        W65244  25.533  14.181  12.404
98704W        W65245   6.910   4.690   0.473
98705W        W65246  19.686  24.052   2.266
98706W        W65247  10.915  30.686  14.774
98707W        W65248   7.378   0.792  10.448
98708W        W65249   4.874  29.362   2.255
98709W        W65250  23.727  41.472   0.463
98710W        W65251  40.293  20.605  11.616
98711W        W65252  42.414   7.660  12.086
98712W        W65253   4.266  23.493  11.547
98713W        W65254  16.130  18.506  11.521
98714W        W65255   2.980  43.299  10.542
98715W        W65256   0.709  41.008  12.929
98716W        W65257  12.648  38.121  14.863
98717W        W65258  27.559  21.689   0.256
98718W        W65259  22.192  11.473   3.822
98719W        W65260  27.049   7.534   0.391
98720W        W65261  17.519  35.324  12.822
98721W        W65262  33.188  21.733  12.125
98722W        W65263  14.372  24.899  13.900
98723W        W65264  35.275  35.571   0.334
98724W        W65265   3.230  25.457  13.857
98725W        W65266   0.891   3.344  11.951
98726W        W65267  12.570  21.095  10.611
98727W        W65268  25.578   8.220  11.825
98728W        W65269  33.162  17.672  13.027
98729W        W65270   2.805  33.968   0.955
98730W        W65271   7.881  31.088  12.024
98731W        W65272  15.836  37.976  11.550
98732W        W65273  44.547  42.405  11.329
98733W        W65274  27.630  10.555  12.290
98734W        W65275   2.184  38.582   2.113
98735W        W65276  13.087  11.422  11.677
98736W        W65277  18.791  15.964  11.455
98737W        W65278  42.658  40.956   1.396
98738W        W65279  43.284  10.739  13.754
98739W        W65280  20.695   3.636  12.909
98740W        W65281   2.477  19.064   2.145
98741W        W65282   5.457  35.277  10.780
98742W        W65283  31.806   3.721  13.911
98743W        W65284  19.236  11.626  12.607
98744W        W65285   9.748   4.760   0.433
98745W        W65286   8.853  40.794  14.420
98746W        W65287  34.727  20.647   0.477
98747W        W65288  11.163  21.695  12.579
98748W        W65289   1.337  19.729   4.342
98749W        W65290  14.845  44.686  11.499
98750W        W65291  19.627  43.891   1.718
98751W        W65292  40.977   9.330   4.110
98752W        W65293  10.102  20.668  11.878
98753W        W65294  18.069  38.936   1.243
98754W        W65295  37.516  19.537   2.403
98755W        W65296  21.872  43.497  12.125
98756W        W65297  20.011   4.174   3.320
98757W        W65298  43.398  44.297   4.926
98758W        W65299  22.824  25.696   9.860
98759W        W65300  38.308  43.499   4.680
98760W        W65301   8.866  21.680   4.580
98761W        W65302  29.091   3.275   1.323
98762W        W65303  30.810  19.277  10.576
98763W        W65304  18.538   5.162  14.531
98764W        W65305  42.703  43.209   1.727
98765W        W65306  43.842  43.454   0.515
98766W        W65307  13.325  15.352   3.573
98767W        W65308   5.717  24.861   2.429
98768W        W65309  22.394  29.315   4.019
98769W        W65310  37.668  32.035  10.087
98770W        W65311   7.246  23.077  14.303
98771W        W65312  11.749  23.025  10.861
98772W        W65313  15.581  15.239   3.671
98773W        W65314  25.728  31.017  14.807
98774W        W65315  30.578  16.239   3.302
98775W        W65316  21.704  34.580   1.364
98776W        W65317   5.735  22.712  11.617
98777W        W65318  15.607  20.833  10.234
98778W        W65319  43.482  25.071  10.749
98779W        W65320  44.842  40.403   4.902
98780W        W65321  32.938  31.578   0.610
98781W        W65322  20.135  26.929   3.954
98782W        W65323   8.769  18.796  11.470
98783W        W65324  28.671  23.723   2.445
98784W        W65325  32.467  41.364   1.504
98785W        W65326  44.467  36.842   4.048
98786W        W65327  15.417  32.665  10.064
98787W        W65328  35.754  33.320   2.373
98788W        W65329  36.593  10.278   2.201
98789W        W65330   6.443  28.876  12.511
98790W        W65331  20.210  35.078  10.435
98791W        W65332  39.061   8.751   2.845
98792W        W65333  29.811   7.984   1.372
98793W        W65334  39.043  11.713  14.817
98794W        W65335  29.379  26.334   0.321
98795W        W65336  27.285  34.471   0.149
98796W        W65337  39.222  35.119  11.985
98797W        W65338   1.293  31.737  14.952
98798W        W65339  44.648  38.167  12.094
98799W        W65340  23.585  19.480   4.175
98800W        W65341  23.472  25.132   4.260
98801W        W65342  40.758  24.260  13.441
98802W        W65343  40.576  28.087  12.037
98803W        W65344  17.292  18.716   2.110
98804W        W65345   4.853  39.920  10.432
98805W        W65346  41.773  28.647   1.868
98806W        W65347  13.372  29.451   0.796
98807W        W65348  44.252  17.030   0.936
98808W        W65349   5.794  25.273  14.508
98809W        W65350  38.526   0.935  13.837
98810W        W65351  10.905  37.938   4.407
98811W        W65352  25.221  17.858  13.451
98812W        W65353  12.699   9.895   4.651
98813W        W65354  32.645  11.903   1.874
98814W        W65355  36.640  44.402   3.313
98815W        W65356  39.085  19.037  12.997
98816W        W65357  10.354   1.558  11.451
98817W        W65358  29.878  40.282   5.122
98818W        W65359  36.915  23.782  12.453
98819W        W65360  17.153   5.743   4.080
98820W        W65361   3.301   3.047  11.874
98821W        W65362  38.973  24.618  13.080
98822W        W65363  20.999  16.785   0.426
98823W        W65364  25.860  15.621   2.676
98824W        W65365   6.517  25.394  10.012
98825W        W65366  10.181  44.852  14.281
98826W        W65367  34.334  28.541   4.386
98827W        W65368   0.392  43.751  12.526
98828W        W65369   4.922  29.206  11.173
98829W        W65370  20.136   7.168   0.352
98830W        W65371  43.303  31.554   4.765
98831W        W65372   9.302  28.058   2.219
98832W        W65373   6.814  33.037  11.077
98833W        W65374  36.070  30.343  11.167
98834W        W65375  18.745  11.812  10.517
98835W        W65376  32.927  38.353  10.954
98836W        W65377  15.075  28.227   1.409
98837W        W65378  31.004  15.807  13.780
98838W        W65379  37.889  33.132  13.891
98839W        W65380  31.351  41.338   4.667
98840W        W65381  29.448  33.871  13.797
98841W        W65382  14.309  20.471   2.997
98842W        W65383  40.049  27.529   2.384
98843W        W65384  42.230  43.554   4.940
98844W        W65385  33.797   2.274  12.094
98845W        W65386   2.520  37.347  14.515
98846W        W65387   3.284  22.130  14.105
98847W        W65388  31.700  40.473  13.513
98848W        W65389  30.228   5.669  10.859
98849W        W65390   3.095   2.069  12.189
98850W        W65391  18.162  36.290  14.186
98851W        W65392  41.683  24.227   0.148
98852W        W65393  41.059  14.266   0.871
98853W        W65394  35.949  41.455   4.584
98854W        W65395  17.250  13.525  13.644
98855W        W65396  34.345   7.382   4.025
98856W        W65397  29.856  23.457  12.515
98857W        W65398  12.459  18.948   2.680
98858W        W65399  18.455  37.502  10.260
98859W        W65400  12.861  27.654   1.834
98860W        W65401  27.417  32.642  13.357
98861W        W65402   8.982   1.543   1.369
98862W        W65403  26.741  39.356   4.159
98863W        W65404  17.633  14.829  12.140
98864W        W65405  36.473  11.610   2.922
98865W        W65406  35.005  26.312   4.555
98866W        W65407  30.014  42.474   0.380
98867W        W65408  29.673   6.276  12.688
98868W        W65409  44.991  13.329  11.539
98869W        W65410   3.693  32.031   1.019
98870W        W65411  15.750  36.770  11.072
98871W        W65412   4.390  44.496   4.394
98872W        W65413   5.391  22.057  14.047
98873W        W65414  18.256  10.747   1.237
98874W        W65415  26.512  31.025  11.332
98875W        W65416   2.531   6.899  14.480
98876W        W65417  29.472  35.507   4.083
98877W        W65418   9.727  27.637  11.758
98878W        W65419  19.194  42.943   4.704
98879W        W65420  18.097   7.173  14.471
98880W        W65421   9.476  38.420  14.586
98881W        W65422   2.872  16.712  14.274
98882W        W65423  27.558  16.725  14.189
98883W        W65424   3.754  34.161  11.506
98884W        W65425   1.445   8.175   3.269
98885W        W65426  32.429  18.761   0.844
98886W        W65427  18.313   5.814  11.203
98887W        W65428   6.992  24.768  11.672
98888W        W65429  34.484   4.383   0.929
98889W        W65430  44.763   8.126  12.371
98890W        W65431  37.982  29.003  12.562
98891W        W65432  37.860  13.429   1.475
98892W        W65433  26.443   6.666   0.302
98893W        W65434  14.650  32.513   3.998
98894W        W65435  42.547  43.468  12.908
98895W        W65436  37.789  34.508  10.539
98896W        W65437   5.832  36.309   0.636
98897W        W65438  34.684   2.453   1.890
98898W        W65439  11.788   0.875   4.591
98899W        W65440  18.434  30.498  12.170
98900W        W65441  39.831  11.627   5.348
98901W        W65442   8.435   4.078  13.105
98902W        W65443   9.600  29.353  12.705
98903W        W65444  42.484  20.667   3.267
98904W        W65445  43.084  30.454  13.930
98905W        W65446   3.916  32.667  14.049
98906W        W65447  28.332  36.369  11.629
98907W        W65448   7.777  36.588   1.935
98908W        W65449  42.327  14.809   1.757
98909W        W65450   2.254  26.109  13.864
98910W        W65451  44.845  31.410  14.797
98911W        W65452  31.106  18.294   1.834
98912W        W65453  20.163  24.674   3.264
98913W        W65454   8.267   0.035   1.488
98914W        W65455  34.136  29.135   4.116
98915W        W65456  18.246  33.377  10.142
98916W        W65457   7.268   8.664  13.190
98917W        W65458  17.407  43.548   3.661
98918W        W65459  22.341  40.447  14.807
98919W        W65460  30.642  21.117   3.718
98920W        W65461  20.953  19.313   3.217
98921W        W65462  13.431  37.891   2.350
98922W        W65463  12.041  19.126   2.964
98923W        W65464   6.048  21.071  14.638
98924W        W65465   7.782  24.183   4.524
98925W        W65466  38.273  20.609  14.123
98926W        W65467  35.607  38.811  14.471
98927W        W65468  21.648   6.392  13.932
98928W        W65469  10.795  44.005   1.640
98929W        W65470   9.631  16.843  11.897
98930W        W65471  42.010  22.430  12.511
98931W        W65472  24.139  44.185   2.749
98932W        W65473  30.854   1.880   3.325
98933W        W65474  28.405   3.898  11.729
98934W        W65475  27.763   6.285  13.430
98935W        W65476   7.219  42.468  14.074
98936W        W65477  13.179  42.837   1.535
98937W        W65478  37.530  15.443  13.577
98938W        W65479  33.100  28.687   2.693
98939W        W65480  39.454   8.049   0.506
98940W        W65481  24.373  21.015   4.637
98941W        W65482  36.981  28.676   0.290
98942W        W65483  35.441  37.516   4.338
98943W        W65484   3.599  26.733  13.021
98944W        W65485   2.502   3.344   0.551
98945W        W65486  32.375  17.876   0.490
98946W        W65487  36.127  42.700  14.074
98947W        W65488  17.954  10.786  11.106
98948W        W65489  42.282   2.179  12.250
98949W        W65490  44.546  26.704  11.950
98950W        W65491  19.663  37.320   0.642
98951W        W65492  10.417   0.445   1.796
98952W        W65493  32.468  10.854   1.019
98953W        W65494  10.184  40.521  10.324
98954W        W65495   1.981  39.420  14.066
98955W        W65496  18.509  39.074  11.203
98956W        W65497  29.179   2.599   3.655
98957W        W65498  14.184  38.895   2.602
98958W        W65499  12.186   4.141   4.715
98959W        W65500  35.025  42.903  13.524
98960W        W65501  27.213  10.230  13.479
98961W        W65502  12.316  44.207  13.868
98962W        W65503  23.503  14.502   1.387
98963W        W65504  17.044  32.015   3.128
98964W        W65505  26.255  10.582   2.940
98965W        W65506   4.159  18.712   4.906
98966W        W65507  35.696   5.340  14.341
98967W        W65508  40.468  15.819  10.116
98968W        W65509  22.906  18.655  12.397
98969W        W65510   5.182  33.632  12.135
98970W        W65511   4.426  25.145   2.115
98971W        W65512  23.462  29.575   3.220
98972W        W65513  35.731  14.770   5.158
98973W        W65514   1.372  25.350   2.371
98974W        W65515  42.284  24.131  13.469
98975W        W65516  33.791  23.913   0.308
98976W        W65517  34.763  40.826  10.557
98977W        W65518  17.789  28.447  14.967
98978W        W65519  35.816  17.167  14.443
98979W        W65520   3.694  35.296  13.439
98980W        W65521   1.269  35.352   3.729
98981W        W65522  24.031  19.090  13.537
98982W        W65523   1.537  41.926   0.233
98983W        W65524  36.726  34.560  11.700
98984W        W65525  36.025  19.168   3.261
98985W        W65526  18.842  23.053   2.002
98986W        W65527   3.953  20.106  10.499
98987W        W65528   7.311  19.298   1.430
98988W        W65529  20.916  20.465   1.512
98989W        W65530  38.587  33.335   4.505
98990W        W65531   2.369  30.016   2.278
98991W        W65532  32.428   9.610  12.260
98992W        W65533  33.310  25.658  14.364
98993W        W65534  37.301  37.380  14.512
98994W        W65535  26.550  42.525   3.558
98995W        W65536  43.176  31.491   1.370
98996W        W65537  43.330   6.533  13.612
98997W        W65538  35.038  11.124  13.511
98998W        W65539  23.285  22.564  12.753
98999W        W65540   0.759  37.135   0.927
99000W        W65541   9.109  38.863   3.303
99001W        W65542  21.496   3.973   3.318
99002W        W65543  26.361   1.721  14.344
99003W        W65544   7.696  26.125  13.971
99004W        W65545  12.175   3.043  13.399
99005W        W65546   3.894  35.856   4.374
99006W        W65547  36.841  33.043   4.275
99007W        W65548   4.858   1.266  12.129
99008W        W65549  28.625   1.860  11.449
99009W        W65550   7.272   2.488  14.387
99010W        W65551  39.371  38.781  12.201
99011W        W65552  23.806  39.982  13.178
99012W        W65553  24.391  37.979   4.637
99013W        W65554  23.389   7.166  12.555
99014W        W65555  15.139  41.040   2.426
99015W        W65556  15.124  28.450   2.736
99016W        W65557  29.806  27.089   0.598
99017W        W65558   1.667  37.499  11.212
99018W        W65559  18.150  36.503   0.282
99019W        W65560  31.427  11.087   5.001
99020W        W65561  22.766  20.911   0.414
99021W        W65562  15.322  34.497   1.119
99022W        W65563  37.299  11.641   3.525
99023W        W65564   3.335  10.907  11.183
99024W        W65565  25.769  39.448   3.226
99025W        W65566  20.716  20.928  10.286
99026W        W65567  33.611  40.445   2.191
99027W        W65568  39.497   8.381  10.703
99028W        W65569  38.079  11.754   4.690
99029W        W65570  25.231  21.991  12.423
99030W        W65571  18.175  33.932  13.953
99031W        W65572  20.539   6.917  12.572
99032W        W65573  33.863  27.155  11.285
99033W        W65574  37.013   6.585   4.800
99034W        W65575   1.983  17.559   1.312
99035W        W65576  44.464   8.003   0.263
99036W        W65577   6.773  29.796   1.921
99037W        W65578  14.188  40.304  14.352
99038W        W65579  20.206  16.820   1.226
99039W        W65580   2.578  17.493  10.707
99040W        W65581  13.372   3.863   4.177
99041W        W65582  42.976  21.466  11.878
99042W        W65583  44.371  37.844  12.926
99043W        W65584  26.307  21.059   1.286
99044W        W65585  41.471  34.673   1.312
99045W        W65586   4.251   7.604  13.633
99046W        W65587  32.386   0.851   2.318
99047W        W65588  13.284   2.277  12.705
99048W        W65589  34.588  37.747   1.774
99049W        W65590   8.446  34.573   2.888
99050W        W65591  35.346   0.740  11.300
99051W        W65592  10.416  21.043  11.690
99052W        W65593  42.350   2.530   2.262
99053W        W65594  13.237  16.249   4.626
99054W        W65595  26.427  36.969  10.588
99055W        W65596  25.424  30.559  10.603
99056W        W65597  39.437  24.457   3.650
99057W        W65598  44.220  26.574   4.975
99058W        W65599  21.178  12.643  10.542
99059W        W65600  42.510  17.786  14.468
99060W        W65601   6.358  41.496   1.685
99061W        W65602  25.271   1.044   3.249
99062W        W65603   9.166  38.636  14.979
99063W        W65604  35.576  14.372   4.862
99064W        W65605  39.143  26.650   0.810
99065W        W65606  25.812   5.530  10.273
99066W        W65607  11.279  26.936   0.484
99067W        W65608  13.518  16.055  11.508
99068W        W65609  37.364   4.815  14.069
99069W        W65610   1.416  22.301   0.395
99070W        W65611  41.776  20.151   4.785
99071W        W65612   2.166   7.030  14.100
99072W        W65613  26.127  42.202  14.282
99073W        W65614  34.374  44.196  12.957
99074W        W65615   0.042   8.001  11.257
99075W        W65616  22.574  21.567  11.497
99076W        W65617  18.550  13.450   2.190
99077W        W65618  43.993  39.962   1.931
99078W        W65619  30.948  35.782  12.957
99079W        W65620   6.338  23.639  14.946
99080W        W65621   3.294  24.721  14.395
99081W        W65622  30.601  18.739  12.716
99082W        W65623  38.940   2.446  10.287
99083W        W65624  43.512  25.484  13.345
99084W        W65625  43.438   5.396   3.602
99085W        W65626   6.728  24.569  14.321
99086W        W65627   1.875  36.104  10.954
99087W        W65628  31.049   8.172  14.339
99088W        W65629  15.401  34.557  14.560
99089W        W65630   0.966  27.908  14.115
99090W        W65631   5.266  23.365  14.340
99091W        W65632   4.000  28.638  10.716
99092W        W65633   1.999  30.955  10.084
99093W        W65634  26.330  42.300  12.428
99094W        W65635  35.743   1.262   4.106
99095W        W65636   6.477   8.337  14.874
99096W        W65637  21.383   3.232   4.537
99097W        W65638  44.828   9.640   2.400
99098W        W65639   1.858  22.777   2.228
99099W        W65640  32.424  38.094   1.312
99100W        W65641  36.734   3.630   2.477
99101W        W65642  39.089   6.249   2.298
99102W        W65643  19.702  12.159  13.896
99103W        W65644  18.795   2.187   3.324
99104W        W65645   8.792  19.525   3.776
99105W        W65646   4.898  11.874   1.688
99106W        W65647  14.174  27.903   4.466
99107W        W65648  23.528  13.100   1.752
99108W        W65649  25.151  20.954   3.009
99109W        W65650   7.754  40.530   1.264
99110W        W65651  35.566  18.521  13.242
99111W        W65652  11.117  14.248   0.456
99112W        W65653  39.853  25.975   3.129
99113W        W65654  22.668   7.877   0.256
99114W        W65655   7.147  41.643  10.905
99115W        W65656  27.288  10.126  12.311
99116W        W65657  33.530  17.270  12.904
99117W        W65658  12.487  14.078  12.931
99118W        W65659  10.359  43.034  11.446
99119W        W65660  43.510  37.633  10.225
99120W        W65661   2.187  39.853   1.408
99121W        W65662  15.528  37.404  13.992
99122W        W65663  40.311  36.433   4.184
99123W        W65664  20.785  13.027  10.726
99124W        W65665  23.581  14.101  13.908
99125W        W65666   6.702  29.106  10.436
99126W        W65667  31.328   8.965  13.515
99127W        W65668  13.269  42.736  11.708
99128W        W65669  19.806  19.661   4.404
99129W        W65670  44.859  43.248  12.953
99130W        W65671  37.813  17.245  12.368
99131W        W65672  28.196  32.175   5.094
99132W        W65673  42.289  11.120  12.367
99133W        W65674  25.768   1.414   4.125
99134W        W65675  18.936   2.330  14.714
99135W        W65676  34.491  35.860   2.840
99136W        W65677   3.341  33.859  11.632
99137W        W65678  11.692  32.447   0.367
99138W        W65679   0.462  24.711   4.127
99139W        W65680  21.213  15.383   4.222
99140W        W65681  43.007  24.723   2.396
99141W        W65682   0.561  30.195  12.944
99142W        W65683  22.578  30.041  11.952
99143W        W65684  24.944   8.734   1.389
99144W        W65685   2.736  20.676   0.834
99145W        W65686  30.776  41.577   2.708
99146W        W65687  10.110   8.778   1.377
99147W        W65688  17.429  12.567   2.176
99148W        W65689  13.723  10.752  10.449
99149W        W65690  21.726  20.352   4.678
99150W        W65691  24.007  18.747   0.859
99151W        W65692  32.982  11.156   2.184
99152W        W65693  32.821  40.952  13.297
99153W        W65694  29.895   8.551  11.562
99154W        W65695   7.919   3.210  14.687
99155W        W65696   3.596  23.339   1.333
99156W        W65697   4.273   0.463   4.094
99157W        W65698  16.795   1.181   2.790
99158W        W65699  41.022  40.403  12.729
99159W        W65700  44.221  44.245  14.936
99160W        W65701  21.592  27.927   3.003
99161W        W65702  32.120  35.767  11.622
99162W        W65703  25.671   8.641  14.909
99163W        W65704  27.146  34.838   0.964
99164W        W65705   3.659  14.208   0.684
99165W        W65706   2.770  27.718  11.153
99166W        W65707  14.104  21.994  12.468
99167W        W65708  23.004   2.341  11.456
99168W        W65709  18.819  28.564  12.443
99169W        W65710  26.639  27.012  10.757
99170W        W65711  23.733  19.069   3.868
99171W        W65712  36.806   5.659   1.452
99172W        W65713  44.325  22.670  11.064
99173W        W65714  20.340  40.300  11.566
99174W        W65715  31.203  36.861  10.735
99175W        W65716  37.595  14.673  12.687
99176W        W65717  11.297   0.847   4.403
99177W        W65718  24.252   2.740  11.152
99178W        W65719   5.531  36.484  11.586
99179W        W65720  20.974   1.796  14.465
99180W        W65721  24.190  17.785  12.592
99181W        W65722  33.893  44.072   1.681
99182W        W65723  28.126   6.807   0.753
99183W        W65724  13.435   0.158  13.367
99184W        W65725  28.187  28.701  11.563
99185W        W65726  39.245  18.232   1.379
99186W        W65727   1.244  41.846  11.131
99187W        W65728  41.871  27.809   3.206
99188W        W65729  42.606   6.247  11.596
99189W        W65730  34.296  15.252   0.601
99190W        W65731   5.368  32.439   2.850
99191W        W65732  12.100  29.129   2.485
99192W        W65733   4.158  27.680  12.467
99193W        W65734   1.103  18.589  13.958
99194W        W65735   5.945   2.479   1.890
99195W        W65736  13.364  40.943  12.961
99196W        W65737   7.163  34.281  13.093
99197W        W65738  15.080  40.275  14.238
99198W        W65739  28.588  16.720  12.257
99199W        W65740  17.328  22.251   0.394
99200W        W65741  36.170  22.069  12.174
99201W        W65742  17.276  15.858  14.280
99202W        W65743  28.382  42.745   4.313
99203W        W65744  22.199  23.919   4.826
99204W        W65745  18.287  27.555   1.239
99205W        W65746   5.743  26.448   3.207
99206W        W65747   4.185  17.326  12.941
99207W        W65748  44.908  30.393   1.392
99208W        W65749   0.755  44.668   4.159
99209W        W65750  25.147  44.516   3.236
99210W        W65751  12.063  28.273   3.642
99211W        W65752   4.766  22.134  14.020
99212W        W65753  38.384   5.224   0.875
99213W        W65754  21.051  41.030   0.713
99214W        W65755  15.419   4.389   3.593
99215W        W65756  31.436  12.997  11.198
99216W        W65757  33.750  43.444  13.068
99217W        W65758  39.333  40.854  14.424
99218W        W65759   4.181  33.195  12.516
99219W        W65760  33.143  33.036   0.461
99220W        W65761   0.011  34.883   2.243
99221W        W65762   1.523  19.780  12.218
99222W        W65763  16.463  43.876   3.559
99223W        W65764   7.934  22.575   5.419
99224W        W65765  43.343  33.766  10.863
99225W        W65766  19.746  33.116   4.776
99226W        W65767  14.350  41.767   0.472
99227W        W65768   9.081  17.348   4.400
99228W        W65769  22.495   2.723   1.375
99229W        W65770  27.127  19.218  10.972
99230W        W65771   8.275  43.799  12.426
99231W        W65772  32.573  13.744  14.928
99232W        W65773   8.604  10.841   2.667
99233W        W65774   0.875   0.948  11.378
99234W        W65775  11.158  38.040  14.738
99235W        W65776  12.496  16.707   0.294
99236W        W65777  39.931  43.482   4.066
99237W        W65778  40.006   0.136   2.841
99238W        W65779   4.000  15.642  11.666
99239W        W65780  32.073  30.398   1.885
99240W        W65781  13.410   6.140  12.880
99241W        W65782  25.193   0.507  13.925
99242W        W65783  42.012   6.046   0.883
99243W        W65784  13.341  32.396  12.765
99244W        W65785  28.084  43.312   3.215
99245W        W65786   5.167  20.652  13.302
99246W        W65787  23.541  44.295   2.636
99247W        W65788  16.136  37.962  13.798
99248W        W65789   3.802  29.650   0.534
99249W        W65790  25.063  20.062  14.380
99250W        W65791  44.054  38.491   4.186
99251W        W65792  22.376  38.911  12.498
99252W        W65793  18.725  43.884   0.417
99253W        W65794   1.474  37.084  11.954
99254W        W65795  22.110   5.701   3.500
99255W        W65796  32.114  12.250  11.601
99256W        W65797  20.200  33.334  12.069
99257W        W65798  38.273  16.534   0.233
99258W        W65799  28.702  42.095   3.105
99259W        W65800  16.827  22.269   0.672
99260W        W65801  38.536   4.142  14.964
99261W        W65802  25.700  44.453   0.972
99262W        W65803  10.441  15.876   4.215
99263W        W65804  11.787   3.279   3.635
99264W        W65805   9.431  36.268  11.949
99265W        W65806  13.839  21.527  10.686
99266W        W65807  23.181   7.382   1.186
99267W        W65808  43.451   5.029  11.274
99268W        W65809  17.710  13.660   3.921
99269W        W65810  44.687  19.263   2.700
99270W        W65811   0.434  18.339   4.332
99271W        W65812  20.609  39.114  13.834
99272W        W65813   7.584   8.820   2.810
99273W        W65814  37.449  12.663  10.849
99274W        W65815  32.091  39.860  11.574
99275W        W65816  37.616  24.034   3.364
99276W        W65817  18.596  16.215   0.096
99277W        W65818  36.224  28.003   1.711
99278W        W65819  31.165  35.906  13.447
99279W        W65820  19.148   5.570  11.684
99280W        W65821   6.200  29.147   2.352
99281W        W65822  27.397  10.931  12.620
99282W        W65823  43.276  31.521   3.333
99283W        W65824  31.605   0.824  13.433
99284W        W65825  32.408  31.529   1.344
99285W        W65826   5.807  17.932  11.044
99286W        W65827  20.182  28.232   4.486
99287W        W65828   1.403  22.484   4.275
99288W        W65829  19.147   7.367   1.867
99289W        W65830  40.417   6.182  12.461
99290W        W65831  33.602  41.448  12.996
99291W        W65832   6.622  26.558   2.040
99292W        W65833  34.302  12.105   3.701
99293W        W65834  32.491  41.200   2.437
99294W        W65835  26.781  43.324   2.749
99295W        W65836  39.821  36.870  14.951
99296W        W65837  20.379  42.334   3.634
99297W        W65838  16.602   3.198   2.604
99298W        W65839  25.616  16.677  14.444
99299W        W65840  12.389   0.828   0.026
99300W        W65841  25.035  10.215   0.638
99301W        W65842  39.296  10.655   2.853
99302W        W65843  39.095  30.569   4.005
99303W        W65844  14.267   1.164   3.057
99304W        W65845  25.340  41.005  13.334
99305W        W65846  41.778  27.204  11.093
99306W        W65847   5.047  29.454   4.722
99307W        W65848  13.707  13.575   2.039
99308W        W65849  18.884  35.317  13.873
99309W        W65850  32.445   5.545   3.784
99310W        W65851  18.515  15.230   3.189
99311W        W65852  34.718  13.587   1.961
99312W        W65853  25.438   7.645   1.094
99313W        W65854  11.319   5.009   2.901
99314W        W65855   2.786  28.160  12.434
99315W        W65856  16.512  38.202  14.702
99316W        W65857  41.871  15.264   3.820
99317W        W65858   4.313   8.737  12.045
99318W        W65859  25.758   8.560   4.100
99319W        W65860  35.897  28.613  13.472
99320W        W65861  41.708  33.142  12.078
99321W        W65862   6.217  13.737   1.624
99322W        W65863  12.861  25.990  13.604
99323W        W65864  19.134  23.770  13.035
99324W        W65865  33.053   5.080   0.406
99325W        W65866  16.712  25.595  12.575
99326W        W65867  21.268   3.511   0.848
99327W        W65868  16.235   0.775   4.413
99328W        W65869  10.103   6.444   0.132
99329W        W65870  44.452  33.143  11.126
99330W        W65871   3.733   4.554  12.817
99331W        W65872  40.424  35.673  12.949
99332W        W65873   9.607   8.823   5.029
99333W        W65874  36.764   4.977   0.903
99334W        W65875  37.482  31.873   0.815
99335W        W65876  21.588   8.898   2.822
99336W        W65877  30.933  33.255  14.780
99337W        W65878  22.430  33.533   1.886
99338W        W65879   9.746   6.447  13.777
99339W        W65880  28.541  20.468   3.641
99340W        W65881  33.490   5.154  13.003
99341W        W65882  12.065  24.665   2.301
99342W        W65883  25.421  12.534   4.636
99343W        W65884  29.361  38.376   1.687
99344W        W65885  39.370  23.098  11.991
99345W        W65886  16.240  34.765  11.534
99346W        W65887  24.052   1.252   0.248
99347W        W65888  18.056   0.966   4.128
99348W        W65889  12.310  12.166   0.901
99349W        W65890   7.175   9.494   3.205
99350W        W65891  35.896   1.950  13.575
99351W        W65892  14.394  22.490  11.107
99352W        W65893  17.109  38.070   2.646
99353W        W65894  10.929   3.434  14.866
99354W        W65895  14.175  33.876  12.904
99355W        W65896  44.259  41.746  11.406
99356W        W65897  13.405   8.691  14.685
99357W        W65898  37.803  35.829   4.344
99358W        W65899  18.269   1.818  12.183
99359W        W65900  23.094  40.969  13.829
99360W        W65901   7.373  44.087   2.187
99361W        W65902  40.030  44.236   2.504
99362W        W65903   9.721   5.688  12.935
99363W        W65904  28.193  39.956  11.109
99364W        W65905  44.175  30.262   0.917
99365W        W65906  22.345   5.238  13.103
99366W        W65907  21.152  32.984  10.209
99367W        W65908  35.134  21.318   2.320
99368W        W65909  43.875  20.273   0.836
99369W        W65910   8.836   7.580   1.785
99370W        W65911  21.512  25.996  13.850
99371W        W65912  34.845  42.182   4.094
99372W        W65913  38.937   3.535  13.808
99373W        W65914   8.248  25.427  11.014
99374W        W65915  44.781   3.298  10.572
99375W        W65916  39.151  19.466   4.136
99376W        W65917  31.065   0.659   3.563
99377W        W65918  35.355  28.731  14.749
99378W        W65919  25.516   6.707  11.522
99379W        W65920  34.658  41.313  14.897
99380W        W65921  38.283  10.710  14.867
99381W        W65922  39.489   7.440  14.497
99382W        W65923  42.568  11.214  13.442
99383W        W65924  15.711  15.702  10.918
99384W        W65925  34.345  24.198  11.673
99385W        W65926  17.564  41.906   1.018
99386W        W65927   0.345  29.072  12.605
99387W        W65928  40.981  33.539   4.065
99388W        W65929  25.677   2.130   4.378
99389W        W65930  38.020  27.703  11.824
99390W        W65931   5.187  24.397  11.533
99391W        W65932  23.583  23.732   0.870
99392W        W65933  16.788   3.258  14.056
99393W        W65934  20.526  24.178  10.800
99394W        W65935  41.806   6.988  14.558
99395W        W65936  30.197  36.341  13.404
99396W        W65937  20.511  17.332  14.042
99397W        W65938   8.703  37.132  11.583
99398W        W65939  26.219  26.377   4.954
99399W        W65940  32.921  24.668   0.019
99400W        W65941  20.019   9.199   0.947
99401W        W65942   0.341  25.016  13.533
99402W        W65943  24.278   3.413   4.106
99403W        W65944  37.169   1.066   3.490
99404W        W65945   1.964  25.524  11.288
99405W        W65946  44.465  16.817   3.426
99406W        W65947   5.916  11.670   4.528
99407W        W65948  18.488  33.000   4.013
99408W        W65949  22.525   4.728   5.476
99409W        W65950  25.249   6.399  10.269
99410W        W65951  18.471  33.960   4.255
99411W        W65952  27.237  30.169  14.991
99412W        W65953   7.204   9.564   4.581
99413W        W65954  44.804  24.904  11.704
99414W        W65955  12.040  31.186  12.813
99415W        W65956  14.305  41.828  11.234
99416W        W65957  13.795  26.212   4.727
99417W        W65958  26.095  31.663   3.708
99418W        W65959  24.254  15.259   2.736
99419W        W65960  28.728   3.366  10.720
99420W        W65961   5.815  37.939  13.609
99421W        W65962  28.507   5.284   2.826
99422W        W65963  36.015  10.787  13.743
99423W        W65964  38.795  31.047   4.106
99424W        W65965  40.773  16.254  10.279
99425W        W65966  21.103   7.995   3.601
99426W        W65967  26.192   8.732  11.480
99427W        W65968   5.662  20.381  12.938
99428W        W65969  23.991  35.212   0.988
99429W        W65970  43.552  42.514   3.708
99430W        W65971  41.760  35.065   4.124
99431W        W65972   1.866  22.676  12.625
99432W        W65973  28.093  34.393  11.613
99433W        W65974  40.778  14.664  14.903
99434W        W65975  41.483  16.152   3.621
99435W        W65976  20.333  30.444   0.339
99436W        W65977  28.426  22.673   2.283
99437W        W65978  25.249  16.605   0.424
99438W        W65979  29.951  40.042   0.419
99439W        W65980  42.529  14.726  14.086
99440W        W65981  33.607  15.190  11.315
99441W        W65982  34.526   2.315   1.129
99442W        W65983  14.451  40.122   0.925
99443W        W65984  12.573  18.006   4.641
99444W        W65985  21.916   7.358   1.269
99445W        W65986  27.555  18.476  11.260
99446W        W65987  13.784  12.946   0.458
99447W        W65988  12.642  44.259  11.174
99448W        W65989  15.922  29.918   4.472
99449W        W65990   9.393  14.283  12.277
99450W        W65991  17.266  29.868  11.539
99451W        W65992  41.077   3.328  13.292
99452W        W65993  20.171   6.223  10.235
99453W        W65994  31.066  30.520   4.271
99454W        W65995   2.738  42.514  11.947
99455W        W65996  13.585  28.207  10.275
99456W        W65997  13.842   4.889  13.295
99457W        W65998  35.181  44.780  14.360
99458W        W65999  23.578  27.927   1.247
99459W        W66000  37.493  44.813   2.195
99460W        W66001  18.227   3.332   3.390
99461W        W66002   5.966  14.178  14.778
99462W        W66003  14.246   3.026   4.599
99463W        W66004  17.992  17.261   2.598
99464W        W66005  35.014  33.965   4.452
99465W        W66006  38.482  23.563  13.338
99466W        W66007   1.363  19.513  11.035
99467W        W66008  25.566   6.397   2.376
99468W        W66009   6.755   8.377  11.925
99469W        W66010  35.510   5.263  10.262
99470W        W66011  11.397  30.886  14.848
99471W        W66012   4.858   7.155   1.950
99472W        W66013  44.394  37.326   3.819
99473W        W66014  19.523  11.677  11.079
99474W        W66015   4.850  23.132   0.892
99475W        W66016  17.953  11.381  10.420
99476W        W66017  19.835  20.654   3.323
99477W        W66018   2.911  14.415   4.433
99478W        W66019   1.750  10.085   3.586
99479W        W66020  37.431  36.530  14.382
99480W        W66021  41.795  42.740   0.007
99481W        W66022   1.357  15.989  13.086
99482W        W66023  41.046  36.410  13.797
99483W        W66024   5.366  31.857   1.269
99484W        W66025  36.744  10.110  12.116
99485W        W66026   7.741  24.946   2.621
99486W        W66027  15.754  20.961  12.489
99487W        W66028  11.395  26.856  14.023
99488W        W66029  11.760   4.282  11.425
99489W        W66030  26.510  24.231   3.711
99490W        W66031  10.801   3.391   3.355
99491W        W66032   5.195  15.304  10.692
99492W        W66033  26.648  27.117   2.120
99493W        W66034  31.006  21.171  13.903
99494W        W66035  21.823   2.238   2.608
99495W        W66036  31.095   9.415   4.889
99496W        W66037  36.312  39.090   3.113
99497W        W66038  34.985   7.835   2.793
99498W        W66039  38.329  36.548  12.564
99499W        W66040  15.692  44.690   3.751
99500W        W66041  26.488  31.753  13.688
99501W        W66042   5.193   2.626  13.915
99502W        W66043  33.560   4.634  13.002
99503W        W66044  35.842  41.762  11.150
99504W        W66045  23.728   9.516   0.444
99505W        W66046  10.173   4.840   4.649
99506W        W66047   4.297  28.031  11.173
99507W        W66048  10.173  34.000  11.145
99508W        W66049  27.260   2.285  11.577
99509W        W66050   6.214  18.682  14.447
99510W        W66051  42.249  29.624   3.244
99511W        W66052  37.667   3.907  13.819
99512W        W66053  40.212  35.201  11.838
99513W        W66054  19.960   6.410   0.754
99514W        W66055  43.420  44.046   0.223
99515W        W66056   5.700  33.897  11.351
99516W        W66057  35.584   0.700  13.991
99517W        W66058  23.041  20.448   1.360
99518W        W66059   7.715  23.615   0.267
99519W        W66060  10.229   6.103  12.379
99520W        W66061  29.266  15.145   3.253
99521W        W66062  41.729  18.129   2.288
99522W        W66063  11.153   5.903   0.759
99523W        W66064  30.018   2.144   0.257
99524W        W66065   6.248  36.124   0.916
99525W        W66066  21.493  42.144   1.489
99526W        W66067   2.001   9.356   3.100
99527W        W66068  16.068   6.404  10.711
99528W        W66069  12.760  40.430   1.326
99529W        W66070  21.820  22.638   1.853
99530W        W66071  22.464  37.091  10.708
99531W        W66072  16.324   7.606   2.249
99532W        W66073  28.408  36.942   1.831
99533W        W66074   7.055   6.264  13.312
99534W        W66075   5.479  40.215  13.024
99535W        W66076  25.959  17.748   3.293
99536W        W66077  43.340  21.856  11.876
99537W        W66078  20.373  34.183  13.940
99538W        W66079  23.562  19.004   0.784
99539W        W66080  12.074  12.914  14.229
99540W        W66081  25.730   8.967  14.526
99541W        W66082  43.112  14.423  11.019
99542W        W66083  19.453  25.142   1.119
99543W        W66084  36.305  35.965  14.765
99544W        W66085  40.327  13.863  11.543
99545W        W66086  31.049   8.218   0.742
99546W        W66087  22.601  31.200   2.180
99547W        W66088  30.304   3.785  14.690
99548W        W66089  33.637  32.590   4.201
99549W        W66090  34.239  34.204  12.492
99550W        W66091  35.855  18.766   1.820
99551W        W66092  14.280  39.477   1.439
99552W        W66093  15.316  24.084  12.980
99553W        W66094  43.474  40.443  11.331
99554W        W66095  16.781  42.294  11.552
99555W        W66096  18.614  21.229   4.104
99556W        W66097   1.749  14.756  10.790
99557W        W66098  13.328  29.837   0.488
99558W        W66099  43.526   7.611  12.830
99559W        W66100  42.705  35.891  13.903
99560W        W66101  13.591  28.081  14.655
99561W        W66102  19.059   8.994   3.355
99562W        W66103  22.971  13.806  11.954
99563W        W66104  43.596   4.558   4.470
99564W        W66105  27.871  44.904   1.268
99565W        W66106  19.164  13.425   4.956
99566W        W66107  43.749  12.062  14.994
99567W        W66108  38.490  22.593   4.210
99568W        W66109  37.496  12.136   1.165
99569W        W66110  29.476  14.529   0.513
99570W        W66111  28.954  18.786  12.506
99571W        W66112  40.858   6.434   1.699
99572W        W66113  20.818  12.192  11.691
99573W        W66114  40.951  29.552   0.221
99574W        W66115  29.379  42.565  12.047
99575W        W66116   7.935   0.818   0.520
99576W        W66117  20.264  11.382  14.750
99577W        W66118   9.757   9.419  10.670
99578W        W66119  15.100  37.069   1.468
99579W        W66120  27.064  23.475   5.016
99580W        W66121  24.753   5.107   0.879
99581W        W66122  23.966  37.058  10.729
99582W        W66123  42.449  44.394   1.017
99583W        W66124   7.476  25.576  13.894
99584W        W66125  24.644  20.250   2.341
99585W        W66126   0.846   8.567   3.279
99586W        W66127  36.907  39.344   2.529
99587W        W66128  29.874  33.845  10.790
99588W        W66129  32.907  44.470  14.843
99589W        W66130   6.326  37.745  13.547
99590W        W66131   1.124   5.876  14.489
99591W        W66132  33.108  36.878   3.143
99592W        W66133  10.172  34.436   4.100
99593W        W66134  20.699  19.136  11.909
99594W        W66135   3.377   8.111   1.718
99595W        W66136   1.384  32.274  14.865
99596W        W66137   3.862   7.880   0.251
99597W        W66138   0.468  39.079  10.417
99598W        W66139  36.031   6.114   2.738
99599W        W66140  19.168  16.389   9.823
99600W        W66141  38.504  41.721   1.641
99601W        W66142   0.686   5.721  10.739
99602W        W66143  27.047  17.449  10.744
99603W        W66144  15.154   8.888   4.783
99604W        W66145  25.995  36.701  13.607
99605W        W66146  44.865  13.156   1.800
99606W        W66147  43.813  14.231   0.238
99607W        W66148  23.674   7.354   4.655
99608W        W66149  16.585  34.937   4.235
99609W        W66150  33.420  29.460  10.536
99610W        W66151  42.177  19.620   2.815
99611W        W66152  34.735   7.277  13.423
99612W        W66153   8.255  19.514  12.522
99613W        W66154  36.059   1.454   0.742
99614W        W66155  11.319  15.289   0.350
99615W        W66156   3.456  10.361  13.912
99616W        W66157  43.755  35.696  12.909
99617W        W66158  32.230  42.381   4.270
99618W        W66159  42.009   2.234  12.988
99619W        W66160  16.836  14.619  11.610
99620W        W66161  20.450   1.436  10.510
99621W        W66162   0.119  24.907   2.257
99622W        W66163  38.618  14.695  13.954
99623W        W66164  12.147  33.109   4.831
99624W        W66165  32.976  15.545   1.664
99625W        W66166   0.938  16.793   3.735
99626W        W66167   4.667   1.812  14.809
99627W        W66168  25.628  36.982  10.370
99628W        W66169  12.608  37.755   4.130
99629W        W66170  21.838  21.175  14.647
99630W        W66171   8.395   0.534   4.160
99631W        W66172   6.066  30.305   1.174
99632W        W66173  15.447  15.409  14.997
99633W        W66174  41.462  14.673  14.012
99634W        W66175  13.334   8.236  13.765
99635W        W66176   4.394  19.583   2.289
99636W        W66177  13.369  40.832   3.622
99637W        W66178  31.651  13.610  13.457
99638W        W66179  16.369  13.765  11.735
99639W        W66180  37.090  21.567  12.571
99640W        W66181  23.494  21.614  13.443
99641W        W66182  39.532  19.733  11.221
99642W        W66183  17.222   6.687   2.525
99643W        W66184  37.505  29.344   1.288
99644W        W66185  16.036  28.471  13.571
99645W        W66186  38.014  24.204  13.865
99646W        W66187  24.070   0.002  12.003
99647W        W66188  30.604  23.954  10.865
99648W        W66189  27.585  14.645   3.686
99649W        W66190  43.000   7.439  14.586
99650W        W66191   8.477  36.558   3.307
99651W        W66192  44.225  18.337  11.020
99652W        W66193  18.350   1.169  10.685
99653W        W66194  24.059  13.971  12.627
99654W        W66195  36.249  31.392  11.981
99655W        W66196  30.002  23.385  13.950
99656W        W66197  23.629   0.972  11.550
99657W        W66198  43.900  28.327  11.420
99658W        W66199  10.640  17.585   1.406
99659W        W66200   2.023   3.153   1.431
99660W        W66201  36.917  30.618   4.662
99661W        W66202  22.104   8.523   0.261
99662W        W66203  43.737  22.246   2.780
99663W        W66204  15.169  27.572   2.138
99664W        W66205  25.654  44.305   0.295
99665W        W66206  20.344  22.245  14.224
99666W        W66207  27.594  37.907  11.853
99667W        W66208  37.360   0.076   3.508
99668W        W66209   3.542   0.909   3.314
99669W        W66210  39.108  12.582  11.573
99670W        W66211  12.980  27.136   0.023
99671W        W66212  16.843   7.602   2.259
99672W        W66213  42.540  13.905  11.673
99673W        W66214   1.372  34.521  14.979
99674W        W66215  17.665  22.130  14.569
99675W        W66216  33.386  39.847   0.941
99676W        W66217  43.513  24.719  14.350
99677W        W66218  26.097  22.647  13.557
99678W        W66219   3.234  22.801  13.316
99679W        W66220  32.702  36.473   4.010
99680W        W66221  27.146  18.748  13.110
99681W        W66222   2.784  28.522  10.204
99682W        W66223  23.796   9.619  14.499
99683W        W66224  35.000  20.018  11.877
99684W        W66225  19.113  17.637   4.135
99685W        W66226   8.445   5.776  14.175
99686W        W66227  20.918  14.335  13.559
99687W        W66228  41.483  18.497  14.711
99688W        W66229   2.222  21.254   2.264
99689W        W66230  28.204  21.523   2.673
99690W        W66231  35.111  44.336  14.066
99691W        W66232   6.040  27.202  13.801
99692W        W66233  19.242  11.897  13.959
99693W        W66234  23.461   4.512   1.829
99694W        W66235  25.467   0.962   4.263
99695W        W66236  19.125  23.258  10.724
99696W        W66237  32.193  13.905   1.697
99697W        W66238   6.858  24.948   0.195
99698W        W66239  34.524  21.623   0.920
99699W        W66240   7.405   8.560  14.673
99700W        W66241  35.662  23.564  14.460
99701W        W66242  36.041  25.467   2.664
99702W        W66243  44.650  25.574   2.684
99703W        W66244   8.699   5.255   2.262
99704W        W66245   9.234  41.994  10.806
99705W        W66246  13.414  19.258  13.443
99706W        W66247  26.976   8.548   0.260
99707W        W66248  21.737  36.393  11.037
99708W        W66249  15.262   7.788  12.923
99709W        W66250   5.810  10.909  13.685
99710W        W66251  19.003  27.256   0.263
99711W        W66252  24.992  24.475   3.638
99712W        W66253  25.634  31.129   0.792
99713W        W66254  25.138  37.038  11.238
99714W        W66255  29.568  29.076  10.507
99715W        W66256  17.028   7.407   4.170
99716W        W66257  13.515  25.999   1.078
99717W        W66258  20.690  15.208   1.710
99718W        W66259  42.507  24.973   1.256
99719W        W66260  21.086  25.971   1.273
99720W        W66261  25.274  20.910   0.379
99721W        W66262  13.789  21.573  11.578
99722W        W66263   5.294  39.411  11.781
99723W        W66264   3.731  30.904  14.516
99724W        W66265   4.938  37.923  10.720
99725W        W66266  29.433  25.678   3.270
99726W        W66267  10.816   0.413  11.859
99727W        W66268  19.157  41.339  14.474
99728W        W66269   5.840  17.207  11.539
99729W        W66270   2.311  24.798   0.877
99730W        W66271  18.049  21.188  11.953
99731W        W66272  13.632  38.950   0.345
99732W        W66273  22.240  38.968   4.219
99733W        W66274   1.274  34.069   4.193
99734W        W66275  34.482   3.138  10.962
99735W        W66276  19.640  38.956   0.054
99736W        W66277   9.098  32.819  14.261
99737W        W66278  29.534  34.612   0.879
99738W        W66279  11.051   7.094   1.788
99739W        W66280  41.953  15.834   2.151
99740W        W66281   8.325   8.466   0.860
99741W        W66282  31.814  10.673   1.656
99742W        W66283  44.055  22.035   3.714
99743W        W66284  16.322  18.155   2.809
99744W        W66285  21.270  15.991  12.011
99745W        W66286  11.678  16.073  11.991
99746W        W66287  26.442  21.639   3.661
99747W        W66288  24.609  11.219  14.910
99748W        W66289   7.866  28.417   1.749
99749W        W66290   0.703  33.165   0.916
99750W        W66291  44.285  22.510   4.926
99751W        W66292  19.290   0.597  11.556
99752W        W66293  26.574  16.208   1.390
99753W        W66294  42.793   4.056   1.667
99754W        W66295  36.249   1.361   0.264
99755W        W66296   7.779   3.322  10.407
99756W        W66297  41.500  21.283  13.963
99757W        W66298  37.629  26.278   3.361
99758W        W66299  43.433  16.178  12.467
99759W        W66300  14.007  13.346   1.633
99760W        W66301   0.706  29.914  10.520
99761W        W66302  35.718   3.288   9.435
99762W        W66303  19.147  28.100  13.526
99763W        W66304   4.470  38.161   2.256
99764W        W66305  37.854  13.869  10.764
99765W        W66306   8.763  44.955  14.348
99766W        W66307   6.353   1.740   2.749
99767W        W66308  44.320  35.636  11.484
99768W        W66309  27.222  36.504   2.266
99769W        W66310  44.767  33.112  14.752
99770W        W66311  42.088   0.490  10.653
99771W        W66312   1.987   8.400   2.169
99772W        W66313  17.237   0.553  14.837
99773W        W66314  34.167  41.123   3.711
99774W        W66315   5.246  39.455  12.322
99775W        W66316   2.069  13.764   2.847
99776W        W66317  35.234  10.259   3.668
99777W        W66318   0.968  11.602  12.365
99778W        W66319  36.263  23.584  11.722
99779W        W66320  29.171  29.438   3.278
99780W        W66321  22.428  44.818  12.907
99781W        W66322  44.970  29.499   0.453
99782W        W66323  36.319  33.633   0.757
99783W        W66324  21.412  38.796   1.593
99784W        W66325  13.157  41.705  11.823
99785W        W66326   5.853   9.727  12.248
99786W        W66327  26.013   9.367   1.860
99787W        W66328  13.009   4.672  12.850
99788W        W66329  15.477  43.237  11.641
99789W        W66330   7.736  11.300  14.820
99790W        W66331  39.300  27.181  13.938
99791W        W66332  34.443  22.139   0.663
99792W        W66333  23.781  15.025   2.785
99793W        W66334  22.070  44.813   0.690
99794W        W66335   7.396   0.863   0.614
99795W        W66336  24.008   8.687  13.092
99796W        W66337   9.398  18.385   1.739
99797W        W66338  21.560  17.640   0.453
99798W        W66339  29.261  13.714  10.157
99799W        W66340  21.327  33.127  14.933
99800W        W66341  30.867  19.629  12.835
99801W        W66342  42.342   4.903   1.323
99802W        W66343   0.203  37.927  12.335
99803W        W66344  41.591  35.216  11.102
99804W        W66345  39.300  35.611  10.621
99805W        W66346  40.812  31.916   2.244
99806W        W66347  14.756  36.565  13.564
99807W        W66348  20.561   9.411  12.041
99808W        W66349  22.142   9.626   3.321
99809W        W66350  13.845   3.955   1.917
99810W        W66351  16.465  14.640  12.606
99811W        W66352  17.207  11.013  13.548
99812W        W66353  15.055  24.512   1.279
99813W        W66354  17.241  16.380  14.332
99814W        W66355  38.283   4.541   3.386
99815W        W66356   4.197   8.729   3.807
99816W        W66357   5.202  42.490  14.822
99817W        W66358  18.644  42.136  12.595
99818W        W66359  30.668  19.719   5.072
99819W        W66360   8.625  31.841  11.591
99820W        W66361  38.859  29.572   2.646
99821W        W66362  36.619  23.207   4.067
99822W        W66363  33.468  21.745   3.163
99823W        W66364  11.646  34.599   0.796
99824W        W66365  34.169  44.663   3.547
99825W        W66366  12.438  21.784   2.188
99826W        W66367  26.095   8.247   1.314
99827W        W66368  27.540  26.569   3.211
99828W        W66369  35.453  29.419   3.971
99829W        W66370  12.814   6.606   3.622
99830W        W66371  41.324  11.352  13.460
99831W        W66372  16.246  21.701  13.383
99832W        W66373  30.625   5.882   4.129
99833W        W66374   8.483  24.118   2.335
99834W        W66375  41.910  17.065  14.008
99835W        W66376   3.435  20.783   0.532
99836W        W66377  22.122  39.470  10.688
99837W        W66378  32.660  18.518   1.280
99838W        W66379  16.595  35.826   4.348
99839W        W66380  29.161  38.924  12.249
99840W        W66381  38.883  18.078   3.283
99841W        W66382  28.467   8.115   0.466
99842W        W66383  13.378  28.573   1.315
99843W        W66384  31.414  12.558   0.905
99844W        W66385  10.587  20.075   4.078
99845W        W66386  38.567  38.059   3.406
99846W        W66387  33.855  27.625  11.557
99847W        W66388   5.679  20.027   3.938
99848W        W66389  21.147  38.186  13.816
99849W        W66390   5.867  12.734   3.168
99850W        W66391  29.973   4.882   1.438
99851W        W66392   3.823  31.676  12.577
99852W        W66393  11.515  15.395  11.474
99853W        W66394  36.967  18.227   3.070
99854W        W66395  34.901  16.160   1.757
99855W        W66396   1.957  20.088  11.095
99856W        W66397  35.146   1.939  13.048
99857W        W66398  38.502  28.283   3.313
99858W        W66399  29.567   2.497  14.543
99859W        W66400  42.871  21.245  10.749
99860W        W66401  36.461  25.071   0.987
99861W        W66402   8.935  29.010  11.573
99862W        W66403  25.981  32.479   4.164
99863W        W66404  44.512   0.723  14.947
99864W        W66405  20.996  29.582  14.532
99865W        W66406  27.284  13.037   2.643
99866W        W66407  42.593  36.452   0.321
99867W        W66408   9.596  41.282  14.401
99868W        W66409  28.415  19.570  11.384
99869W        W66410  13.218  28.408   4.425
99870W        W66411  40.823  35.711   3.931
99871W        W66412   6.965  26.055   3.322
99872W        W66413  15.479   4.730   2.406
99873W        W66414  13.288  22.810   1.410
99874W        W66415   3.363  14.468   0.314
99875W        W66416  26.927  35.118  14.329
99876W        W66417  23.219   1.803   3.200
99877W        W66418   6.890  27.994   5.086
99878W        W66419   6.729  18.048   3.898
99879W        W66420   1.642  32.099  14.042
99880W        W66421  43.514  35.944  14.362
99881W        W66422  42.342  39.466   4.646
99882W        W66423   4.515  12.476  13.563
99883W        W66424  18.805  18.008   4.355
99884W        W66425  34.667  14.291   1.477
99885W        W66426  39.974  15.141   3.282
99886W        W66427   9.163  34.338   0.804
99887W        W66428  14.604  24.927   5.098
99888W        W66429  27.133  20.823  14.294
99889W        W66430  25.664  41.827   0.477
99890W        W66431  11.521  28.385  11.548
99891W        W66432   4.422  27.061   0.062
99892W        W66433  38.945  44.708   4.330
99893W        W66434  25.088  27.064  11.499
99894W        W66435   5.806  34.110  12.385
99895W        W66436  18.010  15.103   3.114
99896W        W66437  27.392  35.738   3.825
99897W        W66438   0.827   6.382  14.538
99898W        W66439  21.998  39.162  13.414
99899W        W66440   2.686  44.861   1.799
99900W        W66441  12.112   0.043   3.777
99901W        W66442  28.450  36.584  10.598
99902W        W66443  39.749  43.337  13.224
99903W        W66444   7.917  27.927  12.582
99904W        W66445  10.280  42.237   3.810
99905W        W66446   6.902   5.779  13.209
99906W        W66447  22.173  29.495  12.877
99907W        W66448  32.427  27.155  13.259
99908W        W66449  16.568  21.585   2.791
99909W        W66450  35.817  19.746  14.831
99910W        W66451  18.053  18.726   4.144
99911W        W66452   4.989  28.318   2.344
99912W        W66453  40.489   1.754   0.296
99913W        W66454  16.335  21.104   2.787
99914W        W66455  28.967   9.843  12.927
99915W        W66456   6.812  12.695  13.823
99916W        W66457  24.908   9.206  12.994
99917W        W66458   8.761  32.919  12.852
99918W        W66459  14.821  32.588   1.669
99919W        W66460  31.391  21.001   1.219
99920W        W66461   1.874  16.460   2.242
99921W        W66462  37.448   1.002   0.685
99922W        W66463  10.207   8.670  13.937
99923W        W66464  34.571  12.923   0.890
99924W        W66465  27.481  16.557   4.093
99925W        W66466  17.048  39.917   4.415
99926W        W66467  23.453  29.676  14.755
99927W        W66468  27.120  38.093  14.174
99928W        W66469   6.417  21.283   2.258
99929W        W66470  14.842  14.019   1.217
99930W        W66471  36.537  12.833  13.585
99931W        W66472  37.977  39.479   1.501
99932W        W66473  18.498  15.272   1.073
99933W        W66474   9.941  42.867  12.651
99934W        W66475  14.141  37.361   3.220
99935W        W66476   8.370  21.220  13.435
99936W        W66477  27.516  19.549   0.386
99937W        W66478  27.038  23.175  13.614
99938W        W66479  14.885  27.530  12.879
99939W        W66480  18.963  30.972   1.433
99940W        W66481  42.443   0.557   3.986
99941W        W66482  15.813  11.156  13.276
99942W        W66483  13.035   3.944  13.363
99943W        W66484  10.380   1.815  12.899
99944W        W66485  21.314  32.105  14.981
99945W        W66486  41.488  21.360  11.350
99946W        W66487  16.724  28.040   0.817
99947W        W66488   9.034  25.300  12.387
99948W        W66489  24.534  18.417  14.237
99949W        W66490  20.272  14.987  11.400
99950W        W66491  22.223  33.834  13.224
99951W        W66492  32.981  39.798  10.799
99952W        W66493  16.733   1.365   4.873
99953W        W66494   8.315  25.096  14.553
99954W        W66495  36.475   9.091   4.653
99955W        W66496  13.878   8.727  14.019
99956W        W66497   6.463  42.375   0.492
99957W        W66498   1.372  23.482   0.784
99958W        W66499   8.541  30.909   1.725
99959W        W66500  31.163  20.483   1.464
99960W        W66501  39.898   1.875   1.858
99961W        W66502  14.111  29.939   5.003
99962W        W66503  14.603  17.326  13.428
99963W        W66504   3.045  44.361   4.301
99964W        W66505   5.237   0.929  12.118
99965W        W66506  27.783  19.382   2.118
99966W        W66507  22.530  26.535  11.143
99967W        W66508  22.258  41.788  11.973
99968W        W66509  35.361  28.074   3.639
99969W        W66510  29.591  11.694  12.173
99970W        W66511  10.115  41.932   1.391
99971W        W66512  20.334  37.539   3.312
99972W        W66513  14.541  10.131   3.079
99973W        W66514   9.871   5.698   0.534
99974W        W66515   0.957  24.566   4.091
99975W        W66516  35.584  32.849  12.541
99976W        W66517   7.742   6.204   0.152
99977W        W66518  42.968  32.059  11.042
99978W        W66519  30.547  13.071   0.407
99979W        W66520  13.391  23.649  14.293
99980W        W66521   0.729  11.856   3.287
99981W        W66522  11.352  16.134  10.725
99982W        W66523   5.683  20.070   0.468
99983W        W66524  44.382  32.578  14.105
99984W        W66525  42.095  16.628  13.048
99985W        W66526   2.151  34.574  10.644
99986W        W66527  10.445  19.751   2.013
99987W        W66528  16.720   7.191  10.993
99988W        W66529  30.041   9.767   3.760
99989W        W66530  35.595  24.629  10.618
99990W        W66531  19.694  23.541   2.332
99991W        W66532  33.246  13.137   3.153
99992W        W66533   1.805  29.331   3.670
99993W        W66534  42.481  34.575   4.367
99994W        W66535  29.933   3.485  13.766
99995W        W66536  43.251  10.170  11.652
99996W        W66537  27.477  38.494   0.613
99997W        W66538  32.376  39.064   3.168
99998W        W66539  28.760  30.733   2.623
99999W        W66540  17.632  23.073  14.535
    0W        W66541  25.022  38.908   4.464
    1W        W66542   0.670   2.011   1.418
    2W        W66543   2.857  18.700   3.408
    3W        W66544  33.705  29.654   4.904
    4W        W66545  44.425  13.853   1.154
    5W        W66546  39.455   0.900  14.772
    6W        W66547  20.219  34.943   4.634
    7W        W66548  41.441  39.883   0.781
    8W        W66549  34.319  32.279  10.999
    9W        W66550  28.575   9.710   4.131
   10W        W66551  27.424   3.453  13.993
   11W        W66552  44.754   2.224  12.509
   12W        W66553  26.717  24.022   0.766
   13W        W66554  22.785   1.670  12.155
   14W        W66555   9.214  26.228   4.567
   15W        W66556  18.262  30.968  14.800
   16W        W66557  22.102  13.282   3.920
   17W        W66558  43.611  44.454  10.695
   18W        W66559  34.957  43.404  13.617
   19W        W66560   7.802   0.979  10.710
   20W        W66561  43.056  14.176   1.890
   21W        W66562  26.648  41.193  10.158
   22W        W66563  44.058  21.901   1.657
   23W        W66564  26.950  19.763  14.127
   24W        W66565   8.843  34.416   3.744
   25W        W66566   2.346  30.145   9.683
   26W        W66567  38.954  23.049   0.287
   27W        W66568  25.890  27.570  13.784
   28W        W66569  24.040  29.713  13.535
   29W        W66570  38.371  28.002  13.898
   30W        W66571  23.695  14.045   2.912
   31W        W66572  27.677  14.303  13.466
   32W        W66573  19.007  16.455   1.146
   33W        W66574   7.758  33.479   4.498
   34W        W66575  17.578  15.755   3.732
   35W        W66576  28.036  26.010   1.500
   36W        W66577   9.937  38.450   4.530
   37W        W66578  39.591  27.047   1.501
   38W        W66579  36.204  20.724  12.820
   39W        W66580  39.545  20.266  10.502
   40W        W66581   3.638   6.663  13.304
   41W        W66582  29.680  42.947  12.267
   42W        W66583  13.381   2.858   2.222
   43W        W66584  43.799   1.423   0.868
   44W        W66585   7.013  19.216  11.150
   45W        W66586   2.810  39.845  13.091
   46W        W66587  43.790  37.630   1.914
   47W        W66588  20.880  44.836   3.521
   48W        W66589  43.780  29.538  13.782
   49W        W66590   4.750  34.618   5.018
   50W        W66591  16.603  40.265  14.087
   51W        W66592   7.721  14.614  13.304
   52W        W66593  38.161  27.532  13.692
   53W        W66594   7.753   4.016   4.656
   54W        W66595  44.425   7.168   0.999
   55W        W66596  40.460  25.419  10.720
   56W        W66597  18.690  29.216   4.113
   57W        W66598  42.713  30.387   2.765
   58W        W66599   6.670   6.054  14.184
   59W        W66600  30.835  22.505   1.971
   60W        W66601  39.098  22.938   2.081
   61W        W66602   4.794   1.964   1.525
   62W        W66603   0.067  44.263   0.977
   63W        W66604  44.437   5.129   2.417
   64W        W66605   3.864  17.497   3.546
   65W        W66606  33.431  29.121   3.232
   66W        W66607  44.951  36.707  12.014
   67W        W66608  38.529  39.785   0.241
   68W        W66609   5.313   4.187   0.353
   69W        W66610   7.115   8.647   4.516
   70W        W66611   4.765  13.383  11.619
   71W        W66612   5.656   7.187  11.170
   72W        W66613   4.780  37.910   0.254
   73W        W66614  35.265  28.833   2.259
   74W        W66615  11.205   4.169   0.776
   75W        W66616  27.090  10.614  11.491
   76W        W66617  32.977  36.393   1.519
   77W        W66618   3.959   4.728   3.129
   78W        W66619  39.349  11.500   4.079
   79W        W66620  12.863  27.084   2.432
   80W        W66621  10.740  19.535   4.161
   81W        W66622  22.462  31.405  13.766
   82W        W66623  18.818  20.784  12.023
   83W        W66624  22.794  31.046  14.510
   84W        W66625  16.162  17.267   1.409
   85W        W66626  12.671  26.441  14.459
   86W        W66627  15.462  10.477   4.511
   87W        W66628  38.302  38.119   0.921
   88W        W66629  32.026  31.306  14.205
   89W        W66630  33.469  22.783  12.939
   90W        W66631  21.240  30.564   2.319
   91W        W66632   9.479   6.865  11.117
   92W        W66633  41.595  25.843   4.512
   93W        W66634  17.842  36.169   4.587
   94W        W66635  23.798  40.564  12.607
   95W        W66636  31.949  35.816  13.048
   96W        W66637  32.604  25.640   3.213
   97W        W66638  35.158   0.827  10.826
   98W        W66639  43.283  21.586   4.577
   99W        W66640   5.874  36.558  10.627
  100W        W66641  24.004   2.964   3.309
  101W        W66642  10.069  17.379  13.713
  102W        W66643  15.392  44.993   1.111
  103W        W66644  24.680  26.883   2.665
  104W        W66645  39.746  36.471   3.623
  105W        W66646  16.306  15.840   1.825
  106W        W66647  34.053  38.995   1.440
  107W        W66648  25.241  11.584  13.915
  108W        W66649  24.266   0.869   2.548
  109W        W66650  21.596  37.523  12.054
  110W        W66651   3.923  41.193  14.456
  111W        W66652   6.817  35.760  14.296
  112W        W66653  36.109  35.027  13.432
  113W        W66654  11.068  44.775  10.708
  114W        W66655  12.751  12.397   4.101
  115W        W66656  10.629   9.743  11.258
  116W        W66657   8.309  13.527   0.084
  117W        W66658   9.493  14.614  13.994
  118W        W66659  19.831  40.757  11.579
  119W        W66660  10.508  23.604  11.963
  120W        W66661   3.531  37.034   3.662
  121W        W66662  35.913  36.049   4.576
  122W        W66663  12.815  15.809   2.690
  123W        W66664   0.318  15.043   4.720
  124W        W66665  35.556  35.599  14.908
  125W        W66666  11.343  13.320  11.827
  126W        W66667  32.116  12.105   1.925
  127W        W66668   8.096   6.404  13.365
  128W        W66669   8.843  33.244   2.717
  129W        W66670  41.152   5.114   4.704
  130W        W66671  38.063  11.720   0.011
  131W        W66672  25.035  22.079  14.505
  132W        W66673  20.295  25.136   5.005
  133W        W66674  10.169   7.871  11.278
  134W        W66675  19.107  44.347   2.275
  135W        W66676  35.101  21.578   0.512
  136W        W66677  36.911   8.222  11.159
  137W        W66678  38.280  38.368  11.598
  138W        W66679  25.198   9.144  12.065
  139W        W66680   4.310  33.474  11.478
  140W        W66681  43.030  44.946  12.070
  141W        W66682   4.555  11.094  11.041
  142W        W66683   5.709  15.647   3.684
  143W        W66684  35.488  23.674  11.139
  144W        W66685   4.517   7.553  12.822
  145W        W66686  16.997  30.997  12.421
  146W        W66687  37.963  14.909  12.376
  147W        W66688  30.352   8.401  13.448
  148W        W66689  13.546  38.377   1.634
  149W        W66690  19.020  31.009   5.004
  150W        W66691  21.251  13.505  14.920
  151W        W66692  37.574  37.007   2.155
  152W        W66693  21.779  28.221  11.217
  153W        W66694  12.178  39.918   4.057
  154W        W66695   0.933   2.465   2.324
  155W        W66696  26.079   0.578   2.257
  156W        W66697  24.252  19.533   2.889
  157W        W66698  14.268  42.765  11.086
  158W        W66699  29.258  16.113  12.270
  159W        W66700  27.903  26.440   2.153
  160W        W66701   0.852   2.922   1.183
  161W        W66702  26.335  42.903  11.635
  162W        W66703  19.156   0.365  13.928
  163W        W66704  28.423  14.973   2.297
  164W        W66705  17.644  30.649  13.335
  165W        W66706  40.599   6.901   1.804
  166W        W66707   4.163  17.965  14.911
  167W        W66708  42.035  28.242  12.883
  168W        W66709  37.184   5.562  13.578
  169W        W66710  39.965  17.865  14.603
  170W        W66711   6.225  39.547  11.397
  171W        W66712  43.709  10.994   4.265
  172W        W66713  32.555   8.111   4.535
  173W        W66714  31.154  36.134  11.595
  174W        W66715  25.828  11.736   3.486
  175W        W66716  32.899  44.410  11.587
  176W        W66717  30.419  37.223   4.943
  177W        W66718  10.215  14.983  14.531
  178W        W66719   9.177  32.108  12.922
  179W        W66720  29.130  27.906   4.191
  180W        W66721   1.785  16.892  11.578
  181W        W66722  28.435  22.146   4.350
  182W        W66723  22.531  21.088  13.914
  183W        W66724  32.175  42.455  14.074
  184W        W66725  10.425  34.054  10.244
  185W        W66726  30.053   6.169  10.886
  186W        W66727  44.317  31.989   5.077
  187W        W66728   5.605  42.716  12.061
  188W        W66729  14.806  25.183   1.936
  189W        W66730  44.950   4.544  12.979
  190W        W66731   7.345  18.545   1.835
  191W        W66732   0.766  26.906  13.912
  192W        W66733   8.543  22.961   3.465
  193W        W66734  21.036  26.126   4.456
  194W        W66735  24.041   7.846   0.888
  195W        W66736   6.131  40.090   2.649
  196W        W66737  28.682  35.336  11.347
  197W        W66738  37.026  15.274   4.161
  198W        W66739   6.729  11.258  13.971
  199W        W66740   4.671  19.727  12.514
  200W        W66741  38.933  37.427   3.171
  201W        W66742   0.301  15.520   0.821
  202W        W66743  30.638  26.088   2.807
  203W        W66744  12.268  18.627   4.862
  204W        W66745  13.101  26.990   3.775
  205W        W66746  40.747  32.472  13.346
  206W        W66747  25.217  29.139   4.195
  207W        W66748   2.395  21.217   1.768
  208W        W66749  30.628  15.079  11.704
  209W        W66750  16.255  31.916  11.864
  210W        W66751  40.906  25.881  11.580
  211W        W66752   3.166   1.353  11.407
  212W        W66753  28.613  26.029  10.598
  213W        W66754   4.405  42.595   2.918
  214W        W66755   8.711  25.301  10.714
  215W        W66756  43.001  40.390  11.598
  216W        W66757  13.168  34.855   1.508
  217W        W66758  11.246  43.764   1.955
  218W        W66759  39.934  33.800   4.762
  219W        W66760  24.164  42.957   5.191
  220W        W66761  28.106  35.776  13.881
  221W        W66762  11.208  10.829   0.696
  222W        W66763  20.020   4.403  11.907
  223W        W66764  20.597   5.591   0.245
  224W        W66765  40.388  31.877  12.467
  225W        W66766   0.752  25.624   4.308
  226W        W66767  32.360  32.432   3.718
  227W        W66768  22.029  42.301  10.698
  228W        W66769   4.744  29.926   0.506
  229W        W66770   0.598  14.249   3.623
  230W        W66771  34.672  44.449   4.640
  231W        W66772  11.287  43.198  12.390
  232W        W66773   4.985  13.814   2.675
  233W        W66774   2.432   5.932  13.486
  234W        W66775   5.659  28.527  11.612
  235W        W66776  17.589   7.299   3.238
  236W        W66777  35.421  29.385   3.349
  237W        W66778  29.906   4.013  14.944
  238W        W66779  30.485  39.183  12.028
  239W        W66780  37.836  19.228   2.108
  240W        W66781   7.610  44.646   4.256
  241W        W66782  35.878  10.088   2.833
  242W        W66783   0.144  32.529   3.982
  243W        W66784   7.190  35.532   2.863
  244W        W66785  40.902  10.204  11.581
  245W        W66786  19.010  11.440   4.480
  246W        W66787   0.772  20.627   0.862
  247W        W66788  43.810  43.311   1.027
  248W        W66789  35.857  37.311   1.841
  249W        W66790  34.840  22.921   3.728
  250W        W66791  11.785   7.982  14.658
  251W        W66792  22.132   7.919   3.773
  252W        W66793  11.096  44.480   3.643
  253W        W66794  21.460  41.291   3.496
  254W        W66795  22.592  31.633  11.240
  255W        W66796  17.155  30.152   0.385
  256W        W66797   9.004  39.509  11.251
  257W        W66798  41.986  11.188  11.156
  258W        W66799  27.178  20.289   3.077
  259W        W66800   0.235   0.740   4.532
  260W        W66801   9.305  22.394  10.852
  261W        W66802  14.035  16.381   4.072
  262W        W66803  11.855  19.631   0.268
  263W        W66804   0.613  19.441   1.711
  264W        W66805  17.107  14.395  13.312
  265W        W66806  41.756  14.770  13.580
  266W        W66807  33.317  42.546  12.466
  267W        W66808  26.529  38.378  13.535
  268W        W66809  16.075  18.588  13.018
  269W        W66810   1.845  41.241   2.341
  270W        W66811  28.144   4.871  14.884
  271W        W66812   8.215  30.663  11.920
  272W        W66813  18.710  42.141   1.955
  273W        W66814  11.055  17.336  14.037
  274W        W66815  19.306  30.614   4.835
  275W        W66816   7.992  14.282  10.443
  276W        W66817  10.898  26.987  13.313
  277W        W66818  21.192   5.586   1.949
  278W        W66819  22.987  42.370  13.879
  279W        W66820   6.287  11.869  11.560
  280W        W66821  10.837  10.582  13.876
  281W        W66822  33.966   4.854   4.777
  282W        W66823  10.400  13.796   4.197
  283W        W66824  16.730  25.635   3.164
  284W        W66825   2.045  41.659   2.893
  285W        W66826  18.015  28.321  12.650
  286W        W66827  37.091  20.408   2.046
  287W        W66828  21.789  12.740   1.230
  288W        W66829  18.092   4.870  14.810
  289W        W66830   1.886  21.746  14.947
  290W        W66831   3.155   5.177   5.452
  291W        W66832  31.607  16.702   2.773
  292W        W66833  11.281  37.786  12.855
  293W        W66834  38.228   5.810  11.323
  294W        W66835  40.141  30.421  13.748
  295W        W66836  20.722  20.038   2.382
  296W        W66837  35.161  12.653  10.643
  297W        W66838  20.101  22.072   0.702
  298W        W66839  11.160   0.504   1.301
  299W        W66840   1.337  28.984  11.771
  300W        W66841  31.408  23.933   0.458
  301W        W66842  41.043   0.917  13.949
  302W        W66843   7.185  41.821   4.575
  303W        W66844  21.711  29.741  12.660
  304W        W66845   9.153   7.123  11.421
  305W        W66846  30.842  42.338   4.275
  306W        W66847  16.081  26.727   4.555
  307W        W66848  26.735  44.396  12.233
  308W        W66849   7.706  31.498   3.827
  309W        W66850  27.785  34.587  12.846
  310W        W66851   0.321  21.669  12.874
  311W        W66852  25.093  31.960  14.393
  312W        W66853  36.058  22.520  10.909
  313W        W66854   2.389  44.973  12.560
  314W        W66855  36.504  40.314   0.734
  315W        W66856   4.687  10.164  12.769
  316W        W66857  25.292  31.740  10.339
  317W        W66858  15.269  44.045  12.602
  318W        W66859  22.538   8.960  14.094
  319W        W66860  44.562   5.409  11.161
  320W        W66861  19.139  39.579   1.158
  321W        W66862  26.930  33.961  13.929
  322W        W66863  23.705  22.475   3.287
  323W        W66864  20.557  12.110  12.541
  324W        W66865  22.674   0.829  11.120
  325W        W66866  31.222   5.051  13.333
  326W        W66867  15.679   9.436  13.833
  327W        W66868  17.192  17.872  10.355
  328W        W66869  15.582  14.239  11.490
  329W        W66870  26.283  16.141   0.951
  330W        W66871  25.526  17.563   3.636
  331W        W66872  14.872  21.975   2.318
  332W        W66873  41.356   6.329   4.324
  333W        W66874  36.599  32.882  10.624
  334W        W66875  42.467  42.362   1.007
  335W        W66876  14.503  11.650   3.734
  336W        W66877  34.837  22.902  12.805
  337W        W66878  26.948   6.626  14.368
  338W        W66879  23.427  34.606  14.308
  339W        W66880  18.013  35.925  13.386
  340W        W66881  16.529  15.422   3.384
  341W        W66882  11.874  16.867   4.275
  342W        W66883  34.400  33.635  13.996
  343W        W66884  21.063   6.809  14.432
  344W        W66885  21.978  24.728  13.956
  345W        W66886  13.307   6.855   3.775
  346W        W66887  13.851  36.018   4.146
  347W        W66888  40.302  21.693  13.365
  348W        W66889  17.136  21.226  13.025
  349W        W66890   9.793  44.897  14.787
  350W        W66891  40.732  33.977  10.986
  351W        W66892  12.075  15.819   2.122
  352W        W66893  42.567  17.334   9.830
  353W        W66894  44.888  14.197  12.425
  354W        W66895  10.303  12.607  13.476
  355W        W66896  23.744  36.067   3.439
  356W        W66897  36.902  30.964   3.207
  357W        W66898  21.843  18.688   2.303
  358W        W66899   3.996   3.550  10.701
  359W        W66900  23.422   9.930   0.503
  360W        W66901  39.084   3.179  11.664
  361W        W66902  14.739  17.729   0.747
  362W        W66903  23.654  33.597   4.785
  363W        W66904  28.389  41.950   2.268
  364W        W66905  26.980  34.768  14.833
  365W        W66906  32.942   9.835   1.726
  366W        W66907  36.340  14.028   4.092
  367W        W66908   0.993   7.386   2.722
  368W        W66909   2.263  40.809  11.363
  369W        W66910  16.766   5.246  11.667
  370W        W66911   6.109   8.324   2.613
  371W        W66912  44.980  42.826   1.243
  372W        W66913  22.304  39.412  12.565
  373W        W66914  35.038  42.346   0.749
  374W        W66915  24.041  14.605   2.558
  375W        W66916  20.061  10.145  13.783
  376W        W66917  32.018  17.319  10.899
  377W        W66918  28.245  42.418   1.897
  378W        W66919  20.213  19.716   0.501
  379W        W66920  22.235  26.907   0.669
  380W        W66921  31.119  31.506  13.972
  381W        W66922   6.839  35.250  12.357
  382W        W66923   5.946  11.668  13.109
  383W        W66924  32.633  13.417  12.303
  384W        W66925   9.735   4.837  10.831
  385W        W66926   1.185  20.268  11.401
  386W        W66927  42.037  35.603   0.453
  387W        W66928  15.298   9.641  11.550
  388W        W66929  19.418  30.072   3.557
  389W        W66930  34.055  11.284  11.228
  390W        W66931  29.879  15.777   0.749
  391W        W66932  24.499  13.800  13.291
  392W        W66933  43.517  41.621  11.001
  393W        W66934  29.362   5.879   3.652
  394W        W66935  32.539  34.149  11.571
  395W        W66936  44.507  34.434  10.609
  396W        W66937  37.624  26.305  13.667
  397W        W66938  22.863  35.424   1.864
  398W        W66939  11.877  33.219   0.969
  399W        W66940  23.294  29.154  14.724
  400W        W66941  40.656  21.611   4.962
  401W        W66942  44.851  28.098  11.524
  402W        W66943   5.175  40.956   2.418
  403W        W66944  39.690  22.176   1.208
  404W        W66945  35.411  24.228  11.729
  405W        W66946   1.825  32.597  11.487
  406W        W66947  18.318  24.598  10.501
  407W        W66948  25.967  30.597   0.006
  408W        W66949  39.546  38.014   1.009
  409W        W66950  20.033  36.853  14.418
  410W        W66951  41.953  12.681   4.014
  411W        W66952  11.381  14.215   1.373
  412W        W66953   0.727  33.132  11.727
  413W        W66954  30.538   1.204  14.961
  414W        W66955  16.176  37.094   1.134
  415W        W66956  32.088  31.623  13.170
  416W        W66957   5.828  30.135  11.103
  417W        W66958  32.536  32.824  13.818
  418W        W66959   6.654   3.332  11.128
  419W        W66960  22.631  15.882   2.871
  420W        W66961  10.055  41.357   2.628
  421W        W66962  25.499  16.119   3.119
  422W        W66963  10.367  26.118   0.943
  423W        W66964  31.229  12.363   0.019
  424W        W66965   0.410  32.980  10.853
  425W        W66966  42.761  10.966   1.478
  426W        W66967  17.144   6.836  14.320
  427W        W66968  25.657   5.029   2.741
  428W        W66969  30.252  37.102  12.047
  429W        W66970  36.520  19.994   3.358
  430W        W66971  18.146   6.179   1.001
  431W        W66972  31.520  10.591   3.727
  432W        W66973   5.659  43.487   1.905
  433W        W66974  26.195  11.689  14.379
  434W        W66975  13.832   5.803  13.120
  435W        W66976  44.308  23.663  10.771
  436W        W66977  41.205   4.407  11.204
  437W        W66978  38.933  14.691   3.210
  438W        W66979   9.188  35.728   1.014
  439W        W66980  33.599  28.758  11.579
  440W        W66981  16.725  44.948  14.446
  441W        W66982  40.208  33.725   3.646
  442W        W66983  12.948  25.703   3.977
  443W        W66984  10.729  26.090  13.026
  444W        W66985  28.410   8.948  11.735
  445W        W66986  33.812  13.147  14.947
  446W        W66987   0.232  17.981   0.756
  447W        W66988  18.839  22.648   0.353
  448W        W66989   5.366  14.572  12.324
  449W        W66990  18.078   2.245  12.886
  450W        W66991  37.041  34.051   2.204
  451W        W66992   6.996  39.573  14.361
  452W        W66993  25.706  14.199   4.618
  453W        W66994   4.078  13.694   4.574
  454W        W66995  20.148  32.909  13.499
  455W        W66996  33.582  31.955  11.544
  456W        W66997  20.928  42.105  12.464
  457W        W66998  14.597  32.495   2.152
  458W        W66999  29.042  37.199   4.969
  459W        W67000   9.815  33.191  11.563
  460W        W67001  39.932   6.641   1.160
  461W        W67002  35.464  22.227   0.448
  462W        W67003   5.782  20.107   3.432
  463W        W67004  32.664  39.251  14.564
  464W        W67005  30.476  20.107  13.413
  465W        W67006   8.864  39.449   2.144
  466W        W67007   2.796  34.843   2.197
  467W        W67008  30.529  32.513  14.738
  468W        W67009  37.855  25.589  13.913
  469W        W67010  15.995   2.928   4.137
  470W        W67011  17.203  12.430   0.485
  471W        W67012  39.497   7.198   0.847
  472W        W67013   6.355  18.494  11.905
  473W        W67014  27.535   4.200   2.085
  474W        W67015  41.519  26.660  12.488
  475W        W67016  36.510  33.450   4.017
  476W        W67017  36.130  21.025   3.616
  477W        W67018   4.771  17.764   1.256
  478W        W67019  34.329   4.577   2.332
  479W        W67020  37.605   3.361   4.136
  480W        W67021  21.087  17.647   5.111
  481W        W67022  26.917  25.219   1.596
  482W        W67023  12.870  23.501   3.338
  483W        W67024   6.844  39.048  12.677
  484W        W67025   8.972  34.811  14.436
  485W        W67026  43.192   5.906   0.160
  486W        W67027  13.673  28.431  14.272
  487W        W67028  29.783  18.503   1.666
  488W        W67029  32.586   0.774  10.674
  489W        W67030  39.315  30.388   1.748
  490W        W67031  36.569   4.705   1.745
  491W        W67032   4.159   0.060   5.166
  492W        W67033   2.652  44.640   0.043
  493W        W67034  20.522  44.147  14.839
  494W        W67035   7.600  10.593   1.884
  495W        W67036  16.867  20.210  10.422
  496W        W67037   1.457  26.087   2.690
  497W        W67038  39.756  16.239  13.939
  498W        W67039   6.805  11.748  13.896
  499W        W67040  29.899  19.679   1.188
  500W        W67041  10.792  33.480  10.755
  501W        W67042  31.036   1.539  11.097
  502W        W67043   8.731  33.946   1.383
  503W        W67044  23.095  21.616   3.879
  504W        W67045  23.142  27.750  12.937
  505W        W67046   2.994  39.332   2.941
  506W        W67047  27.913  41.933  14.689
  507W        W67048   3.333  21.063  14.310
  508W        W67049  44.486  14.887  14.218
  509W        W67050  38.268  11.655   4.222
  510W        W67051   0.948   4.991  11.096
  511W        W67052  26.619  43.781   2.422
  512W        W67053   1.195  41.387   4.091
  513W        W67054  18.053  15.377  13.941
  514W        W67055   2.277  30.228  14.485
  515W        W67056   4.265  28.230  11.631
  516W        W67057  34.762   0.030  12.890
  517W        W67058  10.828  17.097   1.351
  518W        W67059   8.642   2.626   0.952
  519W        W67060  23.527  33.649   2.316
  520W        W67061  11.694  44.934   3.083
  521W        W67062  43.048   4.206  11.502
  522W        W67063  11.699   3.029  10.834
  523W        W67064  18.147  24.610   2.337
  524W        W67065   5.831  29.829   3.385
  525W        W67066  17.990  34.480  12.542
  526W        W67067  31.885  25.675   1.179
  527W        W67068  24.138  26.070   3.103
  528W        W67069  40.452  24.458  10.612
  529W        W67070   9.768  19.762  14.859
  530W        W67071   7.596  23.535  11.201
  531W        W67072   1.637  19.396   0.759
  532W        W67073  39.979  29.589   2.870
  533W        W67074  24.984  24.376  12.045
  534W        W67075  20.671  39.051  13.179
  535W        W67076   2.756  30.896   2.589
  536W        W67077  40.424  37.567  12.990
  537W        W67078  23.139  30.693   1.941
  538W        W67079   7.457  15.739   0.937
  539W        W67080  25.254   5.895   1.618
  540W        W67081   6.247  38.050  12.080
  541W        W67082  26.138   8.425  14.936
  542W        W67083  33.508   7.410   1.781
  543W        W67084  37.060   8.601  14.030
  544W        W67085  37.838  19.364  12.429
  545W        W67086  12.658  31.253  11.644
  546W        W67087   1.225  26.250   3.614
  547W        W67088  23.953   4.719   0.273
  548W        W67089  15.861  13.146  12.072
  549W        W67090  19.097  44.848  13.899
  550W        W67091   2.337   6.290   3.255
  551W        W67092  31.421   6.718  10.904
  552W        W67093  32.527  43.518   4.033
  553W        W67094  31.934  31.628   0.386
  554W        W67095  28.900  39.025  11.815
  555W        W67096  40.188  16.810   1.401
  556W        W67097  27.642  26.208   3.821
  557W        W67098  17.545  11.900   0.872
  558W        W67099  14.955   8.783   1.066
  559W        W67100  36.634  20.511   2.296
  560W        W67101  24.598  12.007  14.361
  561W        W67102  32.626  43.059  14.528
  562W        W67103  30.702   7.665  13.541
  563W        W67104  16.450  13.736   5.217
  564W        W67105  34.151  11.644   4.626
  565W        W67106  41.148  37.282  12.514
  566W        W67107  32.572  44.097  11.872
  567W        W67108  14.780   5.180   4.123
  568W        W67109  14.327  26.382  13.973
  569W        W67110  24.022   5.457  14.887
  570W        W67111   2.447  38.478   0.148
  571W        W67112  11.358  31.239   1.924
  572W        W67113   0.269  34.913  12.632
  573W        W67114  11.667  22.104  10.987
  574W        W67115  18.713  40.707  12.244
  575W        W67116  12.355   4.232   2.874
  576W        W67117  30.991  14.100  11.668
  577W        W67118  41.277  23.973   4.634
  578W        W67119  23.796  31.083   1.305
  579W        W67120  42.481  17.067  11.007
  580W        W67121  43.003  38.979   2.701
  581W        W67122   4.164   4.881  12.814
  582W        W67123   7.765  26.350   0.960
  583W        W67124  40.881  43.368  10.715
  584W        W67125   6.743   2.606  11.541
  585W        W67126  11.246   3.878  13.081
  586W        W67127  44.765  31.539   1.288
  587W        W67128  42.509  38.378   1.606
  588W        W67129  43.290  14.881  13.625
  589W        W67130  29.226  30.206  11.436
  590W        W67131   9.356  16.641   0.382
  591W        W67132  36.847   2.401  12.976
  592W        W67133  40.401  12.349   1.376
  593W        W67134   5.225  35.804   1.707
  594W        W67135  15.452   7.293   0.224
  595W        W67136  42.815  23.769  11.568
  596W        W67137  18.129  10.172   0.437
  597W        W67138  16.670  32.176   0.383
  598W        W67139  40.816   0.918  14.793
  599W        W67140  14.425  20.626   0.809
  600W        W67141  16.368  29.526   0.852
  601W        W67142  33.948  43.446  12.196
  602W        W67143  35.847  12.867   3.167
  603W        W67144  44.495  19.113   3.637
  604W        W67145  41.865  17.261   3.257
  605W        W67146  30.633  18.210  12.016
  606W        W67147  44.863  21.576  14.486
  607W        W67148   1.630  26.235  10.482
  608W        W67149  34.497  29.489   2.014
  609W        W67150  35.825  23.672   3.082
  610W        W67151  36.506  31.390   2.185
  611W        W67152  39.399  12.222  12.477
  612W        W67153  42.003  14.839  11.210
  613W        W67154  20.087   2.648   4.696
  614W        W67155  30.612   8.138  12.859
  615W        W67156  25.325   8.868   2.288
  616W        W67157  38.456  31.007   1.168
  617W        W67158   8.440  31.092  12.100
  618W        W67159  37.596  31.039  13.547
  619W        W67160  20.438  40.987  13.484
  620W        W67161   2.829  44.806  10.631
  621W        W67162  27.581   4.419  12.103
  622W        W67163   7.735  29.930   4.080
  623W        W67164  36.085   3.021  13.280
  624W        W67165  28.883  29.919  11.655
  625W        W67166  40.414  39.151   1.921
  626W        W67167   3.775  23.093   9.993
  627W        W67168  13.889  20.200   0.853
  628W        W67169  15.737  20.098   0.779
  629W        W67170  16.652  24.766  10.537
  630W        W67171   1.869  14.160   3.121
  631W        W67172  21.023  44.280  11.851
  632W        W67173  24.737  21.494  14.004
  633W        W67174   9.187   8.384  14.289
  634W        W67175   3.612  11.132  14.737
  635W        W67176  28.024  20.725   4.745
  636W        W67177  35.998  29.936  12.946
  637W        W67178  19.728  24.770   3.825
  638W        W67179  21.021  11.070  12.114
  639W        W67180  22.537   1.360  14.758
  640W        W67181  25.553  26.915   2.431
  641W        W67182   9.907  43.984   1.914
  642W        W67183  29.969  36.103   0.262
  643W        W67184  35.364  10.724  12.558
  644W        W67185  27.731  12.898   1.984
  645W        W67186  30.680  43.907  10.768
  646W        W67187   9.273  23.662   0.961
  647W        W67188  11.212  17.613   4.653
  648W        W67189  37.818  22.556   4.374
  649W        W67190   8.210  42.577  14.420
  650W        W67191   4.655  15.304  11.585
  651W        W67192  27.616  33.379   4.654
  652W        W67193  13.125   3.378  12.018
  653W        W67194  19.061  37.939  13.350
  654W        W67195  31.280  43.780  11.572
  655W        W67196  15.707  43.246  14.960
  656W        W67197  23.430  21.577   1.529
  657W        W67198  12.114  15.052   1.730
  658W        W67199  19.559  26.124  13.101
  659W        W67200  33.593  24.271   3.193
  660W        W67201  15.703  23.904  12.362
  661W        W67202  16.141  21.768  10.974
  662W        W67203  20.315  14.043   0.414
  663W        W67204   2.400   6.669   1.474
  664W        W67205  19.039  14.756   0.051
  665W        W67206  31.015  21.260   0.336
  666W        W67207  24.493  14.657  12.885
  667W        W67208  17.249  20.734  11.278
  668W        W67209   8.841   8.744  10.484
  669W        W67210  33.504   6.638   3.806
  670W        W67211  33.213  12.826   2.732
  671W        W67212  28.562  11.381   3.188
  672W        W67213  16.601   1.717   1.787
  673W        W67214  31.716  43.791   3.061
  674W        W67215  20.347  37.838  11.251
  675W        W67216   3.449  44.306   2.606
  676W        W67217  35.922  27.513  12.896
  677W        W67218  44.641  19.733  12.334
  678W        W67219  41.380  22.140  13.891
  679W        W67220  19.377  14.643  10.724
  680W        W67221   7.830  16.299  12.139
  681W        W67222   6.927  41.700   2.087
  682W        W67223  11.830  18.965   3.721
  683W        W67224   0.753  20.053  12.132
  684W        W67225  12.290  15.296  10.353
  685W        W67226  22.473  33.171   4.473
  686W        W67227  26.670  41.000  11.484
  687W        W67228   6.132  42.349  10.508
  688W        W67229  23.260  21.117   3.785
  689W        W67230  20.982  19.496   1.316
  690W        W67231   1.340  24.129   3.782
  691W        W67232  23.508  36.451  11.546
  692W        W67233  35.890   1.813  11.580
  693W        W67234  40.053  40.563   4.078
  694W        W67235   1.896  23.580  13.540
  695W        W67236   2.804  35.527  13.847
  696W        W67237   0.377  38.919   4.481
  697W        W67238  14.279   7.939  13.807
  698W        W67239  29.779  19.024  13.802
  699W        W67240  31.200  12.692  11.564
  700W        W67241   4.004   0.956   2.245
  701W        W67242  30.961  32.082   3.271
  702W        W67243   6.801  24.000  12.072
  703W        W67244  17.653  15.319   9.720
  704W        W67245  33.405  39.954   4.592
  705W        W67246   0.932  30.634   0.298
  706W        W67247  35.581  24.527   4.180
  707W        W67248  28.415  32.316   4.630
  708W        W67249   8.424  39.196  14.011
  709W        W67250  37.517  34.283   2.325
  710W        W67251  22.706  31.503   0.372
  711W        W67252   1.249  20.623   3.827
  712W        W67253   0.497  26.800   4.095
  713W        W67254  30.640  44.026   4.466
  714W        W67255  31.628   6.885  12.328
  715W        W67256  12.386  16.867  12.078
  716W        W67257  34.493   4.566  12.422
  717W        W67258   6.176  32.812   1.264
  718W        W67259  33.638  17.812  12.782
  719W        W67260   0.362  39.414   3.179
  720W        W67261  22.977   4.313  11.632
  721W        W67262  38.448  42.482   2.827
  722W        W67263  43.540  30.391   2.171
  723W        W67264  21.364  12.438   3.786
  724W        W67265   9.522  31.797   4.962
  725W        W67266  18.470   2.490   0.131
  726W        W67267  20.305  42.532  12.566
  727W        W67268  40.735  22.977  11.508
  728W        W67269   6.659  30.292  11.542
  729W        W67270  13.916  18.929   3.170
  730W        W67271   3.237  16.026  11.482
  731W        W67272   5.713  24.704  14.308
  732W        W67273  22.704  17.342  12.583
  733W        W67274  21.123   9.292   4.019
  734W        W67275  34.960   9.563  13.466
  735W        W67276  29.801   0.094   4.138
  736W        W67277  22.193  16.178   2.031
  737W        W67278  17.811  43.778   1.281
  738W        W67279   4.735  41.693  11.863
  739W        W67280   4.794  30.624   4.117
  740W        W67281  44.490   5.821  13.021
  741W        W67282  29.481  33.304  11.986
  742W        W67283  39.006  18.559  12.826
  743W        W67284  21.027  42.485   3.446
  744W        W67285  13.640  19.197   0.924
  745W        W67286  29.969  23.452   0.305
  746W        W67287   2.008  13.736   1.405
  747W        W67288   2.987  39.835   1.783
  748W        W67289  14.289   6.974  11.149
  749W        W67290  30.017  27.478  13.792
  750W        W67291  30.962  29.630  13.489
  751W        W67292   4.980  15.966   4.137
  752W        W67293   5.838  30.433  10.288
  753W        W67294  14.523  12.209   3.713
  754W        W67295  20.438  12.363   1.310
  755W        W67296  14.024  39.267   4.260
  756W        W67297  20.105  35.503  11.790
  757W        W67298  40.456  14.248  11.214
  758W        W67299   3.029  43.328   4.500
  759W        W67300  29.082  18.292  14.172
  760W        W67301  21.023  40.602  14.396
  761W        W67302  25.561  27.026  10.623
  762W        W67303   6.720   3.167   2.325
  763W        W67304   9.911  31.414  13.028
  764W        W67305  28.701   4.247  11.535
  765W        W67306  34.828  33.196  11.684
  766W        W67307  17.512  38.963  11.161
  767W        W67308   7.453  41.281  11.119
  768W        W67309  36.618  24.515  13.092
  769W        W67310  15.907  14.610   5.441
  770W        W67311  31.367  35.594   1.178
  771W        W67312   2.876  12.693  11.283
  772W        W67313  26.523  29.538  14.618
  773W        W67314  42.989  20.420  12.418
  774W        W67315  27.999  30.288  12.587
  775W        W67316  36.832  25.430  10.817
  776W        W67317  15.043   4.821  11.685
  777W        W67318   5.346  16.992   3.241
  778W        W67319  36.402   6.067  14.548
  779W        W67320  32.027  21.955   3.718
  780W        W67321  11.871   2.772   4.529
  781W        W67322  17.088  24.583   3.222
  782W        W67323  26.926  19.702   3.265
  783W        W67324   3.749  20.222   3.577
  784W        W67325  34.026  31.208   0.363
  785W        W67326  31.182  40.549   3.347
  786W        W67327  43.924  34.594   0.894
  787W        W67328  28.994  17.564   4.598
  788W        W67329  16.245  24.513   2.412
  789W        W67330  20.461  23.141   2.837
  790W        W67331  14.168  33.933   0.190
  791W        W67332  23.479  30.409  11.158
  792W        W67333  21.451  26.714   0.893
  793W        W67334  17.069  10.209   2.842
  794W        W67335  40.294  41.854   1.287
  795W        W67336  44.853  23.060   2.754
  796W        W67337  42.891  34.042   2.825
  797W        W67338  36.292  25.420   3.669
  798W        W67339  16.214  12.631   0.278
  799W        W67340   1.773  16.357   1.704
  800W        W67341   5.880  13.199  14.743
  801W        W67342  42.964  17.270   2.335
  802W        W67343   9.893  26.846  12.355
  803W        W67344  41.326  18.918  14.376
  804W        W67345  37.604  43.334   0.572
  805W        W67346   1.909   5.783  13.407
  806W        W67347   0.830  40.807  13.396
  807W        W67348  19.893   3.042  11.457
  808W        W67349   6.649  44.859   1.180
  809W        W67350  34.351  34.085  14.963
  810W        W67351  12.582  17.637   1.937
  811W        W67352  19.780   4.864  11.156
  812W        W67353  36.960  31.435   1.131
  813W        W67354  40.515  26.867  13.447
  814W        W67355  39.861   4.276   2.686
  815W        W67356  28.183  30.614  11.538
  816W        W67357   3.442  13.632  11.074
  817W        W67358  17.369   1.257  11.503
  818W        W67359   0.647  13.019  12.037
  819W        W67360   6.961  26.062  11.669
  820W        W67361  26.989   0.856   3.129
  821W        W67362   3.019  33.264   4.966
  822W        W67363  16.181  25.880  11.414
  823W        W67364  13.740  12.795  11.138
  824W        W67365  22.599   7.743   1.916
  825W        W67366  13.143  12.097   2.922
  826W        W67367   5.409  23.207  10.907
  827W        W67368   1.415  12.091  14.519
  828W        W67369  36.873   6.136  14.317
  829W        W67370  44.864  24.184   3.811
  830W        W67371   2.227  29.111   1.496
  831W        W67372  29.052   5.201   1.148
  832W        W67373  22.027  36.528  14.977
  833W        W67374   5.857   9.170   3.428
  834W        W67375  31.910  18.257  13.423
  835W        W67376  26.989  11.099   4.914
  836W        W67377  18.383  19.482  14.427
  837W        W67378  40.667  22.007  12.547
  838W        W67379  25.056  22.198  13.018
  839W        W67380  21.374  42.554   0.929
  840W        W67381  43.383  41.294   3.772
  841W        W67382   8.255  32.300  12.578
  842W        W67383  20.970  42.845   4.126
  843W        W67384  20.467  10.408  14.447
  844W        W67385   9.200  19.079  12.511
  845W        W67386  24.501  27.630   1.332
  846W        W67387  27.579  40.928  11.571
  847W        W67388  32.073  26.606  12.015
  848W        W67389  22.938  10.738  14.700
  849W        W67390  40.004  43.661   2.262
  850W        W67391  29.201   8.188   3.194
  851W        W67392  42.506  23.699  13.595
  852W        W67393  37.020   8.318  13.067
  853W        W67394  29.855   5.519  13.583
  854W        W67395  20.413  27.981  14.773
  855W        W67396  40.154  18.547  11.233
  856W        W67397  11.739  25.684  13.391
  857W        W67398  24.595  39.072   2.167
  858W        W67399  34.160  23.520  10.694
  859W        W67400  38.589  38.283  13.984
  860W        W67401  14.580  23.354   1.952
  861W        W67402  29.464  35.397  12.075
  862W        W67403  39.552  44.947   2.109
  863W        W67404   7.615   1.738  11.039
  864W        W67405  21.982  40.146  13.709
  865W        W67406  12.229   5.785  12.110
  866W        W67407   8.430   8.717   0.401
  867W        W67408  36.786  28.125  11.228
  868W        W67409   1.230  16.131   2.840
  869W        W67410  19.239  20.317  13.977
  870W        W67411   4.666  23.459   9.600
  871W        W67412  37.830   0.889  14.457
  872W        W67413  22.308   6.937   2.327
  873W        W67414  32.597   3.927   4.908
  874W        W67415  38.122  12.011  10.244
  875W        W67416  13.817  24.618  12.091
  876W        W67417   6.107  10.839   0.708
  877W        W67418  41.519   7.882   3.259
  878W        W67419  32.852  34.466   0.158
  879W        W67420  13.350  41.106   1.432
  880W        W67421  41.097   0.941  10.792
  881W        W67422  21.243  33.422   1.228
  882W        W67423  12.147  28.931  11.080
  883W        W67424  36.629  33.840  12.958
  884W        W67425   9.815  39.493   3.280
  885W        W67426  24.960  18.365  11.108
  886W        W67427  41.662  23.279   3.101
  887W        W67428  27.006  15.724   0.557
  888W        W67429  19.372  16.273   4.086
  889W        W67430   5.611  35.121   2.306
  890W        W67431  42.935   2.499  12.858
  891W        W67432  40.251  12.647   5.345
  892W        W67433   0.545  34.018  12.524
  893W        W67434  25.747   8.954   2.595
  894W        W67435  21.673  11.258   0.733
  895W        W67436  14.322   8.713   3.700
  896W        W67437  11.781   2.366   3.216
  897W        W67438   8.652  44.800  12.114
  898W        W67439  11.220  36.683   4.974
  899W        W67440  20.711  36.306   1.377
  900W        W67441   6.054  15.036   2.276
  901W        W67442  10.733  43.446   2.818
  902W        W67443  38.577  12.078   4.108
  903W        W67444  25.919  14.528   4.154
  904W        W67445  23.965   9.799  12.090
  905W        W67446  26.904  12.737   2.831
  906W        W67447   2.168  10.278  10.805
  907W        W67448  22.422  17.114  10.760
  908W        W67449  21.592   2.559   2.138
  909W        W67450   7.287   4.125  11.174
  910W        W67451  41.891   1.206   4.022
  911W        W67452  18.166  26.281   0.814
  912W        W67453  40.006  27.973   1.461
  913W        W67454   3.431  34.347  13.943
  914W        W67455  41.970   8.535  10.619
  915W        W67456  12.701  12.589   1.761
  916W        W67457  42.774   4.969   2.927
  917W        W67458  28.115  44.044   3.699
  918W        W67459   2.075   5.976  11.214
  919W        W67460  15.524  25.183  14.567
  920W        W67461   8.630  39.748  13.466
  921W        W67462  34.467  32.168   0.990
  922W        W67463  10.824   1.555  11.081
  923W        W67464  15.181  18.736  12.013
  924W        W67465  34.932  34.394  14.964
  925W        W67466   5.349  10.638  14.507
  926W        W67467  22.084  11.277  11.425
  927W        W67468  42.503   2.729   1.779
  928W        W67469  22.217  33.148  14.934
  929W        W67470  40.910  27.127   4.102
  930W        W67471   1.811  12.133  12.537
  931W        W67472  12.810  16.895  12.423
  932W        W67473   0.629  33.803  14.934
  933W        W67474  13.653  13.554   2.876
  934W        W67475  44.482  17.502   4.260
  935W        W67476  16.696  37.818   0.716
  936W        W67477  24.616  37.116   3.661
  937W        W67478   0.131  20.389   1.242
  938W        W67479  39.084  30.416  13.965
  939W        W67480  37.908  14.341   5.023
  940W        W67481  14.477  40.155   3.877
  941W        W67482  36.844  24.038   2.700
  942W        W67483  22.463  31.867  13.436
  943W        W67484  18.746  43.433   2.477
  944W        W67485  27.292  12.747  12.235
  945W        W67486  44.288   5.808  11.478
  946W        W67487  35.148  15.870   2.238
  947W        W67488   3.965  28.148   3.718
  948W        W67489  32.189   9.188  10.991
  949W        W67490   5.771  44.328   2.272
  950W        W67491  29.469  21.696  14.416
  951W        W67492  42.417  21.540   2.435
  952W        W67493  10.127  12.368  13.004
  953W        W67494  40.733  31.138  12.137
  954W        W67495  27.970  22.935  14.383
  955W        W67496  31.355  14.199  12.471
  956W        W67497  31.313  25.553  14.213
  957W        W67498   4.881   3.250   1.652
  958W        W67499  16.551  43.462  11.982
  959W        W67500  18.229  34.469  13.904
  960W        W67501  21.233   3.492  11.419
  961W        W67502  37.170   2.693  14.341
  962W        W67503   5.735   6.426  10.641
  963W        W67504   4.338  42.144   3.790
  964W        W67505   8.477  41.946  11.066
  965W        W67506   0.348  41.498  13.532
  966W        W67507  27.881  35.505  12.999
  967W        W67508  34.932  21.952   0.895
  968W        W67509  41.497  23.222  11.148
  969W        W67510  36.428  24.462   2.710
  970W        W67511  15.136  24.173   1.841
  971W        W67512  17.288  10.953   4.016
  972W        W67513   6.451  19.294   4.370
  973W        W67514  37.655  24.031  11.158
  974W        W67515  41.723   1.643  11.197
  975W        W67516  42.737  13.359  14.442
  976W        W67517  29.957  21.515  11.066
  977W        W67518  33.895  39.714   3.560
  978W        W67519  19.522  40.941  13.393
  979W        W67520   0.360  39.832   4.624
  980W        W67521  29.418  34.735   4.988
  981W        W67522  36.357   4.315   4.827
  982W        W67523  41.397  29.455  14.239
  983W        W67524  42.739  20.771   2.317
  984W        W67525   2.666   5.869  11.243
  985W        W67526  44.495  27.400   0.803
  986W        W67527   0.452  28.922   3.046
  987W        W67528  17.448  26.745   4.871
  988W        W67529  37.467   7.375   4.156
  989W        W67530   1.314   1.923  12.337
  990W        W67531  42.209  27.619  12.035
  991W        W67532  11.240  20.767  11.147
  992W        W67533  11.111   9.841   4.366
  993W        W67534   9.409   6.240   3.836
  994W        W67535  31.454   7.950  11.133
  995W        W67536   1.943  23.475  11.670
  996W        W67537  15.073  17.115   2.127
  997W        W67538  11.102  38.587  13.994
  998W        W67539  43.259  15.001  10.977
  999W        W67540   3.819  14.220   2.246
 1000W        W67541  43.504   8.155   3.557
 1001W        W67542  32.945   4.317   0.853
 1002W        W67543  14.787  16.896   0.479
 1003W        W67544  25.212  14.190  10.714
 1004W        W67545  20.529  23.845   0.888
 1005W        W67546  13.120  26.527   3.200
 1006W        W67547   5.347  13.698  13.783
 1007W        W67548  23.919  31.063  11.704
 1008W        W67549  27.691  18.492  12.590
 1009W        W67550  12.588   7.166   4.509
 1010W        W67551  35.315   8.953   4.139
 1011W        W67552  28.193  44.967  10.587
 1012W        W67553  40.114  28.004  13.832
 1013W        W67554  40.169  20.373  12.945
 1014W        W67555  26.965   1.383  12.154
 1015W        W67556   7.257  28.919   2.209
 1016W        W67557  39.308   6.831  14.298
 1017W        W67558  19.756  29.947   0.411
 1018W        W67559  15.334  17.087   3.138
 1019W        W67560  40.266   1.426   1.220
 1020W        W67561  20.305  34.782  13.381
 1021W        W67562  11.645  39.982   0.725
 1022W        W67563   7.470  13.379   1.602
 1023W        W67564  23.140  32.088  10.316
 1024W        W67565  42.737  15.388  14.200
 1025W        W67566   5.906  34.452   0.599
 1026W        W67567  20.768  18.034  10.276
 1027W        W67568  25.926  40.328   0.719
 1028W        W67569   2.820  40.149   0.854
 1029W        W67570  30.551  38.546   4.688
 1030W        W67571  13.636  16.601   4.606
 1031W        W67572   2.004  22.912   1.714
 1032W        W67573  19.881   4.772   0.338
 1033W        W67574  15.637  13.682   3.141
 1034W        W67575   0.138  17.176  11.921
 1035W        W67576  43.462  42.771   2.705
 1036W        W67577   5.218   2.790   3.674
 1037W        W67578  12.761  22.677  14.011
 1038W        W67579  10.967  41.338   3.187
 1039W        W67580  17.552   7.361   1.290
 1040W        W67581  12.176  29.201   3.354
 1041W        W67582  25.477  41.957  14.306
 1042W        W67583  36.108  27.678  14.493
 1043W        W67584  14.854  26.175  12.295
 1044W        W67585  21.299  39.025   0.809
 1045W        W67586  27.619  24.158  12.091
 1046W        W67587  20.613  39.992   1.109
 1047W        W67588   9.232  17.778   3.593
 1048W        W67589  17.669  15.757   3.231
 1049W        W67590  28.953  24.425   4.148
 1050W        W67591  37.480  25.991   0.517
 1051W        W67592  37.885  12.058  12.891
 1052W        W67593  20.963  31.580   2.461
 1053W        W67594  44.590  38.491   3.261
 1054W        W67595  28.965   3.839   0.950
 1055W        W67596  28.889  21.609  12.310
 1056W        W67597  33.571   3.420   2.330
 1057W        W67598  23.011  39.760   2.780
 1058W        W67599   7.333  32.374   2.802
 1059W        W67600  43.785  18.843   2.838
 1060W        W67601  23.713  43.224  13.010
 1061W        W67602  34.064  44.260  14.267
 1062W        W67603  31.946  11.238   2.104
 1063W        W67604  11.603  10.328   0.964
 1064W        W67605  24.545  30.297   4.568
 1065W        W67606  12.387  39.747   1.846
 1066W        W67607  19.107   1.520  14.449
 1067W        W67608  33.515  17.387   5.215
 1068W        W67609  29.408  14.841  12.417
 1069W        W67610   4.870  40.704   4.298
 1070W        W67611   2.126  11.825  13.492
 1071W        W67612   2.747  23.512  12.425
 1072W        W67613  17.779  39.324  10.846
 1073W        W67614  27.887  29.523   0.254
 1074W        W67615   7.942   1.354  11.027
 1075W        W67616  25.615   6.119  14.744
 1076W        W67617  13.924  34.531   2.333
 1077W        W67618  17.338   6.717  10.930
 1078W        W67619   7.641   4.685  11.892
 1079W        W67620  42.050  30.451  13.347
 1080W        W67621   8.496  24.508   2.690
 1081W        W67622  42.468  13.796   3.222
 1082W        W67623  31.819   0.820  12.024
 1083W        W67624   7.664  27.763  11.939
 1084W        W67625  18.326  26.848   2.455
 1085W        W67626  33.910  13.071   4.484
 1086W        W67627   0.784  10.975   3.398
 1087W        W67628  12.752  22.262  14.444
 1088W        W67629  23.211  18.413   1.453
 1089W        W67630  24.236   8.139   1.264
 1090W        W67631   8.672  18.778   3.121
 1091W        W67632  12.340  43.704  14.015
 1092W        W67633  14.572  34.810  14.710
 1093W        W67634  31.451  38.476  12.241
 1094W        W67635  37.015   6.228   0.384
 1095W        W67636  35.412  39.064   2.943
 1096W        W67637  25.082   4.684   3.877
 1097W        W67638  22.744  24.587   4.091
 1098W        W67639   1.080  13.751   4.740
 1099W        W67640  15.077  34.432  13.070
 1100W        W67641  35.847  18.843  12.462
 1101W        W67642  17.526  19.387  11.576
 1102W        W67643  40.274  26.149   3.445
 1103W        W67644  32.447   9.438   1.014
 1104W        W67645  17.272  12.681  13.959
 1105W        W67646   3.416  22.068   3.286
 1106W        W67647  42.337  27.571  13.744
 1107W        W67648  21.720  28.936   0.470
 1108W        W67649   3.475  29.864   4.450
 1109W        W67650  18.430  10.776   4.096
 1110W        W67651   7.659  34.338   3.208
 1111W        W67652  26.049  37.474   3.719
 1112W        W67653  43.783  14.848   0.783
 1113W        W67654  29.623  39.351   4.298
 1114W        W67655  41.969  16.267  13.525
 1115W        W67656   7.696  17.054   0.031
 1116W        W67657   8.484   6.276   4.468
 1117W        W67658   6.794  21.016   0.505
 1118W        W67659  33.129  41.794   2.872
 1119W        W67660  20.518  20.101   3.317
 1120W        W67661   8.666  27.450  14.891
 1121W        W67662  44.490   4.653   3.392
 1122W        W67663  38.105   2.020   4.289
 1123W        W67664   2.794   7.752  14.036
 1124W        W67665  31.544  36.777   2.776
 1125W        W67666  22.752  19.926   3.824
 1126W        W67667  20.517  11.225   4.603
 1127W        W67668  19.227   5.527  10.612
 1128W        W67669  15.175  30.402  10.232
 1129W        W67670  31.732  24.112   2.863
 1130W        W67671  35.498  29.917  13.362
 1131W        W67672  24.191  13.433   4.316
 1132W        W67673  44.301  13.388   2.592
 1133W        W67674  35.222  29.718  13.960
 1134W        W67675  42.365  37.830  12.258
 1135W        W67676  20.075  38.776  14.351
 1136W        W67677  27.958  41.043   4.116
 1137W        W67678  41.616  44.895  12.188
 1138W        W67679   2.962  40.992  11.119
 1139W        W67680  18.990  13.371  11.184
 1140W        W67681  27.032  34.011  11.105
 1141W        W67682   3.712  25.767   3.225
 1142W        W67683  28.763  17.801  10.321
 1143W        W67684  36.976   6.964   0.014
 1144W        W67685   8.003  34.898   4.821
 1145W        W67686  32.709  43.765  10.559
 1146W        W67687  15.330  13.634  14.686
 1147W        W67688   3.013  31.788  13.006
 1148W        W67689  13.512   5.113  12.925
 1149W        W67690   8.829  39.522  13.915
 1150W        W67691  42.045  12.454   3.551
 1151W        W67692  23.547   9.113   4.116
 1152W        W67693   7.220   4.386  13.934
 1153W        W67694   2.978  34.556   1.800
 1154W        W67695  42.556  30.514   1.904
 1155W        W67696  44.167  23.641  12.944
 1156W        W67697  13.476  32.304   4.070
 1157W        W67698  13.820  10.361  12.790
 1158W        W67699  17.923  30.971  11.571
 1159W        W67700  43.749   4.446  11.985
 1160W        W67701  31.440  25.234   1.848
 1161W        W67702  25.712  28.599  14.461
 1162W        W67703  36.765   8.697   3.789
 1163W        W67704  27.883  22.519   5.191
 1164W        W67705  44.871   1.218  12.180
 1165W        W67706   2.547   9.236  10.822
 1166W        W67707  23.281  29.444  13.852
 1167W        W67708  23.944  29.239   0.433
 1168W        W67709  20.472  17.192  14.959
 1169W        W67710  13.622  33.139   4.138
 1170W        W67711  32.559  23.744  11.636
 1171W        W67712  20.653   2.528  11.961
 1172W        W67713   1.261  28.476  11.665
 1173W        W67714  21.536  27.516   4.937
 1174W        W67715  36.049  36.081  14.279
 1175W        W67716  16.886  13.802   3.300
 1176W        W67717  31.585  15.030  14.695
 1177W        W67718   3.324  16.389  14.334
 1178W        W67719   3.186   1.653   0.584
 1179W        W67720  15.169  24.332  11.165
 1180W        W67721  44.290  21.296   3.048
 1181W        W67722  44.001  38.427  14.166
 1182W        W67723   5.432  24.008  12.542
 1183W        W67724   5.368  27.343   2.556
 1184W        W67725  12.826  29.374  12.099
 1185W        W67726  11.378  37.329   3.665
 1186W        W67727  24.523  44.884   0.690
 1187W        W67728  15.308  27.756   1.658
 1188W        W67729  26.033  21.428   1.516
 1189W        W67730  13.304   3.909  10.603
 1190W        W67731  10.168   3.705  12.125
 1191W        W67732   9.249  23.596   2.863
 1192W        W67733   1.176  39.532  11.177
 1193W        W67734  37.354  30.080   4.111
 1194W        W67735  16.375  12.159   0.497
 1195W        W67736  40.298   4.305   1.920
 1196W        W67737  44.744   2.215  13.445
 1197W        W67738  20.215  40.320   2.804
 1198W        W67739  43.362   4.253   4.870
 1199W        W67740  23.023  36.636  11.390
 1200W        W67741  44.713  30.345   0.914
 1201W        W67742  18.972   2.749  12.681
 1202W        W67743  20.790  19.050   1.504
 1203W        W67744  15.707   0.804  14.926
 1204W        W67745  30.261  36.006   3.625
 1205W        W67746   0.820  10.203  12.658
 1206W        W67747  17.158  30.190  14.860
 1207W        W67748  25.194  44.823  13.407
 1208W        W67749  28.849  26.421   4.120
 1209W        W67750  41.915  32.053   3.426
 1210W        W67751  33.293  18.657   1.817
 1211W        W67752  24.335  29.314   3.151
 1212W        W67753  20.301  23.638   3.926
 1213W        W67754  30.494  10.692   3.633
 1214W        W67755  18.986  32.739  13.977
 1215W        W67756  17.382  10.828  12.256
 1216W        W67757  30.639  38.984   1.281
 1217W        W67758   6.160  41.925   0.370
 1218W        W67759  12.872  11.681   4.758
 1219W        W67760   7.270   7.699  13.588
 1220W        W67761  40.571  31.237   0.481
 1221W        W67762  16.219   5.206   4.147
 1222W        W67763  34.970  37.007  12.452
 1223W        W67764  26.618  20.567   2.717
 1224W        W67765  29.423   2.385   2.895
 1225W        W67766  41.207  14.155  13.295
 1226W        W67767  28.688   1.333  11.584
 1227W        W67768  18.389  13.291  10.322
 1228W        W67769  18.980   4.948  14.144
 1229W        W67770  34.562  24.656   1.397
 1230W        W67771  29.490  35.635   1.839
 1231W        W67772  17.727   0.351  12.159
 1232W        W67773  15.720   2.473   1.932
 1233W        W67774  10.626   7.346  10.728
 1234W        W67775  36.773  17.006   3.000
 1235W        W67776  33.907  15.824   0.029
 1236W        W67777  13.661   8.760  13.561
 1237W        W67778  43.225  36.734   1.945
 1238W        W67779  31.337  22.000  12.100
 1239W        W67780  20.589   6.888   1.825
 1240W        W67781   1.947   1.126   3.192
 1241W        W67782  24.021  21.974   0.203
 1242W        W67783  14.117  39.026   1.663
 1243W        W67784  42.469   8.607  10.770
 1244W        W67785   2.876  28.669  12.376
 1245W        W67786  31.119  38.390   1.136
 1246W        W67787  12.700  26.709  14.940
 1247W        W67788  36.993  36.414   4.074
 1248W        W67789  20.401  15.288   2.793
 1249W        W67790  20.255   9.161  11.141
 1250W        W67791  18.056  44.450   0.816
 1251W        W67792  41.455  12.342  13.582
 1252W        W67793  22.769   4.887   4.536
 1253W        W67794  43.374  12.776  13.547
 1254W        W67795  21.567   2.753  13.004
 1255W        W67796   1.418  29.765  14.578
 1256W        W67797  21.768  16.205  14.260
 1257W        W67798   2.840   4.244  11.543
 1258W        W67799  38.356  10.820   4.688
 1259W        W67800   0.529  13.060   2.379
 1260W        W67801  31.893  12.057  13.470
 1261W        W67802  10.567  35.878  14.909
 1262W        W67803  35.546   2.043  12.719
 1263W        W67804  40.310  20.970   0.116
 1264W        W67805  34.823  22.064  13.334
 1265W        W67806  35.082  31.353  13.900
 1266W        W67807  10.198   3.342  10.958
 1267W        W67808  44.989  29.119  14.627
 1268W        W67809  35.435   5.996  12.465
 1269W        W67810  29.052  17.288   2.452
 1270W        W67811  17.200  23.125   3.046
 1271W        W67812   2.783  12.616  14.252
 1272W        W67813  38.385  13.491   5.402
 1273W        W67814  24.942  15.783   0.711
 1274W        W67815  29.308  38.359   3.879
 1275W        W67816  14.830  28.567   1.762
 1276W        W67817  16.632  24.536   4.141
 1277W        W67818  22.291  26.982   3.924
 1278W        W67819  18.957   4.922  14.946
 1279W        W67820  38.335   1.198  12.597
 1280W        W67821  18.770  10.224  14.744
 1281W        W67822  16.728   7.215  12.932
 1282W        W67823  17.153  34.857  14.437
 1283W        W67824  22.751   2.898  12.548
 1284W        W67825  20.097  21.708  12.573
 1285W        W67826  23.227  19.769   3.941
 1286W        W67827  26.960  42.503  11.199
 1287W        W67828  13.625   4.178   3.867
 1288W        W67829  10.764  16.206   0.349
 1289W        W67830  31.124  41.601  14.867
 1290W        W67831   2.800  38.049   3.705
 1291W        W67832   7.802  42.465  12.883
 1292W        W67833  20.076   7.686   5.136
 1293W        W67834  12.605  41.851   3.595
 1294W        W67835  36.078  41.060   2.267
 1295W        W67836  35.831  39.278  10.482
 1296W        W67837   0.488  10.871  12.664
 1297W        W67838  28.653  41.825   4.108
 1298W        W67839  27.038  44.345   0.720
 1299W        W67840  31.138  20.741   2.423
 1300W        W67841  10.238  18.237  10.897
 1301W        W67842  36.383   5.560  10.092
 1302W        W67843  34.868  29.120  10.494
 1303W        W67844  28.871   1.900  12.944
 1304W        W67845  29.749  43.819   3.792
 1305W        W67846  29.285  42.882  10.860
 1306W        W67847  44.447  23.796   0.177
 1307W        W67848  42.740  26.642  11.190
 1308W        W67849  26.448   0.915  13.804
 1309W        W67850  16.930  22.065   1.185
 1310W        W67851  31.267   0.703   4.180
 1311W        W67852   4.308  10.834   2.243
 1312W        W67853  15.513   7.041   2.164
 1313W        W67854  12.162  11.445  12.550
 1314W        W67855   6.463  36.685  14.438
 1315W        W67856  13.625  11.570  14.079
 1316W        W67857  25.812   3.888   4.199
 1317W        W67858  36.122   2.972  11.911
 1318W        W67859   0.257  42.743  12.461
 1319W        W67860  14.631  23.525  10.855
 1320W        W67861   0.446  30.738   3.753
 1321W        W67862  25.679   8.880   0.785
 1322W        W67863  38.195   0.041   2.791
 1323W        W67864  34.141  40.487   0.754
 1324W        W67865  26.738  39.619  12.844
 1325W        W67866  24.015   1.427   3.350
 1326W        W67867  36.846  27.373  12.568
 1327W        W67868  15.165  13.223  14.931
 1328W        W67869  22.773   1.342   1.487
 1329W        W67870  30.260  38.280  12.299
 1330W        W67871   7.453   6.334  11.066
 1331W        W67872   5.179  17.503   3.344
 1332W        W67873  41.340   7.190  13.429
 1333W        W67874  28.392  17.025   4.114
 1334W        W67875  13.728  20.288   1.730
 1335W        W67876   2.215  18.146  13.895
 1336W        W67877  37.776   9.730  14.435
 1337W        W67878  34.189  11.642   2.530
 1338W        W67879   5.488  31.209  14.504
 1339W        W67880   5.272  18.454   3.165
 1340W        W67881  33.180  22.217   4.150
 1341W        W67882  13.583  17.589  12.492
 1342W        W67883   0.795  17.775   3.616
 1343W        W67884  13.396  26.620   1.229
 1344W        W67885   4.958  11.109  13.818
 1345W        W67886  29.453   2.656   1.907
 1346W        W67887  18.380   4.301  14.314
 1347W        W67888  22.141  32.109  13.814
 1348W        W67889  30.989  17.320  14.788
 1349W        W67890  39.998  43.013  12.863
 1350W        W67891  43.096  15.119  10.519
 1351W        W67892   6.666  31.411   1.745
 1352W        W67893  36.011  22.748   4.393
 1353W        W67894   5.948   9.564   3.810
 1354W        W67895  29.624  34.604  12.474
 1355W        W67896  34.608  22.488  10.590
 1356W        W67897  15.141  11.393  12.012
 1357W        W67898  22.900   7.480   1.608
 1358W        W67899  11.348  24.501   1.087
 1359W        W67900  21.476  15.525  11.506
 1360W        W67901  37.003   2.116   1.352
 1361W        W67902   9.706  24.093   4.084
 1362W        W67903  40.480  33.488   1.428
 1363W        W67904   0.362  32.391   1.762
 1364W        W67905  29.439  37.826   3.224
 1365W        W67906   0.879  10.420   1.836
 1366W        W67907  31.172  17.710   3.679
 1367W        W67908  43.598  14.620  10.979
 1368W        W67909   4.769  40.428  14.206
 1369W        W67910  11.886  14.618  10.953
 1370W        W67911   3.970  29.123  10.985
 1371W        W67912   4.472   3.750   2.193
 1372W        W67913   1.338  27.780  10.230
 1373W        W67914  44.936  11.834  13.863
 1374W        W67915  24.690  34.464   0.762
 1375W        W67916  24.486  37.205  10.815
 1376W        W67917  10.355  29.712   2.379
 1377W        W67918  42.767  40.355  10.622
 1378W        W67919  38.459   5.515   4.418
 1379W        W67920   8.340   4.382   3.329
 1380W        W67921  22.120  14.339  11.673
 1381W        W67922  20.014  24.096  11.628
 1382W        W67923  38.583  12.066   3.577
 1383W        W67924  21.188  29.020  13.415
 1384W        W67925  11.643  42.067   3.662
 1385W        W67926   9.846  18.249  10.544
 1386W        W67927  13.648  22.095   4.675
 1387W        W67928   8.872   9.868   4.393
 1388W        W67929  20.510  10.837  12.873
 1389W        W67930  42.559  40.073   1.392
 1390W        W67931  14.796   8.438  11.187
 1391W        W67932  16.974  19.105   1.873
 1392W        W67933  38.571  24.091   2.229
 1393W        W67934   9.893  39.244   1.469
 1394W        W67935  40.070  22.532  13.807
 1395W        W67936  39.479  17.130  11.051
 1396W        W67937  32.399  39.489   2.699
 1397W        W67938  19.646   0.941   0.408
 1398W        W67939  19.283   1.815   3.964
 1399W        W67940  17.707  25.745   3.121
 1400W        W67941  43.384  37.021   0.212
 1401W        W67942  36.476   3.343   1.172
 1402W        W67943  18.816  34.985   4.795
 1403W        W67944   3.131   9.973   0.663
 1404W        W67945  29.970   9.635  14.340
 1405W        W67946  19.546  18.140   0.782
 1406W        W67947   2.810  10.758   2.240
 1407W        W67948  17.471  13.717  10.172
 1408W        W67949  26.911  16.618   0.404
 1409W        W67950  33.672  24.114  14.387
 1410W        W67951  13.475  37.419  11.972
 1411W        W67952  10.821   3.840  11.104
 1412W        W67953  34.196  28.542   2.268
 1413W        W67954  41.440  44.902  13.096
 1414W        W67955  26.551  10.187   1.735
 1415W        W67956  44.441  17.333  12.422
 1416W        W67957   2.308  39.333   4.222
 1417W        W67958   0.744   3.862  12.097
 1418W        W67959   3.258  24.933   3.185
 1419W        W67960  38.898  20.612  12.090
 1420W        W67961  22.148  31.520   3.244
 1421W        W67962  31.408  34.843   3.184
 1422W        W67963  38.062   4.328   1.283
 1423W        W67964  42.079  21.253   3.999
 1424W        W67965  24.379  27.649  11.658
 1425W        W67966  17.872   7.682   0.328
 1426W        W67967  40.552  17.709  10.748
 1427W        W67968  14.799  26.602  13.901
 1428W        W67969   9.342  38.796  13.962
 1429W        W67970  44.546  23.179  11.480
 1430W        W67971  11.586   3.261  12.565
 1431W        W67972  36.451  19.661  13.398
 1432W        W67973  25.334  23.578   3.269
 1433W        W67974   6.625  12.771  12.063
 1434W        W67975  15.271  25.198   1.701
 1435W        W67976  40.428  39.803  11.687
 1436W        W67977  35.645  21.255   3.152
 1437W        W67978  40.818  12.169  11.168
 1438W        W67979  39.318  20.711   2.394
 1439W        W67980  10.191  18.778   4.035
 1440W        W67981  37.013  27.555   4.550
 1441W        W67982  44.109  39.757   1.184
 1442W        W67983   6.176   6.852   0.016
 1443W        W67984  13.707  21.280   1.692
 1444W        W67985  43.689  39.041   2.135
 1445W        W67986  31.854  42.415  12.566
 1446W        W67987   7.254  41.305   2.154
 1447W        W67988  14.258   0.564  11.653
 1448W        W67989  36.927   8.142  14.303
 1449W        W67990   7.598  38.058  14.639
 1450W        W67991   0.195   4.467  12.065
 1451W        W67992  37.377  14.910   4.289
 1452W        W67993  44.966   9.898   1.957
 1453W        W67994  20.557   3.102  11.554
 1454W        W67995  43.357  33.086   0.413
 1455W        W67996  35.779  13.559   0.811
 1456W        W67997  31.356  26.675   4.104
 1457W        W67998   5.241  34.627   4.777
 1458W        W67999  38.037   7.612   4.658
 1459W        W68000  15.685  12.195  11.692
 1460W        W68001  34.957  30.076   1.851
 1461W        W68002  44.831  13.851   4.239
 1462W        W68003   3.272  13.858   1.816
 1463W        W68004  28.955   5.771  13.525
 1464W        W68005  22.583   7.094   9.803
 1465W        W68006  30.392  16.867   4.135
 1466W        W68007  36.611  18.703  10.723
 1467W        W68008  15.786  18.822  13.426
 1468W        W68009  10.233  20.344   1.859
 1469W        W68010   1.738  38.970   4.684
 1470W        W68011  30.590  20.588   3.679
 1471W        W68012   0.895  12.340   2.453
 1472W        W68013   1.008  16.750   2.309
 1473W        W68014  19.215   6.037   0.340
 1474W        W68015  11.383   8.632   4.077
 1475W        W68016  16.181   5.451   1.058
 1476W        W68017  38.488  23.980   0.663
 1477W        W68018  43.032   1.225  12.294
 1478W        W68019  27.588  43.763  11.246
 1479W        W68020  28.844  41.088   4.818
 1480W        W68021  30.871  35.731   1.248
 1481W        W68022  44.771   8.251  14.213
 1482W        W68023  23.949  31.349  14.943
 1483W        W68024  43.397  19.207   4.926
 1484W        W68025  20.389   9.957   4.951
 1485W        W68026   7.256  17.351   3.992
 1486W        W68027  18.646  32.506  10.925
 1487W        W68028  34.617  41.276   4.620
 1488W        W68029  31.894  38.853   2.263
 1489W        W68030  20.457  24.913   2.822
 1490W        W68031  25.038   1.826   4.263
 1491W        W68032   4.455  41.890  13.384
 1492W        W68033  29.431  18.257   2.269
 1493W        W68034  29.502  17.735   4.593
 1494W        W68035  42.441  17.007  10.483
 1495W        W68036   1.242   1.779  10.191
 1496W        W68037  24.973  15.806   2.807
 1497W        W68038  37.697  29.695  12.047
 1498W        W68039  39.040  13.334   2.606
 1499W        W68040   2.679   0.976  14.589
 1500W        W68041   6.880   4.778  13.578
 1501W        W68042  32.346  44.421   2.458
 1502W        W68043  42.367  36.979   4.327
 1503W        W68044  21.994  18.735  10.715
 1504W        W68045  30.177  26.948  14.610
 1505W        W68046  14.866  23.926  14.865
 1506W        W68047   3.867  27.928  11.458
 1507W        W68048  17.662  11.692  14.060
 1508W        W68049  10.903  37.097   3.834
 1509W        W68050  10.359  41.210   4.572
 1510W        W68051  25.475  17.091   0.017
 1511W        W68052  42.436   8.212   0.879
 1512W        W68053  29.563  26.146  11.663
 1513W        W68054  33.077  23.740   1.742
 1514W        W68055  34.131   5.259   0.968
 1515W        W68056  34.055  24.165  14.930
 1516W        W68057  39.910  32.693  14.306
 1517W        W68058  34.550   3.414   3.679
 1518W        W68059  40.986  28.985   1.270
 1519W        W68060   5.735   7.422  14.343
 1520W        W68061  26.053  10.370  13.895
 1521W        W68062  24.419   9.759   1.221
 1522W        W68063  18.242  24.561  13.335
 1523W        W68064   0.408  43.397  11.236
 1524W        W68065  30.432  29.615   1.226
 1525W        W68066  35.308   0.762  12.258
 1526W        W68067  36.439  14.182  14.189
 1527W        W68068  25.364  36.546  13.432
 1528W        W68069  16.483  35.474  10.695
 1529W        W68070  10.150   6.002   1.422
 1530W        W68071   3.826  20.655  11.983
 1531W        W68072  15.089  44.319   3.273
 1532W        W68073   3.366  31.025   3.881
 1533W        W68074   9.137  25.578  10.652
 1534W        W68075  35.691  23.165   1.815
 1535W        W68076  42.276  38.704  13.913
 1536W        W68077  13.633   7.850   0.460
 1537W        W68078  12.842  23.534  12.092
 1538W        W68079  36.829  35.026   5.138
 1539W        W68080  37.858   3.339   4.694
 1540W        W68081  31.675   8.832  14.775
 1541W        W68082  37.778  38.045   3.727
 1542W        W68083  14.414  40.737  13.773
 1543W        W68084  25.861   7.326   3.683
 1544W        W68085  42.439  41.976  14.471
 1545W        W68086  33.606  17.905   4.363
 1546W        W68087   2.947  25.599  14.257
 1547W        W68088  11.389   5.448   3.680
 1548W        W68089  36.587   9.497  11.427
 1549W        W68090   9.635  11.638   3.100
 1550W        W68091  19.642  26.054   1.010
 1551W        W68092  19.571  41.836  11.550
 1552W        W68093   4.391  20.682   2.890
 1553W        W68094  29.033  15.416   4.251
 1554W        W68095  24.760   5.804   1.348
 1555W        W68096  23.561   9.937  13.854
 1556W        W68097  32.668  33.462   0.286
 1557W        W68098  20.312  27.454  11.738
 1558W        W68099   4.404  28.967  12.439
 1559W        W68100  37.684  18.076  11.127
 1560W        W68101  32.127  14.867   2.658
 1561W        W68102   5.313  26.378  14.083
 1562W        W68103  16.976  32.163  10.682
 1563W        W68104  32.616  43.782   3.168
 1564W        W68105  25.974   5.626  13.013
 1565W        W68106  14.738   6.225  11.564
 1566W        W68107  22.935   0.928  13.866
 1567W        W68108  33.789  26.927   3.578
 1568W        W68109  15.279   3.496  12.993
 1569W        W68110  22.984  34.379  14.468
 1570W        W68111   7.427  38.531   0.658
 1571W        W68112   8.795  11.358  11.197
 1572W        W68113  40.316   8.652   4.995
 1573W        W68114  20.261  15.066   0.468
 1574W        W68115  39.021   2.952  12.115
 1575W        W68116  40.900  37.985   3.624
 1576W        W68117  44.270  37.044   1.138
 1577W        W68118  17.181  33.357   3.378
 1578W        W68119   3.452  12.615   3.372
 1579W        W68120  11.204  24.698   3.206
 1580W        W68121  11.339  25.179  10.710
 1581W        W68122  20.632  21.956   0.431
 1582W        W68123  24.603  44.551  12.981
 1583W        W68124  32.510  33.298  14.771
 1584W        W68125   2.236   5.009  14.432
 1585W        W68126  30.307  39.998  13.504
 1586W        W68127  23.654  20.051   1.929
 1587W        W68128  22.984   5.919   3.638
 1588W        W68129  23.548  25.034   1.910
 1589W        W68130  44.463   0.932   1.416
 1590W        W68131   1.171  38.317   0.177
 1591W        W68132   8.706   0.257  12.900
 1592W        W68133  41.334  25.153  11.806
 1593W        W68134  40.846  11.189  13.363
 1594W        W68135  34.810  34.746   1.816
 1595W        W68136  27.528  13.375  10.714
 1596W        W68137  40.010  44.696   0.275
 1597W        W68138   8.136  44.899  12.094
 1598W        W68139  32.480  33.659  10.270
 1599W        W68140  22.604  15.599  13.366
 1600W        W68141  17.560  41.415  12.774
 1601W        W68142   6.877  13.205   0.218
 1602W        W68143  36.897  32.147  14.952
 1603W        W68144   7.290  15.026  14.821
 1604W        W68145   0.969  40.533   0.965
 1605W        W68146  42.961  43.850  10.709
 1606W        W68147  38.097   5.991  11.800
 1607W        W68148  16.829  14.061  10.933
 1608W        W68149  34.702  23.199  12.398
 1609W        W68150  44.759  22.297  13.924
 1610W        W68151  41.768  34.714   0.613
 1611W        W68152  13.972  43.148  11.440
 1612W        W68153  27.008  42.738   5.024
 1613W        W68154  20.650  27.523   4.359
 1614W        W68155  42.835  31.438  14.009
 1615W        W68156  20.490   0.869   2.667
 1616W        W68157  36.969  21.102   4.178
 1617W        W68158   2.887  33.558   4.262
 1618W        W68159  37.102  14.669   2.472
 1619W        W68160  25.760   0.094   5.007
 1620W        W68161  12.853  24.627   1.947
 1621W        W68162   4.177  36.378   1.259
 1622W        W68163  18.136   2.347   3.829
 1623W        W68164  19.011  37.541   0.357
 1624W        W68165  18.607   5.957   1.787
 1625W        W68166  15.242  17.670   0.454
 1626W        W68167  30.969  15.590   3.347
 1627W        W68168   2.368  36.862   0.262
 1628W        W68169  30.167  25.084  11.013
 1629W        W68170   9.771  17.713   4.891
 1630W        W68171  36.341  16.105   3.244
 1631W        W68172  30.648   0.669   2.410
 1632W        W68173  19.330  22.550   3.250
 1633W        W68174  24.564  36.562   2.287
 1634W        W68175  30.941   5.257   1.573
 1635W        W68176  37.542  29.511  14.744
 1636W        W68177  39.528  11.738  12.436
 1637W        W68178  15.972  40.738  12.845
 1638W        W68179  11.875  29.592   2.333
 1639W        W68180  11.139  20.140   3.338
 1640W        W68181  23.494  43.811   1.668
 1641W        W68182  21.672  14.536   1.334
 1642W        W68183  15.548  15.229  13.097
 1643W        W68184  23.302   3.218   2.237
 1644W        W68185  14.774  14.104  11.090
 1645W        W68186  14.239  42.380   4.242
 1646W        W68187  32.944  15.743  12.587
 1647W        W68188  32.346  30.732  12.917
 1648W        W68189   9.779  31.924  12.946
 1649W        W68190  31.960   4.326   4.669
 1650W        W68191  39.990   7.500  12.571
 1651W        W68192  10.849   1.402   0.298
 1652W        W68193  36.570  39.660  11.634
 1653W        W68194  43.775  10.131  14.819
 1654W        W68195  38.079  33.035   1.255
 1655W        W68196  36.523  27.463   4.728
 1656W        W68197  27.680   6.716  11.143
 1657W        W68198  38.484   7.137  10.899
 1658W        W68199  42.183  21.526  12.450
 1659W        W68200  39.232  25.897  12.198
 1660W        W68201  36.914  35.046  11.682
 1661W        W68202  30.486  20.507  11.670
 1662W        W68203  42.570  24.939   2.124
 1663W        W68204  22.285  16.572   1.706
 1664W        W68205  36.965   5.852   3.392
 1665W        W68206   0.786  14.947   1.510
 1666W        W68207  13.878  26.087  11.191
 1667W        W68208  39.848  10.568  11.956
 1668W        W68209  30.034  17.723  13.875
 1669W        W68210  31.313  40.897   0.892
 1670W        W68211  38.416   9.125   0.497
 1671W        W68212  32.687   5.487   2.737
 1672W        W68213  25.085  20.958   3.770
 1673W        W68214  16.403  14.371  10.966
 1674W        W68215  43.971  20.851   2.773
 1675W        W68216  39.274  24.541   1.233
 1676W        W68217  20.253  14.743   1.023
 1677W        W68218  13.082   9.864   1.651
 1678W        W68219  30.856  24.727  12.200
 1679W        W68220  28.153  30.379   1.506
 1680W        W68221   0.825  31.573  12.510
 1681W        W68222   3.486  37.347   2.782
 1682W        W68223  11.305  36.329   1.399
 1683W        W68224  15.373  17.695   4.505
 1684W        W68225  18.808   1.369  11.453
 1685W        W68226   2.704  43.325   2.861
 1686W        W68227   8.419  10.655   0.201
 1687W        W68228   9.243  31.105   1.170
 1688W        W68229  26.962  33.379  12.314
 1689W        W68230  16.597  26.602  13.601
 1690W        W68231   1.748  20.518  10.911
 1691W        W68232  43.890  38.383  13.257
 1692W        W68233  32.918  40.576  13.830
 1693W        W68234  35.548   9.458  11.952
 1694W        W68235  15.737   9.818  12.902
 1695W        W68236   2.725   7.684   4.376
 1696W        W68237  38.761   0.180  10.091
 1697W        W68238  24.758  25.639  13.502
 1698W        W68239  23.674   8.758  12.638
 1699W        W68240  21.718  40.816   0.901
 1700W        W68241   7.138   4.993   3.674
 1701W        W68242  24.490  41.999  14.449
 1702W        W68243  10.783  16.686  12.912
 1703W        W68244  42.085  21.193  14.849
 1704W        W68245   2.231  38.388   2.586
 1705W        W68246  31.220  25.995   4.417
 1706W        W68247  41.754  18.267  11.671
 1707W        W68248   6.830  15.617  11.652
 1708W        W68249  30.519  11.423  14.274
 1709W        W68250  36.405  29.863  13.416
 1710W        W68251   4.846  32.225  13.903
 1711W        W68252  21.838  11.843  11.543
 1712W        W68253  40.803  38.516  11.638
 1713W        W68254  18.688  11.130   0.401
 1714W        W68255  44.186  27.679   0.511
 1715W        W68256  20.747  18.658   1.186
 1716W        W68257  38.352  44.747   2.405
 1717W        W68258  42.249  40.992   2.311
 1718W        W68259  27.535  44.396   0.924
 1719W        W68260  21.573  21.015   1.561
 1720W        W68261   9.793  25.182   0.285
 1721W        W68262  18.705  40.048  13.044
 1722W        W68263  23.798  10.879  10.823
 1723W        W68264  18.148  42.548  10.564
 1724W        W68265  10.511  11.784   5.516
 1725W        W68266  22.226  36.479  11.250
 1726W        W68267  22.676   1.834  12.630
 1727W        W68268   9.227  15.094  14.497
 1728W        W68269  16.160  39.585  12.871
 1729W        W68270  12.330  30.065  11.964
 1730W        W68271  31.555  12.277  11.677
 1731W        W68272  15.606  25.979  12.898
 1732W        W68273  31.245  39.478   0.131
 1733W        W68274  36.843  38.311   0.758
 1734W        W68275  26.760   4.583  11.109
 1735W        W68276  28.529   0.579  11.172
 1736W        W68277  39.116   8.247   3.694
 1737W        W68278  26.430  18.202   3.995
 1738W        W68279   8.651  34.553   4.209
 1739W        W68280  15.455  26.928  12.703
 1740W        W68281  24.391  24.276   4.114
 1741W        W68282  24.412   4.880   1.180
 1742W        W68283  44.536  32.749   0.057
 1743W        W68284  13.691   1.780  12.463
 1744W        W68285  21.507  31.005  14.036
 1745W        W68286  43.934  11.914  10.736
 1746W        W68287  27.093  27.334  11.729
 1747W        W68288   0.859  44.154   4.177
 1748W        W68289  27.262  17.798  12.960
 1749W        W68290   1.136  15.641  13.554
 1750W        W68291  27.570  12.307  11.580
 1751W        W68292  29.749  25.393  13.253
 1752W        W68293  30.923  26.396  11.561
 1753W        W68294   9.333  29.135   3.250
 1754W        W68295  21.204  15.062  13.094
 1755W        W68296  43.975  35.207  10.687
 1756W        W68297  37.458  41.336  13.315
 1757W        W68298   0.646  18.821  12.385
 1758W        W68299  32.641   8.321  10.692
 1759W        W68300  40.742  10.923   4.931
 1760W        W68301   9.151  39.892   1.385
 1761W        W68302  34.272  34.070  10.790
 1762W        W68303   5.717  34.665   3.628
 1763W        W68304   0.478  17.052   3.564
 1764W        W68305   2.195  10.215   2.100
 1765W        W68306  36.687   1.020   4.097
 1766W        W68307  10.349  18.271   4.475
 1767W        W68308  38.861  21.091  14.323
 1768W        W68309  20.743  17.598  12.879
 1769W        W68310  31.535  35.228   0.239
 1770W        W68311  39.315  17.984  10.556
 1771W        W68312  42.630  36.673  13.067
 1772W        W68313  39.575  42.563   4.641
 1773W        W68314   7.355  26.423  14.197
 1774W        W68315  13.815  13.249  10.689
 1775W        W68316  29.703  40.064   1.206
 1776W        W68317  25.006  34.129   3.321
 1777W        W68318  18.230  13.547  12.576
 1778W        W68319  35.583  22.029   4.317
 1779W        W68320  28.175  15.754   3.796
 1780W        W68321  44.482  37.425  14.775
 1781W        W68322  44.984   2.999   0.711
 1782W        W68323  12.744  19.655   3.624
 1783W        W68324  31.773  29.028   0.048
 1784W        W68325  34.439  19.576   1.281
 1785W        W68326  19.093  36.152   4.178
 1786W        W68327  35.362   5.985  14.561
 1787W        W68328  33.353   6.017  13.954
 1788W        W68329  44.496   0.253  11.093
 1789W        W68330  38.088  34.623   0.297
 1790W        W68331  10.900  33.070  10.447
 1791W        W68332  22.682  12.283   4.116
 1792W        W68333   7.310  31.336   4.576
 1793W        W68334   0.269  34.518  13.933
 1794W        W68335  42.408   3.035   1.388
 1795W        W68336  10.132   4.424  13.436
 1796W        W68337  41.007  36.894   1.924
 1797W        W68338  26.569  32.963   1.963
 1798W        W68339  24.013  44.319   4.743
 1799W        W68340  22.189  16.682   9.795
 1800W        W68341  17.735  23.657   3.341
 1801W        W68342   4.010   6.766  13.660
 1802W        W68343  44.055  32.566  12.864
 1803W        W68344  34.863  32.262  11.693
 1804W        W68345  41.933   4.563   4.906
 1805W        W68346  34.623  35.180  14.278
 1806W        W68347  41.362  44.468  12.340
 1807W        W68348  14.185  15.250  10.823
 1808W        W68349  34.875  40.986   0.858
 1809W        W68350   1.412  38.346   0.642
 1810W        W68351  44.581  39.297   4.660
 1811W        W68352  22.641  27.698   0.997
 1812W        W68353  18.969  16.120  12.442
 1813W        W68354  30.441  44.935  12.769
 1814W        W68355  23.811   5.328  14.048
 1815W        W68356  16.128  41.885  13.544
 1816W        W68357   9.290  19.070   4.395
 1817W        W68358  43.935  19.245  14.307
 1818W        W68359   7.306  33.586   4.224
 1819W        W68360  21.218  35.529  11.852
 1820W        W68361   1.242  42.234  11.976
 1821W        W68362   9.407   7.753  10.636
 1822W        W68363  20.213   5.586   9.753
 1823W        W68364  31.809   8.691  11.056
 1824W        W68365   4.192  41.825   1.515
 1825W        W68366  12.700  20.685   2.390
 1826W        W68367  42.269  43.849   0.915
 1827W        W68368  41.416   6.158  13.460
 1828W        W68369  24.027  43.402  12.546
 1829W        W68370   7.136  29.904   2.508
 1830W        W68371   6.447  37.848   4.281
 1831W        W68372  10.185   6.791   4.416
 1832W        W68373  29.547  41.980   4.144
 1833W        W68374  33.622   4.108  14.807
 1834W        W68375  10.328  10.066   1.637
 1835W        W68376  23.086  39.261  14.516
 1836W        W68377  10.902  18.100  11.696
 1837W        W68378  40.794  17.973   4.081
 1838W        W68379  28.182  10.090  12.437
 1839W        W68380  44.892  28.268   3.179
 1840W        W68381  43.679  32.555  11.514
 1841W        W68382  29.712  36.102   1.820
 1842W        W68383  40.410  17.722   4.742
 1843W        W68384  34.069   4.635   4.134
 1844W        W68385   8.158  39.003  12.003
 1845W        W68386   9.908  39.469  12.931
 1846W        W68387  11.416   3.425   1.905
 1847W        W68388  18.234  36.376  11.143
 1848W        W68389  31.073  15.168   0.441
 1849W        W68390  37.830   5.181   2.751
 1850W        W68391  34.332  38.590  12.014
 1851W        W68392  20.218  11.722   3.174
 1852W        W68393   7.365  41.682  14.346
 1853W        W68394  44.019   0.682   1.292
 1854W        W68395  11.248  24.272  13.815
 1855W        W68396  25.777  11.498   1.362
 1856W        W68397  20.745   8.763  14.450
 1857W        W68398  28.754  34.048  13.517
 1858W        W68399  34.681  25.827  10.838
 1859W        W68400  32.720  18.061  11.001
 1860W        W68401  20.584  14.607   3.595
 1861W        W68402   2.849  17.800   0.725
 1862W        W68403  44.925  31.504   3.161
 1863W        W68404  31.893   0.881  13.862
 1864W        W68405  42.120  24.931  14.873
 1865W        W68406  11.552  12.360  11.614
 1866W        W68407  36.344  14.560  12.871
 1867W        W68408  19.304  29.586  11.043
 1868W        W68409  25.052  36.848   3.698
 1869W        W68410  39.037  12.037  14.396
 1870W        W68411  11.869  12.737   1.721
 1871W        W68412  44.481   7.077  13.626
 1872W        W68413   5.650   6.215  14.311
 1873W        W68414  16.705   9.634   4.547
 1874W        W68415  28.545  19.476   4.778
 1875W        W68416  16.924  23.825   2.361
 1876W        W68417   5.757  39.460  13.610
 1877W        W68418   9.736  17.717   3.655
 1878W        W68419  22.635  16.512  13.331
 1879W        W68420  34.163   4.535   3.170
 1880W        W68421  28.837  30.016   1.685
 1881W        W68422  26.019  26.191  11.426
 1882W        W68423  43.305   8.756   0.239
 1883W        W68424  32.180  17.942  13.762
 1884W        W68425  27.760  22.764  14.810
 1885W        W68426   0.069  11.167   1.324
 1886W        W68427  42.123  40.560   0.819
 1887W        W68428  22.294  15.520  12.348
 1888W        W68429   5.495  29.634   0.865
 1889W        W68430  10.594   4.123  14.337
 1890W        W68431  39.503  23.541  11.800
 1891W        W68432  41.042  27.044   1.738
 1892W        W68433  19.204  41.597   4.433
 1893W        W68434   8.849  13.378  14.696
 1894W        W68435  19.333  24.653   1.336
 1895W        W68436  17.039  33.567  13.087
 1896W        W68437  15.655  43.757  11.647
 1897W        W68438   5.165   4.688   0.371
 1898W        W68439  13.005  17.022   0.836
 1899W        W68440   6.000   9.241  12.299
 1900W        W68441  24.779   7.310  12.111
 1901W        W68442  41.716  42.023  11.098
 1902W        W68443  37.123  17.701  14.386
 1903W        W68444  35.183  18.176   4.566
 1904W        W68445   0.721  17.182  13.593
 1905W        W68446  32.740  26.111  14.929
 1906W        W68447  19.005  33.886   0.724
 1907W        W68448  22.245  28.039  11.228
 1908W        W68449  12.320  16.115   4.420
 1909W        W68450  13.883  29.643  13.851
 1910W        W68451  21.437   1.416  12.096
 1911W        W68452  31.587   5.466   4.994
 1912W        W68453  17.273  40.280   2.289
 1913W        W68454   7.878  30.575  11.087
 1914W        W68455  39.065  20.114  10.668
 1915W        W68456  31.926   3.003   3.142
 1916W        W68457   1.874  38.351  12.163
 1917W        W68458  21.490   5.455  14.927
 1918W        W68459  40.086   5.380   4.590
 1919W        W68460  23.907  36.299   1.715
 1920W        W68461  17.249  43.905  12.545
 1921W        W68462  37.651  42.175  11.308
 1922W        W68463  22.114   1.917   1.395
 1923W        W68464   4.526  29.646  10.587
 1924W        W68465  18.748  32.046  13.526
 1925W        W68466  18.977   1.992  14.308
 1926W        W68467   3.253  32.768   1.238
 1927W        W68468   9.822  28.683   1.237
 1928W        W68469   7.928  38.412  14.475
 1929W        W68470  10.765  22.490  12.886
 1930W        W68471  33.095  40.608   2.353
 1931W        W68472  36.023  42.778   2.997
 1932W        W68473  16.921   2.061   4.564
 1933W        W68474   6.940  34.340  11.167
 1934W        W68475  29.288  15.209   2.226
 1935W        W68476  25.020  44.824   3.895
 1936W        W68477  21.588  17.830   1.679
 1937W        W68478  33.501   9.404  14.908
 1938W        W68479   6.553  16.640  11.599
 1939W        W68480  23.522  42.175   4.534
 1940W        W68481   5.030  19.712  10.379
 1941W        W68482   9.564  10.899  14.299
 1942W        W68483  40.822  21.510   0.904
 1943W        W68484  12.596  30.634   2.093
 1944W        W68485  17.065  26.374   3.656
 1945W        W68486   9.773  21.798   2.047
 1946W        W68487   6.302  39.885   3.449
 1947W        W68488  37.338   6.137  13.894
 1948W        W68489  28.075  43.301   5.114
 1949W        W68490   5.536  24.504  13.267
 1950W        W68491  38.596   7.004  12.125
 1951W        W68492  18.983  17.447   5.097
 1952W        W68493  42.006  37.965   0.862
 1953W        W68494   6.023  44.937   5.064
 1954W        W68495  23.179  39.335  12.993
 1955W        W68496  20.766   9.796  10.757
 1956W        W68497  38.132  31.547  12.185
 1957W        W68498   2.052  13.698  11.966
 1958W        W68499   0.857  15.714   3.614
 1959W        W68500  37.495  34.537   1.881
 1960W        W68501   2.234  10.713  10.533
 1961W        W68502  25.670  32.146  11.548
 1962W        W68503  19.630  29.079   4.312
 1963W        W68504  13.803  25.169  12.371
 1964W        W68505  21.251  13.625  10.722
 1965W        W68506  21.640  43.862   0.851
 1966W        W68507  18.221  19.837   3.201
 1967W        W68508  38.890  21.670   4.992
 1968W        W68509  24.714  13.843   1.830
 1969W        W68510   3.486  30.384  10.992
 1970W        W68511  23.788   4.780  12.476
 1971W        W68512  22.136  33.526  14.568
 1972W        W68513   5.823  15.983  12.390
 1973W        W68514   1.073   3.419  14.926
 1974W        W68515  10.846  18.740   1.889
 1975W        W68516   5.763  10.278   1.453
 1976W        W68517   5.152  25.075   1.275
 1977W        W68518  24.287  42.755   2.838
 1978W        W68519  20.770  13.242   2.315
 1979W        W68520  12.575   4.800   0.742
 1980W        W68521  29.939  10.965   4.366
 1981W        W68522   3.860  20.103   4.541
 1982W        W68523   6.687   9.703  11.602
 1983W        W68524  42.820  36.655  14.524
 1984W        W68525   5.875  28.576  10.681
 1985W        W68526  36.585  12.311   1.712
 1986W        W68527  18.280   9.273  11.832
 1987W        W68528   9.911   1.722  13.139
 1988W        W68529   7.411  14.293   1.875
 1989W        W68530  38.019  28.503  12.761
 1990W        W68531  40.538  18.938   0.419
 1991W        W68532  39.060  15.319   3.413
 1992W        W68533  32.414   0.459   1.918
 1993W        W68534   1.814  10.172  13.373
 1994W        W68535  44.197  12.208   0.246
 1995W        W68536  29.646  21.890  11.204
 1996W        W68537   0.913  26.002   4.974
 1997W        W68538  20.761  29.656  13.004
 1998W        W68539   7.792  27.928   1.881
 1999W        W68540  16.224  25.947  13.380
 2000W        W68541  13.335   6.297  14.141
 2001W        W68542   0.224  32.723   3.517
 2002W        W68543   4.837  25.670  10.339
 2003W        W68544   0.747  27.679  13.606
 2004W        W68545   2.899  24.801   2.270
 2005W        W68546  35.100   2.052   3.775
 2006W        W68547  11.963  21.193   4.655
 2007W        W68548  20.007   1.001   1.876
 2008W        W68549  35.182  21.558   1.851
 2009W        W68550  32.036   8.363  13.752
 2010W        W68551  38.050  24.384  11.190
 2011W        W68552  33.964  28.826  10.911
 2012W        W68553  30.023  17.985  10.818
 2013W        W68554  19.853  35.028   3.572
 2014W        W68555  13.180  26.413  14.906
 2015W        W68556  30.480  27.094  11.378
 2016W        W68557  40.571  28.731  14.824
 2017W        W68558  26.055  12.082  14.962
 2018W        W68559  30.541  24.132   3.755
 2019W        W68560   9.616  41.906   1.361
 2020W        W68561   0.308   3.323  10.553
 2021W        W68562  21.630  27.726  11.155
 2022W        W68563  28.975  29.945   4.100
 2023W        W68564   5.441  25.641  14.596
 2024W        W68565  11.640   4.335   1.027
 2025W        W68566   0.096  13.250  14.937
 2026W        W68567  18.499  30.480  14.907
 2027W        W68568  40.278  27.026   2.449
 2028W        W68569  36.404  19.691   3.762
 2029W        W68570  31.640  13.339   3.225
 2030W        W68571  31.921   8.406   0.613
 2031W        W68572  22.965  26.215  11.201
 2032W        W68573  18.607  12.688   9.739
 2033W        W68574  38.392  16.712  12.929
 2034W        W68575  25.662   5.956   4.975
 2035W        W68576  28.460  41.469  11.411
 2036W        W68577  32.091  43.066  13.371
 2037W        W68578  21.866   8.090  12.417
 2038W        W68579   3.734  40.571   1.512
 2039W        W68580  35.949   0.967  13.703
 2040W        W68581  30.141  19.731  13.425
 2041W        W68582   7.617  29.010  14.543
 2042W        W68583  43.940  40.722   3.769
 2043W        W68584   0.022   7.494   0.262
 2044W        W68585   3.269  12.353  11.665
 2045W        W68586  43.759  28.622  14.286
 2046W        W68587   7.453  30.479  13.150
 2047W        W68588   2.985  11.067  12.596
 2048W        W68589   6.820   1.055   3.954
 2049W        W68590  11.554   0.171   1.252
 2050W        W68591  38.776  33.352  14.940
 2051W        W68592  11.407  20.797  12.937
 2052W        W68593  26.144  25.883  14.937
 2053W        W68594  16.312  26.325  10.519
 2054W        W68595  35.456   9.706  10.968
 2055W        W68596  31.537  26.921  13.370
 2056W        W68597  18.811  36.463  13.515
 2057W        W68598  15.732  36.429  14.764
 2058W        W68599  36.935  13.910   3.599
 2059W        W68600  13.213  33.689   4.190
 2060W        W68601   8.323  31.011  10.717
 2061W        W68602  34.964  36.481  12.538
 2062W        W68603  13.811  28.591  12.943
 2063W        W68604  36.916  25.493   0.488
 2064W        W68605  21.567  29.089   3.630
 2065W        W68606  31.381  22.161   3.306
 2066W        W68607  16.557  31.862   2.998
 2067W        W68608  14.934  33.392   4.470
 2068W        W68609  32.427  34.984   1.720
 2069W        W68610  15.124  32.913  12.015
 2070W        W68611  36.631  14.307   2.764
 2071W        W68612   3.864   6.438  11.516
 2072W        W68613  27.002  10.360   1.894
 2073W        W68614   9.333  38.934  11.809
 2074W        W68615   0.237  27.608   3.704
 2075W        W68616  13.749   3.211  11.155
 2076W        W68617  29.950  17.137   4.190
 2077W        W68618  13.087  33.637  13.410
 2078W        W68619  14.900  40.321  12.019
 2079W        W68620  10.644  38.011  12.322
 2080W        W68621  12.697  19.644  13.267
 2081W        W68622   5.003  43.359  12.917
 2082W        W68623  24.460  13.195   2.361
 2083W        W68624   9.658  23.621   3.837
 2084W        W68625  26.181  19.002   4.196
 2085W        W68626  37.533   8.571  11.910
 2086W        W68627  18.347  18.192   2.784
 2087W        W68628  41.080  25.012   3.207
 2088W        W68629   5.465   1.930   0.243
 2089W        W68630   7.277  36.784   0.514
 2090W        W68631   0.116   9.603  12.475
 2091W        W68632  32.925  39.126   1.803
 2092W        W68633  21.134  44.559  12.805
 2093W        W68634  32.415  25.137   1.701
 2094W        W68635  27.204  31.375  11.990
 2095W        W68636   8.858  42.282   1.936
 2096W        W68637  17.497  28.830   1.943
 2097W        W68638   3.081  16.576   1.240
 2098W        W68639  25.700  43.507  14.515
 2099W        W68640  34.252  25.473  11.974
 2100W        W68641  17.042   2.418  11.991
 2101W        W68642  22.262  43.888  11.353
 2102W        W68643   2.726  37.849  12.451
 2103W        W68644  29.325  40.884  12.541
 2104W        W68645  39.065  22.357   0.679
 2105W        W68646   5.271  16.768   0.619
 2106W        W68647  38.109  41.432   1.831
 2107W        W68648  38.878  12.418   1.818
 2108W        W68649  27.217  31.095  13.810
 2109W        W68650   2.213  10.664  13.045
 2110W        W68651  25.218   8.700  11.595
 2111W        W68652  19.168  34.237   3.758
 2112W        W68653  17.641  20.443   4.159
 2113W        W68654  41.449   4.888   0.025
 2114W        W68655  10.676  30.019   0.362
 2115W        W68656  27.010   0.165   4.111
 2116W        W68657   9.350  21.744   2.338
 2117W        W68658  31.610  43.503   3.619
 2118W        W68659  16.086  42.929   4.506
 2119W        W68660  24.156  21.195   1.881
 2120W        W68661  11.169   3.222  13.509
 2121W        W68662  15.269  37.015   1.973
 2122W        W68663  11.734  11.745   3.553
 2123W        W68664  32.825  26.670  14.874
 2124W        W68665  10.204  24.246  12.126
 2125W        W68666  17.076  22.569   4.569
 2126W        W68667  43.341  44.504   0.938
 2127W        W68668   0.402  27.102   3.665
 2128W        W68669  26.652  29.978  11.234
 2129W        W68670  23.021   0.850   2.203
 2130W        W68671  10.092  25.433   4.975
 2131W        W68672   5.811  24.690   3.433
 2132W        W68673  30.833  14.228  12.444
 2133W        W68674  12.898  18.171   2.654
 2134W        W68675  26.627  43.304   2.233
 2135W        W68676  13.784   2.950  14.291
 2136W        W68677  16.882   7.045  13.397
 2137W        W68678  31.270  18.631  11.887
 2138W        W68679  25.878  23.594  13.357
 2139W        W68680  39.441  25.049   2.818
 2140W        W68681  33.870  22.430  14.062
 2141W        W68682  11.603   9.240  12.433
 2142W        W68683  40.148  40.506  10.389
 2143W        W68684  25.213   9.811  11.752
 2144W        W68685  13.493  28.482   2.329
 2145W        W68686  37.849  25.627   2.339
 2146W        W68687  16.007  20.369   3.139
 2147W        W68688  14.640  21.997   0.755
 2148W        W68689  28.980   0.669   3.108
 2149W        W68690   5.202  19.022   1.234
 2150W        W68691  32.633  30.607   3.331
 2151W        W68692  30.393   7.331   2.269
 2152W        W68693  43.071  18.131   0.033
 2153W        W68694  33.317  28.500  14.829
 2154W        W68695  29.052  18.162  10.599
 2155W        W68696   8.744   5.612  14.924
 2156W        W68697  13.292  16.520   4.165
 2157W        W68698  13.854   9.556   1.205
 2158W        W68699  41.297   0.003  10.685
 2159W        W68700  19.595  21.707  13.404
 2160W        W68701  23.691  29.203  12.457
 2161W        W68702  13.648  26.078  12.143
 2162W        W68703  20.423  35.569  11.414
 2163W        W68704  27.922  20.697   0.954
 2164W        W68705  19.481  15.756  14.745
 2165W        W68706  30.022   6.700  11.140
 2166W        W68707  12.333  17.554  13.060
 2167W        W68708  31.408  20.213  14.438
 2168W        W68709  31.007  35.625   3.422
 2169W        W68710   8.853   7.916   1.382
 2170W        W68711  22.326  23.579  10.589
 2171W        W68712  27.513  28.577  11.439
 2172W        W68713  24.990   4.861  14.024
 2173W        W68714   7.428  44.153   0.307
 2174W        W68715  28.664  18.688   4.100
 2175W        W68716  19.230   1.958   0.919
 2176W        W68717  27.117  17.733  12.215
 2177W        W68718  43.469  37.974  14.042
 2178W        W68719  28.046   2.543   0.415
 2179W        W68720  31.665  35.940   0.953
 2180W        W68721  26.495  27.137   2.611
 2181W        W68722   1.133  25.426  11.223
 2182W        W68723   1.346  40.379  13.013
 2183W        W68724  36.159  23.463  14.493
 2184W        W68725  18.357  21.210  13.336
 2185W        W68726  10.187  36.963  12.926
 2186W        W68727  11.433  24.681  14.735
 2187W        W68728  12.797  11.731  12.934
 2188W        W68729  19.595  38.882  13.632
 2189W        W68730   0.483  39.000   1.786
 2190W        W68731   3.725  37.884   0.266
 2191W        W68732  20.589   4.947   4.564
 2192W        W68733  30.974   2.256   3.639
 2193W        W68734  14.814   3.220  12.953
 2194W        W68735  23.076  12.277  12.433
 2195W        W68736  10.345   2.239   0.258
 2196W        W68737   4.540  43.446   0.797
 2197W        W68738  22.597   6.347  13.928
 2198W        W68739  36.973  31.944   0.892
 2199W        W68740  21.678  24.740   3.259
 2200W        W68741   5.360   6.974   3.688
 2201W        W68742  44.084  29.453   1.680
 2202W        W68743  23.970  25.641   3.347
 2203W        W68744   6.641  22.600   2.805
 2204W        W68745  39.757  10.185   2.266
 2205W        W68746   7.887  24.727  11.693
 2206W        W68747  21.760   4.548  12.388
 2207W        W68748  37.800  39.261  14.117
 2208W        W68749  24.457  28.039  14.784
 2209W        W68750  19.243  14.892   2.826
 2210W        W68751  13.267  23.137   3.837
 2211W        W68752  27.539  38.009   3.360
 2212W        W68753  42.535  17.754  13.955
 2213W        W68754  27.344  33.542  10.219
 2214W        W68755  34.088   0.904  11.599
 2215W        W68756  14.423  32.563  11.326
 2216W        W68757  33.705  16.375   3.281
 2217W        W68758  44.575   3.717  10.791
 2218W        W68759   9.227  17.407   2.044
 2219W        W68760  39.802  28.892   1.278
 2220W        W68761  28.444  23.620  13.449
 2221W        W68762  19.462  31.685  12.540
 2222W        W68763  17.142   3.011  10.476
 2223W        W68764  15.711  39.220  10.597
 2224W        W68765   0.003  23.693   0.877
 2225W        W68766   4.531  33.443   4.713
 2226W        W68767  24.483  26.470   1.717
 2227W        W68768   1.834  24.220   2.969
 2228W        W68769  13.589   6.169   0.897
 2229W        W68770  43.956  16.617   1.702
 2230W        W68771  24.752  21.914   1.788
 2231W        W68772  44.705  22.729   3.635
 2232W        W68773  13.370  24.475  12.996
 2233W        W68774  29.325   5.863  11.874
 2234W        W68775  36.555  36.043  14.311
 2235W        W68776  39.089  17.013  12.994
 2236W        W68777  16.545  42.733   0.252
 2237W        W68778   4.153  30.880  10.707
 2238W        W68779  21.704  20.136  10.821
 2239W        W68780  39.309  21.798   3.731
 2240W        W68781  39.720   6.830  13.899
 2241W        W68782  38.381  15.501   4.805
 2242W        W68783  10.083   4.143  14.528
 2243W        W68784  12.666  10.259  12.079
 2244W        W68785  27.905   4.210   1.199
 2245W        W68786  21.608  31.406   1.760
 2246W        W68787   1.539  40.678   3.523
 2247W        W68788  26.348   9.093  13.548
 2248W        W68789  14.393   8.948  13.415
 2249W        W68790  38.762  26.505  14.366
 2250W        W68791   7.673  41.000   4.476
 2251W        W68792  41.904   5.836  11.089
 2252W        W68793  36.040   7.175  13.444
 2253W        W68794  34.516   6.810  10.633
 2254W        W68795  28.773  35.682  10.653
 2255W        W68796  42.947  14.071  13.426
 2256W        W68797  43.489  22.577   1.801
 2257W        W68798  12.626   2.788  11.526
 2258W        W68799  24.244  22.749   1.652
 2259W        W68800  39.418  44.288  11.185
 2260W        W68801  42.578  39.602  14.333
 2261W        W68802  18.670   8.563   3.575
 2262W        W68803   9.859   2.315  14.333
 2263W        W68804  15.548   2.460  13.042
 2264W        W68805  12.338  37.093   0.771
 2265W        W68806  33.231  32.804  12.416
 2266W        W68807  15.322  12.130   0.435
 2267W        W68808  38.592  18.661  14.376
 2268W        W68809  28.157  33.096  12.329
 2269W        W68810  25.401  17.072  13.633
 2270W        W68811  21.673  42.300   2.224
 2271W        W68812  34.974   9.757  12.559
 2272W        W68813  39.994  26.612   2.310
 2273W        W68814   5.309  38.998  12.086
 2274W        W68815  34.661  32.541   4.260
 2275W        W68816  41.671  19.913  11.555
 2276W        W68817  43.905  20.898  11.100
 2277W        W68818  10.895   3.735   0.302
 2278W        W68819  17.971  44.725  14.499
 2279W        W68820   8.736   2.717  14.853
 2280W        W68821   2.263  36.991  14.777
 2281W        W68822  35.824  31.863  10.861
 2282W        W68823  43.822  44.295  12.057
 2283W        W68824  32.475  18.905  14.543
 2284W        W68825  14.651  25.595   0.426
 2285W        W68826   8.730  24.332  12.147
 2286W        W68827  43.919  11.554   0.014
 2287W        W68828  33.957  28.251   1.893
 2288W        W68829  25.251  23.144  12.555
 2289W        W68830  33.018  26.021   1.387
 2290W        W68831  19.705  11.671   4.879
 2291W        W68832  41.918   1.005  13.529
 2292W        W68833   6.619  41.009   4.255
 2293W        W68834  19.751  20.769   2.387
 2294W        W68835  32.844   3.672  13.955
 2295W        W68836  36.955  33.587   4.623
 2296W        W68837  27.604  20.545   4.287
 2297W        W68838   4.301  34.474   5.221
 2298W        W68839  28.893  24.136   4.602
 2299W        W68840  20.002  28.703   4.327
 2300W        W68841  29.145  31.482  12.065
 2301W        W68842  14.728  27.151   4.590
 2302W        W68843  16.192  37.359   1.788
 2303W        W68844   0.343   8.770  10.625
 2304W        W68845  16.688  11.091  11.853
 2305W        W68846  29.946   9.419   3.404
 2306W        W68847  13.145  23.531   2.828
 2307W        W68848   9.309   6.457  14.102
 2308W        W68849  41.961  32.315  13.363
 2309W        W68850   4.884  34.023  11.932
 2310W        W68851  17.742  18.828   0.027
 2311W        W68852  17.118  28.839  12.765
 2312W        W68853  29.560  27.854   2.720
 2313W        W68854  32.077  14.203   0.959
 2314W        W68855  27.694  29.838  11.837
 2315W        W68856   7.280  21.053   0.181
 2316W        W68857  30.078  19.711  12.161
 2317W        W68858  42.253  33.690  12.621
 2318W        W68859  38.061  22.956  13.874
 2319W        W68860  10.177  13.120  11.900
 2320W        W68861  20.246  41.440   0.887
 2321W        W68862  16.569  36.961  14.968
 2322W        W68863   4.342   0.828  13.437
 2323W        W68864  15.694   8.934  13.923
 2324W        W68865  40.580  27.998   1.909
 2325W        W68866  23.563  44.048   3.146
 2326W        W68867  28.026  42.040  13.451
 2327W        W68868  26.747  27.233   1.630
 2328W        W68869   6.176  36.508  13.118
 2329W        W68870   4.635  35.416  13.448
 2330W        W68871  32.212  15.589   2.107
 2331W        W68872  26.464  31.200   0.467
 2332W        W68873   4.674  33.533  12.005
 2333W        W68874  33.665   5.939  13.522
 2334W        W68875  30.715  41.287  13.418
 2335W        W68876   1.808  16.673  13.425
 2336W        W68877   9.057  17.023   2.358
 2337W        W68878  27.609  25.727   2.888
 2338W        W68879  16.772  28.608   1.653
 2339W        W68880  28.607  43.450   3.084
 2340W        W68881   9.583   4.868  11.549
 2341W        W68882  38.407  44.227   0.179
 2342W        W68883   2.409  44.927   3.696
 2343W        W68884  23.286   2.980  14.114
 2344W        W68885  28.922  28.720   3.688
 2345W        W68886  36.614  24.606  11.002
 2346W        W68887  21.985  19.606   3.644
 2347W        W68888  36.954   9.317   1.101
 2348W        W68889  30.491   9.364   2.699
 2349W        W68890  33.708  31.608  12.679
 2350W        W68891  26.730  19.662   4.382
 2351W        W68892  26.106   1.504   1.463
 2352W        W68893   1.401   1.622   4.950
 2353W        W68894   2.722  28.543   3.104
 2354W        W68895   1.361  39.843  12.939
 2355W        W68896  43.571  33.209   3.718
 2356W        W68897  27.997  32.597  12.237
 2357W        W68898  37.767  17.060  10.777
 2358W        W68899  11.232   9.489  12.038
 2359W        W68900  23.469  15.179  14.228
 2360W        W68901  32.724  16.740   0.005
 2361W        W68902   8.701  32.181   4.190
 2362W        W68903   9.839  16.682  12.371
 2363W        W68904  12.688   4.596  11.846
 2364W        W68905  15.342  24.455  12.018
 2365W        W68906  21.453  31.221  14.898
 2366W        W68907  39.242  15.325  12.732
 2367W        W68908   4.901  14.135   3.583
 2368W        W68909  32.514  43.671  14.691
 2369W        W68910   3.266  43.672  11.272
 2370W        W68911  33.910  19.244  13.389
 2371W        W68912  12.572   7.750   2.927
 2372W        W68913   2.217  10.670   1.893
 2373W        W68914  30.099  11.226  13.434
 2374W        W68915  32.489   4.280   3.997
 2375W        W68916  10.168  42.285   0.010
 2376W        W68917  42.219  22.702   1.936
 2377W        W68918   0.479  33.463  12.420
 2378W        W68919  41.455  39.915   4.301
 2379W        W68920  11.081  36.079  11.657
 2380W        W68921  16.313  19.666   1.326
 2381W        W68922  23.695  31.942  10.588
 2382W        W68923  18.723  39.408  12.071
 2383W        W68924  30.863  30.337  14.069
 2384W        W68925   7.669  35.424   0.872
 2385W        W68926  39.326  43.321   1.876
 2386W        W68927  37.190   0.863   3.978
 2387W        W68928  36.434  43.279   0.265
 2388W        W68929  34.600   2.933  14.728
 2389W        W68930  11.258  44.288   0.355
 2390W        W68931  10.241  18.021  14.960
 2391W        W68932   1.494   0.830   3.802
 2392W        W68933  18.067  23.310  12.094
 2393W        W68934  38.074  19.080  11.117
 2394W        W68935   5.923  23.255   0.216
 2395W        W68936  11.328  30.726   1.992
 2396W        W68937  44.906  43.218  11.121
 2397W        W68938  37.345  35.047  12.971
 2398W        W68939  11.987   9.185   3.385
 2399W        W68940  42.561  19.268  14.870
 2400W        W68941  24.016   2.970  12.126
 2401W        W68942  37.322  30.829  11.987
 2402W        W68943  17.281  19.261  13.465
 2403W        W68944   6.564  36.783  13.340
 2404W        W68945  32.098  38.817  12.516
 2405W        W68946  26.534   6.880   3.349
 2406W        W68947  44.717  43.520   4.095
 2407W        W68948  26.599  43.547   4.706
 2408W        W68949  26.899   5.607  14.814
 2409W        W68950  41.889  19.842  13.432
 2410W        W68951  11.740  15.985   0.778
 2411W        W68952  16.859   6.169   4.664
 2412W        W68953  38.291  38.855   2.125
 2413W        W68954  41.393  11.627   1.791
 2414W        W68955  25.876  25.516   1.336
 2415W        W68956  36.219   0.679   3.677
 2416W        W68957  27.600   2.345  13.885
 2417W        W68958  40.093  22.764   3.847
 2418W        W68959  42.078  33.979  10.612
 2419W        W68960  37.042  36.371  12.947
 2420W        W68961   2.421   0.396   1.283
 2421W        W68962  31.106  33.807   0.921
 2422W        W68963   9.848  32.852   3.676
 2423W        W68964  37.499   6.856  11.181
 2424W        W68965  40.012  16.317   2.788
 2425W        W68966  15.773  37.887  10.223
 2426W        W68967  36.460  38.032   2.839
 2427W        W68968  34.619  34.045   1.301
 2428W        W68969   4.506   4.203  12.358
 2429W        W68970  34.840  12.765  13.863
 2430W        W68971   4.466  34.313  10.364
 2431W        W68972  34.970   0.989  14.901
 2432W        W68973  26.097  41.017   2.992
 2433W        W68974  35.823  22.923  13.654
 2434W        W68975  27.068  20.105   0.128
 2435W        W68976  39.961  17.066  11.225
 2436W        W68977  26.195   9.237  14.491
 2437W        W68978  16.943  14.268   4.677
 2438W        W68979  35.476  29.904   4.762
 2439W        W68980  10.537   3.416   5.094
 2440W        W68981  37.689  16.474   3.091
 2441W        W68982  28.971  41.261   3.546
 2442W        W68983  20.254  41.327   2.718
 2443W        W68984  24.394  31.643   4.257
 2444W        W68985  27.725  29.997  10.986
 2445W        W68986  32.580  44.508  14.413
 2446W        W68987   9.327  23.070   2.725
 2447W        W68988  26.799   6.173   4.908
 2448W        W68989  32.562  24.207   4.814
 2449W        W68990  40.467  29.845   3.335
 2450W        W68991  27.061   8.901  14.904
 2451W        W68992  25.665  40.416  10.754
 2452W        W68993   3.678  12.674  11.525
 2453W        W68994  37.904   2.452  14.533
 2454W        W68995  13.673   0.889  12.416
 2455W        W68996  19.069  31.975   4.978
 2456W        W68997  30.402  11.774   3.087
 2457W        W68998  19.182   8.874   0.822
 2458W        W68999  20.343   9.939   1.934
 2459W        W69000  14.121  25.276  13.174
 2460W        W69001  28.458  33.628  13.670
 2461W        W69002   4.265  38.354  11.690
 2462W        W69003  26.978  40.884   2.196
 2463W        W69004  13.573  35.864   4.550
 2464W        W69005  29.346   5.268   3.537
 2465W        W69006  35.510  33.860  14.507
 2466W        W69007  43.828  39.991  12.376
 2467W        W69008  26.769  24.421  13.318
 2468W        W69009  24.773  34.504   3.599
 2469W        W69010  13.766  23.657  13.943
 2470W        W69011   7.479   3.538   4.138
 2471W        W69012   4.696  38.508   1.954
 2472W        W69013  17.392   9.728   1.848
 2473W        W69014   2.293  44.926   1.433
 2474W        W69015  40.134  24.600  11.055
 2475W        W69016   9.920  44.112   4.270
 2476W        W69017  27.623  38.636  14.800
 2477W        W69018  19.694  16.828  10.237
 2478W        W69019  15.527  20.764   3.868
 2479W        W69020  28.915  17.694   3.740
 2480W        W69021  22.156  36.465   2.340
 2481W        W69022  38.164  17.714  13.564
 2482W        W69023  30.171  11.406   2.636
 2483W        W69024   1.230  44.246  14.239
 2484W        W69025  20.072   5.829   4.598
 2485W        W69026  40.777  12.747   3.990
 2486W        W69027  14.253   0.270   2.688
 2487W        W69028  44.968   0.286   2.742
 2488W        W69029  40.997   3.573  11.051
 2489W        W69030  16.133  25.121   4.799
 2490W        W69031   1.180  12.814   1.737
 2491W        W69032  20.861  39.398  14.992
 2492W        W69033   5.350   6.440   0.281
 2493W        W69034  19.607  12.932   2.833
 2494W        W69035   7.565  35.098   3.846
 2495W        W69036   6.465  37.399   0.008
 2496W        W69037  28.817   1.107   2.116
 2497W        W69038  32.383  20.006  11.601
 2498W        W69039   3.910  38.019  11.844
 2499W        W69040  35.774   8.802  11.132
 2500W        W69041  37.536  32.064  13.559
 2501W        W69042   2.000  35.480   1.411
 2502W        W69043   5.392  44.917  11.849
 2503W        W69044   7.215  20.826   4.341
 2504W        W69045  21.461   1.707  13.081
 2505W        W69046  30.549  17.716   3.787
 2506W        W69047  36.872  43.449   3.270
 2507W        W69048  28.695   8.104  11.203
 2508W        W69049   8.894  21.695  11.709
 2509W        W69050  33.429   4.033   4.275
 2510W        W69051  44.550  43.583  11.037
 2511W        W69052   6.513  25.104   1.972
 2512W        W69053  28.411  29.943  12.458
 2513W        W69054   7.269  31.595   4.127
 2514W        W69055   9.026  12.699  12.486
 2515W        W69056   9.982  38.996   3.135
 2516W        W69057  14.829  24.773   4.647
 2517W        W69058  16.848  30.192  13.423
 2518W        W69059  27.724  32.871   4.566
 2519W        W69060  19.635  37.304  13.862
 2520W        W69061  30.888   3.676   3.817
 2521W        W69062  36.253  35.079   0.642
 2522W        W69063  43.822  17.874  14.331
 2523W        W69064  21.538   8.636   2.354
 2524W        W69065   0.116  38.299  10.411
 2525W        W69066  24.707  25.226  13.013
 2526W        W69067  20.234   6.615  13.854
 2527W        W69068  38.996  22.121  11.167
 2528W        W69069   2.460   6.487  13.481
 2529W        W69070   5.948   8.845  14.739
 2530W        W69071  13.911  29.373  14.713
 2531W        W69072  14.157  31.385   0.420
 2532W        W69073  34.306   6.352   0.399
 2533W        W69074   7.124  10.315   0.252
 2534W        W69075  41.853  28.980   3.830
 2535W        W69076  14.002  32.420  13.991
 2536W        W69077  42.704  11.714   4.999
 2537W        W69078  36.849   3.001  14.074
 2538W        W69079  16.951  35.619   0.409
 2539W        W69080  43.936  18.584   3.270
 2540W        W69081  38.359   7.414  11.325
 2541W        W69082  40.981  11.006  11.910
 2542W        W69083  21.203  12.085  12.079
 2543W        W69084  41.881  20.041   1.755
 2544W        W69085   2.383  36.380  12.532
 2545W        W69086   5.480  34.461  13.403
 2546W        W69087  11.281   8.368  13.952
 2547W        W69088  40.961  12.245   5.232
 2548W        W69089  29.629  33.003   0.954
 2549W        W69090   0.717   1.587  11.806
 2550W        W69091   5.894   2.958   2.043
 2551W        W69092  28.970  44.935  14.913
 2552W        W69093  28.497  31.708   2.467
 2553W        W69094   9.697   2.868  12.156
 2554W        W69095  29.717   3.958   1.433
 2555W        W69096  11.835  44.335  13.701
 2556W        W69097   9.691  44.065  11.965
 2557W        W69098   7.622   0.646   2.918
 2558W        W69099  14.167  19.007  11.195
 2559W        W69100  24.430   6.205   9.834
 2560W        W69101  27.256   2.023   3.695
 2561W        W69102  43.081  14.976  11.861
 2562W        W69103  43.431  40.314   2.660
 2563W        W69104   4.145  19.745   2.835
 2564W        W69105  16.645  30.875   2.773
 2565W        W69106   8.189   3.225   3.483
 2566W        W69107  16.565  26.608   0.541
 2567W        W69108  25.044   5.753  12.577
 2568W        W69109  19.295  26.814   0.297
 2569W        W69110  35.824  29.772   3.814
 2570W        W69111  34.754  30.014   3.467
 2571W        W69112   3.442  12.107   4.283
 2572W        W69113  20.058  11.711  10.254
 2573W        W69114  25.049   7.203   2.504
 2574W        W69115  31.179  16.051  10.220
 2575W        W69116  11.417  33.198  14.372
 2576W        W69117  37.980  44.982   0.423
 2577W        W69118  21.069  30.395  10.156
 2578W        W69119  37.930  18.654  12.861
 2579W        W69120  18.241  44.705   1.247
 2580W        W69121  26.247  29.102   4.219
 2581W        W69122  25.714  10.618  11.118
 2582W        W69123  32.832  13.960  10.294
 2583W        W69124  20.301  33.723  13.221
 2584W        W69125  14.620  26.675   4.868
 2585W        W69126  42.643   8.653   4.335
 2586W        W69127  10.517  32.700  12.232
 2587W        W69128  31.376   3.511   3.674
 2588W        W69129   0.898   3.503   4.273
 2589W        W69130  12.597   0.978   4.042
 2590W        W69131  10.162  23.986  11.660
 2591W        W69132  21.209  19.563  12.564
 2592W        W69133   5.740  25.199   1.739
 2593W        W69134  10.347  29.069   4.095
 2594W        W69135  36.932  44.970   4.263
 2595W        W69136  13.100  35.418  12.395
 2596W        W69137  29.933  10.666  14.690
 2597W        W69138  18.257  42.938   1.212
 2598W        W69139  39.457   0.194  12.965
 2599W        W69140  35.915  42.241   2.417
 2600W        W69141  30.639  17.345   0.882
 2601W        W69142  21.699  40.801  14.980
 2602W        W69143  43.876   1.942   2.878
 2603W        W69144  15.736   5.202   0.910
 2604W        W69145  28.936  40.780   0.022
 2605W        W69146  31.426   2.836   2.404
 2606W        W69147  16.652  18.469   3.129
 2607W        W69148   9.054   8.231  11.981
 2608W        W69149   4.749  23.913  10.829
 2609W        W69150   2.438  31.078   0.681
 2610W        W69151   8.628  11.343   1.501
 2611W        W69152  43.761   1.277   4.664
 2612W        W69153  42.190   4.146   4.677
 2613W        W69154  20.646   8.820   4.442
 2614W        W69155  11.966  30.404   2.778
 2615W        W69156  27.521  39.519   4.773
 2616W        W69157  12.992  14.116  12.881
 2617W        W69158  43.800  19.500  12.596
 2618W        W69159  16.321   5.733   1.502
 2619W        W69160  41.527  32.811  13.823
 2620W        W69161  16.954  23.889   9.991
 2621W        W69162   6.878  12.848   4.684
 2622W        W69163  16.278  16.104  11.104
 2623W        W69164   0.524  40.656   1.861
 2624W        W69165  44.817   2.046  10.763
 2625W        W69166  27.147  24.534  14.053
 2626W        W69167   6.721  30.991  14.903
 2627W        W69168  36.131  21.166  12.150
 2628W        W69169  36.664  27.998  13.369
 2629W        W69170  19.488   9.219   3.104
 2630W        W69171  36.384  31.393  11.148
 2631W        W69172  13.703  11.266  13.263
 2632W        W69173  30.163  29.712  12.180
 2633W        W69174  42.103  17.633  12.052
 2634W        W69175  29.136   6.875   0.760
 2635W        W69176  32.455   1.736   4.673
 2636W        W69177  36.971  22.030   0.364
 2637W        W69178  21.569   6.660  13.483
 2638W        W69179   2.773  24.025   1.782
 2639W        W69180  36.883  11.357   1.305
 2640W        W69181  10.767   4.051  10.644
 2641W        W69182  37.838  10.768   0.451
 2642W        W69183  12.785  34.072  13.456
 2643W        W69184  44.140  18.021  11.676
 2644W        W69185   8.382  15.049  14.426
 2645W        W69186  19.715   8.758   3.833
 2646W        W69187  12.290  37.949   4.527
 2647W        W69188   5.333   0.993   3.330
 2648W        W69189  17.360  31.916  13.459
 2649W        W69190  26.174  20.547   2.337
 2650W        W69191  12.572   2.923  12.474
 2651W        W69192  11.160   5.442   4.150
 2652W        W69193  30.699  40.021   0.738
 2653W        W69194  42.817  26.494   4.418
 2654W        W69195  34.148  39.976  11.632
 2655W        W69196  42.220  29.572  13.073
 2656W        W69197  35.706  13.309   0.323
 2657W        W69198   7.456  26.067   4.271
 2658W        W69199  38.091  16.608  10.708
 2659W        W69200   7.354  19.851   4.107
 2660W        W69201   2.085  10.851  11.094
 2661W        W69202   6.303  37.809   3.170
 2662W        W69203   4.227   7.919   1.697
 2663W        W69204  22.819  25.225  11.217
 2664W        W69205   7.081  30.635   0.513
 2665W        W69206  27.442  13.389  12.646
 2666W        W69207  40.189  27.710  12.064
 2667W        W69208  11.122  22.123  10.693
 2668W        W69209  35.700  15.188   2.074
 2669W        W69210   4.365  27.994  14.754
 2670W        W69211   6.801  30.998   0.792
 2671W        W69212  24.210   8.555  12.653
 2672W        W69213   2.052  15.240   2.563
 2673W        W69214  27.224  18.756  12.591
 2674W        W69215  17.792  35.901  12.905
 2675W        W69216  37.885  24.585  10.756
 2676W        W69217  15.807  27.628  10.226
 2677W        W69218  36.422   7.042  14.253
 2678W        W69219  44.821  19.071  13.319
 2679W        W69220   5.635  41.915   1.311
 2680W        W69221   1.026  30.997   2.633
 2681W        W69222   4.436  13.463  12.579
 2682W        W69223  35.046  22.602   4.109
 2683W        W69224  16.298  40.292   1.734
 2684W        W69225  18.425  26.443   4.139
 2685W        W69226   9.965   5.030  11.860
 2686W        W69227  23.651   9.110   1.859
 2687W        W69228  19.082  33.068  14.385
 2688W        W69229  28.531  30.141   0.240
 2689W        W69230  16.641   4.956  10.702
 2690W        W69231  38.809  21.810  14.785
 2691W        W69232  29.992  32.386  11.149
 2692W        W69233   6.086   8.797   4.370
 2693W        W69234  19.174  43.144  13.405
 2694W        W69235  13.060  44.566   3.979
 2695W        W69236   9.363  27.953  14.958
 2696W        W69237  12.714  30.575   4.277
 2697W        W69238  20.658  25.089   3.266
 2698W        W69239  42.380  44.396  12.948
 2699W        W69240  17.342  26.855   1.700
 2700W        W69241  32.597  32.381   1.924
 2701W        W69242  24.229  42.415   3.237
 2702W        W69243  34.700  34.836   4.871
 2703W        W69244   0.539   4.200  11.751
 2704W        W69245  13.536  39.997  13.065
 2705W        W69246   0.360  19.019   3.657
 2706W        W69247  27.612  27.814   1.074
 2707W        W69248  17.545  18.760   3.615
 2708W        W69249  43.958  12.597   2.319
 2709W        W69250  21.199  20.834   4.388
 2710W        W69251  32.321  39.721   3.654
 2711W        W69252  23.126  39.049   2.225
 2712W        W69253  29.145   0.708  13.396
 2713W        W69254   6.946   7.942  11.552
 2714W        W69255  18.751  38.309  11.000
 2715W        W69256  20.742  10.264  10.997
 2716W        W69257   0.193  35.285  11.790
 2717W        W69258  31.513   8.213   0.986
 2718W        W69259  13.074   7.361  14.871
 2719W        W69260  26.938  36.981  10.592
 2720W        W69261  43.408  24.049   3.585
 2721W        W69262  43.545   4.788  13.048
 2722W        W69263   5.342  39.067  13.042
 2723W        W69264  18.732  32.630  12.388
 2724W        W69265   8.354  15.222   1.171
 2725W        W69266   7.660  26.781   4.523
 2726W        W69267  29.140  24.749  11.625
 2727W        W69268  15.700  28.208   0.805
 2728W        W69269  10.663  24.251  13.438
 2729W        W69270  29.905  23.525  11.597
 2730W        W69271  21.783  43.146  13.952
 2731W        W69272   1.205  36.241  14.437
 2732W        W69273   1.808  25.244   3.127
 2733W        W69274  16.714  22.531  11.166
 2734W        W69275  15.518   7.680  14.903
 2735W        W69276  40.456   1.647  14.307
 2736W        W69277  24.142  20.155   2.119
 2737W        W69278   3.934  29.189  12.291
 2738W        W69279   0.362  23.237   3.853
 2739W        W69280  30.653  39.939   1.747
 2740W        W69281  38.083   3.383   0.382
 2741W        W69282  19.192  38.926   0.362
 2742W        W69283   4.782  20.071   0.633
 2743W        W69284  28.245  43.805   3.261
 2744W        W69285  28.773  12.812   2.823
 2745W        W69286  14.140  19.699   2.675
 2746W        W69287   9.070  18.621   4.537
 2747W        W69288   7.840  35.968   0.667
 2748W        W69289   9.245  26.061   3.566
 2749W        W69290  13.810   3.388  14.014
 2750W        W69291  40.808   3.357  13.717
 2751W        W69292  28.599  30.394   4.807
 2752W        W69293  27.719   2.233   3.639
 2753W        W69294   1.990  33.993   5.520
 2754W        W69295  19.589   7.735  12.890
 2755W        W69296  31.169  16.534  14.850
 2756W        W69297   4.976  38.959  14.011
 2757W        W69298  43.411  26.667  11.755
 2758W        W69299   2.709  25.055   3.153
 2759W        W69300  22.205  36.638  11.788
 2760W        W69301  43.500   1.692  14.898
 2761W        W69302  37.993   8.765   0.654
 2762W        W69303  16.233  14.071   0.434
 2763W        W69304  33.960   4.946  14.793
 2764W        W69305  36.667   9.022   4.164
 2765W        W69306  10.437  32.948  10.723
 2766W        W69307   4.409   9.805  10.816
 2767W        W69308  23.702  24.795  11.259
 2768W        W69309   0.928  20.746  14.483
 2769W        W69310  44.799  25.711  13.492
 2770W        W69311   4.761  28.360   1.354
 2771W        W69312  43.039  23.895  14.022
 2772W        W69313  39.455   2.738   4.619
 2773W        W69314  21.953   3.258   3.694
 2774W        W69315   1.526   4.534  11.937
 2775W        W69316  40.447  44.463   2.275
 2776W        W69317  31.115  26.210  14.427
 2777W        W69318  20.130  22.604   4.106
 2778W        W69319   0.596  38.060   2.917
 2779W        W69320  14.379  13.185   4.208
 2780W        W69321  38.847   8.610  12.028
 2781W        W69322   8.645  44.712   4.213
 2782W        W69323   1.116  40.523  10.965
 2783W        W69324  38.785  24.408   4.060
 2784W        W69325  12.592   6.264   2.489
 2785W        W69326  16.167  21.778  10.451
 2786W        W69327  14.142   4.138   3.817
 2787W        W69328  18.414  31.058  11.691
 2788W        W69329  15.107  42.556  14.890
 2789W        W69330  37.701  11.548   5.111
 2790W        W69331  30.924  13.540  14.026
 2791W        W69332  24.726  33.871   1.365
 2792W        W69333  43.697  30.567   3.694
 2793W        W69334  29.919  33.366  12.877
 2794W        W69335  27.111  32.725  11.642
 2795W        W69336  33.372  21.829  14.576
 2796W        W69337  15.931   0.991   0.375
 2797W        W69338  34.083  31.573  14.026
 2798W        W69339  16.583   9.250   3.403
 2799W        W69340  42.085  44.308   2.425
 2800W        W69341  14.694  15.265   4.585
 2801W        W69342  43.003  21.782   2.275
 2802W        W69343  33.591  41.694   0.584
 2803W        W69344  39.568   3.701  11.235
 2804W        W69345  32.351  10.246  11.802
 2805W        W69346  27.082  29.445   4.279
 2806W        W69347  23.052   2.475  13.024
 2807W        W69348  14.627  26.965   2.814
 2808W        W69349  17.110  35.679  14.034
 2809W        W69350  16.755  14.544   3.213
 2810W        W69351  20.211  42.804   2.804
 2811W        W69352   1.880  37.736  14.959
 2812W        W69353  28.996   4.625  13.011
 2813W        W69354  42.790  10.765  13.566
 2814W        W69355  43.067  17.779   2.342
 2815W        W69356   6.837  36.831   1.280
 2816W        W69357  29.870  11.807   4.565
 2817W        W69358  35.707  39.027  11.913
 2818W        W69359   0.437  26.424  13.988
 2819W        W69360   2.965  23.994   2.662
 2820W        W69361  39.030  15.765   0.385
 2821W        W69362  13.796  36.298  13.594
 2822W        W69363  30.977  27.871  11.319
 2823W        W69364  25.005  18.622  14.053
 2824W        W69365   0.433  36.443   3.279
 2825W        W69366  28.449   0.515  12.046
 2826W        W69367   9.117  42.397   9.586
 2827W        W69368  29.783  36.397  12.580
 2828W        W69369   6.739  36.373   0.952
 2829W        W69370  30.160   6.783  14.411
 2830W        W69371   7.913  19.298   4.119
 2831W        W69372  15.721   4.406  11.957
 2832W        W69373  26.071  15.015   4.130
 2833W        W69374  14.265  38.134   1.185
 2834W        W69375   2.046  34.313  13.325
 2835W        W69376  27.485   3.634   3.704
 2836W        W69377   1.793  17.105   0.246
 2837W        W69378  39.452  37.884   3.683
 2838W        W69379  32.969  17.605  11.064
 2839W        W69380  21.290   1.924   4.678
 2840W        W69381  11.848   5.663  13.031
 2841W        W69382  24.542   4.367  11.661
 2842W        W69383  30.467   1.818   1.861
 2843W        W69384  37.135  35.385  14.771
 2844W        W69385  38.916  29.461  11.726
 2845W        W69386  16.092  20.486  10.868
 2846W        W69387   9.176  12.193   0.679
 2847W        W69388   1.798  42.452   4.923
 2848W        W69389  36.034  42.748  10.252
 2849W        W69390  21.936  16.676   0.243
 2850W        W69391  40.429  15.616   0.789
 2851W        W69392  40.724  44.842  12.931
 2852W        W69393  31.929  12.472  12.036
 2853W        W69394  24.736  16.708   2.273
 2854W        W69395  16.255  30.135  14.127
 2855W        W69396  10.579  39.856  11.101
 2856W        W69397  39.322   6.870   1.217
 2857W        W69398   5.707  36.404  13.313
 2858W        W69399  21.008  24.069   0.919
 2859W        W69400  21.313  19.855   1.469
 2860W        W69401  44.701  40.043   9.962
 2861W        W69402   9.399   4.830   4.280
 2862W        W69403  19.325   3.000  10.684
 2863W        W69404  14.356   3.057  11.260
 2864W        W69405  42.371  24.066   2.071
 2865W        W69406  13.714  41.240   0.706
 2866W        W69407  34.947   4.290  12.601
 2867W        W69408  34.157  35.179  13.377
 2868W        W69409  21.652  25.513  13.133
 2869W        W69410  34.163   8.864   0.862
 2870W        W69411   4.364  30.873   3.957
 2871W        W69412   9.182  39.524  10.764
 2872W        W69413  42.877   9.140   0.733
 2873W        W69414  10.676  16.769   0.642
 2874W        W69415  14.307  29.991   4.490
 2875W        W69416  15.044   2.454  11.078
 2876W        W69417  25.103  29.741   2.738
 2877W        W69418  21.063   8.772   4.111
 2878W        W69419   5.767  14.779  12.643
 2879W        W69420  17.543   1.155   1.813
 2880W        W69421  20.600  26.464  12.981
 2881W        W69422  12.705  38.716  14.214
 2882W        W69423  11.384  35.815   1.449
 2883W        W69424  25.054   8.469   1.923
 2884W        W69425   4.646  27.464  13.394
 2885W        W69426  11.154  25.611   3.734
 2886W        W69427  44.248  18.835  11.096
 2887W        W69428   8.285   7.394   2.227
 2888W        W69429  38.088  10.824  12.024
 2889W        W69430  40.199  10.140   1.549
 2890W        W69431   6.340  24.256  13.077
 2891W        W69432   4.928   3.851  13.065
 2892W        W69433  13.499  23.780   3.684
 2893W        W69434   8.343  40.771  14.321
 2894W        W69435  36.873  41.572   4.670
 2895W        W69436  14.571   5.218  14.749
 2896W        W69437  21.746  29.510  12.185
 2897W        W69438  27.543  28.668  14.457
 2898W        W69439  15.890  29.962   2.503
 2899W        W69440  30.189  36.123   4.497
 2900W        W69441  36.380  27.389   4.216
 2901W        W69442  30.580  23.094  11.845
 2902W        W69443  43.544  39.745  10.743
 2903W        W69444  28.124  18.787  13.342
 2904W        W69445  28.080  15.250  10.839
 2905W        W69446   6.376  21.119   0.882
 2906W        W69447  44.947   7.190  14.443
 2907W        W69448  40.802  42.570   0.765
 2908W        W69449  28.456  22.094   0.034
 2909W        W69450  41.901   9.669  12.610
 2910W        W69451  24.564  39.250  12.460
 2911W        W69452  37.372  12.774  13.574
 2912W        W69453   1.999   4.816  14.842
 2913W        W69454  11.962   2.961  13.945
 2914W        W69455  12.508  29.698  11.103
 2915W        W69456  25.950   8.496   1.817
 2916W        W69457  28.190  25.052   2.115
 2917W        W69458  11.598  23.812  10.620
 2918W        W69459  13.368  29.593   2.117
 2919W        W69460  28.706  10.867   1.440
 2920W        W69461   2.190   0.930   4.523
 2921W        W69462   9.465  15.407  12.430
 2922W        W69463   4.131  27.623   3.164
 2923W        W69464   8.792  40.328  14.866
 2924W        W69465   0.764  20.575   2.816
 2925W        W69466  38.489  12.018  14.473
 2926W        W69467  17.943  38.974  14.454
 2927W        W69468  17.650  33.521   1.555
 2928W        W69469   6.049  10.517  12.489
 2929W        W69470   4.308  18.101  11.548
 2930W        W69471  33.485  23.278  11.154
 2931W        W69472  43.904  37.524   3.874
 2932W        W69473  14.830   3.379   1.306
 2933W        W69474  40.826   7.039  11.561
 2934W        W69475  44.886  22.350  12.485
 2935W        W69476  24.629  15.863  10.958
 2936W        W69477  36.111  13.225   2.504
 2937W        W69478  23.751  21.595  13.904
 2938W        W69479  18.489   9.279  10.675
 2939W        W69480  27.668   6.861   0.993
 2940W        W69481  24.412  19.283  10.797
 2941W        W69482  14.372   0.465  10.759
 2942W        W69483   3.421  14.900   3.223
 2943W        W69484  30.264  13.302   0.906
 2944W        W69485  39.818  19.022  12.509
 2945W        W69486  17.142  43.875   4.335
 2946W        W69487  36.912  34.272  13.011
 2947W        W69488   4.456  42.914  10.986
 2948W        W69489  30.881   4.986  12.075
 2949W        W69490  12.361   7.707   1.634
 2950W        W69491  29.395  22.179  13.499
 2951W        W69492  19.002  29.620   4.157
 2952W        W69493  36.604   7.427  11.476
 2953W        W69494  17.642  31.393  11.859
 2954W        W69495  24.123  24.918  10.745
 2955W        W69496  12.773   1.439  11.571
 2956W        W69497  11.029  30.783  12.532
 2957W        W69498   5.681  25.585  11.731
 2958W        W69499  34.869  24.603  12.464
 2959W        W69500  33.367  39.931  14.005
 2960W        W69501   4.946  29.126  14.303
 2961W        W69502   0.419   4.824   0.972
 2962W        W69503  23.721  33.382  10.548
 2963W        W69504  23.185  21.997  14.846
 2964W        W69505  43.257  14.159   2.393
 2965W        W69506  16.672  21.215  11.609
 2966W        W69507  20.244   5.339   4.647
 2967W        W69508   1.452  17.782   0.019
 2968W        W69509  21.045   5.882  11.545
 2969W        W69510  32.986  34.202  10.415
 2970W        W69511   3.783  14.658  11.343
 2971W        W69512  27.222  15.600  10.547
 2972W        W69513  42.997   4.711  12.160
 2973W        W69514  40.891  26.783   0.755
 2974W        W69515   2.000   2.904   3.894
 2975W        W69516  10.780  39.769  14.298
 2976W        W69517  10.599  29.009   2.398
 2977W        W69518  37.077  19.078   0.196
 2978W        W69519  44.532  14.758   2.302
 2979W        W69520   7.835  34.992   0.303
 2980W        W69521  43.339   1.779   1.733
 2981W        W69522  28.116  11.695   0.530
 2982W        W69523  39.508  25.484  12.303
 2983W        W69524  19.521  17.749   2.881
 2984W        W69525  14.412  18.441  12.425
 2985W        W69526  29.960  44.272   3.897
 2986W        W69527   3.698  19.888  12.306
 2987W        W69528  38.264  43.450  12.827
 2988W        W69529  43.743  39.762   3.309
 2989W        W69530  23.611  35.040   3.749
 2990W        W69531  11.119  39.949   4.075
 2991W        W69532  23.021  36.553  14.880
 2992W        W69533  40.428  42.121   0.438
 2993W        W69534   4.386  42.876   1.963
 2994W        W69535  15.410  28.194   3.279
 2995W        W69536  19.401  26.730  14.014
 2996W        W69537  19.970  30.519  12.202
 2997W        W69538  32.044  18.595  12.959
 2998W        W69539  16.328  27.585   0.948
 2999W        W69540  10.717  25.087   0.246
 3000W        W69541  24.080   6.198  13.304
 3001W        W69542  28.360  16.059   4.305
 3002W        W69543  41.549   1.218  13.836
 3003W        W69544   5.229  30.755  10.971
 3004W        W69545  35.107   3.297  14.171
 3005W        W69546  36.291  23.016  14.684
 3006W        W69547  21.427  42.321  14.531
 3007W        W69548  33.343  43.156   2.826
 3008W        W69549  27.558  15.180   3.373
 3009W        W69550  23.436   8.823   3.634
 3010W        W69551  27.587  30.126   4.102
 3011W        W69552  23.610  39.558   3.849
 3012W        W69553  13.816   1.940  11.560
 3013W        W69554  17.213   8.235   2.298
 3014W        W69555  21.687  22.261   2.218
 3015W        W69556  29.848   1.467  13.839
 3016W        W69557   1.839  41.784  10.779
 3017W        W69558  19.034   8.643   1.263
 3018W        W69559  37.977  28.421  10.670
 3019W        W69560  21.854  35.947  11.351
 3020W        W69561  42.264  15.307   1.133
 3021W        W69562  39.492  23.012  13.299
 3022W        W69563  31.833  34.568   3.354
 3023W        W69564  27.630  44.764  14.346
 3024W        W69565  14.743  14.825  11.955
 3025W        W69566  25.889  22.166   3.251
 3026W        W69567  22.123  21.254  13.091
 3027W        W69568  31.831   2.420  14.382
 3028W        W69569  37.848  18.691   0.490
 3029W        W69570   9.167  26.072   0.750
 3030W        W69571  29.018  29.420  13.347
 3031W        W69572  16.074  10.135  14.470
 3032W        W69573  37.303  40.403  14.929
 3033W        W69574  11.528   5.067  13.841
 3034W        W69575   2.821   9.860  10.533
 3035W        W69576  18.917  10.399  10.465
 3036W        W69577  36.351  25.730  14.189
 3037W        W69578  43.284  21.724  13.032
 3038W        W69579  38.098  36.134  10.930
 3039W        W69580  19.549  10.118  12.941
 3040W        W69581  26.103  18.302  13.826
 3041W        W69582   1.796  39.238   4.244
 3042W        W69583  28.719  31.901   3.385
 3043W        W69584  26.430   0.388  13.485
 3044W        W69585   0.937   3.749   3.231
 3045W        W69586  17.518  31.989   1.869
 3046W        W69587  16.120  24.146  10.634
 3047W        W69588  27.341  41.230  11.926
 3048W        W69589  34.041  16.286  14.839
 3049W        W69590  25.540  16.955   2.714
 3050W        W69591   9.774  23.198  11.586
 3051W        W69592  29.671  31.515  11.932
 3052W        W69593  16.697   4.311   1.372
 3053W        W69594  37.262  17.275   5.071
 3054W        W69595   1.352   7.320   2.331
 3055W        W69596  25.980  32.887  14.381
 3056W        W69597  14.661  29.688  11.099
 3057W        W69598  10.370  20.793  12.892
 3058W        W69599  35.498  21.163   2.653
 3059W        W69600  24.765  30.057  14.817
 3060W        W69601  30.906  19.264   1.284
 3061W        W69602  34.436  27.862  12.400
 3062W        W69603   8.220  33.992   0.240
 3063W        W69604  13.279  30.110  10.294
 3064W        W69605  34.445  12.845  12.506
 3065W        W69606  20.588  38.775  14.255
 3066W        W69607  34.070  30.180  13.024
 3067W        W69608  16.665   4.186  14.939
 3068W        W69609  29.968  24.051  14.477
 3069W        W69610  27.116  38.670   2.828
 3070W        W69611  24.502  33.124  12.592
 3071W        W69612  39.548  40.950  13.879
 3072W        W69613  26.822  28.133   2.596
 3073W        W69614  16.013  40.495   3.286
 3074W        W69615  18.294  11.157  11.226
 3075W        W69616   7.857  18.516   1.795
 3076W        W69617  10.812   4.654  14.333
 3077W        W69618  32.200  10.372   4.000
 3078W        W69619  16.347  21.127  11.988
 3079W        W69620  12.166  15.838   3.833
 3080W        W69621  26.055  44.684  11.132
 3081W        W69622   3.782   7.693  13.437
 3082W        W69623  27.433  33.590   4.217
 3083W        W69624  41.656  34.377  12.470
 3084W        W69625   9.789  26.597  11.206
 3085W        W69626  14.723   7.234  10.382
 3086W        W69627  26.740  25.777  12.522
 3087W        W69628   6.073  40.652  10.390
 3088W        W69629  28.916   9.595   3.682
 3089W        W69630  21.237  12.997  14.886
 3090W        W69631   3.906  25.035  11.944
 3091W        W69632  22.587  19.592  14.064
 3092W        W69633  37.843  44.088   2.605
 3093W        W69634  32.411  24.042   3.882
 3094W        W69635  42.074  24.943  12.539
 3095W        W69636  32.485  21.364   0.502
 3096W        W69637  20.270  30.498   3.386
 3097W        W69638  32.621  40.830   3.705
 3098W        W69639   2.255  23.591  10.326
 3099W        W69640  18.282  36.721  13.938
 3100W        W69641  19.377  39.792  12.404
 3101W        W69642  15.079  41.037  12.659
 3102W        W69643  30.615  12.325  13.596
 3103W        W69644  35.033   4.053   4.649
 3104W        W69645  42.478  36.489  10.762
 3105W        W69646  12.685  26.194   1.228
 3106W        W69647  17.511  10.921   0.992
 3107W        W69648  10.382  22.585  10.470
 3108W        W69649  38.667  25.504  13.289
 3109W        W69650  13.398  25.879  12.871
 3110W        W69651  29.532  18.118  10.749
 3111W        W69652  29.650  41.594   4.516
 3112W        W69653   9.635  36.018   1.224
 3113W        W69654  20.230  21.219  10.981
 3114W        W69655  30.721  11.239   9.743
 3115W        W69656  37.078  23.758   4.341
 3116W        W69657  34.168  14.587  13.871
 3117W        W69658  10.631   0.568  10.455
 3118W        W69659  33.845  38.377  12.005
 3119W        W69660   8.508  34.417  12.186
 3120W        W69661  18.725  37.769   1.805
 3121W        W69662  16.096  26.278  12.104
 3122W        W69663  36.923  14.160   4.745
 3123W        W69664  31.122  41.278  11.993
 3124W        W69665   2.351  34.059  10.491
 3125W        W69666  42.857   4.267   3.118
 3126W        W69667  26.991  31.363  12.460
 3127W        W69668  41.854   2.973  11.579
 3128W        W69669   4.389  27.586  10.414
 3129W        W69670  16.910  42.890  12.880
 3130W        W69671  33.992  32.638  13.456
 3131W        W69672  14.618   5.581  11.180
 3132W        W69673  40.121  26.687   1.803
 3133W        W69674   9.690   1.727  14.099
 3134W        W69675   9.659   0.658  12.968
 3135W        W69676  18.577  44.327   2.335
 3136W        W69677   0.284  12.938  11.666
 3137W        W69678  11.719  12.366  14.865
 3138W        W69679  21.289  29.006  14.283
 3139W        W69680   7.471   9.976  14.993
 3140W        W69681  44.926  13.631  10.375
 3141W        W69682   7.382   6.840  13.045
 3142W        W69683  26.953  35.808   0.677
 3143W        W69684   1.951  10.617  11.596
 3144W        W69685  33.825  21.432   0.505
 3145W        W69686  33.082  43.234  13.347
 3146W        W69687   4.907   2.311   1.897
 3147W        W69688  40.652  13.716  11.156
 3148W        W69689  28.735   7.013   1.607
 3149W        W69690  26.008  43.452   3.067
 3150W        W69691  15.714  40.808   4.348
 3151W        W69692  27.542  35.029  12.964
 3152W        W69693  33.454  13.892  13.960
 3153W        W69694  23.557  33.523  11.997
 3154W        W69695  31.903  22.256   4.130
 3155W        W69696  26.140  18.750  14.790
 3156W        W69697  36.921   6.634  14.451
 3157W        W69698  27.215  34.386   2.073
 3158W        W69699  14.872  26.048  11.423
 3159W        W69700  25.974   3.312   2.128
 3160W        W69701  18.536  35.972  12.502
 3161W        W69702  42.833  18.134  12.180
 3162W        W69703  28.574  14.148   1.027
 3163W        W69704  28.004  26.945   2.286
 3164W        W69705   6.398  26.687   0.758
 3165W        W69706  18.107  17.766   3.208
 3166W        W69707  29.590   9.619  11.710
 3167W        W69708  33.619  27.978  11.864
 3168W        W69709  23.747  19.163   2.453
 3169W        W69710  43.035  34.521  13.078
 3170W        W69711  35.386  15.737  12.923
 3171W        W69712   8.447  38.939  12.422
 3172W        W69713  37.885  37.592  10.967
 3173W        W69714  33.302  20.485   3.737
 3174W        W69715  30.861  23.961   1.782
 3175W        W69716  12.690  10.225  13.505
 3176W        W69717  14.043   3.509   4.671
 3177W        W69718  21.058  41.893   4.604
 3178W        W69719  32.825  15.195  11.025
 3179W        W69720  13.890  17.374  13.087
 3180W        W69721  23.738   6.466  13.583
 3181W        W69722  16.077   2.225  13.825
 3182W        W69723  24.181  41.940   3.438
 3183W        W69724  30.147  38.004  11.277
 3184W        W69725  41.540  15.658  11.061
 3185W        W69726  34.984  41.019  14.468
 3186W        W69727  27.265  37.650   3.616
 3187W        W69728  27.973  32.073  12.999
 3188W        W69729   6.249  28.720   1.322
 3189W        W69730  15.087  27.486   0.610
 3190W        W69731  13.781  30.259  10.244
 3191W        W69732  10.278  23.646  14.385
 3192W        W69733   6.037  34.343   2.672
 3193W        W69734  30.414  43.729   0.435
 3194W        W69735   3.833  43.835  13.433
 3195W        W69736  21.472  17.336  14.134
 3196W        W69737  17.169  28.860  13.521
 3197W        W69738  18.284  18.710  12.593
 3198W        W69739  43.717  20.784  12.989
 3199W        W69740  22.642  16.332  12.389
 3200W        W69741  22.313  24.517  10.741
 3201W        W69742  12.772  43.383  11.151
 3202W        W69743   9.235  11.411   2.250
 3203W        W69744   6.090   2.844  10.255
 3204W        W69745  41.999   0.402   3.704
 3205W        W69746  20.318  24.536  12.155
 3206W        W69747  22.036   9.080  10.097
 3207W        W69748   5.346  14.371  11.205
 3208W        W69749   2.410  31.169   3.379
 3209W        W69750  11.680  11.683   2.228
 3210W        W69751   1.611  36.438   0.311
 3211W        W69752  15.225  33.094  10.283
 3212W        W69753  27.614  44.319  11.490
 3213W        W69754  23.222  31.134  10.600
 3214W        W69755  25.464  36.095  11.902
 3215W        W69756  23.475  39.536   2.869
 3216W        W69757  41.843   8.412   1.205
 3217W        W69758  17.419  38.339   3.001
 3218W        W69759  16.574  44.734  12.747
 3219W        W69760  44.798  20.192  14.940
 3220W        W69761  35.039  34.163  14.512
 3221W        W69762  27.777  14.712   0.609
 3222W        W69763  10.688   8.438  14.846
 3223W        W69764  41.104   2.796   0.027
 3224W        W69765  32.858  36.491  14.271
 3225W        W69766   6.439  44.344   4.523
 3226W        W69767  39.915   8.949  12.922
 3227W        W69768   6.808   0.832   1.464
 3228W        W69769   2.979  29.606   1.277
 3229W        W69770  12.786  31.560   0.667
 3230W        W69771  22.046  25.938  12.012
 3231W        W69772   2.801   4.600  12.428
 3232W        W69773  26.214  18.800  12.905
 3233W        W69774  19.273  19.214  14.796
 3234W        W69775  36.729   3.468  11.489
 3235W        W69776  37.371  16.816   4.553
 3236W        W69777   6.673  20.266   2.239
 3237W        W69778  13.863  29.473  10.715
 3238W        W69779  29.543  39.522  14.888
 3239W        W69780   1.158  40.697  12.163
 3240W        W69781  37.898  20.059  13.021
 3241W        W69782  27.574  11.092  14.957
 3242W        W69783  39.551  18.526  10.536
 3243W        W69784  21.532  22.092   4.607
 3244W        W69785   1.375  11.774  12.085
 3245W        W69786   1.209  20.030  11.886
 3246W        W69787  18.101  24.789  11.976
 3247W        W69788  15.933  22.559   9.935
 3248W        W69789  25.055  31.841   3.206
 3249W        W69790   8.422  39.997  14.698
 3250W        W69791  15.347  38.690   0.443
 3251W        W69792  18.055   3.750   1.404
 3252W        W69793  30.181   3.438  11.055
 3253W        W69794  13.356   8.764   2.032
 3254W        W69795  30.884  17.316   3.815
 3255W        W69796  19.576  31.428  12.994
 3256W        W69797  24.229  28.405  14.507
 3257W        W69798  31.209  43.895  14.378
 3258W        W69799  42.284  13.936   1.370
 3259W        W69800  32.356  24.239  11.661
 3260W        W69801  40.725  24.412  11.609
 3261W        W69802  29.221  43.348   0.755
 3262W        W69803   0.527  19.562  13.381
 3263W        W69804  25.552  10.430  12.498
 3264W        W69805  27.483  27.099   4.771
 3265W        W69806  33.002  14.223  11.620
 3266W        W69807  41.841  31.624   4.104
 3267W        W69808   3.248  42.441  11.994
 3268W        W69809  12.312  29.837   0.601
 3269W        W69810  14.748  28.779   3.671
 3270W        W69811  10.180  12.472   1.477
 3271W        W69812  28.125  14.221   1.872
 3272W        W69813   0.031  22.897   4.015
 3273W        W69814  18.550  40.613  11.768
 3274W        W69815  36.448   5.685  14.893
 3275W        W69816  32.589  15.558  12.071
 3276W        W69817   0.995  15.071  11.848
 3277W        W69818   8.206  15.329  10.709
 3278W        W69819  11.792   5.150  12.981
 3279W        W69820  27.647  22.425  13.888
 3280W        W69821  21.805  42.359  12.560
 3281W        W69822  25.554  44.305  11.741
 3282W        W69823   2.295  14.764  10.979
 3283W        W69824  23.276  24.642   0.061
 3284W        W69825  15.514  32.688  10.573
 3285W        W69826  36.371  10.438  14.040
 3286W        W69827  10.349  26.929   2.405
 3287W        W69828  21.789  40.855   3.565
 3288W        W69829   8.244   6.281   1.284
 3289W        W69830  23.497  41.647   3.720
 3290W        W69831  23.728   3.685   4.148
 3291W        W69832   2.866  25.856   0.087
 3292W        W69833  32.154   8.758  14.597
 3293W        W69834   2.178  25.029  13.367
 3294W        W69835   2.629  23.708   4.585
 3295W        W69836   1.903  15.095   1.878
 3296W        W69837   3.994   7.772   3.323
 3297W        W69838  16.226   6.618   0.332
 3298W        W69839  16.079  41.895   0.035
 3299W        W69840   5.476  31.187  10.968
 3300W        W69841  18.225  21.629  13.591
 3301W        W69842   6.736  16.124  13.886
 3302W        W69843   0.324  38.245   3.782
 3303W        W69844  43.770  36.389  13.478
 3304W        W69845   7.917  11.860  12.890
 3305W        W69846   4.927  27.033  13.474
 3306W        W69847  24.608  27.015  13.492
 3307W        W69848   6.845   0.211  11.426
 3308W        W69849   6.290   2.672  14.829
 3309W        W69850  12.170  33.458  10.658
 3310W        W69851  31.128  10.453  13.113
 3311W        W69852  44.096  41.850  14.111
 3312W        W69853   6.467  38.888  13.993
 3313W        W69854   6.888  13.812   3.760
 3314W        W69855  41.613  11.793   4.639
 3315W        W69856  29.653  26.550  14.639
 3316W        W69857  43.812  41.996  11.911
 3317W        W69858  27.359   4.838  14.188
 3318W        W69859   7.707  21.995   4.021
 3319W        W69860  28.237  41.591   0.949
 3320W        W69861  19.024  35.339   4.465
 3321W        W69862  13.108  23.610   4.001
 3322W        W69863  38.981  27.712  13.322
 3323W        W69864  19.172  26.632   2.825
 3324W        W69865  32.895  44.050  13.019
 3325W        W69866  40.501   5.162  12.549
 3326W        W69867  40.463   0.289  12.796
 3327W        W69868   2.141  43.840   3.282
 3328W        W69869  25.043  35.057   4.715
 3329W        W69870  32.946  40.129   1.038
 3330W        W69871  35.628  15.468   0.809
 3331W        W69872  27.049  24.692  14.519
 3332W        W69873  10.880  21.762  11.452
 3333W        W69874  24.768  39.968   2.742
 3334W        W69875   8.598  38.757   2.274
 3335W        W69876  17.650  33.255  14.744
 3336W        W69877  21.068  20.661   1.048
 3337W        W69878  37.591  29.440  13.264
 3338W        W69879   9.079  18.762  13.335
 3339W        W69880  35.320  21.257  10.671
 3340W        W69881  24.569  41.218   3.792
 3341W        W69882   1.475  12.662  14.000
 3342W        W69883  13.217  24.198  11.631
 3343W        W69884  17.615  26.909  12.504
 3344W        W69885   0.320  16.831   2.769
 3345W        W69886  22.768  44.705   3.828
 3346W        W69887  38.998  11.858   3.874
 3347W        W69888   8.364   8.021   4.080
 3348W        W69889  34.876  27.093  10.950
 3349W        W69890  43.978  14.523   3.235
 3350W        W69891  18.200  11.046  12.065
 3351W        W69892  24.265  29.127  14.992
 3352W        W69893  44.356  24.379  13.440
 3353W        W69894  15.218   1.647   1.730
 3354W        W69895  43.953   9.589  11.674
 3355W        W69896   7.456  28.570  13.919
 3356W        W69897   0.692  42.209   3.245
 3357W        W69898  10.400   1.203  11.854
 3358W        W69899  31.367  24.036  13.035
 3359W        W69900  38.945  38.062   3.761
 3360W        W69901  40.593  42.529   3.698
 3361W        W69902   5.389  40.797  13.911
 3362W        W69903  18.574   2.891   0.441
 3363W        W69904   1.334  22.547   0.840
 3364W        W69905   9.567   8.206  11.922
 3365W        W69906  20.563  26.419  10.543
 3366W        W69907  37.574  40.800   3.310
 3367W        W69908  32.994  36.636  10.728
 3368W        W69909  24.051  32.376  11.649
 3369W        W69910   3.526  32.950  12.032
 3370W        W69911  16.483  43.928  14.272
 3371W        W69912  14.503  14.162   0.742
 3372W        W69913   1.658  44.888  12.080
 3373W        W69914  18.298  26.499   3.638
 3374W        W69915   5.337  27.918   9.440
 3375W        W69916  32.772   1.961   0.254
 3376W        W69917   0.942  14.512  10.961
 3377W        W69918   6.818  24.709   1.467
 3378W        W69919  15.359  42.707   3.139
 3379W        W69920  24.967  20.618   1.834
 3380W        W69921  29.445  30.076   2.633
 3381W        W69922  10.591  35.622   3.721
 3382W        W69923  13.272  40.609   1.374
 3383W        W69924  21.989  37.893   1.669
 3384W        W69925  41.765  24.117   0.639
 3385W        W69926  43.803  43.478  14.846
 3386W        W69927  42.960  26.688   2.412
 3387W        W69928  17.165  42.038   4.271
 3388W        W69929   0.484   3.817   2.886
 3389W        W69930  41.893  19.699  14.410
 3390W        W69931  44.276  22.109  12.020
 3391W        W69932  29.350  40.387  11.746
 3392W        W69933  29.094   4.336   4.417
 3393W        W69934  32.432  43.981   0.651
 3394W        W69935  29.717  41.093  11.945
 3395W        W69936  36.210  11.241   0.897
 3396W        W69937  39.573   1.894  12.120
 3397W        W69938  23.263  44.813   3.712
 3398W        W69939  27.470  40.110   2.986
 3399W        W69940  39.471  37.944  12.848
 3400W        W69941  36.411   8.627  10.184
 3401W        W69942  25.293  22.979  11.419
 3402W        W69943  13.802  31.430   3.124
 3403W        W69944   2.490  23.906  14.791
 3404W        W69945  33.976   2.550   4.402
 3405W        W69946  32.014  27.261   3.550
 3406W        W69947  35.442  30.641  12.117
 3407W        W69948  18.276  20.028  12.081
 3408W        W69949  14.829  13.824  14.335
 3409W        W69950  12.067   8.639  11.544
 3410W        W69951  22.760  24.872  11.628
 3411W        W69952  36.973  15.661   0.755
 3412W        W69953  24.142  17.769  14.887
 3413W        W69954  23.261  34.424   1.241
 3414W        W69955  43.770  40.208   3.031
 3415W        W69956  22.899  27.365   2.287
 3416W        W69957  14.910  29.154   0.444
 3417W        W69958   9.417  12.253   0.230
 3418W        W69959  12.899  29.556   3.748
 3419W        W69960  34.749  43.799  13.859
 3420W        W69961  24.504  27.068   0.384
 3421W        W69962  12.335  10.077   1.343
 3422W        W69963  39.716  37.515  13.465
 3423W        W69964  27.093  43.039   1.309
 3424W        W69965  23.095   7.717  11.947
 3425W        W69966   7.010  14.492   1.166
 3426W        W69967  14.115   7.670   3.731
 3427W        W69968  32.358  15.299  14.514
 3428W        W69969  13.286  43.508   4.735
 3429W        W69970  43.167  26.094  13.988
 3430W        W69971   8.636  40.856   1.887
 3431W        W69972  41.456   3.867  11.894
 3432W        W69973  28.622  14.748   2.715
 3433W        W69974  27.282  26.762  14.990
 3434W        W69975  31.695  20.949   3.070
 3435W        W69976  42.595  36.078   0.665
 3436W        W69977  16.225  18.803  12.373
 3437W        W69978  37.382  35.930  11.470
 3438W        W69979  22.603  31.916   1.162
 3439W        W69980  22.528  22.113   4.873
 3440W        W69981  42.595  24.487   4.619
 3441W        W69982  18.037  31.121   2.929
 3442W        W69983  25.034  10.946   3.306
 3443W        W69984  13.039   4.445  13.295
 3444W        W69985   0.054  15.962  12.116
 3445W        W69986   0.172  21.690  10.922
 3446W        W69987  10.745   6.950   0.078
 3447W        W69988  34.906  43.237  11.223
 3448W        W69989  31.068  18.607   2.615
 3449W        W69990  11.909  37.074   3.202
 3450W        W69991  37.506  13.616   0.302
 3451W        W69992  32.763  23.732  14.292
 3452W        W69993  37.374  42.542  14.112
 3453W        W69994  10.846  29.559   3.061
 3454W        W69995  13.691  30.601   1.740
 3455W        W69996  44.356  21.299   1.732
 3456W        W69997  33.629   8.883  14.023
 3457W        W69998  14.360  25.637  11.115
 3458W        W69999  13.840  39.526   0.763
 3459W        W70000  21.263  20.859   0.508
 3460W        W70001  22.910  13.132   4.500
 3461W        W70002  11.059  17.741   1.146
 3462W        W70003  23.261  20.643  11.444
 3463W        W70004  14.531  27.594  10.295
 3464W        W70005   6.115   3.142   0.034
 3465W        W70006   9.923  38.113  11.142
 3466W        W70007   3.595  37.985   1.629
 3467W        W70008  33.547   5.156  12.142
 3468W        W70009  35.636  37.826  11.083
 3469W        W70010  27.508  16.692  13.154
 3470W        W70011  38.198   7.364   0.532
 3471W        W70012  40.853  36.839   0.027
 3472W        W70013  10.169  27.591  12.064
 3473W        W70014   6.293  11.343  11.482
 3474W        W70015  24.680  34.863  10.681
 3475W        W70016  41.356  15.665   0.895
 3476W        W70017  11.641   9.719   1.946
 3477W        W70018   6.234  12.235  14.386
 3478W        W70019  24.021  42.346   4.494
 3479W        W70020   2.082  18.234  12.007
 3480W        W70021  25.207  13.735  12.316
 3481W        W70022   6.356  36.973   1.223
 3482W        W70023  25.562  39.560  13.106
 3483W        W70024  13.140  29.412   0.276
 3484W        W70025   6.336  39.925  14.099
 3485W        W70026   3.436  23.838  14.889
 3486W        W70027  18.143  43.354   4.780
 3487W        W70028  44.740  31.561  12.514
 3488W        W70029  25.181  35.314   3.653
 3489W        W70030   1.181   9.235  14.810
 3490W        W70031  44.814  22.098  12.045
 3491W        W70032  27.980  13.852  13.487
 3492W        W70033  42.560  37.691   3.648
 3493W        W70034  30.642   1.220  10.920
 3494W        W70035  37.943  17.613   4.272
 3495W        W70036   9.205  23.892  12.084
 3496W        W70037  40.283  26.556  12.835
 3497W        W70038  43.227  28.999   3.737
 3498W        W70039  40.919   8.548   2.776
 3499W        W70040  43.635  41.196   3.329
 3500W        W70041   6.065   5.227  10.629
 3501W        W70042  43.241   0.429   3.231
 3502W        W70043  16.589   5.702   4.656
 3503W        W70044  19.149   1.649  10.745
 3504W        W70045  37.309   6.972  14.390
 3505W        W70046  36.302  29.769   1.706
 3506W        W70047   7.424   5.820   4.794
 3507W        W70048  21.277  12.088  12.913
 3508W        W70049  40.137  10.613  10.184
 3509W        W70050  40.684  20.231  12.910
 3510W        W70051   1.250   8.962  11.076
 3511W        W70052  20.075  27.550  13.879
 3512W        W70053  14.308   1.934   0.815
 3513W        W70054  44.888  10.657   2.382
 3514W        W70055  39.478  36.965   1.234
 3515W        W70056  41.528  25.971  10.693
 3516W        W70057  29.226  31.937  14.745
 3517W        W70058  40.346   4.917  12.985
 3518W        W70059  10.196  30.285  10.174
 3519W        W70060  29.211  33.854  13.316
 3520W        W70061  33.655  17.312  11.594
 3521W        W70062  30.612  14.597  13.355
 3522W        W70063  28.917  25.173  13.769
 3523W        W70064   6.802  17.538  10.959
 3524W        W70065  29.051  11.191  12.547
 3525W        W70066  17.127  40.389  10.953
 3526W        W70067   1.778  24.786  10.930
 3527W        W70068  15.035  17.617  13.427
 3528W        W70069  12.841  40.756  14.746
 3529W        W70070  22.675  35.011  12.907
 3530W        W70071  14.893  28.532   2.272
 3531W        W70072  20.039  36.636  12.817
 3532W        W70073  36.098  22.588  10.386
 3533W        W70074  33.619  13.652  13.521
 3534W        W70075  34.895  30.623  12.765
 3535W        W70076  30.920   9.876   4.736
 3536W        W70077  32.332   1.284  11.625
 3537W        W70078  14.358  21.032   4.371
 3538W        W70079  35.848  29.643  11.661
 3539W        W70080  29.972  37.131  11.168
 3540W        W70081   7.716  35.616  11.671
 3541W        W70082  13.875  13.861   4.423
 3542W        W70083  29.665   5.216   1.766
 3543W        W70084  42.399  15.314   4.091
 3544W        W70085  14.208  26.075  14.994
 3545W        W70086  14.712  26.112  13.740
 3546W        W70087  36.544  37.359   0.836
 3547W        W70088  38.554  17.019  12.074
 3548W        W70089   3.735  21.295  14.080
 3549W        W70090   0.502  37.636   3.770
 3550W        W70091  18.273  28.001   3.250
 3551W        W70092  18.862  41.112  14.114
 3552W        W70093   7.436  24.977   3.451
 3553W        W70094  16.019  36.913   4.475
 3554W        W70095   2.004  28.700  12.347
 3555W        W70096   8.421  41.799   3.231
 3556W        W70097  27.614  25.214   2.957
 3557W        W70098  31.582  26.431  12.917
 3558W        W70099  39.554  31.378  14.310
 3559W        W70100  12.718  43.925   4.147
 3560W        W70101   3.453   8.159  14.390
 3561W        W70102   3.801  43.222  14.398
 3562W        W70103   5.090  26.681   4.966
 3563W        W70104   5.985   1.911   0.259
 3564W        W70105  31.182  16.754  10.101
 3565W        W70106  29.375  10.640  10.680
 3566W        W70107  21.292   9.997   3.176
 3567W        W70108   6.319  12.801   3.819
 3568W        W70109   5.356  41.145  12.827
 3569W        W70110   7.197  16.577   2.012
 3570W        W70111   0.393  36.328  14.762
 3571W        W70112   5.348   5.221   2.321
 3572W        W70113  22.171   1.014  11.723
 3573W        W70114  28.012  21.988  12.613
 3574W        W70115  11.863  18.048  14.237
 3575W        W70116  23.754  12.278   0.495
 3576W        W70117   7.133  38.563   1.096
 3577W        W70118   9.252  29.983   4.442
 3578W        W70119   6.670  41.883   0.386
 3579W        W70120  44.642   5.573   0.403
 3580W        W70121  21.021   4.828   3.730
 3581W        W70122  21.256  11.021  11.271
 3582W        W70123  24.472  11.863   2.269
 3583W        W70124  23.517  20.194  13.130
 3584W        W70125  15.163   2.328  12.127
 3585W        W70126  29.991  14.762   3.309
 3586W        W70127   5.162  22.075   1.368
 3587W        W70128  20.146  11.617   2.435
 3588W        W70129  26.189  16.546   2.318
 3589W        W70130  44.313  12.173  12.072
 3590W        W70131  21.281  25.634   2.620
 3591W        W70132  17.583  44.203   0.993
 3592W        W70133  18.959  16.215   3.289
 3593W        W70134  42.284  10.498  12.398
 3594W        W70135  28.179  42.523  12.821
 3595W        W70136   6.983   3.705   4.212
 3596W        W70137  34.834   9.293  10.665
 3597W        W70138  24.304  42.422  14.700
 3598W        W70139  44.681   7.625  13.535
 3599W        W70140  43.088  32.612   0.429
 3600W        W70141  12.453   1.397   0.399
 3601W        W70142  16.147  31.665  10.735
 3602W        W70143  19.530  25.623  13.224
 3603W        W70144  43.779   4.807   4.054
 3604W        W70145  17.837  33.983  11.150
 3605W        W70146  32.333   2.895   3.859
 3606W        W70147  33.798  15.952   0.822
 3607W        W70148  31.078  41.878  11.616
 3608W        W70149  23.479  30.718  13.472
 3609W        W70150  16.117  24.783   2.906
 3610W        W70151   8.845  26.062  14.854
 3611W        W70152  19.955  32.121   0.794
 3612W        W70153  13.868  14.931   2.296
 3613W        W70154  24.606  43.330   0.549
 3614W        W70155  43.390   2.005   4.046
 3615W        W70156  32.803   9.830   1.225
 3616W        W70157  11.646  43.911  10.570
 3617W        W70158  43.557   2.218  14.229
 3618W        W70159  29.461   7.362   4.074
 3619W        W70160   1.470  29.854  11.119
 3620W        W70161   1.951  11.245   2.293
 3621W        W70162  17.583  44.427   3.953
 3622W        W70163  30.056  16.312  12.959
 3623W        W70164  38.851  35.472   2.776
 3624W        W70165  42.117  35.962   0.843
 3625W        W70166  19.237  40.344   1.696
 3626W        W70167   3.083  14.985  12.468
 3627W        W70168  44.313  40.792   2.894
 3628W        W70169  10.187  42.833  11.917
 3629W        W70170  29.401  32.032   0.244
 3630W        W70171  36.408  26.603  13.710
 3631W        W70172  14.461  12.413  11.556
 3632W        W70173  30.107  11.915   2.688
 3633W        W70174  29.624  25.898  13.983
 3634W        W70175  37.521  27.889  12.300
 3635W        W70176  15.093  35.681   4.752
 3636W        W70177   0.746  16.180   4.519
 3637W        W70178  27.464  13.349   0.271
 3638W        W70179   5.396  41.529  12.415
 3639W        W70180  44.045   4.883   0.304
 3640W        W70181   3.801  37.621  12.918
 3641W        W70182  42.477  32.556   1.300
 3642W        W70183  13.840   8.223  13.786
 3643W        W70184   9.265  23.110  11.582
 3644W        W70185  23.199  17.325   0.358
 3645W        W70186  20.034  39.045  11.967
 3646W        W70187   7.945  20.662   0.207
 3647W        W70188  42.811   9.176  14.410
 3648W        W70189  20.339  22.321  13.703
 3649W        W70190  40.108  38.468   3.950
 3650W        W70191  38.083  21.075  12.967
 3651W        W70192   3.725  39.950  11.145
 3652W        W70193   0.877   6.675   4.424
 3653W        W70194  44.310  36.684   5.044
 3654W        W70195  22.409  18.260   3.258
 3655W        W70196  23.350  29.056   3.169
 3656W        W70197  34.995   0.997  13.007
 3657W        W70198   9.183  32.423   3.341
 3658W        W70199   5.691  20.106   2.491
 3659W        W70200  44.892  35.706   3.718
 3660W        W70201  26.289   4.879   0.780
 3661W        W70202  39.756   7.026   0.439
 3662W        W70203  11.310   0.908   1.616
 3663W        W70204  41.788  19.593  12.989
 3664W        W70205  20.241  40.283   3.706
 3665W        W70206  39.965  39.524   0.272
 3666W        W70207  23.783   5.453   1.782
 3667W        W70208  36.818  11.311   3.631
 3668W        W70209  22.751  12.581  11.552
 3669W        W70210   7.980  18.676   1.318
 3670W        W70211   4.820  14.219   4.458
 3671W        W70212  25.646   2.397  11.772
 3672W        W70213   0.711  40.447  14.985
 3673W        W70214  21.645   5.703   0.826
 3674W        W70215  25.005  12.901   1.735
 3675W        W70216  23.090  21.510  13.892
 3676W        W70217   5.600  14.629   3.657
 3677W        W70218  21.561  18.025   3.034
 3678W        W70219  32.691  14.519   0.589
 3679W        W70220  44.230   2.561  10.933
 3680W        W70221  21.974  11.108  12.487
 3681W        W70222  44.746  10.317   1.120
 3682W        W70223   0.922  20.312  10.864
 3683W        W70224  28.928   1.473  12.021
 3684W        W70225  43.242  36.934  12.288
 3685W        W70226   9.960  44.372   1.593
 3686W        W70227  26.185  34.982   3.237
 3687W        W70228  21.655   2.118   3.086
 3688W        W70229  19.528  21.000   4.125
 3689W        W70230   2.370  44.269  11.934
 3690W        W70231   7.025  14.074  14.766
 3691W        W70232  24.927  28.039  12.038
 3692W        W70233   8.889  15.037  11.122
 3693W        W70234  43.474  24.558  10.764
 3694W        W70235  33.746  23.792   1.000
 3695W        W70236  14.117  24.185   4.148
 3696W        W70237  13.851  24.356   2.662
 3697W        W70238  44.758  41.885  12.636
 3698W        W70239  27.057  22.606   0.494
 3699W        W70240  20.133  34.596  14.724
 3700W        W70241  44.026  23.731  12.455
 3701W        W70242  36.300   6.328   0.485
 3702W        W70243  26.434  37.156  14.151
 3703W        W70244  11.354   2.780   1.107
 3704W        W70245   1.254  20.621   4.680
 3705W        W70246   4.727  13.344  10.780
 3706W        W70247  43.747   9.330   2.768
 3707W        W70248   8.201  40.548   1.823
 3708W        W70249   2.371  25.684  13.564
 3709W        W70250  33.553  28.803  14.416
 3710W        W70251   1.498  24.543   4.207
 3711W        W70252  18.958  12.637  13.425
 3712W        W70253  15.639  34.227   1.439
 3713W        W70254  15.714  16.208  12.133
 3714W        W70255  14.088  15.791   1.243
 3715W        W70256  28.438  26.176   2.842
 3716W        W70257  23.972  27.399   3.269
 3717W        W70258  15.626  29.900   1.691
 3718W        W70259   4.644  22.628   2.729
 3719W        W70260   3.810  39.323  14.379
 3720W        W70261  37.754  22.078  12.043
 3721W        W70262  23.078  16.559  14.509
 3722W        W70263  17.322   6.226   2.281
 3723W        W70264  26.676  27.212  12.509
 3724W        W70265  19.138  42.405   3.623
 3725W        W70266  21.296  31.024   3.795
 3726W        W70267  21.182  16.632  12.481
 3727W        W70268  19.115   5.782  14.013
 3728W        W70269  34.833  14.106  13.350
 3729W        W70270   2.341   9.303   0.722
 3730W        W70271  34.155  33.645  11.384
 3731W        W70272  22.608   0.321  12.149
 3732W        W70273  11.885  33.454   4.513
 3733W        W70274  34.606  21.694   0.405
 3734W        W70275  11.697  28.445   4.428
 3735W        W70276  26.104  36.131   0.386
 3736W        W70277   3.749   6.195  10.443
 3737W        W70278  25.741  10.348  14.986
 3738W        W70279  30.540  43.314  13.380
 3739W        W70280  37.160   3.937  12.529
 3740W        W70281  37.760  36.062   3.863
 3741W        W70282  28.729  36.343   2.094
 3742W        W70283  29.007   9.136   1.712
 3743W        W70284  33.589   8.929   4.006
 3744W        W70285  16.676   9.442  13.830
 3745W        W70286  41.286  38.079   4.380
 3746W        W70287  14.348  39.558  11.947
 3747W        W70288  23.158   4.221  13.510
 3748W        W70289   6.253  30.034   3.156
 3749W        W70290   7.913  20.487  11.966
 3750W        W70291  19.533  42.636   0.457
 3751W        W70292  44.935  19.180   4.576
 3752W        W70293  11.549  30.318   4.018
 3753W        W70294  42.529  18.959   0.281
 3754W        W70295  17.141  37.379   1.890
 3755W        W70296  29.953   7.255   4.865
 3756W        W70297  15.368  34.020  12.200
 3757W        W70298   4.476  19.188   0.478
 3758W        W70299   1.624  28.372   3.771
 3759W        W70300   8.590  15.582   1.472
 3760W        W70301  19.244  26.009   4.394
 3761W        W70302  12.726  13.927   1.387
 3762W        W70303  27.707  43.886  14.363
 3763W        W70304  40.924  13.720  13.354
 3764W        W70305  21.037   6.644   0.322
 3765W        W70306  27.526  31.331   0.840
 3766W        W70307   0.087  23.709   3.822
 3767W        W70308  30.165   1.818  11.531
 3768W        W70309  18.526  19.787  11.109
 3769W        W70310   1.210  25.633   4.771
 3770W        W70311  40.949  33.565   0.502
 3771W        W70312   0.094  30.085  13.157
 3772W        W70313  24.066  25.107   3.107
 3773W        W70314  11.712   6.819  10.649
 3774W        W70315   4.309  25.277  11.196
 3775W        W70316  37.466  44.754  12.515
 3776W        W70317  13.044  33.401  10.708
 3777W        W70318  30.844   7.092   4.815
 3778W        W70319   8.344  32.813  12.506
 3779W        W70320  30.024   8.705  13.735
 3780W        W70321  35.622   1.773  13.148
 3781W        W70322  41.006  15.353   5.523
 3782W        W70323  32.164  34.464  11.713
 3783W        W70324  30.214  19.904   3.203
 3784W        W70325  40.249  32.878   3.179
 3785W        W70326  18.978  44.102  13.221
 3786W        W70327  33.905  33.824  14.795
 3787W        W70328  44.667  27.420   4.288
 3788W        W70329  42.517  22.587  14.530
 3789W        W70330  16.736   3.101   3.713
 3790W        W70331   7.980  24.050   1.011
 3791W        W70332  41.767  24.107  13.420
 3792W        W70333  44.444  29.994  11.255
 3793W        W70334  24.622  31.158   2.304
 3794W        W70335  33.360   3.791  13.886
 3795W        W70336  24.138  15.611  12.153
 3796W        W70337  28.335  26.640  13.343
 3797W        W70338  43.995  41.869  10.926
 3798W        W70339  27.057  29.071   0.250
 3799W        W70340   4.967  22.701   1.169
 3800W        W70341  43.205  36.536   4.012
 3801W        W70342  20.607  40.485  11.104
 3802W        W70343  36.937  11.659  13.119
 3803W        W70344   3.832   6.226  12.947
 3804W        W70345   4.345   8.441  14.918
 3805W        W70346  25.408   4.579   2.671
 3806W        W70347  41.005   1.445   1.757
 3807W        W70348  28.167  26.516   2.578
 3808W        W70349  34.443  39.858  10.802
 3809W        W70350  28.826   5.290   4.166
 3810W        W70351  31.056  34.801   9.948
 3811W        W70352  43.886  36.539  11.833
 3812W        W70353   9.765  33.867   1.312
 3813W        W70354  24.658   0.722  13.579
 3814W        W70355   5.923  36.958   3.220
 3815W        W70356  14.596   3.290   3.879
 3816W        W70357  38.289  31.889   4.352
 3817W        W70358   5.301  19.178   3.508
 3818W        W70359  21.470  35.129   2.156
 3819W        W70360   5.409  27.763   5.413
 3820W        W70361  25.960  12.433  13.581
 3821W        W70362  23.765  27.640  14.423
 3822W        W70363  41.876  14.409   1.327
 3823W        W70364  32.546  33.075   2.202
 3824W        W70365  41.215  41.873   0.002
 3825W        W70366  41.509  32.635   2.324
 3826W        W70367  20.765  15.625  14.400
 3827W        W70368   5.966  18.120   0.398
 3828W        W70369  15.904  25.461   3.565
 3829W        W70370  39.333   2.861   2.388
 3830W        W70371  13.062  18.227   2.153
 3831W        W70372  25.595  24.050  13.449
 3832W        W70373  34.073  28.680  11.405
 3833W        W70374  12.756   0.291  14.998
 3834W        W70375   4.161   7.058   2.842
 3835W        W70376  40.773  37.972  12.977
 3836W        W70377   8.336  23.072  14.347
 3837W        W70378  23.269  42.012  10.695
 3838W        W70379  21.181  43.562   1.202
 3839W        W70380  36.107  40.723   1.339
 3840W        W70381   4.122  34.358  12.952
 3841W        W70382  16.215  15.236  14.371
 3842W        W70383  41.154  34.161  10.752
 3843W        W70384  13.342  12.389   1.916
 3844W        W70385  16.648   1.131   4.396
 3845W        W70386   7.192  18.295   2.265
 3846W        W70387  22.506   9.095  12.133
 3847W        W70388  43.046  22.266   0.741
 3848W        W70389  29.109  27.649  13.844
 3849W        W70390   8.147  43.102  14.426
 3850W        W70391   2.557  27.151   2.373
 3851W        W70392  21.803   7.871   1.292
 3852W        W70393  12.333   8.674  10.693
 3853W        W70394  31.163  29.892  14.862
 3854W        W70395  13.036  42.534   3.052
 3855W        W70396  35.144  13.332   0.350
 3856W        W70397  39.782  20.685  11.561
 3857W        W70398  38.910   2.690  11.659
 3858W        W70399  38.552  29.966   4.670
 3859W        W70400   8.534   3.897   4.195
 3860W        W70401  32.565   4.107   2.693
 3861W        W70402  17.675  20.068  13.403
 3862W        W70403  27.956   6.232   4.636
 3863W        W70404  11.348  44.002   3.750
 3864W        W70405   4.428  39.900   3.614
 3865W        W70406   4.817  19.254   3.236
 3866W        W70407  10.660   1.238  13.716
 3867W        W70408   6.114   5.109  13.352
 3868W        W70409   7.183  29.035  10.720
 3869W        W70410  29.523  20.915   1.805
 3870W        W70411  35.477  28.939   1.325
 3871W        W70412  24.651  43.664  11.778
 3872W        W70413  44.819  12.621  14.300
 3873W        W70414  21.144  27.484   4.187
 3874W        W70415  15.228  25.757   2.831
 3875W        W70416  13.078   8.995  14.398
 3876W        W70417   9.269  35.214  14.620
 3877W        W70418  14.773  30.969  11.563
 3878W        W70419  33.437  24.097   1.855
 3879W        W70420  17.263   3.780   0.660
 3880W        W70421  30.198  22.453  13.668
 3881W        W70422  19.554  21.271  10.240
 3882W        W70423  30.063  21.673   0.646
 3883W        W70424   0.357  11.792  12.977
 3884W        W70425  37.813  21.995   0.671
 3885W        W70426   4.892  33.215  13.972
 3886W        W70427   6.403   2.211  11.180
 3887W        W70428  18.056  10.082  10.665
 3888W        W70429   0.520  43.896  11.196
 3889W        W70430  39.101  36.728  11.019
 3890W        W70431  35.303  36.431   1.760
 3891W        W70432   5.338  24.525   0.269
 3892W        W70433  32.780  30.843   0.809
 3893W        W70434   5.214  22.664  10.211
 3894W        W70435   9.791  44.951  10.424
 3895W        W70436  14.625  21.299   1.872
 3896W        W70437  36.243   5.858  11.399
 3897W        W70438  44.465  24.587  10.647
 3898W        W70439  37.577   5.269   1.139
 3899W        W70440   0.280   2.841   4.347
 3900W        W70441  21.873  15.793   5.017
 3901W        W70442  35.343  22.826  13.833
 3902W        W70443   3.911   2.066   2.708
 3903W        W70444  19.359  34.722   3.602
 3904W        W70445  34.518  17.384   1.886
 3905W        W70446   3.032  29.952   3.067
 3906W        W70447  20.658  33.420  12.974
 3907W        W70448   5.326   4.677  11.174
 3908W        W70449  30.672   7.387  10.964
 3909W        W70450  30.400  23.095   2.132
 3910W        W70451  22.585  16.405  14.647
 3911W        W70452  14.329  22.869  13.923
 3912W        W70453  23.131  12.305  13.080
 3913W        W70454  26.475  38.161  10.809
 3914W        W70455   9.355  14.811  11.200
 3915W        W70456  21.882  43.009   4.475
 3916W        W70457  40.591   2.691  11.182
 3917W        W70458   6.336  27.477  14.598
 3918W        W70459  43.254  32.892  11.517
 3919W        W70460  26.612  18.023  12.638
 3920W        W70461  20.941   0.243  13.462
 3921W        W70462   6.944   6.568   0.395
 3922W        W70463   3.412   7.248  11.552
 3923W        W70464  13.347  12.102   4.605
 3924W        W70465  12.198  40.767   3.034
 3925W        W70466  10.266  24.816   1.435
 3926W        W70467  39.740  27.796  12.918
 3927W        W70468   7.162  19.994   3.305
 3928W        W70469  31.985  22.946   3.345
 3929W        W70470  20.019  15.285   0.860
 3930W        W70471   6.783  17.125  14.932
 3931W        W70472  11.241  26.601  13.578
 3932W        W70473  41.989  28.568   0.878
 3933W        W70474  15.124  25.580  10.629
 3934W        W70475  26.558   1.677   4.066
 3935W        W70476  42.852  12.878  13.805
 3936W        W70477  36.839  29.541  11.195
 3937W        W70478  26.241  36.240  13.556
 3938W        W70479   0.325  20.698   4.411
 3939W        W70480  12.979  33.432  12.537
 3940W        W70481  12.326  15.836  11.057
 3941W        W70482  12.773  20.952   1.002
 3942W        W70483  25.490   5.995  11.185
 3943W        W70484  31.489  13.710  12.363
 3944W        W70485  42.992   5.726   1.768
 3945W        W70486  20.466  37.521   1.690
 3946W        W70487  12.526  20.244  14.882
 3947W        W70488  36.386  23.987  13.935
 3948W        W70489  41.894  25.776  12.823
 3949W        W70490  29.614  24.780   3.103
 3950W        W70491   9.444  36.539  11.523
 3951W        W70492  12.092  38.417  10.583
 3952W        W70493  30.554  18.980   2.421
 3953W        W70494   8.686  22.504   3.635
 3954W        W70495  27.895   7.277   0.722
 3955W        W70496  44.270  14.634  11.483
 3956W        W70497  40.186  10.488   0.607
 3957W        W70498  14.362  42.672   5.169
 3958W        W70499  41.905  15.864  11.372
 3959W        W70500  20.703  44.546  13.937
 3960W        W70501  25.641  44.270   2.964
 3961W        W70502  34.456  22.234  11.245
 3962W        W70503  42.860  23.029   2.736
 3963W        W70504  41.939   0.315  14.802
 3964W        W70505  28.569  13.855  14.244
 3965W        W70506   7.198  37.616   9.853
 3966W        W70507  27.121   2.996   2.452
 3967W        W70508  26.160  43.447  10.725
 3968W        W70509  44.299  42.357   3.313
 3969W        W70510  40.323   6.905   0.253
 3970W        W70511  24.744  26.041   0.398
 3971W        W70512  26.628  33.669  10.618
 3972W        W70513  41.438   1.205   1.936
 3973W        W70514  32.927  19.052   2.082
 3974W        W70515  43.825   6.204   2.726
 3975W        W70516  28.742  44.010  14.173
 3976W        W70517  27.086  11.719   3.764
 3977W        W70518   5.739  10.840  11.051
 3978W        W70519  36.773   4.028   0.266
 3979W        W70520  37.985  20.597  11.195
 3980W        W70521  13.430   3.902   2.263
 3981W        W70522   1.796  18.796  14.409
 3982W        W70523   6.275   8.353   3.611
 3983W        W70524  37.956  31.470  11.146
 3984W        W70525  24.430  35.869  11.359
 3985W        W70526  23.604  44.893   1.605
 3986W        W70527  10.245   9.406  11.174
 3987W        W70528  16.489  23.707  13.148
 3988W        W70529  11.817  25.129  11.648
 3989W        W70530  44.471   2.982   2.989
 3990W        W70531  39.967  15.837  14.267
 3991W        W70532  23.482  38.039  10.754
 3992W        W70533  44.382   0.213   3.542
 3993W        W70534  11.731  25.716   0.658
 3994W        W70535  18.741  27.718   0.282
 3995W        W70536  24.122  36.237  12.074
 3996W        W70537  39.633  14.981  11.493
 3997W        W70538  36.940  43.921  14.975
 3998W        W70539  25.510  17.288  14.525
 3999W        W70540  24.523  25.701  13.040
 4000W        W70541  40.797  12.867   3.127
 4001W        W70542  24.095  43.975  13.591
 4002W        W70543  12.906  14.598  13.055
 4003W        W70544  18.519   7.241   3.153
 4004W        W70545   8.184  37.332  12.016
 4005W        W70546  18.324  30.572   5.593
 4006W        W70547  24.462  44.956  11.666
 4007W        W70548  25.597  17.671  11.726
 4008W        W70549  36.597  37.732  11.187
 4009W        W70550  21.705   0.439  13.841
 4010W        W70551  24.462   2.966  10.719
 4011W        W70552  16.772  29.682  12.403
 4012W        W70553  42.043  37.086   0.069
 4013W        W70554   0.234   5.851  11.413
 4014W        W70555  14.311  35.151   3.505
 4015W        W70556  36.044   5.448   1.910
 4016W        W70557   8.927   9.259  11.749
 4017W        W70558  43.342  34.349  13.459
 4018W        W70559   1.917   8.915   3.983
 4019W        W70560  13.261  41.097  12.108
 4020W        W70561  39.591  44.843  10.565
 4021W        W70562  38.065   9.511  14.016
 4022W        W70563  30.708  25.026   3.049
 4023W        W70564  44.942   3.280   4.020
 4024W        W70565  25.674   2.058   0.459
 4025W        W70566  27.189  33.127   4.120
 4026W        W70567  23.004  13.095   3.735
 4027W        W70568  26.507  34.947  11.201
 4028W        W70569   5.005  17.503  14.897
 4029W        W70570   5.895   9.586  11.095
 4030W        W70571  33.947  28.658   3.242
 4031W        W70572  24.496  33.546  14.803
 4032W        W70573  33.895  38.969   0.942
 4033W        W70574  29.421  23.467   3.738
 4034W        W70575  12.960   8.758  12.943
 4035W        W70576  22.839  24.088   0.454
 4036W        W70577  20.412  30.614  10.939
 4037W        W70578  10.934   2.747   4.000
 4038W        W70579   6.284  18.015   3.653
 4039W        W70580  35.408   1.044   1.834
 4040W        W70581  16.902  26.384  14.563
 4041W        W70582  15.475  19.098   0.847
 4042W        W70583  41.088  17.879  13.315
 4043W        W70584   6.867  42.165   2.276
 4044W        W70585  43.034  19.579  14.692
 4045W        W70586   6.896  30.001   3.682
 4046W        W70587   3.827  12.584  10.535
 4047W        W70588  19.427   9.770   0.739
 4048W        W70589   9.352  12.369   1.454
 4049W        W70590  43.250  41.321   2.962
 4050W        W70591  21.607   8.306   4.500
 4051W        W70592   7.371   7.077   3.397
 4052W        W70593  33.863  39.128  14.034
 4053W        W70594   0.947  18.026  13.509
 4054W        W70595  16.737  12.350   1.906
 4055W        W70596  13.055  13.399   1.826
 4056W        W70597  40.254  39.152  10.484
 4057W        W70598  14.645  42.081  12.997
 4058W        W70599  11.196  34.302  11.682
 4059W        W70600  38.354  17.904  10.639
 4060W        W70601  15.229  18.653   0.687
 4061W        W70602  34.342  16.344  11.922
 4062W        W70603   8.825  29.604  14.573
 4063W        W70604  36.774  21.307   1.447
 4064W        W70605   2.948  21.098  10.696
 4065W        W70606  28.676  23.120  12.379
 4066W        W70607  41.734  11.858  14.915
 4067W        W70608  44.666  25.582   1.865
 4068W        W70609  14.627   2.278  12.812
 4069W        W70610  34.461   0.240  10.449
 4070W        W70611  37.300  10.384  13.828
 4071W        W70612  38.962  12.273   3.268
 4072W        W70613  39.982  35.926   4.864
 4073W        W70614  35.418  26.447   1.282
 4074W        W70615  39.227  37.484  12.611
 4075W        W70616  11.790  24.447   4.338
 4076W        W70617   9.708  14.640   3.288
 4077W        W70618   8.700  21.971  13.012
 4078W        W70619   5.679  39.689   0.901
 4079W        W70620  34.996  19.673  12.912
 4080W        W70621   6.270   5.275   0.718
 4081W        W70622  40.670  38.154  14.928
 4082W        W70623  23.910  25.270  10.411
 4083W        W70624  36.567   7.197   2.146
 4084W        W70625  29.754  42.050  13.015
 4085W        W70626  14.108  32.259   1.257
 4086W        W70627  22.634  43.719   0.092
 4087W        W70628  38.544  26.986  14.454
 4088W        W70629   1.099   2.314   5.421
 4089W        W70630  39.455  39.937  13.958
 4090W        W70631  27.750   8.751  11.566
 4091W        W70632  16.911  44.071  12.183
 4092W        W70633  43.430  40.796  13.163
 4093W        W70634  38.049   4.701  13.136
 4094W        W70635  10.194  17.805   1.324
 4095W        W70636  29.224  31.630   2.797
 4096W        W70637  16.018  19.162  14.644
 4097W        W70638  35.033  13.103  13.510
 4098W        W70639  32.571  32.426   4.195
 4099W        W70640  13.680  41.876  11.970
 4100W        W70641  27.989  22.544  13.462
 4101W        W70642   1.053  27.507   4.133
 4102W        W70643   1.425  34.341   2.954
 4103W        W70644  25.517  14.525   3.277
 4104W        W70645   1.986  37.350  14.462
 4105W        W70646   5.381  28.707   0.986
 4106W        W70647  24.136  26.639   1.339
 4107W        W70648  10.198  23.297  11.047
 4108W        W70649   7.558  41.779  11.181
 4109W        W70650  39.721  36.525   2.826
 4110W        W70651  29.060   4.017  11.233
 4111W        W70652  35.219  17.260   4.065
 4112W        W70653  41.085  10.844   2.164
 4113W        W70654   6.932  34.524   2.656
 4114W        W70655   4.973  22.705   0.645
 4115W        W70656  40.580   4.240  13.507
 4116W        W70657   8.803  43.331   3.554
 4117W        W70658   2.717   0.375  10.652
 4118W        W70659  35.875  19.551   4.617
 4119W        W70660  34.616  37.049   3.106
 4120W        W70661  23.176   8.597  12.368
 4121W        W70662  36.774  16.161  11.796
 4122W        W70663  32.614  30.697  11.116
 4123W        W70664  24.744  25.050  14.047
 4124W        W70665  23.590   1.409  10.628
 4125W        W70666  31.086  11.613   9.776
 4126W        W70667   6.830   4.173  10.938
 4127W        W70668  30.556  42.126  12.722
 4128W        W70669  33.281  12.311  12.255
 4129W        W70670  44.506  17.789   2.436
 4130W        W70671  22.812  27.728  13.408
 4131W        W70672  26.839  12.699   0.920
 4132W        W70673  30.922  42.235  12.359
 4133W        W70674  31.457  10.909   4.141
 4134W        W70675  26.152  21.571   1.997
 4135W        W70676  11.867  32.459   4.585
 4136W        W70677  22.002  38.609   3.309
 4137W        W70678  14.865  43.970  12.950
 4138W        W70679  24.266  27.960  14.261
 4139W        W70680  43.381   9.678  11.416
 4140W        W70681  39.726  44.329  14.336
 4141W        W70682  35.215  22.574   5.039
 4142W        W70683  19.748   8.659   1.897
 4143W        W70684   2.358  23.411  14.851
 4144W        W70685   8.074  21.447  11.776
 4145W        W70686  15.579  17.151  12.020
 4146W        W70687   7.814  18.039  14.590
 4147W        W70688  18.026  15.734  12.344
 4148W        W70689  33.015   5.334  14.900
 4149W        W70690  16.768   6.938  12.495
 4150W        W70691  20.171  35.795  13.538
 4151W        W70692  26.378  37.538  12.466
 4152W        W70693  39.427  31.539   3.552
 4153W        W70694   2.386  10.390  10.097
 4154W        W70695  33.522  30.085   2.905
 4155W        W70696  44.585  23.617   3.621
 4156W        W70697  26.330  26.634   2.876
 4157W        W70698  18.976  27.160   3.870
 4158W        W70699  27.543  23.209  13.533
 4159W        W70700  31.421  16.553  11.460
 4160W        W70701  38.551  17.048  11.163
 4161W        W70702  25.682  23.946   3.294
 4162W        W70703  37.460  12.298  14.501
 4163W        W70704  27.662  21.390   3.138
 4164W        W70705  36.805  39.781   2.251
 4165W        W70706  23.313  18.484   4.137
 4166W        W70707  33.872   8.773   4.770
 4167W        W70708  19.305  14.846   4.498
 4168W        W70709  39.075  20.631   0.795
 4169W        W70710   5.383  35.920   4.129
 4170W        W70711  29.865  35.466   4.421
 4171W        W70712   2.565   3.899  13.279
 4172W        W70713  21.681  25.008  13.088
 4173W        W70714  18.528  37.996  13.344
 4174W        W70715  10.363  32.648   4.584
 4175W        W70716  36.459  42.451  12.963
 4176W        W70717  37.459  21.002  11.053
 4177W        W70718  25.461  31.886  11.112
 4178W        W70719   7.327   2.853   2.346
 4179W        W70720  25.275   2.355  10.671
 4180W        W70721  37.315   4.283  14.303
 4181W        W70722   3.013   6.085  14.944
 4182W        W70723  30.644  33.019   0.495
 4183W        W70724  12.049  35.070   4.131
 4184W        W70725   4.414   4.213  11.529
 4185W        W70726  38.313  29.858   2.856
 4186W        W70727  23.966  39.826   3.523
 4187W        W70728  33.092  36.533  12.022
 4188W        W70729   3.510  28.698   0.789
 4189W        W70730  11.698  43.070   2.768
 4190W        W70731  17.377  25.578   4.335
 4191W        W70732  36.954  15.770  10.514
 4192W        W70733  38.003   4.157   2.670
 4193W        W70734  24.033  36.840   0.494
 4194W        W70735   0.339  16.205  13.915
 4195W        W70736  44.792  30.981  11.505
 4196W        W70737  21.912  24.332   4.933
 4197W        W70738   0.247  43.371   3.745
 4198W        W70739   0.024  21.534  12.303
 4199W        W70740  22.725   4.265  14.830
 4200W        W70741  14.148  17.860   1.322
 4201W        W70742  19.353  25.140   1.625
 4202W        W70743  41.599  24.479   4.386
 4203W        W70744  34.300  21.538  10.775
 4204W        W70745  41.083  42.414  11.559
 4205W        W70746  19.973  39.419  13.092
 4206W        W70747   0.014   3.772   3.138
 4207W        W70748   3.291  27.536  12.075
 4208W        W70749   2.730  29.683   3.377
 4209W        W70750   7.023  23.090  12.063
 4210W        W70751   3.002  30.607  12.451
 4211W        W70752  26.554  26.671   2.416
 4212W        W70753   6.205  35.561  11.102
 4213W        W70754  42.055   4.814   0.709
 4214W        W70755  44.701  38.354   0.291
 4215W        W70756  28.032  10.656  13.254
 4216W        W70757  39.119   5.415   2.305
 4217W        W70758  24.896  42.020   2.843
 4218W        W70759  41.739  36.929   0.470
 4219W        W70760  17.459   3.770   2.686
 4220W        W70761  11.675  18.259  14.716
 4221W        W70762  16.502  22.033  11.209
 4222W        W70763  21.707   3.391  11.286
 4223W        W70764  42.422  22.595   3.350
 4224W        W70765  36.973  44.280   2.915
 4225W        W70766   2.908  27.448   4.202
 4226W        W70767  25.966   8.749   1.210
 4227W        W70768  30.992   5.872   3.361
 4228W        W70769  44.457   8.381  14.787
 4229W        W70770  10.850   5.429  12.073
 4230W        W70771  36.820  36.724  12.582
 4231W        W70772  16.217  30.558   2.645
 4232W        W70773   4.159  16.714   2.585
 4233W        W70774  32.985  33.104  12.077
 4234W        W70775  16.104  22.710   3.360
 4235W        W70776  34.878  37.025  10.702
 4236W        W70777  36.061  34.644   4.228
 4237W        W70778   0.881  27.194  12.706
 4238W        W70779   6.977  42.060   1.747
 4239W        W70780  42.481  22.510   4.414
 4240W        W70781  10.933  27.271   0.298
 4241W        W70782  30.618  15.666  14.269
 4242W        W70783   8.880  23.522  11.511
 4243W        W70784  37.608  14.907  11.173
 4244W        W70785  27.712   1.272   4.153
 4245W        W70786  38.385   0.517   2.765
 4246W        W70787  13.707  16.489   3.228
 4247W        W70788  22.532   2.226   1.467
 4248W        W70789  11.122  24.073  14.286
 4249W        W70790   9.252  33.853   0.412
 4250W        W70791   6.706   2.865  11.994
 4251W        W70792  44.429  40.019   0.586
 4252W        W70793  33.875  43.944   0.228
 4253W        W70794   8.260  34.593   2.401
 4254W        W70795  37.965  23.554  10.844
 4255W        W70796  39.523   6.853  11.973
 4256W        W70797  28.426  44.786  14.025
 4257W        W70798  14.539  42.487   0.425
 4258W        W70799  21.605  21.998  13.480
 4259W        W70800  29.568   6.841   3.613
 4260W        W70801  11.431  23.637   4.091
 4261W        W70802  15.174   6.346  13.255
 4262W        W70803  22.095  19.370  13.353
 4263W        W70804   1.984  39.513   4.664
 4264W        W70805  14.375  31.359   1.745
 4265W        W70806  26.606  30.755  14.027
 4266W        W70807  20.066   7.901  13.200
 4267W        W70808  23.027  17.750  13.895
 4268W        W70809  36.144  33.993  11.293
 4269W        W70810   1.013  35.276   0.252
 4270W        W70811  41.458  13.790   1.676
 4271W        W70812  31.790  33.909   0.181
 4272W        W70813   5.846  14.898   4.480
 4273W        W70814  13.674  43.476  11.188
 4274W        W70815  33.365  11.599  13.552
 4275W        W70816  17.069   2.453   1.789
 4276W        W70817  37.733  24.870   5.089
 4277W        W70818   5.905  29.620  12.859
 4278W        W70819  40.262   2.482   4.489
 4279W        W70820  39.991  42.417  13.453
 4280W        W70821  33.621   7.329   3.204
 4281W        W70822  32.491  43.241  14.981
 4282W        W70823  11.622   3.975  12.114
 4283W        W70824  31.338  16.733  11.932
 4284W        W70825  35.522  31.735   1.446
 4285W        W70826  13.121  19.684  13.567
 4286W        W70827   7.792   5.789   0.534
 4287W        W70828  27.600  13.837  10.507
 4288W        W70829  32.609  40.954   4.568
 4289W        W70830  25.234   8.493  12.595
 4290W        W70831  25.838  19.261  11.555
 4291W        W70832  33.879  28.577   4.154
 4292W        W70833  27.600  35.868  12.685
 4293W        W70834  14.630  13.148  12.683
 4294W        W70835  19.619  40.231  12.601
 4295W        W70836  36.326  17.263   3.712
 4296W        W70837  22.683   4.231   1.287
 4297W        W70838   6.223  41.429  12.437
 4298W        W70839  38.064  41.165  12.028
 4299W        W70840  40.091  16.141  11.079
 4300W        W70841  15.845  20.617  13.726
 4301W        W70842  10.453   5.925   2.582
 4302W        W70843  28.598  40.000  13.818
 4303W        W70844  37.280  38.555   0.891
 4304W        W70845   8.313  41.627  10.716
 4305W        W70846  42.803   3.451   4.175
 4306W        W70847  20.044  35.038   4.086
 4307W        W70848  34.631  30.766   0.415
 4308W        W70849   1.723   9.971  14.977
 4309W        W70850  25.517  43.359   2.870
 4310W        W70851  23.205  37.954   3.366
 4311W        W70852  31.554  27.494  10.632
 4312W        W70853   9.503   4.536  10.465
 4313W        W70854   8.098  34.350  10.346
 4314W        W70855  18.322  26.028   2.953
 4315W        W70856  41.696  37.476   3.813
 4316W        W70857  40.852  30.142   2.815
 4317W        W70858   8.782   7.776   0.860
 4318W        W70859  31.090  25.037  14.744
 4319W        W70860  32.387   0.404   0.758
 4320W        W70861  13.917   6.267  12.901
 4321W        W70862   0.601  27.893  12.001
 4322W        W70863  16.601  33.260  13.071
 4323W        W70864  20.513  22.937   2.355
 4324W        W70865  33.479  37.202   1.278
 4325W        W70866   2.950  40.295  12.857
 4326W        W70867  22.572  15.296   3.444
 4327W        W70868  11.181  30.080  11.866
 4328W        W70869  37.823   9.259   0.804
 4329W        W70870  40.395  16.796   4.976
 4330W        W70871  38.039  31.211   0.975
 4331W        W70872  25.443  28.613   3.185
 4332W        W70873  28.243  34.080   1.300
 4333W        W70874  42.931  37.125   1.714
 4334W        W70875  16.973  23.331   2.221
 4335W        W70876  28.850  26.329   0.282
 4336W        W70877  20.576  32.998   0.339
 4337W        W70878  10.123  35.857   2.910
 4338W        W70879  11.200  25.149   0.450
 4339W        W70880  13.736  29.472  11.604
 4340W        W70881  42.319  11.663   3.561
 4341W        W70882  16.604  35.339  12.845
 4342W        W70883  28.214  24.491   3.647
 4343W        W70884   5.728  28.907   3.125
 4344W        W70885  12.453  29.577  10.233
 4345W        W70886   4.430   8.735  10.985
 4346W        W70887  39.017  17.058   1.347
 4347W        W70888  30.986  24.300  12.526
 4348W        W70889  32.669  29.510   2.293
 4349W        W70890  39.910  14.971   2.378
 4350W        W70891   8.227  41.122  10.756
 4351W        W70892   0.570  33.159   2.211
 4352W        W70893   2.931   3.844   3.221
 4353W        W70894  36.604  34.907  11.181
 4354W        W70895   3.297  12.684  14.889
 4355W        W70896  12.087   6.829   3.228
 4356W        W70897  13.076  14.283  11.649
 4357W        W70898   4.823  22.264   3.711
 4358W        W70899  10.135  29.780   1.029
 4359W        W70900  34.050   9.143   4.388
 4360W        W70901  20.512   7.282  14.916
 4361W        W70902   0.572   7.776   4.540
 4362W        W70903  20.109  30.189  14.075
 4363W        W70904   7.880  21.659   2.839
 4364W        W70905  38.116  27.491  10.975
 4365W        W70906   4.777  24.994  14.423
 4366W        W70907  19.569   3.416   4.643
 4367W        W70908  18.464  29.654   0.347
 4368W        W70909   4.340   4.824  10.080
 4369W        W70910  38.244  20.737  10.774
 4370W        W70911   8.707  20.797   3.018
 4371W        W70912  17.681  14.954   5.420
 4372W        W70913   0.788   3.858   1.254
 4373W        W70914  43.368  31.158  13.791
 4374W        W70915  32.926   3.962  11.596
 4375W        W70916  10.966  42.990   0.407
 4376W        W70917  25.159   9.728   0.392
 4377W        W70918  35.572   2.566   1.373
 4378W        W70919  39.489  31.146  11.594
 4379W        W70920  17.958  38.656   1.657
 4380W        W70921  34.979   7.612   3.263
 4381W        W70922  36.682   5.232   3.998
 4382W        W70923  19.563  16.270  14.877
 4383W        W70924  23.797  35.760   4.194
 4384W        W70925   7.723  17.550   1.731
 4385W        W70926  38.989  33.146  14.510
 4386W        W70927  26.003  14.040   4.227
 4387W        W70928  40.642   3.722   0.912
 4388W        W70929  28.287  26.127  14.546
 4389W        W70930   1.736  44.210  14.358
 4390W        W70931  28.184  12.170   0.331
 4391W        W70932  34.637  26.656  13.907
 4392W        W70933  11.883  20.783   3.235
 4393W        W70934   3.292   7.900  13.945
 4394W        W70935   8.843  24.181   1.888
 4395W        W70936   2.934   2.787   3.147
 4396W        W70937  42.005   3.683  14.385
 4397W        W70938  18.541  16.717   2.937
 4398W        W70939  24.820   1.875   2.159
 4399W        W70940   6.481  34.455  13.336
 4400W        W70941  33.178  14.701   0.514
 4401W        W70942  32.421  33.270  12.492
 4402W        W70943  44.337   9.409  13.910
 4403W        W70944   8.977  13.165   3.458
 4404W        W70945   9.905   3.848   1.334
 4405W        W70946  32.254   1.856   0.017
 4406W        W70947   4.285  19.212  14.622
 4407W        W70948  30.690  43.837  14.501
 4408W        W70949   4.511   0.234  12.668
 4409W        W70950   6.604  42.335  12.405
 4410W        W70951  24.494  34.399  10.462
 4411W        W70952  44.686  28.399   2.724
 4412W        W70953   5.874   8.230   4.315
 4413W        W70954   0.901   1.274   4.504
 4414W        W70955   0.711  42.162   4.177
 4415W        W70956  35.382  40.603   2.882
 4416W        W70957  16.670  34.589  13.345
 4417W        W70958  10.105  34.207  11.620
 4418W        W70959  17.723  12.770   3.411
 4419W        W70960  26.394  20.941   3.018
 4420W        W70961  30.868  19.755   0.786
 4421W        W70962  35.128  37.364   2.420
 4422W        W70963  29.813  38.317   4.077
 4423W        W70964   4.680   0.196  14.025
 4424W        W70965  43.097  11.842  12.856
 4425W        W70966  38.275  21.738  11.656
 4426W        W70967  16.616  43.756  12.510
 4427W        W70968  21.948  33.688   2.442
 4428W        W70969   9.635  33.532  11.896
 4429W        W70970   4.520  26.255  11.153
 4430W        W70971  10.879  32.873   2.367
 4431W        W70972  28.586  39.757  12.979
 4432W        W70973  18.342  24.322   1.135
 4433W        W70974  43.932  41.525  12.141
 4434W        W70975  20.829  37.016   2.671
 4435W        W70976  11.209  38.391   3.681
 4436W        W70977   0.856  40.393  12.470
 4437W        W70978  11.029  23.247   3.383
 4438W        W70979  44.694  15.686  14.340
 4439W        W70980   1.275  44.965  12.459
 4440W        W70981  16.573  34.059  14.673
 4441W        W70982  36.658  29.932   1.382
 4442W        W70983  35.440  25.128   1.015
 4443W        W70984  44.123  34.160  11.125
 4444W        W70985  37.211   5.345  12.675
 4445W        W70986  40.946  25.378  11.484
 4446W        W70987   5.440  21.020   3.684
 4447W        W70988  22.206  13.342  14.958
 4448W        W70989   6.391   0.927   4.231
 4449W        W70990  23.538   7.607  10.638
 4450W        W70991   1.258  30.008   5.064
 4451W        W70992  31.880  19.104   4.464
 4452W        W70993  19.618  18.083  13.473
 4453W        W70994  19.053  36.118   1.749
 4454W        W70995  19.433   2.698   1.882
 4455W        W70996  18.041  10.206   0.940
 4456W        W70997   7.011  27.128  14.017
 4457W        W70998  25.636  10.681   4.147
 4458W        W70999   2.402   7.296   3.596
 4459W        W71000   4.000   6.768  14.172
 4460W        W71001  14.704  18.741   0.679
 4461W        W71002  29.415  40.855  10.694
 4462W        W71003   8.258  26.399   1.438
 4463W        W71004   4.875  10.717  10.878
 4464W        W71005  15.315  14.013  14.349
 4465W        W71006  33.021   8.144  13.330
 4466W        W71007  27.841  27.503  14.800
 4467W        W71008  20.078   0.766  12.195
 4468W        W71009  25.018  18.020  13.919
 4469W        W71010  12.824   5.781  13.474
 4470W        W71011   2.000   9.863   4.448
 4471W        W71012   8.585  14.594  14.236
 4472W        W71013   5.967   4.326  14.336
 4473W        W71014  37.254  16.278   3.799
 4474W        W71015  41.499   1.958   1.428
 4475W        W71016  32.860  32.565   4.620
 4476W        W71017   7.060  13.322  13.346
 4477W        W71018  26.407   3.389   4.652
 4478W        W71019  13.586   6.879  12.452
 4479W        W71020  28.553  31.601   0.939
 4480W        W71021  25.435  21.836  13.176
 4481W        W71022  14.477   5.345   3.239
 4482W        W71023  17.730  13.669  11.190
 4483W        W71024  22.027   5.478   1.332
 4484W        W71025   0.871  30.086   0.301
 4485W        W71026  28.805   1.171  12.618
 4486W        W71027   3.309  40.056  13.851
 4487W        W71028  12.309  18.777   0.094
 4488W        W71029  30.645  31.568  10.403
 4489W        W71030   1.218  19.309   1.693
 4490W        W71031  13.007  22.162   0.078
 4491W        W71032  13.981  41.295   2.857
 4492W        W71033  24.019  36.786  13.895
 4493W        W71034  42.922  39.084   0.719
 4494W        W71035  15.669  25.469   2.803
 4495W        W71036   4.526  13.028  14.413
 4496W        W71037  20.644  39.298   2.936
 4497W        W71038  43.738  31.937   3.110
 4498W        W71039   3.270  23.128   1.995
 4499W        W71040   9.536   7.460  11.465
 4500W        W71041  11.057   2.296   4.243
 4501W        W71042  33.229  29.376   5.006
 4502W        W71043  29.948  28.349   0.852
 4503W        W71044   4.217   8.861   4.300
 4504W        W71045  31.605   3.386  12.461
 4505W        W71046  20.847  36.086  14.842
 4506W        W71047  30.125  41.306  12.820
 4507W        W71048  29.983  23.974   2.277
 4508W        W71049  19.001  33.931  10.467
 4509W        W71050  16.534  16.679  12.057
 4510W        W71051   4.618  10.272  10.854
 4511W        W71052  39.903  18.044  11.132
 4512W        W71053  23.502  36.156   4.396
 4513W        W71054  21.065  26.624  12.785
 4514W        W71055   1.245  27.605   2.382
 4515W        W71056  15.087  17.939   4.132
 4516W        W71057   1.935  42.870  13.071
 4517W        W71058  35.300  35.074  10.632
 4518W        W71059  18.823  35.772  12.073
 4519W        W71060  11.976  22.432  10.324
 4520W        W71061  37.157  31.588  12.461
 4521W        W71062  24.461  19.951   1.559
 4522W        W71063   9.229  42.569  12.448
 4523W        W71064   7.850  28.084   4.137
 4524W        W71065   2.804   8.729  14.527
 4525W        W71066  32.290  39.013  13.977
 4526W        W71067   3.718   5.086  12.982
 4527W        W71068  15.438  32.722   4.867
 4528W        W71069   0.265  21.974  12.451
 4529W        W71070  25.188   8.272  12.135
 4530W        W71071  43.296   2.060   4.533
 4531W        W71072   7.363  22.122   4.387
 4532W        W71073  21.576  42.796  14.299
 4533W        W71074   6.937   3.292  14.405
 4534W        W71075   6.800  21.354   3.663
 4535W        W71076   7.439  33.181   2.109
 4536W        W71077  28.898  10.869  10.654
 4537W        W71078  20.728  10.820   3.298
 4538W        W71079  31.606  16.693  14.260
 4539W        W71080  40.908  30.687   3.247
 4540W        W71081   8.719  18.275   2.322
 4541W        W71082  44.311  27.449   2.990
 4542W        W71083  16.219  34.215   3.656
 4543W        W71084   8.370  10.235   1.206
 4544W        W71085   4.653  41.494  14.775
 4545W        W71086  24.127  37.036  11.208
 4546W        W71087  25.465  42.968  13.388
 4547W        W71088  43.321  15.790   9.708
 4548W        W71089  41.654  20.895   1.228
 4549W        W71090   5.185  38.854  13.488
 4550W        W71091   7.781  26.527  10.993
 4551W        W71092  30.017  37.182  10.656
 4552W        W71093  29.063  20.523  14.804
 4553W        W71094  25.569  40.873   2.866
 4554W        W71095  39.955  28.430   3.664
 4555W        W71096   2.477  38.360   4.085
 4556W        W71097  34.521  33.546   4.402
 4557W        W71098  15.114  27.746  13.357
 4558W        W71099  27.126  22.048  12.915
 4559W        W71100  10.874  33.885   0.396
 4560W        W71101  28.025  27.486   2.219
 4561W        W71102  38.360  25.602   4.001
 4562W        W71103  34.569   9.163  14.273
 4563W        W71104  13.085  32.183   2.438
 4564W        W71105  24.121  33.112  10.354
 4565W        W71106  35.578  30.234  11.197
 4566W        W71107  31.912  25.090  10.690
 4567W        W71108  26.397  20.754  12.170
 4568W        W71109   4.090   5.216   3.337
 4569W        W71110   7.227  23.627   0.474
 4570W        W71111  43.977  16.768  12.897
 4571W        W71112  38.595   6.366  13.290
 4572W        W71113  18.572  10.471   5.174
 4573W        W71114  13.704   2.490  14.058
 4574W        W71115   6.767  42.163   2.790
 4575W        W71116  26.459  40.053  12.943
 4576W        W71117  29.190  32.501  13.506
 4577W        W71118  13.126  20.230   1.345
 4578W        W71119  32.359   6.205   5.008
 4579W        W71120  43.216  12.140  14.817
 4580W        W71121  38.408  20.954  11.230
 4581W        W71122  41.242  18.787  12.634
 4582W        W71123  28.079  20.788   4.223
 4583W        W71124  25.351  22.207   3.407
 4584W        W71125   2.371  42.872  12.786
 4585W        W71126  30.213  16.753  10.422
 4586W        W71127  15.718  23.091   1.661
 4587W        W71128   4.647   4.778  13.051
 4588W        W71129  34.533  10.769   2.577
 4589W        W71130  20.808  22.597  12.379
 4590W        W71131  12.287  36.458  13.466
 4591W        W71132  15.770  44.385   4.698
 4592W        W71133   0.750  42.449   3.727
 4593W        W71134  12.216  37.285  13.897
 4594W        W71135   6.137   4.137  11.070
 4595W        W71136  16.772  37.588   4.539
 4596W        W71137   9.979   0.479  13.442
 4597W        W71138  44.064  42.670  14.871
 4598W        W71139   0.949  21.794   1.958
 4599W        W71140  14.075  19.125  10.688
 4600W        W71141  16.900  37.361  14.967
 4601W        W71142   2.938   5.319  10.525
 4602W        W71143  26.709  18.036  12.112
 4603W        W71144  27.242   2.221   4.655
 4604W        W71145  36.830   4.235  13.492
 4605W        W71146  24.719  42.303  12.008
 4606W        W71147  27.874   6.872   0.287
 4607W        W71148  26.070  43.102  12.059
 4608W        W71149  37.195  19.670  12.578
 4609W        W71150   6.139  33.834  11.573
 4610W        W71151  11.159  15.508   2.169
 4611W        W71152  16.734  33.097   2.635
 4612W        W71153   1.632   1.863   9.847
 4613W        W71154  42.355   3.892  14.703
 4614W        W71155  21.978  40.498  11.954
 4615W        W71156  20.555   2.685  13.026
 4616W        W71157  42.272   6.319   0.061
 4617W        W71158   6.060  34.139  11.056
 4618W        W71159  14.818   8.100  13.043
 4619W        W71160  10.723  23.976  12.932
 4620W        W71161  40.797  37.493  14.300
 4621W        W71162  16.827   2.840  11.690
 4622W        W71163  12.316   5.804  11.608
 4623W        W71164   8.647  27.585  12.344
 4624W        W71165  40.548  35.988   1.733
 4625W        W71166  41.989  19.675  10.770
 4626W        W71167  18.561  41.782   2.299
 4627W        W71168   5.460  44.766   2.311
 4628W        W71169   7.881  37.993  12.692
 4629W        W71170   8.828  23.038   2.606
 4630W        W71171  37.784  41.372   2.238
 4631W        W71172   8.757  12.959   2.954
 4632W        W71173  35.758  15.255   0.363
 4633W        W71174  40.308   2.243  10.456
 4634W        W71175  39.555  14.560   2.348
 4635W        W71176  30.251  12.740   1.309
 4636W        W71177  14.365  32.155   0.806
 4637W        W71178  14.529   1.779  12.957
 4638W        W71179  20.899   3.221  14.009
 4639W        W71180  32.374  35.525  13.139
 4640W        W71181  40.286  20.258   4.486
 4641W        W71182  11.189   0.231  11.580
 4642W        W71183  33.995  20.095  11.869
 4643W        W71184  34.799   9.973   3.659
 4644W        W71185   0.455  25.587   3.877
 4645W        W71186  35.146  12.274  14.641
 4646W        W71187   7.359   7.625   4.382
 4647W        W71188  40.227  44.001  14.838
 4648W        W71189  20.781  11.263  14.713
 4649W        W71190  35.461  34.212   4.599
 4650W        W71191  12.284  30.324   1.813
 4651W        W71192  13.694   5.828   4.838
 4652W        W71193   6.979  29.566  12.868
 4653W        W71194  35.471  28.957  13.617
 4654W        W71195  40.768   2.296  13.538
 4655W        W71196   2.575  30.357   4.533
 4656W        W71197  36.166   2.971   2.509
 4657W        W71198  20.830  12.753  12.991
 4658W        W71199   1.604  20.425   4.192
 4659W        W71200  25.615  22.905  10.604
 4660W        W71201   6.460  12.835  10.698
 4661W        W71202  18.541  20.724   4.056
 4662W        W71203   0.811  19.160   3.828
 4663W        W71204  27.134  11.618  13.713
 4664W        W71205  27.636  43.049   3.219
 4665W        W71206  26.413  30.110  12.195
 4666W        W71207  18.640  12.452  14.914
 4667W        W71208  28.558  27.026  10.613
 4668W        W71209  22.272  22.791   2.360
 4669W        W71210  11.604  38.295  14.797
 4670W        W71211   5.895  17.514   2.411
 4671W        W71212  32.655  12.125   3.551
 4672W        W71213  28.679  38.328   3.048
 4673W        W71214  18.403  22.246   2.397
 4674W        W71215  42.910  13.648   1.950
 4675W        W71216   5.806   4.390   1.476
 4676W        W71217  11.461  23.304   0.888
 4677W        W71218   4.135  43.333   2.479
 4678W        W71219  36.548  44.637   2.863
 4679W        W71220  28.145  10.621  12.454
 4680W        W71221  39.693  38.775   1.720
 4681W        W71222   9.656   9.244   3.515
 4682W        W71223   5.165  42.353   0.857
 4683W        W71224   9.631  38.314   1.831
 4684W        W71225  26.980  37.897   2.340
 4685W        W71226  35.969   3.825   0.142
 4686W        W71227  42.689  44.461   5.258
 4687W        W71228  39.400  22.124  10.445
 4688W        W71229  23.085  15.609  12.208
 4689W        W71230  43.353  13.325   0.219
 4690W        W71231  17.323  35.595   3.247
 4691W        W71232  11.444  36.686   2.392
 4692W        W71233  11.888  10.608  10.493
 4693W        W71234   3.266  36.087  13.405
 4694W        W71235  11.293   2.882  12.376
 4695W        W71236   6.491  19.237  14.506
 4696W        W71237  29.365  44.762   1.313
 4697W        W71238  30.579   5.931   1.860
 4698W        W71239   8.727  33.918  14.937
 4699W        W71240  13.277  22.479   2.810
 4700W        W71241  44.380  31.851  11.609
 4701W        W71242  12.155  37.379   5.024
 4702W        W71243   5.202  33.527   2.230
 4703W        W71244  14.666  31.946   0.406
 4704W        W71245  40.347  11.062  13.490
 4705W        W71246  13.625   8.229  12.450
 4706W        W71247  24.130  27.610  12.132
 4707W        W71248  39.015  21.658  12.954
 4708W        W71249  36.574  13.446   2.733
 4709W        W71250  27.725  12.331   2.668
 4710W        W71251   4.386  13.047   3.437
 4711W        W71252  28.205  25.948  10.276
 4712W        W71253  24.569  38.618  13.858
 4713W        W71254   3.419  20.758   1.327
 4714W        W71255  19.678   6.964   2.318
 4715W        W71256  42.216  43.321  12.521
 4716W        W71257  25.331   5.815   4.063
 4717W        W71258  32.717  44.440   3.866
 4718W        W71259   7.722  44.123   4.993
 4719W        W71260  28.964  14.687  14.290
 4720W        W71261   8.358  19.587  13.930
 4721W        W71262   3.280  32.454   3.526
 4722W        W71263  14.615  44.126   1.330
 4723W        W71264  30.267  18.210   2.707
 4724W        W71265  13.354  38.552   4.981
 4725W        W71266  17.145  38.239  10.190
 4726W        W71267  10.132  27.992  14.494
 4727W        W71268  22.217  17.557   3.689
 4728W        W71269  37.404  32.191   1.227
 4729W        W71270   9.645  18.753  10.553
 4730W        W71271  40.000  26.527  14.134
 4731W        W71272  19.351  10.071  13.459
 4732W        W71273  21.654  15.571   2.297
 4733W        W71274  34.902  13.811   4.767
 4734W        W71275  34.520  42.570  10.786
 4735W        W71276  18.841  23.655   4.155
 4736W        W71277   6.232  35.625   1.072
 4737W        W71278  36.111  31.526  10.587
 4738W        W71279  27.070  27.488   1.957
 4739W        W71280  41.103  30.914  11.855
 4740W        W71281  32.884  42.792   0.352
 4741W        W71282  19.604  30.002  11.782
 4742W        W71283  38.132  24.163  11.646
 4743W        W71284   6.380  12.166  11.148
 4744W        W71285  12.388   9.420   2.222
 4745W        W71286  10.275  11.332   2.488
 4746W        W71287  31.051  35.089   2.683
 4747W        W71288  25.554   1.267  10.695
 4748W        W71289  38.708  24.786   2.834
 4749W        W71290  17.948  19.763  11.111
 4750W        W71291   3.444   8.992   5.059
 4751W        W71292  31.180  16.116   0.423
 4752W        W71293  23.495  37.936  14.033
 4753W        W71294  15.707  39.461   1.482
 4754W        W71295  19.288  18.209   4.377
 4755W        W71296  37.254  41.925   4.649
 4756W        W71297   4.272  12.761   1.376
 4757W        W71298  26.589  12.902  14.041
 4758W        W71299  12.687   4.508  12.486
 4759W        W71300   1.869  25.262  10.729
 4760W        W71301  31.839  10.698   4.783
 4761W        W71302   7.910  20.522  11.094
 4762W        W71303   8.415  35.648  13.776
 4763W        W71304  20.070   1.759  10.764
 4764W        W71305  30.451  36.067  14.943
 4765W        W71306  44.298  38.404  14.971
 4766W        W71307   2.181  20.159   0.328
 4767W        W71308  17.268  36.367  11.562
 4768W        W71309   7.812  32.405   2.212
 4769W        W71310  14.044  22.591  13.617
 4770W        W71311  19.102  30.492  14.311
 4771W        W71312  19.695  23.443   3.378
 4772W        W71313  16.623  15.099  11.533
 4773W        W71314   2.414  33.452   9.846
 4774W        W71315  23.956  14.363   4.763
 4775W        W71316   0.506  24.439   3.190
 4776W        W71317  36.618   3.851  13.819
 4777W        W71318  41.098  43.742   1.470
 4778W        W71319  23.501  21.173  14.017
 4779W        W71320  23.537   4.723  12.930
 4780W        W71321  44.422  34.937  10.720
 4781W        W71322  20.604  13.334   4.132
 4782W        W71323   7.750  19.586  14.743
 4783W        W71324  39.000  19.521  12.862
 4784W        W71325  35.034  14.749   0.266
 4785W        W71326  27.932  42.954   0.393
 4786W        W71327  40.943   3.838  14.452
 4787W        W71328   2.765   7.664   3.309
 4788W        W71329  26.117  28.006   4.291
 4789W        W71330  35.067   8.088  11.928
 4790W        W71331  34.986  40.351   3.653
 4791W        W71332  16.096  39.438   2.361
 4792W        W71333  18.514  40.148  11.584
 4793W        W71334   8.796  12.411   1.637
 4794W        W71335  30.761  40.206  12.539
 4795W        W71336   4.944  30.959  10.247
 4796W        W71337  41.945  28.047  14.256
 4797W        W71338   2.723  38.438   4.923
 4798W        W71339  10.336  11.700  12.250
 4799W        W71340  37.554  39.815   2.891
 4800W        W71341  11.525  33.967  14.847
 4801W        W71342  15.425   2.440   0.806
 4802W        W71343  15.332  36.431  14.400
 4803W        W71344  29.491  32.693   3.638
 4804W        W71345  24.204  32.528   3.189
 4805W        W71346   7.964  17.114   5.093
 4806W        W71347   6.715   5.269   3.398
 4807W        W71348  22.029  25.699   0.426
 4808W        W71349  31.935  26.079  13.079
 4809W        W71350   4.027  22.085   2.493
 4810W        W71351  43.478  17.211  14.859
 4811W        W71352  44.462  19.752  14.237
 4812W        W71353  25.188  36.255  12.325
 4813W        W71354  19.040  35.147   3.988
 4814W        W71355  15.745  27.552   1.380
 4815W        W71356  43.925   1.206   2.204
 4816W        W71357   5.962  36.029   3.453
 4817W        W71358  29.726   3.119  10.349
 4818W        W71359  20.083  41.600  10.753
 4819W        W71360  32.552   0.023  14.399
 4820W        W71361  39.797  20.803  13.477
 4821W        W71362   1.932  33.064   2.712
 4822W        W71363  27.297  29.486  11.781
 4823W        W71364   2.991  17.639   1.335
 4824W        W71365  41.806  29.461   0.904
 4825W        W71366  40.277  39.673   1.869
 4826W        W71367  37.804  40.473  13.313
 4827W        W71368  44.095  42.242  11.534
 4828W        W71369   7.325  33.488   0.193
 4829W        W71370   9.462  14.605  12.677
 4830W        W71371  14.879   6.632   0.119
 4831W        W71372   6.163   5.258  14.641
 4832W        W71373  12.580  10.212   3.382
 4833W        W71374  16.681  38.259   3.707
 4834W        W71375  33.837   0.037  13.109
 4835W        W71376  24.609  27.061   3.881
 4836W        W71377  42.483  36.945   0.961
 4837W        W71378  22.633  27.448   1.482
 4838W        W71379  10.318  32.418   2.521
 4839W        W71380  19.720  42.826  12.943
 4840W        W71381  15.398  30.019  14.246
 4841W        W71382   4.765  37.641  12.944
 4842W        W71383  14.024   4.245  12.104
 4843W        W71384  32.653  20.236  11.991
 4844W        W71385   5.747  21.043   3.258
 4845W        W71386  14.177  41.051  14.810
 4846W        W71387   2.274   6.996  13.570
 4847W        W71388  16.075  23.949  11.099
 4848W        W71389  42.220  12.505   2.155
 4849W        W71390  42.029   1.424  14.026
 4850W        W71391  13.398  17.528   2.244
 4851W        W71392   0.248  11.265  11.437
 4852W        W71393  29.161   9.542   3.204
 4853W        W71394   9.687  33.064   4.596
 4854W        W71395  14.457  26.568  10.130
 4855W        W71396   1.766  35.803   4.198
 4856W        W71397   1.982  44.601   4.687
 4857W        W71398  41.745  28.090  11.595
 4858W        W71399  20.557  18.367  12.392
 4859W        W71400  41.974  38.988   2.663
 4860W        W71401  10.566  24.682   4.042
 4861W        W71402  16.438  32.663   1.474
 4862W        W71403  12.292  31.488  12.426
 4863W        W71404  26.633  40.495   1.963
 4864W        W71405   8.307  16.263   4.332
 4865W        W71406  44.044  10.319   4.411
 4866W        W71407   7.617  19.452  10.383
 4867W        W71408  22.856  29.129  11.265
 4868W        W71409  34.296   1.057   3.271
 4869W        W71410  18.731  13.814  11.202
 4870W        W71411  22.744   9.314   0.024
 4871W        W71412  28.503  31.206   0.483
 4872W        W71413  12.534   4.596   2.212
 4873W        W71414  30.618   5.819   0.988
 4874W        W71415   9.635  24.020  11.147
 4875W        W71416  31.811   1.439  14.444
 4876W        W71417   2.364  33.595   2.353
 4877W        W71418   6.522  20.978  14.481
 4878W        W71419  42.044  18.187  14.885
 4879W        W71420  11.944  28.108   4.125
 4880W        W71421  26.644  15.966   0.263
 4881W        W71422   5.354  30.539   0.870
 4882W        W71423  23.213  31.689   3.759
 4883W        W71424   7.389  39.823  14.033
 4884W        W71425  28.500   5.781  14.861
 4885W        W71426   1.856  28.850  11.705
 4886W        W71427  32.415  21.046   4.021
 4887W        W71428   7.509   3.189  11.944
 4888W        W71429   4.403  32.992  14.189
 4889W        W71430  32.463  29.515   3.953
 4890W        W71431  17.759  39.041  11.640
 4891W        W71432  13.379  39.720  12.641
 4892W        W71433  13.255  22.719  12.937
 4893W        W71434  10.194   9.656   4.059
 4894W        W71435   1.687  16.193   4.580
 4895W        W71436   7.983  43.495   1.715
 4896W        W71437  34.640  32.476  12.907
 4897W        W71438  25.519  32.947  13.581
 4898W        W71439  36.758  19.222   2.257
 4899W        W71440  26.218  26.244   0.300
 4900W        W71441  25.653  15.729  13.924
 4901W        W71442  37.116  41.956  11.449
 4902W        W71443  39.803  37.721  14.666
 4903W        W71444  20.990  44.285  14.995
 4904W        W71445  36.200  20.544   1.480
 4905W        W71446  37.112  40.486  14.462
 4906W        W71447  37.857  25.554  12.980
 4907W        W71448  33.991  38.959   1.957
 4908W        W71449  18.685  37.817   3.172
 4909W        W71450   2.729  29.008  10.361
 4910W        W71451  19.984  42.442   4.854
 4911W        W71452  22.203  44.927   4.178
 4912W        W71453  44.395  21.448   0.794
 4913W        W71454   3.889  14.668   3.266
 4914W        W71455   9.746   9.572  11.182
 4915W        W71456  22.624  16.787  14.268
 4916W        W71457  15.176   7.340  13.774
 4917W        W71458   4.972  30.988   2.831
 4918W        W71459  23.071  27.250   4.458
 4919W        W71460  30.484  38.534   1.914
 4920W        W71461  32.774   6.962  14.869
 4921W        W71462  37.626  13.646   3.295
 4922W        W71463  13.680  19.779   3.280
 4923W        W71464  24.243  27.464   3.717
 4924W        W71465  12.572   7.453   0.097
 4925W        W71466  43.472  31.969   5.020
 4926W        W71467  30.747  39.438   1.552
 4927W        W71468  25.024  21.127  11.185
 4928W        W71469   6.720  30.032   0.724
 4929W        W71470   9.436   7.432   0.146
 4930W        W71471  10.200  15.219  10.700
 4931W        W71472  13.450  15.859  11.971
 4932W        W71473  40.455   6.395   0.045
 4933W        W71474   3.363   2.872  13.948
 4934W        W71475  14.315   2.826  10.755
 4935W        W71476  25.331  28.179  13.656
 4936W        W71477  30.409  38.622  13.048
 4937W        W71478  43.979   7.022   4.666
 4938W        W71479   1.852  12.080  13.895
 4939W        W71480  11.825  34.350  13.941
 4940W        W71481  28.280  31.909  11.866
 4941W        W71482   1.496  23.559  11.917
 4942W        W71483  36.944  28.354  10.745
 4943W        W71484  38.595  40.874   2.350
 4944W        W71485  32.334  30.173   1.473
 4945W        W71486   5.786   3.910   2.781
 4946W        W71487   5.694  15.130  10.770
 4947W        W71488  20.093  34.508   3.326
 4948W        W71489  40.726  30.936   4.176
 4949W        W71490  44.713   9.320  11.143
 4950W        W71491  23.579   9.250  12.474
 4951W        W71492  23.708   2.289  10.559
 4952W        W71493  18.345   6.819  12.371
 4953W        W71494  28.502  16.623  11.420
 4954W        W71495  10.624   8.976  13.902
 4955W        W71496   8.658  35.348  13.422
 4956W        W71497  10.904  36.001   1.421
 4957W        W71498  24.105  30.558   4.458
 4958W        W71499  31.999   3.237  13.994
 4959W        W71500  31.083  34.492   0.191
 4960W        W71501  29.592   3.419   1.389
 4961W        W71502   2.922  33.076   2.830
 4962W        W71503  14.026   2.328  13.626
 4963W        W71504   6.779  30.522   3.744
 4964W        W71505  15.034  33.330   0.833
 4965W        W71506  18.717  23.970  14.797
 4966W        W71507  42.892  25.366  14.079
 4967W        W71508  39.918  34.456  13.674
 4968W        W71509  31.542   4.696  10.929
 4969W        W71510  31.170  34.166   5.076
 4970W        W71511  38.547  41.733   2.155
 4971W        W71512  33.498  42.233  14.750
 4972W        W71513  37.506  26.966  14.152
 4973W        W71514  31.547  31.530  13.704
 4974W        W71515  24.476  26.449  11.191
 4975W        W71516  41.123  25.167  10.419
 4976W        W71517   3.330  20.165   2.784
 4977W        W71518  10.776  24.984  14.326
 4978W        W71519   4.483  29.428  11.048
 4979W        W71520  35.925   4.491  11.637
 4980W        W71521  25.892  29.465   0.331
 4981W        W71522  38.515  36.855   3.912
 4982W        W71523  31.375  14.772   0.579
 4983W        W71524  34.606  43.941  11.845
 4984W        W71525  44.403  20.545   3.606
 4985W        W71526  33.572   2.821   1.366
 4986W        W71527  44.460  16.037   9.900
 4987W        W71528  25.893  13.595   3.610
 4988W        W71529   3.313  33.325  11.741
 4989W        W71530  21.739  42.320   4.073
 4990W        W71531  43.110   4.642  11.234
 4991W        W71532  24.247  12.185  14.031
 4992W        W71533   0.843  30.529   4.060
 4993W        W71534  32.091  42.461   1.983
 4994W        W71535  33.011  17.119   0.285
 4995W        W71536   9.100  38.013  13.343
 4996W        W71537  25.690  33.179  10.607
 4997W        W71538  34.693  19.265   0.219
 4998W        W71539  13.305  21.171  11.181
 4999W        W71540  21.723  19.222  10.966
 5000W        W71541  31.210  19.368  14.031
 5001W        W71542  36.281  19.113  10.637
 5002W        W71543  13.029  14.752  12.555
 5003W        W71544  12.155  34.869  14.002
 5004W        W71545  26.682  35.942   1.602
 5005W        W71546  19.317  18.014   1.266
 5006W        W71547  31.892  31.532  14.677
 5007W        W71548   1.057  16.730  13.821
 5008W        W71549  15.346   1.057   3.984
 5009W        W71550  24.276  31.918  14.830
 5010W        W71551  38.364   5.713  10.845
 5011W        W71552  15.148  40.477  14.829
 5012W        W71553   7.902  32.074   4.593
 5013W        W71554  32.460  41.877   1.699
 5014W        W71555  40.130  30.388   0.839
 5015W        W71556  28.151   2.040   0.463
 5016W        W71557  28.865   7.333   0.663
 5017W        W71558  10.174  40.304   0.706
 5018W        W71559  40.818  19.006  14.507
 5019W        W71560  37.384  37.053   2.633
 5020W        W71561  34.798  21.943   4.424
 5021W        W71562   7.529   9.260  10.832
 5022W        W71563  16.584  43.489  13.477
 5023W        W71564  28.074  11.884   4.962
 5024W        W71565  22.938  41.872   1.255
 5025W        W71566  32.420  23.165  12.551
 5026W        W71567  20.065   6.000   1.803
 5027W        W71568   4.662  42.965   0.980
 5028W        W71569  16.814   3.973   1.912
 5029W        W71570  16.962  35.935   5.070
 5030W        W71571   5.835   0.346  14.952
 5031W        W71572  24.639   8.241  12.077
 5032W        W71573  32.424   1.381   0.854
 5033W        W71574  35.031  26.409  12.126
 5034W        W71575  16.289  33.544   1.013
 5035W        W71576  34.936  29.917   0.799
 5036W        W71577  25.029  16.848   2.867
 5037W        W71578  26.501   0.038   4.021
 5038W        W71579  25.169  44.284  12.984
 5039W        W71580   9.766  34.506   2.323
 5040W        W71581  38.361  40.437   2.456
 5041W        W71582  33.908  19.849   1.229
 5042W        W71583   1.819  32.367  11.946
 5043W        W71584  25.972  26.711   0.089
 5044W        W71585  16.693  26.113  11.265
 5045W        W71586  16.028  35.940  11.120
 5046W        W71587   6.035   5.208   3.425
 5047W        W71588  13.643  20.802  12.544
 5048W        W71589  26.716   9.451   4.048
 5049W        W71590  39.119   4.391  11.121
 5050W        W71591  34.932  16.251  11.232
 5051W        W71592   6.889  36.453  10.502
 5052W        W71593   5.796   8.111   3.806
 5053W        W71594  44.391  20.086   4.579
 5054W        W71595  25.078  26.240   2.207
 5055W        W71596  15.547  19.692   1.985
 5056W        W71597   6.730  14.806   4.795
 5057W        W71598  38.831  18.086   4.191
 5058W        W71599  11.059  44.774   0.370
 5059W        W71600  31.406  35.253  11.937
 5060W        W71601  20.240  23.104   1.654
 5061W        W71602  24.675  20.823  11.585
 5062W        W71603  28.615  22.610   0.339
 5063W        W71604  40.446  13.642  13.524
 5064W        W71605  13.346  30.672  12.173
 5065W        W71606  44.249  21.297  12.421
 5066W        W71607  16.602  26.143   4.837
 5067W        W71608  22.793   3.383   4.102
 5068W        W71609  23.926  28.256  10.668
 5069W        W71610  28.939  42.046  13.382
 5070W        W71611  16.749  44.829  11.706
 5071W        W71612  38.583  19.550   3.255
 5072W        W71613  43.282  39.352   1.910
 5073W        W71614  33.059  21.672   3.810
 5074W        W71615  28.132   3.456  14.809
 5075W        W71616  30.156   3.796   2.995
 5076W        W71617  21.010  10.140  13.068
 5077W        W71618  16.046  29.346   0.339
 5078W        W71619  39.907  41.845  11.045
 5079W        W71620  19.801  25.981   3.256
 5080W        W71621  15.900  30.767   0.275
 5081W        W71622  37.062  11.677   2.280
 5082W        W71623  12.130  39.821  12.987
 5083W        W71624  20.995  30.458   0.821
 5084W        W71625  13.573  34.315  12.389
 5085W        W71626  36.073  16.608   3.394
 5086W        W71627  15.784   9.685  14.498
 5087W        W71628  15.501  44.908   0.476
 5088W        W71629  26.451  14.767   1.004
 5089W        W71630  22.988  20.219   4.182
 5090W        W71631  38.817  10.836  14.889
 5091W        W71632  29.602  17.083   3.791
 5092W        W71633   6.637   0.601  13.060
 5093W        W71634  37.998  39.695   3.107
 5094W        W71635  29.174  16.694  10.592
 5095W        W71636  20.746  14.038   2.400
 5096W        W71637  21.004  11.394  13.521
 5097W        W71638  23.915  42.337  11.152
 5098W        W71639  18.632   6.930  13.824
 5099W        W71640  20.859  25.555   3.227
 5100W        W71641  27.646  21.738  14.738
 5101W        W71642  22.779   0.508  11.702
 5102W        W71643  34.878  28.139  12.316
 5103W        W71644   6.150  15.766   0.884
 5104W        W71645  12.728  33.519   1.619
 5105W        W71646  11.433  14.750   4.122
 5106W        W71647  44.400  15.309  14.506
 5107W        W71648   2.948  13.193   3.948
 5108W        W71649   4.896  16.749  12.947
 5109W        W71650  12.793   5.206   4.176
 5110W        W71651  33.421  34.967   4.612
 5111W        W71652  39.199   1.198  11.103
 5112W        W71653  32.356   6.249   1.774
 5113W        W71654  31.167  16.115   1.907
 5114W        W71655   9.398  25.457   1.347
 5115W        W71656  20.791  17.016   1.422
 5116W        W71657   7.302  36.514   1.679
 5117W        W71658  35.348  30.404  11.626
 5118W        W71659  14.086  23.255   4.131
 5119W        W71660  38.309   1.200   4.918
 5120W        W71661  44.710  10.269  14.986
 5121W        W71662  29.220  24.247  14.943
 5122W        W71663  38.357  39.322   4.774
 5123W        W71664  15.678  27.115  11.352
 5124W        W71665  28.855  23.064  14.452
 5125W        W71666  19.965   1.942   2.795
 5126W        W71667   5.015  18.205  13.311
 5127W        W71668  32.137  44.217  14.368
 5128W        W71669  13.191  17.063   3.133
 5129W        W71670  35.127   8.609  11.631
 5130W        W71671  33.500   0.766   2.720
 5131W        W71672  33.165  20.198  12.033
 5132W        W71673  38.105  12.706  11.603
 5133W        W71674  24.922  33.379  12.412
 5134W        W71675  28.518   7.665  13.868
 5135W        W71676  26.401  25.681   2.405
 5136W        W71677  10.424   0.218  12.124
 5137W        W71678  36.804  41.144  12.360
 5138W        W71679   5.917  30.147  13.930
 5139W        W71680  33.143  37.823   4.085
 5140W        W71681  11.745   3.782  12.943
 5141W        W71682  40.877  42.358   4.608
 5142W        W71683  41.004   7.075  10.695
 5143W        W71684  26.195  22.452  14.046
 5144W        W71685  39.725   1.290   4.745
 5145W        W71686  21.117  37.007  13.507
 5146W        W71687  36.929  28.392  12.028
 5147W        W71688  40.481  11.181  10.280
 5148W        W71689  14.186  12.589   0.399
 5149W        W71690   7.335  40.062   0.788
 5150W        W71691  37.338  19.243  10.781
 5151W        W71692  24.298  34.415  11.327
 5152W        W71693   9.400  30.739   4.984
 5153W        W71694  42.633  42.024  13.951
 5154W        W71695  20.709  11.203   0.743
 5155W        W71696  13.324  44.883   5.078
 5156W        W71697   3.678  43.436  11.055
 5157W        W71698  37.149  17.205   3.298
 5158W        W71699  37.059   2.486  12.508
 5159W        W71700  21.595  34.849   0.805
 5160W        W71701  21.865  43.648  11.186
 5161W        W71702  32.476  22.647  12.353
 5162W        W71703  31.536   0.194   3.216
 5163W        W71704  32.430   6.372   0.480
 5164W        W71705   6.768  13.347   3.980
 5165W        W71706  11.770  34.879  12.167
 5166W        W71707  30.100   0.618  11.641
 5167W        W71708  38.389   8.711   1.861
 5168W        W71709  33.623  30.602  11.204
 5169W        W71710  18.508  33.659  14.826
 5170W        W71711  22.769  17.001  13.456
 5171W        W71712  11.305  38.868   2.456
 5172W        W71713  15.805   9.321  13.343
 5173W        W71714  44.047  34.313  12.378
 5174W        W71715  33.535  15.825  14.195
 5175W        W71716  31.690  26.072  10.691
 5176W        W71717   6.919   0.615  11.725
 5177W        W71718   0.831  41.805   0.993
 5178W        W71719  36.746  35.823  12.081
 5179W        W71720   4.860  41.815  10.967
 5180W        W71721  38.012   3.162  14.084
 5181W        W71722  35.812   9.185   1.153
 5182W        W71723  19.248  40.208  13.797
 5183W        W71724  21.523  13.730   0.925
 5184W        W71725  38.748  11.304  12.364
 5185W        W71726  43.402  16.956  10.718
 5186W        W71727   6.592  41.025  13.049
 5187W        W71728   9.908  25.667   2.398
 5188W        W71729   8.168  24.531   2.234
 5189W        W71730  17.269   2.682   1.354
 5190W        W71731   0.237  39.308  11.593
 5191W        W71732   5.172  20.067   3.858
 5192W        W71733  20.111  39.933   1.966
 5193W        W71734   4.026  42.333   2.661
 5194W        W71735  37.868   5.676   3.600
 5195W        W71736  21.479   8.885   3.835
 5196W        W71737  33.532  38.849  11.997
 5197W        W71738  39.440  36.624  11.414
 5198W        W71739  10.656  38.093  13.301
 5199W        W71740  24.008  10.309   0.745
 5200W        W71741  44.578  38.828   2.860
 5201W        W71742   1.726  10.593  13.978
 5202W        W71743   3.443  14.383  11.613
 5203W        W71744  25.158  22.618   4.128
 5204W        W71745  17.306  38.883  12.442
 5205W        W71746  41.091  21.958   3.438
 5206W        W71747  22.923   7.195   3.150
 5207W        W71748   0.944  15.710  14.765
 5208W        W71749  28.552  15.618   4.131
 5209W        W71750  34.523  42.990  13.384
 5210W        W71751  11.758  27.499   0.764
 5211W        W71752  35.951  15.238  14.872
 5212W        W71753  28.046  41.216  11.569
 5213W        W71754  24.640  43.320   2.622
 5214W        W71755  35.923  38.301  14.967
 5215W        W71756   6.938  28.069  13.500
 5216W        W71757  24.735  17.657  13.560
 5217W        W71758   6.036   8.326   1.425
 5218W        W71759   5.163  39.443  13.930
 5219W        W71760  27.398  25.538   0.343
 5220W        W71761  21.766   8.233   3.547
 5221W        W71762  39.249  44.942  14.740
 5222W        W71763  17.847  12.199   2.184
 5223W        W71764  37.032  29.235  11.611
 5224W        W71765   0.918   2.024  14.425
 5225W        W71766  33.808  22.073  12.482
 5226W        W71767   4.220  25.292  12.555
 5227W        W71768  37.010  10.466  12.729
 5228W        W71769  28.563   0.073   0.296
 5229W        W71770  27.582   0.817  11.129
 5230W        W71771  20.817  36.966   1.350
 5231W        W71772  12.753  15.207   3.370
 5232W        W71773  30.287  40.991   1.220
 5233W        W71774  22.228  37.479   1.873
 5234W        W71775  25.968  32.873   0.561
 5235W        W71776   0.771   9.340   3.672
 5236W        W71777   6.786  41.266   3.847
 5237W        W71778  36.968  26.746   1.776
 5238W        W71779  32.958  14.851  14.572
 5239W        W71780   3.754  27.687   3.496
 5240W        W71781  39.066  22.565  14.309
 5241W        W71782  26.820  25.936   3.270
 5242W        W71783  27.602   3.827  10.892
 5243W        W71784  43.292  27.797  14.513
 5244W        W71785   8.453  41.552   2.731
 5245W        W71786  35.936  19.767   2.497
 5246W        W71787  14.153  11.123  11.144
 5247W        W71788  33.985  16.658   1.381
 5248W        W71789   9.455  17.779  12.830
 5249W        W71790  22.709  43.253   2.301
 5250W        W71791   1.378   2.191  11.745
 5251W        W71792  28.709  43.418   0.851
 5252W        W71793  32.734  36.751  11.177
 5253W        W71794  23.248  33.607  11.284
 5254W        W71795  30.385  37.425   0.482
 5255W        W71796   2.728  18.854  14.430
 5256W        W71797   4.979   3.735   4.607
 5257W        W71798  15.766  20.532   2.433
 5258W        W71799  25.238  40.618  10.947
 5259W        W71800  12.727  38.524   0.208
 5260W        W71801  38.500  14.822   0.297
 5261W        W71802  32.049  18.598  14.409
 5262W        W71803  37.932   7.407  13.917
 5263W        W71804  37.448  39.070  12.463
 5264W        W71805   3.215  21.605   3.171
 5265W        W71806  35.087  28.581   1.275
 5266W        W71807   4.225  33.679   2.370
 5267W        W71808   2.449  27.106  13.764
 5268W        W71809  24.000  42.393   1.783
 5269W        W71810   3.483  10.250  12.298
 5270W        W71811   2.946  11.299   2.241
 5271W        W71812  18.675  12.790   4.485
 5272W        W71813  44.417  30.315  13.435
 5273W        W71814   1.488  17.908  14.406
 5274W        W71815   6.709  13.090  12.898
 5275W        W71816  17.208  17.777  12.107
 5276W        W71817   5.672  40.948   2.603
 5277W        W71818  41.262  24.639   0.028
 5278W        W71819  30.768  11.028   5.051
 5279W        W71820  44.031  25.507  13.308
 5280W        W71821   0.828  26.024   2.359
 5281W        W71822   2.359  27.738   3.151
 5282W        W71823  39.118  10.349  13.414
 5283W        W71824   7.619  34.268  11.088
 5284W        W71825  21.629  14.598   3.328
 5285W        W71826   4.790  39.945  14.004
 5286W        W71827  24.562  32.322  14.995
 5287W        W71828  40.271  19.634  14.887
 5288W        W71829  41.668  37.242  12.530
 5289W        W71830   9.826  17.024   1.431
 5290W        W71831  28.370  29.668   0.427
 5291W        W71832  13.819   5.115  11.052
 5292W        W71833  30.690  19.647   3.732
 5293W        W71834  12.894  19.826  11.049
 5294W        W71835  40.268  30.180  14.609
 5295W        W71836  24.496  13.140  12.409
 5296W        W71837  20.288  33.964   4.741
 5297W        W71838  34.221   4.280   2.743
 5298W        W71839  16.299   5.201  12.454
 5299W        W71840  13.275  24.178   4.696
 5300W        W71841  43.723  31.064   4.113
 5301W        W71842  43.507  36.441  12.503
 5302W        W71843   4.241  21.713   3.829
 5303W        W71844  34.404  34.171  11.592
 5304W        W71845  15.769  33.196   4.254
 5305W        W71846  15.445  20.116   2.378
 5306W        W71847  14.208   5.401   0.069
 5307W        W71848  30.956  20.138   1.136
 5308W        W71849  10.832   0.221  10.812
 5309W        W71850  15.650   8.357   3.073
 5310W        W71851   4.872  15.557  14.742
 5311W        W71852  43.756  16.377   5.057
 5312W        W71853  22.549  44.723   2.391
 5313W        W71854   0.758  21.443  14.208
 5314W        W71855   9.733  14.695  12.235
 5315W        W71856  17.046  41.912   2.295
 5316W        W71857   7.321   8.634   1.657
 5317W        W71858   8.772  20.482   1.245
 5318W        W71859  16.149  30.625  11.503
 5319W        W71860  21.976   5.269   2.248
 5320W        W71861  30.133   6.758   2.412
 5321W        W71862  44.924  34.542   1.835
 5322W        W71863  10.908  39.659   5.397
 5323W        W71864  31.604  14.045   0.737
 5324W        W71865  13.262  23.881  11.191
 5325W        W71866  22.967  20.407  11.076
 5326W        W71867  44.320  16.388  13.511
 5327W        W71868  41.108  16.281  12.471
 5328W        W71869   6.709   0.192  11.930
 5329W        W71870  13.235  19.543   1.639
 5330W        W71871  18.135  26.502  13.848
 5331W        W71872  36.347  32.895  13.084
 5332W        W71873   9.766   6.855   4.748
 5333W        W71874  39.585   4.908  12.798
 5334W        W71875   2.181  18.285   4.669
 5335W        W71876  28.372  23.031  13.276
 5336W        W71877  31.165  27.601  13.315
 5337W        W71878  33.192  17.800  11.730
 5338W        W71879  10.651  23.231  13.517
 5339W        W71880  40.423  23.943  10.455
 5340W        W71881  30.485  40.392   3.851
 5341W        W71882   1.252  14.354  10.564
 5342W        W71883  15.632   3.432   0.352
 5343W        W71884  42.253  25.473  11.118
 5344W        W71885  14.134   4.733  11.998
 5345W        W71886  25.511  13.356   2.514
 5346W        W71887  41.573  37.778   1.843
 5347W        W71888   1.735  40.199   2.179
 5348W        W71889  27.721  40.283  11.812
 5349W        W71890  43.693  39.596   2.186
 5350W        W71891  32.650  20.051   0.307
 5351W        W71892   4.577  42.289   3.351
 5352W        W71893  43.219  18.268   2.348
 5353W        W71894  19.150   0.294   2.056
 5354W        W71895  15.843  36.975  13.807
 5355W        W71896  31.212   8.387   3.072
 5356W        W71897  30.822  42.405   1.262
 5357W        W71898  41.837  36.066  13.865
 5358W        W71899  23.486  24.963   3.780
 5359W        W71900   8.694  16.328   1.329
 5360W        W71901  23.526   5.786   0.475
 5361W        W71902  24.798   5.245   0.339
 5362W        W71903   6.463  34.401   2.404
 5363W        W71904  14.116  24.723  12.504
 5364W        W71905  27.434   8.979  13.096
 5365W        W71906  36.138  34.547   1.959
 5366W        W71907  36.609  19.097  12.991
 5367W        W71908  11.711  39.309   1.937
 5368W        W71909  35.573  27.715  14.406
 5369W        W71910  17.744   7.831  14.258
 5370W        W71911  22.775  23.014   2.412
 5371W        W71912  36.859  18.138  12.064
 5372W        W71913  38.431  20.616   4.138
 5373W        W71914  41.476  19.217  12.811
 5374W        W71915  11.645   4.145   2.377
 5375W        W71916   8.379   6.968   3.384
 5376W        W71917  42.972   2.254  14.510
 5377W        W71918  17.749   5.712  14.895
 5378W        W71919   5.606   5.775   2.827
 5379W        W71920  31.583  16.749   3.681
 5380W        W71921  32.290   8.316   3.159
 5381W        W71922  41.592  30.508  14.857
 5382W        W71923  33.500  23.530   0.088
 5383W        W71924  13.397  42.825   2.519
 5384W        W71925   8.305  31.080  13.534
 5385W        W71926  23.170  20.977   0.795
 5386W        W71927  32.507  37.623  11.536
 5387W        W71928  38.431  23.991  12.068
 5388W        W71929  30.107   1.831  10.663
 5389W        W71930  35.611  41.438   1.114
 5390W        W71931  37.770   9.234   3.155
 5391W        W71932  29.781   0.349   5.096
 5392W        W71933   5.121   9.205   9.771
 5393W        W71934  24.681  38.213  10.731
 5394W        W71935  17.837  30.630  11.181
 5395W        W71936   7.150  39.339   3.081
 5396W        W71937  30.318  14.663   0.839
 5397W        W71938  27.676  33.760   1.440
 5398W        W71939  36.895  10.812  14.929
 5399W        W71940  27.036   1.198  13.324
 5400W        W71941  27.016   8.701   2.407
 5401W        W71942   2.175  32.362  10.706
 5402W        W71943  39.849  44.809   3.827
 5403W        W71944  38.317  25.605   0.758
 5404W        W71945  32.972  36.777   0.322
 5405W        W71946  44.314  24.362  14.332
 5406W        W71947  25.540  26.406   2.387
 5407W        W71948  12.293  27.603  10.475
 5408W        W71949  42.607  30.453  13.397
 5409W        W71950   8.081  33.013   4.414
 5410W        W71951  30.980  14.549  13.728
 5411W        W71952  28.448   9.548   0.975
 5412W        W71953  10.730  25.027  12.970
 5413W        W71954  10.822   5.882   2.932
 5414W        W71955  11.149   5.007   4.729
 5415W        W71956  27.469  32.595   3.316
 5416W        W71957  10.907   9.797   3.871
 5417W        W71958  40.606   7.353   0.285
 5418W        W71959  36.924  43.769   3.734
 5419W        W71960  26.373  25.384   1.374
 5420W        W71961  13.186   2.973   4.708
 5421W        W71962  41.052  29.909   2.251
 5422W        W71963  15.325  35.983   2.138
 5423W        W71964  25.535  19.722   1.356
 5424W        W71965  31.292   5.481   3.497
 5425W        W71966   0.500  15.979  14.355
 5426W        W71967   0.108  43.310   0.392
 5427W        W71968   3.988  39.324  11.882
 5428W        W71969   9.877   5.349  14.697
 5429W        W71970  20.090  14.302   3.663
 5430W        W71971  25.118   2.722   3.763
 5431W        W71972   7.150  34.940   0.057
 5432W        W71973  34.013  39.942  13.372
 5433W        W71974   7.780  21.467  10.173
 5434W        W71975  44.049   6.982   3.964
 5435W        W71976   8.046  40.501  10.235
 5436W        W71977   2.253  24.212   3.875
 5437W        W71978  15.064  37.243   4.128
 5438W        W71979  22.629  34.694  10.615
 5439W        W71980  14.607  37.812  13.045
 5440W        W71981  11.454  30.020  13.308
 5441W        W71982  14.746  35.723  10.058
 5442W        W71983   0.670   2.031   2.372
 5443W        W71984  10.797  26.539   3.757
 5444W        W71985  21.755  27.886   1.331
 5445W        W71986  16.674   5.164   2.327
 5446W        W71987  39.324  16.474  11.386
 5447W        W71988  42.361   1.800   0.960
 5448W        W71989  26.686  34.280  11.896
 5449W        W71990   9.873  42.796  11.526
 5450W        W71991   2.619  16.809   3.641
 5451W        W71992   3.535  30.027   3.010
 5452W        W71993  15.830  18.234  11.156
 5453W        W71994  19.812  12.400   4.741
 5454W        W71995  35.063  33.410   3.504
 5455W        W71996  20.182  38.906   2.272
 5456W        W71997  18.535  33.464  12.497
 5457W        W71998  37.415  27.077   4.899
 5458W        W71999  38.126  20.835   4.866
 5459W        W72000  41.556  31.858   2.737
 5460W        W72001  21.297  19.840   2.352
 5461W        W72002  28.545  35.220  12.530
 5462W        W72003  43.998   3.949  13.806
 5463W        W72004  43.508  11.803  14.286
 5464W        W72005  23.944  19.802   0.744
 5465W        W72006  29.166  14.555  13.441
 5466W        W72007   0.791   3.658  11.110
 5467W        W72008  38.926  41.530   2.934
 5468W        W72009  30.144  37.905   4.208
 5469W        W72010   2.777   9.708  13.957
 5470W        W72011  32.189   9.809  10.680
 5471W        W72012  11.886  12.179   2.298
 5472W        W72013  43.251  43.680  13.908
 5473W        W72014  40.484  40.431   2.398
 5474W        W72015  16.356  27.349   2.896
 5475W        W72016  37.063  25.092  10.480
 5476W        W72017  33.133  29.901  13.793
 5477W        W72018  22.286  44.517   3.339
 5478W        W72019  35.611   0.385   4.590
 5479W        W72020   9.891  18.897  11.374
 5480W        W72021  14.511   5.853  14.325
 5481W        W72022  14.478  31.369  14.683
 5482W        W72023  37.960  28.665  12.013
 5483W        W72024  15.105  41.911  13.388
 5484W        W72025   9.606  26.122  13.925
 5485W        W72026  40.425  33.652  13.080
 5486W        W72027   8.141   4.513  12.616
 5487W        W72028   8.054  32.036  13.012
 5488W        W72029  34.565  13.797  14.857
 5489W        W72030  24.750  34.476  12.296
 5490W        W72031  16.874   8.874  12.467
 5491W        W72032  40.572  16.709  10.136
 5492W        W72033  38.386  21.249  10.777
 5493W        W72034  30.367  25.460   4.801
 5494W        W72035  42.338   3.045   2.275
 5495W        W72036  17.354  31.557   5.351
 5496W        W72037  12.882  11.025   1.722
 5497W        W72038  37.016   1.905  12.928
 5498W        W72039  33.505  10.391  12.685
 5499W        W72040  27.288  18.420  13.456
 5500W        W72041  36.335  33.550  13.806
 5501W        W72042  37.390   8.377  14.356
 5502W        W72043  42.698  12.181  14.815
 5503W        W72044  41.597  38.501  12.078
 5504W        W72045   3.376  39.794   3.306
 5505W        W72046  44.274   2.234   1.623
 5506W        W72047  18.047  27.128   3.822
 5507W        W72048  30.512  20.621   2.177
 5508W        W72049  18.761   2.049   0.230
 5509W        W72050   2.203   8.486  11.205
 5510W        W72051  24.284   9.315  14.764
 5511W        W72052  39.921  35.562   3.429
 5512W        W72053   2.478  22.429   1.076
 5513W        W72054   7.772   9.478   0.060
 5514W        W72055  14.387  12.527   1.795
 5515W        W72056  43.825  12.361  11.951
 5516W        W72057  12.785  35.938   3.279
 5517W        W72058   0.269   8.870  13.829
 5518W        W72059   1.301  24.844   2.392
 5519W        W72060  19.179  39.247   2.148
 5520W        W72061  31.901   3.717   1.164
 5521W        W72062  41.783  10.139   2.966
 5522W        W72063  13.211  42.389   1.781
 5523W        W72064  19.578  18.213  12.514
 5524W        W72065  39.436   2.146   2.848
 5525W        W72066  35.168  24.451   4.532
 5526W        W72067   4.682  18.534   1.822
 5527W        W72068  26.505  37.552  13.429
 5528W        W72069  22.506  13.233   3.598
 5529W        W72070   3.523  16.876   3.122
 5530W        W72071  16.072  18.316  14.397
 5531W        W72072  31.348   9.267   3.254
 5532W        W72073  39.323  13.360  14.446
 5533W        W72074   1.778   8.839  11.028
 5534W        W72075  44.486  31.314   4.544
 5535W        W72076  21.433   5.997  14.944
 5536W        W72077  20.057  17.216  12.454
 5537W        W72078  37.911  36.112  13.960
 5538W        W72079  15.715   0.581  11.188
 5539W        W72080  17.838  24.932   1.816
 5540W        W72081  13.758   5.030   3.608
 5541W        W72082  18.256   7.731  14.360
 5542W        W72083  43.854  16.109   3.282
 5543W        W72084  17.818  37.651  12.381
 5544W        W72085  26.389  12.271  13.387
 5545W        W72086  38.451   0.281  11.889
 5546W        W72087   0.310  26.697  12.889
 5547W        W72088   0.410  42.395  11.100
 5548W        W72089  13.610  17.884   4.264
 5549W        W72090  10.829  35.350  12.662
 5550W        W72091  26.468  22.737   2.204
 5551W        W72092  16.409  30.028   4.552
 5552W        W72093  38.819  31.131  14.453
 5553W        W72094  41.486   8.413   2.655
 5554W        W72095   0.935  22.229  14.545
 5555W        W72096  29.548   7.199   0.389
 5556W        W72097  18.752  34.079   4.647
 5557W        W72098   9.740  33.935  13.963
 5558W        W72099  39.699  19.286  11.634
 5559W        W72100  10.579  37.588  10.927
 5560W        W72101  10.523  23.024   2.511
 5561W        W72102  34.170   5.115   4.080
 5562W        W72103  10.748  31.429   0.475
 5563W        W72104   2.760  38.404  14.260
 5564W        W72105  20.182  15.728  13.508
 5565W        W72106   1.291  38.267   3.684
 5566W        W72107   7.081  16.823  11.611
 5567W        W72108  20.578  35.799   1.476
 5568W        W72109  35.408  12.628   2.398
 5569W        W72110  38.871  42.386  12.392
 5570W        W72111  26.090  37.749  12.852
 5571W        W72112  29.129   5.060  14.767
 5572W        W72113  12.335  42.910  13.027
 5573W        W72114  20.745  18.925  11.454
 5574W        W72115  18.864   1.195  12.478
 5575W        W72116  20.028  12.702  12.614
 5576W        W72117  39.459   9.446  12.404
 5577W        W72118   4.742   2.472   1.406
 5578W        W72119  43.884  17.200  10.670
 5579W        W72120   5.887  26.258   2.690
 5580W        W72121   2.898  44.283   2.889
 5581W        W72122   1.074   7.306  13.511
 5582W        W72123  39.319  24.580  10.654
 5583W        W72124  44.427  25.406   3.370
 5584W        W72125  37.855  30.369   1.176
 5585W        W72126  25.096  33.796   1.730
 5586W        W72127   6.605   9.345   2.210
 5587W        W72128  35.649  13.537  14.757
 5588W        W72129  40.439  35.308  12.380
 5589W        W72130  29.153   2.020   0.217
 5590W        W72131   7.040  25.651  12.065
 5591W        W72132  39.481  17.629   3.998
 5592W        W72133  33.580   5.554   2.905
 5593W        W72134  37.645  35.606   1.233
 5594W        W72135   8.290  22.946  11.895
 5595W        W72136  36.528  21.805  10.393
 5596W        W72137  43.466  12.302   3.558
 5597W        W72138  16.846  15.245   0.511
 5598W        W72139  19.332   2.858  14.941
 5599W        W72140  15.871  15.108   4.124
 5600W        W72141  34.948  17.859  12.568
 5601W        W72142   3.683  35.944  14.881
 5602W        W72143  17.105  15.785   2.886
 5603W        W72144  30.101  28.484  13.494
 5604W        W72145  42.266  37.516  14.350
 5605W        W72146   8.880  35.579  14.860
 5606W        W72147  11.754   6.888   0.917
 5607W        W72148  21.066  19.671  11.996
 5608W        W72149  44.889  19.431  10.581
 5609W        W72150   0.537  36.401   2.752
 5610W        W72151  40.565   6.592   0.951
 5611W        W72152  17.172  29.758  14.035
 5612W        W72153   3.504  24.223   2.663
 5613W        W72154  23.048  27.899   1.229
 5614W        W72155   1.243  35.727  14.266
 5615W        W72156  33.466  22.449   1.818
 5616W        W72157  35.550  32.181   3.332
 5617W        W72158  26.959  31.844   2.790
 5618W        W72159  33.542  35.288  10.716
 5619W        W72160   3.758  16.266   0.770
 5620W        W72161  37.775  22.780   2.408
 5621W        W72162  14.246  12.364   4.168
 5622W        W72163  16.549   7.674   3.583
 5623W        W72164   0.791  37.594  14.935
 5624W        W72165  41.272  32.171   2.294
 5625W        W72166   1.145  20.550  14.054
 5626W        W72167  17.638  28.939  10.651
 5627W        W72168  29.212  17.011   0.505
 5628W        W72169  31.552  44.458   4.271
 5629W        W72170  37.707   6.308   3.072
 5630W        W72171   6.825  40.264   0.856
 5631W        W72172  12.508   4.898  11.042
 5632W        W72173  24.273  25.811  12.037
 5633W        W72174  28.426  41.138  10.473
 5634W        W72175  16.117  17.199  12.888
 5635W        W72176  19.058   6.034   3.732
 5636W        W72177  37.250  25.508  13.955
 5637W        W72178  19.716  31.458  13.892
 5638W        W72179   7.613  34.166  11.903
 5639W        W72180  38.097   5.201   2.291
 5640W        W72181  23.081  34.345  12.022
 5641W        W72182   6.923  38.027   4.185
 5642W        W72183  37.479  11.873  12.326
 5643W        W72184  43.836  24.374  14.633
 5644W        W72185  29.024   5.745   1.255
 5645W        W72186  23.476  39.940  13.991
 5646W        W72187   5.240  41.957  12.645
 5647W        W72188   2.711  19.108  14.893
 5648W        W72189  44.461   5.184  12.065
 5649W        W72190  36.313  29.017  14.000
 5650W        W72191  44.371  39.290   2.827
 5651W        W72192  24.184  42.476  11.668
 5652W        W72193  26.581  29.467   0.935
 5653W        W72194  21.644  25.412  12.156
 5654W        W72195  17.240  36.710  13.870
 5655W        W72196   7.173  21.047  12.598
 5656W        W72197  41.596  43.961  14.551
 5657W        W72198  20.002  29.488   1.194
 5658W        W72199  13.913  26.741  14.822
 5659W        W72200  10.266   5.347   3.905
 5660W        W72201  23.986  31.638   3.171
 5661W        W72202  23.971   8.803   3.675
 5662W        W72203  41.810   1.902  12.544
 5663W        W72204  15.618   4.419   1.374
 5664W        W72205   6.220  18.853  14.922
 5665W        W72206  28.564  40.126   0.722
 5666W        W72207  10.965   3.987   2.859
 5667W        W72208  37.955   2.099  11.081
 5668W        W72209   0.030  40.380   3.360
 5669W        W72210  32.114   0.400   2.385
 5670W        W72211  20.184   4.208  14.945
 5671W        W72212   3.069  21.899   5.011
 5672W        W72213  24.978  18.096   0.309
 5673W        W72214  28.605  10.817   1.943
 5674W        W72215  31.886  21.968   3.243
 5675W        W72216  32.958  36.132   3.683
 5676W        W72217  11.287  43.693  12.561
 5677W        W72218  17.567  23.561   4.237
 5678W        W72219  22.084   9.263   9.587
 5679W        W72220  26.663  21.974  14.848
 5680W        W72221  14.011   0.869  13.428
 5681W        W72222  17.121  12.528  13.468
 5682W        W72223  41.098  28.978   0.750
 5683W        W72224  15.536   8.814   2.820
 5684W        W72225  12.987  32.537   2.818
 5685W        W72226   5.886  44.048  12.883
 5686W        W72227  33.569  19.023   1.476
 5687W        W72228  38.111   3.271   3.836
 5688W        W72229  21.207  44.256  11.341
 5689W        W72230  14.127  41.206  11.880
 5690W        W72231  28.501  17.581   1.272
 5691W        W72232  44.259  22.245   2.919
 5692W        W72233  24.992  38.829   0.832
 5693W        W72234   5.483   9.091  14.832
 5694W        W72235  20.614  22.432   0.159
 5695W        W72236  12.141  12.605  14.633
 5696W        W72237  37.324  17.865  10.728
 5697W        W72238  29.991  30.394  14.439
 5698W        W72239   8.401  41.592   0.381
 5699W        W72240  26.358  38.694   0.213
 5700W        W72241  34.146  43.277  11.221
 5701W        W72242  15.518  26.509  10.843
 5702W        W72243   6.826   6.781  12.054
 5703W        W72244  11.388   6.706  11.324
 5704W        W72245  23.229  19.319   4.643
 5705W        W72246  12.619   5.412  12.496
 5706W        W72247   8.547  21.109  12.961
 5707W        W72248  11.201   3.712   3.259
 5708W        W72249  23.341  42.202   3.180
 5709W        W72250  20.720  15.761  10.245
 5710W        W72251  14.207  25.796   2.236
 5711W        W72252   6.587  13.189   1.080
 5712W        W72253   0.896  27.689   3.278
 5713W        W72254   3.837  11.156  12.273
 5714W        W72255  35.585  17.804   3.251
 5715W        W72256  43.155   6.684  14.077
 5716W        W72257   8.304  32.554   4.241
 5717W        W72258  11.659   8.802  11.848
 5718W        W72259   5.011  34.664   0.382
 5719W        W72260   5.278  16.138  12.498
 5720W        W72261  17.959  23.766   3.859
 5721W        W72262  18.137  23.312   3.171
 5722W        W72263  20.736  34.446  12.023
 5723W        W72264   6.658  24.050   2.732
 5724W        W72265   6.962  21.243   4.520
 5725W        W72266  31.949  17.188  10.395
 5726W        W72267  23.544  38.647  11.232
 5727W        W72268  30.054  13.262   0.434
 5728W        W72269  24.520  42.450   1.659
 5729W        W72270  10.155  25.296   3.705
 5730W        W72271  31.839  15.733  11.607
 5731W        W72272  36.403  17.205   1.190
 5732W        W72273  16.032  11.830   1.350
 5733W        W72274   2.044  34.146   1.718
 5734W        W72275  18.007  14.240   1.762
 5735W        W72276  41.223   0.805   4.152
 5736W        W72277  34.324  18.578  14.745
 5737W        W72278   7.987  34.521   0.112
 5738W        W72279  34.548   3.901   3.840
 5739W        W72280  39.341  17.119   0.957
 5740W        W72281   9.550   0.745  12.078
 5741W        W72282   0.947  40.002   3.324
 5742W        W72283  28.063  39.765   3.722
 5743W        W72284  31.202  41.544   3.010
 5744W        W72285   5.915  25.087  13.072
 5745W        W72286  39.234  12.726   4.038
 5746W        W72287  19.740   0.488   1.328
 5747W        W72288  33.267   3.372  14.161
 5748W        W72289  43.054  16.681   1.059
 5749W        W72290  44.294  36.657   1.473
 5750W        W72291  36.378  27.631  12.581
 5751W        W72292  27.065  14.056   0.108
 5752W        W72293  33.933  18.820   0.022
 5753W        W72294  43.752  28.750   2.896
 5754W        W72295  25.458  12.097   2.191
 5755W        W72296   6.299  36.051  13.357
 5756W        W72297  41.356  21.490   4.694
 5757W        W72298  17.584   8.727   2.666
 5758W        W72299  15.960  18.710   0.300
 5759W        W72300  22.932  33.754   0.641
 5760W        W72301   2.652  26.573   4.319
 5761W        W72302  15.785  27.628  12.042
 5762W        W72303  24.033   0.224   3.712
 5763W        W72304  13.813  16.476  11.459
 5764W        W72305  20.038  39.861  10.746
 5765W        W72306  19.232  24.300   2.197
 5766W        W72307   4.683  20.067  14.503
 5767W        W72308  22.241  37.622   3.415
 5768W        W72309  29.161  29.020  10.853
 5769W        W72310  16.964  20.305   3.297
 5770W        W72311  39.463  23.497   1.465
 5771W        W72312  38.802  26.175  12.122
 5772W        W72313   8.818  19.668   0.290
 5773W        W72314   2.345  15.581  11.648
 5774W        W72315  36.010  26.451   0.535
 5775W        W72316  34.533  26.650  11.013
 5776W        W72317  12.849  33.869   0.784
 5777W        W72318  30.032  29.891   2.124
 5778W        W72319  25.759  43.005  14.659
 5779W        W72320  35.095  42.249   2.095
 5780W        W72321  43.091   9.003  14.829
 5781W        W72322   6.845  29.510  14.379
 5782W        W72323  42.245  10.633   4.756
 5783W        W72324   5.589  13.692   3.370
 5784W        W72325  20.770  40.408  10.430
 5785W        W72326   4.976  39.487   1.714
 5786W        W72327   3.907   8.796  13.887
 5787W        W72328  31.828  44.458  14.008
 5788W        W72329  38.007  41.851   1.543
 5789W        W72330  28.192   6.711  14.397
 5790W        W72331  34.881   4.278  11.570
 5791W        W72332  16.702  38.111   2.306
 5792W        W72333  24.947  12.864  11.169
 5793W        W72334  35.441  39.039   3.830
 5794W        W72335   6.698  38.489  11.429
 5795W        W72336  34.073  13.447   5.056
 5796W        W72337  38.017  15.601   3.527
 5797W        W72338   0.941  39.390   4.609
 5798W        W72339  11.264  40.428  14.508
 5799W        W72340  22.206  20.995   2.019
 5800W        W72341  27.157  38.770   1.952
 5801W        W72342  42.375  19.959  10.964
 5802W        W72343  26.039  28.390   1.313
 5803W        W72344   2.792  35.836  10.620
 5804W        W72345  16.237  42.626   2.233
 5805W        W72346  26.076  27.980   0.955
 5806W        W72347  10.923  31.403  11.887
 5807W        W72348  18.498   8.373   4.696
 5808W        W72349   2.800  25.503  13.339
 5809W        W72350   4.697  43.277  14.794
 5810W        W72351  13.325   9.326   2.161
 5811W        W72352   6.635  41.968  13.041
 5812W        W72353   8.099  34.617  13.019
 5813W        W72354  28.371   1.560  14.892
 5814W        W72355  10.867  10.761   1.897
 5815W        W72356  12.568  43.431  12.877
 5816W        W72357  42.773  25.903   0.432
 5817W        W72358  23.134  40.829  12.045
 5818W        W72359  28.049  32.419  10.463
 5819W        W72360   8.832  30.143   2.254
 5820W        W72361  15.725  20.620   5.025
 5821W        W72362  16.964  24.968  13.185
 5822W        W72363   1.103   7.777   4.463
 5823W        W72364  13.770  26.028   3.741
 5824W        W72365  23.177  12.603  14.490
 5825W        W72366  43.331  39.930   4.502
 5826W        W72367  10.656  33.519  10.249
 5827W        W72368  11.146   9.412   1.696
 5828W        W72369  20.742  40.477   1.001
 5829W        W72370   5.364  11.247  12.865
 5830W        W72371  15.762   5.886  12.119
 5831W        W72372  44.445  41.474   2.302
 5832W        W72373  15.894  31.559  12.896
 5833W        W72374   3.303  10.857  13.969
 5834W        W72375  37.554  19.637  11.621
 5835W        W72376  23.161  24.442  12.027
 5836W        W72377  35.431  33.554   3.832
 5837W        W72378   4.234  37.636   4.707
 5838W        W72379   1.522  14.578   5.180
 5839W        W72380  40.804  19.062   3.728
 5840W        W72381  37.315  25.492   0.821
 5841W        W72382  42.318  22.270   2.608
 5842W        W72383  31.613   6.498   4.229
 5843W        W72384   6.448  42.047   4.109
 5844W        W72385  15.138  12.824   0.260
 5845W        W72386  10.926  22.394   1.848
 5846W        W72387  29.977   6.623   3.877
 5847W        W72388  35.509  23.142   0.896
 5848W        W72389  24.629  41.317  12.007
 5849W        W72390  19.046  25.290  14.574
 5850W        W72391  44.045   9.292   1.331
 5851W        W72392  36.554  36.702  11.099
 5852W        W72393  34.315  44.258   2.899
 5853W        W72394  13.240  42.149   4.322
 5854W        W72395  40.903   6.576  10.567
 5855W        W72396  22.201  27.482  14.314
 5856W        W72397  15.357  26.452  14.740
 5857W        W72398  11.364  11.779  14.111
 5858W        W72399   5.742   0.059  10.623
 5859W        W72400  20.714  30.086   2.861
 5860W        W72401  26.416  18.169  10.288
 5861W        W72402  14.729  22.009  10.681
 5862W        W72403   3.835  16.227  14.282
 5863W        W72404  23.508  21.340   0.669
 5864W        W72405  21.544  42.808   4.139
 5865W        W72406   9.761  34.910  12.504
 5866W        W72407  21.704  36.141  10.557
 5867W        W72408  35.102  17.616  10.945
 5868W        W72409  44.422  23.045   0.997
 5869W        W72410  35.446  22.146   4.838
 5870W        W72411  24.573  25.357  12.084
 5871W        W72412  28.023  36.544  13.514
 5872W        W72413  44.088  32.060  13.046
 5873W        W72414  18.508   2.282   1.831
 5874W        W72415  43.976  39.372   3.593
 5875W        W72416  31.222   5.177   3.082
 5876W        W72417   5.832  27.037  14.665
 5877W        W72418  13.596  43.264   0.787
 5878W        W72419  20.241  21.474  14.303
 5879W        W72420   7.219   1.225   3.689
 5880W        W72421  36.602  11.993  14.359
 5881W        W72422  36.874  22.084  13.493
 5882W        W72423  25.573   1.492   5.006
 5883W        W72424  23.119  33.362  13.071
 5884W        W72425  13.297  20.031   2.410
 5885W        W72426   9.466  15.667  10.029
 5886W        W72427  24.014  40.824  13.907
 5887W        W72428   9.770  34.479   2.854
 5888W        W72429  21.206   7.848   0.032
 5889W        W72430   4.793   1.848   3.216
 5890W        W72431  15.645  25.766  11.648
 5891W        W72432   0.963  44.959   3.788
 5892W        W72433  18.533  44.160  14.993
 5893W        W72434  33.414   2.631  13.436
 5894W        W72435  36.551  16.973   4.144
 5895W        W72436  22.666  12.327   3.261
 5896W        W72437  28.666  41.979   4.670
 5897W        W72438  31.366  42.278  10.686
 5898W        W72439  17.008   0.887  13.843
 5899W        W72440   8.884   1.350  12.053
 5900W        W72441   7.846  35.754   4.521
 5901W        W72442   1.947  36.895  11.939
 5902W        W72443  19.219  40.797   1.999
 5903W        W72444  38.648  19.307  13.815
 5904W        W72445  26.432  38.324   3.752
 5905W        W72446   1.967  32.114  14.444
 5906W        W72447  17.149  19.208  14.837
 5907W        W72448  31.514  41.090   0.460
 5908W        W72449  21.269  22.530   2.423
 5909W        W72450  29.079  27.853   0.666
 5910W        W72451  13.589   2.307   3.077
 5911W        W72452  23.234  13.227  12.620
 5912W        W72453  17.264   5.396   2.953
 5913W        W72454  24.417   4.521   5.324
 5914W        W72455  28.636   8.626  13.458
 5915W        W72456  29.740   0.701   2.282
 5916W        W72457  36.650  11.856   1.998
 5917W        W72458  11.136   0.422   4.677
 5918W        W72459   6.489  44.448   0.652
 5919W        W72460   8.501  21.673   2.859
 5920W        W72461   0.738   8.500   4.042
 5921W        W72462   5.864  37.500  11.441
 5922W        W72463   4.862  27.910   3.608
 5923W        W72464  20.328  24.759  13.015
 5924W        W72465   6.327   1.420  13.534
 5925W        W72466  13.119  35.160   4.135
 5926W        W72467   1.229  16.320   3.332
 5927W        W72468  42.481  10.380  13.395
 5928W        W72469   8.899  34.245  13.134
 5929W        W72470   7.678  24.697   2.158
 5930W        W72471  41.279  17.891   1.377
 5931W        W72472  39.143  36.476  10.489
 5932W        W72473  43.589   8.905   0.954
 5933W        W72474  43.273   7.860   0.704
 5934W        W72475   6.881  10.367   4.086
 5935W        W72476  17.751  32.607  10.870
 5936W        W72477   4.813   4.439   4.432
 5937W        W72478  21.972   2.695   4.202
 5938W        W72479   7.402  11.900   1.954
 5939W        W72480  41.116  13.428   1.646
 5940W        W72481  41.941  34.017   3.295
 5941W        W72482  31.433  10.701   0.294
 5942W        W72483  41.872  39.401  14.766
 5943W        W72484  25.692  44.496  14.328
 5944W        W72485  31.072  32.915  13.500
 5945W        W72486   5.175  27.937  11.209
 5946W        W72487  23.510  40.935  12.403
 5947W        W72488  34.680  44.567  12.130
 5948W        W72489  10.169   7.532  10.874
 5949W        W72490  27.981  39.942  14.455
 5950W        W72491  31.529  21.055  12.242
 5951W        W72492  42.968  28.409  11.681
 5952W        W72493  38.651  25.451  11.457
 5953W        W72494  24.233  20.062  13.817
 5954W        W72495  19.756  11.566  14.787
 5955W        W72496  32.312   1.984   0.515
 5956W        W72497  36.020  22.295   4.140
 5957W        W72498  34.176  19.213  12.950
 5958W        W72499  36.202  22.572  13.843
 5959W        W72500  23.445   0.827   2.484
 5960W        W72501   5.898  15.135   3.603
 5961W        W72502  20.693   3.324   0.884
 5962W        W72503   9.902  44.111   2.712
 5963W        W72504  17.570   3.189  12.242
 5964W        W72505  37.048  33.511   4.116
 5965W        W72506  18.048  44.320  13.062
 5966W        W72507  40.628  14.973   4.201
 5967W        W72508  37.868  44.315   3.892
 5968W        W72509  33.037  23.533  14.862
 5969W        W72510   1.752  12.848  13.484
 5970W        W72511   4.925  12.635   0.314
 5971W        W72512   0.417  29.779   3.556
 5972W        W72513  27.439  13.375   4.603
 5973W        W72514  10.172  24.951   0.940
 5974W        W72515  31.014  28.176  14.572
 5975W        W72516  37.005  20.275   4.120
 5976W        W72517  41.064  16.166  11.564
 5977W        W72518  34.965   8.149   3.240
 5978W        W72519  10.664  24.807  14.819
 5979W        W72520  26.591  33.789   2.284
 5980W        W72521  32.919  40.983  14.635
 5981W        W72522  26.821  35.021  13.422
 5982W        W72523  28.963  14.037  12.489
 5983W        W72524  38.061  26.736   3.572
 5984W        W72525  40.009   0.404   4.040
 5985W        W72526  16.843  41.645   4.407
 5986W        W72527  33.365  43.979  12.466
 5987W        W72528  14.809   9.631  10.703
 5988W        W72529   4.724  31.210   1.384
 5989W        W72530   7.171  13.192  11.598
 5990W        W72531  14.746  25.247   1.433
 5991W        W72532  35.771   1.619  11.111
 5992W        W72533  39.270  37.793  14.641
 5993W        W72534  33.903   8.330   2.111
 5994W        W72535  24.001  12.271   0.031
 5995W        W72536  31.892  34.404  12.785
 5996W        W72537  40.612  42.244   1.411
 5997W        W72538   4.532  38.122   3.915
 5998W        W72539   2.751  27.182   2.855
 5999W        W72540  27.752   5.641   1.289
 6000W        W72541  12.350  40.500  14.498
 6001W        W72542  44.765   9.732  14.799
 6002W        W72543  40.347  35.529   3.120
 6003W        W72544  27.689  32.196  11.108
 6004W        W72545   2.120  35.909  14.235
 6005W        W72546  23.682  37.612  13.605
 6006W        W72547   4.198  40.699  13.755
 6007W        W72548   3.729   9.153   2.295
 6008W        W72549   0.732  31.417   2.730
 6009W        W72550   1.414   4.109   2.856
 6010W        W72551   5.600  30.473   1.324
 6011W        W72552   9.622  39.806  13.897
 6012W        W72553   5.289  37.639  12.064
 6013W        W72554   8.998  16.799   2.825
 6014W        W72555   5.189  11.582   2.885
 6015W        W72556  17.746  42.997   1.676
 6016W        W72557  44.228  25.038  13.914
 6017W        W72558  32.981  34.481  11.777
 6018W        W72559  39.451  11.475  12.014
 6019W        W72560  42.805  35.503  11.548
 6020W        W72561   5.727  18.587   0.392
 6021W        W72562  29.571  24.971  13.524
 6022W        W72563  29.377  22.155  12.054
 6023W        W72564  37.562  44.612   3.579
 6024W        W72565  25.676  24.057   3.812
 6025W        W72566   7.066  31.792   0.994
 6026W        W72567   8.271  29.599   1.170
 6027W        W72568   2.224  20.764  12.030
 6028W        W72569  32.951   0.794   3.308
 6029W        W72570  20.255   4.343   1.441
 6030W        W72571  27.885  15.645  12.876
 6031W        W72572  16.025   4.764  11.598
 6032W        W72573  19.235  25.694   4.819
 6033W        W72574   4.178   7.273   4.225
 6034W        W72575  36.484  37.054  12.008
 6035W        W72576  27.852  44.008   4.137
 6036W        W72577  23.733  32.521  13.953
 6037W        W72578  25.937   5.558  12.022
 6038W        W72579  28.848   6.313   2.140
 6039W        W72580  23.779  42.470  13.412
 6040W        W72581  22.057  36.855  14.350
 6041W        W72582  11.826  31.701   3.435
 6042W        W72583   0.130  23.465   2.372
 6043W        W72584  20.512  35.818   2.314
 6044W        W72585  25.477   7.617   3.861
 6045W        W72586  11.204   3.271   1.153
 6046W        W72587   7.833  19.223  12.515
 6047W        W72588  37.157   2.464   5.163
 6048W        W72589  21.314  13.948   1.821
 6049W        W72590  26.701   9.884   4.751
 6050W        W72591  10.019   5.937   2.321
 6051W        W72592  36.497  44.958  12.443
 6052W        W72593   8.440  37.705   1.276
 6053W        W72594  12.159  15.141   0.937
 6054W        W72595   0.369  22.027   2.214
 6055W        W72596  20.712  30.141   1.155
 6056W        W72597  10.846  40.820   1.957
 6057W        W72598  33.855  27.138   2.659
 6058W        W72599  33.865  30.007   0.709
 6059W        W72600  27.516  33.881  11.811
 6060W        W72601  14.691   3.167   3.361
 6061W        W72602  18.547  27.820  10.314
 6062W        W72603   6.791  30.016  14.884
 6063W        W72604  29.557   1.419   4.860
 6064W        W72605  32.343  36.411   0.838
 6065W        W72606  11.461  31.470  11.862
 6066W        W72607  27.509  26.385  11.066
 6067W        W72608  26.882  43.958  12.913
 6068W        W72609  11.570   5.677   1.064
 6069W        W72610  36.355  26.977  10.578
 6070W        W72611  25.503  23.038   0.953
 6071W        W72612  42.460  23.993  14.809
 6072W        W72613  32.081  44.313  12.587
 6073W        W72614  37.503  13.032   4.282
 6074W        W72615  14.652  16.580   4.110
 6075W        W72616  13.263  41.989  14.814
 6076W        W72617  24.764  36.988   4.606
 6077W        W72618  23.716  27.211  14.953
 6078W        W72619  21.163  32.902  11.742
 6079W        W72620  19.722  36.442   4.531
 6080W        W72621  34.430  33.115   0.083
 6081W        W72622  36.943  10.357   4.785
 6082W        W72623  41.198   9.337  12.998
 6083W        W72624  16.268  43.857   4.042
 6084W        W72625  27.706  37.025   2.866
 6085W        W72626  17.870  44.214  14.473
 6086W        W72627  17.530  42.157   0.577
 6087W        W72628  30.113  34.018   1.986
 6088W        W72629   0.086  29.144  11.574
 6089W        W72630  35.570  35.670   2.177
 6090W        W72631  39.897  30.610   1.699
 6091W        W72632  40.956  25.142   0.025
 6092W        W72633   0.930   9.738  12.072
 6093W        W72634  40.138  15.865   4.125
 6094W        W72635  31.380  23.116   0.867
 6095W        W72636  34.946  28.383  11.000
 6096W        W72637   7.182   9.175  11.205
 6097W        W72638  34.132  34.021  13.347
 6098W        W72639  31.422  39.506  11.107
 6099W        W72640  44.919  30.699  14.265
 6100W        W72641  40.083  38.520   0.301
 6101W        W72642  26.949   8.836  11.125
 6102W        W72643   6.199   4.141   1.774
 6103W        W72644   1.237  31.463   2.727
 6104W        W72645  36.436  13.776   3.675
 6105W        W72646  38.305  11.246  14.229
 6106W        W72647   6.871  36.499   3.376
 6107W        W72648   7.764  39.817  11.820
 6108W        W72649  33.368  23.678  14.061
 6109W        W72650  20.683  28.680   3.656
 6110W        W72651  41.216  44.816   0.862
 6111W        W72652  23.999  34.640  11.721
 6112W        W72653  11.076   8.361   2.729
 6113W        W72654  44.610  23.466   4.561
 6114W        W72655  21.247  16.132   2.667
 6115W        W72656   1.895  30.373   9.828
 6116W        W72657  33.039  17.742   3.609
 6117W        W72658  24.745  22.742   3.208
 6118W        W72659   1.620  42.538   1.994
 6119W        W72660  33.339  30.308  10.452
 6120W        W72661  13.269   6.859   1.423
 6121W        W72662  17.228   2.848   0.837
 6122W        W72663  25.976  33.891  13.457
 6123W        W72664   9.412   0.248   1.703
 6124W        W72665  41.952  27.613  11.606
 6125W        W72666  33.974  30.981   2.001
 6126W        W72667  27.726   1.716   0.437
 6127W        W72668  40.858   0.854   3.202
 6128W        W72669  12.314  12.677   4.032
 6129W        W72670  36.946  13.402   5.178
 6130W        W72671  28.362  22.686   0.775
 6131W        W72672  16.312   3.187  12.182
 6132W        W72673   7.806  20.074   1.987
 6133W        W72674  19.148  11.351   0.519
 6134W        W72675  10.092  22.183   2.256
 6135W        W72676  24.523  19.575   3.591
 6136W        W72677  17.300   1.246  12.471
 6137W        W72678  18.097  27.582   3.487
 6138W        W72679  44.868  29.650  11.886
 6139W        W72680   1.828  18.559   1.280
 6140W        W72681  12.680  13.846  14.993
 6141W        W72682  11.849  20.800  11.623
 6142W        W72683  29.356  28.154   1.683
 6143W        W72684  32.902  43.738   0.589
 6144W        W72685   1.675  34.047   3.715
 6145W        W72686  21.377  40.077  10.212
 6146W        W72687  38.965  39.418   0.675
 6147W        W72688  34.932  34.350   4.132
 6148W        W72689  24.655  39.437  10.769
 6149W        W72690  28.424   5.654   2.416
 6150W        W72691  15.845  34.015  12.379
 6151W        W72692  33.721  35.701   4.149
 6152W        W72693  24.544  44.135  11.646
 6153W        W72694  17.715   0.356   2.457
 6154W        W72695   3.436  19.165  14.458
 6155W        W72696  19.412   2.740   0.707
 6156W        W72697  34.030  44.462   4.377
 6157W        W72698  25.788  10.370   2.810
 6158W        W72699  29.395  40.933   0.222
 6159W        W72700   8.417  18.631  13.850
 6160W        W72701  31.426   5.986  12.375
 6161W        W72702  18.204  25.086  13.249
 6162W        W72703  38.827  25.450   2.307
 6163W        W72704  35.508  30.842   2.938
 6164W        W72705  22.006  12.613   4.502
 6165W        W72706  22.444  13.377  13.296
 6166W        W72707  10.800  35.494   4.622
 6167W        W72708  26.009  23.079   3.048
 6168W        W72709   8.150  34.020   1.186
 6169W        W72710  26.157   4.874   0.007
 6170W        W72711   0.181  26.093  12.068
 6171W        W72712   1.085  38.965  13.119
 6172W        W72713  24.609  34.142   2.350
 6173W        W72714  32.893   8.058   0.725
 6174W        W72715  17.741  14.184   0.874
 6175W        W72716  20.587  15.869  13.982
 6176W        W72717  12.867  29.228   5.025
 6177W        W72718   5.216  19.210   2.204
 6178W        W72719  39.337  24.020   1.167
 6179W        W72720   0.049  28.587  14.912
 6180W        W72721  36.670  35.410   3.641
 6181W        W72722   4.684  29.425   2.791
 6182W        W72723  41.237  29.848   3.780
 6183W        W72724  28.575  35.089   4.079
 6184W        W72725  13.812  44.010   2.945
 6185W        W72726  26.025  36.848   0.920
 6186W        W72727  42.810  32.616  11.487
 6187W        W72728  29.563  10.389   1.823
 6188W        W72729  31.664  41.081  11.154
 6189W        W72730  44.251   7.711  10.638
 6190W        W72731  18.268  28.915   3.691
 6191W        W72732  18.335  33.775   4.745
 6192W        W72733  36.557  23.461   2.680
 6193W        W72734  19.531  31.513   2.092
 6194W        W72735  37.234  32.815   3.386
 6195W        W72736  44.492  17.288  10.376
 6196W        W72737  20.966  31.852   4.328
 6197W        W72738  25.867  35.507   4.419
 6198W        W72739  28.250  44.276  13.870
 6199W        W72740  28.513  14.898  10.657
 6200W        W72741  13.552  29.507   4.004
 6201W        W72742  17.592   4.451   1.840
 6202W        W72743  35.969  30.697   0.475
 6203W        W72744  21.129  27.230  14.943
 6204W        W72745  25.509   4.651   1.807
 6205W        W72746   4.251  36.171   0.774
 6206W        W72747  24.650  23.937   0.905
 6207W        W72748  42.506  30.047   3.123
 6208W        W72749  28.224  37.790   3.847
 6209W        W72750  39.271   0.394   2.740
 6210W        W72751  42.471  26.428  13.415
 6211W        W72752  14.971  35.565   2.225
 6212W        W72753  30.569  37.939   1.408
 6213W        W72754   3.470   1.358   3.071
 6214W        W72755  21.799  40.948  13.160
 6215W        W72756  16.608  29.945   0.607
 6216W        W72757  27.200  13.352  13.513
 6217W        W72758  10.303   4.931  13.468
 6218W        W72759  38.980  26.277  14.793
 6219W        W72760  26.739  12.674   3.637
 6220W        W72761  37.901  21.993   0.114
 6221W        W72762  13.191  40.169   9.985
 6222W        W72763  30.528  32.540   0.259
 6223W        W72764  18.651   6.723   0.295
 6224W        W72765  15.859  18.137  14.850
 6225W        W72766  44.118  21.128  10.130
 6226W        W72767  34.533  20.677   4.567
 6227W        W72768  32.129  12.079  12.983
 6228W        W72769  28.191  27.753   3.224
 6229W        W72770  27.390  21.992   2.318
 6230W        W72771  26.587  10.642  12.242
 6231W        W72772   1.489  21.731   2.255
 6232W        W72773  29.931   4.497  13.899
 6233W        W72774  13.381   3.386   2.292
 6234W        W72775  34.066  22.570  13.596
 6235W        W72776   5.307  37.901  10.315
 6236W        W72777  23.629  18.218   2.872
 6237W        W72778  37.374  33.075  13.021
 6238W        W72779  17.152  28.056  10.525
 6239W        W72780  28.170  32.938   2.324
 6240W        W72781  14.139  29.276   0.162
 6241W        W72782  17.159  14.869   3.130
 6242W        W72783  27.577  43.798   2.787
 6243W        W72784  27.607   1.212  14.985
 6244W        W72785  20.292  10.378   4.187
 6245W        W72786  36.006  37.013  14.427
 6246W        W72787   4.391  10.208  11.876
 6247W        W72788  28.416  32.102   0.283
 6248W        W72789  12.000  11.834   1.828
 6249W        W72790  40.965  11.779  13.418
 6250W        W72791   5.967   3.565   4.980
 6251W        W72792  16.126  42.017   4.478
 6252W        W72793  42.566  15.889   2.391
 6253W        W72794  22.449  26.885   2.599
 6254W        W72795  27.759  23.142   1.776
 6255W        W72796  43.744  16.169  10.391
 6256W        W72797  21.140  33.890   4.172
 6257W        W72798  32.493   3.595   2.783
 6258W        W72799   4.627   9.142  14.391
 6259W        W72800  37.792  25.223  13.350
 6260W        W72801   0.440  15.938   2.696
 6261W        W72802  17.364   7.656   4.476
 6262W        W72803  33.834  20.149  13.510
 6263W        W72804  26.169  21.239  10.223
 6264W        W72805  35.104  25.581   0.098
 6265W        W72806  39.535  11.630  11.551
 6266W        W72807  22.767   4.993  13.303
 6267W        W72808  29.415   7.691   4.742
 6268W        W72809  40.831  38.822   2.280
 6269W        W72810  43.816  15.220   4.518
 6270W        W72811   6.828  43.938   3.883
 6271W        W72812   3.066  34.903   3.064
 6272W        W72813  15.987  26.254  13.773
 6273W        W72814  12.784  17.970  11.657
 6274W        W72815   8.646  38.719  14.268
 6275W        W72816   9.325   1.174  14.277
 6276W        W72817  17.766  31.063   5.075
 6277W        W72818  25.979  30.505   2.275
 6278W        W72819   2.054  34.922   3.313
 6279W        W72820   5.479  18.232  13.524
 6280W        W72821  33.993  39.618  10.676
 6281W        W72822  13.063   7.968   2.516
 6282W        W72823   8.897  30.337  14.998
 6283W        W72824   0.905  25.664   1.120
 6284W        W72825  34.488   2.616  14.257
 6285W        W72826  20.753   6.912  13.861
 6286W        W72827  39.781  41.316  12.539
 6287W        W72828  18.316  12.091   3.319
 6288W        W72829  38.822  41.332   2.349
 6289W        W72830  27.060  10.372   0.880
 6290W        W72831  23.596  17.253  11.265
 6291W        W72832  36.414  25.728   2.416
 6292W        W72833  43.952  23.444  12.025
 6293W        W72834  34.843  25.816   4.575
 6294W        W72835  14.650  13.256  13.185
 6295W        W72836  24.072   2.479   4.406
 6296W        W72837   7.380   2.814   0.679
 6297W        W72838  15.115  41.743   1.210
 6298W        W72839  39.836  14.868   3.682
 6299W        W72840  31.037  26.668  11.985
 6300W        W72841  26.135   1.019   1.313
 6301W        W72842   3.918  42.473  12.445
 6302W        W72843  17.052  26.721   4.560
 6303W        W72844   4.364  23.102   2.768
 6304W        W72845  15.027  12.357  12.834
 6305W        W72846   7.414  32.707   2.426
 6306W        W72847  33.219  25.572  11.976
 6307W        W72848   3.227  19.291   0.736
 6308W        W72849   9.214  20.676   1.565
 6309W        W72850   2.872   8.172   2.363
 6310W        W72851   9.282  32.629  13.827
 6311W        W72852  33.698  33.611  12.868
 6312W        W72853  30.027  34.486   1.693
 6313W        W72854  37.631   7.520   5.033
 6314W        W72855  13.076  12.444  13.030
 6315W        W72856   2.976   0.727   4.061
 6316W        W72857  27.245   3.828   3.258
 6317W        W72858  26.109  31.812  10.666
 6318W        W72859   7.683   3.718  13.380
 6319W        W72860   5.411  17.715  12.515
 6320W        W72861  17.540  10.311  12.847
 6321W        W72862  23.601  27.600  12.162
 6322W        W72863  18.283  25.988   2.262
 6323W        W72864  33.158  37.551  11.991
 6324W        W72865  34.940  38.200   3.892
 6325W        W72866  25.097  42.720   2.303
 6326W        W72867  25.635   5.692  11.617
 6327W        W72868  36.908  13.973  11.830
 6328W        W72869   6.396   9.695  11.054
 6329W        W72870  17.523  31.473   0.758
 6330W        W72871   4.930  42.882   0.029
 6331W        W72872  36.065  16.671  10.515
 6332W        W72873  15.516  17.711   3.890
 6333W        W72874  35.579  31.535  13.882
 6334W        W72875  10.136   1.508   2.418
 6335W        W72876   3.340  35.960   0.261
 6336W        W72877  12.596   7.909  11.661
 6337W        W72878   4.407  42.811  14.080
 6338W        W72879   2.131  31.457   0.858
 6339W        W72880  30.523  34.503   0.926
 6340W        W72881   9.889  22.675   3.137
 6341W        W72882   3.802   5.810   1.725
 6342W        W72883  31.946  18.136   1.252
 6343W        W72884  18.175  10.824  14.859
 6344W        W72885  29.102  17.600  14.806
 6345W        W72886   0.780  16.790  12.503
 6346W        W72887   3.982  33.527   4.681
 6347W        W72888  25.905   8.604  11.857
 6348W        W72889  43.387   9.824  13.899
 6349W        W72890  25.253  37.033  13.361
 6350W        W72891  13.036  43.433   0.235
 6351W        W72892  18.511  12.166  11.515
 6352W        W72893  43.868  24.140  14.161
 6353W        W72894  36.449  12.302   4.895
 6354W        W72895   4.911  10.658   3.424
 6355W        W72896  41.598   5.518   0.106
 6356W        W72897  37.553   9.205  10.838
 6357W        W72898   8.918  26.729  13.816
 6358W        W72899  37.526   8.840   0.925
 6359W        W72900  14.172   9.986   5.016
 6360W        W72901  35.274  36.806   0.020
 6361W        W72902   6.884   5.756  10.631
 6362W        W72903  41.415  28.218  13.530
 6363W        W72904  41.276  43.420  13.757
 6364W        W72905  37.152   0.876  11.516
 6365W        W72906  34.470  13.785   2.365
 6366W        W72907  32.372  37.271   0.834
 6367W        W72908   7.671  16.605  14.783
 6368W        W72909  18.064  22.420  14.723
 6369W        W72910  24.758  24.697  11.226
 6370W        W72911  26.748  17.528   3.603
 6371W        W72912   1.197  21.913   4.298
 6372W        W72913   9.092  44.355  14.910
 6373W        W72914  34.976  39.772  10.735
 6374W        W72915  30.676  27.526  11.131
 6375W        W72916  23.695  41.927   0.747
 6376W        W72917  29.191  23.807  14.134
 6377W        W72918  40.898  34.907   3.133
 6378W        W72919  15.750  33.919  11.872
 6379W        W72920   6.526  26.957  11.497
 6380W        W72921  38.185   4.771   1.546
 6381W        W72922   7.887  13.761  10.492
 6382W        W72923  11.442  15.926   2.011
 6383W        W72924  21.660  42.528   4.563
 6384W        W72925  39.226  12.115  12.945
 6385W        W72926  34.059   6.841  13.191
 6386W        W72927  29.658   9.715   0.270
 6387W        W72928  21.046  23.805   2.746
 6388W        W72929  12.133  18.040  12.961
 6389W        W72930  13.670  28.375  11.539
 6390W        W72931  39.393   2.318   0.001
 6391W        W72932  30.936  39.408   4.022
 6392W        W72933   9.330  13.715  11.560
 6393W        W72934  11.271   0.690   0.291
 6394W        W72935  17.258  25.099   0.954
 6395W        W72936  32.143  32.223   2.108
 6396W        W72937  14.211  27.135  11.533
 6397W        W72938  14.460  16.098   4.022
 6398W        W72939   6.649  21.978  11.146
 6399W        W72940  36.975   8.846   1.954
 6400W        W72941  13.570  36.243  11.607
 6401W        W72942  36.166   7.798   4.699
 6402W        W72943  31.554   7.730   4.648
 6403W        W72944  18.234   6.733   2.850
 6404W        W72945   7.271   7.229  13.778
 6405W        W72946  26.087  42.231  14.818
 6406W        W72947  28.937  32.477   2.317
 6407W        W72948  30.558  34.432   0.398
 6408W        W72949  38.848   4.168  11.539
 6409W        W72950  28.895  22.496  12.903
 6410W        W72951  38.827  15.710   3.163
 6411W        W72952  23.124  33.275   0.539
 6412W        W72953  29.775  12.710   1.478
 6413W        W72954  41.566  37.299   1.669
 6414W        W72955  36.366   6.793  13.345
 6415W        W72956  27.503   0.319   4.161
 6416W        W72957  32.669  37.049  13.552
 6417W        W72958  11.367  16.256   4.272
 6418W        W72959   5.178  11.825   3.312
 6419W        W72960  16.605  25.059   0.434
 6420W        W72961  44.352  14.714  14.693
 6421W        W72962  16.599   2.884   4.791
 6422W        W72963  11.265  28.024   1.429
 6423W        W72964   8.780  33.779   2.724
 6424W        W72965  43.262  10.131   3.975
 6425W        W72966  25.061  30.930  10.666
 6426W        W72967  44.779   3.742  11.414
 6427W        W72968   4.903  35.032   3.081
 6428W        W72969  38.693  13.988   2.382
 6429W        W72970  20.699  10.500  12.360
 6430W        W72971  21.797   0.053  13.540
 6431W        W72972  14.995   1.365   3.726
 6432W        W72973  18.166  36.641   4.549
 6433W        W72974   0.596   3.396  10.128
 6434W        W72975  21.975  26.727   2.746
 6435W        W72976  13.608  39.982  11.699
 6436W        W72977  15.704   6.843   2.592
 6437W        W72978  18.261   8.426  14.909
 6438W        W72979  19.121   3.584  13.349
 6439W        W72980  21.559  39.518  12.208
 6440W        W72981  12.919  40.556  10.443
 6441W        W72982   1.279  24.046  11.885
 6442W        W72983  40.956  42.773  14.904
 6443W        W72984  19.356  33.531   3.065
 6444W        W72985   8.150  27.894  13.410
 6445W        W72986  40.599   1.756   3.639
 6446W        W72987  14.698  37.484   2.361
 6447W        W72988  34.976  24.287  14.850
 6448W        W72989  36.552  39.436   1.316
 6449W        W72990  16.655   3.684  11.113
 6450W        W72991  10.582   3.604  14.493
 6451W        W72992  23.439   4.007   1.854
 6452W        W72993  25.980  20.063   0.263
 6453W        W72994  28.858  38.064   4.835
 6454W        W72995  13.383  10.733   1.767
 6455W        W72996  14.558   3.249  10.491
 6456W        W72997  17.387  29.390   0.741
 6457W        W72998  19.014  34.847   1.901
 6458W        W72999   8.353  15.834   5.140
 6459W        W73000  10.798   4.888   1.724
 6460W        W73001  33.450  20.657   2.301
 6461W        W73002  42.253  29.669   0.738
 6462W        W73003  14.320   8.869  10.602
 6463W        W73004  35.422  28.285  14.961
 6464W        W73005  39.589  22.054   2.622
 6465W        W73006   7.956   3.369  14.175
 6466W        W73007  16.151  19.090   3.660
 6467W        W73008   0.489  22.958   4.965
 6468W        W73009   7.794  11.322   3.111
 6469W        W73010  26.954   6.471   1.853
 6470W        W73011   6.026  36.484   0.171
 6471W        W73012  40.192  29.660   1.391
 6472W        W73013  16.382  31.406   3.182
 6473W        W73014  24.644  21.730   2.710
 6474W        W73015  27.695   5.318  13.370
 6475W        W73016  14.874   2.408   0.722
 6476W        W73017   1.052   6.943  12.858
 6477W        W73018  17.745  12.571  14.266
 6478W        W73019  30.676  19.635  13.340
 6479W        W73020  20.394  12.754   3.716
 6480W        W73021  11.609  12.190  10.770
 6481W        W73022  39.009  36.111  10.815
 6482W        W73023   2.642  25.637  11.909
 6483W        W73024   6.408  36.482  12.164
 6484W        W73025  18.664  25.736  12.763
 6485W        W73026  26.779  29.687  11.941
 6486W        W73027   4.561  13.367   0.800
 6487W        W73028   8.794  34.103  10.573
 6488W        W73029  29.459  16.806   2.916
 6489W        W73030  23.792  28.186  14.291
 6490W        W73031  39.477  18.296  10.996
 6491W        W73032   9.369   6.795   2.675
 6492W        W73033  25.024  29.701  11.838
 6493W        W73034  41.070  17.237   1.668
 6494W        W73035  32.890  44.391  10.721
 6495W        W73036   8.858  17.868   1.324
 6496W        W73037  33.176  42.820  11.099
 6497W        W73038  37.521  25.233   2.415
 6498W        W73039  15.394  39.026   4.157
 6499W        W73040  37.709  41.414  12.435
 6500W        W73041  38.075   3.024  11.575
 6501W        W73042  16.148  41.855   3.451
 6502W        W73043  20.727  39.058  10.771
 6503W        W73044  19.444  31.345   3.792
 6504W        W73045  23.548  23.420  13.014
 6505W        W73046  14.942   1.868  11.202
 6506W        W73047   9.637  38.906  14.399
 6507W        W73048  27.940  16.771   1.614
 6508W        W73049  40.755  16.413   2.209
 6509W        W73050  22.862   8.877   3.524
 6510W        W73051  35.018  32.869   0.720
 6511W        W73052  16.137   4.345   1.584
 6512W        W73053  22.011  21.502   1.918
 6513W        W73054  38.199  30.369   2.857
 6514W        W73055  37.803  16.703   0.416
 6515W        W73056  11.152  37.989  10.526
 6516W        W73057   2.376  32.408   0.803
 6517W        W73058  14.412  26.964  11.973
 6518W        W73059  25.961  36.313   4.929
 6519W        W73060  17.074  24.191   4.184
 6520W        W73061  40.461   4.248  11.640
 6521W        W73062  40.995  10.255  12.603
 6522W        W73063  38.933  23.895   0.881
 6523W        W73064  38.478  39.861   4.741
 6524W        W73065   1.994  17.775  14.232
 6525W        W73066   2.695  15.650   0.402
 6526W        W73067  25.974  11.273   0.593
 6527W        W73068  33.818  28.456  11.936
 6528W        W73069  27.680  29.214  14.884
 6529W        W73070  25.203  44.518  12.084
 6530W        W73071  39.858  27.377   1.868
 6531W        W73072  35.561  42.418   0.752
 6532W        W73073  15.372  40.037   4.755
 6533W        W73074  29.757  40.627  14.205
 6534W        W73075   2.774  23.930  11.453
 6535W        W73076   0.534  38.277  12.601
 6536W        W73077  41.632  41.858  14.130
 6537W        W73078   3.653  32.721   5.237
 6538W        W73079  23.598  29.925   0.523
 6539W        W73080  22.491   0.008  13.770
 6540W        W73081  16.768   0.221   4.381
 6541W        W73082  39.322   8.476  11.559
 6542W        W73083  30.026  25.802  13.042
 6543W        W73084   9.139   4.751  11.851
 6544W        W73085  15.829  25.020  14.982
 6545W        W73086   7.191  25.191   0.533
 6546W        W73087   2.237  43.891   0.760
 6547W        W73088  31.031  21.135  12.890
 6548W        W73089  14.486  20.531   2.322
 6549W        W73090  37.840  37.524   0.398
 6550W        W73091   9.077  43.002   4.815
 6551W        W73092  34.092   6.891  12.683
 6552W        W73093   5.999  15.270   1.780
 6553W        W73094  39.852  10.093  14.401
 6554W        W73095  16.779  35.809  12.867
 6555W        W73096  32.937  12.876  13.531
 6556W        W73097  20.587  44.481   0.263
 6557W        W73098  34.159  41.848  13.200
 6558W        W73099  30.907  24.023   0.751
 6559W        W73100   3.590  35.933   9.994
 6560W        W73101  25.008  14.765  13.042
 6561W        W73102   4.000  38.859  13.979
 6562W        W73103  12.675  28.973  12.453
 6563W        W73104   1.116  44.245  12.857
 6564W        W73105   3.223   1.897  12.985
 6565W        W73106  23.238  25.724  13.358
 6566W        W73107  25.197  39.336  12.085
 6567W        W73108  28.033  17.522  11.016
 6568W        W73109  30.606  21.354  13.104
 6569W        W73110  20.023  17.099   0.836
 6570W        W73111  35.507  33.636   3.338
 6571W        W73112  42.359  11.678  13.357
 6572W        W73113  17.247  33.941  12.336
 6573W        W73114  43.547  10.256   1.742
 6574W        W73115  28.133  39.784   0.851
 6575W        W73116  17.717   0.356  10.425
 6576W        W73117  24.206   4.495  12.897
 6577W        W73118   2.112  28.967   2.791
 6578W        W73119  38.592  31.544  13.047
 6579W        W73120  15.884  14.743   2.894
 6580W        W73121  20.263  21.079   1.728
 6581W        W73122  39.931  26.298  14.886
 6582W        W73123  28.352  18.636  10.803
 6583W        W73124  41.428  40.370  14.629
 6584W        W73125  24.935  33.671   3.044
 6585W        W73126   7.932   5.176   2.779
 6586W        W73127  29.516   2.805   4.851
 6587W        W73128  43.088  29.427  11.528
 6588W        W73129  26.382  20.101   1.402
 6589W        W73130   3.642   1.488  12.396
 6590W        W73131  21.199  42.937  11.201
 6591W        W73132  14.273  14.790  10.589
 6592W        W73133  25.206  26.605  11.302
 6593W        W73134  12.100  28.080   0.435
 6594W        W73135  10.700  31.382   3.886
 6595W        W73136  37.023  27.315   1.890
 6596W        W73137   5.715  44.013   1.865
 6597W        W73138  34.418   6.573   3.800
 6598W        W73139  11.821  15.988  10.001
 6599W        W73140  38.608  31.475   2.280
 6600W        W73141  29.867   7.587   4.488
 6601W        W73142  18.590   0.130   4.522
 6602W        W73143  43.320  42.013  11.748
 6603W        W73144  34.040  22.213   1.774
 6604W        W73145  41.907  21.947   1.416
 6605W        W73146  28.500   0.471   4.344
 6606W        W73147  36.972   9.942  10.410
 6607W        W73148  23.384  42.349   0.879
 6608W        W73149  38.254  14.764   4.130
 6609W        W73150  28.206  34.648  12.558
 6610W        W73151  16.289   0.311  11.955
 6611W        W73152  37.910   7.726   0.280
 6612W        W73153  20.528  31.400  12.081
 6613W        W73154  19.829  38.656  12.954
 6614W        W73155   0.498  11.670  11.618
 6615W        W73156   2.948  14.646   3.267
 6616W        W73157  22.078   7.349   3.720
 6617W        W73158  24.506   1.955   1.740
 6618W        W73159  24.614  26.054   2.332
 6619W        W73160   2.246   5.403  13.478
 6620W        W73161  30.035   5.363   2.188
 6621W        W73162  28.110  11.844  12.078
 6622W        W73163  27.479  24.222   4.439
 6623W        W73164  21.608  44.367  12.677
 6624W        W73165  33.747   3.858  11.140
 6625W        W73166  43.374  41.518  11.516
 6626W        W73167   8.362  37.187   5.458
 6627W        W73168   6.742  16.164  11.621
 6628W        W73169  41.242   0.800  11.673
 6629W        W73170  40.070  11.213   3.748
 6630W        W73171   5.976  22.391   1.559
 6631W        W73172  23.208   8.810   3.147
 6632W        W73173  44.058   0.513  10.674
 6633W        W73174  37.627   1.231  13.333
 6634W        W73175  15.185  30.246  12.928
 6635W        W73176   0.288  19.167  13.125
 6636W        W73177  31.988  13.693   3.074
 6637W        W73178   4.380  23.645  10.608
 6638W        W73179  29.627  42.451   2.788
 6639W        W73180   6.678  29.766   3.276
 6640W        W73181  35.944  41.029  12.539
 6641W        W73182   6.776  43.573   0.700
 6642W        W73183  40.317  22.346   0.453
 6643W        W73184   6.910   7.810   4.559
 6644W        W73185  27.793   5.862   0.410
 6645W        W73186   5.807   3.364   1.477
 6646W        W73187   0.545  24.620  12.618
 6647W        W73188  35.115  32.284  14.322
 6648W        W73189  40.785   3.483   0.282
 6649W        W73190  34.835  40.087  14.433
 6650W        W73191  40.730  44.392   0.446
 6651W        W73192  43.433  28.298  14.556
 6652W        W73193  21.082   2.266  12.089
 6653W        W73194  26.058  22.615   3.918
 6654W        W73195  38.386  27.115   1.833
 6655W        W73196  36.417  32.795   4.526
 6656W        W73197   7.988  20.339  13.410
 6657W        W73198  37.465   0.325  10.386
 6658W        W73199   7.621  37.450  12.018
 6659W        W73200  18.508   0.933  10.256
 6660W        W73201   5.992  41.233   0.681
 6661W        W73202  36.561  26.484  10.678
 6662W        W73203  17.244   6.302  11.211
 6663W        W73204   0.387  42.929  10.487
 6664W        W73205  35.304  27.340   0.075
 6665W        W73206  21.815  24.894   0.971
 6666W        W73207  12.279   9.172   4.613
 6667W        W73208  43.006  35.778  13.506
 6668W        W73209  23.321  37.341  14.461
 6669W        W73210   4.642  31.803  14.751
 6670W        W73211  10.749  38.831   4.347
 6671W        W73212  20.632   4.188  12.937
 6672W        W73213  13.771  34.277   1.824
 6673W        W73214   6.781  25.544   3.243
 6674W        W73215   1.711  30.588   2.708
 6675W        W73216  13.616  34.457  14.799
 6676W        W73217  17.596   9.383  10.648
 6677W        W73218  12.827  15.055   3.857
 6678W        W73219   7.092  12.309  11.467
 6679W        W73220  13.727  40.340   1.481
 6680W        W73221  18.763  27.944   4.993
 6681W        W73222  15.264  26.484   0.825
 6682W        W73223   2.909  33.454  13.844
 6683W        W73224  43.540  18.698   2.189
 6684W        W73225   8.283  10.310   2.881
 6685W        W73226  33.153  23.487   3.532
 6686W        W73227  11.061  24.625   4.079
 6687W        W73228  31.422  14.673   1.370
 6688W        W73229  23.123   7.827   0.873
 6689W        W73230  34.167  11.286   1.949
 6690W        W73231  13.148   0.061   0.836
 6691W        W73232  21.180  27.762  11.416
 6692W        W73233  19.224  38.088  14.650
 6693W        W73234  40.313  35.515   2.602
 6694W        W73235  17.679  12.412   1.731
 6695W        W73236  33.899  40.125  10.711
 6696W        W73237  27.209  41.717  12.666
 6697W        W73238  24.459  36.045   2.367
 6698W        W73239  18.677  17.704   1.002
 6699W        W73240  11.311  38.002   4.011
 6700W        W73241  40.808  32.583  14.164
 6701W        W73242  22.008  21.962   2.583
 6702W        W73243  31.784  42.012   0.271
 6703W        W73244  11.666  26.668  10.335
 6704W        W73245   7.903   1.211   2.111
 6705W        W73246  11.045   2.390   0.191
 6706W        W73247  28.411  13.332  11.594
 6707W        W73248  23.154  25.344   3.677
 6708W        W73249  39.831   1.963   3.182
 6709W        W73250  34.186  19.314  14.984
 6710W        W73251   6.401   8.151   1.721
 6711W        W73252  10.175   8.002   4.122
 6712W        W73253  22.357  30.641   3.250
 6713W        W73254  34.402  21.819   4.751
 6714W        W73255   4.018  30.692   1.401
 6715W        W73256  38.042  36.014  12.556
 6716W        W73257  24.814  16.826   0.562
 6717W        W73258   0.710   5.147  14.745
 6718W        W73259  17.824  37.392   3.657
 6719W        W73260  31.064  22.429  10.791
 6720W        W73261  17.563   1.960  14.592
 6721W        W73262  27.912   1.969  10.797
 6722W        W73263  26.198  43.231  14.857
 6723W        W73264  38.927  31.562   3.861
 6724W        W73265  39.883   5.861   0.002
 6725W        W73266  43.191  43.921   3.189
 6726W        W73267  44.890  22.698   2.164
 6727W        W73268  25.128  11.867   4.106
 6728W        W73269   5.941  17.844   3.290
 6729W        W73270  17.204  31.914   2.291
 6730W        W73271   0.499  43.271  14.388
 6731W        W73272   2.118  16.547  10.255
 6732W        W73273  20.631  34.075   4.078
 6733W        W73274  10.475   6.431   4.681
 6734W        W73275  11.834   6.626   4.081
 6735W        W73276  35.568  33.901   0.357
 6736W        W73277  25.522  22.266   0.467
 6737W        W73278  20.566  29.912  11.989
 6738W        W73279  10.418  33.130  12.529
 6739W        W73280   9.215   5.846  14.887
 6740W        W73281  24.989  18.949   1.504
 6741W        W73282  19.811  36.342   1.028
 6742W        W73283  40.257  15.267   2.103
 6743W        W73284  34.894  29.596  11.703
 6744W        W73285  36.824  33.673   3.105
 6745W        W73286  40.890  36.382   4.599
 6746W        W73287  32.878  44.775   4.717
 6747W        W73288   7.069  41.120   0.023
 6748W        W73289  23.797  15.070  13.832
 6749W        W73290  27.405  10.192  14.937
 6750W        W73291  35.065  16.125  13.056
 6751W        W73292  21.679  27.433   2.854
 6752W        W73293  40.085  22.661  11.010
 6753W        W73294  35.041  36.355  14.949
 6754W        W73295  15.822  33.618  14.413
 6755W        W73296  40.419  15.535  14.323
 6756W        W73297  38.815   1.372  14.727
 6757W        W73298  43.265  35.517  12.851
 6758W        W73299  33.148  31.643  11.630
 6759W        W73300   4.724  17.980  14.921
 6760W        W73301  13.301  16.618   0.784
 6761W        W73302  23.505  17.318   1.850
 6762W        W73303  43.961  13.393  11.584
 6763W        W73304  25.944  13.677  12.816
 6764W        W73305  23.414  18.810  13.691
 6765W        W73306  17.705  14.019  12.683
 6766W        W73307  28.508  25.501  11.507
 6767W        W73308  29.597  26.577  11.324
 6768W        W73309  21.129  16.618  10.608
 6769W        W73310   5.827  13.412   4.376
 6770W        W73311   6.906  40.283  12.046
 6771W        W73312  23.956  28.061  11.959
 6772W        W73313  27.514   8.187   0.864
 6773W        W73314  36.482  14.761   0.468
 6774W        W73315  15.996  23.653   2.182
 6775W        W73316   6.063  34.710   1.352
 6776W        W73317  25.724  10.230  13.300
 6777W        W73318   8.660  25.860   4.608
 6778W        W73319  10.988  27.115  11.353
 6779W        W73320  27.150  25.986   1.179
 6780W        W73321   3.155   4.849   2.376
 6781W        W73322  20.050  12.436  14.818
 6782W        W73323  39.973  38.007   3.727
 6783W        W73324   1.728  32.548   2.603
 6784W        W73325  16.068  34.901   1.598
 6785W        W73326  22.440  24.432   3.709
 6786W        W73327  22.461   6.015   3.700
 6787W        W73328  16.146   9.161  13.954
 6788W        W73329  34.961  30.117  12.835
 6789W        W73330  38.949   9.615   2.651
 6790W        W73331  44.412  44.898   2.254
 6791W        W73332   5.650  13.231   2.636
 6792W        W73333  32.678  22.488  11.917
 6793W        W73334  40.387   9.319  12.292
 6794W        W73335  41.251  37.477   4.112
 6795W        W73336  20.499   8.288   5.175
 6796W        W73337  31.157  43.701   4.279
 6797W        W73338  39.322   7.573  14.961
 6798W        W73339  37.682   6.161  10.935
 6799W        W73340  37.772   6.419  11.851
 6800W        W73341  11.825  37.020  11.258
 6801W        W73342   5.836   7.628   3.649
 6802W        W73343  39.543  21.898  13.983
 6803W        W73344  40.136  25.092   0.486
 6804W        W73345   1.349  33.688   1.160
 6805W        W73346  42.415  15.222   3.072
 6806W        W73347  24.268  19.620  11.146
 6807W        W73348  31.760   3.594   2.782
 6808W        W73349  36.533  42.174  14.705
 6809W        W73350  26.079  44.472   3.130
 6810W        W73351   0.643  27.800   4.281
 6811W        W73352  17.711  34.958   2.195
 6812W        W73353  39.542  28.285  11.950
 6813W        W73354  15.831  29.075   3.718
 6814W        W73355  18.130  15.122   0.749
 6815W        W73356  18.757  22.598  13.641
 6816W        W73357  37.470   8.314  10.962
 6817W        W73358  42.682  20.044  13.105
 6818W        W73359   7.156   8.645  11.119
 6819W        W73360  38.542  43.022  13.525
 6820W        W73361  29.666  15.083   4.058
 6821W        W73362   0.465  37.418  12.238
 6822W        W73363  38.858  36.726  13.091
 6823W        W73364  21.983  41.412  14.776
 6824W        W73365   7.526  23.489  11.710
 6825W        W73366  14.318   9.993  13.450
 6826W        W73367  11.997  22.670  12.152
 6827W        W73368   4.843  14.760   1.725
 6828W        W73369  10.800   2.406   3.361
 6829W        W73370  35.962   1.233   1.476
 6830W        W73371  23.282  30.497  12.875
 6831W        W73372  34.577  14.757   2.426
 6832W        W73373   7.656  25.181  11.620
 6833W        W73374  20.758  23.538  12.624
 6834W        W73375  30.417  30.210  13.860
 6835W        W73376  18.571  12.935   2.196
 6836W        W73377  24.017  22.537   2.680
 6837W        W73378   3.225  16.209  11.990
 6838W        W73379  11.281  27.939  11.657
 6839W        W73380  27.256  38.576  13.822
 6840W        W73381  21.954   5.904  11.788
 6841W        W73382  44.858  33.847   3.259
 6842W        W73383  37.268  11.177   1.970
 6843W        W73384  31.579   9.635   2.219
 6844W        W73385  12.510  27.607   1.462
 6845W        W73386  17.860   3.249  12.992
 6846W        W73387   4.386  22.086   3.481
 6847W        W73388  30.716   3.835   0.105
 6848W        W73389  39.049   0.963  10.427
 6849W        W73390  13.112  12.717   4.647
 6850W        W73391  32.853  16.620   3.359
 6851W        W73392   6.354  33.052   4.696
 6852W        W73393  39.284  44.405  10.663
 6853W        W73394  17.569  10.157   2.641
 6854W        W73395  38.427  14.669   1.761
 6855W        W73396  28.685   0.290  12.831
 6856W        W73397   1.260  32.376   0.735
 6857W        W73398  36.055   5.385  11.406
 6858W        W73399  35.645  42.368   3.713
 6859W        W73400  20.779   8.288   2.621
 6860W        W73401  14.620  17.512  14.880
 6861W        W73402  43.808   8.938  12.958
 6862W        W73403  19.772  24.651  10.793
 6863W        W73404   6.943  17.602   3.197
 6864W        W73405  29.152  25.683   4.409
 6865W        W73406  24.430  32.653  14.565
 6866W        W73407   3.981  28.420   0.765
 6867W        W73408  38.482  17.702   0.835
 6868W        W73409   8.333  39.933   0.204
 6869W        W73410  28.763   7.117  11.474
 6870W        W73411  43.414  37.991   1.933
 6871W        W73412  20.685  16.865  10.856
 6872W        W73413   4.766  42.949   2.722
 6873W        W73414   6.434  40.889   3.695
 6874W        W73415   5.170  41.996  14.022
 6875W        W73416   2.367  22.506  13.297
 6876W        W73417  27.520  17.542   3.081
 6877W        W73418  22.445  17.923   1.938
 6878W        W73419  23.737  31.751  12.507
 6879W        W73420  30.046  24.495   0.392
 6880W        W73421   9.700  27.906   3.621
 6881W        W73422   9.583  24.095  12.384
 6882W        W73423  17.129  44.266  10.889
 6883W        W73424  26.690  19.706  11.718
 6884W        W73425  29.301   1.362   1.903
 6885W        W73426  29.889   4.717  10.179
 6886W        W73427  25.708  44.762  13.398
 6887W        W73428  26.990  41.912  13.440
 6888W        W73429   9.148  31.458  13.452
 6889W        W73430  44.523   3.876   3.056
 6890W        W73431  35.050  11.380   2.282
 6891W        W73432  11.545  25.967  14.807
 6892W        W73433  25.840   2.914  13.166
 6893W        W73434  10.622  40.958   2.404
 6894W        W73435   8.374  41.277  12.811
 6895W        W73436  10.746  17.575   4.389
 6896W        W73437   2.668  39.418  12.239
 6897W        W73438  30.014  10.148   0.917
 6898W        W73439   0.216  38.447  13.056
 6899W        W73440   9.679  23.986  11.897
 6900W        W73441  20.156  18.819   2.481
 6901W        W73442  44.935   7.290   3.374
 6902W        W73443  10.840   4.492  12.010
 6903W        W73444  11.536   1.016  11.854
 6904W        W73445   5.068  18.081  12.743
 6905W        W73446  36.079   0.241  11.104
 6906W        W73447  41.728  40.319  10.621
 6907W        W73448  27.309  34.337  13.016
 6908W        W73449  35.352  17.734   0.277
 6909W        W73450  23.688   3.351  12.651
 6910W        W73451  32.686  32.538  11.553
 6911W        W73452  37.476  12.750  12.635
 6912W        W73453  44.440  11.686   2.676
 6913W        W73454  18.481  35.830   2.793
 6914W        W73455  29.393  22.232  14.750
 6915W        W73456  17.822  16.628  13.252
 6916W        W73457   7.941  34.343   1.543
 6917W        W73458  38.091  16.362  10.267
 6918W        W73459  20.196  28.776  10.279
 6919W        W73460   7.076   3.933   5.041
 6920W        W73461  31.239   4.699  10.132
 6921W        W73462   6.923  22.432  11.190
 6922W        W73463  38.550  40.740  14.704
 6923W        W73464  28.904   9.100   0.269
 6924W        W73465   6.467   8.144  13.656
 6925W        W73466  19.594  10.266   3.771
 6926W        W73467  12.949  29.359   2.360
 6927W        W73468  33.497  12.323  13.091
 6928W        W73469   8.893  42.659  10.116
 6929W        W73470  43.031  44.734  11.092
 6930W        W73471  22.646  13.134  12.053
 6931W        W73472   2.748  25.365   0.208
 6932W        W73473  17.649  37.425   0.466
 6933W        W73474   6.021   2.837   0.734
 6934W        W73475  33.839   6.356   3.280
 6935W        W73476  19.282  27.531  13.456
 6936W        W73477  10.787   2.864  14.916
 6937W        W73478  20.534   5.767   3.920
 6938W        W73479   4.832   7.454  12.431
 6939W        W73480  36.939   0.880   0.712
 6940W        W73481  37.637   4.320  12.217
 6941W        W73482  14.560  37.348   4.137
 6942W        W73483   7.895   7.314   0.035
 6943W        W73484  28.072  41.510  13.430
 6944W        W73485  43.045  18.740  11.703
 6945W        W73486  29.459  29.149  13.418
 6946W        W73487  15.671  40.527  14.476
 6947W        W73488   7.834   7.209   2.811
 6948W        W73489  20.540  24.878   0.688
 6949W        W73490   1.866  37.390   1.292
 6950W        W73491  29.156  34.373  12.500
 6951W        W73492  37.174  12.621  11.276
 6952W        W73493  11.074  27.239   1.715
 6953W        W73494  43.550   1.303   2.866
 6954W        W73495  20.747   6.356   2.748
 6955W        W73496  24.090  40.132  11.955
 6956W        W73497  19.657  16.195   5.020
 6957W        W73498  23.004  31.118   1.671
 6958W        W73499  13.604  12.052   3.726
 6959W        W73500  41.830   2.462   3.314
 6960W        W73501   9.288  11.037  11.980
 6961W        W73502   8.713   9.703   3.344
 6962W        W73503  40.717  43.788   3.715
 6963W        W73504  30.664  20.075  14.832
 6964W        W73505  33.863   5.474  11.889
 6965W        W73506   6.425  28.603  13.773
 6966W        W73507   6.896  33.447   0.499
 6967W        W73508  14.656  33.701  12.079
 6968W        W73509  36.859  14.747  10.758
 6969W        W73510  41.557  44.003   1.474
 6970W        W73511  12.650  18.525   0.444
 6971W        W73512   0.364   4.243   3.742
 6972W        W73513  22.928  36.906  10.782
 6973W        W73514  31.094  18.585   4.170
 6974W        W73515  31.140   0.812   1.710
 6975W        W73516  40.852   6.000   1.988
 6976W        W73517  12.064  44.279   4.237
 6977W        W73518  26.017  29.675  12.906
 6978W        W73519  33.861  18.846  12.441
 6979W        W73520  22.245  27.003  13.379
 6980W        W73521  29.219  12.241  12.909
 6981W        W73522   0.731  18.107   2.858
 6982W        W73523  44.593  29.272  11.665
 6983W        W73524  44.986   5.185   0.297
 6984W        W73525   1.038  15.684   1.840
 6985W        W73526  31.645   8.668   2.159
 6986W        W73527  23.479  19.316  12.180
 6987W        W73528  43.880  44.515   4.157
 6988W        W73529  31.631  18.659   4.175
 6989W        W73530   9.688  27.549  14.863
 6990W        W73531  32.810  19.077   4.177
 6991W        W73532  27.434  42.027   1.722
 6992W        W73533  42.808  15.421   2.318
 6993W        W73534  16.759  27.936  14.952
 6994W        W73535  22.762  16.100   2.396
 6995W        W73536  23.723  42.188  14.896
 6996W        W73537  36.242  18.405   5.087
 6997W        W73538  33.889  14.088   9.567
 6998W        W73539  40.687   3.187  11.130
 6999W        W73540  28.373  30.063   1.956
 7000W        W73541   2.948   1.063  13.269
 7001W        W73542   9.849  16.571  12.931
 7002W        W73543  35.806   8.265   4.122
 7003W        W73544   8.656  38.326   0.015
 7004W        W73545  43.480   0.223   2.827
 7005W        W73546  40.495   5.680  12.598
 7006W        W73547  43.497   8.926  14.301
 7007W        W73548  26.092  33.065  12.891
 7008W        W73549  10.626  11.221   2.853
 7009W        W73550  31.893   3.838   1.683
 7010W        W73551  34.485  10.889  11.485
 7011W        W73552  16.781  42.213   3.256
 7012W        W73553  37.791  28.978  14.844
 7013W        W73554  11.776  34.524   0.300
 7014W        W73555  26.994  21.073   0.239
 7015W        W73556  19.353  22.459  11.091
 7016W        W73557  35.883  23.809   2.204
 7017W        W73558   4.727  15.081  13.827
 7018W        W73559  44.718  42.889   0.704
 7019W        W73560  36.837   3.975  11.491
 7020W        W73561  38.079  27.623   3.694
 7021W        W73562  38.385  35.661   2.642
 7022W        W73563  15.582  13.106   0.269
 7023W        W73564   3.796  30.815   3.205
 7024W        W73565  12.743  21.542  11.535
 7025W        W73566  35.061   5.464  10.416
 7026W        W73567  26.960  13.137   1.329
 7027W        W73568  37.914   7.714   3.758
 7028W        W73569  24.603  13.595   1.066
 7029W        W73570  23.573  40.864  13.587
 7030W        W73571  32.161   2.676   9.926
 7031W        W73572  25.448   8.653   1.194
 7032W        W73573  40.235  13.420  11.253
 7033W        W73574  12.137   5.325  12.310
 7034W        W73575  32.231   2.712   2.699
 7035W        W73576  31.802  19.450  14.041
 7036W        W73577  11.955  21.707   4.711
 7037W        W73578  17.597  31.019   4.194
 7038W        W73579  27.219  34.972  12.538
 7039W        W73580   7.382  35.181   3.279
 7040W        W73581   8.847  39.979   0.301
 7041W        W73582  37.135  20.491   1.468
 7042W        W73583   5.918  37.036  12.600
 7043W        W73584   7.335  10.575   4.279
 7044W        W73585  31.634  20.981  10.800
 7045W        W73586  20.598  28.038   0.533
 7046W        W73587  38.011  30.616  10.771
 7047W        W73588  39.321  16.202   1.133
 7048W        W73589  31.002  41.834  14.154
 7049W        W73590  35.043  10.780   2.240
 7050W        W73591  37.320   3.330  12.414
 7051W        W73592  30.592   4.038  14.330
 7052W        W73593  21.735  38.367  11.574
 7053W        W73594  23.997  29.289   1.003
 7054W        W73595  21.436  11.251  13.810
 7055W        W73596  24.226  18.578   2.405
 7056W        W73597  26.694  17.169  13.805
 7057W        W73598  42.670  30.115   2.204
 7058W        W73599   9.244  24.278   4.267
 7059W        W73600  31.572   5.145   4.588
 7060W        W73601  43.090  43.289  12.903
 7061W        W73602  14.612  28.975   4.120
 7062W        W73603  34.137  43.333   0.333
 7063W        W73604  32.680  29.863   1.829
 7064W        W73605  20.968  15.553  10.646
 7065W        W73606  34.068  22.767   2.819
 7066W        W73607  16.097  14.463  12.945
 7067W        W73608  42.780  42.979   0.921
 7068W        W73609   4.257  11.301   1.323
 7069W        W73610  10.329  19.550   1.562
 7070W        W73611  22.778  13.387  12.476
 7071W        W73612  14.435   0.723   3.619
 7072W        W73613  23.118   1.291  12.034
 7073W        W73614  25.811  28.007  12.957
 7074W        W73615  22.523  42.575  13.893
 7075W        W73616  18.548  40.303  14.869
 7076W        W73617  10.211   4.177   2.497
 7077W        W73618  28.066   1.278   4.519
 7078W        W73619  32.055  27.168  12.081
 7079W        W73620  19.606  27.715  11.154
 7080W        W73621  12.135  20.032  12.035
 7081W        W73622  21.854  14.278  13.993
 7082W        W73623  44.523  21.708  12.262
 7083W        W73624  30.015  26.831   2.866
 7084W        W73625  39.385  35.703   3.284
 7085W        W73626  17.716  23.477   2.848
 7086W        W73627   4.518  26.272  10.289
 7087W        W73628   1.891  18.341   2.662
 7088W        W73629   8.821  43.422   4.593
 7089W        W73630   4.819  42.242  11.901
 7090W        W73631   6.343  44.407  10.213
 7091W        W73632  18.038  32.293   0.641
 7092W        W73633  21.252  40.794   0.280
 7093W        W73634   9.638  19.020   2.935
 7094W        W73635  40.920  11.802   4.027
 7095W        W73636  37.321   5.204   2.726
 7096W        W73637  41.966  43.975   3.709
 7097W        W73638  12.754   0.935  11.483
 7098W        W73639  22.486  22.920   2.836
 7099W        W73640  29.640  30.996   3.706
 7100W        W73641   9.751  24.619   4.333
 7101W        W73642  31.874  16.742  11.284
 7102W        W73643  32.221   1.468   1.320
 7103W        W73644   9.667  36.166  10.774
 7104W        W73645   2.802  33.264  13.373
 7105W        W73646  43.936  17.819   2.871
 7106W        W73647  17.998  16.132   3.097
 7107W        W73648   9.520  44.415   2.937
 7108W        W73649  26.485   3.806   3.598
 7109W        W73650  22.116  27.265  13.833
 7110W        W73651  17.642  29.083  11.515
 7111W        W73652  40.988  15.154  11.473
 7112W        W73653   5.762  27.395   4.505
 7113W        W73654  32.431   0.333   3.696
 7114W        W73655  42.876  39.280  11.813
 7115W        W73656  41.466  18.767   2.744
 7116W        W73657  27.418  28.138  11.163
 7117W        W73658  18.847   5.178   0.413
 7118W        W73659   3.189  35.676  14.403
 7119W        W73660  23.513  23.143  10.661
 7120W        W73661   9.125   9.665   0.912
 7121W        W73662  44.945  16.995  11.147
 7122W        W73663   3.705  36.369   3.520
 7123W        W73664  41.973   2.931   3.443
 7124W        W73665  29.120  12.583  13.776
 7125W        W73666  10.341   5.918  11.752
 7126W        W73667  26.755   2.866   2.087
 7127W        W73668  37.465   6.395   3.526
 7128W        W73669  40.221   9.902   4.224
 7129W        W73670   2.103  37.613  13.504
 7130W        W73671  35.867   8.614  12.918
 7131W        W73672  36.970   7.346   4.274
 7132W        W73673  17.067  29.357  12.937
 7133W        W73674  21.548  26.499  14.633
 7134W        W73675  17.332  15.810   1.915
 7135W        W73676  18.622  31.241  14.053
 7136W        W73677  40.391   0.536   2.113
 7137W        W73678  38.978   4.009   2.516
 7138W        W73679  18.330  31.917   4.569
 7139W        W73680  44.932  18.759   0.075
 7140W        W73681  23.089  41.296  12.835
 7141W        W73682  12.761  15.892  14.954
 7142W        W73683   0.719   1.937   3.241
 7143W        W73684  30.115  11.780   5.028
 7144W        W73685  19.812  25.936  13.514
 7145W        W73686   6.757  15.826   4.678
 7146W        W73687  20.791  31.631   0.531
 7147W        W73688  13.171  19.496  12.379
 7148W        W73689  15.769   6.781  13.176
 7149W        W73690  17.434  35.015  12.060
 7150W        W73691  36.961   6.012   1.804
 7151W        W73692  33.136  20.492  13.290
 7152W        W73693  26.116  37.787   3.172
 7153W        W73694   5.417  24.859   3.078
 7154W        W73695  24.116  30.123   4.790
 7155W        W73696  16.365  15.309   1.741
 7156W        W73697  23.620  22.424   2.314
 7157W        W73698  26.064  41.935  12.155
 7158W        W73699   1.055   3.008   4.365
 7159W        W73700   7.129   5.833  11.170
 7160W        W73701   9.748  35.737  13.009
 7161W        W73702  38.147  21.791   4.836
 7162W        W73703  44.490   4.194   1.980
 7163W        W73704   2.937  19.841  14.300
 7164W        W73705   5.864   4.356   3.848
 7165W        W73706  21.551  10.625  14.878
 7166W        W73707  41.109  10.847   9.824
 7167W        W73708  31.328  40.535   1.262
 7168W        W73709   7.193  30.339  12.205
 7169W        W73710  33.614   4.500  11.437
 7170W        W73711  37.768  32.299  11.965
 7171W        W73712  22.528  20.142  10.272
 7172W        W73713   7.382  38.556  14.784
 7173W        W73714  33.160  12.968  12.179
 7174W        W73715  25.286   6.396  13.872
 7175W        W73716   1.968  39.466   2.435
 7176W        W73717  13.383  20.082   0.911
 7177W        W73718  37.844   2.904   3.420
 7178W        W73719   7.357  12.664   4.598
 7179W        W73720  32.558   3.920  12.005
 7180W        W73721  27.897  17.027  14.432
 7181W        W73722  19.761  16.550  12.157
 7182W        W73723  26.179   1.356  13.825
 7183W        W73724  37.384  41.526  12.847
 7184W        W73725  19.235  19.037  11.053
 7185W        W73726  39.109  29.402  13.065
 7186W        W73727  18.805  21.222  10.422
 7187W        W73728  14.281   3.318  12.064
 7188W        W73729  20.572   0.451   0.388
 7189W        W73730   6.675  14.094   4.145
 7190W        W73731   7.669  26.451  12.036
 7191W        W73732  18.718  24.496   3.153
 7192W        W73733  24.152  38.974  13.640
 7193W        W73734  23.404  34.071   3.788
 7194W        W73735   9.635  31.868  12.034
 7195W        W73736  40.901  26.045  12.877
 7196W        W73737  30.077   2.793  12.559
 7197W        W73738  14.945   0.427   4.128
 7198W        W73739  30.464  26.622  11.612
 7199W        W73740  43.767  11.543  11.533
 7200W        W73741  10.176   8.005   2.386
 7201W        W73742  17.668   5.752   2.809
 7202W        W73743  15.577   2.030  12.094
 7203W        W73744  31.458  32.469   0.135
 7204W        W73745  33.409  24.475   4.737
 7205W        W73746  41.308  38.623  10.810
 7206W        W73747   4.868  23.598   1.126
 7207W        W73748   9.456  19.132  11.237
 7208W        W73749   5.014  30.472  13.636
 7209W        W73750  36.093  15.728   2.689
 7210W        W73751  10.705   4.375   2.174
 7211W        W73752  21.822   4.237  11.947
 7212W        W73753   9.799  40.303   1.047
 7213W        W73754  23.083  28.093   4.209
 7214W        W73755  12.336  22.183  12.803
 7215W        W73756  10.680  10.479   1.483
 7216W        W73757  40.405  30.080   1.179
 7217W        W73758  19.734   4.253  12.316
 7218W        W73759  27.723  44.692  12.503
 7219W        W73760  24.799  43.565   0.978
 7220W        W73761  35.879   1.185   2.988
 7221W        W73762  21.937   0.415  14.897
 7222W        W73763  23.090  13.634  14.517
 7223W        W73764  43.886  26.616  14.516
 7224W        W73765  35.148  10.718   4.028
 7225W        W73766  42.967  33.861  14.903
 7226W        W73767  12.787   9.680   2.043
 7227W        W73768  15.718  37.310   1.986
 7228W        W73769  13.565  35.077   2.771
 7229W        W73770  22.615  18.146  10.758
 7230W        W73771   3.361  33.499   4.504
 7231W        W73772   6.853   7.030  14.004
 7232W        W73773  44.379  29.722  11.714
 7233W        W73774  39.273   2.822  11.304
 7234W        W73775  38.923  24.277  14.936
 7235W        W73776  22.395  22.265  13.854
 7236W        W73777  29.229  20.992   9.807
 7237W        W73778  20.131  11.805  12.671
 7238W        W73779  12.180  16.480   1.346
 7239W        W73780  14.089  17.924   4.067
 7240W        W73781  36.523  15.791   3.623
 7241W        W73782  18.697  36.321   2.077
 7242W        W73783  15.321   2.814  12.251
 7243W        W73784  41.132  12.716   4.439
 7244W        W73785  37.188  18.101  11.164
 7245W        W73786  12.833  23.920   4.550
 7246W        W73787  34.653  32.684   3.325
 7247W        W73788  15.017  35.121   3.606
 7248W        W73789  43.482   3.706  10.438
 7249W        W73790   3.992  11.123  12.764
 7250W        W73791  32.307  24.407  11.170
 7251W        W73792   8.081   4.051  13.529
 7252W        W73793  14.046  37.480   4.088
 7253W        W73794  31.040  13.310   9.783
 7254W        W73795  15.241  44.514   4.639
 7255W        W73796  34.212   1.388  12.443
 7256W        W73797   7.620  11.811   3.200
 7257W        W73798  38.330  43.918  14.476
 7258W        W73799  30.910   2.835   2.439
 7259W        W73800  13.729  14.732   4.098
 7260W        W73801  44.263  13.542  10.085
 7261W        W73802   1.838  11.710  10.861
 7262W        W73803   7.642   8.840  11.098
 7263W        W73804  36.877  34.276  12.101
 7264W        W73805   5.690  30.901  12.467
 7265W        W73806  23.552  33.907   1.304
 7266W        W73807  33.515  22.015   4.480
 7267W        W73808   9.064  36.620   0.741
 7268W        W73809   4.425  24.549   1.623
 7269W        W73810  36.922  24.593  14.450
 7270W        W73811  12.953  41.519   1.367
 7271W        W73812  21.834  33.135  11.394
 7272W        W73813  35.211  20.273  12.271
 7273W        W73814   8.372  11.216  10.457
 7274W        W73815  31.349  40.625  12.506
 7275W        W73816  44.762   5.898  11.204
 7276W        W73817  10.296  11.392   1.445
 7277W        W73818  18.495  11.151   5.352
 7278W        W73819  40.524  41.621   3.736
 7279W        W73820   6.390  22.210  14.964
 7280W        W73821   7.905   8.275  14.830
 7281W        W73822  18.822  42.306  11.574
 7282W        W73823   1.932  41.784  13.867
 7283W        W73824  19.302   4.306  13.991
 7284W        W73825   5.807  32.132   1.341
 7285W        W73826  30.477   6.935  11.127
 7286W        W73827  32.509  34.474  12.972
 7287W        W73828  36.052  11.985   1.355
 7288W        W73829   9.889  23.632   1.402
 7289W        W73830   2.420  34.414   0.078
 7290W        W73831  20.023  42.793  13.393
 7291W        W73832  29.445   6.039   4.518
 7292W        W73833   2.957  11.630  11.627
 7293W        W73834  15.528  36.293  12.516
 7294W        W73835  13.836  32.445  12.375
 7295W        W73836  24.469  12.393  13.449
 7296W        W73837  34.561  28.493  14.833
 7297W        W73838  44.786  44.396   2.646
 7298W        W73839  34.090  19.110  12.041
 7299W        W73840  34.347   5.862  11.187
 7300W        W73841  11.817  35.499   0.338
 7301W        W73842  13.848   0.431   4.132
 7302W        W73843  18.818  29.564  10.948
 7303W        W73844  12.612  24.960  11.199
 7304W        W73845  38.024  28.923  10.616
 7305W        W73846  29.026  33.019   0.446
 7306W        W73847  21.778  35.641   4.321
 7307W        W73848   3.136  10.325  11.919
 7308W        W73849   4.832  43.661   4.168
 7309W        W73850  41.844  36.380   4.597
 7310W        W73851  32.983  31.401   3.305
 7311W        W73852  26.844  36.078  12.036
 7312W        W73853  16.124  28.993  12.443
 7313W        W73854  21.480  18.588   1.910
 7314W        W73855   0.869  11.170  13.157
 7315W        W73856  23.281  23.533  10.396
 7316W        W73857  28.304  15.346   0.227
 7317W        W73858  12.284  36.890   4.618
 7318W        W73859  44.248  20.258  14.849
 7319W        W73860   9.897   0.102   4.477
 7320W        W73861  31.475  37.416  13.451
 7321W        W73862  28.419  41.188  10.995
 7322W        W73863  26.637  26.090  14.999
 7323W        W73864  15.743  15.661  14.445
 7324W        W73865  39.046  36.717  14.384
 7325W        W73866  27.215  30.870   0.767
 7326W        W73867   1.058  23.230   1.865
 7327W        W73868  32.415  39.702  12.869
 7328W        W73869   7.339  16.191   1.702
 7329W        W73870  14.281   7.608  12.401
 7330W        W73871   9.679  22.214  10.537
 7331W        W73872  16.579   8.915  13.856
 7332W        W73873  12.359  30.526  13.836
 7333W        W73874  21.743  33.562   1.415
 7334W        W73875  36.065  31.632  11.510
 7335W        W73876  13.026  10.785  13.579
 7336W        W73877  26.272   2.220  10.542
 7337W        W73878  32.759  20.197   1.973
 7338W        W73879  20.279   9.966  11.649
 7339W        W73880  25.676  23.986   4.701
 7340W        W73881   9.346  23.994  13.373
 7341W        W73882  30.667   5.080   4.615
 7342W        W73883   4.322  14.327  12.873
 7343W        W73884  39.741  42.619  13.058
 7344W        W73885  36.927  43.308  11.357
 7345W        W73886  24.166  13.219  10.664
 7346W        W73887  31.346  27.970  10.553
 7347W        W73888  10.595  33.384   2.330
 7348W        W73889   4.922   7.720   0.340
 7349W        W73890  44.530  13.842   1.675
 7350W        W73891  27.013  43.828   4.524
 7351W        W73892  38.647  39.800  13.430
 7352W        W73893  29.701   1.426  10.794
 7353W        W73894  35.575  11.180  13.914
 7354W        W73895  43.401  34.557   0.752
 7355W        W73896   3.027  10.834   0.388
 7356W        W73897  28.353  32.639  13.560
 7357W        W73898  33.158  17.841  10.644
 7358W        W73899  41.076  36.113   3.710
 7359W        W73900   5.182  29.528  11.649
 7360W        W73901  21.221  13.776   0.390
 7361W        W73902   5.945  15.928  11.871
 7362W        W73903  43.607  42.766  12.525
 7363W        W73904  36.708   2.771  14.529
 7364W        W73905  35.970  25.836   1.159
 7365W        W73906   5.189  35.890  12.500
 7366W        W73907  20.928  43.381  11.225
 7367W        W73908  19.001  31.661  13.810
 7368W        W73909  20.583  39.292  14.344
 7369W        W73910  29.673  35.343   3.057
 7370W        W73911  31.688   6.243  11.950
 7371W        W73912   8.314   8.965   0.843
 7372W        W73913   6.258  28.716  12.055
 7373W        W73914  28.655  14.118  11.173
 7374W        W73915  13.862  26.389   2.797
 7375W        W73916   1.942  23.753  12.114
 7376W        W73917  33.410   2.914  13.872
 7377W        W73918   8.432   2.484  14.452
 7378W        W73919  36.088  44.456   0.165
 7379W        W73920  32.553  14.343  14.243
 7380W        W73921  36.812  39.944  12.518
 7381W        W73922  35.349  30.438   3.930
 7382W        W73923  41.790  27.973  12.499
 7383W        W73924  31.546   3.257  10.301
 7384W        W73925  44.473  15.129  12.953
 7385W        W73926  41.294   6.529   0.327
 7386W        W73927   7.083  25.907  13.401
 7387W        W73928   7.493   8.172   1.286
 7388W        W73929  33.910  29.643  10.330
 7389W        W73930  24.454  13.645   3.381
 7390W        W73931  22.302  28.083  12.736
 7391W        W73932   1.686   0.357   0.131
 7392W        W73933  36.533   2.817  13.128
 7393W        W73934  43.646  33.618  13.636
 7394W        W73935  27.714  39.489   0.745
 7395W        W73936   8.264  29.562  13.739
 7396W        W73937  11.684  27.746   1.234
 7397W        W73938  12.432   6.137   0.506
 7398W        W73939   4.507  15.774  11.642
 7399W        W73940  38.875   3.563   4.484
 7400W        W73941   0.873  22.748   0.757
 7401W        W73942  29.061  16.153   4.872
 7402W        W73943  13.082   4.725   2.387
 7403W        W73944   5.611  13.019  12.904
 7404W        W73945  37.416  40.407   2.158
 7405W        W73946  37.060  31.851   1.411
 7406W        W73947  17.481   5.779  11.553
 7407W        W73948  18.493  16.219   3.088
 7408W        W73949   8.407  19.839  11.536
 7409W        W73950  25.700   5.132   1.857
 7410W        W73951  22.473  20.297  11.289
 7411W        W73952  11.119  40.887   2.417
 7412W        W73953  32.563   0.017  11.445
 7413W        W73954  15.714   8.160   1.537
 7414W        W73955  10.594  44.852  12.429
 7415W        W73956  38.958  25.390   3.281
 7416W        W73957  35.562  11.408   3.217
 7417W        W73958  27.252   6.714  13.971
 7418W        W73959  24.147  11.109  13.317
 7419W        W73960  21.836   3.901  10.686
 7420W        W73961  26.642   9.693  13.108
 7421W        W73962  17.787  31.596   2.169
 7422W        W73963  26.013  29.197  12.019
 7423W        W73964  41.536   5.298   3.750
 7424W        W73965   8.213  22.527  14.772
 7425W        W73966  27.095  18.727  11.268
 7426W        W73967  39.365  31.112   3.260
 7427W        W73968   6.133   2.780   2.924
 7428W        W73969  28.850  26.232   3.138
 7429W        W73970  13.285   4.499  10.605
 7430W        W73971   6.141  42.483   0.922
 7431W        W73972  43.210   6.309   4.774
 7432W        W73973  34.474   0.928   4.653
 7433W        W73974  43.945   4.314   4.152
 7434W        W73975   0.181  37.967   0.938
 7435W        W73976  41.357  27.247  13.328
 7436W        W73977  29.968  23.227   1.749
 7437W        W73978  15.934  19.186   2.412
 7438W        W73979  10.254  34.638  12.427
 7439W        W73980  39.483  19.609  12.425
 7440W        W73981   7.508  42.179   1.720
 7441W        W73982   1.954  11.176  12.457
 7442W        W73983  42.450  14.273   3.463
 7443W        W73984   3.466   8.401  13.819
 7444W        W73985  30.156  32.668   4.346
 7445W        W73986  35.974  37.461   3.637
 7446W        W73987  19.064  33.920  11.015
 7447W        W73988  40.165  30.522  12.738
 7448W        W73989  40.782  11.112   2.503
 7449W        W73990  43.304  42.750   0.033
 7450W        W73991  18.090  30.620   4.194
 7451W        W73992   7.739  39.104   2.353
 7452W        W73993  27.055  33.923   2.825
 7453W        W73994   8.854  23.233  12.986
 7454W        W73995  21.142  17.042   1.842
 7455W        W73996  28.683   7.733   1.822
 7456W        W73997   5.402   1.820   1.637
 7457W        W73998   4.097   9.940   0.760
 7458W        W73999  25.123  26.580   4.456
 7459W        W74000   8.132  37.511   2.316
 7460W        W74001  23.554  26.187  12.585
 7461W        W74002  43.524  22.034   0.933
 7462W        W74003   5.332  12.177   1.694
 7463W        W74004  16.545  35.443   0.669
 7464W        W74005  44.041  29.411   0.342
 7465W        W74006   1.246   2.160   2.789
 7466W        W74007  19.296  33.922  11.468
 7467W        W74008   0.845  30.025   2.734
 7468W        W74009  25.285  42.494   1.404
 7469W        W74010  26.441  13.479   0.367
 7470W        W74011   4.846  28.975  13.401
 7471W        W74012   4.236  11.110   0.810
 7472W        W74013   5.787   4.840  12.456
 7473W        W74014  10.605  33.080  11.923
 7474W        W74015  31.043  22.192  11.243
 7475W        W74016   1.623  20.187   1.236
 7476W        W74017  38.663  35.755   4.947
 7477W        W74018   5.025  19.086   0.510
 7478W        W74019  35.622  14.768   2.457
 7479W        W74020  43.793  37.654  11.874
 7480W        W74021  25.465  29.215  13.572
 7481W        W74022  16.123  29.474   4.625
 7482W        W74023  38.712  14.165  13.609
 7483W        W74024  44.821  16.501  11.241
 7484W        W74025   9.324  28.699  14.603
 7485W        W74026  32.970  25.504   1.324
 7486W        W74027  31.446  20.236   4.809
 7487W        W74028  18.341  29.858   3.648
 7488W        W74029  30.923   2.231  11.862
 7489W        W74030  13.694  11.999   1.878
 7490W        W74031  22.698   8.109   0.764
 7491W        W74032   9.245   7.892   1.750
 7492W        W74033  34.442  19.205   3.327
 7493W        W74034   4.255  19.925  14.879
 7494W        W74035   5.860  12.863  12.482
 7495W        W74036  39.889  13.646  13.846
 7496W        W74037   8.862  17.629  14.987
 7497W        W74038  11.759  27.246  14.185
 7498W        W74039  35.866   9.884  12.085
 7499W        W74040   0.236  22.385   3.206
 7500W        W74041  26.663  25.937  14.509
 7501W        W74042  34.873   4.962   5.151
 7502W        W74043   0.682  12.607   1.602
 7503W        W74044  29.051  18.645   3.768
 7504W        W74045  11.306   8.126  14.428
 7505W        W74046  38.813   7.231   1.313
 7506W        W74047  16.592  29.087   1.798
 7507W        W74048  17.820  26.321   1.209
 7508W        W74049  14.539   5.211   4.591
 7509W        W74050   2.859  13.583  14.583
 7510W        W74051   0.322  43.760  14.324
 7511W        W74052  36.120  22.243  13.004
 7512W        W74053  37.365   5.711  10.786
 7513W        W74054  28.132  23.182  12.833
 7514W        W74055   5.629  39.215  10.402
 7515W        W74056  14.838  29.432  13.682
 7516W        W74057  17.552  35.447  12.318
 7517W        W74058   4.094  32.107   4.071
 7518W        W74059  28.520  18.207  10.550
 7519W        W74060  31.239  33.610   2.655
 7520W        W74061   4.851  40.822   4.801
 7521W        W74062  32.469  19.695   2.671
 7522W        W74063  15.082  43.402  13.925
 7523W        W74064  44.023  22.647  12.540
 7524W        W74065   0.916   9.606   3.183
 7525W        W74066  43.096  37.320   4.926
 7526W        W74067  13.292  43.814   2.209
 7527W        W74068  19.189  15.613   1.110
 7528W        W74069   0.994  26.531   0.784
 7529W        W74070  39.956  27.786  14.759
 7530W        W74071  29.132   4.876  10.926
 7531W        W74072  19.224  22.506  13.420
 7532W        W74073   8.335  39.078   0.097
 7533W        W74074  11.227  26.926   2.352
 7534W        W74075  35.845  27.686   1.512
 7535W        W74076  42.317   1.183   1.781
 7536W        W74077   5.263  15.304   2.725
 7537W        W74078   8.827   0.923   0.508
 7538W        W74079  33.213  14.372  14.678
 7539W        W74080   8.162  43.445   2.255
 7540W        W74081  32.626  36.316  12.064
 7541W        W74082  19.802  38.945   3.643
 7542W        W74083  22.682  33.008  13.024
 7543W        W74084  15.716  15.146  14.581
 7544W        W74085  39.638  29.476  14.841
 7545W        W74086  32.145  37.045  13.658
 7546W        W74087  42.296  15.817   1.748
 7547W        W74088  36.093  17.145   4.313
 7548W        W74089   9.361  39.326  13.835
 7549W        W74090  40.323  18.123  14.345
 7550W        W74091  33.924  13.656  14.767
 7551W        W74092  30.145  22.767   3.608
 7552W        W74093  39.577  17.890   3.564
 7553W        W74094  25.965   8.220  11.499
 7554W        W74095  21.305  14.701   2.168
 7555W        W74096  26.069   3.982   2.687
 7556W        W74097  19.627  16.845  13.134
 7557W        W74098   6.926  21.697  13.307
 7558W        W74099   4.251   7.930   4.763
 7559W        W74100  22.042  44.834  14.920
 7560W        W74101  17.461   1.135  10.221
 7561W        W74102  31.799   5.225  12.057
 7562W        W74103  30.453  16.163  14.272
 7563W        W74104   0.784  27.675   0.876
 7564W        W74105  30.020   9.650   4.258
 7565W        W74106   4.964  15.196   1.969
 7566W        W74107   4.676  31.430  13.511
 7567W        W74108  11.890  28.698  14.637
 7568W        W74109  21.304  27.495   1.339
 7569W        W74110  44.298  19.677  12.726
 7570W        W74111  34.788  43.382  13.143
 7571W        W74112  12.583  44.481  14.660
 7572W        W74113  31.309   1.243  13.566
 7573W        W74114  41.758   4.713  13.412
 7574W        W74115  27.830  11.638  12.992
 7575W        W74116   8.350  36.944  10.721
 7576W        W74117  37.519  27.447   1.765
 7577W        W74118  31.917  25.446   3.781
 7578W        W74119  20.867  21.800  12.935
 7579W        W74120  34.638  34.121   3.652
 7580W        W74121  13.643  21.532   4.889
 7581W        W74122  39.044  36.467  12.214
 7582W        W74123   7.735  19.234   0.805
 7583W        W74124   8.016  30.819   0.249
 7584W        W74125  33.420  42.348  11.048
 7585W        W74126  44.802  42.441  14.995
 7586W        W74127  15.745  11.384   1.348
 7587W        W74128  19.725  13.341  13.961
 7588W        W74129  40.432  32.441   2.951
 7589W        W74130   1.426  25.128  14.383
 7590W        W74131  38.030   7.208   5.038
 7591W        W74132   5.834   7.327   4.523
 7592W        W74133  41.368  33.004  12.471
 7593W        W74134  44.903   4.207   4.057
 7594W        W74135  33.906  23.067  12.800
 7595W        W74136  28.135  41.011  14.711
 7596W        W74137  21.257  36.048   4.620
 7597W        W74138  38.746  16.154   1.840
 7598W        W74139  33.653  36.121  11.146
 7599W        W74140  36.936   6.730  12.234
 7600W        W74141  12.687  23.954   4.059
 7601W        W74142  30.406  35.462   4.380
 7602W        W74143  37.787  32.355  11.042
 7603W        W74144  17.765  11.818   4.419
 7604W        W74145  35.755  42.039  12.439
 7605W        W74146  41.244   4.746  13.297
 7606W        W74147  23.720  20.700  12.920
 7607W        W74148  12.342  34.556   3.430
 7608W        W74149  41.933  17.005  14.959
 7609W        W74150  14.309  39.662   3.827
 7610W        W74151  27.956   0.571  13.971
 7611W        W74152  41.247  23.197  12.446
 7612W        W74153  27.436  11.865  10.965
 7613W        W74154  38.122  26.573  10.424
 7614W        W74155  16.057   0.517   0.175
 7615W        W74156  23.522  10.836  14.424
 7616W        W74157  35.544  12.206  12.588
 7617W        W74158  16.417  21.192  13.343
 7618W        W74159  11.101   5.249   3.302
 7619W        W74160  15.157  27.429   3.761
 7620W        W74161  14.732   1.522   0.935
 7621W        W74162   0.004  16.225  10.819
 7622W        W74163   2.575  44.722   3.213
 7623W        W74164  14.087  35.619   2.346
 7624W        W74165  15.207  20.825   5.010
 7625W        W74166  32.367  29.018   3.730
 7626W        W74167  22.962  13.678   1.308
 7627W        W74168  24.647  13.187   4.174
 7628W        W74169  14.233  10.685   4.744
 7629W        W74170  17.088  12.008   3.710
 7630W        W74171   6.780  25.168  14.392
 7631W        W74172   9.119  34.722  14.959
 7632W        W74173  39.359   9.880  11.506
 7633W        W74174  10.387  38.949  11.973
 7634W        W74175   0.563  16.229  10.814
 7635W        W74176  40.525  11.114  12.957
 7636W        W74177   4.837  43.641  11.925
 7637W        W74178  35.077  33.597  11.866
 7638W        W74179  38.311  25.963  12.163
 7639W        W74180  20.614  24.802   1.189
 7640W        W74181  43.454  28.547   3.595
 7641W        W74182  26.345  34.242   2.293
 7642W        W74183   3.020  44.176  13.951
 7643W        W74184  43.429  38.061   2.477
 7644W        W74185  26.137  20.930  11.090
 7645W        W74186  32.414  38.862   2.276
 7646W        W74187   1.131  19.454   5.316
 7647W        W74188  37.881  32.656   0.215
 7648W        W74189   9.388  12.825   2.721
 7649W        W74190   2.460  17.832  13.544
 7650W        W74191  33.006  40.566   1.340
 7651W        W74192  11.011   9.147   3.193
 7652W        W74193  25.037   4.223  11.616
 7653W        W74194  34.520   5.729   4.629
 7654W        W74195  26.001   0.425  11.113
 7655W        W74196  38.116  23.468   4.000
 7656W        W74197  12.093   8.999   2.209
 7657W        W74198  31.420  37.518  11.972
 7658W        W74199   7.796  44.228  14.952
 7659W        W74200  37.199  36.924  11.346
 7660W        W74201  30.900   2.205  14.335
 7661W        W74202  18.502   0.877  12.909
 7662W        W74203  32.149  36.907  11.096
 7663W        W74204  10.364  30.655   3.943
 7664W        W74205  42.859   7.483  11.951
 7665W        W74206  43.251   4.795  12.618
 7666W        W74207  44.935  41.603   3.537
 7667W        W74208   8.254  44.129  13.331
 7668W        W74209  29.825   5.363   4.122
 7669W        W74210  19.252  36.661   0.204
 7670W        W74211  17.167  44.495  14.862
 7671W        W74212  42.702  19.040  12.043
 7672W        W74213  39.471  22.087   2.112
 7673W        W74214  40.513  16.657   3.991
 7674W        W74215  13.047  36.074   2.022
 7675W        W74216  17.144   0.260  14.399
 7676W        W74217  29.040  11.774  11.581
 7677W        W74218   6.761  22.718   3.588
 7678W        W74219  16.680  35.936   1.252
 7679W        W74220   6.964   4.900   0.002
 7680W        W74221  35.625  21.194  13.054
 7681W        W74222  36.862  24.901  13.361
 7682W        W74223  18.281  39.390   1.291
 7683W        W74224  15.285  22.174   1.368
 7684W        W74225  28.735  28.382  14.984
 7685W        W74226  19.146  42.956  12.118
 7686W        W74227  21.137  42.822   2.737
 7687W        W74228  42.463  37.206   3.863
 7688W        W74229  37.103  14.228  10.505
 7689W        W74230   1.240  35.966  13.553
 7690W        W74231  12.638  18.033  12.902
 7691W        W74232  27.021  26.431  12.371
 7692W        W74233   2.328   1.447   2.541
 7693W        W74234  42.943   6.368  14.457
 7694W        W74235  25.568   4.242  14.794
 7695W        W74236   2.992  30.497   1.354
 7696W        W74237  29.669  44.792  10.862
 7697W        W74238  13.328   5.027  12.063
 7698W        W74239  14.877  27.209   2.413
 7699W        W74240  32.762  17.645  12.640
 7700W        W74241  16.698  33.612  14.952
 7701W        W74242   3.011  12.107   0.570
 7702W        W74243  34.785  12.190   3.831
 7703W        W74244   0.790   5.980   3.641
 7704W        W74245  37.940  18.185  14.729
 7705W        W74246  36.527   5.505   3.603
 7706W        W74247  19.735  24.260  12.916
 7707W        W74248  32.008   9.840   3.531
 7708W        W74249  41.965  22.785   3.883
 7709W        W74250  16.637  15.585  11.412
 7710W        W74251  41.266   9.276  11.262
 7711W        W74252  12.818  35.112   4.557
 7712W        W74253  15.974  20.081   2.681
 7713W        W74254  30.401  30.132   1.433
 7714W        W74255  34.927  17.161  11.928
 7715W        W74256  28.668   1.248   2.599
 7716W        W74257   3.249  24.436  13.034
 7717W        W74258  13.871  28.230  13.810
 7718W        W74259  30.569  37.091  14.668
 7719W        W74260  41.984  16.725  10.767
 7720W        W74261   6.928  41.400  14.299
 7721W        W74262   6.877  29.575   0.497
 7722W        W74263  13.197  33.717   1.426
 7723W        W74264  42.035  23.477  14.048
 7724W        W74265  32.069  14.622   2.196
 7725W        W74266   1.526  28.118  13.529
 7726W        W74267   8.763   9.302   4.052
 7727W        W74268  30.971  22.710  11.205
 7728W        W74269  41.045   0.443  14.819
 7729W        W74270  12.252  30.391   4.058
 7730W        W74271  37.382  44.988  14.771
 7731W        W74272   8.180  38.118   0.317
 7732W        W74273  20.200  12.441  11.043
 7733W        W74274  24.687  36.308  10.678
 7734W        W74275   0.024  41.238  11.571
 7735W        W74276  40.887  29.381  11.591
 7736W        W74277  32.365  30.116  13.637
 7737W        W74278   9.231  31.799  10.713
 7738W        W74279  11.198  27.905   0.926
 7739W        W74280  43.752   0.036  12.541
 7740W        W74281   4.742  19.119   4.268
 7741W        W74282   2.280  13.408  12.326
 7742W        W74283  43.297  42.714   3.196
 7743W        W74284  30.857  15.286   2.437
 7744W        W74285  35.068   0.440   3.090
 7745W        W74286   6.827  31.000  12.986
 7746W        W74287  43.955   7.378   2.131
 7747W        W74288  10.160  32.099   3.379
 7748W        W74289  44.747  33.180   0.258
 7749W        W74290  17.114  39.963   0.568
 7750W        W74291  31.924   3.796   4.571
 7751W        W74292  29.429  25.675  11.437
 7752W        W74293  13.090   1.124   4.141
 7753W        W74294  23.429   2.208   0.028
 7754W        W74295   6.444   7.856  11.453
 7755W        W74296  22.677  24.225   3.324
 7756W        W74297  17.559  23.119   0.550
 7757W        W74298  16.775  33.138  14.436
 7758W        W74299  32.648   0.837  13.421
 7759W        W74300  39.822  36.422   0.800
 7760W        W74301  29.142  13.175  14.464
 7761W        W74302  19.132  15.603  11.556
 7762W        W74303  11.702  19.343  10.831
 7763W        W74304  20.566   8.256  14.501
 7764W        W74305  29.732  27.075   4.608
 7765W        W74306  22.808  21.591   2.623
 7766W        W74307  42.762  37.675  14.408
 7767W        W74308  11.427  16.744  12.392
 7768W        W74309   0.886  14.777   4.126
 7769W        W74310  20.271  37.023   2.577
 7770W        W74311   1.084  24.232  11.433
 7771W        W74312   3.803  17.983   3.662
 7772W        W74313  41.827   6.192  12.776
 7773W        W74314  21.900  31.586  12.523
 7774W        W74315  34.427  39.567   1.737
 7775W        W74316  42.274  12.120  11.162
 7776W        W74317   4.947  25.213   2.158
 7777W        W74318  39.103  16.521  14.420
 7778W        W74319  18.439   7.767  11.012
 7779W        W74320  15.565   3.482  10.151
 7780W        W74321  39.156  37.765   4.140
 7781W        W74322  27.666  30.231   1.431
 7782W        W74323  40.054  15.981   9.798
 7783W        W74324  17.200   3.932  12.072
 7784W        W74325  21.090  38.103   1.749
 7785W        W74326  12.199  16.696   3.304
 7786W        W74327   8.204  32.152   3.224
 7787W        W74328  10.164  29.973  14.461
 7788W        W74329  17.287  15.067   0.718
 7789W        W74330  33.891  32.441   4.664
 7790W        W74331  20.061  24.063  14.735
 7791W        W74332  38.027  27.847  14.236
 7792W        W74333   9.658  42.710   4.213
 7793W        W74334  40.969  24.804   0.498
 7794W        W74335  11.267  19.450  11.857
 7795W        W74336  40.360  28.263  11.588
 7796W        W74337  16.795  23.284   3.325
 7797W        W74338  20.743   3.006   0.467
 7798W        W74339  20.269   0.930  10.568
 7799W        W74340  15.748  40.372  10.947
 7800W        W74341  36.938  16.293  14.338
 7801W        W74342   6.009  28.241  11.101
 7802W        W74343  15.571  20.404   1.953
 7803W        W74344  25.638  13.158   3.519
 7804W        W74345   1.970  38.288   4.170
 7805W        W74346  28.653  36.563  14.571
 7806W        W74347  29.540  27.583   1.161
 7807W        W74348   7.777  42.345   2.784
 7808W        W74349  29.952  10.260  13.491
 7809W        W74350  44.665  43.790  13.590
 7810W        W74351  42.561  20.237  10.576
 7811W        W74352  44.748  14.816  11.569
 7812W        W74353  14.779   8.876  12.383
 7813W        W74354  24.473  31.657   2.383
 7814W        W74355  32.652  29.051   4.171
 7815W        W74356   4.449  35.230  11.468
 7816W        W74357  18.200  23.224   2.683
 7817W        W74358  32.890  43.315  10.382
 7818W        W74359  18.550  44.686   0.822
 7819W        W74360  20.579  28.468  10.832
 7820W        W74361   1.308   2.289  10.328
 7821W        W74362  36.964  44.219  10.637
 7822W        W74363   9.344  41.483   5.038
 7823W        W74364   1.189  18.812  12.409
 7824W        W74365  19.474  10.903   1.772
 7825W        W74366  40.019  41.538   3.828
 7826W        W74367  44.679  22.726   3.118
 7827W        W74368  43.331  22.976   3.174
 7828W        W74369  18.806  29.246  11.889
 7829W        W74370   6.933  12.360  11.938
 7830W        W74371  27.359   7.877   1.857
 7831W        W74372  40.312   3.833  13.074
 7832W        W74373  23.182  30.422   2.390
 7833W        W74374   3.242  28.927  12.637
 7834W        W74375  41.284   8.655   3.776
 7835W        W74376  43.527  38.008   3.802
 7836W        W74377  17.792  15.847  11.424
 7837W        W74378  40.235  44.292  10.978
 7838W        W74379  28.573  32.289  12.018
 7839W        W74380  10.076  18.650  13.256
 7840W        W74381  43.543  34.681  13.092
 7841W        W74382  36.658  43.908   3.277
 7842W        W74383  32.615  20.314  14.870
 7843W        W74384  15.375  23.577   1.155
 7844W        W74385  16.910  31.167  11.532
 7845W        W74386  43.771  33.448   4.122
 7846W        W74387  27.262  13.815  10.895
 7847W        W74388  15.131  13.059  13.328
 7848W        W74389  21.241   5.235  12.606
 7849W        W74390  31.205  12.320   2.962
 7850W        W74391  24.977  35.473  10.448
 7851W        W74392  22.734  17.205  11.187
 7852W        W74393  26.275  19.497   4.121
 7853W        W74394   7.833  12.157   3.518
 7854W        W74395  43.338  22.464   3.399
 7855W        W74396  10.742  42.336   3.201
 7856W        W74397  44.920   5.413   2.021
 7857W        W74398  10.358  26.194   3.431
 7858W        W74399  40.131  16.084  12.611
 7859W        W74400   9.787   4.099   4.987
 7860W        W74401  28.463   1.313  13.463
 7861W        W74402  37.414  21.022  12.468
 7862W        W74403  20.703  41.489   4.211
 7863W        W74404  44.881  28.686  11.191
 7864W        W74405  20.161  28.406  14.958
 7865W        W74406   7.360  26.935   1.157
 7866W        W74407   1.095   5.870   0.402
 7867W        W74408  16.717   2.073   0.609
 7868W        W74409   3.739  37.495   0.895
 7869W        W74410  16.413  22.541   1.232
 7870W        W74411  17.733   7.340  10.700
 7871W        W74412  38.107   1.700  14.798
 7872W        W74413  14.839  34.461   1.239
 7873W        W74414   4.776  29.823  11.851
 7874W        W74415   5.893  31.695  11.961
 7875W        W74416   4.328  28.882  13.161
 7876W        W74417  23.629   2.651  12.024
 7877W        W74418  38.999  37.621   1.341
 7878W        W74419  29.654  13.772  13.362
 7879W        W74420  41.785  39.912  12.327
 7880W        W74421  11.146  22.581  11.605
 7881W        W74422   5.434  27.051  13.373
 7882W        W74423  11.587  37.068  10.775
 7883W        W74424  18.206  35.858  10.956
 7884W        W74425  14.197  12.329   2.550
 7885W        W74426  44.318  22.072  14.077
 7886W        W74427  36.116   2.496  13.905
 7887W        W74428  37.505   3.653   2.834
 7888W        W74429  23.984  13.626  12.033
 7889W        W74430  28.222  41.316   3.287
 7890W        W74431   6.165  29.780   1.280
 7891W        W74432  34.469  36.876  12.446
 7892W        W74433  14.092  22.097   4.415
 7893W        W74434  29.604  32.826   4.553
 7894W        W74435  44.018  44.034  12.638
 7895W        W74436  28.997  41.547  13.514
 7896W        W74437  37.773   7.623  12.005
 7897W        W74438  29.358  27.993   5.414
 7898W        W74439  15.330  24.632   0.823
 7899W        W74440  31.428  30.047  14.419
 7900W        W74441   9.706   4.911   2.235
 7901W        W74442  22.113   4.118  12.370
 7902W        W74443  32.453  28.727  13.989
 7903W        W74444   6.316  11.387   2.154
 7904W        W74445   5.165  22.684  12.936
 7905W        W74446  17.177  23.426  10.049
 7906W        W74447  16.261  21.720   3.228
 7907W        W74448  27.417   0.465  12.111
 7908W        W74449  10.601  28.061  14.321
 7909W        W74450   0.763  26.426   0.324
 7910W        W74451   6.009  36.455   1.719
 7911W        W74452  27.983  20.005   0.248
 7912W        W74453  27.395   6.735   1.414
 7913W        W74454  11.404   1.436   3.718
 7914W        W74455   5.819  30.687   3.749
 7915W        W74456  33.569   0.482   4.511
 7916W        W74457  26.674  33.164   0.077
 7917W        W74458  22.246  37.302   1.388
 7918W        W74459  40.341  24.730  11.520
 7919W        W74460   1.386  26.115  11.681
 7920W        W74461   1.518  26.870  11.371
 7921W        W74462   6.164  35.806   2.081
 7922W        W74463  38.096  36.615   1.337
 7923W        W74464  21.128  18.064   1.761
 7924W        W74465  41.932  15.192  10.757
 7925W        W74466  17.047  36.950  12.397
 7926W        W74467  32.056   7.911  14.626
 7927W        W74468  14.172  11.445   3.136
 7928W        W74469   0.869  26.124  14.889
 7929W        W74470  15.223  28.023  13.822
 7930W        W74471  19.553  36.331   3.317
 7931W        W74472  36.812  21.867  11.169
 7932W        W74473  41.601  25.135  10.120
 7933W        W74474  34.614  37.882   2.686
 7934W        W74475  14.289   2.875   1.246
 7935W        W74476  22.527  37.980  10.321
 7936W        W74477   2.549  24.251   1.312
 7937W        W74478  21.034  12.413   4.220
 7938W        W74479  38.872  30.671   1.771
 7939W        W74480  16.731  25.838   0.915
 7940W        W74481  30.143  17.077  11.375
 7941W        W74482  25.921  40.760  14.901
 7942W        W74483   4.942  15.589   1.434
 7943W        W74484   8.565  10.774  11.641
 7944W        W74485   5.110  36.413  14.339
 7945W        W74486  37.536  39.833   4.745
 7946W        W74487   2.891  23.418   3.732
 7947W        W74488  36.643   7.565   4.613
 7948W        W74489   4.325   6.775  12.357
 7949W        W74490   1.997  43.127  14.036
 7950W        W74491   5.181  25.102  13.478
 7951W        W74492  16.103  42.411   0.198
 7952W        W74493  29.077  19.031  10.436
 7953W        W74494  32.747  29.749   0.129
 7954W        W74495  19.795  27.369  13.475
 7955W        W74496  43.971  15.907   5.059
 7956W        W74497   9.858  30.570   1.680
 7957W        W74498  15.062   5.090  13.111
 7958W        W74499  39.434  39.686  13.509
 7959W        W74500  11.242  42.052  10.714
 7960W        W74501   2.352  25.600   0.497
 7961W        W74502  16.148  39.170   1.334
 7962W        W74503  32.507  35.210  13.516
 7963W        W74504  24.426  34.019   0.012
 7964W        W74505  29.539  42.830   2.412
 7965W        W74506  29.075  40.630   0.508
 7966W        W74507  36.524  25.563  12.416
 7967W        W74508  31.077  31.060   2.228
 7968W        W74509  29.082  35.090  12.902
 7969W        W74510   5.442  28.020  13.552
 7970W        W74511   6.704   8.875   1.301
 7971W        W74512  14.690  10.554   2.400
 7972W        W74513  33.236  22.900   3.222
 7973W        W74514  28.181  20.551   2.754
 7974W        W74515  27.227   9.950   3.212
 7975W        W74516  19.551   6.634   4.659
 7976W        W74517  21.682  21.540  11.609
 7977W        W74518  20.697  17.895  11.087
 7978W        W74519  25.532  21.288   2.814
 7979W        W74520  14.008  41.969   2.260
 7980W        W74521  23.792  14.197  13.036
 7981W        W74522  23.746  39.118   4.274
 7982W        W74523  15.642  30.521  11.428
 7983W        W74524   2.028  16.648   1.319
 7984W        W74525  15.030  12.763  14.696
 7985W        W74526  20.909  33.124  12.617
 7986W        W74527   6.147  24.950   2.697
 7987W        W74528  25.400  14.732  10.703
 7988W        W74529   7.945  16.661   0.252
 7989W        W74530   5.588  43.965   4.533
 7990W        W74531  21.163  23.463  13.397
 7991W        W74532   5.624  43.887  13.893
 7992W        W74533  24.207   6.761  12.569
 7993W        W74534  30.651   8.428   2.268
 7994W        W74535  15.666  26.802   0.884
 7995W        W74536  14.637  43.455   2.331
 7996W        W74537   5.417  33.954   3.652
 7997W        W74538  29.696   9.865   3.324
 7998W        W74539  41.412  24.599   1.887
 7999W        W74540  14.283  33.442   2.645
 8000W        W74541  36.856  38.210  11.629
 8001W        W74542  17.742  19.828   1.519
 8002W        W74543  29.705  15.367   1.329
 8003W        W74544  13.403   6.727  10.667
 8004W        W74545  22.254  15.309   4.213
 8005W        W74546  23.096   5.322  13.525
 8006W        W74547  30.165   7.322   1.775
 8007W        W74548  16.105  41.423   3.176
 8008W        W74549  15.274  31.052   3.700
 8009W        W74550  44.079  30.111  13.105
 8010W        W74551  24.485  44.623  14.777
 8011W        W74552  28.255   5.683   1.183
 8012W        W74553  26.571  44.320   0.457
 8013W        W74554  37.538  25.258  10.366
 8014W        W74555  19.569  34.997  12.937
 8015W        W74556  29.448   8.712   5.047
 8016W        W74557  28.085  37.076   1.398
 8017W        W74558  37.635  38.318  14.503
 8018W        W74559  26.147  33.848   1.426
 8019W        W74560   4.778  26.298   4.829
 8020W        W74561  38.383   8.946   2.328
 8021W        W74562  36.666  12.290   3.621
 8022W        W74563  33.446  28.635   3.434
 8023W        W74564  15.237  14.253   0.315
 8024W        W74565  31.374  15.500  14.698
 8025W        W74566  13.665  24.263   0.430
 8026W        W74567   4.798  32.088   2.458
 8027W        W74568  11.948  20.269   3.226
 8028W        W74569  30.202  11.560  13.013
 8029W        W74570  23.093  32.500   3.269
 8030W        W74571   3.346  20.056  13.937
 8031W        W74572  31.898  37.950   3.696
 8032W        W74573  17.866   5.475   0.354
 8033W        W74574  25.092  31.656   1.328
 8034W        W74575  20.242   9.178   2.896
 8035W        W74576   9.024  25.253  13.840
 8036W        W74577  13.378  16.762  12.127
 8037W        W74578  41.951   6.466  14.319
 8038W        W74579   5.738  32.562   2.231
 8039W        W74580   6.267   4.588   4.108
 8040W        W74581  17.850   5.653   4.549
 8041W        W74582  18.316  11.609  10.705
 8042W        W74583  38.609  23.698  11.179
 8043W        W74584  31.440   1.319   0.846
 8044W        W74585  40.518  24.204   0.897
 8045W        W74586  18.296  13.499   9.861
 8046W        W74587  16.961  27.189   1.659
 8047W        W74588  33.381   9.924   3.874
 8048W        W74589  18.598  28.597  13.752
 8049W        W74590  24.698   2.901   3.532
 8050W        W74591  38.327  32.378  14.017
 8051W        W74592  22.498  27.367  11.622
 8052W        W74593  27.882  19.679  13.754
 8053W        W74594  21.252   7.778  11.219
 8054W        W74595  44.469  41.369  13.502
 8055W        W74596  19.437  42.317   2.295
 8056W        W74597  21.331   0.968   1.537
 8057W        W74598  30.552  37.233   2.147
 8058W        W74599  13.878   3.603   3.114
 8059W        W74600  37.084   5.420   1.034
 8060W        W74601  32.895   1.498  14.405
 8061W        W74602  31.183  21.266  10.945
 8062W        W74603   9.907  17.926  12.046
 8063W        W74604  44.398  16.277   4.170
 8064W        W74605  10.357  25.749  11.205
 8065W        W74606   1.741  18.015   4.474
 8066W        W74607   0.706  11.315   4.735
 8067W        W74608  44.673  37.425  10.381
 8068W        W74609  33.754   1.118  12.399
 8069W        W74610  29.992  34.084  11.587
 8070W        W74611  36.010  36.577   0.840
 8071W        W74612  29.476  13.203  14.059
 8072W        W74613  20.483  22.073   3.218
 8073W        W74614  44.572  38.623   1.008
 8074W        W74615   6.299  24.466  10.453
 8075W        W74616   2.260  43.365   3.129
 8076W        W74617  25.754  22.251  13.303
 8077W        W74618   4.153  19.696  12.433
 8078W        W74619  14.649  24.824   1.153
 8079W        W74620  15.287   1.263  11.890
 8080W        W74621  22.713  19.633   3.140
 8081W        W74622  23.691  42.427  12.404
 8082W        W74623  23.618  26.352  14.748
 8083W        W74624  10.415   7.732   2.745
 8084W        W74625  33.888  36.316  14.449
 8085W        W74626  20.186  40.338   1.221
 8086W        W74627  29.977  41.483   3.579
 8087W        W74628  11.423  10.410  10.315
 8088W        W74629   0.933  31.843   1.258
 8089W        W74630  41.780  10.856   4.785
 8090W        W74631  26.798  21.083   2.694
 8091W        W74632  36.119   0.560   4.484
 8092W        W74633   4.303  38.464   3.127
 8093W        W74634  32.891  39.479  11.241
 8094W        W74635  27.504  34.699   2.373
 8095W        W74636  44.141  41.717  13.266
 8096W        W74637  15.860  38.581  10.939
 8097W        W74638  20.545  34.408  12.519
 8098W        W74639  24.983  16.133  11.435
 8099W        W74640  15.090  37.196  14.712
 8100W        W74641  17.021  38.862   1.230
 8101W        W74642   1.723   1.731  11.061
 8102W        W74643  31.814   5.732  12.191
 8103W        W74644   2.773  39.325   3.979
 8104W        W74645  16.887  38.578   2.371
 8105W        W74646  23.548   7.490  12.092
 8106W        W74647   3.852  33.507   0.837
 8107W        W74648  28.869   2.471  13.841
 8108W        W74649  13.592   4.056   0.515
 8109W        W74650  23.545  12.328  11.615
 8110W        W74651  31.646  11.636   1.809
 8111W        W74652  38.381  15.256  13.985
 8112W        W74653  11.798  10.162  10.739
 8113W        W74654   2.264  38.024  12.253
 8114W        W74655  30.512  28.692   4.290
 8115W        W74656   7.700  43.266   2.337
 8116W        W74657  11.386   5.550  14.033
 8117W        W74658  24.065  36.953   2.256
 8118W        W74659  11.883  23.382   4.025
 8119W        W74660  42.279  12.921  11.993
 8120W        W74661  31.596   7.389   4.236
 8121W        W74662   1.553  28.679   9.868
 8122W        W74663   9.230   2.215  13.495
 8123W        W74664  19.552  11.568   3.275
 8124W        W74665  17.784  40.280   2.728
 8125W        W74666  31.601  10.844  10.607
 8126W        W74667  35.821  34.000  11.693
 8127W        W74668  40.112   5.535  13.500
 8128W        W74669   8.079   4.238   2.879
 8129W        W74670  30.117  32.131   4.303
 8130W        W74671  12.614  18.249  12.049
 8131W        W74672  34.392   4.789  13.388
 8132W        W74673  41.122  32.330  12.020
 8133W        W74674  13.195  18.801  11.506
 8134W        W74675   4.418  35.893   4.259
 8135W        W74676  18.309  30.369   1.408
 8136W        W74677  40.275   0.938  14.874
 8137W        W74678   2.399  35.240  11.629
 8138W        W74679  17.523  20.707  14.891
 8139W        W74680   7.600  31.025  11.161
 8140W        W74681  40.500  13.222  10.792
 8141W        W74682  14.160  10.208   4.515
 8142W        W74683  30.616  14.899   9.915
 8143W        W74684  42.379   2.525  11.417
 8144W        W74685  35.826   4.938   0.835
 8145W        W74686  32.522  25.642  11.551
 8146W        W74687  34.385   0.509   1.687
 8147W        W74688  18.807  43.869   1.093
 8148W        W74689   6.263   2.904   5.446
 8149W        W74690   9.199  43.473  11.690
 8150W        W74691  18.783  41.261   4.433
 8151W        W74692   0.496  28.402  12.012
 8152W        W74693  41.568  18.003  14.903
 8153W        W74694  32.507  21.683  11.632
 8154W        W74695  11.954  12.681  11.635
 8155W        W74696  10.399  20.515   3.390
 8156W        W74697  18.643   7.889  10.539
 8157W        W74698  17.888  20.914  12.905
 8158W        W74699  28.608  15.097  14.046
 8159W        W74700  38.975  38.970  10.629
 8160W        W74701  36.804  30.105   4.621
 8161W        W74702  24.481  35.014   2.434
 8162W        W74703  35.365  30.048   2.171
 8163W        W74704   9.313  35.950  12.653
 8164W        W74705  30.105  15.687  11.571
 8165W        W74706  30.421  24.581   2.839
 8166W        W74707   9.439   2.493   1.593
 8167W        W74708  37.484  14.787   0.366
 8168W        W74709  34.158  30.172   1.597
 8169W        W74710  23.192   7.584  10.217
 8170W        W74711  32.365  40.402   0.244
 8171W        W74712  17.120   4.020  14.689
 8172W        W74713  13.661   1.634   2.066
 8173W        W74714  21.996   7.618   4.166
 8174W        W74715  41.966   3.867   0.464
 8175W        W74716   7.067  37.472   5.029
 8176W        W74717  40.752  23.532  14.049
 8177W        W74718  13.984  33.775   1.956
 8178W        W74719  15.465  24.595  14.878
 8179W        W74720  15.802   0.303  14.728
 8180W        W74721  26.289  37.788  12.007
 8181W        W74722   4.932  35.669   4.209
 8182W        W74723  44.608  17.814  14.895
 8183W        W74724  19.618  27.757  12.114
 8184W        W74725  12.725   7.955  14.400
 8185W        W74726  41.307  37.550  10.750
 8186W        W74727  40.956  31.952  14.862
 8187W        W74728   3.047  25.347   2.384
 8188W        W74729  21.402  32.600   1.191
 8189W        W74730  32.189  19.076  14.971
 8190W        W74731   3.672  40.502   4.502
 8191W        W74732  22.631   5.832   1.454
 8192W        W74733  22.071  42.265  14.320
 8193W        W74734   8.051  33.088   2.786
 8194W        W74735   8.959  37.287   4.284
 8195W        W74736  38.026  37.531  13.928
 8196W        W74737  23.910  17.520   4.715
 8197W        W74738  27.210  25.542  11.697
 8198W        W74739  25.883   0.910   3.932
 8199W        W74740  30.790  10.731   1.899
 8200W        W74741  41.285  29.489   3.420
 8201W        W74742  21.105  15.948   4.029
 8202W        W74743   5.377   0.485   0.727
 8203W        W74744  44.187  41.047   3.322
 8204W        W74745  14.316  42.930  14.123
 8205W        W74746  36.168  25.992   1.981
 8206W        W74747   2.760   5.445  12.772
 8207W        W74748  25.606   6.928  11.048
 8208W        W74749  11.555  10.656   4.834
 8209W        W74750  26.112  17.568   2.259
 8210W        W74751  29.830  27.719  11.980
 8211W        W74752  30.448  42.756   2.550
 8212W        W74753   0.732  37.612   1.840
 8213W        W74754  15.131  28.780   0.137
 8214W        W74755  16.355   1.349  13.375
 8215W        W74756   0.243  21.098  14.446
 8216W        W74757  44.075  43.257  13.021
 8217W        W74758  36.991  30.089  12.460
 8218W        W74759  28.473  32.200   3.711
 8219W        W74760   5.186   1.315  13.025
 8220W        W74761  42.403  21.465  14.351
 8221W        W74762  32.888  24.065   1.375
 8222W        W74763  19.753  43.890  11.127
 8223W        W74764  12.641  17.230   1.160
 8224W        W74765  12.774  41.118  11.957
 8225W        W74766  23.491  12.718   4.037
 8226W        W74767  10.387  41.499   1.409
 8227W        W74768   5.548  30.473  10.702
 8228W        W74769  37.873  10.441   0.058
 8229W        W74770  42.039  28.149   1.826
 8230W        W74771  16.262  15.817   2.645
 8231W        W74772  32.905   9.961   3.593
 8232W        W74773  31.680  29.215   0.937
 8233W        W74774   8.325  40.828  11.189
 8234W        W74775   9.923  14.082  12.554
 8235W        W74776  21.842   8.855   1.992
 8236W        W74777  26.884  29.924   4.208
 8237W        W74778   8.030   4.221  14.269
 8238W        W74779  30.968   5.761  14.017
 8239W        W74780  30.112   8.315  12.963
 8240W        W74781  41.201  20.276  12.891
 8241W        W74782  22.018  44.910  14.000
 8242W        W74783  21.158  27.818   3.250
 8243W        W74784  35.357  19.816   3.752
 8244W        W74785  38.361  42.495   4.127
 8245W        W74786  34.195  18.631   3.286
 8246W        W74787  14.615  26.187  10.451
 8247W        W74788   3.697   7.299   4.493
 8248W        W74789  19.422   9.636  10.738
 8249W        W74790  15.296  23.187  14.754
 8250W        W74791  31.181  35.776   1.668
 8251W        W74792  43.975  11.061   3.826
 8252W        W74793  23.545  35.960  13.845
 8253W        W74794  12.279  43.391   2.699
 8254W        W74795  24.521  10.115   0.805
 8255W        W74796  42.407  39.577   0.205
 8256W        W74797  34.771  28.475   4.018
 8257W        W74798  23.608   0.773  13.461
 8258W        W74799  34.605  31.450   3.766
 8259W        W74800  28.038   8.836   2.775
 8260W        W74801  21.566  24.385   1.392
 8261W        W74802  33.585  21.300   4.067
 8262W        W74803  28.173  39.890   2.341
 8263W        W74804  34.110  17.811  14.927
 8264W        W74805  43.762  27.465   4.151
 8265W        W74806  10.815  29.114   4.344
 8266W        W74807  36.289  34.879  13.888
 8267W        W74808  35.426  26.496   2.296
 8268W        W74809  29.913  20.968  14.817
 8269W        W74810  40.440  22.621   1.791
 8270W        W74811  19.126  14.394   3.708
 8271W        W74812  34.891  38.823   1.197
 8272W        W74813  21.150  43.822   3.488
 8273W        W74814  32.680  28.122   3.242
 8274W        W74815  18.386   7.391   4.571
 8275W        W74816  23.212   7.873   1.430
 8276W        W74817  29.536  30.397  13.827
 8277W        W74818  15.003  39.916  10.770
 8278W        W74819  13.342  21.496  10.525
 8279W        W74820  22.637  23.042  14.307
 8280W        W74821  36.571  44.966   1.315
 8281W        W74822  42.097  27.107  11.562
 8282W        W74823  32.107  22.422   1.465
 8283W        W74824   0.863  41.435   4.491
 8284W        W74825  24.644  24.026   1.803
 8285W        W74826  40.030  41.298   4.861
 8286W        W74827  35.415  30.178   1.650
 8287W        W74828  31.523  39.192  14.772
 8288W        W74829  10.137  18.316   1.372
 8289W        W74830  18.876  18.072   2.697
 8290W        W74831   9.605  41.409   4.546
 8291W        W74832  23.448  21.377   4.624
 8292W        W74833  32.903  40.813   4.154
 8293W        W74834  42.053   2.490   1.811
 8294W        W74835   1.462  32.542  13.425
 8295W        W74836   9.143  38.161   0.733
 8296W        W74837  13.501  35.344  10.950
 8297W        W74838  37.578  41.799  10.604
 8298W        W74839  37.971  16.120   2.250
 8299W        W74840  13.392  23.513  13.549
 8300W        W74841  16.359  34.078  12.472
 8301W        W74842  31.306  22.188  12.850
 8302W        W74843  26.991  18.569  14.755
 8303W        W74844  36.374   7.852  13.019
 8304W        W74845  37.157  32.949  13.510
 8305W        W74846  39.963  34.160  14.609
 8306W        W74847  19.667  33.002  13.022
 8307W        W74848   4.755  11.316  14.998
 8308W        W74849  21.710  14.176   0.006
 8309W        W74850  35.501  41.985   3.395
 8310W        W74851  42.254  24.120  14.317
 8311W        W74852   9.176   9.392   3.377
 8312W        W74853   6.805  30.848  11.626
 8313W        W74854  25.641  42.320  11.106
 8314W        W74855  40.674   5.542   1.781
 8315W        W74856  39.448  37.804   4.574
 8316W        W74857  44.280  32.344   3.693
 8317W        W74858   6.292  23.247  14.190
 8318W        W74859  39.171  19.847  11.576
 8319W        W74860   7.666  35.152  13.390
 8320W        W74861  28.544  32.990  10.608
 8321W        W74862   7.687  43.739   4.427
 8322W        W74863  25.552  43.849   2.674
 8323W        W74864  24.220  35.703  12.118
 8324W        W74865  40.019  19.581  11.151
 8325W        W74866  27.243   5.425  13.593
 8326W        W74867  26.602   1.242   3.179
 8327W        W74868  18.998  29.199   1.997
 8328W        W74869  24.043  34.607  12.944
 8329W        W74870   7.248   8.135  11.134
 8330W        W74871  40.363  42.537  12.076
 8331W        W74872  23.746  29.102  14.960
 8332W        W74873  29.606  11.271   0.739
 8333W        W74874  24.473  11.780  12.838
 8334W        W74875  23.560  40.621   0.846
 8335W        W74876  41.217  12.432  14.961
 8336W        W74877  22.471  32.963  10.619
 8337W        W74878  32.581  13.809   0.471
 8338W        W74879  27.415   2.792   1.234
 8339W        W74880   7.764  25.509   1.611
 8340W        W74881  30.380   3.171   1.903
 8341W        W74882  43.973  13.177   1.592
 8342W        W74883  28.903  10.096  13.424
 8343W        W74884   4.450   0.388  11.664
 8344W        W74885  10.973  39.502   9.853
 8345W        W74886   7.430  12.929   0.804
 8346W        W74887  20.656  14.380   0.950
 8347W        W74888  42.908  37.057  12.679
 8348W        W74889  18.231   1.284  11.177
 8349W        W74890  11.342  28.746  11.923
 8350W        W74891  23.659  29.120  11.122
 8351W        W74892   9.722   3.184  10.998
 8352W        W74893  38.003  33.781   2.627
 8353W        W74894  34.382  42.565  11.594
 8354W        W74895  44.387  38.446  13.793
 8355W        W74896  23.883   6.648   1.231
 8356W        W74897  32.927  28.190  12.103
 8357W        W74898  11.202  37.361   0.474
 8358W        W74899  43.450  37.570  13.733
 8359W        W74900  17.603  25.377   2.623
 8360W        W74901  25.043   8.807   4.628
 8361W        W74902  41.871  25.546  14.308
 8362W        W74903  14.265  14.551   4.729
 8363W        W74904   8.192   8.822  11.094
 8364W        W74905   8.774  26.620   2.686
 8365W        W74906  24.474  21.766   4.237
 8366W        W74907  38.795  42.970  11.188
 8367W        W74908  22.966   2.532   2.835
 8368W        W74909   8.585   0.404   3.310
 8369W        W74910   9.361  40.318   3.298
 8370W        W74911  12.834  42.404  13.528
 8371W        W74912   7.989  37.034  13.259
 8372W        W74913  29.717  11.201   2.841
 8373W        W74914  44.451   2.416   0.222
 8374W        W74915  24.515  29.941   1.667
 8375W        W74916   7.934  11.794   2.820
 8376W        W74917  16.030  11.969   0.847
 8377W        W74918  14.618  10.815  12.374
 8378W        W74919  39.432  13.143   2.893
 8379W        W74920   3.886  42.204   4.110
 8380W        W74921  34.246   5.501   2.353
 8381W        W74922  30.073  43.980   2.193
 8382W        W74923   0.461  18.065   3.314
 8383W        W74924   9.087  43.786  14.838
 8384W        W74925   8.231  17.567   1.790
 8385W        W74926  21.544  44.298   2.646
 8386W        W74927   4.833   7.260   0.565
 8387W        W74928  27.923  42.343   4.312
 8388W        W74929   3.911  43.626   9.632
 8389W        W74930  26.037  20.034   2.270
 8390W        W74931  29.011   5.499  12.074
 8391W        W74932   5.151   4.661  13.093
 8392W        W74933   4.262  22.247   3.009
 8393W        W74934  38.156  27.970  13.442
 8394W        W74935  19.259  34.569   1.128
 8395W        W74936  40.382  13.662   2.706
 8396W        W74937  43.222  27.251   4.186
 8397W        W74938  33.960  27.904   1.515
 8398W        W74939  25.606  41.068   4.193
 8399W        W74940  21.577   3.313  14.554
 8400W        W74941  34.145  41.052   4.513
 8401W        W74942  25.408  13.585   3.278
 8402W        W74943  30.501  42.084   3.269
 8403W        W74944  38.755  19.629   4.923
 8404W        W74945  16.009  35.110  14.932
 8405W        W74946  39.252  20.604  10.238
 8406W        W74947  32.053  23.759   3.106
 8407W        W74948   3.819  35.337   4.507
 8408W        W74949  27.498  27.369   2.254
 8409W        W74950  40.293  21.354   3.289
 8410W        W74951  30.184  13.687  12.711
 8411W        W74952   9.403  14.263   1.653
 8412W        W74953  22.129  24.031  11.572
 8413W        W74954  19.642  43.004   3.796
 8414W        W74955  11.429   3.645   1.432
 8415W        W74956  10.262  27.497  13.873
 8416W        W74957  23.824   2.227  11.834
 8417W        W74958  34.984   1.422  10.230
 8418W        W74959   6.893   5.150  12.278
 8419W        W74960  12.616  29.735   1.081
 8420W        W74961  40.156  20.989   1.442
 8421W        W74962  26.408  27.769  13.526
 8422W        W74963  23.290  41.456  13.780
 8423W        W74964  15.711  36.125   0.245
 8424W        W74965  24.750   1.292  12.890
 8425W        W74966   3.934  44.522  13.924
 8426W        W74967  26.205  17.142  11.184
 8427W        W74968   3.543  18.628  12.111
 8428W        W74969   8.785  44.741   0.768
 8429W        W74970  24.539  14.605  14.542
 8430W        W74971  12.802   5.905  12.140
 8431W        W74972  23.784  31.210  14.336
 8432W        W74973  18.531  14.829  13.816
 8433W        W74974  27.400  35.312  13.968
 8434W        W74975   7.592  36.559  12.451
 8435W        W74976  32.443  11.403   0.112
 8436W        W74977   3.041  36.672  14.070
 8437W        W74978  21.677  33.626  10.660
 8438W        W74979  40.446  14.766   1.242
 8439W        W74980  11.728   1.927   0.864
 8440W        W74981  18.643  39.083   2.652
 8441W        W74982  28.692   8.251   3.045
 8442W        W74983  44.556  26.605  10.692
 8443W        W74984   3.896  39.398  13.879
 8444W        W74985  12.407  42.475   1.407
 8445W        W74986  11.904  25.539  14.838
 8446W        W74987  24.170   2.270   0.550
 8447W        W74988  43.250  28.650  12.047
 8448W        W74989  28.618  24.555   1.473
 8449W        W74990  23.262  26.592   2.894
 8450W        W74991  12.452  29.583  11.775
 8451W        W74992  17.357   5.855  14.325
 8452W        W74993   9.108  30.542  11.668
 8453W        W74994  14.800  43.091  13.001
 8454W        W74995  20.575  13.659  14.350
 8455W        W74996  37.904  38.412  13.484
 8456W        W74997  36.298  17.121  10.325
 8457W        W74998   3.851  33.744   0.364
 8458W        W74999  14.804   8.948   3.563
 8459W        W75000   2.788  40.127   1.385
 8460W        W75001  16.605   1.510  14.260
 8461W        W75002  11.303  11.408  14.958
 8462W        W75003  31.461  32.827   2.717
 8463W        W75004  21.386   3.026  14.020
 8464W        W75005  39.833  36.429  11.679
 8465W        W75006  10.632   5.939   0.670
 8466W        W75007  39.311  20.337   2.753
 8467W        W75008  28.027  27.524  14.297
 8468W        W75009  24.626  38.045   1.746
 8469W        W75010  34.477  34.262  13.038
 8470W        W75011  40.550  21.022  11.499
 8471W        W75012  17.708   8.407   2.257
 8472W        W75013   3.703   9.397   1.377
 8473W        W75014  44.013   3.780  10.836
 8474W        W75015  25.763  35.385  11.580
 8475W        W75016  33.242  10.067  14.509
 8476W        W75017  27.563  33.766   0.385
 8477W        W75018  36.090  23.711   1.298
 8478W        W75019  42.968  16.999   0.660
 8479W        W75020  27.006  40.911  14.808
 8480W        W75021  28.514  24.668   1.963
 8481W        W75022   0.829  41.338  13.333
 8482W        W75023  38.448  17.481  11.433
 8483W        W75024  36.800  27.144  13.033
 8484W        W75025  26.288  36.295  14.493
 8485W        W75026  43.830   8.615  10.664
 8486W        W75027  28.678  18.998   2.383
 8487W        W75028  30.512  44.183   2.713
 8488W        W75029  22.619  38.640   0.023
 8489W        W75030  15.261   6.856   0.428
 8490W        W75031  10.566   9.089   4.600
 8491W        W75032  22.790   3.864   4.543
 8492W        W75033  38.774  33.941  13.511
 8493W        W75034  26.038   9.931  10.426
 8494W        W75035   7.435   7.669  11.114
 8495W        W75036  17.199  23.494   1.781
 8496W        W75037  11.647  17.768   4.367
 8497W        W75038  16.342  42.021  11.603
 8498W        W75039   8.807  25.737  11.034
 8499W        W75040  23.937  29.840   0.920
 8500W        W75041   6.531  24.614  10.911
 8501W        W75042  24.002  39.673  14.252
 8502W        W75043  25.545  35.134   2.437
 8503W        W75044   1.118   8.247  11.219
 8504W        W75045  16.781  41.496  11.976
 8505W        W75046   9.646  12.044   2.734
 8506W        W75047  20.783  13.678  14.821
 8507W        W75048   5.274   7.618  14.944
 8508W        W75049   1.808  35.174   1.778
 8509W        W75050   1.866  38.508   1.414
 8510W        W75051  22.118  20.487   0.837
 8511W        W75052  39.191  39.236  11.998
 8512W        W75053  31.134   4.058  10.742
 8513W        W75054  41.818   2.132  14.331
 8514W        W75055  27.236  25.168   2.075
 8515W        W75056  24.259   9.583  14.296
 8516W        W75057   0.828  23.106  14.504
 8517W        W75058  35.649  36.711  11.152
 8518W        W75059   4.378  39.474   3.318
 8519W        W75060  32.937  28.466   3.574
 8520W        W75061  13.513  11.524  11.383
 8521W        W75062  12.400  16.971   4.199
 8522W        W75063  26.925   3.467   2.481
 8523W        W75064  12.232  15.279   4.674
 8524W        W75065   9.436  41.529   3.372
 8525W        W75066  16.116   6.961   0.905
 8526W        W75067  31.410  18.287   4.450
 8527W        W75068  12.882  33.001  14.496
 8528W        W75069  27.663   4.817   1.280
 8529W        W75070   0.752   7.937   4.071
 8530W        W75071  44.527  41.415  14.995
 8531W        W75072   7.856   9.274   1.772
 8532W        W75073  18.976  17.634  14.978
 8533W        W75074   2.839  33.919   0.438
 8534W        W75075  17.585  12.208  10.621
 8535W        W75076  19.264  43.351   3.799
 8536W        W75077  12.166  18.588   2.383
 8537W        W75078  12.567  29.978   3.584
 8538W        W75079  29.216   9.555  12.053
 8539W        W75080  21.206  15.832  13.460
 8540W        W75081  15.337  37.137  12.980
 8541W        W75082   3.910  35.149  11.474
 8542W        W75083  10.434  18.384   0.962
 8543W        W75084  26.074  43.837   1.702
 8544W        W75085  23.631  36.546   3.649
 8545W        W75086  26.772   8.705   0.759
 8546W        W75087  43.457  44.616  12.683
 8547W        W75088  35.788   3.483   2.267
 8548W        W75089   5.024  27.892  12.418
 8549W        W75090  38.065  38.609  14.682
 8550W        W75091  42.456  13.370  10.707
 8551W        W75092   3.669  21.997  12.729
 8552W        W75093  24.518   1.575   3.134
 8553W        W75094  32.836   7.131  12.930
 8554W        W75095   0.349  24.778   1.798
 8555W        W75096  15.068   5.727  11.406
 8556W        W75097  44.443  13.050  10.246
 8557W        W75098  27.942  40.276   3.713
 8558W        W75099  34.230   6.688   3.337
 8559W        W75100  31.916  30.589   3.626
 8560W        W75101  41.958   9.666   3.788
 8561W        W75102  37.327  13.563   3.710
 8562W        W75103  38.036   5.639   2.785
 8563W        W75104   7.780  21.655  14.866
 8564W        W75105  14.338  21.886   1.347
 8565W        W75106  19.197  17.251   3.351
 8566W        W75107  21.727  15.862  11.118
 8567W        W75108  19.125  22.032  14.113
 8568W        W75109  42.350  38.045  14.395
 8569W        W75110  23.795   6.340  14.084
 8570W        W75111  37.891   4.256  13.498
 8571W        W75112   5.379   5.370  12.747
 8572W        W75113  23.001  36.213   4.149
 8573W        W75114  33.942   8.620  14.923
 8574W        W75115   0.325  15.188  14.028
 8575W        W75116  20.694  17.552   3.292
 8576W        W75117  20.286  23.563  12.372
 8577W        W75118  17.122  44.404  12.535
 8578W        W75119  11.697  26.156   2.124
 8579W        W75120  17.007  39.532   4.877
 8580W        W75121  30.038  15.197   2.713
 8581W        W75122  18.116   9.717   0.743
 8582W        W75123  42.045   3.393  13.584
 8583W        W75124  37.439   7.061   1.144
 8584W        W75125  18.198  15.999   2.204
 8585W        W75126   8.406  34.133   2.587
 8586W        W75127  38.073  26.473   3.132
 8587W        W75128  27.600  15.649   4.643
 8588W        W75129  13.097  29.302   4.170
 8589W        W75130   5.278   1.019   1.506
 8590W        W75131   4.014   9.544  10.625
 8591W        W75132  36.745  43.401  11.833
 8592W        W75133  20.167  44.897  12.029
 8593W        W75134   8.110  22.822   0.190
 8594W        W75135  42.510  21.392  11.090
 8595W        W75136  18.049  12.070   0.402
 8596W        W75137  10.724  28.660  13.039
 8597W        W75138  12.001   1.996   1.297
 8598W        W75139   2.450  15.210   0.261
 8599W        W75140   8.966  33.199   4.082
 8600W        W75141  38.980  20.474  13.565
 8601W        W75142  13.790  12.905  12.441
 8602W        W75143  37.903  39.272  14.607
 8603W        W75144  25.039  13.920  14.734
 8604W        W75145  12.378  25.316  10.865
 8605W        W75146   4.345  26.182  12.168
 8606W        W75147  27.561  33.638  13.516
 8607W        W75148   6.868  32.345   3.307
 8608W        W75149  15.756  36.237  10.294
 8609W        W75150  19.054  34.804  13.822
 8610W        W75151  37.132   1.747   0.989
 8611W        W75152   0.214  32.089  14.088
 8612W        W75153  34.346  20.239  13.511
 8613W        W75154   7.170  23.158   1.915
 8614W        W75155  37.969  30.673  12.681
 8615W        W75156  33.545  30.086  14.764
 8616W        W75157   6.860   8.737   5.156
 8617W        W75158   7.418  22.576  14.352
 8618W        W75159  28.664  29.647  13.631
 8619W        W75160  28.415  36.536   3.624
 8620W        W75161  17.813   2.245  11.868
 8621W        W75162   9.386  43.901  13.832
 8622W        W75163   3.946  30.197  12.311
 8623W        W75164  30.759  22.616  12.603
 8624W        W75165  10.943  36.088  11.127
 8625W        W75166   7.113  36.812   3.040
 8626W        W75167  22.148  19.089  14.773
 8627W        W75168  37.969   6.243   1.309
 8628W        W75169  26.152   1.552  13.354
 8629W        W75170   0.742  30.083   4.354
 8630W        W75171  25.107   5.884   0.828
 8631W        W75172  21.087  39.562   2.271
 8632W        W75173  35.553  28.489  13.855
 8633W        W75174  29.691  19.656   3.099
 8634W        W75175  39.920   9.717  12.558
 8635W        W75176  32.570  18.318   4.805
 8636W        W75177  24.540  18.242   3.348
 8637W        W75178  18.777  42.738   1.020
 8638W        W75179  35.522  14.040   3.226
 8639W        W75180  33.690  16.580  11.158
 8640W        W75181   3.993  36.973  13.686
 8641W        W75182  43.800  13.386  13.048
 8642W        W75183   0.377   0.366   0.224
 8643W        W75184  38.451  27.681   2.869
 8644W        W75185  26.981  33.189   4.604
 8645W        W75186   7.319  31.851   3.685
 8646W        W75187   4.638  27.615  12.654
 8647W        W75188   4.666  20.375   1.604
 8648W        W75189   4.989  41.161   1.974
 8649W        W75190  15.773   5.208  12.673
 8650W        W75191  42.404  15.309   1.627
 8651W        W75192  25.933  38.159   0.374
 8652W        W75193  15.224  26.654  13.053
 8653W        W75194  38.609   1.001   0.837
 8654W        W75195  31.181   6.299  11.954
 8655W        W75196  14.205  19.992  14.143
 8656W        W75197  40.974  39.057   0.881
 8657W        W75198   3.024  29.031   0.568
 8658W        W75199   7.032  33.479  11.729
 8659W        W75200  37.746  41.491   4.993
 8660W        W75201  16.170  43.423  14.778
 8661W        W75202  32.662  29.090   0.748
 8662W        W75203   6.247  37.370   4.100
 8663W        W75204  38.941   7.609   2.229
 8664W        W75205  35.798  28.693  14.454
 8665W        W75206   1.751  29.421   1.427
 8666W        W75207   4.223  30.949  14.715
 8667W        W75208  23.094  38.424  12.988
 8668W        W75209  43.417  10.777   1.845
 8669W        W75210   0.437  42.135  11.557
 8670W        W75211   0.577  25.934   0.291
 8671W        W75212  36.570   5.700  14.212
 8672W        W75213  12.651  16.114  13.510
 8673W        W75214  35.468   5.356   1.146
 8674W        W75215  27.650  30.963   2.115
 8675W        W75216   7.257   9.471   0.024
 8676W        W75217   9.925  18.088   9.940
 8677W        W75218   6.424  21.326  14.883
 8678W        W75219  27.471  29.628  14.534
 8679W        W75220  43.993  30.598  13.272
 8680W        W75221  32.106  16.135   0.890
 8681W        W75222  21.664  23.450   0.397
 8682W        W75223  12.599  37.899   2.721
 8683W        W75224  34.531  16.961  10.682
 8684W        W75225  41.505  14.151   3.135
 8685W        W75226  16.176  20.320  13.490
 8686W        W75227  27.861   1.964  13.042
 8687W        W75228  16.032  19.000   1.935
 8688W        W75229  18.770   7.457  10.772
 8689W        W75230  15.898  16.255   4.439
 8690W        W75231   4.233  11.802  10.374
 8691W        W75232  20.822  24.567  13.145
 8692W        W75233   5.923  17.720   4.988
 8693W        W75234   8.780  24.042  11.253
 8694W        W75235  35.020   9.560  14.413
 8695W        W75236  21.512  24.906  10.743
 8696W        W75237  34.490  26.366   0.156
 8697W        W75238  34.417   7.687  13.396
 8698W        W75239  16.747  15.817  13.030
 8699W        W75240  39.893  12.642  10.313
 8700W        W75241  35.525  27.522  13.286
 8701W        W75242   1.661  40.149   3.702
 8702W        W75243  15.832  36.404  14.247
 8703W        W75244  42.208  16.339   1.603
 8704W        W75245   6.603   5.478  11.451
 8705W        W75246  19.073  30.510   3.256
 8706W        W75247  33.009  27.399  10.415
 8707W        W75248   4.853  28.869  10.787
 8708W        W75249   4.920   9.776   4.617
 8709W        W75250  24.985  43.834  11.414
 8710W        W75251   4.242  34.428  13.464
 8711W        W75252  26.661  29.489  12.388
 8712W        W75253   2.932  33.713   4.743
 8713W        W75254  15.839  43.114   2.827
 8714W        W75255  37.384  29.209   3.147
 8715W        W75256  28.050  16.598  10.508
 8716W        W75257   9.200  32.411   4.196
 8717W        W75258  30.120   6.968  12.500
 8718W        W75259   6.694  42.374  14.701
 8719W        W75260  20.285   1.652  12.535
 8720W        W75261  26.042  13.223   0.168
 8721W        W75262   0.652  40.116  13.950
 8722W        W75263  12.134   0.034  14.165
 8723W        W75264  22.702  32.790   1.238
 8724W        W75265  41.927  28.572  11.524
 8725W        W75266   4.425   5.595  12.389
 8726W        W75267   8.378  36.290  14.404
 8727W        W75268  21.257  21.479   0.690
 8728W        W75269   8.303  28.832  13.039
 8729W        W75270   6.454  34.080   0.852
 8730W        W75271  10.670  25.305  11.238
 8731W        W75272  12.855  43.777  13.963
 8732W        W75273  23.553  11.806   0.345
 8733W        W75274  12.333  17.718   2.408
 8734W        W75275   9.325  39.992  12.507
 8735W        W75276  28.997  14.212  12.995
 8736W        W75277   6.412  19.459   1.342
 8737W        W75278   0.731  41.134   4.049
 8738W        W75279  16.613  41.481   3.955
 8739W        W75280  11.902  44.946   4.635
 8740W        W75281  27.012   7.742   1.341
 8741W        W75282  20.805   2.245  11.121
 8742W        W75283   7.717   4.191   1.739
 8743W        W75284  26.378  15.558   2.765
 8744W        W75285  36.682  22.945  12.874
 8745W        W75286  11.841  11.420   0.232
 8746W        W75287  22.123   0.681   0.596
 8747W        W75288  40.243  40.837  13.305
 8748W        W75289  38.371  13.587  12.480
 8749W        W75290  24.061  35.945   5.432
 8750W        W75291  28.953  18.755  11.486
 8751W        W75292   5.849   6.932  12.985
 8752W        W75293  11.831   2.290  12.427
 8753W        W75294   8.629  35.197   3.455
 8754W        W75295  16.764  32.377  13.335
 8755W        W75296   5.992   2.223  14.834
 8756W        W75297  37.914  16.597  13.801
 8757W        W75298   9.591  40.299   4.785
 8758W        W75299  18.766  37.560  10.737
 8759W        W75300  41.353   0.363  12.881
 8760W        W75301  27.944   8.588   1.643
 8761W        W75302  30.634   7.573   3.268
 8762W        W75303  39.887  28.632   0.388
 8763W        W75304   5.303   6.273   2.195
 8764W        W75305   4.771  28.827  12.069
 8765W        W75306  43.475   3.780  11.958
 8766W        W75307  30.026   4.870   2.489
 8767W        W75308   7.677  21.089   3.803
 8768W        W75309   5.862   3.511  12.986
 8769W        W75310   8.896   0.909  13.939
 8770W        W75311  26.665  16.870   1.410
 8771W        W75312  23.113   7.956  11.493
 8772W        W75313   9.724   8.705   3.186
 8773W        W75314   2.101  40.189  11.889
 8774W        W75315   4.315  15.434  12.065
 8775W        W75316  35.080  34.438  12.375
 8776W        W75317   1.413   5.858   4.719
 8777W        W75318  20.957  32.153  11.053
 8778W        W75319  12.828  25.320  12.031
 8779W        W75320  25.490   8.330   2.815
 8780W        W75321  21.256   1.793  11.667
 8781W        W75322  15.803   3.672  14.892
 8782W        W75323   5.766   2.930   3.782
 8783W        W75324  20.743   1.643  11.784
 8784W        W75325  21.328   0.203   2.196
 8785W        W75326   0.481  43.401  13.494
 8786W        W75327  34.609  31.968   0.501
 8787W        W75328  25.562  36.118  10.974
 8788W        W75329  32.488  22.313   4.532
 8789W        W75330  16.606  31.332  12.482
 8790W        W75331   7.839  23.746  10.740
 8791W        W75332  12.950  39.315  13.433
 8792W        W75333  17.811  36.935   0.315
 8793W        W75334  31.709  30.196  13.973
 8794W        W75335  41.250  37.195  11.738
 8795W        W75336  25.751   2.787  14.210
 8796W        W75337   1.010  20.781   0.409
 8797W        W75338  11.743   8.975  14.355
 8798W        W75339  34.984  10.342  13.964
 8799W        W75340  26.161   9.460  14.980
 8800W        W75341   5.712  32.655  14.482
 8801W        W75342  19.178  15.893  11.099
 8802W        W75343  35.024  11.402  14.705
 8803W        W75344  26.247  13.990   0.352
 8804W        W75345  29.131  27.693   1.862
 8805W        W75346   0.867   8.018   4.927
 8806W        W75347  10.313   2.348   3.177
 8807W        W75348  43.882  31.561  11.518
 8808W        W75349  35.380  23.960  12.198
 8809W        W75350   9.760  30.056   0.794
 8810W        W75351  41.508  21.958  13.025
 8811W        W75352  13.340  19.229  11.965
 8812W        W75353  14.155  16.052   4.475
 8813W        W75354  36.559  22.907   4.531
 8814W        W75355  35.756  37.913   3.607
 8815W        W75356  43.874  22.376   4.600
 8816W        W75357  23.460  21.638  11.076
 8817W        W75358  24.660   5.202  11.435
 8818W        W75359  28.408  34.581   1.252
 8819W        W75360   8.889  32.004   4.691
 8820W        W75361   7.016   5.586   3.677
 8821W        W75362   4.211  30.159  13.090
 8822W        W75363   3.284   3.073   2.360
 8823W        W75364   0.430  29.363   3.841
 8824W        W75365  30.080   8.219  13.940
 8825W        W75366  22.646  11.569  12.077
 8826W        W75367   8.290  20.236   1.287
 8827W        W75368  15.150  11.331   2.241
 8828W        W75369  19.229  22.468   1.938
 8829W        W75370  25.178  21.370  13.085
 8830W        W75371  22.313  41.016   3.750
 8831W        W75372  42.249  42.843  14.081
 8832W        W75373  10.060  37.983   3.190
 8833W        W75374  24.103  18.271   0.007
 8834W        W75375  34.117  38.665   2.892
 8835W        W75376  41.103  13.723   0.221
 8836W        W75377   1.155  10.767  14.065
 8837W        W75378  14.863  24.753  11.174
 8838W        W75379   6.374  31.353  10.724
 8839W        W75380   8.839   0.251   4.242
 8840W        W75381  19.944  40.180   4.115
 8841W        W75382  39.176  21.005   5.098
 8842W        W75383   9.859  18.924  13.654
 8843W        W75384  27.918  44.880  11.715
 8844W        W75385  29.068  28.922   2.304
 8845W        W75386  27.399  32.173  13.900
 8846W        W75387  43.291  14.373   0.279
 8847W        W75388  37.599  31.490   4.141
 8848W        W75389  12.106  27.746   3.725
 8849W        W75390  30.720  33.967  10.945
 8850W        W75391  23.938  31.933  12.057
 8851W        W75392  37.881  36.894   2.650
 8852W        W75393  42.370  26.981   2.281
 8853W        W75394  29.882  42.868   2.031
 8854W        W75395   5.618  22.189   0.322
 8855W        W75396  14.575  33.451  11.551
 8856W        W75397  18.490  33.301   2.698
 8857W        W75398  27.442  12.233   3.705
 8858W        W75399  20.979  24.156   1.867
 8859W        W75400  25.423  31.003  11.929
 8860W        W75401   1.230   0.718  11.089
 8861W        W75402  27.209  29.960  10.981
 8862W        W75403  32.157  31.991  12.530
 8863W        W75404  27.562  28.429  12.910
 8864W        W75405  18.873  11.182  13.600
 8865W        W75406  19.512  24.724  11.231
 8866W        W75407  24.049   2.947   2.397
 8867W        W75408  20.423  42.761  11.685
 8868W        W75409   4.140   0.332  11.256
 8869W        W75410  29.617   2.658  11.211
 8870W        W75411  24.396   0.258  13.544
 8871W        W75412  18.321   3.289  13.910
 8872W        W75413  44.525  35.527   2.150
 8873W        W75414  20.870   9.241  11.586
 8874W        W75415   1.970  40.587   2.779
 8875W        W75416  17.378   0.181  13.393
 8876W        W75417  37.164   4.328   4.135
 8877W        W75418  28.490  39.285  12.815
 8878W        W75419  44.362   6.135   1.806
 8879W        W75420  13.498  30.934   1.326
 8880W        W75421   7.179  31.339   2.703
 8881W        W75422  15.563   7.073   1.158
 8882W        W75423  10.362  33.597  14.744
 8883W        W75424  15.140  25.245  12.607
 8884W        W75425  19.080   6.830   0.975
 8885W        W75426  44.773  28.289   4.001
 8886W        W75427   9.025  11.387  14.768
 8887W        W75428  40.862  39.459  12.449
 8888W        W75429  37.903  24.621  12.109
 8889W        W75430   4.486  33.768  14.914
 8890W        W75431   2.235  40.795  10.834
 8891W        W75432  40.885  44.746   2.329
 8892W        W75433  22.989  10.931  11.986
 8893W        W75434   8.769  23.069  11.718
 8894W        W75435  34.202  31.369  14.509
 8895W        W75436  28.343  38.478  12.818
 8896W        W75437   9.752  16.828  13.799
 8897W        W75438  12.558  43.011  11.446
 8898W        W75439  31.892   2.176   3.579
 8899W        W75440  21.082   5.016  14.270
 8900W        W75441  44.392  24.909  12.046
 8901W        W75442   0.879  23.235   4.546
 8902W        W75443  11.365  17.273  10.593
 8903W        W75444  15.338  17.547  14.320
 8904W        W75445  25.778   8.906   3.628
 8905W        W75446  14.580   8.610   0.707
 8906W        W75447  42.479  38.698  11.106
 8907W        W75448  29.223   3.797   1.404
 8908W        W75449  22.301  42.310  14.805
 8909W        W75450   8.776  38.732  13.377
 8910W        W75451  44.585   7.691   2.402
 8911W        W75452   2.765  43.780  12.497
 8912W        W75453  38.053  20.243  12.524
 8913W        W75454   2.870   0.034  11.949
 8914W        W75455  43.184  35.842  11.527
 8915W        W75456  40.410  15.407  13.818
 8916W        W75457  24.732  23.545  11.453
 8917W        W75458  18.822  30.230  13.958
 8918W        W75459  29.133  17.958   0.683
 8919W        W75460  22.566   0.668  13.606
 8920W        W75461  13.834  16.791  11.876
 8921W        W75462  33.903  33.326   2.276
 8922W        W75463  27.859  18.028  12.880
 8923W        W75464  19.787  31.973   4.504
 8924W        W75465   8.721  38.801  14.779
 8925W        W75466  40.493  21.114   0.963
 8926W        W75467  10.872   9.637   3.359
 8927W        W75468   2.000   6.275  13.461
 8928W        W75469  17.615  27.871   1.297
 8929W        W75470   1.485  35.314  10.648
 8930W        W75471  28.855  32.892   1.412
 8931W        W75472  25.676  29.669   2.255
 8932W        W75473  20.267  22.034   1.189
 8933W        W75474   6.162  27.628   0.496
 8934W        W75475  29.257   0.650  10.991
 8935W        W75476  36.021  43.469  15.000
 8936W        W75477  25.790  10.788  10.639
 8937W        W75478  15.637  23.501   4.687
 8938W        W75479  10.288  21.493  11.950
 8939W        W75480  30.737  44.897  13.730
 8940W        W75481  42.805  19.199   0.649
 8941W        W75482  27.474  39.725   4.271
 8942W        W75483  11.671  37.128   1.463
 8943W        W75484  23.755  19.203   4.581
 8944W        W75485   3.607  41.243   5.141
 8945W        W75486   0.322  21.230  11.537
 8946W        W75487   8.441  13.429  11.362
 8947W        W75488   0.408   1.059   1.438
 8948W        W75489  11.102  25.012   2.459
 8949W        W75490  41.293  43.452  13.219
 8950W        W75491  35.841   6.428   3.113
 8951W        W75492  43.873  44.462  13.896
 8952W        W75493  39.199   7.654  10.893
 8953W        W75494  17.261  32.872   0.268
 8954W        W75495  31.006  40.435   3.811
 8955W        W75496   4.326  21.149  11.105
 8956W        W75497  34.128   3.792   0.271
 8957W        W75498  18.242  35.122  14.349
 8958W        W75499  31.688  39.643  12.372
 8959W        W75500  28.907  40.312  11.202
 8960W        W75501  19.820   2.730   3.254
 8961W        W75502  29.637  14.089  13.781
 8962W        W75503   2.351  13.266  11.331
 8963W        W75504  12.805   3.917  13.885
 8964W        W75505   2.742  29.485   1.724
 8965W        W75506  36.388  44.516   5.014
 8966W        W75507  41.370  21.141  12.946
 8967W        W75508  27.632  40.399  14.452
 8968W        W75509   3.444  19.300  10.765
 8969W        W75510  13.196  37.796  13.344
 8970W        W75511  26.303  12.207   2.820
 8971W        W75512  18.483  32.920   2.317
 8972W        W75513  24.508  35.423   0.039
 8973W        W75514  10.091  10.894  14.236
 8974W        W75515  27.544   8.637  13.998
 8975W        W75516  43.975  11.540   3.662
 8976W        W75517   6.668  40.023   0.417
 8977W        W75518  35.985   3.241   3.656
 8978W        W75519  11.659  22.566  14.981
 8979W        W75520   7.961   3.220   5.484
 8980W        W75521  13.871  15.358  13.640
 8981W        W75522  16.767  23.188  14.489
 8982W        W75523  44.823  21.091  13.225
 8983W        W75524  12.303   2.563  13.255
 8984W        W75525  12.614   2.710   1.487
 8985W        W75526  16.661  30.410  11.185
 8986W        W75527   7.770  26.229  14.472
 8987W        W75528   9.310  22.238   0.911
 8988W        W75529  27.938  19.698   0.659
 8989W        W75530  29.071  17.903  13.823
 8990W        W75531  10.419  39.834   1.754
 8991W        W75532  30.035  30.435  11.261
 8992W        W75533  29.025  26.766   0.774
 8993W        W75534  35.036  13.880  12.925
 8994W        W75535  36.466  18.797   0.639
 8995W        W75536  40.331  27.928   0.104
 8996W        W75537  11.695  41.406  14.791
 8997W        W75538  25.953  42.111   2.274
 8998W        W75539  12.871   7.803   4.886
 8999W        W75540  29.692  32.913   2.241
 9000W        W75541  16.193  25.824  11.923
 9001W        W75542  10.373   8.339  11.175
 9002W        W75543  29.458  34.111   0.775
 9003W        W75544  36.082  24.030   0.855
 9004W        W75545  40.578  11.371   2.903
 9005W        W75546  26.231  16.584   1.399
 9006W        W75547  21.991  43.826  12.490
 9007W        W75548  25.731  20.326   3.233
 9008W        W75549  33.591  18.261   4.884
 9009W        W75550  25.147  31.434  12.067
 9010W        W75551  38.419  39.587   3.798
 9011W        W75552  41.596  44.535   4.177
 9012W        W75553  38.190  43.984  13.476
 9013W        W75554   7.358  40.056  13.128
 9014W        W75555  16.643   1.860   4.964
 9015W        W75556   2.862  43.803  14.751
 9016W        W75557  36.774  29.373   2.347
 9017W        W75558  44.240  41.840  14.885
 9018W        W75559  40.572  11.314   5.216
 9019W        W75560  19.231  35.364   2.811
 9020W        W75561   6.043   5.821   3.767
 9021W        W75562  26.014  14.090  13.586
 9022W        W75563  40.410  12.059  12.605
 9023W        W75564  10.415  25.739  12.860
 9024W        W75565   0.207   7.730   3.206
 9025W        W75566  15.271  16.697  14.221
 9026W        W75567  37.448  14.060   3.586
 9027W        W75568  35.987   2.832  12.385
 9028W        W75569  19.252  43.860  12.864
 9029W        W75570  28.531   5.336  10.431
 9030W        W75571  30.237  44.956  13.572
 9031W        W75572  36.762   1.186  11.624
 9032W        W75573  25.209  16.574   2.480
 9033W        W75574   2.597  21.669  12.052
 9034W        W75575  25.665  22.755   4.237
 9035W        W75576  31.165  22.496  11.648
 9036W        W75577  27.440  27.685  11.498
 9037W        W75578   5.683  43.331   2.910
 9038W        W75579  44.030  29.321  11.644
 9039W        W75580  12.275  41.451  14.965
 9040W        W75581  37.277  10.972   2.805
 9041W        W75582  16.832  42.881  14.240
 9042W        W75583  37.584  33.069   0.257
 9043W        W75584   2.002  14.307   4.064
 9044W        W75585  39.021  33.080   1.418
 9045W        W75586  36.428  41.940  11.924
 9046W        W75587  38.909  23.089   4.594
 9047W        W75588  17.788  36.567   2.766
 9048W        W75589  26.596  42.451  11.557
 9049W        W75590   6.949  32.888  10.579
 9050W        W75591   5.106  26.008  13.801
 9051W        W75592   1.075  42.836  13.654
 9052W        W75593  29.385   5.424  11.543
 9053W        W75594  42.761  42.743  11.663
 9054W        W75595  25.643  16.269   4.501
 9055W        W75596  26.095   3.026  14.916
 9056W        W75597  18.770   5.426  14.126
 9057W        W75598  42.568  24.989  13.999
 9058W        W75599  21.007   1.213   0.312
 9059W        W75600  18.723  43.902   3.741
 9060W        W75601  26.471  21.891  10.710
 9061W        W75602   1.247  25.291  13.428
 9062W        W75603  24.478   0.978   1.878
 9063W        W75604   0.710  18.785   0.287
 9064W        W75605  12.782  10.759   4.069
 9065W        W75606  17.517  18.684   2.583
 9066W        W75607   3.277  40.160  11.155
 9067W        W75608  16.681   9.985   1.156
 9068W        W75609  41.487  24.516   3.889
 9069W        W75610  39.482   6.328  12.714
 9070W        W75611  12.907  38.231  13.358
 9071W        W75612  15.483  35.376   5.129
 9072W        W75613  32.018   1.181   1.708
 9073W        W75614  16.532   0.625  13.880
 9074W        W75615  22.124   7.876   4.636
 9075W        W75616  17.262  44.775   1.196
 9076W        W75617  35.679  13.743  11.602
 9077W        W75618  24.937   2.719   1.847
 9078W        W75619  33.206  29.158   1.473
 9079W        W75620  35.060  14.231   3.698
 9080W        W75621   5.361  18.012  10.643
 9081W        W75622  40.495  36.676   1.455
 9082W        W75623  12.803  29.989  14.641
 9083W        W75624  33.002  21.204   0.574
 9084W        W75625  24.502  41.905   0.292
 9085W        W75626  22.579  40.848   0.073
 9086W        W75627  44.493  41.289   4.519
 9087W        W75628  24.986  22.824  12.891
 9088W        W75629  32.525   2.313   1.313
 9089W        W75630  38.922  12.896  11.953
 9090W        W75631  32.590  14.119   0.897
 9091W        W75632   8.894  36.268  14.526
 9092W        W75633  23.215   1.277   0.354
 9093W        W75634  23.832  41.062   0.797
 9094W        W75635   2.446  17.248   2.138
 9095W        W75636   0.927  11.837   1.712
 9096W        W75637  27.874  23.608   3.757
 9097W        W75638  35.850  44.028   3.631
 9098W        W75639  40.770   0.275  12.087
 9099W        W75640  34.741   6.891   2.642
 9100W        W75641  19.329  27.420   4.128
 9101W        W75642  30.186  19.704  11.179
 9102W        W75643  17.755  41.735   1.876
 9103W        W75644  21.235  33.113  13.014
 9104W        W75645  26.211  22.979   3.546
 9105W        W75646  39.676  18.579   3.119
 9106W        W75647  10.575  33.506  12.214
 9107W        W75648  34.855  26.709  11.748
 9108W        W75649  18.384  35.154  12.981
 9109W        W75650  29.909   6.994  12.020
 9110W        W75651  26.229   7.408  14.768
 9111W        W75652   8.800  37.776  13.732
 9112W        W75653  44.342  42.796   0.292
 9113W        W75654  21.526  33.224   1.738
 9114W        W75655   4.140   4.778   4.096
 9115W        W75656  32.288  26.276   2.435
 9116W        W75657  34.728  23.738   0.635
 9117W        W75658  28.449  43.380  12.365
 9118W        W75659  30.893   8.350   1.813
 9119W        W75660   8.232  14.115   0.749
 9120W        W75661  37.190   0.713  10.742
 9121W        W75662  28.722  25.204  14.717
 9122W        W75663  35.132  10.418   5.118
 9123W        W75664  44.178   2.451   1.149
 9124W        W75665   7.864   8.294   3.209
 9125W        W75666   8.764   1.997   3.662
 9126W        W75667  11.408  41.960   4.129
 9127W        W75668  16.873  43.071  12.008
 9128W        W75669   0.476  24.381  11.631
 9129W        W75670  33.127  34.567  14.684
 9130W        W75671  36.421   4.351  14.441
 9131W        W75672  16.606  28.870   2.331
 9132W        W75673  27.751   1.202   0.497
 9133W        W75674   3.058  24.156  13.473
 9134W        W75675  12.396  25.063   2.152
 9135W        W75676   2.958  14.548  10.839
 9136W        W75677  41.501  33.059  11.602
 9137W        W75678  24.215  43.091   3.778
 9138W        W75679  18.884  42.805   2.859
 9139W        W75680  34.533  33.047  12.091
 9140W        W75681  18.526   6.812   2.307
 9141W        W75682  43.957  11.790   2.785
 9142W        W75683  28.119  23.173  11.525
 9143W        W75684  28.109  29.928   4.501
 9144W        W75685  44.595  36.815   0.238
 9145W        W75686  13.865  41.575   4.593
 9146W        W75687  17.148  12.788   3.219
 9147W        W75688  35.889  26.162  11.086
 9148W        W75689   7.590  30.482   0.511
 9149W        W75690   9.424  20.908   3.246
 9150W        W75691  13.513  10.908   3.731
 9151W        W75692  38.553  34.424   0.426
 9152W        W75693  16.801  44.172  13.955
 9153W        W75694  31.521  34.934   1.796
 9154W        W75695  12.811  23.571  12.911
 9155W        W75696  15.268  35.460  11.948
 9156W        W75697  40.017   1.358  11.579
 9157W        W75698  36.644  17.503   4.076
 9158W        W75699  41.022   7.321  14.705
 9159W        W75700  32.606   2.147  14.796
 9160W        W75701   5.727  16.043   0.711
 9161W        W75702   7.159  31.856   4.605
 9162W        W75703  25.244  21.407   0.189
 9163W        W75704  28.503  18.306  12.123
 9164W        W75705  27.591  16.121  11.369
 9165W        W75706   4.408  43.099  11.472
 9166W        W75707  23.695  31.559   0.367
 9167W        W75708  24.089   4.826   3.352
 9168W        W75709  29.493  23.175   4.140
 9169W        W75710  16.979  18.186  10.748
 9170W        W75711   2.472  37.069   4.586
 9171W        W75712  33.831  26.228   3.771
 9172W        W75713   9.379  11.333   0.771
 9173W        W75714  13.803  30.618   2.791
 9174W        W75715  13.269  22.302   2.233
 9175W        W75716  23.715  29.564   1.368
 9176W        W75717  30.733   3.347   2.281
 9177W        W75718  43.321  40.823   3.114
 9178W        W75719  26.530  31.523  10.530
 9179W        W75720  12.638  25.593   0.316
 9180W        W75721  39.941  36.349   2.344
 9181W        W75722  39.328  29.994   1.388
 9182W        W75723  37.729   7.829   4.269
 9183W        W75724  42.569  21.159   1.674
 9184W        W75725   2.301  21.957  12.400
 9185W        W75726  10.357  32.477  10.945
 9186W        W75727   8.039  13.557   2.035
 9187W        W75728   4.510   7.847   5.202
 9188W        W75729  22.695  30.502   1.759
 9189W        W75730  40.620   5.141  11.300
 9190W        W75731  37.783  27.273  12.885
 9191W        W75732  43.058  32.064   4.743
 9192W        W75733  44.778  44.824   1.863
 9193W        W75734  28.008  39.385  12.071
 9194W        W75735  27.580  21.888   3.349
 9195W        W75736  33.122  29.451  12.811
 9196W        W75737  32.441  14.381  10.574
 9197W        W75738  35.421  29.907  11.561
 9198W        W75739  22.571  13.659   0.758
 9199W        W75740  39.595  12.711  11.581
 9200W        W75741  31.392   2.284   2.685
 9201W        W75742  21.462  43.814   2.453
 9202W        W75743  37.016   3.219   9.710
 9203W        W75744  12.290   8.726  13.802
 9204W        W75745   0.759  35.804  13.386
 9205W        W75746   9.677  35.848  12.058
 9206W        W75747  40.441  43.998   1.577
 9207W        W75748  16.146  12.284  10.897
 9208W        W75749   6.175   6.374  13.770
 9209W        W75750  15.166   7.411   1.218
 9210W        W75751  39.778  11.197  13.505
 9211W        W75752  19.874   6.401   1.450
 9212W        W75753  32.993  15.729  13.594
 9213W        W75754   4.032  33.438   1.370
 9214W        W75755  38.693  22.559  11.173
 9215W        W75756  25.664  18.751   2.814
 9216W        W75757  37.624  33.096   3.154
 9217W        W75758  34.400   0.917  12.364
 9218W        W75759  29.602  19.261   0.937
 9219W        W75760  35.077  26.720   0.985
 9220W        W75761  29.969   8.504  10.662
 9221W        W75762  19.054   3.041   3.213
 9222W        W75763  10.056  24.166  14.286
 9223W        W75764   5.389  27.736   4.625
 9224W        W75765  33.315  29.264  14.298
 9225W        W75766  29.389  19.301  13.066
 9226W        W75767   1.433  26.681  10.834
 9227W        W75768  20.587  31.273  13.865
 9228W        W75769  36.559  26.208  12.860
 9229W        W75770  24.063  20.966   2.935
 9230W        W75771  10.661   9.203   1.911
 9231W        W75772   6.668  31.073   3.795
 9232W        W75773  20.556  27.034  11.570
 9233W        W75774  20.124  36.342  11.989
 9234W        W75775  31.232   7.597  11.979
 9235W        W75776  13.413  21.956  13.583
 9236W        W75777  11.646  35.337  12.341
 9237W        W75778  43.008   4.268  12.503
 9238W        W75779  31.677  26.957   1.362
 9239W        W75780  28.180  33.508   3.852
 9240W        W75781  11.538  33.289   2.871
 9241W        W75782   4.740   8.176   0.181
 9242W        W75783  43.890  10.918   1.028
 9243W        W75784  32.379  37.343   3.586
 9244W        W75785   4.450  13.369  11.222
 9245W        W75786  10.856  13.424   2.251
 9246W        W75787  39.625  29.173  13.923
 9247W        W75788  44.929  32.470  11.570
 9248W        W75789   4.649  27.633   3.196
 9249W        W75790   4.941  30.637   2.447
 9250W        W75791   3.822  14.667   0.526
 9251W        W75792   1.317  39.072  10.873
 9252W        W75793  21.403  41.885   2.337
 9253W        W75794  35.127  27.576   1.022
 9254W        W75795  22.086  29.242  10.564
 9255W        W75796  37.055  29.308   1.013
 9256W        W75797  10.779   7.089  11.150
 9257W        W75798   9.388  20.744   4.831
 9258W        W75799  43.070  44.456  10.579
 9259W        W75800   4.357  16.302   1.365
 9260W        W75801  36.039  31.106  13.331
 9261W        W75802  27.236  30.633   1.853
 9262W        W75803  31.223   1.927  11.597
 9263W        W75804  31.407   2.912  14.511
 9264W        W75805  43.764  26.056  14.825
 9265W        W75806  43.884  42.089  13.525
 9266W        W75807  37.360  10.248   4.447
 9267W        W75808  32.890  42.435   1.285
 9268W        W75809  44.813  24.273  13.167
 9269W        W75810  43.750  22.752  11.605
 9270W        W75811  36.305   8.136   4.085
 9271W        W75812   6.678  36.766  11.239
 9272W        W75813   5.388  33.364   0.172
 9273W        W75814  28.024  40.900   3.606
 9274W        W75815  14.786  24.661  13.131
 9275W        W75816  11.392   3.147  14.797
 9276W        W75817  44.725   2.748  14.304
 9277W        W75818  34.955  17.615  14.862
 9278W        W75819  10.845  19.515   2.281
 9279W        W75820   4.490  31.152  10.976
 9280W        W75821  12.209  18.191   4.273
 9281W        W75822  34.053  15.952   4.158
 9282W        W75823  13.437  32.031   3.252
 9283W        W75824  24.806  11.752   3.669
 9284W        W75825   6.355  30.005  10.974
 9285W        W75826  12.142  44.182  11.159
 9286W        W75827  44.745  17.140   0.832
 9287W        W75828  40.975  12.308  14.488
 9288W        W75829   8.662  39.238  13.508
 9289W        W75830  26.292  41.320   3.694
 9290W        W75831  41.475  13.418  12.500
 9291W        W75832  25.471  40.823   2.325
 9292W        W75833  22.203  30.711   0.511
 9293W        W75834  18.233  20.053   0.261
 9294W        W75835  27.256  17.272  12.992
 9295W        W75836  39.866  39.276  10.861
 9296W        W75837  43.544   7.749  11.309
 9297W        W75838  10.271  37.776   1.408
 9298W        W75839   5.367  26.576  13.156
 9299W        W75840  41.466  27.814   2.854
 9300W        W75841  24.191  44.915  12.493
 9301W        W75842  41.274   3.832  13.324
 9302W        W75843  21.775  39.869  14.325
 9303W        W75844  39.943   8.328  13.919
 9304W        W75845   3.860  23.938   2.930
 9305W        W75846  12.127   4.028  13.525
 9306W        W75847  28.706  39.462  11.608
 9307W        W75848  25.279  30.076  14.717
 9308W        W75849  20.536  18.239  14.221
 9309W        W75850  27.887  36.572   3.084
 9310W        W75851  13.583   9.984  13.091
 9311W        W75852   3.202  40.444   3.624
 9312W        W75853  37.725  23.718  12.441
 9313W        W75854   5.957  14.077  14.264
 9314W        W75855   5.162  10.245  13.554
 9315W        W75856   0.391  10.728   3.656
 9316W        W75857  24.724  29.069   0.536
 9317W        W75858  28.928  13.561  13.483
 9318W        W75859  16.123  17.602   2.411
 9319W        W75860  14.008  22.773   3.605
 9320W        W75861  37.683  27.423  12.092
 9321W        W75862  38.123   8.080   2.300
 9322W        W75863  22.015  42.619  13.845
 9323W        W75864   0.583  14.699  11.269
 9324W        W75865  43.407  19.201   4.409
 9325W        W75866  17.802   6.183   4.581
 9326W        W75867  12.291  32.928   0.043
 9327W        W75868   3.451  34.138   1.914
 9328W        W75869   3.792  35.743   1.405
 9329W        W75870  16.595  30.650  13.477
 9330W        W75871   5.703  13.765  12.929
 9331W        W75872   4.463  37.445  11.287
 9332W        W75873  34.022   3.972  14.504
 9333W        W75874  22.799   5.243  12.865
 9334W        W75875   0.085  43.732   0.926
 9335W        W75876  16.054  32.544   5.419
 9336W        W75877  19.530  23.963  11.586
 9337W        W75878   8.863  37.964   0.330
 9338W        W75879  28.043  38.281   4.523
 9339W        W75880  43.084  36.336  11.600
 9340W        W75881   5.357   0.284   4.557
 9341W        W75882  40.748  22.764   3.206
 9342W        W75883  42.989  21.336  11.262
 9343W        W75884  19.264  26.214   5.051
 9344W        W75885   7.108  15.200  12.983
 9345W        W75886  38.832  19.562  11.849
 9346W        W75887   0.411  42.044  10.634
 9347W        W75888  36.988  30.873  14.247
 9348W        W75889   8.464  43.670   0.282
 9349W        W75890  10.762   6.915  14.001
 9350W        W75891  23.975  29.560  14.982
 9351W        W75892  30.544  26.723  14.934
 9352W        W75893  18.548   3.649  14.787
 9353W        W75894   8.181  43.796   0.801
 9354W        W75895   9.311  20.803   2.441
 9355W        W75896  15.993  41.266  13.962
 9356W        W75897   4.608  28.197   4.822
 9357W        W75898  16.404   5.815   3.316
 9358W        W75899  37.870  15.234  14.068
 9359W        W75900  17.940   4.459   0.936
 9360W        W75901  34.412  37.987  12.824
 9361W        W75902  44.453  24.743   5.250
 9362W        W75903  21.204  13.798  14.465
 9363W        W75904   3.239  32.629   5.561
 9364W        W75905  26.697   0.532   2.734
 9365W        W75906   1.751  31.424  14.984
 9366W        W75907  39.486  29.243  14.406
 9367W        W75908  17.042  39.799  11.554
 9368W        W75909  44.727  22.598   4.652
 9369W        W75910  12.725  18.295   4.126
 9370W        W75911  27.774  25.124   0.413
 9371W        W75912   8.884   0.575  12.542
 9372W        W75913  39.066  29.979  12.568
 9373W        W75914  28.212   9.794  14.307
 9374W        W75915  42.915  35.570   1.914
 9375W        W75916  14.702   0.229  12.880
 9376W        W75917  30.714   3.451  13.516
 9377W        W75918  43.945  29.845  11.979
 9378W        W75919   7.936  19.241  13.382
 9379W        W75920  29.455  38.972   2.687
 9380W        W75921  22.725  17.651   1.531
 9381W        W75922  39.800  29.601  12.844
 9382W        W75923   0.035  16.368  12.974
 9383W        W75924  12.102  27.995  14.931
 9384W        W75925   9.026   4.907  12.823
 9385W        W75926  36.751  28.669   4.238
 9386W        W75927   5.896  21.785   1.384
 9387W        W75928   8.664  20.452   4.274
 9388W        W75929   2.024  35.080  13.388
 9389W        W75930   6.817  32.100  13.349
 9390W        W75931  27.656  19.551  14.539
 9391W        W75932   6.200  25.005  13.552
 9392W        W75933  27.424   9.640  11.990
 9393W        W75934  42.885  44.443   0.725
 9394W        W75935   9.250  10.295   1.312
 9395W        W75936  19.221  43.580  14.282
 9396W        W75937  14.744  19.567   4.416
 9397W        W75938  23.050  13.542   4.801
 9398W        W75939  10.295  36.734  11.102
 9399W        W75940  27.540  34.160   2.485
 9400W        W75941  23.855   3.681  10.543
 9401W        W75942  25.803  43.417   2.460
 9402W        W75943   6.874  29.179   0.853
 9403W        W75944  28.743  35.934   4.662
 9404W        W75945  22.600  19.239  11.127
 9405W        W75946   9.410  40.524  13.505
 9406W        W75947  42.488  32.127   0.975
 9407W        W75948  11.671  29.102  11.045
 9408W        W75949   7.651  38.007   4.895
 9409W        W75950   7.842  29.932  14.747
 9410W        W75951  41.865  39.972  11.832
 9411W        W75952  10.877  29.186  14.752
 9412W        W75953  38.992  31.446  11.704
 9413W        W75954  17.603  33.122  13.992
 9414W        W75955   0.064  38.944  14.924
 9415W        W75956  28.833   0.288  12.345
 9416W        W75957  34.369  14.095  11.041
 9417W        W75958  41.482  42.822   0.448
 9418W        W75959  20.606  30.631   4.691
 9419W        W75960  19.487  12.732   9.920
 9420W        W75961  14.103   7.909  12.023
 9421W        W75962  38.430   1.796   1.891
 9422W        W75963  11.089  39.036   1.649
 9423W        W75964  38.560  26.093  12.602
 9424W        W75965  31.641   7.674   2.257
 9425W        W75966  30.929  33.640   2.249
 9426W        W75967  36.133  23.109   3.987
 9427W        W75968  16.264  18.481   0.684
 9428W        W75969  28.868  16.609  11.040
 9429W        W75970   3.187  41.438   2.267
 9430W        W75971   0.988   8.206   2.343
 9431W        W75972   0.583   2.395  12.930
 9432W        W75973  17.343   2.342   3.166
 9433W        W75974  14.331   8.943  13.938
 9434W        W75975  11.492  27.063   0.938
 9435W        W75976  20.674  26.449   0.288
 9436W        W75977  21.572  42.602  11.168
 9437W        W75978   6.300  14.424  10.244
 9438W        W75979  10.800  32.569  11.212
 9439W        W75980  17.365  28.900   3.711
 9440W        W75981  43.099  41.829   1.160
 9441W        W75982  15.087   9.991  11.941
 9442W        W75983  11.319  12.339  12.618
 9443W        W75984  40.788  16.087  10.765
 9444W        W75985  18.678  30.189   3.397
 9445W        W75986  23.103  21.281  14.364
 9446W        W75987  22.264  24.445  13.060
 9447W        W75988  12.732  23.952  13.285
 9448W        W75989  21.586  41.705   1.177
 9449W        W75990   1.838   5.275  11.139
 9450W        W75991   5.822  38.628  13.966
 9451W        W75992   2.891  35.706   1.177
 9452W        W75993  39.961  36.605   1.287
 9453W        W75994  35.589  31.628   0.028
 9454W        W75995  30.375   8.312   1.848
 9455W        W75996  30.176  10.886  12.065
 9456W        W75997  24.697   2.800  14.143
 9457W        W75998  18.002  26.503  13.353
 9458W        W75999  36.985   6.885  14.001
 9459W        W76000  25.183  44.281   1.696
 9460W        W76001   9.383  17.041   1.135
 9461W        W76002  37.728  13.815  14.868
 9462W        W76003   1.132  26.993  10.540
 9463W        W76004  25.293  12.527   2.439
 9464W        W76005  26.872   6.765   1.425
 9465W        W76006   8.790  34.383  14.671
 9466W        W76007   0.416  11.467   4.077
 9467W        W76008  24.201  41.576  12.116
 9468W        W76009  19.298  21.624   0.230
 9469W        W76010  39.006  13.818   2.805
 9470W        W76011  19.072  12.115  13.527
 9471W        W76012  26.553  32.555  11.891
 9472W        W76013   3.654  11.166   1.142
 9473W        W76014  13.312   2.712   3.269
 9474W        W76015  32.892  29.973   2.284
 9475W        W76016  17.110  24.912   0.497
 9476W        W76017  11.108   3.383  12.243
 9477W        W76018   1.887  13.158  12.550
 9478W        W76019  44.838  32.450   2.307
 9479W        W76020  43.918  31.968   3.591
 9480W        W76021  24.967  15.218   4.952
 9481W        W76022  22.729  22.554  14.137
 9482W        W76023  39.883   1.881   4.049
 9483W        W76024   7.866  35.361   2.166
 9484W        W76025   4.791   4.880   9.809
 9485W        W76026  22.703  40.511   1.044
 9486W        W76027  41.961  23.128  11.864
 9487W        W76028  11.277   1.854   4.683
 9488W        W76029  31.079  44.248  11.592
 9489W        W76030  31.958  34.928  14.318
 9490W        W76031  39.048  23.591  12.055
 9491W        W76032  31.966  19.574  14.950
 9492W        W76033  12.393  38.052   2.256
 9493W        W76034  36.774   9.579   1.500
 9494W        W76035   2.662  22.596  11.128
 9495W        W76036  27.489  37.303  13.323
 9496W        W76037  35.468  38.006   4.554
 9497W        W76038  43.518   4.406  12.427
 9498W        W76039  13.261  44.036   1.246
 9499W        W76040   8.169  33.315   0.957
 9500W        W76041   0.000   4.144  12.547
 9501W        W76042   5.415  12.100  12.379
 9502W        W76043   2.979  30.179  14.900
 9503W        W76044  24.119  23.382  10.361
 9504W        W76045  38.340  30.203  11.535
 9505W        W76046  44.011  38.052   1.664
 9506W        W76047   9.162  41.209   0.759
 9507W        W76048  25.920  12.659   0.785
 9508W        W76049  15.743  43.884  13.480
 9509W        W76050  34.320  23.589  13.903
 9510W        W76051  19.825  29.091   0.880
 9511W        W76052  44.716  43.252  13.913
 9512W        W76053  15.328  43.888  13.900
 9513W        W76054  20.534  38.066   0.098
 9514W        W76055  33.463  26.175   0.201
 9515W        W76056  10.604  14.642  13.282
 9516W        W76057  33.635   7.214  10.138
 9517W        W76058   4.936   3.662  12.583
 9518W        W76059  11.550  32.187   4.258
 9519W        W76060  16.518  24.268  12.534
 9520W        W76061   0.417   0.457   4.092
 9521W        W76062  12.569  20.155  10.698
 9522W        W76063  27.181  44.261  13.393
 9523W        W76064   4.360  26.945   3.706
 9524W        W76065  33.489  11.817  10.452
 9525W        W76066  23.107  33.113   0.038
 9526W        W76067   0.659  15.739  13.475
 9527W        W76068  36.513   9.913  10.655
 9528W        W76069  29.445  33.716  12.852
 9529W        W76070  17.913   9.242  11.057
 9530W        W76071  30.440  22.359  10.194
 9531W        W76072  26.479  32.092   2.693
 9532W        W76073  36.336  19.547   1.355
 9533W        W76074  30.852  10.110   1.306
 9534W        W76075  31.861  18.460   3.626
 9535W        W76076   4.489  28.101  12.397
 9536W        W76077  18.824   8.825  13.579
 9537W        W76078   9.916   8.592  11.209
 9538W        W76079  16.686  10.632   4.716
 9539W        W76080  28.717  38.036  14.468
 9540W        W76081  18.486  30.480   1.909
 9541W        W76082   2.336  43.302  13.596
 9542W        W76083   2.746  11.252   3.791
 9543W        W76084  27.070   0.505  11.704
 9544W        W76085  35.282  28.956  11.210
 9545W        W76086  10.151  39.215   3.598
 9546W        W76087   7.786   3.210  13.407
 9547W        W76088  40.612   1.940  13.902
 9548W        W76089  10.445  40.080  10.117
 9549W        W76090  15.375   6.783  14.935
 9550W        W76091   5.720  44.844   1.264
 9551W        W76092  14.403  18.866   0.265
 9552W        W76093  13.856  36.388   2.830
 9553W        W76094   8.542  22.519  13.465
 9554W        W76095  28.545   1.998  12.443
 9555W        W76096  12.833  30.963  14.420
 9556W        W76097  10.880  16.597   3.951
 9557W        W76098   9.131  17.157  12.636
 9558W        W76099  39.489   3.962   2.367
 9559W        W76100  20.652  39.641  13.937
 9560W        W76101  34.541  41.980   2.905
 9561W        W76102   2.450  39.812   4.778
 9562W        W76103  19.037  14.738  13.982
 9563W        W76104  31.992  22.562   3.730
 9564W        W76105  42.120  22.385  14.273
 9565W        W76106  26.900  32.090   3.612
 9566W        W76107   3.748  29.279   1.843
 9567W        W76108   7.643   5.088  13.166
 9568W        W76109   2.346   7.874   1.243
 9569W        W76110  23.099  34.112   4.213
 9570W        W76111  26.762  11.638  14.347
 9571W        W76112   3.379  43.310  12.682
 9572W        W76113  15.891  27.853   4.010
 9573W        W76114  28.198   4.720   4.430
 9574W        W76115   3.630   4.396   4.685
 9575W        W76116  30.034  26.855  11.468
 9576W        W76117  42.969  20.587  11.477
 9577W        W76118  42.458  19.530   2.358
 9578W        W76119   0.404  26.060   3.670
 9579W        W76120   2.263  10.230   1.596
 9580W        W76121  13.051  15.285  11.659
 9581W        W76122  14.159  25.183  14.726
 9582W        W76123  29.643  23.978  11.654
 9583W        W76124  23.113  24.749   1.860
 9584W        W76125   2.938  22.084   2.320
 9585W        W76126  32.871  42.894  10.074
 9586W        W76127  29.871  33.383  11.018
 9587W        W76128  21.711  35.546  13.564
 9588W        W76129  40.011  22.009  13.784
 9589W        W76130  31.511  26.483  14.659
 9590W        W76131  17.208  34.989  10.809
 9591W        W76132  36.517   3.983  14.791
 9592W        W76133  26.148  21.666   4.386
 9593W        W76134  18.975  32.481   5.025
 9594W        W76135  30.960  11.214   1.598
 9595W        W76136   8.388   2.654  13.953
 9596W        W76137  30.464  27.743  10.694
 9597W        W76138  13.661  24.144  14.127
 9598W        W76139  11.935   2.114   1.791
 9599W        W76140  10.645  35.040   0.037
 9600W        W76141   3.226  35.097  13.567
 9601W        W76142  27.279  14.116   1.367
 9602W        W76143   0.422  20.633  14.555
 9603W        W76144  12.112   2.183  11.149
 9604W        W76145   1.423  42.347  14.409
 9605W        W76146  38.135  40.723   0.023
 9606W        W76147   6.411  36.280   2.948
 9607W        W76148  17.662  11.633  11.323
 9608W        W76149  23.140  41.282  12.310
 9609W        W76150  40.007  22.144  13.275
 9610W        W76151  25.422  36.343  11.435
 9611W        W76152  13.825   6.453  10.735
 9612W        W76153  44.271  13.777  11.770
 9613W        W76154  19.889  18.649  12.607
 9614W        W76155  34.347  40.635  11.161
 9615W        W76156  37.017  16.296  12.680
 9616W        W76157  12.135   0.570   3.762
 9617W        W76158   3.512   5.920   3.233
 9618W        W76159  33.652  33.633  11.388
 9619W        W76160  15.256  29.697  11.512
 9620W        W76161  29.723   0.230   2.480
 9621W        W76162  36.791  14.104  14.974
 9622W        W76163  40.543   0.475  14.897
 9623W        W76164  29.932  34.417  12.082
 9624W        W76165   8.508  23.485  13.587
 9625W        W76166  15.132  30.151  12.422
 9626W        W76167  13.335  40.024  14.377
 9627W        W76168  41.032  27.325   3.642
 9628W        W76169  32.474  10.714  14.386
 9629W        W76170  23.524  33.642  14.440
 9630W        W76171  26.701  39.839   0.820
 9631W        W76172   5.590  43.238   3.415
 9632W        W76173  18.540  34.666   0.909
 9633W        W76174  25.202   3.709  13.444
 9634W        W76175  34.587  31.193  12.551
 9635W        W76176  18.764   9.037  13.116
 9636W        W76177   1.565  24.202  14.389
 9637W        W76178  43.522  18.784  12.119
 9638W        W76179  33.788  42.818   1.422
 9639W        W76180  38.053  11.421   3.722
 9640W        W76181  39.842  36.617   4.115
 9641W        W76182   3.715  38.419  14.076
 9642W        W76183  25.988  37.641   0.366
 9643W        W76184   7.236  24.833   2.407
 9644W        W76185   8.768  18.068   1.818
 9645W        W76186  44.566   6.410   1.398
 9646W        W76187  33.733   1.284  11.521
 9647W        W76188   3.769  11.670  10.572
 9648W        W76189  12.336  31.940   0.806
 9649W        W76190  27.192  37.703  14.488
 9650W        W76191  41.715   3.785   3.151
 9651W        W76192  40.637  40.922  12.522
 9652W        W76193  44.398  34.612  11.102
 9653W        W76194  17.521  17.043   2.708
 9654W        W76195  28.845  42.046  14.562
 9655W        W76196  24.060  44.250  10.825
 9656W        W76197  21.556  13.563  13.763
 9657W        W76198   7.668  41.044  13.009
 9658W        W76199  13.628   2.714  12.774
 9659W        W76200  43.402  40.468   1.339
 9660W        W76201  14.626  25.690  10.666
 9661W        W76202  24.610  18.044   3.808
 9662W        W76203  28.579   0.977  14.965
 9663W        W76204   7.462  24.515   2.739
 9664W        W76205  30.085  33.615   4.186
 9665W        W76206  17.319  35.121   1.262
 9666W        W76207  10.464   6.787  11.406
 9667W        W76208  23.786   9.715  12.566
 9668W        W76209   6.476  27.597   0.087
 9669W        W76210   7.283  38.648  12.059
 9670W        W76211  41.910  18.682  14.964
 9671W        W76212  20.537  36.795  14.363
 9672W        W76213   5.765  39.493  11.041
 9673W        W76214  17.978  38.365  13.110
 9674W        W76215  17.065   3.448  13.680
 9675W        W76216   6.780  35.964   3.294
 9676W        W76217  31.975  38.595   1.821
 9677W        W76218   4.704  27.083  12.509
 9678W        W76219  29.868   5.336  10.715
 9679W        W76220   9.399   5.437   2.663
 9680W        W76221  18.791  20.489  14.463
 9681W        W76222   5.935  30.858   1.384
 9682W        W76223  31.548  18.464  13.083
 9683W        W76224   2.289  38.852   2.810
 9684W        W76225  11.162  38.589  12.350
 9685W        W76226  17.112  39.373  13.384
 9686W        W76227  41.807  29.841  11.467
 9687W        W76228  33.523  26.779   2.322
 9688W        W76229  41.183  38.260  14.761
 9689W        W76230   8.453  32.002  14.286
 9690W        W76231  35.981  11.565   0.483
 9691W        W76232   7.430  25.108   1.460
 9692W        W76233  41.358   8.606   1.320
 9693W        W76234   5.213  43.306   0.214
 9694W        W76235   0.350  40.860  14.867
 9695W        W76236   9.270   2.960  14.793
 9696W        W76237  22.090  35.021   2.631
 9697W        W76238  14.189  18.772  13.336
 9698W        W76239  16.329  30.099  14.646
 9699W        W76240  37.823   2.006  13.610
 9700W        W76241  42.076  38.085  14.910
 9701W        W76242  18.070   7.013   2.413
 9702W        W76243  23.421   4.659   0.162
 9703W        W76244  33.515   3.793  11.589
 9704W        W76245  20.301  42.209  13.432
 9705W        W76246  22.275  27.239   4.844
 9706W        W76247  26.571  43.981  14.488
 9707W        W76248  28.558  24.536  12.710
 9708W        W76249  34.367  19.778   5.084
 9709W        W76250  20.627  35.562  10.968
 9710W        W76251  30.998  18.280  14.923
 9711W        W76252   2.218  24.845  10.669
 9712W        W76253  37.101  12.879   1.345
 9713W        W76254  37.505   7.848  14.238
 9714W        W76255   2.300  11.201   1.913
 9715W        W76256  26.551   8.814  13.966
 9716W        W76257  26.670   4.877   1.162
 9717W        W76258   7.903   1.712   0.442
 9718W        W76259  15.712   3.953   1.217
 9719W        W76260  17.403  12.844  14.542
 9720W        W76261   6.918   2.548   4.987
 9721W        W76262   8.864  11.807   3.698
 9722W        W76263  21.795   1.627   3.186
 9723W        W76264  32.551  44.914   0.856
 9724W        W76265  33.299  39.420  13.297
 9725W        W76266   4.649   6.980   3.268
 9726W        W76267  35.460  30.538   2.485
 9727W        W76268  23.783  39.559   4.654
 9728W        W76269  23.005  17.523  12.147
 9729W        W76270  19.701   7.342  14.342
 9730W        W76271  39.408  44.936  14.241
 9731W        W76272  32.004  36.320  10.768
 9732W        W76273  17.092  19.633   1.653
 9733W        W76274  20.353  34.614   1.809
 9734W        W76275   8.361  44.886   4.594
 9735W        W76276  39.857   1.357  14.988
 9736W        W76277  12.028  27.481  11.449
 9737W        W76278  14.707  32.705   3.532
 9738W        W76279  23.988  38.531  12.879
 9739W        W76280   1.399  38.148  10.466
 9740W        W76281   3.065  24.140  10.445
 9741W        W76282  18.317  40.025   3.329
 9742W        W76283  20.727  21.354   1.760
 9743W        W76284  39.940  39.952  11.599
 9744W        W76285  22.704  18.072   2.352
 9745W        W76286  14.678  15.216  14.325
 9746W        W76287  24.314  31.138   4.277
 9747W        W76288  27.874   8.985  11.052
 9748W        W76289  13.330  11.210   1.509
 9749W        W76290  28.870  36.956   0.833
 9750W        W76291  15.350  22.842  14.347
 9751W        W76292   9.701   7.979   1.243
 9752W        W76293  29.599  30.496   0.763
 9753W        W76294  20.392  26.541  13.911
 9754W        W76295   3.017  43.971  10.145
 9755W        W76296  43.055  21.296   0.898
 9756W        W76297  10.672  40.353   0.858
 9757W        W76298   6.933  24.564   2.772
 9758W        W76299  19.645   1.506   1.277
 9759W        W76300   5.684  42.300   4.246
 9760W        W76301  31.895  15.651   0.832
 9761W        W76302  40.281   5.876  13.854
 9762W        W76303  16.347  31.090  13.578
 9763W        W76304  13.547  11.097  11.694
 9764W        W76305   9.408  40.869   0.300
 9765W        W76306  28.812  26.053  14.426
 9766W        W76307   2.743  12.693   3.809
 9767W        W76308  32.850   1.329  11.431
 9768W        W76309   9.792  42.450   0.890
 9769W        W76310  40.399   9.255   2.431
 9770W        W76311   5.126  30.653   0.380
 9771W        W76312  29.639  19.136   2.373
 9772W        W76313  24.707  24.687   2.242
 9773W        W76314  33.840  10.787   3.263
 9774W        W76315   4.527   6.509   4.614
 9775W        W76316  26.813   9.225   1.361
 9776W        W76317  17.712  27.651   0.351
 9777W        W76318  22.043  21.655  12.370
 9778W        W76319  30.892   3.174   2.831
 9779W        W76320  28.893   3.314  13.757
 9780W        W76321   1.173  21.275   0.445
 9781W        W76322  18.661  33.474   0.689
 9782W        W76323  39.656   8.450   3.232
 9783W        W76324   2.251  34.417   3.359
 9784W        W76325  29.146   8.856  14.850
 9785W        W76326  21.959  11.834   2.318
 9786W        W76327  42.375  29.759   4.137
 9787W        W76328  31.513   9.847  14.975
 9788W        W76329  39.534  19.057  13.275
 9789W        W76330  43.723  34.504  11.127
 9790W        W76331  37.802  10.298  13.795
 9791W        W76332  41.956   4.186  14.444
 9792W        W76333   1.925   6.477   1.348
 9793W        W76334   3.956  17.630   2.321
 9794W        W76335  10.762  30.085   1.668
 9795W        W76336  17.855  43.486  12.053
 9796W        W76337  33.314  43.211  12.867
 9797W        W76338   3.217  17.825  14.944
 9798W        W76339   6.246  25.965  13.500
 9799W        W76340  19.220  10.173  11.211
 9800W        W76341   8.558   8.836   4.161
 9801W        W76342  14.735  14.568  12.877
 9802W        W76343  35.395  34.270  11.573
 9803W        W76344  12.079  12.704   3.589
 9804W        W76345  27.152  30.113   2.724
 9805W        W76346  20.084  36.132   2.202
 9806W        W76347  10.104   0.748   3.673
 9807W        W76348  39.636  39.930   0.300
 9808W        W76349   7.350  29.584   3.156
 9809W        W76350  33.863  34.693   1.947
 9810W        W76351  42.686  34.453   2.562
 9811W        W76352  27.972  27.608  12.468
 9812W        W76353  12.425   7.701   4.569
 9813W        W76354  26.544  27.995   3.595
 9814W        W76355  32.891   7.286  11.472
 9815W        W76356  32.382  30.216  11.100
 9816W        W76357  34.822  23.301  14.382
 9817W        W76358   7.285  15.480  13.400
 9818W        W76359  43.727  34.128  11.489
 9819W        W76360  18.358  22.621   2.046
 9820W        W76361  39.574  15.710   0.307
 9821W        W76362  19.854  10.800   0.447
 9822W        W76363  41.131  21.973  12.242
 9823W        W76364   4.207  20.303   3.760
 9824W        W76365  36.918  11.252  13.872
 9825W        W76366  25.163  14.153  13.821
 9826W        W76367  40.073   7.178   2.262
 9827W        W76368  25.104  34.935  11.422
 9828W        W76369  19.799  26.038  11.595
 9829W        W76370   9.610  40.914   2.257
 9830W        W76371  37.338   8.525  12.373
 9831W        W76372  40.314  16.007  10.622
 9832W        W76373  20.194  11.136  13.486
 9833W        W76374  43.733  28.814   1.138
 9834W        W76375   4.985  34.657   4.218
 9835W        W76376   5.845  42.176   4.976
 9836W        W76377   2.494  22.059  13.514
 9837W        W76378  22.236  12.133   0.987
 9838W        W76379  42.796  10.067   3.597
 9839W        W76380  43.861  17.668  11.898
 9840W        W76381   8.746  28.578  12.906
 9841W        W76382  37.131  35.324   2.939
 9842W        W76383  40.423  26.795  13.998
 9843W        W76384  22.258  40.821   4.263
 9844W        W76385  25.235  13.082   0.026
 9845W        W76386  15.132  29.734  12.937
 9846W        W76387  35.677  28.421   0.376
 9847W        W76388  30.942  41.867  13.639
 9848W        W76389  18.745   6.126  11.133
 9849W        W76390  42.237   6.197   4.850
 9850W        W76391  22.753  42.650  11.660
 9851W        W76392  19.604  16.243  11.208
 9852W        W76393  13.817   5.441   0.440
 9853W        W76394  30.858  13.967  14.429
 9854W        W76395  37.595  16.755   1.365
 9855W        W76396  41.974  12.897  14.449
 9856W        W76397   9.573   3.642  13.471
 9857W        W76398  30.607  20.975  13.462
 9858W        W76399  20.504  28.204  14.309
 9859W        W76400  13.385  12.603   2.892
 9860W        W76401  22.771   4.797  10.717
 9861W        W76402  33.499   8.630  11.442
 9862W        W76403  41.456  30.850   1.046
 9863W        W76404   5.451  14.059  11.634
 9864W        W76405  22.077  19.611  14.825
 9865W        W76406  28.890   3.762  11.632
 9866W        W76407  36.088  40.784   0.461
 9867W        W76408   4.975  20.500   4.125
 9868W        W76409  30.412  44.276  14.626
 9869W        W76410   7.399  34.832  12.132
 9870W        W76411  27.918  11.068  10.286
 9871W        W76412   4.769   4.461   1.206
 9872W        W76413  26.638  33.640   1.377
 9873W        W76414  38.218  16.078   1.804
 9874W        W76415  16.640  42.203  13.543
 9875W        W76416  24.759  41.458   0.391
 9876W        W76417  26.012  27.127  13.522
 9877W        W76418  31.183  16.680   5.535
 9878W        W76419  15.197  41.306  14.456
 9879W        W76420  29.670  18.042   1.875
 9880W        W76421  13.811   5.007   1.776
 9881W        W76422  42.476  39.695  11.246
 9882W        W76423  43.806   5.013  13.457
 9883W        W76424  34.835   2.799  12.508
 9884W        W76425  44.094  32.445   1.413
 9885W        W76426  15.243  39.182   0.250
 9886W        W76427  29.393  41.464   2.646
 9887W        W76428  21.703   0.312   0.660
 9888W        W76429  19.035   8.171  14.573
 9889W        W76430  13.239  31.317   0.570
 9890W        W76431   3.252  36.956   4.164
 9891W        W76432  40.952  38.962   3.638
 9892W        W76433  39.004  26.955  10.269
 9893W        W76434  20.437  27.720   2.346
 9894W        W76435  21.578  40.967   4.797
 9895W        W76436  16.755  43.848  11.698
 9896W        W76437   8.288   8.309   1.760
 9897W        W76438  11.294  38.327   0.427
 9898W        W76439  34.818  40.572   4.103
 9899W        W76440  22.349  34.506   0.373
 9900W        W76441  20.996  10.980   0.362
 9901W        W76442  12.499  44.747  12.447
 9902W        W76443  22.155   4.254  10.219
 9903W        W76444  10.474  36.599   0.136
 9904W        W76445  38.013  31.587   3.336
 9905W        W76446  36.129   4.036  13.781
 9906W        W76447  23.559  23.316   2.828
 9907W        W76448  30.345   1.383  10.520
 9908W        W76449  14.827  39.787   4.534
 9909W        W76450  42.395   0.053   3.817
 9910W        W76451  41.451  21.879  11.375
 9911W        W76452  12.205  36.358   4.565
 9912W        W76453  14.122  17.132  10.984
 9913W        W76454  19.550  20.761  10.585
 9914W        W76455  33.368  43.745  11.135
 9915W        W76456  18.070   4.862  13.283
 9916W        W76457  13.246   1.691  13.586
 9917W        W76458  23.024  39.080  10.073
 9918W        W76459  43.889  17.872   3.818
 9919W        W76460  15.848  23.358   1.219
 9920W        W76461   5.084  16.641   4.927
 9921W        W76462  14.129  38.997   0.146
 9922W        W76463  12.259  43.448   3.758
 9923W        W76464  23.809  41.028  11.550
 9924W        W76465  35.050  39.359   4.089
 9925W        W76466  44.036  42.330  13.098
 9926W        W76467   0.490  20.229   4.591
 9927W        W76468  40.418   1.434   2.376
 9928W        W76469  38.554  38.461   3.777
 9929W        W76470   6.741  41.545  11.184
 9930W        W76471  25.698  23.176   2.601
 9931W        W76472  16.507  40.366   3.384
 9932W        W76473  34.479  11.372   4.316
 9933W        W76474  37.136  28.205  11.581
 9934W        W76475  38.748  15.642  14.798
 9935W        W76476  42.365  44.986   0.144
 9936W        W76477   9.310   3.224   0.293
 9937W        W76478  23.435  36.086   0.703
 9938W        W76479   2.256  23.883   4.242
 9939W        W76480  16.354  21.367   2.341
 9940W        W76481  31.508  21.639   3.385
 9941W        W76482   3.788  38.537   4.469
 9942W        W76483  14.804  19.192   0.448
 9943W        W76484  28.700  42.530   4.694
 9944W        W76485  33.043  13.396   3.552
 9945W        W76486   7.663  35.261  11.309
 9946W        W76487  38.923  21.377  10.751
 9947W        W76488  44.259   3.242  12.445
 9948W        W76489   8.458  43.301   1.836
 9949W        W76490  36.918  13.411  11.139
 9950W        W76491  37.232  17.177   2.788
 9951W        W76492  18.874  13.179   3.555
 9952W        W76493  10.250  21.866   1.887
 9953W        W76494  19.215   9.606  13.764
 9954W        W76495  39.804   1.739  12.562
 9955W        W76496  41.233  32.657  14.467
 9956W        W76497   7.983  31.647   1.763
 9957W        W76498  37.349  15.130   1.632
 9958W        W76499   4.003  44.757   2.194
 9959W        W76500  32.196  26.678  11.136
 9960W        W76501  30.901  29.850  12.635
 9961W        W76502  16.741  18.339  11.193
 9962W        W76503  28.024  14.092  10.716
 9963W        W76504   6.211  20.211   0.480
 9964W        W76505  29.067  40.642   3.245
 9965W        W76506  25.682  35.389   0.766
 9966W        W76507   2.023  14.066  13.851
 9967W        W76508  33.095   5.056  12.354
 9968W        W76509  23.503   9.325   1.387
 9969W        W76510  34.127   5.273  14.046
 9970W        W76511  27.988  13.196   0.379
 9971W        W76512  22.239  20.228  13.965
 9972W        W76513  12.213  27.455   4.155
 9973W        W76514  26.412  27.944   2.340
 9974W        W76515   9.410   1.456  12.355
 9975W        W76516  25.013   9.438   1.661
 9976W        W76517  44.720   2.212   4.626
 9977W        W76518  27.949  25.026   4.029
 9978W        W76519  12.805  20.623   0.110
 9979W        W76520  22.507  27.868  10.709
 9980W        W76521  15.741  22.101   3.738
 9981W        W76522  41.899   1.533  13.542
 9982W        W76523  41.448   6.465  13.047
 9983W        W76524  34.901  30.082  14.168
 9984W        W76525  37.457  26.943  11.994
 9985W        W76526  26.975   4.254   0.983
 9986W        W76527  22.733  35.775   4.246
 9987W        W76528  11.702  40.517   4.532
 9988W        W76529  14.611  10.108  12.999
 9989W        W76530  15.186  20.884  10.860
 9990W        W76531  24.942  39.032   0.343
 9991W        W76532  37.794  42.483  14.391
 9992W        W76533  34.564   2.341  12.552
 9993W        W76534   4.748  27.551   0.184
 9994W        W76535  43.879   5.775   0.924
 9995W        W76536  40.061   8.730   0.474
 9996W        W76537  25.590  43.401   3.559
 9997W        W76538   8.140  28.664   4.174
 9998W        W76539  15.804  25.638  11.173
 9999W        W76540  30.938  35.906  13.920
10000W        W76541  42.545   3.890   2.764
10001W        W76542  24.929  30.449  10.587
10002W        W76543  39.207   8.223  12.026
10003W        W76544  33.838   8.461  13.191
10004W        W76545  17.684   0.243  14.866
10005W        W76546  17.326  30.189  11.945
10006W        W76547  23.539  19.058   3.368
10007W        W76548  16.322  43.030  13.468
10008W        W76549  30.648  41.710   0.852
10009W        W76550   6.325  35.793   3.127
10010W        W76551  44.452   1.372   4.315
10011W        W76552  18.169   6.877  11.165
10012W        W76553  17.131  20.914   0.220
10013W        W76554   1.039  27.569   0.019
10014W        W76555   2.938  14.729  13.052
10015W        W76556   1.282   6.022  11.471
10016W        W76557  17.188  12.328   2.954
10017W        W76558   4.776  23.752   5.317
10018W        W76559   7.805   2.433   2.169
10019W        W76560   3.652   5.026   4.189
10020W        W76561  18.025  10.727   0.757
10021W        W76562  29.091  20.031  13.965
10022W        W76563  32.575   0.872   0.937
10023W        W76564  23.184   7.861  14.764
10024W        W76565  20.451  29.377   4.166
10025W        W76566  24.607   6.737   3.120
10026W        W76567  21.689  16.707  12.370
10027W        W76568   8.806  38.493   0.964
10028W        W76569  35.264   4.423  14.217
10029W        W76570  32.163  41.552   3.294
10030W        W76571  39.421  10.662  12.292
10031W        W76572   4.015  26.553  12.259
10032W        W76573  32.946  44.980   2.359
10033W        W76574  44.664  20.068   3.163
10034W        W76575  37.958  38.065  11.140
10035W        W76576  38.320  19.536  13.470
10036W        W76577  12.036  16.201   4.866
10037W        W76578  37.469  28.399   1.170
10038W        W76579  37.067   1.978  10.581
10039W        W76580   2.191   0.392  13.904
10040W        W76581  21.986  12.109  11.100
10041W        W76582  11.340  33.684   0.276
10042W        W76583  33.522   9.431   3.930
10043W        W76584  43.889  41.377  14.156
10044W        W76585   1.207   1.151  13.111
10045W        W76586   5.724  13.730   1.433
10046W        W76587  12.881  38.722   3.273
10047W        W76588  36.117   0.780  14.149
10048W        W76589  22.773   4.861  11.619
10049W        W76590  20.368   5.278  11.232
10050W        W76591  42.822   9.635   3.323
10051W        W76592  14.783  17.899   0.257
10052W        W76593  27.684  26.931   0.756
10053W        W76594  23.309  10.124   0.039
10054W        W76595  25.169  31.806  12.413
10055W        W76596   1.294  40.052  13.418
10056W        W76597  27.010  32.868  12.588
10057W        W76598  44.064  40.048  13.391
10058W        W76599  29.115  23.725   0.781
10059W        W76600  39.361  18.728  14.579
10060W        W76601  21.499  41.025  13.576
10061W        W76602  19.024  13.911  13.971
10062W        W76603  38.473  36.926  13.880
10063W        W76604  20.896  41.822   2.297
10064W        W76605  29.250  17.675  10.740
10065W        W76606  11.370  19.173   3.677
10066W        W76607  25.243   9.654   3.612
10067W        W76608   7.423  27.654  14.064
10068W        W76609   8.460  11.655   2.799
10069W        W76610  33.202  32.389  12.734
10070W        W76611  18.593  16.194  12.819
10071W        W76612  41.312  35.330  12.448
10072W        W76613  34.480   7.203   2.182
10073W        W76614  40.708   0.812   4.012
10074W        W76615  33.485   9.222   4.407
10075W        W76616  23.184   0.746   0.279
10076W        W76617  25.017  28.484  13.382
10077W        W76618   1.851  14.220   2.114
10078W        W76619  32.389  21.705  10.709
10079W        W76620  11.806  17.038   3.277
10080W        W76621  39.625  30.525  13.738
10081W        W76622   8.737  26.189   1.410
10082W        W76623  11.841  23.196   1.246
10083W        W76624   9.167  35.878  12.155
10084W        W76625   9.442  21.539   3.852
10085W        W76626   8.775  32.804  11.474
10086W        W76627   9.172  19.562  10.474
10087W        W76628  15.320   9.752   4.364
10088W        W76629  30.978   1.551   0.832
10089W        W76630  18.532  11.177   3.746
10090W        W76631  12.675  22.413   4.060
10091W        W76632  22.051  37.792  11.053
10092W        W76633  41.835  22.115   2.668
10093W        W76634   5.955   9.515  12.732
10094W        W76635  18.535  33.428  13.019
10095W        W76636  13.607  38.875   4.631
10096W        W76637  22.762   3.485   0.855
10097W        W76638  35.949  12.393  12.339
10098W        W76639  33.862  29.383   3.713
10099W        W76640  10.309  21.716   4.006
10100W        W76641  27.490  29.178  11.235
10101W        W76642  18.337  12.934   5.206
10102W        W76643  23.965  17.497  12.993
10103W        W76644  40.097  40.257   2.778
10104W        W76645   8.698  41.004   0.853
10105W        W76646  44.281   3.014   3.454
10106W        W76647  40.524  16.644  13.355
10107W        W76648  13.813  44.479  10.423
10108W        W76649  29.395   6.977   1.309
10109W        W76650  36.230  15.718   1.453
10110W        W76651   7.246  31.333  13.071
10111W        W76652   1.402  42.956  12.364
10112W        W76653  17.756  27.487   3.012
10113W        W76654  15.640  27.482   4.320
10114W        W76655  19.059  14.791   4.950
10115W        W76656   6.642  37.044  11.653
10116W        W76657  29.146  35.292   4.432
10117W        W76658  23.987  10.275  12.945
10118W        W76659  28.715   1.773  13.441
10119W        W76660  38.167  42.646  13.620
10120W        W76661  39.735   4.885   0.969
10121W        W76662  32.443  33.864   3.829
10122W        W76663   8.479  15.465   4.540
10123W        W76664  25.025  42.843  10.562
10124W        W76665   4.406  26.621  11.925
10125W        W76666  33.228  12.002   4.628
10126W        W76667  32.456   4.311   1.126
10127W        W76668  29.172  10.731   0.184
10128W        W76669   7.225  16.266  11.506
10129W        W76670  38.825  32.301  14.865
10130W        W76671  19.706  15.524   1.245
10131W        W76672  17.873   1.285  11.581
10132W        W76673  21.262  43.002   3.238
10133W        W76674  20.510  43.872   1.375
10134W        W76675   8.482  13.030   3.385
10135W        W76676  30.901  29.224   0.313
10136W        W76677   4.833   8.837  12.155
10137W        W76678  30.540  13.286  13.121
10138W        W76679   2.005   8.656   0.590
10139W        W76680  38.622  24.092  11.545
10140W        W76681  19.004  30.328   2.243
10141W        W76682   1.887  42.077   1.965
10142W        W76683   3.015  24.314  14.223
10143W        W76684  33.678  44.394  12.381
10144W        W76685  20.545  44.458   3.587
10145W        W76686  22.962  37.785   3.848
10146W        W76687  36.322  36.609  13.982
10147W        W76688  41.287  41.139  14.434
10148W        W76689   9.545  11.329  14.840
10149W        W76690  12.106  23.211  13.577
10150W        W76691   3.102  42.067   4.217
10151W        W76692  36.766  37.387   0.367
10152W        W76693  44.567  18.850  14.740
10153W        W76694  12.786  33.610  12.981
10154W        W76695  20.656   5.663  13.812
10155W        W76696  22.462   3.216   3.749
10156W        W76697  34.947  19.046   3.564
10157W        W76698  41.709  32.585  12.943
10158W        W76699   8.622   5.321   0.383
10159W        W76700  19.505  12.370  13.444
10160W        W76701  13.703  34.006   4.554
10161W        W76702  13.283   8.213   4.225
10162W        W76703   1.192   1.813  11.089
10163W        W76704  37.361  14.624   3.426
10164W        W76705  36.101  18.450   4.198
10165W        W76706  12.028  39.099  12.585
10166W        W76707  39.399  32.758   1.258
10167W        W76708  17.007  35.980  12.424
10168W        W76709  28.163  39.480   1.782
10169W        W76710  29.005  42.087  12.849
10170W        W76711  27.662  21.570  14.253
10171W        W76712  41.109  10.888   0.843
10172W        W76713  37.500  16.688   2.111
10173W        W76714   7.661  35.772  14.687
10174W        W76715   9.793  37.969  12.570
10175W        W76716  43.262  25.478  11.059
10176W        W76717  18.329  43.319  12.057
10177W        W76718  10.683  18.507  10.495
10178W        W76719  41.395  41.990  13.153
10179W        W76720  39.049   5.700  12.922
10180W        W76721  35.015  24.797  11.985
10181W        W76722  12.741  31.799  13.031
10182W        W76723  31.969  18.453   1.696
10183W        W76724  22.933   6.857  13.299
10184W        W76725  33.940   9.806   3.120
10185W        W76726  35.913  17.071   0.414
10186W        W76727  25.435  28.031  12.048
10187W        W76728  30.865  34.476  13.818
10188W        W76729  22.352  42.940  11.298
10189W        W76730  32.914  38.138  13.976
10190W        W76731  27.432  31.633  11.216
10191W        W76732  20.059  24.574  12.598
10192W        W76733  26.509  43.251   3.191
10193W        W76734  11.799  11.333   1.819
10194W        W76735  31.081  16.782   2.638
10195W        W76736  27.697  25.780  12.534
10196W        W76737  43.632  24.567   4.713
10197W        W76738  33.490  32.439   1.433
10198W        W76739  20.747  23.789  14.318
10199W        W76740  21.637  33.065   1.255
10200W        W76741  21.183  18.124   2.681
10201W        W76742  38.500  30.862  14.764
10202W        W76743   9.122  30.667   0.304
10203W        W76744  28.222   9.035   0.847
10204W        W76745  21.159  18.582   4.562
10205W        W76746  31.039  38.725  10.815
10206W        W76747  40.083  28.931  13.938
10207W        W76748   6.590  22.934   4.943
10208W        W76749  25.402  23.622  12.431
10209W        W76750  20.703  36.165  12.608
10210W        W76751  24.125  19.174   4.213
10211W        W76752   1.891  40.395  10.675
10212W        W76753  38.556  40.951   3.244
10213W        W76754  37.037  35.065  12.547
10214W        W76755  16.692  32.871  13.429
10215W        W76756   5.836  29.645  11.226
10216W        W76757  19.995  38.870  10.952
10217W        W76758  19.623   2.563   1.180
10218W        W76759  38.004  14.145   0.756
10219W        W76760  32.276  43.500  13.087
10220W        W76761  38.610   0.318  14.615
10221W        W76762   1.984  20.498  13.137
10222W        W76763  10.740  18.707  13.914
10223W        W76764  28.044   5.207   1.285
10224W        W76765  43.560  44.460  14.320
10225W        W76766   6.332  41.407   3.672
10226W        W76767  41.553  40.975  10.582
10227W        W76768  22.491  17.032  10.258
10228W        W76769  25.604  29.660  14.512
10229W        W76770   6.728  39.394  11.760
10230W        W76771  11.122  44.848  13.889
10231W        W76772  26.634  22.096   1.002
10232W        W76773  28.419  20.051  14.345
10233W        W76774  23.656  30.484   4.090
10234W        W76775  21.626  27.960  11.624
10235W        W76776   7.367  19.326   4.158
10236W        W76777   9.277  28.037   4.458
10237W        W76778  43.675  20.725   4.239
10238W        W76779  17.343  37.166   0.151
10239W        W76780  16.263  28.527  12.618
10240W        W76781  36.223  21.690  12.876
10241W        W76782   4.437  11.278  13.980
10242W        W76783  11.821  12.254  10.217
10243W        W76784  41.399   0.948   1.512
10244W        W76785  15.797  32.098   5.286
10245W        W76786   2.318   7.706   2.260
10246W        W76787   3.395   2.282  14.685
10247W        W76788  27.941   6.380   0.473
10248W        W76789  28.504  10.637  14.880
10249W        W76790  30.235  13.291  12.381
10250W        W76791  23.769  35.332  11.185
10251W        W76792  32.541  39.116   0.475
10252W        W76793  35.978   9.135   0.279
10253W        W76794  24.721   5.743  11.871
10254W        W76795  17.332  42.359  14.844
10255W        W76796  44.153   6.111   2.294
10256W        W76797  34.336  14.677  10.748
10257W        W76798  30.462  17.575   0.448
10258W        W76799  26.069  20.862  12.928
10259W        W76800  17.553  13.035   2.395
10260W        W76801  31.079  41.213   0.201
10261W        W76802   6.652  44.722  12.152
10262W        W76803  28.716   3.924   3.266
10263W        W76804  19.585   3.992   3.585
10264W        W76805  43.244  30.519   0.595
10265W        W76806  26.031  17.149   2.654
10266W        W76807  35.415   9.781   1.858
10267W        W76808  39.280  32.022  10.150
10268W        W76809  44.567  22.383  13.374
10269W        W76810   9.804  43.820   0.489
10270W        W76811  28.081  12.860  14.824
10271W        W76812  22.018  27.714   3.175
10272W        W76813   6.337  11.583   1.188
10273W        W76814   2.822   0.593  11.100
10274W        W76815   9.186  24.113   2.780
10275W        W76816  44.349  33.494   0.389
10276W        W76817   0.503  16.580   0.770
10277W        W76818  37.593  18.531  14.169
10278W        W76819  42.400  26.782  12.455
10279W        W76820   3.362  18.460   1.181
10280W        W76821  25.508  42.818   0.521
10281W        W76822  23.227  37.053  11.173
10282W        W76823  24.480  18.251   0.384
10283W        W76824  15.175  33.244   2.318
10284W        W76825  35.181   7.492   0.969
10285W        W76826  19.554  29.678  13.509
10286W        W76827  12.892  26.127   3.431
10287W        W76828  29.206  42.011  13.817
10288W        W76829  14.787  11.967  13.966
10289W        W76830  40.305   0.386  13.276
10290W        W76831  29.969  31.324   0.981
10291W        W76832   4.226  16.116  12.544
10292W        W76833  26.533  16.323   4.109
10293W        W76834  30.366  41.361  11.470
10294W        W76835  26.755  25.788   2.767
10295W        W76836  23.265   1.159  13.508
10296W        W76837  24.209  29.507  10.974
10297W        W76838  42.960   0.022  13.811
10298W        W76839  14.153  41.036  12.397
10299W        W76840  41.304  10.622   3.696
10300W        W76841  31.486  24.308  14.022
10301W        W76842  17.640  29.705   2.247
10302W        W76843  35.477  18.540   1.443
10303W        W76844  25.184  42.470   2.765
10304W        W76845   3.256  25.269  13.383
10305W        W76846  20.230   5.931  12.530
10306W        W76847  24.634  42.987   4.902
10307W        W76848  20.720  13.586  10.793
10308W        W76849  43.870  30.458  12.775
10309W        W76850  43.198  37.179   3.368
10310W        W76851  41.996  16.437   4.273
10311W        W76852  28.493  20.120   0.305
10312W        W76853  37.001   5.313  12.210
10313W        W76854  10.746   3.919   0.780
10314W        W76855  10.821   8.243   2.267
10315W        W76856  11.623  38.490   2.308
10316W        W76857   3.477  15.709   4.171
10317W        W76858  23.076  25.208   2.137
10318W        W76859  16.973  30.684   4.181
10319W        W76860   8.484  16.554   2.926
10320W        W76861  13.334  17.000   2.307
10321W        W76862  23.067  16.258  13.771
10322W        W76863  14.726  39.728   0.020
10323W        W76864   8.460  39.968   5.532
10324W        W76865  23.557  40.848   2.135
10325W        W76866  33.845  21.758  14.833
10326W        W76867   7.407   4.058   4.199
10327W        W76868  42.360  34.310  14.796
10328W        W76869  31.934  12.198  12.499
10329W        W76870  28.443  44.328  11.115
10330W        W76871  18.528  35.394   4.614
10331W        W76872  14.617  22.125  14.382
10332W        W76873  26.658  29.553  10.944
10333W        W76874  22.255   0.413   4.371
10334W        W76875  40.237  40.987   4.491
10335W        W76876  20.124  29.469  10.669
10336W        W76877  39.849  42.407  12.054
10337W        W76878  25.027  15.812  14.822
10338W        W76879   0.956   2.954  13.763
10339W        W76880   6.373  22.547   3.289
10340W        W76881   7.284  12.543   2.587
10341W        W76882  42.872  29.628  12.472
10342W        W76883  20.174  32.803  12.105
10343W        W76884   7.861   6.678   2.685
10344W        W76885  22.816   9.875  14.287
10345W        W76886  16.588   9.252   1.900
10346W        W76887  33.023  38.072  14.836
10347W        W76888   3.033  21.008  11.571
10348W        W76889  20.165  32.370  14.248
10349W        W76890  27.566  23.312   5.013
10350W        W76891  32.904  18.616   4.533
10351W        W76892  43.403  15.601  12.627
10352W        W76893  17.613   2.425  12.725
10353W        W76894  13.735  27.856  11.528
10354W        W76895  15.162  35.367  13.304
10355W        W76896  10.861  34.901  13.522
10356W        W76897   8.597  28.452   0.795
10357W        W76898  33.886  18.241  12.522
10358W        W76899  31.677  21.282   0.881
10359W        W76900   6.318  12.858   1.363
10360W        W76901   1.323  25.215  11.643
10361W        W76902  14.172  30.610   0.018
10362W        W76903  26.235   4.657  11.171
10363W        W76904   4.415  24.229  11.149
10364W        W76905   4.812  17.330   4.315
10365W        W76906   3.707  39.520  12.337
10366W        W76907  19.648  17.102  14.515
10367W        W76908  10.331  17.515  14.870
10368W        W76909   8.397  31.017   4.056
10369W        W76910  14.650  20.362  13.373
10370W        W76911  36.964   6.701   3.070
10371W        W76912  35.583  28.436   2.375
10372W        W76913  14.728  42.870   0.102
10373W        W76914  23.087  24.267   2.791
10374W        W76915   2.884  39.977  11.579
10375W        W76916  18.365  22.772   0.552
10376W        W76917  26.407  18.344   2.111
10377W        W76918   5.699  12.341  14.391
10378W        W76919   5.322  16.868  13.798
10379W        W76920  35.485  32.454  10.740
10380W        W76921  23.707  30.101   1.332
10381W        W76922  25.926   7.673   4.106
10382W        W76923  15.354  31.576  12.092
10383W        W76924  32.198  16.660  14.935
10384W        W76925  10.830   6.168  14.453
10385W        W76926  38.453  12.258   0.673
10386W        W76927  40.485  20.090  14.745
10387W        W76928  13.274   6.250  11.608
10388W        W76929  37.145  43.291   0.881
10389W        W76930  12.613  19.954  12.849
10390W        W76931  30.547  11.822  11.200
10391W        W76932  10.405  10.922   1.705
10392W        W76933  25.536  13.688  11.849
10393W        W76934  31.641  22.495  13.832
10394W        W76935  36.673  39.345  12.058
10395W        W76936  30.157  29.039   3.151
10396W        W76937   8.755  24.679   0.388
10397W        W76938  39.498  27.498  11.148
10398W        W76939  28.489  38.083   2.269
10399W        W76940  33.400  11.155   4.509
10400W        W76941  11.974   3.373   5.024
10401W        W76942  39.850  14.410   2.744
10402W        W76943  44.857  30.338  13.905
10403W        W76944  35.283  42.828   0.935
10404W        W76945  16.618   5.169   4.615
10405W        W76946  14.714  29.535  13.174
10406W        W76947  39.484  38.990  11.224
10407W        W76948  27.557  43.547   3.246
10408W        W76949  13.668  44.935   4.233
10409W        W76950  32.937   1.519   4.649
10410W        W76951  11.928  14.615  11.495
10411W        W76952  19.571  20.578   1.482
10412W        W76953  11.662  28.054  10.765
10413W        W76954  32.283  23.528   3.767
10414W        W76955  33.535  42.053  12.441
10415W        W76956  39.092  40.083  13.437
10416W        W76957  37.137   0.866   0.238
10417W        W76958  43.823  12.502   3.887
10418W        W76959  44.180   8.731  12.047
10419W        W76960   4.096  33.835  12.877
10420W        W76961   7.245  16.002  14.949
10421W        W76962  24.460  12.626  10.536
10422W        W76963  35.002  43.000  14.454
10423W        W76964   5.265   0.527  13.386
10424W        W76965  20.716  34.876   4.769
10425W        W76966  11.862  30.676   4.247
10426W        W76967  43.230  29.156  12.079
10427W        W76968  10.622   1.404   4.267
10428W        W76969  36.050  14.578   2.203
10429W        W76970  42.254  24.461  14.701
10430W        W76971  41.790  30.408   1.391
10431W        W76972  40.532  34.569  12.131
10432W        W76973  21.578  39.873  13.855
10433W        W76974  29.012  21.179  12.034
10434W        W76975   1.275  27.695  13.265
10435W        W76976  36.380  15.248  11.546
10436W        W76977  10.744  36.435   0.533
10437W        W76978   2.913  22.904   3.679
10438W        W76979   6.234   0.826   1.359
10439W        W76980  10.650   3.777  11.586
10440W        W76981  23.196  13.414   2.918
10441W        W76982  36.049  31.531   2.468
10442W        W76983  13.031  11.025   3.578
10443W        W76984  39.863  22.984   2.183
10444W        W76985  36.857  11.515   4.102
10445W        W76986  32.163   1.321   2.179
10446W        W76987   3.699  35.897   2.906
10447W        W76988  33.421   0.737   9.642
10448W        W76989  29.596  16.302  10.598
10449W        W76990  38.983  13.607   0.297
10450W        W76991   4.344  13.982  12.451
10451W        W76992  25.748  10.430   1.353
10452W        W76993  39.842  11.257   3.261
10453W        W76994  38.149  42.858  11.526
10454W        W76995  37.842   9.508  14.911
10455W        W76996  22.521  10.548   0.797
10456W        W76997  28.224  23.047   1.973
10457W        W76998  33.155  12.542   4.291
10458W        W76999  13.017  24.578   4.492
10459W        W77000  38.325  20.324   2.895
10460W        W77001  41.739  10.973  13.351
10461W        W77002  44.994   3.268   1.198
10462W        W77003  10.484  39.011  11.084
10463W        W77004  32.203  25.231  13.923
10464W        W77005  25.404  41.913   4.007
10465W        W77006  42.423  11.898   2.892
10466W        W77007  14.658   8.969  11.325
10467W        W77008  35.191  19.091   4.860
10468W        W77009   5.457  18.215  12.410
10469W        W77010  10.571   2.511   4.292
10470W        W77011   1.290  42.923   2.153
10471W        W77012  10.189  42.796   0.960
10472W        W77013  13.236  24.698   4.028
10473W        W77014  38.877  43.434  13.512
10474W        W77015  40.725  27.720   4.711
10475W        W77016  11.830  21.350  11.559
10476W        W77017  14.252  14.307   3.122
10477W        W77018  42.782  31.153  13.089
10478W        W77019  13.404  44.924   2.197
10479W        W77020  16.147   4.608   0.589
10480W        W77021  17.542  16.593  14.764
10481W        W77022  14.831  37.606  12.583
10482W        W77023   3.206   8.338  14.846
10483W        W77024  16.843  41.228  13.823
10484W        W77025  22.409   1.223  13.803
10485W        W77026  35.763  28.818  11.295
10486W        W77027  35.103  38.459  10.693
10487W        W77028   8.209   4.364   1.537
10488W        W77029  22.608  25.194  14.475
10489W        W77030  35.479  10.297   4.737
10490W        W77031  16.044   1.044  11.400
10491W        W77032  21.150  41.865   2.802
10492W        W77033  30.017   7.458  12.339
10493W        W77034  37.615  15.068   3.293
10494W        W77035  26.843  39.352   0.989
10495W        W77036  17.150   1.721  12.509
10496W        W77037  17.257  13.854   1.465
10497W        W77038   5.480  38.969   4.958
10498W        W77039   1.175  44.735  11.994
10499W        W77040  19.063  20.818  12.740
10500W        W77041   7.663   2.163   3.031
10501W        W77042  12.130  27.178  14.550
10502W        W77043  22.707  40.425  13.363
10503W        W77044  21.549  32.994   3.825
10504W        W77045  36.133  27.868   3.935
10505W        W77046  31.642   6.769  14.437
10506W        W77047  31.890   7.285   0.661
10507W        W77048  30.922  43.916  13.957
10508W        W77049  40.406  21.239  12.987
10509W        W77050  43.289  21.294   0.262
10510W        W77051  16.849  14.352   0.247
10511W        W77052   1.439  21.053  12.517
10512W        W77053  27.618  44.533  13.593
10513W        W77054  30.868  33.007  12.025
10514W        W77055   6.880  17.651   0.043
10515W        W77056   3.269  12.409   4.742
10516W        W77057  39.071  28.112   2.691
10517W        W77058  31.232  31.895  14.301
10518W        W77059  25.866  30.366   4.854
10519W        W77060  16.778  16.640  14.484
10520W        W77061   6.775  17.116  13.954
10521W        W77062  10.738  16.129  11.469
10522W        W77063   3.433  10.681   1.315
10523W        W77064   3.691  43.028  13.013
10524W        W77065  33.893  30.106   3.295
10525W        W77066  14.452  35.814  13.370
10526W        W77067  28.173   8.851  13.396
10527W        W77068  42.970  11.723   4.535
10528W        W77069  25.059  18.476   1.278
10529W        W77070  33.070   5.828   5.623
10530W        W77071  29.397  34.849   1.375
10531W        W77072  20.413  35.498   1.881
10532W        W77073   6.893  39.756   0.842
10533W        W77074   1.645   7.858   4.374
10534W        W77075  40.722  41.961  13.963
10535W        W77076   4.433  35.863  12.096
10536W        W77077   4.825   6.012  10.747
10537W        W77078  40.572  40.351  14.422
10538W        W77079  15.284  37.523   1.759
10539W        W77080   3.206  44.003   1.686
10540W        W77081  29.050  19.048   4.181
10541W        W77082  41.753  26.125   3.387
10542W        W77083  11.266  26.051   4.053
10543W        W77084   3.713  21.748   0.391
10544W        W77085  25.402  23.118  11.893
10545W        W77086  16.759  34.509   2.383
10546W        W77087  44.805  24.270   4.706
10547W        W77088  31.291   8.151   4.487
10548W        W77089  10.102  17.626  11.656
10549W        W77090  29.104   7.180   3.735
10550W        W77091  42.271   4.389  13.875
10551W        W77092  10.279  16.878  13.047
10552W        W77093  35.997   9.119  13.015
10553W        W77094  18.897  38.742   3.535
10554W        W77095  10.954  28.208   2.552
10555W        W77096  37.634  18.365   4.574
10556W        W77097  33.060  21.321   1.426
10557W        W77098  36.535   4.796  12.386
10558W        W77099  22.116  38.562   0.923
10559W        W77100  21.170  19.551   3.634
10560W        W77101  14.681  30.901  12.466
10561W        W77102  23.550  37.394  14.027
10562W        W77103  32.152  31.461  11.646
10563W        W77104  24.617  10.718  13.992
10564W        W77105  18.222   5.346  14.945
10565W        W77106  44.265   5.514   1.146
10566W        W77107  24.649  18.298   2.834
10567W        W77108  13.115   8.655   4.937
10568W        W77109  22.813  17.795  14.370
10569W        W77110  31.084  21.907  10.819
10570W        W77111  14.277  39.477  14.947
10571W        W77112  35.981  35.544   4.622
10572W        W77113  30.863  22.072   4.164
10573W        W77114  20.313  20.330   4.865
10574W        W77115  39.073  31.310  13.161
10575W        W77116  28.979  38.580   4.673
10576W        W77117  25.165   9.498  14.886
10577W        W77118  12.121   8.859  12.017
10578W        W77119  39.695  42.768   1.112
10579W        W77120   5.544  39.905  13.429
10580W        W77121  18.366  29.323   2.845
10581W        W77122   5.829  34.470  10.688
10582W        W77123  21.861   7.085   4.190
10583W        W77124  34.606  29.517   3.434
10584W        W77125  19.523  39.070   2.704
10585W        W77126  38.883   5.262  11.692
10586W        W77127  25.464  39.710   0.375
10587W        W77128   2.098  17.396   0.841
10588W        W77129  21.070  10.398  14.842
10589W        W77130  28.917  17.353  10.552
10590W        W77131   1.326  11.038   1.680
10591W        W77132  25.136   4.968  12.106
10592W        W77133  42.964  23.103   1.180
10593W        W77134  23.798  36.017  10.705
10594W        W77135  41.528   5.130  14.131
10595W        W77136   1.780  31.199  13.821
10596W        W77137   5.191  27.185  11.869
10597W        W77138  11.131   4.218  13.480
10598W        W77139   4.238  41.309   3.287
10599W        W77140  17.912   7.959   3.027
10600W        W77141  39.072  35.642   3.709
10601W        W77142  32.462  10.788   4.640
10602W        W77143   6.202  23.762   1.865
10603W        W77144  31.024  13.193  10.297
10604W        W77145  22.907  23.098   0.995
10605W        W77146   9.360  15.341   4.127
10606W        W77147  32.552  44.124  12.378
10607W        W77148  16.973  44.884   4.041
10608W        W77149   5.694  27.507  12.526
10609W        W77150  32.393   5.646   1.783
10610W        W77151  39.467  12.336  10.280
10611W        W77152  33.944  33.748   2.594
10612W        W77153  17.111  41.265   4.997
10613W        W77154   4.927  13.329  12.421
10614W        W77155  18.297   8.879   3.380
10615W        W77156  22.492  38.286  12.525
10616W        W77157   7.172  28.787  13.356
10617W        W77158  36.179  20.046   1.301
10618W        W77159  41.387  39.408   4.695
10619W        W77160  29.551  17.264   2.664
10620W        W77161  11.753  22.106   1.496
10621W        W77162  27.605  41.729   3.553
10622W        W77163  18.976  12.135   1.413
10623W        W77164  30.137  33.061   1.972
10624W        W77165  12.842  22.624   2.576
10625W        W77166  35.887  14.055   0.894
10626W        W77167  27.779  25.789  13.375
10627W        W77168  32.656  24.809  13.592
10628W        W77169  32.547  44.417   0.288
10629W        W77170  21.613  26.140   3.260
10630W        W77171  17.206  27.588  10.774
10631W        W77172  21.816  10.544   0.311
10632W        W77173  40.033  11.682  14.222
10633W        W77174  39.574   8.184  12.401
10634W        W77175  18.114  33.558   2.393
10635W        W77176   9.614  26.033   2.616
10636W        W77177  40.363  38.268  11.555
10637W        W77178  22.109  40.074  13.214
10638W        W77179   5.995   8.268  13.302
10639W        W77180  14.784   0.857   1.639
10640W        W77181  27.604  30.027  12.328
10641W        W77182   1.865  29.152  14.701
10642W        W77183   3.839  28.155  10.976
10643W        W77184  32.494   7.497   1.290
10644W        W77185   5.615  36.898   1.878
10645W        W77186  18.272  41.017   0.545
10646W        W77187  43.832  18.111  13.341
10647W        W77188   1.790  44.938  13.026
10648W        W77189   0.997  36.865   0.224
10649W        W77190  34.666  25.529   0.398
10650W        W77191   3.030  22.462   2.677
10651W        W77192   2.758  17.230   3.384
10652W        W77193  21.297  13.129  10.665
10653W        W77194   2.300  35.309   1.881
10654W        W77195   3.651  43.685  12.503
10655W        W77196  33.839  19.569   2.196
10656W        W77197  44.224  11.602   3.200
10657W        W77198  20.220   0.866  14.975
10658W        W77199   1.328  42.926  10.917
10659W        W77200  31.129   3.798   0.465
10660W        W77201   8.198  39.803   1.042
10661W        W77202  26.603  31.986   4.030
10662W        W77203   1.845   7.849   1.487
10663W        W77204  42.123  42.353   0.189
10664W        W77205  34.916  43.736  10.601
10665W        W77206   4.171  26.922   4.181
10666W        W77207  12.622  23.754  13.795
10667W        W77208  26.453  44.309  10.445
10668W        W77209  34.123  35.473   4.407
10669W        W77210  25.520  30.611  12.684
10670W        W77211  30.907  16.196  10.637
10671W        W77212  10.070  15.044  11.690
10672W        W77213  15.946  39.131  12.674
10673W        W77214  44.073  29.432  14.482
10674W        W77215  33.718  21.436   1.900
10675W        W77216  12.119  30.465  13.385
10676W        W77217  29.367  19.557   5.044
10677W        W77218  23.080   3.765  10.951
10678W        W77219   4.180  44.378  10.699
10679W        W77220   5.837  42.396   2.833
10680W        W77221   8.200  23.685  12.319
10681W        W77222   6.746   8.216  11.145
10682W        W77223  26.761  40.396  12.141
10683W        W77224  22.472  10.575  13.064
10684W        W77225  39.488  35.884   1.475
10685W        W77226  27.411  14.518  12.072
10686W        W77227  35.178  24.631  11.529
10687W        W77228  16.809  37.396  11.173
10688W        W77229   6.716   1.355   0.787
10689W        W77230  36.805  15.141   9.660
10690W        W77231  35.424   7.875   3.278
10691W        W77232  29.078  16.976   1.491
10692W        W77233  28.166  30.081  14.564
10693W        W77234   7.233  37.053   0.972
10694W        W77235  13.488  25.609   3.815
10695W        W77236  39.592   5.214   3.687
10696W        W77237   0.884  42.282  14.438
10697W        W77238  23.685  18.302  11.957
10698W        W77239   0.425   3.645   9.700
10699W        W77240  42.453  28.720  13.950
10700W        W77241  17.291  14.145   0.505
10701W        W77242  28.420  41.253   1.442
10702W        W77243   9.416   5.852   1.821
10703W        W77244  20.808  42.415   3.903
10704W        W77245   7.322  33.107  10.832
10705W        W77246  39.955  32.218  12.444
10706W        W77247  11.671  10.609  13.495
10707W        W77248  18.814   7.857   2.692
10708W        W77249  32.903  20.121   4.588
10709W        W77250   8.138  39.725   2.253
10710W        W77251  25.465  11.593  10.910
10711W        W77252   2.174  44.601  12.893
10712W        W77253  39.613   2.894   1.734
10713W        W77254  19.795  27.230   4.195
10714W        W77255  26.569  20.530  11.271
10715W        W77256  26.264  30.409   4.505
10716W        W77257  32.154  13.339  14.360
10717W        W77258  43.806  33.459  12.626
10718W        W77259  26.158  20.371  13.822
10719W        W77260  31.519  27.587   4.540
10720W        W77261   3.891   4.392   5.148
10721W        W77262  16.885   8.594   0.686
10722W        W77263  37.595  22.478   0.791
10723W        W77264  38.027  33.483   2.197
10724W        W77265  26.199  20.167  14.784
10725W        W77266  43.192  34.075   0.741
10726W        W77267   4.373  22.357  10.731
10727W        W77268   8.138  27.436   2.720
10728W        W77269   6.150   5.317  14.127
10729W        W77270  33.653  32.143   0.550
10730W        W77271  21.938  31.342   0.001
10731W        W77272   9.694  17.418  14.484
10732W        W77273  22.628  19.400  12.488
10733W        W77274  13.158  22.397   1.704
10734W        W77275  23.044  38.543   2.167
10735W        W77276   6.677  24.093  13.901
10736W        W77277   4.716  17.790   4.064
10737W        W77278  15.886  36.026   2.023
10738W        W77279  26.598  23.203  11.206
10739W        W77280  28.629  30.536  13.375
10740W        W77281  43.688  14.792   2.851
10741W        W77282   0.157  22.652   2.758
10742W        W77283   7.422   8.125   0.020
10743W        W77284  19.597  23.453  11.709
10744W        W77285  24.118  25.406  10.850
10745W        W77286  34.091  41.598   4.497
10746W        W77287  24.548  17.338   4.764
10747W        W77288   9.259  41.315   4.173
10748W        W77289  37.420   2.381  13.821
10749W        W77290  16.607  22.163  13.779
10750W        W77291  24.730  42.415   2.117
10751W        W77292  11.375  11.848   2.683
10752W        W77293  22.712  34.131   3.261
10753W        W77294   4.682  40.320   2.222
10754W        W77295  20.733  30.461  10.559
10755W        W77296  12.672  36.585  11.221
10756W        W77297   0.513  20.165  13.867
10757W        W77298  13.271  44.232   3.464
10758W        W77299  16.283  10.676   1.010
10759W        W77300  14.222  19.374   3.663
10760W        W77301  13.572   0.005  11.627
10761W        W77302  20.741  10.955   4.977
10762W        W77303  39.002  39.558   0.166
10763W        W77304  36.686   9.623  11.917
10764W        W77305  42.807  35.889   4.374
10765W        W77306  34.815   8.678  14.546
10766W        W77307   7.673   3.911   2.704
10767W        W77308   2.020  14.732  12.453
10768W        W77309   3.444  26.763  11.608
10769W        W77310  14.520  10.217  12.177
10770W        W77311  22.785  31.570   1.860
10771W        W77312  38.174  27.000  12.397
10772W        W77313  34.911  35.265   3.692
10773W        W77314  27.492   6.506   4.665
10774W        W77315  35.830   9.650   1.537
10775W        W77316  34.015   2.957  12.999
10776W        W77317   8.448   6.744   1.522
10777W        W77318   6.353  33.052  13.449
10778W        W77319  10.725  20.329   2.721
10779W        W77320  25.653  18.353  12.472
10780W        W77321  44.971  26.186   4.508
10781W        W77322  40.729   3.305  12.443
10782W        W77323  16.708  40.059  14.757
10783W        W77324   9.499   8.179  12.433
10784W        W77325  30.982  29.466  11.877
10785W        W77326  44.592   1.977  13.000
10786W        W77327  13.172  19.294   0.575
10787W        W77328  22.014  37.457   4.831
10788W        W77329  35.046  29.592   4.912
10789W        W77330  27.812  17.133   3.209
10790W        W77331  37.808  35.277  12.995
10791W        W77332  39.887  21.497  10.470
10792W        W77333  42.822   8.408   0.446
10793W        W77334  18.677   9.107  11.128
10794W        W77335   4.948  43.014  10.410
10795W        W77336  39.402   5.877  11.013
10796W        W77337  16.084  17.101   2.410
10797W        W77338  29.244   9.219   0.665
10798W        W77339  12.101  12.035   0.447
10799W        W77340  26.458   3.932   0.839
10800W        W77341   7.126  30.038   3.225
10801W        W77342  23.664  25.918   3.859
10802W        W77343  44.048  38.863  14.917
10803W        W77344   3.157  33.205   1.534
10804W        W77345   2.855  13.649  14.062
10805W        W77346  44.673  38.859  13.682
10806W        W77347  11.283  31.803   2.734
10807W        W77348  34.883  19.787  14.375
10808W        W77349   5.305   4.118  13.920
10809W        W77350  35.351  10.816  13.110
10810W        W77351  32.537  39.824   2.333
10811W        W77352  35.855  16.658   1.422
10812W        W77353   1.021   2.178  13.087
10813W        W77354  41.093   7.648  14.302
10814W        W77355   7.290  37.028   2.602
10815W        W77356  39.969  15.022   0.981
10816W        W77357  22.051   3.732  11.128
10817W        W77358  26.949   3.815   0.670
10818W        W77359  42.732   0.922  14.968
10819W        W77360   0.092  22.590   0.382
10820W        W77361  24.062  42.223   3.998
10821W        W77362  41.370  40.181   3.188
10822W        W77363  18.068  35.877  14.478
10823W        W77364  27.460  16.997  11.641
10824W        W77365  37.072  37.170  13.536
10825W        W77366  21.494  17.427   0.915
10826W        W77367  19.234  20.746  14.247
10827W        W77368  32.661  22.307  13.141
10828W        W77369  28.094  26.637  13.806
10829W        W77370  27.649  39.992   0.787
10830W        W77371  10.404   4.442  12.927
10831W        W77372  19.585  15.877   4.615
10832W        W77373   4.212  15.120   1.190
10833W        W77374  30.627  25.959  10.359
10834W        W77375  33.570  36.267   4.326
10835W        W77376  19.241  19.106  11.991
10836W        W77377  35.562  28.510   3.876
10837W        W77378  28.710   5.049   1.789
10838W        W77379  20.501  29.586  14.379
10839W        W77380  14.771  42.202   4.955
10840W        W77381  10.283  27.119  14.240
10841W        W77382  13.190  21.844  14.348
10842W        W77383  36.631  14.260  10.698
10843W        W77384  23.446  42.802   1.430
10844W        W77385  31.400   4.802  12.349
10845W        W77386  24.658  24.078   4.518
10846W        W77387  24.834  11.416   4.110
10847W        W77388  12.775   0.444   1.741
10848W        W77389  16.788  14.162   4.162
10849W        W77390  33.585   1.513  12.129
10850W        W77391   5.664  22.725   4.737
10851W        W77392  34.184   1.301   4.112
10852W        W77393   0.403  19.569  10.690
10853W        W77394   3.373   7.069  12.418
10854W        W77395  16.812  30.363   5.073
10855W        W77396   3.932  19.239   2.684
10856W        W77397  18.354  16.040   0.560
10857W        W77398  37.894  35.468  10.821
10858W        W77399  36.557  36.419  14.902
10859W        W77400  44.713  44.446   0.365
10860W        W77401   2.648  44.432   3.626
10861W        W77402  25.095  18.292  11.981
10862W        W77403  33.376  15.984  13.346
10863W        W77404  43.273  25.179  14.487
10864W        W77405  14.893  15.994   1.320
10865W        W77406  11.341   4.926  13.109
10866W        W77407  34.116  28.428  10.637
10867W        W77408  17.602  43.834  13.525
10868W        W77409  44.298  23.539   1.155
10869W        W77410  30.094  22.196  11.141
10870W        W77411  39.607  20.875   1.682
10871W        W77412   9.112  13.890  12.004
10872W        W77413  29.483  11.294   4.207
10873W        W77414  41.265  41.337   3.611
10874W        W77415   3.665  28.599  14.794
10875W        W77416  42.578  18.061  14.903
10876W        W77417   2.838  40.712  14.928
10877W        W77418  41.226   3.875   4.365
10878W        W77419  14.358  29.199   3.691
10879W        W77420  36.532  18.391   4.533
10880W        W77421  29.360  13.854   2.116
10881W        W77422   2.552   6.726  13.935
10882W        W77423  14.090  13.732  10.697
10883W        W77424  12.344   0.529  12.664
10884W        W77425  17.266   4.665  12.522
10885W        W77426  40.961  19.237   0.320
10886W        W77427  21.566  37.448  14.936
10887W        W77428  33.540   2.435   3.566
10888W        W77429  27.430  14.130  13.034
10889W        W77430   8.341   0.637   2.345
10890W        W77431  33.014  21.456   2.357
10891W        W77432  28.657   9.140  12.506
10892W        W77433  41.673   4.072   4.585
10893W        W77434  14.822  22.687   4.119
10894W        W77435   4.954  18.726   4.498
10895W        W77436  16.252   5.496   3.721
10896W        W77437  35.322  40.464  11.184
10897W        W77438  23.150  15.549   0.826
10898W        W77439  42.888  26.504  11.656
10899W        W77440  40.611   1.739   4.478
10900W        W77441  15.280  38.551   4.015
10901W        W77442  25.506   1.861  11.506
10902W        W77443   8.627  14.061  12.175
10903W        W77444  40.806  39.447   1.198
10904W        W77445  33.448  40.874   3.279
10905W        W77446  15.633  44.287   2.137
10906W        W77447  32.959  41.457  14.838
10907W        W77448  10.872  22.889   0.414
10908W        W77449   1.162   2.676  13.383
10909W        W77450  28.945  17.586  12.134
10910W        W77451   5.940  12.884  10.676
10911W        W77452  19.700  29.726  14.849
10912W        W77453  43.281  18.793  11.199
10913W        W77454  29.950  20.281   0.477
10914W        W77455  30.153  19.002  12.453
10915W        W77456   5.457  32.737  13.601
10916W        W77457  11.184  32.760  12.994
10917W        W77458   7.413  43.474  12.177
10918W        W77459   5.573  39.470   4.194
10919W        W77460   1.355  29.101  14.888
10920W        W77461  19.227  16.610  13.858
10921W        W77462  29.107  39.295   3.545
10922W        W77463  12.021  23.197   3.141
10923W        W77464  11.404  20.599  14.965
10924W        W77465  19.633  31.167  12.543
10925W        W77466  32.841  40.153   1.966
10926W        W77467  19.732  28.650   2.008
10927W        W77468  20.876  36.450  13.908
10928W        W77469  10.229  30.565   2.047
10929W        W77470  25.649   5.768  14.313
10930W        W77471  30.039  41.873   3.250
10931W        W77472  26.622   4.343   1.993
10932W        W77473  43.410   8.921  10.843
10933W        W77474  19.477   3.275   0.658
10934W        W77475  15.614  34.140  10.636
10935W        W77476  39.949  36.495  11.167
10936W        W77477  17.974  10.819  13.430
10937W        W77478  34.009  37.847  13.974
10938W        W77479  34.991  42.863  11.689
10939W        W77480  43.842  38.984   4.319
10940W        W77481  28.585   0.210   3.528
10941W        W77482  21.286  16.099   0.863
10942W        W77483  34.970  19.801   1.262
10943W        W77484  42.326  42.368   1.991
10944W        W77485  29.420   3.168   3.637
10945W        W77486   6.832  26.701   3.203
10946W        W77487   8.295  42.124   4.965
10947W        W77488  40.323  16.238  13.060
10948W        W77489  31.499  26.570   3.603
10949W        W77490  12.797   0.675  12.857
10950W        W77491  29.357  19.957  11.158
10951W        W77492  42.377  15.229   2.567
10952W        W77493   1.303  20.703  11.064
10953W        W77494   9.193   5.378  13.034
10954W        W77495   5.388  28.662   2.439
10955W        W77496  18.186   5.379  12.905
10956W        W77497   3.256  19.019   4.213
10957W        W77498  24.894   7.376   3.724
10958W        W77499  12.443  38.461   3.379
10959W        W77500   6.969  36.947  10.296
10960W        W77501  33.539   8.299   1.240
10961W        W77502  30.075   7.840   4.103
10962W        W77503  43.889   7.311   2.647
10963W        W77504  18.523  33.753  10.347
10964W        W77505   9.689   1.069   4.584
10965W        W77506  34.432  27.612  11.943
10966W        W77507  27.096   8.251   1.158
10967W        W77508  24.625  26.186   1.314
10968W        W77509  43.082  10.093   1.887
10969W        W77510  11.048  20.263  10.745
10970W        W77511  36.747  32.011   4.953
10971W        W77512  25.144  16.624   1.967
10972W        W77513  41.378  43.854   1.968
10973W        W77514  29.087  33.417   4.142
10974W        W77515  29.423  28.464   2.753
10975W        W77516  14.158  27.096   3.773
10976W        W77517   9.830  34.448  12.210
10977W        W77518  24.980  11.687  13.000
10978W        W77519  41.124  35.119   4.777
10979W        W77520   1.102  21.801  14.068
10980W        W77521  14.740  38.546  11.023
10981W        W77522  30.382   2.277  10.649
10982W        W77523  38.879   6.905  11.178
10983W        W77524   7.674  22.360   3.688
10984W        W77525  25.087   4.149   4.149
10985W        W77526  40.537  28.153   1.424
10986W        W77527  34.134  22.210  14.915
10987W        W77528  14.074  16.236   0.947
10988W        W77529  22.507  37.569   4.690
10989W        W77530  35.128  38.942  13.617
10990W        W77531  29.838  34.566  13.691
10991W        W77532  10.243   5.676  14.901
10992W        W77533   8.553  28.828   2.665
10993W        W77534   4.419  18.661   0.968
10994W        W77535  28.698   6.439  11.815
10995W        W77536  35.836  33.842  14.899
10996W        W77537  41.913  41.017   0.659
10997W        W77538  31.110   5.154   2.585
10998W        W77539  44.048  11.387   1.244
10999W        W77540  40.613  38.607   0.236
11000W        W77541  43.075  32.871  14.136
11001W        W77542   8.184  43.508   1.231
11002W        W77543  31.566   4.654  13.245
11003W        W77544  40.413  31.567  12.026
11004W        W77545  21.198  13.293   2.750
11005W        W77546  35.402   1.501  14.379
11006W        W77547  42.261  15.248   0.375
11007W        W77548  41.503  37.510   3.106
11008W        W77549  35.905   3.990  11.850
11009W        W77550  35.787  33.310  14.932
11010W        W77551  39.158  33.635   3.692
11011W        W77552  18.264   1.050   4.579
11012W        W77553  31.595  21.640  11.607
11013W        W77554   0.309  32.486  10.747
11014W        W77555  13.812  32.403   3.252
11015W        W77556   1.233   9.805  14.093
11016W        W77557   2.722  14.331  12.172
11017W        W77558  36.505   3.792  10.690
11018W        W77559  21.984  42.109   4.479
11019W        W77560  38.573   8.389  11.138
11020W        W77561   7.599   7.781  12.443
11021W        W77562  15.118  17.711   1.462
11022W        W77563  14.566  37.081   3.231
11023W        W77564  18.347   5.317   0.450
11024W        W77565  13.248  43.443   2.836
11025W        W77566  31.123   5.883  10.503
11026W        W77567  12.412  11.675   0.738
11027W        W77568   6.436  38.017   1.216
11028W        W77569  27.990  24.670  14.807
11029W        W77570  15.367  29.927   2.391
11030W        W77571  18.199   2.315   2.755
11031W        W77572  36.699  41.169  11.274
11032W        W77573   9.217  14.509   3.907
11033W        W77574   1.239   2.961  11.910
11034W        W77575  26.591   4.716   3.642
11035W        W77576  24.406  33.115   2.370
11036W        W77577  18.004  15.035   2.396
11037W        W77578  38.365  41.809   3.539
11038W        W77579  18.203  28.055  10.691
11039W        W77580  11.445  38.500   3.210
11040W        W77581  27.119  12.233  13.528
11041W        W77582   8.822   5.608  12.739
11042W        W77583  11.548  44.659   1.356
11043W        W77584  31.583  18.018   3.462
11044W        W77585  14.121  39.312  10.715
11045W        W77586  16.099  32.173  12.268
11046W        W77587  19.778   3.702   3.220
11047W        W77588  10.412  38.539  10.404
11048W        W77589  15.992  17.814   1.958
11049W        W77590  41.330  12.159  11.124
11050W        W77591  20.469  22.106  12.778
11051W        W77592   6.365   4.674  13.452
11052W        W77593  11.159  30.646   0.796
11053W        W77594  18.914   5.983  13.575
11054W        W77595   4.051  12.731  12.931
11055W        W77596  41.409  37.058  13.582
11056W        W77597  35.886   8.149   2.388
11057W        W77598   0.275  44.830   1.805
11058W        W77599   7.834  26.924   0.956
11059W        W77600   0.278   2.488   2.620
11060W        W77601  19.339   5.265  14.991
11061W        W77602   6.600  38.483   1.053
11062W        W77603  38.947  38.576  10.266
11063W        W77604  32.393  18.961   2.199
11064W        W77605   9.263  36.085  14.049
11065W        W77606  25.692  20.087  14.809
11066W        W77607  30.642   5.020   3.028
11067W        W77608  10.138   6.332   2.698
11068W        W77609  21.151  35.127  12.672
11069W        W77610  35.989  12.552  10.661
11070W        W77611   5.426  16.299   2.374
11071W        W77612   8.704   5.565   0.968
11072W        W77613  42.916   5.666  12.407
11073W        W77614   2.240   9.414   2.638
11074W        W77615   3.148   0.854   4.989
11075W        W77616  14.238  40.823  12.876
11076W        W77617  32.342   1.718  10.802
11077W        W77618  28.884  39.460   2.666
11078W        W77619  28.958  41.534  10.805
11079W        W77620  44.058  25.611  14.757
11080W        W77621  34.948  41.243   3.073
11081W        W77622  18.588  26.032  11.741
11082W        W77623   9.589   2.866   2.422
11083W        W77624  42.792   0.551  13.166
11084W        W77625  18.105  42.932  12.317
11085W        W77626  28.944   7.109  14.743
11086W        W77627  42.525  32.925  10.464
11087W        W77628   6.857  33.006  13.542
11088W        W77629   2.148  17.096  14.462
11089W        W77630  32.850  35.395   3.364
11090W        W77631  35.099  28.323   2.240
11091W        W77632  40.046   6.187   3.256
11092W        W77633  43.516  44.720  12.193
11093W        W77634  18.030  29.707  14.587
11094W        W77635  11.370  19.353   0.347
11095W        W77636  30.464  32.347  11.512
11096W        W77637  23.007   3.658  10.210
11097W        W77638  18.321   1.430  13.920
11098W        W77639  16.597  31.460  13.952
11099W        W77640  35.046  37.395  10.384
11100W        W77641  34.402  32.554  13.860
11101W        W77642  11.456  41.195  12.921
11102W        W77643  25.728  36.783  11.424
11103W        W77644  31.927  31.918  11.655
11104W        W77645   7.902  16.013   1.094
11105W        W77646  38.424  13.177   3.215
11106W        W77647   5.340   0.324  14.794
11107W        W77648  42.383  29.170  10.818
11108W        W77649  23.773  16.340   2.322
11109W        W77650  31.755  16.814   1.202
11110W        W77651  23.335  31.447  12.616
11111W        W77652  31.469  27.999  13.504
11112W        W77653  42.945  41.093  14.868
11113W        W77654  40.927  20.789  14.500
11114W        W77655  29.070  33.866   0.995
11115W        W77656  44.412  12.594   0.529
11116W        W77657  34.429  28.650   3.408
11117W        W77658   5.343  19.999  13.841
11118W        W77659  11.221  27.972   4.012
11119W        W77660  42.429   4.797  14.878
11120W        W77661  19.587  43.983  12.033
11121W        W77662  25.627  21.126   0.712
11122W        W77663   4.141   0.923  14.972
11123W        W77664  41.467  43.629  11.318
11124W        W77665  14.428   2.546   4.862
11125W        W77666  25.249  30.756   2.869
11126W        W77667  15.138  19.539  11.093
11127W        W77668  17.454  12.221   3.381
11128W        W77669   7.738  22.192   1.420
11129W        W77670  25.955   2.749  11.961
11130W        W77671  26.186  41.113  12.495
11131W        W77672  36.595  42.898  11.452
11132W        W77673  40.713  23.199  14.476
11133W        W77674  18.638  25.556   3.997
11134W        W77675  24.972  32.417   1.934
11135W        W77676  36.053  38.510  14.498
11136W        W77677   1.630   6.864   1.189
11137W        W77678  25.807  36.815   3.192
11138W        W77679  15.832  13.420   2.714
11139W        W77680  14.944  43.742   1.744
11140W        W77681  11.797  10.112  13.025
11141W        W77682  17.731   8.438   3.094
11142W        W77683  40.951  33.512   4.896
11143W        W77684  11.319  29.438  14.622
11144W        W77685  41.006   2.893  12.368
11145W        W77686   8.343   1.473   2.877
11146W        W77687  41.618  12.203   3.262
11147W        W77688  13.350   2.518  12.256
11148W        W77689  25.307   3.406   3.049
11149W        W77690  13.984  35.510  11.022
11150W        W77691  31.609  17.911  14.400
11151W        W77692  29.639  24.094  12.929
11152W        W77693  10.594  19.237   1.895
11153W        W77694   7.479   2.858  10.883
11154W        W77695  37.782   7.238   1.471
11155W        W77696   0.841  43.540   2.145
11156W        W77697  11.269   8.694   3.073
11157W        W77698  20.419  25.565  11.225
11158W        W77699  43.766  35.813   0.268
11159W        W77700  44.937  11.114  13.576
11160W        W77701  44.003  37.060   4.055
11161W        W77702   2.649  33.496  14.291
11162W        W77703  38.113  25.173  12.579
11163W        W77704   6.896  35.891   0.795
11164W        W77705  36.545  17.348   4.553
11165W        W77706   3.847   2.874  12.668
11166W        W77707  27.172   7.420  13.096
11167W        W77708  21.822  25.848  14.729
11168W        W77709  38.611   3.773   3.374
11169W        W77710  13.896  43.463  14.877
11170W        W77711  22.670   8.521   2.988
11171W        W77712  25.318   6.245   4.717
11172W        W77713  41.278  39.159  10.767
11173W        W77714   4.779  41.032   0.020
11174W        W77715  29.922  31.325   0.310
11175W        W77716  21.066  13.636  13.997
11176W        W77717  20.647  21.874   1.852
11177W        W77718  40.906   9.257   0.507
11178W        W77719  22.684  35.825   2.155
11179W        W77720   0.024  15.624   2.657
11180W        W77721   5.809  31.260   4.334
11181W        W77722   2.282  22.091   2.031
11182W        W77723  10.027  35.608   2.445
11183W        W77724  16.140   5.197   2.332
11184W        W77725  13.837  24.669  11.216
11185W        W77726  10.708  42.934   2.731
11186W        W77727  18.964  29.877  11.318
11187W        W77728  19.085  13.009   4.047
11188W        W77729  42.549   4.832  13.950
11189W        W77730  35.852  15.056  11.453
11190W        W77731  40.185  44.685   0.781
11191W        W77732  19.015  12.160  10.767
11192W        W77733  23.545   0.175   0.835
11193W        W77734  28.217   3.398  10.703
11194W        W77735  12.820  14.282   3.151
11195W        W77736  12.626   4.249   3.303
11196W        W77737  35.091  32.412  14.844
11197W        W77738  33.882  17.665   2.563
11198W        W77739  30.434  30.088   0.899
11199W        W77740  16.095  44.520  12.748
11200W        W77741  32.602  34.126  14.365
11201W        W77742  42.696  37.919  12.682
11202W        W77743  18.138  38.087  11.063
11203W        W77744  16.366  25.008  11.685
11204W        W77745  36.009  37.776  13.860
11205W        W77746  36.087  34.040   2.302
11206W        W77747  29.882  42.910   1.212
11207W        W77748  21.972  43.061   1.243
11208W        W77749  23.151   3.322  11.711
11209W        W77750  13.666  38.239   4.276
11210W        W77751  10.793  22.201   1.356
11211W        W77752  38.029  34.493   4.132
11212W        W77753   5.977  20.108   0.930
11213W        W77754   8.606   0.496   2.806
11214W        W77755   5.133  17.579   2.754
11215W        W77756  24.715   5.587   5.124
11216W        W77757  42.005  17.948   4.628
11217W        W77758  13.229  23.230   4.369
11218W        W77759  33.443  23.254   2.346
11219W        W77760  25.558   2.917  11.545
11220W        W77761   1.511  18.750  10.599
11221W        W77762  39.811   0.665  13.430
11222W        W77763  14.864   6.423  12.012
11223W        W77764  19.254   1.159  10.674
11224W        W77765  39.435   2.450  14.460
11225W        W77766  18.168  42.077  12.395
11226W        W77767  11.793  29.393  11.460
11227W        W77768  34.129  31.920   0.693
11228W        W77769  18.736  30.134   1.643
11229W        W77770   9.603  44.795   3.566
11230W        W77771  25.688  34.604   1.711
11231W        W77772  18.626  27.400   2.620
11232W        W77773  22.373   2.245  10.275
11233W        W77774   8.851  35.407  13.900
11234W        W77775  15.776  29.385  12.558
11235W        W77776  35.492  37.494   3.833
11236W        W77777  43.893   2.277   5.051
11237W        W77778  34.532  23.244  11.446
11238W        W77779  22.613  20.069  13.263
11239W        W77780  44.808  20.839  14.283
11240W        W77781  19.767   4.931  10.263
11241W        W77782  12.552  44.399   4.105
11242W        W77783  12.368  14.380   3.808
11243W        W77784  41.747   7.609  10.518
11244W        W77785  19.226  29.096   2.870
11245W        W77786   2.004  36.598  10.754
11246W        W77787  18.372  21.055  12.798
11247W        W77788  15.859  44.995  14.283
11248W        W77789   7.344  40.851  13.490
11249W        W77790  36.830  22.518   0.216
11250W        W77791  17.661  43.503   2.593
11251W        W77792  21.691  13.074   3.636
11252W        W77793   7.609  10.673   0.774
11253W        W77794  12.238  38.787   1.495
11254W        W77795  37.225  28.518  14.307
11255W        W77796  16.489  36.124   1.716
11256W        W77797  15.643   8.425  13.934
11257W        W77798   4.313   4.262   1.321
11258W        W77799  24.006  32.087  13.819
11259W        W77800  13.748  19.469  13.049
11260W        W77801  36.486  18.822   4.882
11261W        W77802   4.398  16.137  13.464
11262W        W77803   6.580  18.075   1.251
11263W        W77804  18.430  10.520  14.533
11264W        W77805  31.041   3.673   5.606
11265W        W77806  17.926   1.683   1.398
11266W        W77807  19.273  41.790   2.761
11267W        W77808  36.784  29.031  11.207
11268W        W77809  13.408   1.212   4.594
11269W        W77810  40.085  29.755  11.965
11270W        W77811  31.245   1.096   1.266
11271W        W77812   9.593  30.162   4.075
11272W        W77813  21.259  31.055   2.869
11273W        W77814  21.081  23.144   1.697
11274W        W77815  17.298  23.967  14.712
11275W        W77816  39.358  15.169  11.897
11276W        W77817  12.338  28.648  14.189
11277W        W77818  18.249  11.098   4.908
11278W        W77819  43.618  13.135   4.104
11279W        W77820  37.301  34.801   3.654
11280W        W77821  44.009   0.326   0.849
11281W        W77822  34.424  16.129   0.714
11282W        W77823  25.245   6.515  14.789
11283W        W77824  16.507  36.092  12.498
11284W        W77825  44.942  30.936   5.066
11285W        W77826  20.691   8.484  10.696
11286W        W77827  36.979  16.396   1.254
11287W        W77828  36.084  22.096  14.044
11288W        W77829  33.858   6.777  14.279
11289W        W77830   6.333  43.792   3.980
11290W        W77831  27.097   0.849   2.618
11291W        W77832  30.997   3.318   1.255
11292W        W77833  30.970   3.477   9.918
11293W        W77834  25.260  40.757  12.883
11294W        W77835   0.432  33.208  11.304
11295W        W77836  37.178  19.888   5.070
11296W        W77837  18.220  34.590  12.102
11297W        W77838  18.470   4.343   0.921
11298W        W77839  41.240  30.780  14.605
11299W        W77840  17.245  42.835  13.320
11300W        W77841  31.901  18.629  14.907
11301W        W77842  22.635   0.143   2.703
11302W        W77843  38.337  16.072  14.492
11303W        W77844  25.977  41.006   0.497
11304W        W77845   8.313  19.632  12.003
11305W        W77846  33.871  25.877  13.522
11306W        W77847  26.149  39.556   1.928
11307W        W77848  38.905  31.915  11.481
11308W        W77849  15.296  26.758  13.827
11309W        W77850   2.362   7.766  12.773
11310W        W77851  26.253   4.044  14.335
11311W        W77852  20.584  26.787   0.855
11312W        W77853  40.225  15.891   5.430
11313W        W77854  23.187  36.085  10.763
11314W        W77855  39.920  28.066   4.746
11315W        W77856   9.793  23.500  14.298
11316W        W77857  31.959  16.468  13.365
11317W        W77858  31.362  42.247  12.633
11318W        W77859  42.951  27.929   0.976
11319W        W77860  32.509  42.944  12.437
11320W        W77861  30.240  42.870  10.477
11321W        W77862  36.049   6.753  11.494
11322W        W77863   7.615  42.809   3.718
11323W        W77864  39.934  41.992  14.060
11324W        W77865  21.087  24.570  14.200
11325W        W77866   8.880  42.364  14.360
11326W        W77867  23.337  39.822  12.090
11327W        W77868  43.477  27.693   1.710
11328W        W77869  16.367  22.338  12.114
11329W        W77870  16.521  25.757   1.896
11330W        W77871   3.876   8.866   1.680
11331W        W77872  35.557  36.218   1.345
11332W        W77873  41.372   9.716  12.064
11333W        W77874  27.701  43.260  11.397
11334W        W77875   1.852  43.898   4.950
11335W        W77876  38.456  19.324  12.117
11336W        W77877  11.384   1.619  11.057
11337W        W77878  25.469  17.591   0.016
11338W        W77879  12.298  37.443   0.376
11339W        W77880  27.497  22.106  12.407
11340W        W77881  18.749  25.374   3.118
11341W        W77882  21.669  31.999  11.584
11342W        W77883   9.230  41.731   2.609
11343W        W77884  36.027  28.631   1.161
11344W        W77885  28.180  40.313  10.158
11345W        W77886  24.987  31.426  14.033
11346W        W77887  36.337  19.137  12.472
11347W        W77888  17.590  26.022  11.465
11348W        W77889  36.496  38.799  14.611
11349W        W77890  43.747  13.856  14.843
11350W        W77891  18.131  13.122   1.423
11351W        W77892  10.766  15.897  11.919
11352W        W77893  18.963  18.635  11.255
11353W        W77894  43.862  24.941   0.970
11354W        W77895  37.802   0.349   3.610
11355W        W77896  19.057  42.949  10.789
11356W        W77897  15.117  38.912  11.135
11357W        W77898  28.386   2.012  10.476
11358W        W77899  32.056  26.277  10.203
11359W        W77900   1.765  31.143  11.102
11360W        W77901  16.763  40.938   1.466
11361W        W77902   5.345  44.838  10.872
11362W        W77903  27.174  37.052   2.872
11363W        W77904   1.393  14.225  11.042
11364W        W77905   0.359  41.008  13.325
11365W        W77906  35.623   3.722   0.988
11366W        W77907  32.474   4.636   4.405
11367W        W77908  40.460  14.631  14.467
11368W        W77909  41.647  33.991  10.890
11369W        W77910  41.835   0.513  13.401
11370W        W77911  29.122  32.999   4.445
11371W        W77912  26.721   5.155   0.433
11372W        W77913  19.283  12.284   1.022
11373W        W77914   0.701  18.569   3.104
11374W        W77915  18.817  41.465  11.950
11375W        W77916   4.120  37.098  12.501
11376W        W77917  30.474   6.430   4.701
11377W        W77918  39.077  38.572  14.329
11378W        W77919  22.203   1.860  14.721
11379W        W77920  27.868  25.968  11.112
11380W        W77921  20.526  25.989   1.960
11381W        W77922  43.417   0.899  11.597
11382W        W77923  37.344   2.036  14.831
11383W        W77924  12.834  37.363   3.602
11384W        W77925  20.017   3.778  14.686
11385W        W77926  26.444   6.145   0.471
11386W        W77927  14.694  23.696  13.003
11387W        W77928  11.226   9.733  13.773
11388W        W77929  42.651  16.845  10.001
11389W        W77930  12.722  39.520  11.631
11390W        W77931  19.269  11.388   4.934
11391W        W77932  25.697  12.258   1.744
11392W        W77933  33.605  43.530  12.570
11393W        W77934  24.010  38.864  11.071
11394W        W77935  31.911  34.526   0.633
11395W        W77936  44.533  21.299   3.821
11396W        W77937  32.386  24.198   1.812
11397W        W77938  34.126  33.294   2.746
11398W        W77939  21.122  44.739  14.761
11399W        W77940   0.302  11.459   2.244
11400W        W77941  44.998  13.813  13.838
11401W        W77942  35.026  40.915   2.206
11402W        W77943  31.411   1.979  12.858
11403W        W77944  22.766   2.750  14.760
11404W        W77945  24.157  33.566   4.082
11405W        W77946  31.066   0.026   0.586
11406W        W77947   7.700   9.642   0.878
11407W        W77948  39.082  28.504  14.070
11408W        W77949  26.634  40.523  11.665
11409W        W77950  24.294   4.789  12.477
11410W        W77951   5.891  28.608   2.716
11411W        W77952  22.016   8.653   3.009
11412W        W77953  41.306  35.815   4.574
11413W        W77954  20.126  43.059  14.726
11414W        W77955  21.269  33.513  10.198
11415W        W77956  30.971  24.049  10.514
11416W        W77957  25.721  10.926  12.572
11417W        W77958  21.640  18.523   4.291
11418W        W77959  19.261   4.097   0.269
11419W        W77960  28.565  20.927  11.881
11420W        W77961  38.459  33.810   2.239
11421W        W77962   8.971  19.771   1.668
11422W        W77963  15.907  21.753   0.913
11423W        W77964   0.458   1.713  13.512
11424W        W77965   2.768  21.630  13.538
11425W        W77966  18.562  30.066  11.618
11426W        W77967  34.444   4.536  11.084
11427W        W77968  35.023  15.649   5.170
11428W        W77969  20.100   9.325  14.910
11429W        W77970  23.089   0.060  10.990
11430W        W77971  30.502  29.390  10.540
11431W        W77972   0.950  16.908  11.617
11432W        W77973  16.663  19.262  12.993
11433W        W77974  21.457  41.436  10.765
11434W        W77975  25.568  17.117   4.486
11435W        W77976   1.444   9.673   1.068
11436W        W77977   3.504  43.948  10.332
11437W        W77978  27.078  43.260  12.047
11438W        W77979  14.347  36.144  14.807
11439W        W77980  42.971  20.508   0.497
11440W        W77981  37.955  39.842  11.620
11441W        W77982  43.069   0.497  14.151
11442W        W77983   9.995  38.039  12.082
11443W        W77984  35.315  23.173  14.467
11444W        W77985  22.970  28.232   4.699
11445W        W77986  16.234  16.188  12.855
11446W        W77987  15.298  14.067  11.118
11447W        W77988  30.495  43.243   2.796
11448W        W77989   1.717  15.556  14.388
11449W        W77990  12.325  35.386   3.822
11450W        W77991  16.191  18.126   3.310
11451W        W77992  11.551  42.471  11.960
11452W        W77993  25.481  37.224  11.541
11453W        W77994  15.890  14.464   4.121
11454W        W77995  18.992  33.940   4.192
11455W        W77996  14.322  44.782   3.699
11456W        W77997   4.577  15.472   1.095
11457W        W77998  21.053  18.583   1.608
11458W        W77999  22.959  16.092   3.687
11459W        W78000  21.668  22.668   3.183
11460W        W78001  18.583  29.516  11.510
11461W        W78002   2.828  33.792  11.638
11462W        W78003   3.380  40.016  14.806
11463W        W78004   2.385  12.993   2.319
11464W        W78005   6.676  34.671   4.775
11465W        W78006  21.630  33.192  10.372
11466W        W78007  44.226  11.618   2.175
11467W        W78008  12.886  22.536   4.535
11468W        W78009   4.539  16.796   1.414
11469W        W78010   0.839  26.048   9.562
11470W        W78011   3.172   4.819  14.173
11471W        W78012  43.245   2.499   4.244
11472W        W78013  34.109  42.895  10.682
11473W        W78014   2.909   9.788  11.515
11474W        W78015  30.693  42.243  14.211
11475W        W78016  16.047  32.868  14.796
11476W        W78017  16.170  40.895  14.385
11477W        W78018  18.780  23.936   1.318
11478W        W78019  44.347  29.708   2.854
11479W        W78020   7.161  22.003   2.442
11480W        W78021  32.721  31.062   1.302
11481W        W78022  18.326   4.648   4.171
11482W        W78023  16.639  35.398  11.914
11483W        W78024   5.199  18.929   0.018
11484W        W78025  17.667  44.393  11.747
11485W        W78026  31.390  32.869  11.176
11486W        W78027  24.251   6.654   2.692
11487W        W78028  39.037  28.981  11.744
11488W        W78029   1.869  12.694  11.666
11489W        W78030  38.351   9.776  10.416
11490W        W78031   3.395   4.394  10.625
11491W        W78032  16.697  11.394   1.121
11492W        W78033   2.305   3.808   0.301
11493W        W78034   5.030  19.729   3.108
11494W        W78035  14.690  30.114  12.970
11495W        W78036   3.837  20.135   0.742
11496W        W78037   5.240  39.057   1.481
11497W        W78038   1.907  24.200  11.019
11498W        W78039  30.539  36.104  13.090
11499W        W78040  19.276  23.661  12.118
11500W        W78041  44.351  24.929   3.192
11501W        W78042   5.115  31.889  12.146
11502W        W78043   4.342  19.791   3.713
11503W        W78044  33.375  32.397   4.605
11504W        W78045  11.952  34.657   3.113
11505W        W78046  14.141  27.519  13.279
11506W        W78047  24.199  22.032   2.605
11507W        W78048  18.132  43.805   3.860
11508W        W78049   5.269  24.647  14.764
11509W        W78050   6.544   0.348   2.812
11510W        W78051  41.994  43.285   1.275
11511W        W78052   9.827  17.756  14.041
11512W        W78053  13.731   4.695  14.361
11513W        W78054   5.213  30.613   3.101
11514W        W78055   5.825  12.913   1.181
11515W        W78056  13.314  10.223  14.978
11516W        W78057  17.686  24.020  12.636
11517W        W78058  19.541   3.771   4.034
11518W        W78059  23.914   0.009   2.917
11519W        W78060  32.377  24.129  14.253
11520W        W78061  17.555  12.309   4.345
11521W        W78062  12.001  40.374   3.278
11522W        W78063  24.556   4.986  13.474
11523W        W78064  27.348  25.057  11.689
11524W        W78065   7.007  11.633  12.926
11525W        W78066  24.003  13.001  12.187
11526W        W78067   3.826  37.568   4.183
11527W        W78068   3.214   5.326   4.535
11528W        W78069  34.597  39.829  14.036
11529W        W78070  16.402  18.230   3.760
11530W        W78071  17.588   2.523   3.935
11531W        W78072   9.292  34.827  11.629
11532W        W78073   6.135  25.486  13.353
11533W        W78074   6.928   5.883   4.562
11534W        W78075  44.753   6.805  14.726
11535W        W78076  25.138  27.237  12.385
11536W        W78077  22.636   5.062   5.055
11537W        W78078  30.057  43.990   0.775
11538W        W78079  27.476  41.926  10.868
11539W        W78080  38.898   5.211   0.870
11540W        W78081   3.309  11.835  13.409
11541W        W78082   2.087   6.696  12.219
11542W        W78083   6.400  20.934  13.727
11543W        W78084   6.394  25.774   3.484
11544W        W78085  16.280   2.290   4.214
11545W        W78086   8.487  41.130   5.157
11546W        W78087  14.822  32.326  11.121
11547W        W78088  44.854  12.745  14.856
11548W        W78089  38.302  21.449  11.238
11549W        W78090  18.978  43.556   3.369
11550W        W78091   4.401  17.366  11.949
11551W        W78092  37.589   4.799   0.047
11552W        W78093  22.529  27.981   4.784
11553W        W78094  24.502   3.049  13.014
11554W        W78095   0.204  44.432  11.993
11555W        W78096  21.767  35.939   1.888
11556W        W78097  36.539  22.032   2.685
11557W        W78098  19.757  35.383   0.897
11558W        W78099  22.496  31.717   5.016
11559W        W78100  19.482  35.946   0.823
11560W        W78101  18.844  33.022   3.656
11561W        W78102   2.802  34.132   2.781
11562W        W78103  33.928  33.298  14.875
11563W        W78104  12.143  40.820   3.567
11564W        W78105  25.041  44.024   0.420
11565W        W78106   1.916   5.470  12.927
11566W        W78107  27.381   6.708   3.108
11567W        W78108   1.726  35.092  13.847
11568W        W78109  15.068   5.356  14.793
11569W        W78110  16.254  23.167  14.581
11570W        W78111  10.746   4.926   2.238
11571W        W78112  33.789  27.123  13.919
11572W        W78113  41.783  35.060  14.294
11573W        W78114  41.584   1.213  14.355
11574W        W78115  27.558   5.407   3.353
11575W        W78116  15.097   7.770   1.885
11576W        W78117  35.459   9.802  14.712
11577W        W78118  40.682  44.763   0.831
11578W        W78119  40.115  10.216  13.382
11579W        W78120   7.829  43.223  11.928
11580W        W78121  15.269  13.673  13.938
11581W        W78122   9.722  15.029  10.900
11582W        W78123  28.671  35.540   4.334
11583W        W78124  32.754  39.793  14.550
11584W        W78125   4.935  16.485   4.031
11585W        W78126  19.100  23.698  11.639
11586W        W78127  33.344  31.551   1.832
11587W        W78128  25.065  20.287  11.356
11588W        W78129  30.696  12.191   0.080
11589W        W78130  20.722  25.762  12.087
11590W        W78131  26.020  34.634   0.458
11591W        W78132  29.981  41.349  14.144
11592W        W78133  39.692  15.353   1.356
11593W        W78134   1.872  24.571  11.873
11594W        W78135  38.814   8.668  11.490
11595W        W78136  20.264  10.250   2.616
11596W        W78137  20.545  31.532  11.235
11597W        W78138  35.679  11.374  10.416
11598W        W78139   7.192   9.760  14.571
11599W        W78140  42.136  12.831   5.022
11600W        W78141   0.796  10.323  14.155
11601W        W78142  25.337  44.820  11.577
11602W        W78143   5.448  21.733   1.041
11603W        W78144   1.952  25.993  10.152
11604W        W78145   3.521   8.019  12.504
11605W        W78146  26.599  27.016  11.650
11606W        W78147  37.143  25.667  11.616
11607W        W78148   8.692  26.248  14.288
11608W        W78149  33.116   4.936  14.026
11609W        W78150  39.045  36.855   4.069
11610W        W78151  38.426  10.947  13.448
11611W        W78152  42.227  43.382  10.745
11612W        W78153  31.168  34.515   4.309
11613W        W78154  44.366  10.723   3.121
11614W        W78155  32.552   8.461   1.218
11615W        W78156  12.443   4.974  12.096
11616W        W78157  15.245  44.947  12.986
11617W        W78158   4.739  37.028   1.686
11618W        W78159  36.051  10.658   3.704
11619W        W78160  33.924  21.618   4.834
11620W        W78161  32.539  27.459  12.545
11621W        W78162  24.356  15.132  11.576
11622W        W78163  14.039  43.052   0.919
11623W        W78164  11.132  13.385   0.956
11624W        W78165  28.153  29.789  13.419
11625W        W78166  35.879  15.889   3.144
11626W        W78167   5.340  33.702   0.568
11627W        W78168  10.443   9.682   3.613
11628W        W78169   3.233  31.045   2.464
11629W        W78170   2.768  38.065   2.653
11630W        W78171  22.475   6.515  12.410
11631W        W78172  22.721   1.214  12.447
11632W        W78173   8.847  25.188   2.399
11633W        W78174  20.742   7.883  14.177
11634W        W78175  14.171  33.661   1.216
11635W        W78176  44.273  44.802   1.773
11636W        W78177  41.032  41.713   3.853
11637W        W78178  24.276  41.833  14.022
11638W        W78179  34.375  29.109  11.131
11639W        W78180  20.491  27.949  11.598
11640W        W78181  29.107  38.103   0.120
11641W        W78182  17.814  23.406  10.541
11642W        W78183  11.234  44.985   3.548
11643W        W78184  38.156  15.757   2.599
11644W        W78185  29.457  12.822   1.869
11645W        W78186   1.981  15.130   3.997
11646W        W78187  15.231  43.041  14.813
11647W        W78188   3.991  31.318   0.829
11648W        W78189  27.414  34.906  14.326
11649W        W78190  25.746  43.881   2.196
11650W        W78191   9.579  13.813  12.222
11651W        W78192  12.201  37.496   3.188
11652W        W78193   2.212  29.624   4.127
11653W        W78194  31.583  17.273   4.952
11654W        W78195   2.875  11.482  10.725
11655W        W78196  19.646  39.255  11.665
11656W        W78197  29.527   4.220   0.244
11657W        W78198   4.031  31.184   4.698
11658W        W78199  17.327   6.823   0.069
11659W        W78200  16.695  36.389   0.962
11660W        W78201  42.648   8.106   0.023
11661W        W78202   1.424  31.047   3.920
11662W        W78203  22.463  43.892   1.469
11663W        W78204   3.479  35.032   5.006
11664W        W78205   0.808  38.706   0.278
11665W        W78206  15.687  24.565   3.601
11666W        W78207  29.547  36.148  14.956
11667W        W78208  40.234   0.882  11.694
11668W        W78209   6.654  18.627   3.091
11669W        W78210  31.785   8.676   1.067
11670W        W78211  30.951  30.959  13.359
11671W        W78212  40.559  13.482   4.587
11672W        W78213  38.045   5.949   3.192
11673W        W78214  10.872  40.626   0.429
11674W        W78215   5.776  21.820  12.968
11675W        W78216  42.393  11.627  13.866
11676W        W78217  42.502  31.462  13.613
11677W        W78218  38.178   2.435  11.873
11678W        W78219   6.726  43.031  13.522
11679W        W78220  32.166  36.332   4.658
11680W        W78221   6.812  41.031   1.332
11681W        W78222  14.262  19.508  14.288
11682W        W78223  10.558   0.451   0.751
11683W        W78224   1.416  29.258   2.774
11684W        W78225  21.093  20.056   2.774
11685W        W78226  37.082   3.968   4.517
11686W        W78227  38.949  10.859  12.547
11687W        W78228   1.046  35.632  14.752
11688W        W78229  30.137  35.705   4.791
11689W        W78230  28.168  17.357  14.076
11690W        W78231   3.251  14.720   1.874
11691W        W78232  18.663  30.576  11.700
11692W        W78233  28.015  18.835  11.372
11693W        W78234  36.281  35.343  11.356
11694W        W78235  28.490  37.368   2.747
11695W        W78236   9.006  31.990   0.172
11696W        W78237  35.225  14.023   2.766
11697W        W78238  25.595   8.149   1.157
11698W        W78239  16.074  37.563  11.939
11699W        W78240  37.316  27.291   3.389
11700W        W78241   5.590  22.042  13.552
11701W        W78242  28.064  12.085  11.617
11702W        W78243  11.315   7.645   2.343
11703W        W78244  23.917  15.644  13.896
11704W        W78245  27.736  19.563   2.865
11705W        W78246  24.933  35.396   4.084
11706W        W78247  43.938  30.060   3.465
11707W        W78248   4.185  12.043  11.487
11708W        W78249  32.658   5.269  12.164
11709W        W78250  29.972  22.629   0.811
11710W        W78251  22.777   7.775   5.349
11711W        W78252  33.893   2.718   0.952
11712W        W78253  14.667  32.818  14.909
11713W        W78254  23.998  19.228   1.722
11714W        W78255  24.000  12.676   4.036
11715W        W78256   5.285  41.125   2.884
11716W        W78257  26.670  38.884  13.414
11717W        W78258   3.232  12.797   1.856
11718W        W78259  36.346  14.621  11.931
11719W        W78260  41.490   8.225  13.550
11720W        W78261  13.258  30.323   0.350
11721W        W78262  22.715  29.232   1.380
11722W        W78263   2.383  30.704  11.685
11723W        W78264   1.779  16.386  12.488
11724W        W78265  26.015  18.050   5.158
11725W        W78266   3.183  30.975   1.236
11726W        W78267  20.576  33.584   3.174
11727W        W78268  26.307   9.330   1.293
11728W        W78269  11.087  30.819   2.836
11729W        W78270  25.192  34.118  13.005
11730W        W78271   6.831  21.123   3.187
11731W        W78272   6.816  34.479  10.693
11732W        W78273  44.786  22.217   2.951
11733W        W78274  29.634  13.719   2.996
11734W        W78275  24.531  26.527  12.533
11735W        W78276  30.809  25.051  11.656
11736W        W78277  26.847   6.596  11.981
11737W        W78278   8.951   5.735  11.619
11738W        W78279  28.308   1.120   1.716
11739W        W78280  43.254  38.076   3.375
11740W        W78281  27.639  21.502   4.503
11741W        W78282  42.127  32.101   4.441
11742W        W78283  31.557  41.830  12.446
11743W        W78284  14.179  20.035   5.068
11744W        W78285   0.857  14.756  14.948
11745W        W78286  17.779  10.062   1.747
11746W        W78287   2.040  11.591   2.656
11747W        W78288   4.367  24.085   5.446
11748W        W78289  33.908  12.887  11.132
11749W        W78290  30.615  28.498  13.344
11750W        W78291  14.019   4.892   1.317
11751W        W78292   2.635  36.323   0.378
11752W        W78293  21.244  31.526   4.973
11753W        W78294  15.692  25.467  13.808
11754W        W78295   3.305  16.071   1.204
11755W        W78296   5.191   6.012   2.646
11756W        W78297  24.494  26.758  12.066
11757W        W78298   1.122  39.216  14.560
11758W        W78299  34.547  35.608  13.563
11759W        W78300  22.725   9.323   3.764
11760W        W78301  24.639  31.378  12.176
11761W        W78302  26.240  42.275   4.921
11762W        W78303  32.185  39.376  13.278
11763W        W78304  27.595  35.126   4.324
11764W        W78305  24.976   7.758   0.322
11765W        W78306  42.346  30.853  13.209
11766W        W78307  42.803   9.651   1.799
11767W        W78308  28.433   3.845   0.044
11768W        W78309   0.456  41.711   1.368
11769W        W78310  13.219   0.984  13.032
11770W        W78311   4.896  35.478   1.001
11771W        W78312  13.859   5.904   2.278
11772W        W78313   2.719  17.276  12.776
11773W        W78314  11.758  40.118   0.237
11774W        W78315  16.399  39.884   0.791
11775W        W78316   6.109  14.157  13.739
11776W        W78317  36.623  27.661   1.818
11777W        W78318   1.888  27.436  14.417
11778W        W78319  10.738  43.287   4.898
11779W        W78320  14.821   3.851   0.953
11780W        W78321  17.223   9.912  11.586
11781W        W78322  22.201  28.380   0.021
11782W        W78323  10.816  21.689   4.807
11783W        W78324   8.936  11.571   1.856
11784W        W78325  26.831   9.301   2.196
11785W        W78326  21.927   0.540  13.345
11786W        W78327  44.512  32.486   0.529
11787W        W78328   5.266  24.354   3.034
11788W        W78329  30.717  26.988   3.507
11789W        W78330   3.410  23.316   4.150
11790W        W78331  21.985  15.769  14.017
11791W        W78332   8.677  22.773  10.754
11792W        W78333   9.738   6.813  14.151
11793W        W78334  22.095  36.857  13.529
11794W        W78335  15.115  20.588   1.743
11795W        W78336  26.533  43.410  14.050
11796W        W78337   2.584  16.047   5.162
11797W        W78338  20.297  31.009   3.605
11798W        W78339   6.179  23.358   2.284
11799W        W78340   4.968  38.362   2.361
11800W        W78341  11.833   3.959   1.356
11801W        W78342  31.077  29.684   0.324
11802W        W78343  12.762  27.972   2.655
11803W        W78344  19.044  21.530   2.209
11804W        W78345   2.266  18.702   0.124
11805W        W78346  41.058  17.387  13.477
11806W        W78347  20.951   9.649  13.008
11807W        W78348  32.027  42.342   0.905
11808W        W78349  19.808  39.343  13.592
11809W        W78350  30.894  27.999  13.026
11810W        W78351  35.016  33.602   2.989
11811W        W78352  17.547   0.973   4.125
11812W        W78353  31.559   6.871   0.744
11813W        W78354   4.324   2.812   2.246
11814W        W78355  35.556  32.336   2.836
11815W        W78356  22.221  38.019  12.876
11816W        W78357  25.685   2.492   0.166
11817W        W78358  29.034  40.581  12.130
11818W        W78359  34.429  28.177   4.729
11819W        W78360  43.989  41.403   0.002
11820W        W78361   9.874  16.377  14.563
11821W        W78362  23.226  27.886   3.148
11822W        W78363  39.818  25.301  14.590
11823W        W78364  16.952  18.835  11.197
11824W        W78365   9.528  32.581   1.723
11825W        W78366  23.040  19.525  13.832
11826W        W78367  33.555   0.392  10.006
11827W        W78368  33.530  30.372   4.170
11828W        W78369  38.422  15.506  10.369
11829W        W78370  24.962   7.738  11.527
11830W        W78371  35.066  24.550   4.045
11831W        W78372  29.189  42.248   1.655
11832W        W78373  35.917   9.631  14.347
11833W        W78374  34.849   1.998   3.181
11834W        W78375  32.482  43.018   4.149
11835W        W78376  11.272  15.857   3.956
11836W        W78377  37.423   4.994   3.336
11837W        W78378  38.832  25.035   0.464
11838W        W78379  12.752   0.190  12.663
11839W        W78380  30.090  20.168  14.076
11840W        W78381  20.489  28.238   2.817
11841W        W78382   1.920  42.991  13.555
11842W        W78383   9.702   7.031   0.943
11843W        W78384  41.905  25.266  12.911
11844W        W78385   3.907  12.333   1.719
11845W        W78386  13.175   4.563  14.788
11846W        W78387  38.903  15.883  12.266
11847W        W78388  35.017  36.082   4.678
11848W        W78389  25.121  28.015   3.875
11849W        W78390   1.442  33.610  12.348
11850W        W78391  27.921  19.203  13.569
11851W        W78392   8.583  20.230   4.787
11852W        W78393  13.494  21.589  11.984
11853W        W78394  42.980  14.177  12.536
11854W        W78395  11.812   5.301   0.708
11855W        W78396   2.286  33.585  10.713
11856W        W78397  17.275  11.406  11.083
11857W        W78398  30.322   7.671  10.709
11858W        W78399  13.752  40.917  12.061
11859W        W78400   0.326  32.153  14.769
11860W        W78401  17.789  18.054   1.820
11861W        W78402  22.044   9.380   5.155
11862W        W78403  41.779  20.799  13.502
11863W        W78404  31.872  38.524   4.251
11864W        W78405  40.216  26.203  11.042
11865W        W78406   4.757  32.369   4.158
11866W        W78407   0.084  27.120   4.072
11867W        W78408  28.266   8.313  10.996
11868W        W78409   2.761  41.322   1.971
11869W        W78410  39.507  42.021  10.710
11870W        W78411  27.714  35.978   3.493
11871W        W78412   5.970  11.119   3.166
11872W        W78413  44.097  19.927   1.862
11873W        W78414  24.113  22.933   1.149
11874W        W78415  26.258  42.984   4.470
11875W        W78416  18.111  38.053   4.727
11876W        W78417  16.230  23.612  12.110
11877W        W78418   6.354  29.909   3.671
11878W        W78419  32.108  13.880  13.435
11879W        W78420  19.592  35.678   1.284
11880W        W78421  38.047  18.053   4.574
11881W        W78422   2.076  25.501   2.708
11882W        W78423  39.724   9.083   3.655
11883W        W78424   0.168  40.961  13.833
11884W        W78425  37.171  16.936  13.315
11885W        W78426  19.784  20.476   1.949
11886W        W78427  20.910   3.465   4.599
11887W        W78428  30.457  41.983  12.240
11888W        W78429  19.030   6.822   5.732
11889W        W78430  19.580  28.138   0.322
11890W        W78431  19.082  33.421  11.196
11891W        W78432  41.496  21.284   2.560
11892W        W78433  29.529  23.158   1.435
11893W        W78434  34.629  25.548   3.369
11894W        W78435  28.265  10.658   5.168
11895W        W78436  29.182  40.471   4.133
11896W        W78437  39.136   6.292  14.396
11897W        W78438  39.120  41.402   4.402
11898W        W78439  23.932   0.036  12.924
11899W        W78440  25.500  19.798   4.994
11900W        W78441  36.030  26.490   4.242
11901W        W78442  37.443   9.685  12.962
11902W        W78443  40.350   5.966  13.039
11903W        W78444  20.635  32.118  14.260
11904W        W78445  21.059  41.245   3.904
11905W        W78446   0.102  32.532  12.056
11906W        W78447  28.998   3.355   0.808
11907W        W78448  44.991  36.108   4.890
11908W        W78449  10.244   1.082   3.298
11909W        W78450  19.508  40.474   0.013
11910W        W78451  43.383  26.524   1.697
11911W        W78452   7.401  44.434  14.746
11912W        W78453  25.781  30.998  13.668
11913W        W78454  24.377  34.871   0.913
11914W        W78455  25.939  19.779   0.858
11915W        W78456   4.090  35.026   0.079
11916W        W78457  20.732  36.421   3.840
11917W        W78458  32.582  37.693   3.251
11918W        W78459  17.273  23.120  13.258
11919W        W78460  13.138  13.675  12.557
11920W        W78461   0.208  19.354  14.157
11921W        W78462  31.623  39.123  10.699
11922W        W78463  24.236  23.573  14.798
11923W        W78464  30.660  36.146  11.711
11924W        W78465  17.884   9.202   2.625
11925W        W78466   6.711  20.171   3.099
11926W        W78467  32.173  34.462  10.665
11927W        W78468  38.810   4.904   4.579
11928W        W78469   8.578  22.609  11.609
11929W        W78470  28.688  21.521  12.762
11930W        W78471   7.835  23.239  10.674
11931W        W78472  43.320  23.007   4.756
11932W        W78473  18.107  38.073   3.355
11933W        W78474  16.046  13.703   4.352
11934W        W78475  17.039   6.370  14.992
11935W        W78476  18.279  16.033   4.917
11936W        W78477  44.465  12.548   2.304
11937W        W78478   6.846   4.889  10.805
11938W        W78479   5.180  31.010  12.970
11939W        W78480   3.948  35.814  12.566
11940W        W78481  11.526   9.713   1.434
11941W        W78482  44.854  43.162   4.475
11942W        W78483  25.534  37.275   0.434
11943W        W78484  29.603  44.953  12.229
11944W        W78485  14.089  26.124   1.299
11945W        W78486  25.469  19.853   3.110
11946W        W78487  38.031  39.956  13.381
11947W        W78488  42.698  29.677   0.403
11948W        W78489  23.562  29.583  13.320
11949W        W78490  40.909   3.767   1.359
11950W        W78491  27.907  30.612   5.011
11951W        W78492   7.305  17.208   2.228
11952W        W78493   6.798  43.504  13.795
11953W        W78494  37.982   0.052  14.079
11954W        W78495  40.730  25.977   3.259
11955W        W78496  42.879  38.473  11.677
11956W        W78497  14.761   8.149  10.770
11957W        W78498   8.064  36.777  11.088
11958W        W78499  40.613   5.293  14.986
11959W        W78500   3.823  36.328  12.514
11960W        W78501  25.974  23.677  10.702
11961W        W78502  32.091  28.138  12.409
11962W        W78503  41.962  43.476   2.642
11963W        W78504  34.809   4.473   4.922
11964W        W78505  31.406  34.433   1.848
11965W        W78506  30.129  30.632  11.776
11966W        W78507   6.355  43.591  14.079
11967W        W78508  44.849  26.909   2.074
11968W        W78509  11.545   4.949   3.753
11969W        W78510  35.407  14.280   0.142
11970W        W78511   2.224   1.704   1.426
11971W        W78512  12.711  37.699   3.207
11972W        W78513  41.473  23.480  12.095
11973W        W78514  20.303  11.226  10.283
11974W        W78515   4.683  16.564   3.516
11975W        W78516  14.133   1.222  14.407
11976W        W78517  24.716  30.006  10.621
11977W        W78518  34.907   5.318  12.388
11978W        W78519   0.963  30.909   3.145
11979W        W78520  17.743  19.867  11.564
11980W        W78521  39.247  40.936  13.390
11981W        W78522  31.085  17.317   0.574
11982W        W78523   6.184  23.953  10.359
11983W        W78524  31.130   9.355   2.542
11984W        W78525   3.840  22.503  14.958
11985W        W78526  40.318   5.159   4.155
11986W        W78527   0.182  22.595  13.483
11987W        W78528  10.696  34.849  11.114
11988W        W78529   1.009  24.060   4.662
11989W        W78530  40.948  12.832  13.595
11990W        W78531  37.113   7.517   3.185
11991W        W78532  33.873  10.826  14.436
11992W        W78533  14.621   2.410   1.468
11993W        W78534  32.984  41.795  11.812
11994W        W78535   1.310  40.914   0.888
11995W        W78536  17.771  37.320  14.936
11996W        W78537   4.999   1.485   1.509
11997W        W78538  10.373  31.529  14.684
11998W        W78539  34.035   7.851  11.822
11999W        W78540  38.406  37.913  11.380
12000W        W78541   6.848  10.543  11.760
12001W        W78542  35.444  18.489  10.780
12002W        W78543  31.366  26.650  13.798
12003W        W78544   8.611  20.452   2.179
12004W        W78545  33.191  27.837   1.989
12005W        W78546  21.671  16.705  10.616
12006W        W78547  16.306  31.221  13.062
12007W        W78548  11.696  27.731  13.946
12008W        W78549  41.924  34.822  12.400
12009W        W78550  39.391  29.300   4.776
12010W        W78551   6.376  43.969   2.517
12011W        W78552   0.805  40.986  11.167
12012W        W78553  20.415   7.400  11.994
12013W        W78554  27.389  44.844   1.395
12014W        W78555  34.347  10.989  12.906
12015W        W78556  24.012  37.971  10.767
12016W        W78557  30.915  17.023   4.932
12017W        W78558  17.241  32.457   4.810
12018W        W78559  37.267  24.042  13.064
12019W        W78560   3.354  11.819  10.850
12020W        W78561  31.725  35.406  10.581
12021W        W78562  23.793  13.837  14.331
12022W        W78563  27.600  24.441   1.893
12023W        W78564  23.594  32.057  13.283
12024W        W78565   5.033   7.915  12.591
12025W        W78566  31.165  43.516  14.811
12026W        W78567   3.374  31.379   2.073
12027W        W78568   5.195  41.143   0.302
12028W        W78569  13.115   7.549   9.979
12029W        W78570   9.246   9.494  12.879
12030W        W78571  34.289  27.094  11.019
12031W        W78572   4.234  11.546  13.578
12032W        W78573  12.787   2.613  14.488
12033W        W78574  44.448   4.351   3.822
12034W        W78575  20.896  20.830   3.398
12035W        W78576  22.393  43.711   3.575
12036W        W78577  18.472  32.553   0.856
12037W        W78578  37.883  21.017   2.713
12038W        W78579  19.355  32.979  11.168
12039W        W78580  38.377  33.527   1.804
12040W        W78581  34.064   4.736  13.906
12041W        W78582   7.641  22.278   0.891
12042W        W78583   3.869  39.597   3.217
12043W        W78584  14.593   0.222   3.621
12044W        W78585  12.031   6.556  10.960
12045W        W78586  31.950  37.170   4.358
12046W        W78587  24.548  13.613  13.843
12047W        W78588   0.774  38.491   1.812
12048W        W78589  20.140  40.748  11.153
12049W        W78590  41.071  17.567   5.033
12050W        W78591  11.902  14.243   1.348
12051W        W78592  30.215   9.813   3.133
12052W        W78593  33.032  34.954   2.773
12053W        W78594  21.010  17.179  12.232
12054W        W78595   7.093  40.913   2.466
12055W        W78596  13.851  38.993  12.086
12056W        W78597  23.240   1.451   4.218
12057W        W78598  18.222  32.454   2.668
12058W        W78599  44.187   1.343  10.910
12059W        W78600  10.610  23.646  10.980
12060W        W78601  17.725   4.790   2.746
12061W        W78602  22.600  24.539   2.386
12062W        W78603  20.761  20.291  13.072
12063W        W78604   8.141  38.108   3.118
12064W        W78605   3.094  38.583  13.295
12065W        W78606  10.348  44.856  12.861
12066W        W78607  41.527  40.962   3.356
12067W        W78608   5.615  40.296   1.977
12068W        W78609  41.370  20.687  12.145
12069W        W78610  12.201   5.316   1.670
12070W        W78611   4.179  44.818  11.033
12071W        W78612  16.778  34.006   2.163
12072W        W78613  15.266  17.163  13.976
12073W        W78614  16.260  28.261   2.913
12074W        W78615  20.092  31.097  13.801
12075W        W78616  28.647   5.336  12.417
12076W        W78617   9.779   6.681   2.965
12077W        W78618  29.847  41.112   0.384
12078W        W78619  42.017  14.326  12.988
12079W        W78620  39.308  26.175  11.254
12080W        W78621  24.912  16.811  12.019
12081W        W78622  29.052  25.620  12.236
12082W        W78623  40.437  17.616   1.097
12083W        W78624  42.514   4.486   2.684
12084W        W78625   4.827  27.077   4.750
12085W        W78626  14.043  24.402  13.824
12086W        W78627  10.759   5.174  14.313
12087W        W78628  24.630  15.701  11.450
12088W        W78629  21.663  36.484  13.566
12089W        W78630  15.726  15.130  13.582
12090W        W78631  37.536  11.335  10.537
12091W        W78632  16.375  27.857   2.242
12092W        W78633  13.482  44.484  14.389
12093W        W78634  42.187  24.132   1.580
12094W        W78635  40.859  11.612   0.252
12095W        W78636  22.998  29.097  12.909
12096W        W78637   6.181  43.072   4.609
12097W        W78638  37.806   9.215  14.348
12098W        W78639  11.925   0.987   3.217
12099W        W78640   5.428  23.933  11.524
12100W        W78641   8.997  35.552  12.510
12101W        W78642  19.204  27.042  11.175
12102W        W78643  10.611  40.018   4.120
12103W        W78644  15.075  24.920  14.828
12104W        W78645  36.337  24.182   1.310
12105W        W78646  10.342  20.274   5.031
12106W        W78647  38.940  30.654  13.530
12107W        W78648  18.466  37.870   0.807
12108W        W78649  17.703  33.426   0.679
12109W        W78650   8.824   7.137  13.990
12110W        W78651  30.341  38.106  13.147
12111W        W78652  35.848  28.858   2.239
12112W        W78653  24.226  44.455  13.672
12113W        W78654  32.885  43.784  12.577
12114W        W78655   4.197  21.073  14.797
12115W        W78656   1.271  27.207  13.049
12116W        W78657   1.871  21.641  12.484
12117W        W78658  33.577  15.702   4.871
12118W        W78659  42.293   8.740  12.231
12119W        W78660  21.208  23.694  12.037
12120W        W78661  35.401  29.930   4.122
12121W        W78662  17.582  18.613   0.989
12122W        W78663  28.116   2.952   1.844
12123W        W78664   8.266  26.358   3.997
12124W        W78665   0.735  10.647  10.409
12125W        W78666  25.041   1.903  14.931
12126W        W78667  41.015   6.659  12.837
12127W        W78668   3.638  30.841   4.611
12128W        W78669  20.718  35.454  14.180
12129W        W78670   4.287  37.399  12.952
12130W        W78671  10.088   8.854   4.715
12131W        W78672  23.111  21.932   1.236
12132W        W78673  12.391   4.252   3.798
12133W        W78674  15.908  34.648  14.740
12134W        W78675  30.699  42.762   1.626
12135W        W78676   4.464  19.823  12.046
12136W        W78677  36.313   4.354  12.570
12137W        W78678  14.029   2.357  10.740
12138W        W78679   9.239   9.596  10.579
12139W        W78680  25.655   5.192  13.295
12140W        W78681   6.249  29.042  11.232
12141W        W78682  27.137  15.816   2.782
12142W        W78683  27.093  11.699   1.847
12143W        W78684  29.894  33.904  14.997
12144W        W78685  22.990   4.746  12.910
12145W        W78686   8.469  16.004  14.072
12146W        W78687  13.408   9.626  12.418
12147W        W78688  20.166  10.099   3.748
12148W        W78689  14.591  26.035  13.257
12149W        W78690  14.161  31.010  14.027
12150W        W78691   7.154  11.660   2.364
12151W        W78692  37.346  12.973  13.096
12152W        W78693   0.293   0.283  12.595
12153W        W78694  27.674  36.957   3.374
12154W        W78695  29.503  36.361  14.070
12155W        W78696  44.788  20.864   3.702
12156W        W78697   2.549  29.941   1.821
12157W        W78698  35.379  20.020   0.971
12158W        W78699  10.085  40.863  14.885
12159W        W78700   8.336   6.885  13.968
12160W        W78701  25.684  41.581   4.326
12161W        W78702  43.409  31.070   4.527
12162W        W78703   2.998  16.170  13.969
12163W        W78704   9.189  21.955  14.974
12164W        W78705  34.687  12.354  12.912
12165W        W78706  16.543  34.364  12.870
12166W        W78707   2.772   1.098  11.131
12167W        W78708   8.369  37.693   5.368
12168W        W78709  25.395   3.414  12.046
12169W        W78710  16.300  28.364   2.409
12170W        W78711  19.049  12.916  12.969
12171W        W78712   8.263  14.492   0.355
12172W        W78713  18.737  19.785   1.313
12173W        W78714  18.784   5.758  10.452
12174W        W78715  34.357  21.156  14.265
12175W        W78716  29.911  41.840   2.756
12176W        W78717  13.371   3.644  12.949
12177W        W78718  41.944  18.028  12.951
12178W        W78719  43.376  10.773  14.404
12179W        W78720  24.437  26.956   1.836
12180W        W78721   6.826  37.248  11.188
12181W        W78722  38.221  43.899  12.528
12182W        W78723  28.065  22.577   4.713
12183W        W78724  28.045  18.817  13.886
12184W        W78725  34.207  18.616  13.879
12185W        W78726  41.609  40.069   0.313
12186W        W78727   4.891  42.406   3.742
12187W        W78728  33.575   1.042  14.328
12188W        W78729  42.576   0.316  10.881
12189W        W78730  22.071  23.080  10.676
12190W        W78731  42.929   0.115  12.932
12191W        W78732  43.063  19.399   1.080
12192W        W78733  41.329  35.374  13.837
12193W        W78734  36.570  22.999  12.377
12194W        W78735  17.721  35.888  13.815
12195W        W78736  29.911  29.946   4.933
12196W        W78737   2.439  11.727  13.056
12197W        W78738  15.004  21.202   3.314
12198W        W78739  24.653  22.754   4.105
12199W        W78740  41.821  41.576  10.269
12200W        W78741   4.965  18.094   1.810
12201W        W78742  12.794  41.353   3.076
12202W        W78743  40.278  38.385  12.427
12203W        W78744  10.872  28.282   4.268
12204W        W78745  26.102   4.433  11.678
12205W        W78746  13.661  35.737  11.554
12206W        W78747  12.772  36.963   3.950
12207W        W78748   9.767   8.316   4.105
12208W        W78749  25.377   9.429  13.389
12209W        W78750  31.111  40.863   4.593
12210W        W78751  15.996   7.203   2.808
12211W        W78752  15.378  35.016   1.054
12212W        W78753  10.693  44.383  12.202
12213W        W78754   8.884  37.895  11.158
12214W        W78755   2.544   5.336   2.797
12215W        W78756  38.059  42.697   1.759
12216W        W78757  41.531  30.507   1.925
12217W        W78758  13.676  42.575   1.627
12218W        W78759  10.623   9.243   0.463
12219W        W78760   2.730   3.921   4.518
12220W        W78761   6.711   9.890  14.377
12221W        W78762   9.640  23.776   1.870
12222W        W78763   3.618  26.410  14.923
12223W        W78764  36.666  39.306   4.879
12224W        W78765  33.993   6.846   3.802
12225W        W78766   8.369  20.619  12.211
12226W        W78767  22.044  12.780   4.988
12227W        W78768  26.246   3.781  11.226
12228W        W78769   9.308  31.606   3.770
12229W        W78770  34.387   7.450  10.640
12230W        W78771  29.182  33.123  14.413
12231W        W78772   0.900  11.935  10.318
12232W        W78773  40.956   2.398  11.653
12233W        W78774   3.253  36.675   3.420
12234W        W78775   9.942  30.932  13.207
12235W        W78776  44.304   0.255  13.918
12236W        W78777  44.197  27.037   2.673
12237W        W78778  19.963  31.273   4.463
12238W        W78779  20.024  17.433   3.644
12239W        W78780   4.172  27.583  13.554
12240W        W78781  37.369  15.275  13.110
12241W        W78782   6.113  23.711  14.454
12242W        W78783  42.997  44.662   3.203
12243W        W78784  20.496  24.102   3.664
12244W        W78785  43.229  22.044   2.683
12245W        W78786  14.067  27.586   2.677
12246W        W78787  32.660  40.335   2.427
12247W        W78788   0.242  22.630   4.662
12248W        W78789  13.747   6.922   0.298
12249W        W78790  25.436  33.040   2.398
12250W        W78791  44.192  30.658  13.734
12251W        W78792  25.139  16.999  11.476
12252W        W78793  40.537  28.624   2.229
12253W        W78794   3.231  37.512   0.917
12254W        W78795  25.703  23.180  12.301
12255W        W78796  26.468  36.174  14.002
12256W        W78797   6.096  44.459  14.533
12257W        W78798  36.439   5.867   3.243
12258W        W78799  36.956   9.978  12.861
12259W        W78800  31.743  27.698   0.777
12260W        W78801  17.243   3.633   3.142
12261W        W78802  23.952  34.608   1.781
12262W        W78803   2.086  25.646   5.309
12263W        W78804  23.535  44.363   4.500
12264W        W78805  14.758  38.512   4.119
12265W        W78806  41.533  18.282   4.557
12266W        W78807  43.290  38.020   0.357
12267W        W78808  38.809  40.333  11.267
12268W        W78809   4.785  25.158   2.622
12269W        W78810  33.967   5.430   0.039
12270W        W78811   4.719  44.376  10.682
12271W        W78812  29.571  30.205   2.109
12272W        W78813  35.012  13.666   1.195
12273W        W78814  15.847  31.647  11.163
12274W        W78815  19.456  23.907   1.808
12275W        W78816   4.786  32.498   1.172
12276W        W78817  40.156  26.615   0.894
12277W        W78818  11.584   0.525   0.859
12278W        W78819  18.728   4.767  13.283
12279W        W78820  39.230  34.012   0.950
12280W        W78821   3.265   7.593  12.343
12281W        W78822  20.207  17.543   0.225
12282W        W78823  22.213   5.247  12.160
12283W        W78824  21.660  42.370   0.529
12284W        W78825  38.543  38.827  13.722
12285W        W78826  32.000  41.964   1.944
12286W        W78827  10.217   1.977  13.490
12287W        W78828  44.922  14.852  12.959
12288W        W78829  24.504  37.066   1.735
12289W        W78830  17.062  32.580   4.328
12290W        W78831  31.165  10.976  14.001
12291W        W78832  14.089  36.863   3.072
12292W        W78833  14.061  17.671  12.684
12293W        W78834  11.733  21.786  13.408
12294W        W78835  43.524  31.203   3.657
12295W        W78836  35.007   2.848  14.425
12296W        W78837  42.465  36.947   0.409
12297W        W78838  21.967  41.828  12.408
12298W        W78839  34.683  35.878  12.462
12299W        W78840  12.862  18.974   4.822
12300W        W78841  21.124  21.619  13.796
12301W        W78842  26.353  43.707   3.400
12302W        W78843  18.037  17.715  13.285
12303W        W78844  12.870  27.646  14.978
12304W        W78845  36.905   9.989   4.429
12305W        W78846  42.470  38.529   3.241
12306W        W78847  11.733   3.298   1.191
12307W        W78848  22.323   4.207   3.635
12308W        W78849   0.504  25.474  12.524
12309W        W78850   0.996  31.421   3.222
12310W        W78851  41.032  32.718  13.681
12311W        W78852  43.254  26.562  10.662
12312W        W78853  10.217  43.264   4.793
12313W        W78854  32.414  40.641   4.168
12314W        W78855  26.487   2.408   2.272
12315W        W78856  33.244   8.201   2.884
12316W        W78857   7.444  17.799   1.372
12317W        W78858  15.364  27.083  14.526
12318W        W78859  35.811  40.980  10.705
12319W        W78860  10.047  31.628   3.132
12320W        W78861  23.780  13.375   0.810
12321W        W78862  33.826   5.868  12.545
12322W        W78863  40.725  40.095   1.819
12323W        W78864   5.306  21.142  12.470
12324W        W78865  18.008  23.908  12.254
12325W        W78866  43.334  37.371   1.170
12326W        W78867   7.300  22.750   2.220
12327W        W78868  39.496  18.982  13.763
12328W        W78869  44.694  37.625  11.948
12329W        W78870  33.835   0.045  14.850
12330W        W78871  19.228  41.120   4.648
12331W        W78872  14.569   5.713   4.523
12332W        W78873  18.634   0.228  13.160
12333W        W78874  33.965  12.814  12.700
12334W        W78875  34.602  29.594  11.262
12335W        W78876   3.625  39.476   3.674
12336W        W78877   8.850  28.017  12.136
12337W        W78878  10.680  12.818  13.783
12338W        W78879  21.587  20.601  11.982
12339W        W78880  17.061  33.340  11.022
12340W        W78881  33.163  25.103   2.973
12341W        W78882  18.858  15.295   1.425
12342W        W78883  21.259  34.819   0.401
12343W        W78884  38.043   2.839  10.677
12344W        W78885  22.058  37.911  10.540
12345W        W78886  19.152  32.059   1.300
12346W        W78887   7.133  39.814   0.371
12347W        W78888  19.292  15.423   3.622
12348W        W78889  43.314  27.497   2.694
12349W        W78890  42.153  34.332  12.589
12350W        W78891  21.253  29.727   1.791
12351W        W78892   7.987  42.964   0.759
12352W        W78893  32.058  26.468   4.547
12353W        W78894  19.046  26.454   4.258
12354W        W78895  13.749  44.413   3.259
12355W        W78896  26.955  44.438   3.230
12356W        W78897  44.699  32.937  11.569
12357W        W78898  13.795  10.313  11.241
12358W        W78899  18.316  43.533  13.834
12359W        W78900  22.791  13.155  12.946
12360W        W78901  20.127  43.349  11.593
12361W        W78902  33.325  35.825   2.445
12362W        W78903  27.145  33.826  10.635
12363W        W78904  26.651  25.987   0.938
12364W        W78905  38.956  24.635   3.644
12365W        W78906  29.563  44.713   2.526
12366W        W78907  42.845  39.340  11.317
12367W        W78908  29.704  34.285  11.185
12368W        W78909  42.787  42.993   2.874
12369W        W78910  33.598  20.600  13.529
12370W        W78911   8.185  12.791  11.996
12371W        W78912   9.779  44.333   0.443
12372W        W78913  31.399  30.359  14.874
12373W        W78914  30.861  40.795   4.155
12374W        W78915  38.457  36.990  12.848
12375W        W78916  23.738  10.725  11.599
12376W        W78917   6.328  35.440  14.479
12377W        W78918  27.502  13.169  13.112
12378W        W78919   7.402  41.458   1.311
12379W        W78920   3.840  17.682   4.603
12380W        W78921  38.705  32.349   3.217
12381W        W78922  28.051  38.647   9.999
12382W        W78923   5.119  12.911   5.318
12383W        W78924  39.959   0.696   1.391
12384W        W78925  33.448  38.409  10.750
12385W        W78926   4.661  28.661   3.914
12386W        W78927   1.830  36.356  14.802
12387W        W78928  26.710  20.657  14.543
12388W        W78929  39.433  29.168  11.409
12389W        W78930  43.964  24.303   2.385
12390W        W78931  18.930  23.985   1.854
12391W        W78932  31.393  26.673  11.563
12392W        W78933  36.528  40.871  12.750
12393W        W78934   4.202  29.260  11.444
12394W        W78935  37.885  41.399  14.241
12395W        W78936  30.092  36.616   4.569
12396W        W78937  44.951  42.179  13.078
12397W        W78938  10.153  19.303   4.143
12398W        W78939  44.141   0.709   3.118
12399W        W78940  24.988  30.066  12.201
12400W        W78941   9.367  17.814   1.230
12401W        W78942   9.605  36.185   0.007
12402W        W78943   6.428  30.071  11.980
12403W        W78944  12.388   9.407   3.141
12404W        W78945  29.177   7.504  10.443
12405W        W78946   7.869  31.689  14.939
12406W        W78947   3.293  27.978  12.680
12407W        W78948  30.581  41.533   4.679
12408W        W78949  37.467   4.194   2.839
12409W        W78950  23.629  43.453  14.503
12410W        W78951  26.574  23.962  13.484
12411W        W78952  39.929  20.100   1.514
12412W        W78953  31.407  39.453   2.720
12413W        W78954  27.142  15.839  11.407
12414W        W78955  43.372  26.506  13.395
12415W        W78956  22.261  26.063   4.557
12416W        W78957  22.963  17.287  13.042
12417W        W78958  35.002   3.962   3.628
12418W        W78959   7.441   4.306  12.906
12419W        W78960   2.044  22.488   1.345
12420W        W78961  22.621   3.716   1.308
12421W        W78962  31.004  15.226   4.299
12422W        W78963  41.405  44.720   2.156
12423W        W78964  32.065   7.408  13.910
12424W        W78965  18.969  43.086  12.603
12425W        W78966  40.004  30.894  13.909
12426W        W78967   3.141  28.574  14.836
12427W        W78968  23.186  36.721  11.856
12428W        W78969   4.230  15.769   0.393
12429W        W78970  29.680  26.352  10.330
12430W        W78971  27.119  15.365   4.559
12431W        W78972   8.992   8.678  14.719
12432W        W78973   7.264  17.386  14.495
12433W        W78974  35.163  37.840   2.670
12434W        W78975   8.868  44.810  13.104
12435W        W78976  20.177  24.122  13.759
12436W        W78977  14.357   9.234   2.621
12437W        W78978  19.246  33.310   4.725
12438W        W78979   2.102   0.939   0.734
12439W        W78980  17.793  24.122  13.122
12440W        W78981  38.265  37.609   1.978
12441W        W78982   8.599  27.601   4.991
12442W        W78983  29.279  20.487  11.215
12443W        W78984  22.235   6.727   4.027
12444W        W78985  28.752  17.819  10.830
12445W        W78986   0.719   2.833   2.048
12446W        W78987  19.024  16.762  10.826
12447W        W78988  18.552  38.502   3.864
12448W        W78989  38.320  33.375  14.012
12449W        W78990  11.862  22.665   2.310
12450W        W78991  19.167  35.723  12.950
12451W        W78992   9.152  34.487   4.218
12452W        W78993  40.831   5.749  14.990
12453W        W78994  26.213  41.481  13.494
12454W        W78995  17.447  18.643   3.111
12455W        W78996  20.496   4.548  12.048
12456W        W78997  25.074  32.848  13.323
12457W        W78998  37.329  23.582   3.374
12458W        W78999  42.775  12.224  11.096
12459W        W79000  19.574  11.339  14.345
12460W        W79001   7.440  36.499  14.254
12461W        W79002  19.181  32.552   1.511
12462W        W79003   8.477  37.639   0.489
12463W        W79004  16.698   6.614   2.617
12464W        W79005  43.184  26.320  12.050
12465W        W79006  37.385  34.321   0.454
12466W        W79007  27.952  24.657  14.282
12467W        W79008  16.179  44.032  12.559
12468W        W79009  32.415  16.156   4.597
12469W        W79010  13.813  29.576   1.814
12470W        W79011  42.823  12.724   1.474
12471W        W79012  23.044  32.048  13.236
12472W        W79013   1.433  40.091   3.212
12473W        W79014   9.902  13.578  12.601
12474W        W79015  23.560  19.515   3.617
12475W        W79016  20.562  16.376   4.639
12476W        W79017  29.624  14.892   2.456
12477W        W79018  40.779  10.588   3.733
12478W        W79019  44.450  17.414  13.321
12479W        W79020  37.518   2.566   0.727
12480W        W79021  20.584   2.943  13.594
12481W        W79022   2.270  34.393  11.465
12482W        W79023  42.239  19.637   0.879
12483W        W79024  34.955  33.971  13.122
12484W        W79025   0.291   8.707   4.983
12485W        W79026  23.752  17.233  13.406
12486W        W79027  32.595  41.769   0.174
12487W        W79028  16.601  36.665  14.106
12488W        W79029   6.247  23.741  12.972
12489W        W79030  35.851  33.865   4.655
12490W        W79031  20.022   3.878  10.863
12491W        W79032  39.892  28.969  11.617
12492W        W79033  23.165  26.650   0.911
12493W        W79034  33.827  43.412   4.470
12494W        W79035  44.653   1.916   2.212
12495W        W79036  10.599  41.360   2.762
12496W        W79037   0.529  23.471  13.973
12497W        W79038  11.182  27.751  12.127
12498W        W79039  13.859   5.198   0.923
12499W        W79040  44.069  42.434  12.090
12500W        W79041   4.275  10.169   2.922
12501W        W79042  27.384   7.293   3.651
12502W        W79043  10.176  10.788  11.950
12503W        W79044  38.454  26.104   0.890
12504W        W79045  44.957  34.508  11.762
12505W        W79046  39.400  24.244  11.582
12506W        W79047  41.973  33.909   2.431
12507W        W79048  10.982  44.960   4.891
12508W        W79049  28.978  15.846   1.088
12509W        W79050  28.790  31.825  11.959
12510W        W79051  19.144  34.056   1.226
12511W        W79052  27.462  36.934  10.616
12512W        W79053  36.559  44.763   4.571
12513W        W79054  32.083  43.982  13.319
12514W        W79055   8.173  22.511   3.661
12515W        W79056  42.348  18.241   2.975
12516W        W79057  25.757  33.336  10.044
12517W        W79058  37.994  30.586  11.271
12518W        W79059  13.080  25.231  11.583
12519W        W79060   2.183   7.286   0.782
12520W        W79061  14.761  10.444   1.889
12521W        W79062  39.123  19.213   0.493
12522W        W79063  29.862   5.957  13.278
12523W        W79064  28.637  10.412  13.092
12524W        W79065  21.072  31.411  13.715
12525W        W79066  19.786  31.408   0.325
12526W        W79067  28.514  10.492  11.621
12527W        W79068  21.753  36.029  13.315
12528W        W79069  36.804  24.092  13.317
12529W        W79070  20.797  22.079  12.368
12530W        W79071  44.192  25.309  14.342
12531W        W79072  32.896   2.290   3.501
12532W        W79073  30.863  16.142   0.022
12533W        W79074  10.388  14.857  12.533
12534W        W79075   9.666   6.219   1.369
12535W        W79076  22.731  36.500   0.292
12536W        W79077  21.311  22.621  12.475
12537W        W79078   1.506   6.654   1.707
12538W        W79079  38.361  42.483   2.301
12539W        W79080   6.372  11.130  12.841
12540W        W79081  19.215  30.996  14.430
12541W        W79082  13.245  25.068   4.413
12542W        W79083  25.095  34.525   3.000
12543W        W79084   9.619  16.133   4.802
12544W        W79085   4.199  14.585   4.760
12545W        W79086   1.101  37.472   4.618
12546W        W79087  34.362  26.166  11.070
12547W        W79088  21.816  20.570   3.335
12548W        W79089   5.457  17.336  13.631
12549W        W79090  16.402  43.952  12.097
12550W        W79091  23.510  16.275  13.483
12551W        W79092  18.655  10.188  14.209
12552W        W79093  11.874  35.855   1.310
12553W        W79094  23.273   4.238  12.111
12554W        W79095   1.240  22.935  14.785
12555W        W79096  10.845  32.169  14.935
12556W        W79097  12.424  35.958  13.479
12557W        W79098  36.002  35.547   0.773
12558W        W79099   4.303  21.678   1.704
12559W        W79100  33.946  43.332   1.223
12560W        W79101  36.708  22.830  10.226
12561W        W79102  26.616   2.261   0.130
12562W        W79103  31.999   0.618   3.715
12563W        W79104  31.303   7.602  10.776
12564W        W79105  27.689  39.627   2.086
12565W        W79106  34.128  18.861  10.835
12566W        W79107  27.894   3.276  10.326
12567W        W79108  43.155   7.806  11.666
12568W        W79109   6.169  34.075   4.647
12569W        W79110   5.414  12.745   0.434
12570W        W79111  13.889  34.607   3.234
12571W        W79112  17.593  42.498  12.901
12572W        W79113  31.319  30.053   2.309
12573W        W79114   3.364  20.233  10.806
12574W        W79115  36.886   8.335   2.127
12575W        W79116  30.682  21.187   4.551
12576W        W79117  43.541  23.577   3.725
12577W        W79118  15.908  15.528   1.770
12578W        W79119   1.778  39.201  13.434
12579W        W79120  10.434  40.700   4.630
12580W        W79121  12.704   1.260  14.962
12581W        W79122   2.310  18.700   1.128
12582W        W79123  15.066  35.769   1.742
12583W        W79124  18.726  37.635   5.115
12584W        W79125  36.423   1.226  12.022
12585W        W79126  12.742  23.810   0.281
12586W        W79127  42.597  21.720  12.806
12587W        W79128  12.752  22.177   2.358
12588W        W79129  24.494  44.689  12.130
12589W        W79130  24.953   7.705  12.884
12590W        W79131  22.982   7.121  14.049
12591W        W79132  13.378  30.472   3.627
12592W        W79133  30.657  21.642   2.352
12593W        W79134  30.025   8.125   3.667
12594W        W79135  31.481   1.481  12.671
12595W        W79136  15.064  28.881  10.286
12596W        W79137  33.600  19.256  12.123
12597W        W79138  21.748  24.020   0.409
12598W        W79139  26.625  26.246   3.675
12599W        W79140   4.877  13.069  13.992
12600W        W79141  27.060  27.124   2.443
12601W        W79142  39.984  32.717   2.764
12602W        W79143  12.647  20.040   1.374
12603W        W79144   9.950  32.398  11.258
12604W        W79145   4.920  11.779  13.264
12605W        W79146  27.436   0.817   0.317
12606W        W79147  31.122  39.780   0.536
12607W        W79148   4.717  15.800   0.191
12608W        W79149  41.568  27.058  11.550
12609W        W79150  19.330  40.791   2.897
12610W        W79151  35.704   1.323   5.020
12611W        W79152  26.385  43.810   3.897
12612W        W79153  40.731  10.988  13.839
12613W        W79154  35.559  44.912  11.180
12614W        W79155  11.648   5.411  12.549
12615W        W79156   1.394  41.995   2.075
12616W        W79157   3.277  13.872   3.268
12617W        W79158  41.828   1.183   1.275
12618W        W79159  11.173  35.534  14.425
12619W        W79160  22.363   0.241  13.334
12620W        W79161  20.175   9.407  12.928
12621W        W79162  26.172   8.937   1.646
12622W        W79163  20.457  28.707   1.332
12623W        W79164  33.806  36.938   2.784
12624W        W79165  27.782  30.739   2.798
12625W        W79166  23.871  21.483   0.280
12626W        W79167   8.269  40.774   2.290
12627W        W79168  39.621  29.612  12.169
12628W        W79169  27.157  28.173  11.586
12629W        W79170  41.033   8.796  11.270
12630W        W79171  17.129  16.189  12.954
12631W        W79172  20.373  44.592  13.326
12632W        W79173  21.089  10.458  11.327
12633W        W79174  34.362  15.176   2.231
12634W        W79175   6.226   4.579  12.437
12635W        W79176  31.005  41.434  13.015
12636W        W79177  26.895  34.869   5.053
12637W        W79178  37.562  27.283   4.050
12638W        W79179  10.844  26.468   2.699
12639W        W79180  12.152  21.944  11.008
12640W        W79181  18.656  18.108   0.684
12641W        W79182  13.096  34.942   3.665
12642W        W79183   5.935  33.124  12.275
12643W        W79184  12.178  10.455  14.292
12644W        W79185  32.904   8.365   3.710
12645W        W79186  22.654  10.290  13.509
12646W        W79187  15.336  19.809  11.510
12647W        W79188  26.442   7.872   1.416
12648W        W79189  25.587   9.465  11.662
12649W        W79190  33.047  33.422   4.266
12650W        W79191  15.547  23.394   2.040
12651W        W79192  17.272   9.783   2.382
12652W        W79193  20.768  12.590  14.378
12653W        W79194  12.329  27.257  12.870
12654W        W79195   1.465  20.558   0.503
12655W        W79196  29.665  11.147   3.355
12656W        W79197   1.901   8.165   3.040
12657W        W79198  15.370   7.546   2.265
12658W        W79199  20.599  30.557  11.411
12659W        W79200  29.234  26.637  14.926
12660W        W79201  31.463  20.465  10.809
12661W        W79202  30.873   3.333   1.779
12662W        W79203   1.085  10.038  14.912
12663W        W79204  39.583  32.408   1.887
12664W        W79205  28.537  38.416  10.751
12665W        W79206  27.219  20.379  14.690
12666W        W79207  18.071  19.385   1.459
12667W        W79208  28.194  18.702   2.596
12668W        W79209  14.134  21.119  10.810
12669W        W79210  37.909   4.009   1.654
12670W        W79211  28.630  36.102   0.810
12671W        W79212  29.428  29.578   2.862
12672W        W79213   0.747  38.487  11.400
12673W        W79214  31.144  39.520  14.585
12674W        W79215  31.244   9.853   0.436
12675W        W79216   5.430   0.210   3.732
12676W        W79217  39.450  32.035  13.431
12677W        W79218   3.029  29.118   2.391
12678W        W79219  30.174  12.118  13.797
12679W        W79220  25.675  18.628   1.749
12680W        W79221  39.832  38.881  13.097
12681W        W79222  25.701  16.139  12.669
12682W        W79223  36.624  16.283  12.295
12683W        W79224  13.516  12.854  14.990
12684W        W79225  42.957  44.835   4.226
12685W        W79226  37.841   7.966  11.055
12686W        W79227  20.678   8.934  10.938
12687W        W79228  30.156  23.486   4.675
12688W        W79229  35.970  16.177  14.992
12689W        W79230   3.344   4.735  13.113
12690W        W79231   3.474  22.230   3.769
12691W        W79232  43.494  36.083  10.068
12692W        W79233  24.064  14.621  10.848
12693W        W79234  10.839  15.071   1.124
12694W        W79235  42.483  16.244  12.153
12695W        W79236  22.674   7.652  11.620
12696W        W79237  20.225  23.954   1.402
12697W        W79238   8.693  27.488   2.841
12698W        W79239  14.205  43.246   3.101
12699W        W79240  30.965   2.755   3.378
12700W        W79241   3.395  22.215  11.064
12701W        W79242  27.351  12.354   0.305
12702W        W79243  41.976  41.503   3.275
12703W        W79244  36.338  17.124  10.839
12704W        W79245  44.259  20.180   4.068
12705W        W79246  23.681  14.788  12.488
12706W        W79247  41.910  27.001  12.677
12707W        W79248   3.006   1.667  11.804
12708W        W79249  17.352  11.567   1.803
12709W        W79250  44.883  11.360   4.904
12710W        W79251  37.877  32.267   4.746
12711W        W79252   7.007  27.956  11.408
12712W        W79253   4.087  42.105  12.976
12713W        W79254  17.281  27.342   3.854
12714W        W79255  17.830  25.889   0.886
12715W        W79256  21.789  36.431  11.542
12716W        W79257   1.259  40.085  10.670
12717W        W79258   8.162  10.169  12.098
12718W        W79259   4.252   6.341  14.380
12719W        W79260   3.849  22.663   3.644
12720W        W79261  35.728   7.488   0.895
12721W        W79262  24.559   4.792   0.115
12722W        W79263   3.244  20.607  14.045
12723W        W79264  14.361   0.154   1.027
12724W        W79265  29.114  29.419   4.062
12725W        W79266  16.861  28.670   0.283
12726W        W79267  23.681  23.715  12.025
12727W        W79268  31.442   2.746  10.375
12728W        W79269   2.342  14.601  11.481
12729W        W79270  31.045  18.783  11.411
12730W        W79271   8.702   0.292  13.936
12731W        W79272  42.435  41.103  12.925
12732W        W79273  30.148  14.352   4.082
12733W        W79274   7.262  15.610  12.228
12734W        W79275  19.814  14.305   0.543
12735W        W79276  42.282   1.971  13.395
12736W        W79277  19.877   1.672   5.007
12737W        W79278  25.503  21.476   4.853
12738W        W79279  38.510  37.948  12.427
12739W        W79280  18.758  20.025   0.847
12740W        W79281  20.965  41.612  13.932
12741W        W79282  10.257  22.159  10.153
12742W        W79283  22.522  35.975   9.940
12743W        W79284   7.164  11.388  12.493
12744W        W79285  17.985  19.726   1.966
12745W        W79286  38.174  34.271  12.079
12746W        W79287  43.644   6.923   2.451
12747W        W79288   6.763  13.593  12.997
12748W        W79289  26.209  22.722  14.911
12749W        W79290  19.297  21.237   0.924
12750W        W79291  43.270  13.146   0.921
12751W        W79292  32.962  17.834  12.202
12752W        W79293   4.172   4.626  12.380
12753W        W79294   3.875  36.989   2.759
12754W        W79295  18.463  44.024  13.196
12755W        W79296  31.293   4.352   4.142
12756W        W79297   4.356  14.731  11.466
12757W        W79298   6.836  22.246   1.405
12758W        W79299  36.932  42.376   1.834
12759W        W79300  24.603  15.520   3.052
12760W        W79301  40.850   8.847   1.810
12761W        W79302   4.850   0.203   3.298
12762W        W79303  13.940  43.859  12.294
12763W        W79304  41.315  10.083  14.764
12764W        W79305  25.056  42.390   4.072
12765W        W79306  29.051  17.870  13.020
12766W        W79307  17.780  12.628  12.436
12767W        W79308  29.739   2.334   4.254
12768W        W79309  44.854   6.427   1.823
12769W        W79310  38.141  20.251   0.375
12770W        W79311  23.584  15.328  10.714
12771W        W79312  23.265   8.910  10.445
12772W        W79313  41.036  41.156   3.211
12773W        W79314   6.734  15.690   1.736
12774W        W79315  27.576  32.722  11.078
12775W        W79316  37.975  12.050  12.374
12776W        W79317   3.415   3.716  13.489
12777W        W79318  28.225  17.057  11.176
12778W        W79319  20.676  41.972  12.014
12779W        W79320   2.428   5.710   4.978
12780W        W79321  25.175  30.519  11.950
12781W        W79322  44.235  11.312  10.708
12782W        W79323  37.038  29.412   3.462
12783W        W79324  10.942  22.081   3.200
12784W        W79325  12.225  26.661   3.697
12785W        W79326  26.973  34.321   3.627
12786W        W79327  33.315  42.478  11.534
12787W        W79328  32.571   6.866   0.350
12788W        W79329  28.117  10.244  12.955
12789W        W79330  24.533  35.124   3.864
12790W        W79331  20.308  16.208  14.358
12791W        W79332  26.087  36.469  14.954
12792W        W79333  34.798  22.598   2.194
12793W        W79334  25.872   3.231  10.641
12794W        W79335  26.746  35.383   4.242
12795W        W79336  37.978  38.581  12.048
12796W        W79337   0.223  43.385  14.828
12797W        W79338  12.944  43.563  10.608
12798W        W79339   6.788  23.806   1.249
12799W        W79340  25.068  15.639  11.083
12800W        W79341  29.220  21.193   2.624
12801W        W79342  31.391  20.327  12.871
12802W        W79343  20.446  19.365  11.510
12803W        W79344  24.715  40.859   3.256
12804W        W79345  16.784  35.399   4.102
12805W        W79346   4.643  43.350  10.110
12806W        W79347  43.493  40.735   0.902
12807W        W79348  25.104   2.744   3.236
12808W        W79349   5.340   5.202   1.310
12809W        W79350  37.713   7.082  12.015
12810W        W79351  44.307   7.128  13.106
12811W        W79352  15.086  29.613  12.382
12812W        W79353  27.773   1.184  12.568
12813W        W79354  31.296   0.810  12.984
12814W        W79355   9.709  43.456  13.500
12815W        W79356  33.407  20.492   1.202
12816W        W79357  25.090  28.684   0.725
12817W        W79358  39.642   5.323  11.065
12818W        W79359  25.659  18.400  14.046
12819W        W79360  19.577  14.552  14.325
12820W        W79361  16.071  43.488  13.348
12821W        W79362  38.489  28.957   1.605
12822W        W79363  27.484  24.855  14.248
12823W        W79364  34.022  20.486   4.521
12824W        W79365  20.054  26.469  11.327
12825W        W79366   6.812  15.159   4.408
12826W        W79367  33.464  31.758  13.396
12827W        W79368  20.993  39.376  12.911
12828W        W79369  22.964  12.747   4.128
12829W        W79370  26.141  25.997  14.421
12830W        W79371  29.593   4.695   0.950
12831W        W79372   3.258   5.288  12.836
12832W        W79373  12.236  38.492   0.333
12833W        W79374  40.986  44.697  10.423
12834W        W79375  25.264  29.143  14.844
12835W        W79376  17.101  15.594  10.727
12836W        W79377  34.182  38.334  12.478
12837W        W79378  20.075  19.524   1.747
12838W        W79379  26.914  27.100  14.018
12839W        W79380  17.306  30.837  10.443
12840W        W79381  13.797  24.247   1.798
12841W        W79382   6.671  17.616   2.768
12842W        W79383  12.254  30.490  14.880
12843W        W79384   0.992  27.400   2.866
12844W        W79385  26.347  37.694  11.415
12845W        W79386  15.769  24.079  13.810
12846W        W79387  40.352  32.136  12.911
12847W        W79388  40.142   2.743  14.854
12848W        W79389  32.004  27.983  14.170
12849W        W79390  40.471  16.812  12.864
12850W        W79391  20.472  17.685   3.733
12851W        W79392   4.258  22.614   5.149
12852W        W79393   3.812  11.579  12.574
12853W        W79394  30.462  31.521   1.025
12854W        W79395  42.400   4.979   0.365
12855W        W79396  11.837  24.709   2.792
12856W        W79397  41.020  39.701  11.547
12857W        W79398   6.927  19.535  10.442
12858W        W79399  12.892  12.544   2.785
12859W        W79400  44.208  11.656  12.778
12860W        W79401  30.068  15.680   4.675
12861W        W79402  27.505  18.213  10.800
12862W        W79403  22.251  36.055  14.858
12863W        W79404  39.243  35.423  11.093
12864W        W79405  25.774  30.920   3.987
12865W        W79406  13.605  23.971   1.422
12866W        W79407  15.835   5.383  14.282
12867W        W79408  42.956  40.762   1.857
12868W        W79409  24.339  25.740   1.357
12869W        W79410   8.372  18.693   1.674
12870W        W79411  29.832  24.649   4.134
12871W        W79412  10.288  34.465   9.922
12872W        W79413  43.803  33.044  14.369
12873W        W79414  10.092  18.206  14.045
12874W        W79415  10.048  34.654   3.340
12875W        W79416   0.661   1.815   0.947
12876W        W79417  11.105  20.533   1.717
12877W        W79418  35.833  35.437   3.739
12878W        W79419  15.377  14.445  14.654
12879W        W79420  28.520  41.303  13.280
12880W        W79421  29.407   9.827  12.643
12881W        W79422  19.700  35.823  11.731
12882W        W79423  29.735  32.641   2.698
12883W        W79424  13.276   7.720  12.387
12884W        W79425  42.769   9.112   1.260
12885W        W79426   3.472  13.692  12.055
12886W        W79427  42.220  16.138  13.008
12887W        W79428   3.734  39.808  14.521
12888W        W79429  23.755   8.170   4.493
12889W        W79430   8.869  42.260   1.416
12890W        W79431  13.348  12.879  13.188
12891W        W79432  26.983   6.899  11.569
12892W        W79433   6.219  10.415   3.563
12893W        W79434  20.145   1.272  10.932
12894W        W79435  12.602  36.542   2.173
12895W        W79436  15.581   7.807  12.507
12896W        W79437   2.981  44.226   4.800
12897W        W79438  29.727  35.889   3.799
12898W        W79439  33.268  19.716   0.169
12899W        W79440  23.833  25.676   2.409
12900W        W79441  33.651  26.935  12.653
12901W        W79442  40.771   0.866  13.516
12902W        W79443  14.754  21.302  12.687
12903W        W79444  42.405  10.686   1.707
12904W        W79445   9.431  37.846   4.853
12905W        W79446  38.814  42.344  12.896
12906W        W79447  32.916  24.607   4.871
12907W        W79448  42.749  20.908  11.131
12908W        W79449  44.822  31.540   3.665
12909W        W79450  16.325  38.300  12.927
12910W        W79451   9.703   0.275  13.845
12911W        W79452  42.481  19.453  10.993
12912W        W79453  43.903  30.649  14.793
12913W        W79454  21.585  28.403  12.927
12914W        W79455  27.094  19.583  13.130
12915W        W79456  14.131  41.926   3.661
12916W        W79457  15.817  33.919  10.235
12917W        W79458   3.033  12.103  12.615
12918W        W79459  37.025  13.386  10.621
12919W        W79460  17.011   7.959  11.655
12920W        W79461   9.693  34.114  14.489
12921W        W79462   2.406  22.283   3.165
12922W        W79463  18.994   9.337  10.784
12923W        W79464  29.564   2.943  13.446
12924W        W79465   0.508  34.373  13.480
12925W        W79466  23.609   0.959  14.472
12926W        W79467  10.700  37.565   0.484
12927W        W79468  24.061   1.705   3.786
12928W        W79469  44.533  25.725  12.205
12929W        W79470  37.076   2.896   2.320
12930W        W79471  16.587   0.437  11.429
12931W        W79472  19.623  29.045   3.702
12932W        W79473  10.505   9.886  14.263
12933W        W79474  32.925  11.100   1.112
12934W        W79475  24.758   8.127  14.996
12935W        W79476   9.850  21.435  11.111
12936W        W79477  19.035   2.007  12.514
12937W        W79478  39.661  29.614   5.102
12938W        W79479  14.045   8.142  14.278
12939W        W79480  19.014  26.666  14.875
12940W        W79481   4.742  39.041   1.900
12941W        W79482  44.491  33.446  13.566
12942W        W79483  22.036  38.312   3.735
12943W        W79484  44.295   7.411   1.439
12944W        W79485  24.648  23.010   4.564
12945W        W79486  23.991  20.683  12.118
12946W        W79487  44.228  40.479  14.737
12947W        W79488  14.257  41.917   4.523
12948W        W79489  22.517   1.518   0.827
12949W        W79490  10.294  17.110   0.660
12950W        W79491  18.364  36.126   4.560
12951W        W79492   9.545   0.318   3.719
12952W        W79493  16.281  26.705  12.892
12953W        W79494   2.929  44.255  12.377
12954W        W79495  34.466  21.123   4.265
12955W        W79496  21.044   2.892  13.078
12956W        W79497   7.376  29.217   1.771
12957W        W79498  19.518  11.666   0.680
12958W        W79499  20.838  28.705  11.254
12959W        W79500  23.008  31.902   3.326
12960W        W79501  22.917   0.008  12.940
12961W        W79502  31.672   3.438   3.261
12962W        W79503  31.384  12.788  14.308
12963W        W79504  11.806  24.276   0.943
12964W        W79505   2.992  14.177  10.468
12965W        W79506  44.789  18.252  10.437
12966W        W79507  26.015  15.016  12.178
12967W        W79508  25.278  34.786  12.241
12968W        W79509  14.877   7.693   2.345
12969W        W79510  43.631  31.499  11.059
12970W        W79511   4.338   3.544   5.370
12971W        W79512  39.963   0.442   3.255
12972W        W79513  18.880   1.834   4.765
12973W        W79514   8.073  36.520  13.486
12974W        W79515  41.674  32.170  10.381
12975W        W79516   5.363  15.573   4.090
12976W        W79517  32.037  40.413  14.847
12977W        W79518   5.351   0.466  14.303
12978W        W79519  19.636  28.125   3.749
12979W        W79520   8.258  12.184   2.824
12980W        W79521   9.465  37.308   1.138
12981W        W79522   9.664  30.901   4.571
12982W        W79523  19.750  26.423  14.284
12983W        W79524  19.739  28.501  12.932
12984W        W79525  17.590  37.940   0.475
12985W        W79526  24.294  14.567   3.821
12986W        W79527  37.351  30.645   0.558
12987W        W79528   7.303  30.354   3.613
12988W        W79529  23.064   8.373  10.562
12989W        W79530  34.195   9.552   0.786
12990W        W79531  32.163  42.859   0.874
12991W        W79532   5.918  33.176   2.385
12992W        W79533   7.783   5.030  13.832
12993W        W79534   6.851  16.262   4.410
12994W        W79535  26.008  26.613  11.897
12995W        W79536  20.057  39.586   0.754
12996W        W79537  36.822  31.021   4.991
12997W        W79538   8.109  21.942  11.964
12998W        W79539  14.309  17.703  13.139
12999W        W79540   9.180   9.429  14.251
13000W        W79541  37.361  10.792   2.306
13001W        W79542  27.122   8.293   2.110
13002W        W79543  28.688   3.797   0.506
13003W        W79544  26.173   1.332   3.805
13004W        W79545  12.168   5.256   2.670
13005W        W79546  41.972  30.304   5.016
13006W        W79547  30.585  28.908  10.739
13007W        W79548  39.959  12.406   4.973
13008W        W79549  22.430  36.083   0.349
13009W        W79550  25.873  40.513   3.075
13010W        W79551  35.303   6.518   3.860
13011W        W79552  21.665  10.957  14.233
13012W        W79553  40.095  10.535  11.045
13013W        W79554  35.342  18.758  12.257
13014W        W79555  24.276  21.148   0.370
13015W        W79556  13.449  36.002  14.427
13016W        W79557  13.053  19.004  12.491
13017W        W79558   8.733  14.454   0.593
13018W        W79559  30.847  35.308  14.951
13019W        W79560  19.167  21.963   1.965
13020W        W79561  44.053  35.308  12.712
13021W        W79562   2.523  14.154  11.722
13022W        W79563  14.683  38.752   4.602
13023W        W79564   9.553  37.141  14.187
13024W        W79565  31.552   4.357   1.029
13025W        W79566  20.979   3.844   4.203
13026W        W79567  31.072   2.663  10.018
13027W        W79568   2.862  40.178   3.893
13028W        W79569  20.680  18.015   2.443
13029W        W79570   8.699  14.800   3.593
13030W        W79571   8.344  44.959   0.977
13031W        W79572  10.329  34.562   0.863
13032W        W79573   3.219  38.431  10.720
13033W        W79574  36.328  19.390  11.059
13034W        W79575  24.520  21.014  12.053
13035W        W79576  11.944   4.915  12.002
13036W        W79577  13.268   2.361   2.340
13037W        W79578  21.132  32.458   2.200
13038W        W79579  10.245   5.079  14.344
13039W        W79580  30.607  14.758   4.976
13040W        W79581  30.130  35.609   2.749
13041W        W79582  11.511  13.629  14.371
13042W        W79583  34.998   8.684   3.205
13043W        W79584  43.475  14.829  14.376
13044W        W79585   5.978  15.456   1.291
13045W        W79586  21.499  32.015  13.073
13046W        W79587  13.947  18.687  13.815
13047W        W79588  16.151  14.538   2.274
13048W        W79589   1.650  18.423  12.184
13049W        W79590  37.090  31.889  12.046
13050W        W79591  30.764   0.322   0.255
13051W        W79592  30.981  20.203   3.739
13052W        W79593  15.136  21.601  12.909
13053W        W79594  35.097  35.390  14.875
13054W        W79595   2.361  23.674  14.311
13055W        W79596  39.198  24.250  12.438
13056W        W79597   1.634  38.797   3.351
13057W        W79598  23.108  33.064   3.953
13058W        W79599  13.158  34.442   2.907
13059W        W79600  21.798  25.691   3.085
13060W        W79601  15.216  43.159   3.355
13061W        W79602  23.922   2.183   3.640
13062W        W79603  18.248  39.545   2.208
13063W        W79604  41.410   3.844  14.736
13064W        W79605  13.907  36.548   4.150
13065W        W79606  35.480  39.103  14.888
13066W        W79607  17.000  38.056   3.180
13067W        W79608  12.049  37.564   0.839
13068W        W79609   1.368  34.295  13.178
13069W        W79610  24.652  37.959  11.551
13070W        W79611  41.548  38.745   3.419
13071W        W79612  11.255  23.199   3.857
13072W        W79613  41.462  27.210  12.480
13073W        W79614  13.497  25.040  14.255
13074W        W79615  31.109  19.466   2.958
13075W        W79616  12.046  21.531  12.148
13076W        W79617  35.660  17.128  12.543
13077W        W79618  16.805  38.037   4.166
13078W        W79619  12.187  29.534   4.317
13079W        W79620   7.423  35.221  10.778
13080W        W79621  37.548  25.695   4.525
13081W        W79622   4.426   2.409  11.285
13082W        W79623  35.103  24.056  13.503
13083W        W79624  22.746  26.197   3.693
13084W        W79625  41.883   3.273   2.236
13085W        W79626  31.183  39.885   2.848
13086W        W79627  44.533   9.090  11.928
13087W        W79628  33.401  30.039   3.415
13088W        W79629  33.487  38.575   2.703
13089W        W79630   2.206  43.028  10.886
13090W        W79631  20.794   9.925   3.300
13091W        W79632  19.870  24.441   0.059
13092W        W79633  17.822  17.827   0.374
13093W        W79634   3.203   9.074  14.342
13094W        W79635   1.518  33.373   0.777
13095W        W79636  25.566  13.285   4.511
13096W        W79637  29.531   7.182   4.540
13097W        W79638  37.527  42.797   1.651
13098W        W79639   9.182   3.013   0.743
13099W        W79640  12.869  32.795  12.536
13100W        W79641  11.568  17.336  12.316
13101W        W79642   0.193   7.394  12.179
13102W        W79643  11.697  43.384  13.454
13103W        W79644  33.130   7.344   1.429
13104W        W79645  41.772  25.145  11.551
13105W        W79646  29.559  28.384   4.111
13106W        W79647  37.824   3.793  14.335
13107W        W79648   8.114  27.401   1.053
13108W        W79649   2.492   1.175  13.044
13109W        W79650  27.026  12.592  14.055
13110W        W79651  13.355  19.191   2.415
13111W        W79652  12.193  18.568  11.957
13112W        W79653   4.399  33.962  13.274
13113W        W79654  11.818  10.122   1.432
13114W        W79655  44.003  33.415  10.211
13115W        W79656  33.934  35.598  10.384
13116W        W79657  36.808  18.146   1.696
13117W        W79658  37.641  41.277   0.859
13118W        W79659  13.946  22.036   3.077
13119W        W79660  41.271  25.777   0.303
13120W        W79661  44.998  32.985   1.438
13121W        W79662  16.230  39.034  13.599
13122W        W79663  29.918   7.283   0.856
13123W        W79664  30.954  19.265   3.445
13124W        W79665  12.574  23.073  14.812
13125W        W79666  32.159  41.798   0.883
13126W        W79667   0.674  38.876  13.449
13127W        W79668  33.011  10.755  13.122
13128W        W79669  30.502  44.176  14.133
13129W        W79670  15.655  41.574  14.401
13130W        W79671  22.433  15.857   4.165
13131W        W79672  25.390  41.863   2.809
13132W        W79673  25.459  17.821  14.566
13133W        W79674  19.762   5.312   4.462
13134W        W79675   2.781  14.159   4.012
13135W        W79676  21.374  31.322   3.368
13136W        W79677   5.559  14.512  11.831
13137W        W79678  11.362  44.931   4.532
13138W        W79679  12.325   4.679   4.773
13139W        W79680  33.172  23.995  14.449
13140W        W79681  12.280  29.037  10.256
13141W        W79682   1.749  30.588   4.007
13142W        W79683   7.754  17.112   3.154
13143W        W79684  44.745   5.135  12.517
13144W        W79685  22.805  31.483  13.362
13145W        W79686  44.941  18.447  11.667
13146W        W79687  38.600  17.821   2.783
13147W        W79688  18.726  22.946  13.065
13148W        W79689  24.035  42.944   3.279
13149W        W79690  41.933  21.998  11.217
13150W        W79691  33.554  30.207  13.778
13151W        W79692  28.049  13.607   2.326
13152W        W79693  40.379   7.169   4.549
13153W        W79694  39.968  44.725   2.337
13154W        W79695  11.110   1.318  14.859
13155W        W79696  42.981  31.055  12.620
13156W        W79697   6.060  30.424  10.749
13157W        W79698  12.446  21.765   4.595
13158W        W79699  10.432  37.051   0.359
13159W        W79700  37.518  31.731   3.257
13160W        W79701  37.722   5.741  11.213
13161W        W79702   4.560  32.019   3.285
13162W        W79703  15.325  21.051   2.654
13163W        W79704   4.866   4.334   3.925
13164W        W79705  23.943  26.774  14.756
13165W        W79706  22.130  43.530  13.872
13166W        W79707  14.281  14.751  13.109
13167W        W79708   1.001   8.778   2.849
13168W        W79709  11.939  27.331  12.494
13169W        W79710   9.244  42.344  12.939
13170W        W79711  10.093  20.852   1.837
13171W        W79712   2.739  10.696   3.287
13172W        W79713  10.168  38.575  11.186
13173W        W79714  32.746  15.044  13.820
13174W        W79715  32.327  20.627  11.125
13175W        W79716  34.056   5.802  10.446
13176W        W79717  33.932   6.513  11.895
13177W        W79718   0.848  16.135   0.521
13178W        W79719  17.189  39.020   1.697
13179W        W79720   6.437  21.386   4.324
13180W        W79721  10.838  21.918  14.033
13181W        W79722  36.908  14.906   1.418
13182W        W79723  20.185  34.227   1.413
13183W        W79724  28.464  23.539  10.651
13184W        W79725  23.731  17.576  14.648
13185W        W79726   8.786  25.281  14.740
13186W        W79727  24.404  30.936  11.933
13187W        W79728   5.319  24.060  11.016
13188W        W79729   5.657  30.084  13.379
13189W        W79730  24.876  41.372  12.473
13190W        W79731  18.537  17.145   1.739
13191W        W79732  34.665  14.237   4.965
13192W        W79733  26.163  24.707   3.182
13193W        W79734  40.510  44.230   0.910
13194W        W79735   1.319  31.383  12.647
13195W        W79736  11.237  34.669   0.338
13196W        W79737  31.275  24.861   0.894
13197W        W79738   5.257  43.528   3.156
13198W        W79739  24.263  27.039  14.381
13199W        W79740   4.722  31.478   1.820
13200W        W79741  36.115  12.784  11.091
13201W        W79742   4.506  24.612   3.721
13202W        W79743  31.692  22.912   0.450
13203W        W79744  24.258  38.980  14.156
13204W        W79745   8.263  11.945  11.649
13205W        W79746  36.507  27.066   0.830
13206W        W79747  15.931  15.253   0.036
13207W        W79748  43.984  27.387   0.119
13208W        W79749   9.559  29.912  13.869
13209W        W79750  24.273  34.047  10.848
13210W        W79751  17.603  10.168   1.256
13211W        W79752  17.509  26.564   2.195
13212W        W79753  11.321  17.734  13.232
13213W        W79754  27.112  33.435   3.634
13214W        W79755  25.491  11.744   1.730
13215W        W79756  11.822  38.116  11.924
13216W        W79757  25.211   4.373  12.988
13217W        W79758   7.421  44.774  11.859
13218W        W79759   8.906  23.769   2.436
13219W        W79760  35.847  30.370   0.892
13220W        W79761  30.619  38.024   4.405
13221W        W79762  31.508   8.161  14.011
13222W        W79763  15.015  33.197  11.616
13223W        W79764  24.442  34.467   1.757
13224W        W79765   3.269  10.127   4.057
13225W        W79766  17.118  40.479   4.551
13226W        W79767  25.549  36.324   3.312
13227W        W79768  30.634  19.290   0.834
13228W        W79769  21.231  22.519   2.931
13229W        W79770  43.482  37.269  13.307
13230W        W79771  22.593  20.230   1.184
13231W        W79772  27.250  12.179  12.932
13232W        W79773  21.994   1.395   4.425
13233W        W79774  31.982   7.326   1.178
13234W        W79775  11.354  29.960   2.290
13235W        W79776   6.866  21.584  14.735
13236W        W79777  10.640  11.010  11.915
13237W        W79778  28.476  13.805  12.433
13238W        W79779  20.334  35.340  12.206
13239W        W79780   3.501  13.155  14.995
13240W        W79781  21.413   6.239   1.472
13241W        W79782  10.261  42.553  12.335
13242W        W79783   7.400  22.691  11.343
13243W        W79784  26.223   7.305   4.303
13244W        W79785   4.485   4.276   0.808
13245W        W79786   1.990  35.336  12.944
13246W        W79787  19.524   2.922   4.513
13247W        W79788  44.819  21.780   3.812
13248W        W79789  39.971   9.012   0.045
13249W        W79790   3.045   7.182   2.444
13250W        W79791   2.208   8.369  13.491
13251W        W79792  35.637   5.673   3.760
13252W        W79793   3.433   0.575  12.529
13253W        W79794   9.999  18.379   0.322
13254W        W79795   2.928   8.415   4.640
13255W        W79796  15.508  17.766  14.755
13256W        W79797   3.268  44.462  11.626
13257W        W79798  18.556   5.405   3.402
13258W        W79799  41.140  21.921   0.988
13259W        W79800  15.639  35.951  14.329
13260W        W79801  44.346  35.899  10.893
13261W        W79802  23.911  36.364  13.510
13262W        W79803   1.791  27.030   2.768
13263W        W79804  16.261  26.439  11.346
13264W        W79805  32.078  26.079   1.455
13265W        W79806  11.127  20.514  13.997
13266W        W79807  26.421  20.125  11.561
13267W        W79808  41.725  32.410   4.594
13268W        W79809  21.649  26.704  12.042
13269W        W79810  15.294  16.163  12.438
13270W        W79811  24.031  35.668  11.637
13271W        W79812  40.518   2.196   2.828
13272W        W79813  34.942  23.327   2.896
13273W        W79814  34.688   0.318   3.425
13274W        W79815  14.511   1.042  12.511
13275W        W79816  12.266  25.152  13.924
13276W        W79817  35.433  40.145  14.894
13277W        W79818  43.337  40.331   3.854
13278W        W79819  25.140   3.632  10.250
13279W        W79820  19.386  34.202  10.688
13280W        W79821  26.028   3.304  13.493
13281W        W79822  20.242   8.632  11.138
13282W        W79823  33.380   2.064   1.411
13283W        W79824  34.664  16.577   4.024
13284W        W79825  43.949  25.285  10.715
13285W        W79826  38.850  19.594   0.219
13286W        W79827   5.961  14.135   4.896
13287W        W79828  16.220   6.135  12.108
13288W        W79829  21.179  30.503  13.592
13289W        W79830  12.260  19.259   0.291
13290W        W79831  18.858  18.296  10.861
13291W        W79832   7.918  38.835  12.429
13292W        W79833  37.402  31.133  14.073
13293W        W79834   7.284  34.675   3.121
13294W        W79835  39.420   1.945  10.154
13295W        W79836  34.662   1.938   2.083
13296W        W79837   9.231  24.397  12.020
13297W        W79838  38.974  30.044   3.891
13298W        W79839  22.349   9.286  11.417
13299W        W79840  21.451  26.410  10.421
13300W        W79841  38.066  37.658   1.464
13301W        W79842   9.376  33.000  12.526
13302W        W79843  10.725  27.682  13.991
13303W        W79844  12.272   4.370  11.656
13304W        W79845  36.081  20.589  11.492
13305W        W79846  30.255  21.751   1.962
13306W        W79847  17.297   2.796  13.419
13307W        W79848  21.200  37.558   3.106
13308W        W79849  20.038   1.406  12.966
13309W        W79850  29.922  30.101   0.735
13310W        W79851  23.145  30.179   1.919
13311W        W79852  36.619  40.496  11.905
13312W        W79853  35.513  31.824   2.854
13313W        W79854   1.911  11.243   0.832
13314W        W79855  28.274  13.328   9.889
13315W        W79856  19.416  23.636  14.255
13316W        W79857  19.235  29.105   4.749
13317W        W79858  10.110  28.677  13.645
13318W        W79859  30.155  38.102  10.769
13319W        W79860  41.148  22.459   3.279
13320W        W79861  26.684  29.830   2.217
13321W        W79862   4.764  43.711   3.179
13322W        W79863   7.081  38.353  12.443
13323W        W79864  24.160  41.584  14.459
13324W        W79865  11.145  12.179  13.099
13325W        W79866  31.370  38.830   2.292
13326W        W79867   2.401  24.630   3.182
13327W        W79868   6.794   9.694  14.949
13328W        W79869   8.975   4.703   0.954
13329W        W79870   5.336   6.405   3.602
13330W        W79871  18.662  13.619   0.364
13331W        W79872   6.169   8.196  11.212
13332W        W79873  28.674  43.846   3.576
13333W        W79874  34.536   7.755  12.476
13334W        W79875   5.043  31.370  14.827
13335W        W79876  43.398  32.414   3.123
13336W        W79877  16.772   2.707  10.679
13337W        W79878  31.238  37.446   0.007
13338W        W79879   9.771  29.615  13.113
13339W        W79880  19.909   9.526   3.206
13340W        W79881  18.469  26.019   3.822
13341W        W79882   7.723  14.370  12.845
13342W        W79883   9.176  38.438  11.964
13343W        W79884  44.413   8.897  14.845
13344W        W79885   3.488  17.496  11.524
13345W        W79886  24.108   9.179   0.496
13346W        W79887   5.326  27.079   5.173
13347W        W79888  36.937  15.621   4.528
13348W        W79889  33.568  32.859   4.721
13349W        W79890  15.065  14.156  10.662
13350W        W79891  44.525  23.654   1.656
13351W        W79892   8.286  19.733   0.302
13352W        W79893  28.165  14.620  10.351
13353W        W79894   1.292  23.796  12.362
13354W        W79895   6.595  41.815   4.544
13355W        W79896  21.108  40.150  13.106
13356W        W79897   6.859  40.957   3.427
13357W        W79898  35.821  13.077  12.943
13358W        W79899  44.134  10.685  13.653
13359W        W79900  27.068   2.985   4.298
13360W        W79901  41.790  20.032   3.791
13361W        W79902  30.774  21.547  11.090
13362W        W79903  44.779   5.109  11.671
13363W        W79904  19.456   9.075  10.826
13364W        W79905  21.597  20.492  12.636
13365W        W79906  25.783  22.881  11.560
13366W        W79907  34.779  13.567   0.719
13367W        W79908  19.662  36.477  14.323
13368W        W79909  12.656  30.117  13.792
13369W        W79910  19.770  19.169   4.571
13370W        W79911   2.870  14.865   0.866
13371W        W79912  40.897  39.535   0.173
13372W        W79913   9.125  30.190  12.974
13373W        W79914  41.797  20.915   3.277
13374W        W79915   8.177  43.699   3.166
13375W        W79916   7.690   7.525  13.877
13376W        W79917  40.387  40.394  14.928
13377W        W79918  25.608  26.308  11.154
13378W        W79919  32.872  44.821   1.507
13379W        W79920  14.655  15.630  13.932
13380W        W79921   2.823   9.160   0.846
13381W        W79922  32.884  28.980  14.173
13382W        W79923  33.837  26.608   0.755
13383W        W79924  29.296  26.183   3.403
13384W        W79925  28.488  25.752   1.416
13385W        W79926  42.051   7.401  14.738
13386W        W79927  12.177  34.040  12.604
13387W        W79928  28.500  43.486  13.386
13388W        W79929   9.918   3.838   0.354
13389W        W79930  25.072  31.950  13.303
13390W        W79931   4.818   1.685   0.672
13391W        W79932  42.322  28.355   4.755
13392W        W79933  20.371  32.384   0.960
13393W        W79934  13.534  30.308   4.955
13394W        W79935  39.104  35.547  14.528
13395W        W79936  21.174  43.300  10.762
13396W        W79937  40.233  33.971   4.340
13397W        W79938   5.976   2.440   3.860
13398W        W79939  42.154  19.721  12.613
13399W        W79940  32.904  28.317   1.280
13400W        W79941  38.480  37.171   0.955
13401W        W79942  12.680  21.216  14.371
13402W        W79943  27.922  44.407   4.738
13403W        W79944  28.041  18.327  14.350
13404W        W79945   4.138  33.904  11.258
13405W        W79946  27.538   3.345   2.418
13406W        W79947  18.593   1.453   4.552
13407W        W79948   2.773  32.772  13.252
13408W        W79949  27.695  34.109  12.730
13409W        W79950  11.050   8.889   4.452
13410W        W79951  23.187   8.407   3.812
13411W        W79952   3.164  14.589  12.121
13412W        W79953  30.626  39.058   4.777
13413W        W79954  33.873   5.368   3.329
13414W        W79955  24.975  38.309   0.678
13415W        W79956  32.402  16.106   3.649
13416W        W79957  37.876  12.570  12.908
13417W        W79958  17.510   7.535  11.140
13418W        W79959  43.295  38.277   1.120
13419W        W79960   6.484  40.840  11.652
13420W        W79961  16.123  15.577   4.040
13421W        W79962  24.549  26.667  10.713
13422W        W79963  17.045  23.776   1.382
13423W        W79964  39.437  30.493  14.774
13424W        W79965  29.955   4.835   4.128
13425W        W79966  33.118   9.501   3.611
13426W        W79967  26.011  21.007   4.098
13427W        W79968  16.091   2.871  11.863
13428W        W79969  13.305  19.028  11.063
13429W        W79970   1.778   7.356  14.265
13430W        W79971  34.810   1.504   0.227
13431W        W79972  21.515   4.782  13.975
13432W        W79973  41.997  41.397   2.758
13433W        W79974   5.658  27.604  13.813
13434W        W79975  34.299   5.005  10.863
13435W        W79976  36.099  33.788  13.021
13436W        W79977   9.199  24.628   0.702
13437W        W79978  34.915  15.286   1.446
13438W        W79979  18.249  35.450  11.269
13439W        W79980  40.885   8.896  12.938
13440W        W79981   9.700  35.074  10.781
13441W        W79982   4.405   5.756   2.326
13442W        W79983  26.107  12.097   3.716
13443W        W79984  22.108  22.987   1.591
13444W        W79985  39.250  22.384  12.531
13445W        W79986  35.484  41.337   4.830
13446W        W79987  31.671   9.857  10.738
13447W        W79988   5.269  40.031  10.144
13448W        W79989   2.487   6.280  14.737
13449W        W79990  25.188   2.273  11.576
13450W        W79991  43.971  44.721   3.242
13451W        W79992  23.921  31.528  11.466
13452W        W79993  23.288  29.911  11.092
13453W        W79994  44.922  32.844  12.908
13454W        W79995  12.671   5.957  13.937
13455W        W79996  25.079  21.316   3.388
13456W        W79997   1.800  33.131   1.753
13457W        W79998  36.252   2.430   3.174
13458W        W79999  30.203  36.561   0.208
13459W        W80000   0.370  12.833  14.765
13460W        W80001  12.247  40.349   0.445
13461W        W80002  25.654  40.284   1.372
13462W        W80003  13.508  21.240  13.379
13463W        W80004  29.284  20.526  14.099
13464W        W80005   7.498  43.619   0.452
13465W        W80006   0.334  43.465   2.806
13466W        W80007  43.191  15.359   0.085
13467W        W80008  36.113  27.432   2.900
13468W        W80009  18.347  40.965  11.449
13469W        W80010   4.441  40.635   0.858
13470W        W80011   9.639  27.507   0.796
13471W        W80012  23.514  34.357  11.631
13472W        W80013  30.665   8.746   4.444
13473W        W80014  11.645  17.292   4.600
13474W        W80015  19.031  18.704   1.919
13475W        W80016  30.615  34.816   2.784
13476W        W80017  27.407  33.371   1.218
13477W        W80018  34.345  24.597  13.057
13478W        W80019  26.419  20.550   0.024
13479W        W80020  11.228  12.959  11.066
13480W        W80021  10.876  41.802   4.125
13481W        W80022  35.779  28.956  14.016
13482W        W80023  33.526   0.008  14.412
13483W        W80024   2.960  27.276   3.698
13484W        W80025  42.007  29.704  12.184
13485W        W80026  36.410   2.224   0.399
13486W        W80027  33.070  16.029   1.823
13487W        W80028  39.518  14.206  14.895
13488W        W80029   8.694   6.575  13.074
13489W        W80030  32.564  41.613  12.058
13490W        W80031  11.908   4.844  10.532
13491W        W80032  36.942   3.121   1.289
13492W        W80033  16.862  34.058   0.716
13493W        W80034  42.047  33.834   3.783
13494W        W80035  37.145  44.508   0.786
13495W        W80036  32.193  11.581   4.017
13496W        W80037  26.162  29.407  12.492
13497W        W80038   7.026  29.364  11.865
13498W        W80039  43.853  33.803  13.001
13499W        W80040   2.933  19.655  11.854
13500W        W80041  25.531  35.011  13.888
13501W        W80042  24.962  29.677   1.843
13502W        W80043  23.050  21.247  13.453
13503W        W80044  22.282   8.296   2.718
13504W        W80045  25.301  23.043   3.559
13505W        W80046  31.649   5.898  14.288
13506W        W80047  19.950  33.049  13.971
13507W        W80048  20.726  34.866  12.931
13508W        W80049  20.992  37.419  13.220
13509W        W80050  30.680  17.048  13.378
13510W        W80051   9.213   8.768  10.837
13511W        W80052  11.480  27.161  11.202
13512W        W80053   1.773  26.712   1.489
13513W        W80054  22.681  28.417   4.260
13514W        W80055  28.632   2.779  11.953
13515W        W80056  21.913  40.732  10.730
13516W        W80057  16.283  17.601   3.283
13517W        W80058  10.218  24.539   4.613
13518W        W80059   8.411  17.576   1.317
13519W        W80060  38.422   2.727   0.321
13520W        W80061  21.224  25.969  11.585
13521W        W80062  44.344   0.399   0.424
13522W        W80063  41.363   3.800   4.921
13523W        W80064  13.798  23.839  14.552
13524W        W80065  22.270  20.797   0.293
13525W        W80066  31.227  10.807  10.994
13526W        W80067  40.385  42.339  14.840
13527W        W80068  36.432  34.988   4.199
13528W        W80069  32.002  42.801   4.084
13529W        W80070   0.466  34.894  13.635
13530W        W80071   4.654   6.823  14.965
13531W        W80072  39.075   9.095  11.269
13532W        W80073  12.433  34.543  14.783
13533W        W80074  38.705  44.675  12.022
13534W        W80075   9.392  22.512  12.049
13535W        W80076   1.295  23.054  14.292
13536W        W80077  29.444   0.850  12.609
13537W        W80078   7.173  44.906  14.736
13538W        W80079  20.305  34.950   3.125
13539W        W80080  37.854  18.646  11.277
13540W        W80081  24.670  41.720   5.086
13541W        W80082  11.858  17.694  14.932
13542W        W80083   9.724  34.095  10.655
13543W        W80084  41.718  29.057  11.631
13544W        W80085  22.642  20.427   0.273
13545W        W80086  11.704  44.397  10.298
13546W        W80087  32.412  13.423   1.853
13547W        W80088  13.363  20.161   4.862
13548W        W80089   0.491   0.214  14.516
13549W        W80090  40.846  23.755   0.557
13550W        W80091  28.460  10.752  12.057
13551W        W80092  30.064   4.893   1.967
13552W        W80093   2.570  27.030   1.471
13553W        W80094  34.789   3.255   0.074
13554W        W80095   1.652   6.269   4.569
13555W        W80096  18.243  34.187  14.499
13556W        W80097  19.100  22.071   3.238
13557W        W80098   0.451  15.698  13.930
13558W        W80099  38.865  17.139  10.206
13559W        W80100  23.249  34.095   3.207
13560W        W80101  41.827  44.783   2.494
13561W        W80102  32.393  31.866   1.821
13562W        W80103  26.237  37.586  13.886
13563W        W80104  19.195   2.034   1.886
13564W        W80105  41.511  12.584  11.420
13565W        W80106  30.652  25.161  11.126
13566W        W80107  34.632  13.284   2.374
13567W        W80108  41.323  27.596   0.377
13568W        W80109  40.693  23.610   4.132
13569W        W80110  11.196   7.188  11.426
13570W        W80111  26.534  24.512   1.864
13571W        W80112  38.446  33.034  10.831
13572W        W80113  16.722  26.933  13.980
13573W        W80114  33.121  25.181   2.467
13574W        W80115  19.510  11.251   0.161
13575W        W80116   5.816   5.500  10.263
13576W        W80117  17.062  41.751   3.848
13577W        W80118   5.502  20.467   3.695
13578W        W80119  44.805  26.742  14.450
13579W        W80120  25.692  14.685   0.389
13580W        W80121  21.426  11.557   4.240
13581W        W80122  28.111  13.399   3.641
13582W        W80123  16.740  11.593  11.978
13583W        W80124  33.860  29.144  11.267
13584W        W80125  11.121  30.493  11.561
13585W        W80126  40.322   4.190  13.944
13586W        W80127  25.170  11.844  11.721
13587W        W80128  40.505  32.490  11.963
13588W        W80129  17.029  20.597   3.706
13589W        W80130   6.649   2.731   2.734
13590W        W80131  12.731  24.147   2.580
13591W        W80132   4.765  24.293   2.625
13592W        W80133   8.943  23.640  13.352
13593W        W80134  28.692  44.779  12.424
13594W        W80135  29.963   3.067   1.544
13595W        W80136  39.013  39.177   3.204
13596W        W80137  42.312   0.864  12.571
13597W        W80138  31.136  19.749   0.335
13598W        W80139   1.286  10.900  14.965
13599W        W80140  34.825  28.880  10.946
13600W        W80141  39.447  15.708  10.455
13601W        W80142   2.041  36.392  11.670
13602W        W80143   4.093  23.919   5.037
13603W        W80144  43.774  32.894   4.067
13604W        W80145  36.982  17.120   4.680
13605W        W80146  28.864  13.288  14.918
13606W        W80147  41.878  10.603  14.328
13607W        W80148  29.942   2.929   2.057
13608W        W80149  11.596  39.483   0.850
13609W        W80150   3.311   3.426   1.968
13610W        W80151   7.670  22.093   0.107
13611W        W80152  14.118  44.260   1.318
13612W        W80153  30.586  16.593  10.732
13613W        W80154   7.208  24.201   0.916
13614W        W80155   7.675  12.833  12.044
13615W        W80156   9.931  24.408  12.562
13616W        W80157   2.756  29.152  12.497
13617W        W80158   2.268  16.214  14.659
13618W        W80159  12.273  28.221  12.496
13619W        W80160  24.197  33.650   0.290
13620W        W80161   3.314   9.704   4.362
13621W        W80162  40.742   6.819  13.917
13622W        W80163  31.416  26.539  10.687
13623W        W80164   5.252  13.051   1.924
13624W        W80165  35.929   6.247  11.632
13625W        W80166  32.913  28.711   0.054
13626W        W80167   4.850  35.052  13.155
13627W        W80168  23.435  38.992  14.229
13628W        W80169  39.915  36.925   0.848
13629W        W80170   6.666  34.048   3.201
13630W        W80171   5.365  14.306   4.476
13631W        W80172  22.592  29.483   1.826
13632W        W80173  16.694  30.873   1.863
13633W        W80174  19.696   0.964  12.474
13634W        W80175   3.235  41.534   4.197
13635W        W80176   7.189   4.856  12.640
13636W        W80177  34.274  27.331  11.548
13637W        W80178   3.026  32.415   3.068
13638W        W80179  43.976  20.954   1.846
13639W        W80180  36.406  14.584   1.771
13640W        W80181  26.214  42.505   1.344
13641W        W80182  33.810  12.971   4.983
13642W        W80183  24.293  18.000  13.468
13643W        W80184  30.189  34.859  13.440
13644W        W80185  28.132   3.203  11.159
13645W        W80186  27.854   2.636  11.960
13646W        W80187  36.692  30.132   3.581
13647W        W80188   7.025   9.869   1.471
13648W        W80189  13.173  38.861  14.084
13649W        W80190  41.923   4.972   3.677
13650W        W80191  23.736  28.166   4.310
13651W        W80192  38.555  40.551   4.158
13652W        W80193  20.335  23.709   4.445
13653W        W80194  34.686  15.245  12.681
13654W        W80195   0.491  40.880   4.439
13655W        W80196  33.916   7.614   1.521
13656W        W80197   5.882  40.811   1.648
13657W        W80198  15.623   1.613  11.161
13658W        W80199  28.941  19.100  11.868
13659W        W80200  10.805  42.472   4.634
13660W        W80201  41.065  25.556   1.930
13661W        W80202  41.880   6.632  11.551
13662W        W80203  33.897  28.359   3.682
13663W        W80204  25.669   4.224  11.954
13664W        W80205   5.271  42.825   3.393
13665W        W80206  17.002  37.342  13.369
13666W        W80207   3.978   5.588   2.568
13667W        W80208  19.655  22.778   4.067
13668W        W80209  33.986  44.726  14.467
13669W        W80210  13.654  26.933   0.855
13670W        W80211  19.252  24.149   1.402
13671W        W80212  31.084  28.290   4.127
13672W        W80213   6.676  18.763  13.349
13673W        W80214  19.808   5.112  14.879
13674W        W80215  33.108  40.145  13.564
13675W        W80216  35.358  22.963  14.940
13676W        W80217  12.151   3.269   3.253
13677W        W80218  38.167  33.527  13.151
13678W        W80219  24.216  27.961   3.543
13679W        W80220  27.330  30.821  11.953
13680W        W80221  13.063  30.186   2.851
13681W        W80222  32.740   0.914  10.206
13682W        W80223   7.964  30.207  11.948
13683W        W80224   2.236  21.634  10.835
13684W        W80225  19.100  26.671  13.533
13685W        W80226  15.798  41.388   2.182
13686W        W80227   4.332  13.837  11.417
13687W        W80228  27.025  40.682   1.712
13688W        W80229  22.944  17.744  10.696
13689W        W80230  23.535  26.986  13.211
13690W        W80231  19.118   7.425  11.140
13691W        W80232   6.394   8.180  12.669
13692W        W80233  23.101   7.212  12.083
13693W        W80234  20.514  22.490  10.663
13694W        W80235  32.245  43.027  12.876
13695W        W80236  19.750  23.480  12.423
13696W        W80237  31.050  41.766   4.581
13697W        W80238   9.767  12.175  12.648
13698W        W80239  13.162  44.851  10.718
13699W        W80240  11.428  36.625  10.521
13700W        W80241   2.300   6.201  13.058
13701W        W80242   8.821  32.504  14.551
13702W        W80243  14.228  39.740   0.437
13703W        W80244   1.987  26.232  14.910
13704W        W80245  20.018  37.564   1.964
13705W        W80246  43.101  38.466   2.444
13706W        W80247  21.953   9.844  12.977
13707W        W80248  30.745  16.732   9.786
13708W        W80249  33.488  32.521  11.017
13709W        W80250  22.250   5.923   0.235
13710W        W80251  41.219  17.093  10.564
13711W        W80252  13.811   7.712  14.493
13712W        W80253  38.779  17.817   2.250
13713W        W80254  20.727  30.515  13.324
13714W        W80255  20.991  17.105   0.003
13715W        W80256  30.030  28.072   0.410
13716W        W80257  25.680  38.137   4.145
13717W        W80258  13.711  36.974  11.859
13718W        W80259   5.634  19.293  14.960
13719W        W80260  12.180  26.885   2.446
13720W        W80261   8.871   8.388  12.874
13721W        W80262  15.128  29.719   5.487
13722W        W80263  43.505  30.908   0.849
13723W        W80264  22.888  12.844   0.726
13724W        W80265  36.345   3.884  12.088
13725W        W80266  23.805   0.448   3.290
13726W        W80267  41.982  11.062  14.681
13727W        W80268  23.939  21.434   1.445
13728W        W80269  43.959  39.947  10.509
13729W        W80270   6.717  17.821  13.086
13730W        W80271  34.082  42.628   4.477
13731W        W80272  19.077   2.310  12.941
13732W        W80273  16.440   3.290  14.996
13733W        W80274   3.380  16.243   2.566
13734W        W80275  14.541  14.679  14.455
13735W        W80276  28.551  28.407  14.062
13736W        W80277  10.786  38.890  10.689
13737W        W80278  38.868  19.143   1.824
13738W        W80279  37.129   7.994   1.362
13739W        W80280  27.450  24.341   3.497
13740W        W80281  11.710  41.193  11.453
13741W        W80282  33.529  28.044   0.674
13742W        W80283  23.014  18.813  13.355
13743W        W80284  44.261   4.175   3.373
13744W        W80285  32.939   0.409  10.680
13745W        W80286  32.279   0.786   2.816
13746W        W80287   6.775  25.883   2.856
13747W        W80288  36.858  17.177  13.004
13748W        W80289  44.370  17.654  12.027
13749W        W80290   6.740  23.902  13.021
13750W        W80291  14.766   8.751   5.067
13751W        W80292  18.327  33.403  10.664
13752W        W80293  13.755  18.249  14.074
13753W        W80294  29.868  42.378   3.304
13754W        W80295  22.039  35.511   2.734
13755W        W80296   1.677  24.864   0.262
13756W        W80297  42.847  41.283   3.833
13757W        W80298  31.062   6.456  12.805
13758W        W80299  34.030  26.978   2.212
13759W        W80300  39.194  39.991  11.297
13760W        W80301  25.199  24.550   1.272
13761W        W80302  15.111  12.129  12.353
13762W        W80303  40.385  35.408  13.404
13763W        W80304  32.221  28.632  12.563
13764W        W80305  41.050   4.867  11.374
13765W        W80306  17.556   4.913   4.066
13766W        W80307   1.556  27.154   1.230
13767W        W80308  27.680  33.711   2.272
13768W        W80309   4.156  36.815   4.290
13769W        W80310  39.185  43.473  12.662
13770W        W80311  24.588  25.619  10.843
13771W        W80312   2.326  37.660  11.443
13772W        W80313  39.401  29.576  10.678
13773W        W80314  41.986  33.403   1.439
13774W        W80315  37.344  20.678  14.135
13775W        W80316  39.818  39.593   2.116
13776W        W80317  28.679  40.769  11.109
13777W        W80318  44.350  23.637   2.435
13778W        W80319  44.424  25.092  10.756
13779W        W80320  32.426  16.708  13.985
13780W        W80321  35.505  16.239   1.375
13781W        W80322  24.944  37.432  13.425
13782W        W80323  12.841   2.396   2.009
13783W        W80324  43.705  21.534  12.448
13784W        W80325  44.889  37.136   3.960
13785W        W80326   0.716  23.611  14.549
13786W        W80327  21.938   1.504  12.057
13787W        W80328   3.854  11.653   2.146
13788W        W80329   5.168   2.504   0.767
13789W        W80330   2.307  24.279   1.775
13790W        W80331  27.686   7.912   5.022
13791W        W80332  30.575  15.825   4.779
13792W        W80333   5.759  15.223   4.081
13793W        W80334  41.938  17.247   1.399
13794W        W80335  33.101  19.072   3.746
13795W        W80336  21.015  23.130   1.100
13796W        W80337  42.023  21.474  11.250
13797W        W80338  33.788  29.130   5.009
13798W        W80339  44.263  18.298   4.653
13799W        W80340  25.441  35.370  10.633
13800W        W80341  17.542  38.850   1.363
13801W        W80342  43.706  15.828  11.443
13802W        W80343  20.201  12.736   4.530
13803W        W80344   2.723  31.100  11.616
13804W        W80345  37.337  27.061   1.011
13805W        W80346  37.789  23.210   2.699
13806W        W80347  38.911  38.595  14.822
13807W        W80348  10.661  26.600  13.563
13808W        W80349  28.964  40.412  14.022
13809W        W80350   0.243  31.300   0.633
13810W        W80351  33.474   6.474  10.782
13811W        W80352   8.400  26.311   2.522
13812W        W80353  21.319   1.480  11.190
13813W        W80354  36.823  25.401   2.335
13814W        W80355  11.260  29.612  13.574
13815W        W80356  27.573   3.973   4.103
13816W        W80357  15.231  17.038  10.949
13817W        W80358  27.163  36.827   3.340
13818W        W80359  12.671  26.025  12.578
13819W        W80360  38.019   9.651   1.843
13820W        W80361  21.746  37.458   0.459
13821W        W80362  19.388   7.244  12.979
13822W        W80363   7.004   2.508  13.915
13823W        W80364   9.254  41.954   2.141
13824W        W80365  30.947  17.941  10.202
13825W        W80366  37.732   8.688   0.200
13826W        W80367  30.264  34.517  11.662
13827W        W80368  18.242   4.721   2.693
13828W        W80369   8.236  35.352  11.837
13829W        W80370  19.783   7.957  11.472
13830W        W80371   1.744   4.150   3.474
13831W        W80372  19.514  22.161  13.198
13832W        W80373  27.916  24.146  14.014
13833W        W80374  27.508  18.955   1.210
13834W        W80375  39.765  19.326   0.786
13835W        W80376  21.297  28.571  12.104
13836W        W80377  30.051  39.942   2.075
13837W        W80378  14.717  37.182  10.584
13838W        W80379   5.808  24.486  13.751
13839W        W80380  39.923  32.453  12.884
13840W        W80381   2.818  33.383  11.960
13841W        W80382  16.206  40.822  12.004
13842W        W80383   5.179   8.370  13.905
13843W        W80384  26.479   1.518   2.773
13844W        W80385  19.018   5.496  13.431
13845W        W80386  22.195  40.980   2.701
13846W        W80387  39.100  43.735  12.199
13847W        W80388   0.274  14.601  14.742
13848W        W80389  17.155  26.384   1.816
13849W        W80390  16.847  42.281  14.024
13850W        W80391  14.055  22.189   2.265
13851W        W80392  26.042  14.871  12.731
13852W        W80393  17.443   3.761   4.163
13853W        W80394  39.463  40.537  11.970
13854W        W80395   9.597  29.030   2.128
13855W        W80396  29.955   0.410   1.895
13856W        W80397   8.821   4.428  12.949
13857W        W80398  43.860  20.483  13.426
13858W        W80399  20.946  40.537   3.356
13859W        W80400  12.116  22.212   2.189
13860W        W80401   6.372  19.747  11.179
13861W        W80402   1.747   9.652  14.106
13862W        W80403  18.279  36.717  10.732
13863W        W80404   0.003  25.745  10.698
13864W        W80405  22.698  33.707  12.277
13865W        W80406  21.240  39.870  12.017
13866W        W80407  28.699   3.874   4.521
13867W        W80408  42.531  30.201  11.159
13868W        W80409   2.266  10.398  13.509
13869W        W80410  24.641   5.173   3.568
13870W        W80411  36.344   0.717  11.093
13871W        W80412  34.015  14.171   2.779
13872W        W80413  23.026  20.168  10.625
13873W        W80414  39.534  21.598   4.162
13874W        W80415  32.390  17.108  14.751
13875W        W80416  34.497   7.169  11.064
13876W        W80417  29.399  38.831  10.439
13877W        W80418  28.505   9.249  10.608
13878W        W80419  30.785  34.015   4.741
13879W        W80420  24.946  14.527  11.033
13880W        W80421  20.584  40.655   2.973
13881W        W80422  32.399  44.072   4.658
13882W        W80423  10.600  35.832   2.726
13883W        W80424  37.470  32.837  13.970
13884W        W80425  41.582  36.132   3.753
13885W        W80426  31.342  19.011   3.200
13886W        W80427  15.859  13.222   4.968
13887W        W80428  19.870  29.432  12.917
13888W        W80429  13.361  29.638   3.547
13889W        W80430  29.551   8.936   3.622
13890W        W80431  28.209  36.914   2.820
13891W        W80432   4.873  26.639  14.074
13892W        W80433  18.152   2.304   4.853
13893W        W80434  39.880  23.230  12.011
13894W        W80435  38.429  33.502   2.649
13895W        W80436  21.640  39.935  12.949
13896W        W80437  11.100  29.816  14.996
13897W        W80438  41.491  40.479  13.012
13898W        W80439  10.545  21.985  12.653
13899W        W80440  38.940   8.714   2.301
13900W        W80441  43.558  14.688   1.209
13901W        W80442   2.905  10.362   4.465
13902W        W80443  24.418  27.659  12.557
13903W        W80444  12.690  32.561  14.248
13904W        W80445   6.082  10.868  11.536
13905W        W80446  14.895   9.432  11.192
13906W        W80447   3.926  32.216   2.938
13907W        W80448  41.020  36.396   0.296
13908W        W80449  13.732   7.986   3.636
13909W        W80450  44.934  11.642  10.687
13910W        W80451  31.509  19.706   3.180
13911W        W80452  39.398  26.494   1.335
13912W        W80453  35.873   1.667   2.776
13913W        W80454  23.118  15.119  10.800
13914W        W80455  27.113  38.678  14.875
13915W        W80456   2.976   0.310   4.364
13916W        W80457  30.204  11.364   2.109
13917W        W80458   7.680  16.933  11.572
13918W        W80459   8.952  15.735  10.020
13919W        W80460  27.850  23.250   4.177
13920W        W80461   6.302  28.630  10.950
13921W        W80462  20.610  28.057  12.520
13922W        W80463  20.403  30.522  12.892
13923W        W80464  10.849  39.358   4.393
13924W        W80465  44.622  37.248   4.432
13925W        W80466  41.969  10.724   1.428
13926W        W80467  11.566  25.589   1.400
13927W        W80468   0.915  25.211   2.635
13928W        W80469  28.225   5.253  13.349
13929W        W80470  32.622  10.669  12.109
13930W        W80471  29.046  31.496   1.192
13931W        W80472  25.728  12.808  12.848
13932W        W80473  30.669   2.379   1.334
13933W        W80474   5.019  29.991   1.818
13934W        W80475  26.027  42.713  14.267
13935W        W80476   4.595  17.721  12.257
13936W        W80477  42.019  20.558  12.942
13937W        W80478  37.776  39.330   2.784
13938W        W80479  40.957   1.091   0.543
13939W        W80480  20.355  39.211  11.107
13940W        W80481   4.811  44.292  13.892
13941W        W80482   6.340   1.768  13.104
13942W        W80483  43.902  44.066   4.928
13943W        W80484  20.257  24.678   0.297
13944W        W80485  27.302  32.990   0.019
13945W        W80486  44.958   8.075  10.752
13946W        W80487   1.840  41.047  11.512
13947W        W80488  13.573  17.470  14.928
13948W        W80489  10.902  35.278   0.895
13949W        W80490  36.063   8.810  14.009
13950W        W80491  30.852  35.703  11.548
13951W        W80492  33.640  11.253   3.091
13952W        W80493  26.977  42.771   1.767
13953W        W80494   9.129   3.910  11.646
13954W        W80495  42.433   0.483  11.337
13955W        W80496  32.488  26.564  10.141
13956W        W80497  36.746   4.056   3.219
13957W        W80498   7.352  10.308   4.730
13958W        W80499  17.679  43.519   1.734
13959W        W80500  11.406   3.689   0.895
13960W        W80501  23.795   4.392   0.935
13961W        W80502  22.580   9.369  12.574
13962W        W80503   6.877   3.800   3.323
13963W        W80504  26.579   6.345   1.448
13964W        W80505  12.868  44.768   4.856
13965W        W80506  11.255  24.136   4.083
13966W        W80507  17.204  38.927  11.568
13967W        W80508  30.561  23.537  14.983
13968W        W80509  30.866  16.613  12.012
13969W        W80510  27.939  16.860   2.786
13970W        W80511   2.978   0.739  14.232
13971W        W80512  16.657  24.661  13.591
13972W        W80513  17.127  27.156  14.756
13973W        W80514  24.952  10.306  14.277
13974W        W80515  43.903  33.044  13.040
13975W        W80516  39.494  43.230   4.116
13976W        W80517  44.755  24.642   3.419
13977W        W80518  16.126   3.807   2.323
13978W        W80519   2.566  14.831  12.512
13979W        W80520  11.831  33.096  10.547
13980W        W80521   4.225   9.344   4.524
13981W        W80522   2.868   9.689   2.219
13982W        W80523  36.988  37.034  13.027
13983W        W80524  30.614  28.108  11.640
13984W        W80525  37.929  29.453   4.608
13985W        W80526  30.229  29.561   3.085
13986W        W80527  24.794  14.269   3.638
13987W        W80528  33.973  18.074   3.768
13988W        W80529  42.499   3.352   3.717
13989W        W80530  39.792   1.210   1.368
13990W        W80531  27.976  16.285   4.061
13991W        W80532   7.855  10.788   3.163
13992W        W80533  26.520  26.470   4.158
13993W        W80534  27.081  25.755  14.767
13994W        W80535  32.329  33.452   1.256
13995W        W80536  26.160  18.289   0.029
13996W        W80537  15.017  20.022   0.564
13997W        W80538  13.427   3.320  11.545
13998W        W80539   8.382  42.871  10.133
13999W        W80540  10.441  42.764  12.817
14000W        W80541   3.028  30.099   4.609
14001W        W80542  13.199  39.330  13.881
14002W        W80543  39.224   5.198  13.661
14003W        W80544  19.963  21.633   2.441
14004W        W80545  15.326  41.004   4.643
14005W        W80546  37.857  32.796   0.831
14006W        W80547  36.992  24.176   4.703
14007W        W80548  21.108  39.411   4.757
14008W        W80549   0.346  23.584  14.898
14009W        W80550  23.224  22.429  13.976
14010W        W80551  30.258  10.586   1.734
14011W        W80552  34.751  33.294   2.082
14012W        W80553  33.938  21.176   4.448
14013W        W80554   6.579  30.781   0.360
14014W        W80555  32.378   6.988   1.318
14015W        W80556   2.406   5.184   4.972
14016W        W80557  40.414   0.056   4.570
14017W        W80558  44.622   4.135  12.914
14018W        W80559  25.815  33.147  11.612
14019W        W80560  37.111  20.045  11.283
14020W        W80561   6.015  35.948   0.300
14021W        W80562  28.569  38.989  11.409
14022W        W80563  25.590  14.227  11.880
14023W        W80564  22.705   5.878  13.401
14024W        W80565  11.541  25.286   3.820
14025W        W80566  29.532  28.028  12.840
14026W        W80567  38.717   6.792   3.965
14027W        W80568  20.720  26.693  11.929
14028W        W80569  42.965  10.760   3.177
14029W        W80570  32.437   7.889   0.436
14030W        W80571   3.871  31.083   1.757
14031W        W80572  33.550   5.882   0.407
14032W        W80573  15.580  16.651  11.905
14033W        W80574  41.781  43.628  12.395
14034W        W80575  18.737  18.739  11.770
14035W        W80576   4.577  24.050  12.155
14036W        W80577   3.023  21.590  13.979
14037W        W80578  16.975  27.439  12.849
14038W        W80579   5.196  33.357   3.133
14039W        W80580  43.347  38.380  11.507
14040W        W80581  41.714   6.864  14.047
14041W        W80582   6.187  36.100  11.616
14042W        W80583  23.972  43.843   0.801
14043W        W80584   1.031  34.871  11.448
14044W        W80585  41.074  25.462   3.741
14045W        W80586  31.086  42.084  14.602
14046W        W80587  36.819  26.574  11.519
14047W        W80588   3.676   0.133  11.287
14048W        W80589  30.346  33.199   4.026
14049W        W80590   2.677  33.931  14.017
14050W        W80591  37.362  15.372  14.461
14051W        W80592  21.069   1.753   1.182
14052W        W80593  21.335  19.324   0.878
14053W        W80594  15.611  32.706   3.111
14054W        W80595  43.860  33.963   4.189
14055W        W80596  29.931  11.280   5.123
14056W        W80597  35.374  40.093   1.693
14057W        W80598   3.522  29.341   2.353
14058W        W80599  29.996   4.129  11.597
14059W        W80600  14.324  10.310   2.122
14060W        W80601  13.648  28.394  13.394
14061W        W80602   3.858  14.255   0.211
14062W        W80603  33.959  16.195   4.606
14063W        W80604  35.124   5.132  14.384
14064W        W80605  32.830  11.174   0.378
14065W        W80606  35.666  43.223  14.707
14066W        W80607  20.001  34.456   0.955
14067W        W80608   2.797  16.758  12.770
14068W        W80609  31.171  38.948  12.095
14069W        W80610  40.763  23.954  11.403
14070W        W80611  10.194  40.184  11.281
14071W        W80612  22.377   1.582  13.426
14072W        W80613  26.569   1.288   1.448
14073W        W80614  14.605  37.616   3.265
14074W        W80615  21.204  34.671  11.946
14075W        W80616  38.835  40.378  13.906
14076W        W80617   3.027  14.033  14.814
14077W        W80618  27.931  40.540  14.000
14078W        W80619  15.491  10.284  12.862
14079W        W80620   9.038  44.454   1.142
14080W        W80621  25.191   3.940   4.872
14081W        W80622  15.224  39.029   4.641
14082W        W80623  23.564  20.356  14.465
14083W        W80624   9.719  24.831  11.618
14084W        W80625  27.521  31.063  14.510
14085W        W80626  42.362  42.256   3.088
14086W        W80627  23.658   8.715   0.763
14087W        W80628  11.741  41.040   4.546
14088W        W80629  31.115  25.716   0.308
14089W        W80630  15.104  38.614  12.392
14090W        W80631  19.969  41.252   1.313
14091W        W80632  15.145  40.231   0.372
14092W        W80633  15.771  39.933  11.191
14093W        W80634  38.053  20.140  12.014
14094W        W80635  37.302  26.551   1.414
14095W        W80636   4.416   0.190   1.247
14096W        W80637   2.409  31.590   2.117
14097W        W80638  24.946  37.457  10.759
14098W        W80639  28.688  17.047  13.124
14099W        W80640   7.380  14.906  14.031
14100W        W80641  27.556  37.093   4.142
14101W        W80642  33.620  44.924  10.542
14102W        W80643  29.184   0.218  11.555
14103W        W80644  18.639  33.025  13.696
14104W        W80645   0.947   4.815  13.473
14105W        W80646  34.974  34.499  11.371
14106W        W80647  28.179   3.026  12.021
14107W        W80648  23.630   0.334   2.471
14108W        W80649  25.057  38.399   4.585
14109W        W80650  29.578  15.430  13.094
14110W        W80651  15.606   5.262   2.340
14111W        W80652  20.467   3.478  12.444
14112W        W80653  43.826  41.145   0.865
14113W        W80654  39.489  34.092  11.626
14114W        W80655   5.636   4.256  10.984
14115W        W80656  13.624  25.961  11.632
14116W        W80657  24.015  20.086   4.136
14117W        W80658   0.409  30.948  12.191
14118W        W80659  20.306  31.519  10.746
14119W        W80660  20.909  37.193   5.079
14120W        W80661  27.505  22.465   0.754
14121W        W80662  30.809  25.092   0.714
14122W        W80663   6.317  25.735   1.098
14123W        W80664   1.237  19.183  10.677
14124W        W80665  42.797  25.197  12.956
14125W        W80666   5.826  24.057   0.812
14126W        W80667  29.983  15.124   4.649
14127W        W80668   6.718   8.687   3.553
14128W        W80669  14.153  43.814   3.776
14129W        W80670   2.463  40.292  11.503
14130W        W80671  22.007  21.098   4.158
14131W        W80672  31.549  25.105  12.391
14132W        W80673  22.071  22.866  14.900
14133W        W80674   3.805  39.524  11.443
14134W        W80675  32.935  12.065   2.384
14135W        W80676  41.415   4.797  10.418
14136W        W80677   2.527  43.553   4.637
14137W        W80678  44.365  34.478  10.036
14138W        W80679   0.383  21.700  13.398
14139W        W80680  30.734  35.414  12.572
14140W        W80681  28.921  40.730  14.496
14141W        W80682  14.251  34.174  11.516
14142W        W80683  18.714   5.458   1.806
14143W        W80684   0.166  25.639   2.750
14144W        W80685  33.618  33.382   2.761
14145W        W80686   8.403  30.098   1.361
14146W        W80687  39.333   0.779   1.901
14147W        W80688   3.481   8.231  11.740
14148W        W80689  14.214  20.330   0.413
14149W        W80690   7.111   1.499  12.991
14150W        W80691  30.683  26.712   1.307
14151W        W80692  15.483  40.945   1.019
14152W        W80693  36.031  36.401  14.926
14153W        W80694  37.531  15.368   4.088
14154W        W80695   8.983  24.702   2.659
14155W        W80696   8.182  17.738   2.592
14156W        W80697  42.831  21.472   0.421
14157W        W80698   5.939  34.448   4.367
14158W        W80699  14.573  24.876  14.854
14159W        W80700  29.107  21.641   3.232
14160W        W80701  35.466  26.767  12.445
14161W        W80702   1.836   3.765   0.052
14162W        W80703  37.837  11.572  13.024
14163W        W80704   4.843  42.450   1.255
14164W        W80705   4.835  16.107  13.811
14165W        W80706  33.151  11.506   4.792
14166W        W80707  33.012  21.517  11.685
14167W        W80708   3.449  26.444  13.991
14168W        W80709  11.638  39.993   3.185
14169W        W80710  34.532   9.636   2.160
14170W        W80711  23.614  15.167   3.246
14171W        W80712   9.418  29.431   2.386
14172W        W80713  13.036  27.395   4.071
14173W        W80714   9.957  27.605   1.203
14174W        W80715   8.110  30.229  13.092
14175W        W80716  12.843   0.733   0.867
14176W        W80717  44.141  15.579  11.564
14177W        W80718  10.834  10.258  14.400
14178W        W80719   1.946  37.067  10.997
14179W        W80720   9.136  28.784  14.141
14180W        W80721  19.640  28.515   2.510
14181W        W80722  34.397  18.848   4.662
14182W        W80723   5.941  41.795   1.821
14183W        W80724  10.337   8.211  14.142
14184W        W80725  17.763  44.269   4.814
14185W        W80726  42.935  21.523   1.831
14186W        W80727  31.077  38.066   1.527
14187W        W80728  29.541  21.563   1.455
14188W        W80729  18.582  42.723  10.831
14189W        W80730  14.789  44.199   4.440
14190W        W80731  36.632  40.296  14.406
14191W        W80732   1.511   5.817   3.232
14192W        W80733  37.381  32.092   2.783
14193W        W80734  21.038  26.439  14.754
14194W        W80735  41.524   8.747   3.300
14195W        W80736  40.069  23.109  13.400
14196W        W80737  32.816  34.538   0.910
14197W        W80738  26.435  29.038  12.263
14198W        W80739   2.861  43.919  13.371
14199W        W80740  12.332  42.632  13.470
14200W        W80741  26.644  19.376   0.153
14201W        W80742  31.884  42.693   0.472
14202W        W80743  15.291  23.550  11.300
14203W        W80744   5.280   2.366  13.479
14204W        W80745  28.057   2.842   4.707
14205W        W80746   9.917  33.722  11.506
14206W        W80747  23.821  15.428  11.182
14207W        W80748   4.873  28.455   0.331
14208W        W80749  30.013   9.136  14.513
14209W        W80750   6.288   7.374   3.645
14210W        W80751  33.579  11.555  14.027
14211W        W80752  44.337  22.697   1.384
14212W        W80753   1.869  16.370  11.552
14213W        W80754  18.780  25.126   0.366
14214W        W80755  12.340  13.896  12.026
14215W        W80756  36.500  40.860  13.295
14216W        W80757  33.922  32.601   0.438
14217W        W80758  23.110  19.591   0.940
14218W        W80759  28.991   6.438   3.013
14219W        W80760   2.404  44.638  10.367
14220W        W80761  43.605  29.486   1.865
14221W        W80762  18.554  13.189  11.393
14222W        W80763   7.770  32.177  10.093
14223W        W80764  37.640  27.206  14.587
14224W        W80765  35.343  40.569   0.178
14225W        W80766  13.234  24.236  10.818
14226W        W80767   0.417   9.156   0.313
14227W        W80768  12.727  28.240  10.803
14228W        W80769  34.045   0.276  13.530
14229W        W80770   4.426  10.294   2.000
14230W        W80771  36.189  23.177  12.759
14231W        W80772  39.929   2.276   1.312
14232W        W80773   2.885  24.619   3.385
14233W        W80774  33.996  25.579   1.158
14234W        W80775  25.531  10.618  12.993
14235W        W80776  41.611   6.439   2.339
14236W        W80777  42.414  24.527   1.827
14237W        W80778  14.882   1.221  12.202
14238W        W80779   6.767  14.684  14.855
14239W        W80780  35.601  11.167  12.854
14240W        W80781  32.119  13.369   1.038
14241W        W80782   9.354  27.728  14.065
14242W        W80783  40.958  15.903   9.940
14243W        W80784  26.978  38.578   0.372
14244W        W80785  28.519  24.772  11.082
14245W        W80786   1.989   5.873   0.765
14246W        W80787  26.658  19.193   1.145
14247W        W80788  24.003  13.530   3.595
14248W        W80789   7.662   8.912  14.192
14249W        W80790   3.982  24.546   3.720
14250W        W80791  31.088  13.226  14.418
14251W        W80792  30.906  16.191  14.509
14252W        W80793  36.949  42.833  14.109
14253W        W80794   7.515  30.068   1.682
14254W        W80795  13.687  21.099   2.411
14255W        W80796  37.623  14.943   3.803
14256W        W80797  20.510  14.878  14.901
14257W        W80798  44.740  23.707  10.480
14258W        W80799  42.872  15.183   4.607
14259W        W80800   8.585  23.452  11.094
14260W        W80801  33.867   8.915   1.287
14261W        W80802  13.129   7.961  13.339
14262W        W80803  44.013  18.675  10.639
14263W        W80804   4.370  36.877   2.013
14264W        W80805  17.778  41.455  11.084
14265W        W80806  36.068   3.660   1.234
14266W        W80807  27.436  36.560   2.820
14267W        W80808  13.080  27.529  13.428
14268W        W80809  37.173  44.898  10.210
14269W        W80810  33.384  15.653  11.490
14270W        W80811  41.100   3.450   4.638
14271W        W80812   3.772  40.348   2.374
14272W        W80813  10.584   8.662  13.458
14273W        W80814   4.621  33.964  13.751
14274W        W80815  36.636  20.968  12.968
14275W        W80816   5.808  34.346  12.880
14276W        W80817  23.737  27.865   3.319
14277W        W80818  22.005  28.688   1.393
14278W        W80819  13.563  36.532  11.167
14279W        W80820  21.169  13.541  11.637
14280W        W80821   6.329  13.557   9.882
14281W        W80822  44.018  21.894   2.514
14282W        W80823  19.075   4.376  11.074
14283W        W80824  20.260  34.481   2.804
14284W        W80825  42.198   4.450   2.035
14285W        W80826  14.156  22.588  13.139
14286W        W80827   8.305  12.447   0.706
14287W        W80828  33.552  13.984   2.646
14288W        W80829  34.093  40.427  14.634
14289W        W80830  18.625  31.192   3.095
14290W        W80831  44.598  40.578  11.133
14291W        W80832  40.236  10.327   1.083
14292W        W80833  38.778  17.650   0.400
14293W        W80834  35.584  13.408   4.340
14294W        W80835  31.558  40.087   1.323
14295W        W80836  32.574  43.311  13.479
14296W        W80837  39.376   5.857   2.148
14297W        W80838  16.311  35.081   3.817
14298W        W80839  36.960  10.946  14.421
14299W        W80840   3.871   8.221  13.542
14300W        W80841  30.226  15.799  14.582
14301W        W80842  29.750  14.638   3.740
14302W        W80843  20.130   9.892   0.744
14303W        W80844  34.563  29.824   1.623
14304W        W80845   4.267   9.501  11.654
14305W        W80846  24.636  26.198  14.868
14306W        W80847  24.696   0.090   1.221
14307W        W80848  37.799  36.052  11.749
14308W        W80849  19.976   0.411  13.169
14309W        W80850  25.575  22.243   4.221
14310W        W80851  41.693  20.618  12.555
14311W        W80852   9.149  37.120   0.771
14312W        W80853  28.800  25.928   4.127
14313W        W80854  44.546  11.232   2.973
14314W        W80855  28.764  10.449  14.422
14315W        W80856  19.041  35.569  14.292
14316W        W80857   7.633  42.561  10.364
14317W        W80858  40.307   4.207  11.120
14318W        W80859   9.356  32.929   4.216
14319W        W80860  32.967  15.238  13.375
14320W        W80861  24.080  21.566   2.351
14321W        W80862  24.551  24.593   0.504
14322W        W80863  41.304  28.493   0.313
14323W        W80864  38.569  37.303   2.262
14324W        W80865  27.023  14.161   4.693
14325W        W80866  41.297  26.399  12.916
14326W        W80867  32.980   2.913  13.362
14327W        W80868   3.799  28.955  11.436
14328W        W80869  24.542  10.074  13.520
14329W        W80870  21.051   2.253   1.304
14330W        W80871  30.526  15.586  11.886
14331W        W80872   8.683  11.013   4.279
14332W        W80873  26.535  40.248  13.516
14333W        W80874   0.971  10.062   2.709
14334W        W80875   6.970  44.497   0.962
14335W        W80876  19.021  15.897  10.594
14336W        W80877  19.409  43.425   1.878
14337W        W80878   5.230  34.114   2.213
14338W        W80879  33.181  42.298  12.020
14339W        W80880   7.950  37.668   0.500
14340W        W80881  30.962  23.674  14.350
14341W        W80882  24.447  28.624  14.922
14342W        W80883   1.890   0.773  12.548
14343W        W80884  17.630   2.742  11.728
14344W        W80885  42.508  41.795   3.895
14345W        W80886   9.709  32.411  14.889
14346W        W80887  11.229  41.181   9.858
14347W        W80888   6.394  26.070   2.010
14348W        W80889  36.050  13.654   4.291
14349W        W80890   6.297  34.969   4.173
14350W        W80891   0.511  43.587   0.212
14351W        W80892  28.213  26.626  11.543
14352W        W80893  38.816  12.238  13.509
14353W        W80894  15.271   3.823  10.391
14354W        W80895  30.652   6.647   1.156
14355W        W80896  13.699  14.281  12.490
14356W        W80897   5.286  41.028  14.365
14357W        W80898  38.580   4.733  11.570
14358W        W80899  42.859   6.827   2.970
14359W        W80900  43.816  20.069   4.852
14360W        W80901  38.311  15.644   3.083
14361W        W80902  27.463  24.824   2.653
14362W        W80903   1.624  30.083   2.408
14363W        W80904  26.036  28.256   4.757
14364W        W80905   4.242  40.549   2.350
14365W        W80906   4.442  30.207   3.198
14366W        W80907  43.381   2.374   4.922
14367W        W80908  25.460  31.373  11.123
14368W        W80909  21.476   0.930   0.405
14369W        W80910  32.270  14.304   4.650
14370W        W80911  33.358   6.300   1.323
14371W        W80912  43.107   2.775   0.441
14372W        W80913  24.797   9.170   2.475
14373W        W80914  10.425   1.897  14.742
14374W        W80915  17.391  32.095  10.985
14375W        W80916  42.675   6.782   4.381
14376W        W80917  35.080  13.103   1.314
14377W        W80918  36.893  21.099   4.680
14378W        W80919  33.328  41.113   4.127
14379W        W80920  28.528  43.958   2.590
14380W        W80921  21.714   2.619   2.973
14381W        W80922  10.166  24.522  11.655
14382W        W80923  11.614  37.982   9.972
14383W        W80924   4.344  12.144   3.625
14384W        W80925   0.152  10.530  13.423
14385W        W80926   1.696  25.745   4.091
14386W        W80927  32.623  25.398  11.107
14387W        W80928  20.100  25.743   2.161
14388W        W80929  39.761  19.628  14.837
14389W        W80930  20.277   3.428   1.947
14390W        W80931   1.980  27.012  13.556
14391W        W80932  27.438  11.386  11.670
14392W        W80933  39.479  28.678  13.685
14393W        W80934  37.447   4.407   0.991
14394W        W80935   2.145   3.739   3.935
14395W        W80936  43.515  37.621   3.397
14396W        W80937  25.666  28.888  13.194
14397W        W80938  18.254  22.735  14.343
14398W        W80939  23.681  25.900   2.882
14399W        W80940  22.925  26.450   4.973
14400W        W80941  39.478  37.321  14.808
14401W        W80942  13.386  25.178   2.603
14402W        W80943   7.133  21.785   3.241
14403W        W80944  25.380  23.513   4.622
14404W        W80945  21.840   6.488   3.162
14405W        W80946   8.355  17.816  13.401
14406W        W80947   5.848   6.749   2.916
14407W        W80948  21.688  29.119  13.480
14408W        W80949  24.627  32.222   2.617
14409W        W80950  41.613  12.832  11.857
14410W        W80951   3.466  15.792  12.183
14411W        W80952  26.264  14.283   2.187
14412W        W80953  37.598  27.626   2.637
14413W        W80954  33.295  41.844  12.871
14414W        W80955   4.888  11.975  10.993
14415W        W80956  39.477  36.978  11.823
14416W        W80957   4.790  18.240  11.716
14417W        W80958  34.384  37.149   0.363
14418W        W80959   8.864   7.434   4.540
14419W        W80960  20.990  18.463  11.405
14420W        W80961   5.681   0.946   1.817
14421W        W80962  11.334  13.810  12.500
14422W        W80963  19.660   5.774   0.193
14423W        W80964  40.027  41.366  14.936
14424W        W80965   8.597   8.835  12.854
14425W        W80966   9.575  35.444  13.425
14426W        W80967  20.277  30.116  12.347
14427W        W80968  20.114  39.313   2.708
14428W        W80969   5.449  15.542   1.367
14429W        W80970   8.934   9.205  10.733
14430W        W80971  37.291  25.115  14.992
14431W        W80972  35.367  43.779  12.087
14432W        W80973  23.951  10.936  12.023
14433W        W80974  26.764  40.510   0.537
14434W        W80975  16.598  33.574  12.473
14435W        W80976  43.750  16.814  12.392
14436W        W80977  11.810  33.132  12.406
14437W        W80978  35.941  41.595   1.734
14438W        W80979  30.609  14.870  14.813
14439W        W80980  43.880  44.195   2.351
14440W        W80981  17.012  33.791   2.837
14441W        W80982  12.668   7.026  11.577
14442W        W80983  41.435  40.903   3.857
14443W        W80984  25.269  12.645  13.068
14444W        W80985   9.468  13.075   0.797
14445W        W80986   6.867   0.843   2.487
14446W        W80987  32.537  19.239   1.766
14447W        W80988  11.330  13.295  10.531
14448W        W80989  31.870  16.742   3.243
14449W        W80990  31.845  25.123  11.519
14450W        W80991  36.241   1.589  10.269
14451W        W80992  40.076  15.601   0.205
14452W        W80993   5.437  34.554  11.501
14453W        W80994  20.591  13.812  13.849
14454W        W80995  25.067  32.479  11.558
14455W        W80996  28.007  30.602   3.721
14456W        W80997   1.891  10.912  12.011
14457W        W80998  27.889  43.621   1.398
14458W        W80999   0.102  30.982  12.939
14459W        W81000   2.228  11.955  14.501
14460W        W81001   0.006  21.319  10.609
14461W        W81002  20.816  11.804  13.810
14462W        W81003   5.130  12.076   3.731
14463W        W81004   5.817  32.550   3.089
14464W        W81005   3.955  20.147   1.754
14465W        W81006  43.023  27.727   2.290
14466W        W81007  19.852   0.315   4.144
14467W        W81008  31.505  10.350  10.680
14468W        W81009  13.682  40.486   4.464
14469W        W81010  37.625  42.837  11.500
14470W        W81011  35.333  13.165  14.914
14471W        W81012   9.553  17.238   2.415
14472W        W81013  24.759  23.035   3.657
14473W        W81014  30.862   4.411   1.917
14474W        W81015  21.620   2.825  12.481
14475W        W81016  33.598  10.354  10.684
14476W        W81017  44.355  34.519   4.408
14477W        W81018  25.437   0.970  14.849
14478W        W81019  23.883  26.267   5.213
14479W        W81020  39.964   7.912  13.551
14480W        W81021  25.602  31.124   4.455
14481W        W81022   3.416   7.342   2.146
14482W        W81023  40.851   6.974  12.471
14483W        W81024  43.863  37.988  12.819
14484W        W81025  10.293  26.157   4.904
14485W        W81026  13.132  32.721   2.353
14486W        W81027  28.879  27.062   1.177
14487W        W81028  19.753  18.982   3.635
14488W        W81029  27.961   2.697   2.281
14489W        W81030  25.294  20.936  14.379
14490W        W81031  23.454   7.786  11.119
14491W        W81032  17.391  18.194   3.585
14492W        W81033   2.592   6.182   0.239
14493W        W81034   0.523  11.397  12.593
14494W        W81035  15.942  11.419   4.167
14495W        W81036  27.922   2.155  10.299
14496W        W81037   2.744  28.443   4.025
14497W        W81038  16.057  11.676   2.352
14498W        W81039  38.045   7.772  11.569
14499W        W81040   8.877   4.377   2.421
14500W        W81041  37.969  12.129  14.550
14501W        W81042  27.778   2.992   3.308
14502W        W81043  24.648  27.078   3.369
14503W        W81044  16.519  34.887   4.751
14504W        W81045  38.106  39.438   0.047
14505W        W81046  13.819  17.200   0.278
14506W        W81047  40.337   3.029  12.060
14507W        W81048  16.356  38.738   4.121
14508W        W81049   1.056  31.889   2.470
14509W        W81050   0.779  43.279  13.079
14510W        W81051   7.271  25.802   2.733
14511W        W81052  43.962  21.829  13.771
14512W        W81053  27.439  43.002  13.496
14513W        W81054  39.970  33.535   1.381
14514W        W81055  26.676  13.621   4.610
14515W        W81056  26.162  11.629  12.112
14516W        W81057  15.390   8.683  11.487
14517W        W81058  20.971  13.724   4.034
14518W        W81059   0.992   9.371  12.666
14519W        W81060  20.719  32.966   1.770
14520W        W81061   3.636  14.621   2.833
14521W        W81062  24.446  42.093  13.598
14522W        W81063   8.402  29.913  12.713
14523W        W81064  14.208  33.746   0.684
14524W        W81065   1.821  39.727  14.538
14525W        W81066   4.272   1.783   3.310
14526W        W81067  42.727   3.140  10.474
14527W        W81068  29.648  34.091   1.758
14528W        W81069  41.081  38.960  11.700
14529W        W81070  12.562  13.561   2.715
14530W        W81071  31.507  12.786   1.368
14531W        W81072  41.210  44.302   1.760
14532W        W81073  30.133  14.087   2.977
14533W        W81074  17.365  44.788  12.946
14534W        W81075  28.227  37.807   2.926
14535W        W81076  44.955  24.242   0.945
14536W        W81077   9.251  17.377  13.100
14537W        W81078  44.150  39.983  14.922
14538W        W81079  31.114  10.924  12.839
14539W        W81080  13.631  24.034  12.911
14540W        W81081  43.446  12.789   5.045
14541W        W81082  29.618  25.248   1.245
14542W        W81083  12.042  13.584   4.398
14543W        W81084  20.211  16.064   2.687
14544W        W81085  40.844  18.520  12.460
14545W        W81086  32.866   8.586  13.579
14546W        W81087  19.515  21.501   3.696
14547W        W81088  14.777  22.149   1.260
14548W        W81089   4.110  25.421  11.656
14549W        W81090  35.577   0.521  12.652
14550W        W81091  37.365  27.461  12.573
14551W        W81092  24.960   2.897  13.194
14552W        W81093  37.496   2.354   5.598
14553W        W81094  14.040  16.939  11.440
14554W        W81095  23.477   3.496   1.834
14555W        W81096  43.149  40.873   4.593
14556W        W81097  35.512  44.976  11.714
14557W        W81098   2.641  17.588   3.706
14558W        W81099  20.594  17.831   1.008
14559W        W81100   3.176  21.603  11.571
14560W        W81101  44.752  23.687   2.109
14561W        W81102  37.832   3.331  12.093
14562W        W81103   4.433  26.497   2.297
14563W        W81104  21.291   5.301   3.212
14564W        W81105  38.346  29.841  14.843
14565W        W81106   0.104  24.444  12.481
14566W        W81107  15.497  22.182   4.809
14567W        W81108   7.454   4.947  14.778
14568W        W81109  28.695  17.800   4.208
14569W        W81110   9.400  33.661  12.839
14570W        W81111  44.338  38.149   2.382
14571W        W81112  32.054  10.229   0.785
14572W        W81113  25.002   4.510  14.400
14573W        W81114  31.790  35.516  13.902
14574W        W81115  26.980  12.266  11.483
14575W        W81116  41.811  41.291   2.268
14576W        W81117   9.667  15.301   0.445
14577W        W81118  21.261  16.755   1.431
14578W        W81119  33.459   9.861   2.871
14579W        W81120  37.750  19.660   3.639
14580W        W81121  22.863  34.862  11.054
14581W        W81122  37.896   1.770  13.118
14582W        W81123  32.172   6.087  11.948
14583W        W81124  24.514  40.602  13.466
14584W        W81125  20.710  25.864  12.605
14585W        W81126  38.014   2.665  14.984
14586W        W81127  32.957  34.050  10.921
14587W        W81128   2.310  16.264   1.062
14588W        W81129  37.461   6.133  10.481
14589W        W81130   4.317   2.478   2.708
14590W        W81131  23.637  43.643  14.991
14591W        W81132   3.253  41.796   4.857
14592W        W81133  40.992  38.605   0.600
14593W        W81134   8.427  10.815  12.435
14594W        W81135  32.908  43.348   0.914
14595W        W81136  41.515  29.509  12.350
14596W        W81137   0.256  23.287   1.213
14597W        W81138   6.432  20.593  12.918
14598W        W81139  25.841  37.248  13.570
14599W        W81140  19.656  41.518   1.862
14600W        W81141  35.481   5.744  14.131
14601W        W81142  39.316  34.100  12.494
14602W        W81143   6.436  34.448   4.364
14603W        W81144  38.101   4.239   0.348
14604W        W81145  41.973   8.824   0.374
14605W        W81146   8.762  29.984   4.289
14606W        W81147  36.488  32.315   4.316
14607W        W81148  33.699  20.602   0.398
14608W        W81149  27.414  34.370   3.361
14609W        W81150  25.938  19.157  10.733
14610W        W81151  35.097  22.049   3.482
14611W        W81152   1.490  11.723   0.925
14612W        W81153   2.635  18.106   4.976
14613W        W81154  10.116  19.067  12.362
14614W        W81155   5.576   7.748  12.535
14615W        W81156   3.797  15.702  13.067
14616W        W81157  42.704   8.680   0.991
14617W        W81158  24.695  26.595   4.159
14618W        W81159  31.954  27.007   1.790
14619W        W81160  42.672  28.802  11.108
14620W        W81161   1.333  29.829   0.456
14621W        W81162  35.455  40.738   3.412
14622W        W81163  17.772  38.939   2.854
14623W        W81164  42.467  18.136   4.443
14624W        W81165  15.143  18.336   3.112
14625W        W81166   7.322  39.003   0.812
14626W        W81167   5.759   3.865   4.076
14627W        W81168  10.962  11.844   1.761
14628W        W81169   6.166  40.512  12.519
14629W        W81170  44.030  39.192  14.420
14630W        W81171  14.121   9.302   3.081
14631W        W81172  16.115  37.398  12.891
14632W        W81173   0.058  38.773   1.299
14633W        W81174   3.445   6.823   1.903
14634W        W81175   2.918   5.947   1.752
14635W        W81176  18.052  27.465  12.993
14636W        W81177  38.973  40.729  10.430
14637W        W81178  37.233  42.032  13.460
14638W        W81179  37.150  10.914   4.250
14639W        W81180  43.951  20.341   2.685
14640W        W81181  29.912  28.252   2.752
14641W        W81182   7.919  19.532  12.954
14642W        W81183  32.533  10.815  12.926
14643W        W81184  29.551  44.919   0.846
14644W        W81185  16.122  31.393   2.323
14645W        W81186   6.722  12.071  12.836
14646W        W81187  29.200  20.674  10.602
14647W        W81188   8.734   2.866   4.292
14648W        W81189   1.873   4.782  10.999
14649W        W81190  20.640  44.845   1.159
14650W        W81191  18.984  31.587  11.218
14651W        W81192   2.967   3.153   2.764
14652W        W81193  30.553  28.240   1.257
14653W        W81194  42.391  14.346   0.517
14654W        W81195  24.308  15.318  13.845
14655W        W81196   6.234  16.258  13.875
14656W        W81197  19.290  31.437  13.438
14657W        W81198   2.726   3.514  14.083
14658W        W81199   5.802  12.717   3.688
14659W        W81200   8.736  30.653  12.032
14660W        W81201  18.086  26.076  11.595
14661W        W81202   6.235  12.794   0.854
14662W        W81203  38.043  41.019   3.243
14663W        W81204   8.284  42.457   2.707
14664W        W81205   9.761  15.481   3.721
14665W        W81206  12.058  21.476  10.035
14666W        W81207  24.265  36.762  13.439
14667W        W81208  31.883   9.831  12.736
14668W        W81209  37.407  24.926  12.128
14669W        W81210  34.752  30.084  11.502
14670W        W81211   6.967  38.930  13.808
14671W        W81212   7.824  40.828   3.553
14672W        W81213   7.532   2.015   0.176
14673W        W81214   0.398  28.549  12.524
14674W        W81215  17.232  34.342  12.005
14675W        W81216   8.177  33.475   4.184
14676W        W81217  23.684  44.826  12.500
14677W        W81218  27.108   9.866  11.000
14678W        W81219   6.554  43.923  11.139
14679W        W81220  17.242  33.377  14.458
14680W        W81221   2.334  26.331   0.715
14681W        W81222   6.852  26.136  14.835
14682W        W81223   3.433   6.143  13.486
14683W        W81224  11.859  20.964   2.135
14684W        W81225   5.503   2.040  12.339
14685W        W81226  31.207  28.981  12.820
14686W        W81227  16.309   0.934   0.013
14687W        W81228   2.364  13.138   1.828
14688W        W81229  37.269   7.244   0.334
14689W        W81230  14.826  14.632  13.965
14690W        W81231  32.450   8.689   3.668
14691W        W81232  41.920  36.648  14.780
14692W        W81233   0.898  34.667  12.113
14693W        W81234  36.597  28.468  14.024
14694W        W81235  12.084  25.098   1.738
14695W        W81236  13.060   9.830  11.147
14696W        W81237  15.691   2.360  11.557
14697W        W81238  33.099   4.766  14.951
14698W        W81239  10.550   0.196  14.469
14699W        W81240  19.049   3.210  11.497
14700W        W81241  10.070   9.499   2.243
14701W        W81242   6.654  19.082  13.763
14702W        W81243  12.712  33.163   3.681
14703W        W81244   9.377  41.018  12.587
14704W        W81245  28.052   1.324  12.150
14705W        W81246  22.809  22.580   4.669
14706W        W81247  18.682  11.802   4.590
14707W        W81248  35.624  15.381  13.569
14708W        W81249  29.958  37.054   4.828
14709W        W81250  18.236  18.717  14.282
14710W        W81251   8.383   0.614  12.444
14711W        W81252   9.121  27.811  10.643
14712W        W81253  44.397  39.492   3.317
14713W        W81254  40.243   5.024   3.623
14714W        W81255  42.236  16.834  14.549
14715W        W81256  11.839  39.486  11.342
14716W        W81257   4.289  30.037   4.735
14717W        W81258   3.470  16.178   3.756
14718W        W81259  35.443  11.615   4.375
14719W        W81260  34.595  18.036  14.818
14720W        W81261  41.030  18.551  11.980
14721W        W81262  20.470  17.097   2.662
14722W        W81263   4.940  21.146   4.762
14723W        W81264  26.503  28.664   0.649
14724W        W81265   2.750  35.924  12.030
14725W        W81266  42.570  42.327  11.966
14726W        W81267  33.789   1.944   0.391
14727W        W81268   0.703   5.678   3.220
14728W        W81269   8.449   2.936  10.921
14729W        W81270  19.270  43.140   0.444
14730W        W81271  25.785  14.249   1.232
14731W        W81272  19.830   1.534  13.839
14732W        W81273   3.919  18.163   4.154
14733W        W81274  18.119  42.241  11.893
14734W        W81275   4.770  22.547   4.367
14735W        W81276   6.055  11.541   0.386
14736W        W81277  16.871  37.080  13.812
14737W        W81278  35.122  14.584  13.455
14738W        W81279  42.435  18.766  11.680
14739W        W81280  40.472   9.456  11.802
14740W        W81281   2.770  15.952   1.983
14741W        W81282  21.239  10.352  13.503
14742W        W81283  15.869  44.008   1.738
14743W        W81284  38.072  32.169  13.515
14744W        W81285   2.371  32.112   2.181
14745W        W81286  27.785  23.817   2.411
14746W        W81287  20.809  40.672  12.460
14747W        W81288  34.535   5.361   4.993
14748W        W81289   8.308  23.299   4.331
14749W        W81290  30.920  23.485  11.622
14750W        W81291  18.053  11.157   0.229
14751W        W81292  24.712  43.396   4.560
14752W        W81293  16.931   1.376  13.451
14753W        W81294  31.734  24.580   0.890
14754W        W81295  25.686   7.899  13.077
14755W        W81296  23.510  24.013   1.780
14756W        W81297  14.294  30.470  12.154
14757W        W81298   3.343  28.561  14.362
14758W        W81299  20.843  22.334  13.582
14759W        W81300   0.999  35.528   2.387
14760W        W81301  44.085  36.077  11.718
14761W        W81302  31.171  43.802  10.879
14762W        W81303   7.139  14.718   1.629
14763W        W81304   5.501  19.243   0.877
14764W        W81305  17.460  30.252   0.800
14765W        W81306   0.183  39.244   2.257
14766W        W81307   4.651  30.667   3.095
14767W        W81308  19.519  19.694   3.959
14768W        W81309   1.513   9.428  12.806
14769W        W81310   8.872   3.222  14.994
14770W        W81311  43.291  23.603   4.171
14771W        W81312  34.929  31.430  10.707
14772W        W81313  29.097  21.093  11.529
14773W        W81314  16.584  27.738  14.512
14774W        W81315  19.507   0.761   1.933
14775W        W81316  16.670   2.330  14.726
14776W        W81317  32.930   8.442  11.894
14777W        W81318  35.371   0.856   4.867
14778W        W81319   0.858   4.342  12.335
14779W        W81320  18.661   0.279   2.235
14780W        W81321   9.854  29.088   3.136
14781W        W81322  41.526   7.950   4.503
14782W        W81323  16.595  31.564  11.601
14783W        W81324   6.562  36.716   3.754
14784W        W81325  29.523  38.105  11.392
14785W        W81326  14.494  39.805  10.775
14786W        W81327  36.447   3.945  11.167
14787W        W81328   4.389  41.275  12.557
14788W        W81329   3.226   7.021   4.638
14789W        W81330  19.587   1.983  12.534
14790W        W81331  27.429   5.728  10.685
14791W        W81332  24.359   4.605  10.369
14792W        W81333  38.256  28.246   0.916
14793W        W81334  25.589  43.338   0.509
14794W        W81335   0.218  37.460   4.191
14795W        W81336  28.904  34.078  12.149
14796W        W81337  11.348  21.628  10.691
14797W        W81338  25.498  39.015   3.212
14798W        W81339  35.210  15.779  11.189
14799W        W81340   0.985  41.513  12.382
14800W        W81341  35.628  36.449  13.462
14801W        W81342  24.370  37.864  14.791
14802W        W81343   2.286  40.709   4.619
14803W        W81344  41.510  11.916  12.136
14804W        W81345  42.839  16.693   4.314
14805W        W81346  16.178  10.259   1.288
14806W        W81347  15.130  42.507   4.087
14807W        W81348  22.079  25.688   1.235
14808W        W81349   7.907  38.585   0.464
14809W        W81350  21.972  22.559  10.971
14810W        W81351  18.806  22.222   4.092
14811W        W81352  15.792  31.036  12.955
14812W        W81353  34.428  16.264   3.692
14813W        W81354  23.809  43.842   2.514
14814W        W81355  30.238   8.159  11.580
14815W        W81356  26.517  19.834   4.816
14816W        W81357  32.969  36.626   3.588
14817W        W81358  29.881  31.034   2.791
14818W        W81359   1.636  36.909   2.387
14819W        W81360   7.884  36.982   4.968
14820W        W81361  15.772  30.378  14.029
14821W        W81362  34.820  12.433  14.277
14822W        W81363  16.642  11.718  14.373
14823W        W81364  44.748   4.213  12.103
14824W        W81365  34.896  13.248  14.016
14825W        W81366  24.114   7.948   2.303
14826W        W81367  26.434  13.547  13.064
14827W        W81368  24.738  44.457   1.895
14828W        W81369   6.020   9.955  10.128
14829W        W81370  43.541  33.303  11.330
14830W        W81371  18.566   1.419  12.080
14831W        W81372  30.993  21.521   0.818
14832W        W81373  25.664  37.500  11.948
14833W        W81374  13.171  24.699  13.495
14834W        W81375  16.779  14.722  14.864
14835W        W81376  17.285  35.386  14.439
14836W        W81377   7.362  14.015  13.958
14837W        W81378   1.740  10.383   0.366
14838W        W81379  26.049   7.253   3.208
14839W        W81380  33.902  38.489   1.738
14840W        W81381  44.757  43.539  11.535
14841W        W81382  13.610  34.954  13.040
14842W        W81383   6.289  19.008  12.850
14843W        W81384  44.347  42.816   4.526
14844W        W81385  12.806   5.840   2.240
14845W        W81386  35.891   5.728  12.380
14846W        W81387  14.841   2.801  13.478
14847W        W81388  21.805   1.010  12.067
14848W        W81389  25.057   7.555  13.367
14849W        W81390  43.840   0.051   4.208
14850W        W81391  10.607  25.465  12.492
14851W        W81392  35.226   6.892   4.234
14852W        W81393  15.939   3.015  14.304
14853W        W81394  36.916  44.260  14.568
14854W        W81395   4.766  40.343   0.229
14855W        W81396  34.079  11.708   9.765
14856W        W81397  10.883  16.628   1.613
14857W        W81398   8.297   2.595   2.242
14858W        W81399   9.941  42.254  14.298
14859W        W81400  44.957  36.396   0.272
14860W        W81401  44.916   1.207   1.240
14861W        W81402  27.229  34.392  13.883
14862W        W81403  22.779  35.353  13.590
14863W        W81404  17.311  43.861   2.426
14864W        W81405  25.574  32.681   1.708
14865W        W81406  44.290  44.626   0.901
14866W        W81407  23.952  28.015  14.729
14867W        W81408  29.008  34.419  10.653
14868W        W81409  44.620  13.946   3.738
14869W        W81410  17.200   9.324  10.289
14870W        W81411  44.243  28.095  14.025
14871W        W81412  20.261  26.029   3.502
14872W        W81413  15.023  17.557   3.804
14873W        W81414  25.010   6.460  12.316
14874W        W81415  27.577  26.775   1.300
14875W        W81416   0.213  30.339   0.408
14876W        W81417  24.763  10.541  13.504
14877W        W81418  40.994  10.561  13.928
14878W        W81419  11.093   9.088   0.284
14879W        W81420  17.750   1.632   1.879
14880W        W81421  35.642  10.804  14.549
14881W        W81422  14.558   4.362  12.090
14882W        W81423  22.580   4.215   9.483
14883W        W81424  34.998  42.756  10.829
14884W        W81425  18.668   4.306   3.794
14885W        W81426  21.184   6.369  11.417
14886W        W81427  17.157  36.411   3.617
14887W        W81428  15.810  10.852   0.888
14888W        W81429  33.381  38.426   1.800
14889W        W81430   2.784  22.715  13.074
14890W        W81431  43.503  25.155   0.020
14891W        W81432  13.626  39.018  11.606
14892W        W81433  24.094  17.518  14.298
14893W        W81434  13.825  32.673   4.134
14894W        W81435  19.671  36.817  11.751
14895W        W81436  20.746  12.063   3.113
14896W        W81437  22.736  22.219   1.750
14897W        W81438  42.110  13.830  12.880
14898W        W81439   1.004  10.806   0.901
14899W        W81440  20.049  30.869   1.020
14900W        W81441  37.114  30.288  13.801
14901W        W81442  15.492  17.221   0.814
14902W        W81443  44.103   6.639   2.519
14903W        W81444  14.873  13.077  10.450
14904W        W81445  43.810   7.070  14.768
14905W        W81446  19.098  28.959  12.236
14906W        W81447  19.462   8.749   1.500
14907W        W81448  26.461  26.719   3.381
14908W        W81449  24.223  34.116   2.811
14909W        W81450   8.226   2.053   1.402
14910W        W81451  25.920  44.808   1.736
14911W        W81452  16.738  26.582  11.515
14912W        W81453  19.090  23.286   2.833
14913W        W81454  11.667  12.706   0.826
14914W        W81455  41.494  38.058   4.886
14915W        W81456  38.667  10.188   4.006
14916W        W81457   3.334  37.843  12.895
14917W        W81458  14.420   3.755   0.637
14918W        W81459   5.702  15.090  14.097
14919W        W81460  26.115  37.476  14.402
14920W        W81461  13.599  16.824   1.868
14921W        W81462   7.786   6.145   2.570
14922W        W81463  37.780  17.709  13.040
14923W        W81464  35.400  21.651   3.379
14924W        W81465  34.594  37.933  11.080
14925W        W81466  33.850  16.398  14.357
14926W        W81467  19.090  14.040   1.675
14927W        W81468  14.797  11.796  12.059
14928W        W81469  25.885  17.650  14.344
14929W        W81470   7.655  22.956   1.864
14930W        W81471  10.734  31.156   1.442
14931W        W81472  34.910  16.608   0.432
14932W        W81473  36.936   6.269  11.485
14933W        W81474   0.779  37.285  11.016
14934W        W81475  38.898  18.003   4.762
14935W        W81476  21.117  39.826   1.813
14936W        W81477  39.500  18.783  12.841
14937W        W81478  13.964  28.588   2.840
14938W        W81479  26.984   8.270  12.781
14939W        W81480  31.084   0.742  13.489
14940W        W81481  41.021  30.574   1.841
14941W        W81482  18.217  20.622  11.135
14942W        W81483   7.267  14.338  14.338
14943W        W81484  12.729  42.786  13.884
14944W        W81485  20.965  43.314  12.076
14945W        W81486  21.722  44.441   3.367
14946W        W81487  42.009  14.619  14.005
14947W        W81488  44.451   8.906   1.234
14948W        W81489  14.077  28.937   4.043
14949W        W81490  36.203  43.758  11.119
14950W        W81491  41.026  15.805   0.528
14951W        W81492  36.891  43.779   0.496
14952W        W81493  38.995   3.616  12.939
14953W        W81494  20.584  11.584  12.503
14954W        W81495  42.230   0.811   3.105
14955W        W81496  16.775  40.460   3.812
14956W        W81497   5.689  32.102   4.281
14957W        W81498  43.693  43.111  11.501
14958W        W81499  35.262  17.643  13.110
14959W        W81500  44.508  41.891  14.424
14960W        W81501  20.046  40.507   3.265
14961W        W81502  38.570   0.885  14.845
14962W        W81503  41.867  34.877   2.630
14963W        W81504  14.263  33.711  12.414
14964W        W81505  34.378  17.163  11.129
14965W        W81506  12.765  25.013   3.702
14966W        W81507  19.694  23.481   0.957
14967W        W81508  19.585  19.486  13.893
14968W        W81509  43.511   5.440  10.956
14969W        W81510   4.204   4.899  14.321
14970W        W81511   7.634   5.861  11.198
14971W        W81512  29.370   8.637  12.429
14972W        W81513   0.567   7.684   1.836
14973W        W81514  38.447  10.305   4.495
14974W        W81515  10.589   0.294   4.888
14975W        W81516  33.924  30.101  14.403
14976W        W81517  32.222  16.411  11.118
14977W        W81518  28.191   7.199   3.301
14978W        W81519   9.823  21.799   2.549
14979W        W81520   4.502   9.732  13.016
14980W        W81521  29.723  37.915   2.805
14981W        W81522  13.958  26.397   9.955
14982W        W81523  12.337  32.211   4.556
14983W        W81524   1.272  36.222   0.769
14984W        W81525  31.393  43.381  12.794
14985W        W81526  15.540  25.766   2.385
14986W        W81527  10.831  18.191  13.380
14987W        W81528   6.078  17.921   1.260
14988W        W81529  19.326  33.484  13.613
14989W        W81530  24.188   2.513   3.929
14990W        W81531  35.467  38.834   1.961
14991W        W81532   8.228  37.891  14.290
14992W        W81533  25.940   8.391   0.831
14993W        W81534  33.505   0.855  13.826
14994W        W81535  11.292  38.304  12.779
14995W        W81536  22.390  44.385   0.668
14996W        W81537  16.184  20.605   2.726
14997W        W81538   0.701  32.407  14.462
14998W        W81539  37.101  15.562  13.832
14999W        W81540  43.821  38.352   0.202
15000W        W81541  21.618  34.315  12.647
15001W        W81542  30.315  37.745  11.919
15002W        W81543  32.191  14.156  14.824
15003W        W81544  30.584  30.534   0.587
15004W        W81545  35.465  10.581   0.442
15005W        W81546  37.443  43.191  14.781
15006W        W81547  26.513  22.945   3.997
15007W        W81548  43.920  12.579  14.329
15008W        W81549  23.462  38.053   3.822
15009W        W81550  35.610  27.537   1.955
15010W        W81551  26.282  40.344   2.304
15011W        W81552  18.590  38.947   1.307
15012W        W81553  19.112  15.138  12.472
15013W        W81554   4.899  14.583  12.099
15014W        W81555  21.201  16.801   2.350
15015W        W81556  35.581  16.270   2.316
15016W        W81557  44.236  42.216  10.608
15017W        W81558   6.434   9.802  13.881
15018W        W81559  41.607  13.980  12.999
15019W        W81560  10.413  21.368   0.315
15020W        W81561   8.794  17.104   0.873
15021W        W81562  10.316  10.266   0.630
15022W        W81563   5.701  17.155  10.639
15023W        W81564   0.315   0.161  11.397
15024W        W81565   7.197  28.996   4.845
15025W        W81566   4.774  11.583  13.712
15026W        W81567   6.853  20.839   3.658
15027W        W81568  12.816  11.773   0.449
15028W        W81569   9.229   1.499   0.906
15029W        W81570  12.144  13.862  10.587
15030W        W81571  27.988  17.719   2.188
15031W        W81572  41.108   5.344   0.888
15032W        W81573  34.833  37.475   0.995
15033W        W81574  34.923  38.917   3.217
15034W        W81575  29.759  27.106   3.245
15035W        W81576  12.046  20.064  13.703
15036W        W81577  22.216   0.045  11.977
15037W        W81578  16.487  40.234  11.555
15038W        W81579  12.332  25.210  13.400
15039W        W81580  21.157  28.497  14.121
15040W        W81581   1.651  28.381  14.353
15041W        W81582  10.168  12.137   2.750
15042W        W81583  25.508  16.683  10.834
15043W        W81584  29.496   5.522   4.494
15044W        W81585   4.458  41.424  10.434
15045W        W81586  30.103   9.110   0.897
15046W        W81587  16.009   1.982  14.559
15047W        W81588  34.092  13.404  13.502
15048W        W81589  13.680  13.842  13.275
15049W        W81590  17.795   9.682   4.591
15050W        W81591   5.499   5.418   5.467
15051W        W81592  36.511   1.153  13.935
15052W        W81593  15.280  20.568  14.846
15053W        W81594   2.021  30.694  11.176
15054W        W81595  32.948  20.734  14.841
15055W        W81596   2.970  23.654  11.061
15056W        W81597   5.834  18.237  10.604
15057W        W81598   1.913  14.878  13.581
15058W        W81599  41.955   1.514   2.602
15059W        W81600  10.154  13.660   4.645
15060W        W81601  16.436  16.865   4.484
15061W        W81602  29.526  23.195  14.017
15062W        W81603  26.987  22.268   1.364
15063W        W81604  19.871   7.974  13.789
15064W        W81605   4.918  21.059   2.348
15065W        W81606  34.618  30.053  14.989
15066W        W81607  30.983   4.362  14.177
15067W        W81608   3.160   5.704  11.174
15068W        W81609  10.972  34.513   1.458
15069W        W81610  17.284  27.507   1.165
15070W        W81611   7.051  25.272  14.815
15071W        W81612  43.043   3.763  12.260
15072W        W81613   7.870  27.331  11.070
15073W        W81614  44.825   4.031   3.568
15074W        W81615  33.406  37.366   0.781
15075W        W81616  40.248  25.245   0.987
15076W        W81617  38.841  20.103   3.513
15077W        W81618  33.190  42.465  13.983
15078W        W81619  25.942  26.932  13.975
15079W        W81620   9.239  35.042   4.749
15080W        W81621   8.122  34.912  13.441
15081W        W81622  20.097  29.653   3.234
15082W        W81623  36.831  33.393  13.637
15083W        W81624  44.503  10.905  12.434
15084W        W81625  18.805  30.493   1.298
15085W        W81626   9.940  16.036  12.162
15086W        W81627  20.187  23.473   1.225
15087W        W81628  31.136  22.508   1.312
15088W        W81629  16.278   9.273   1.224
15089W        W81630   6.071  30.186   0.348
15090W        W81631  43.583  29.621  11.629
15091W        W81632   1.305  30.658   4.263
15092W        W81633   0.386  13.349   1.951
15093W        W81634  16.562  32.345   3.240
15094W        W81635  17.286  11.483   3.938
15095W        W81636  13.550   3.271  10.692
15096W        W81637  23.003  41.353   0.928
15097W        W81638  38.936  43.814  11.677
15098W        W81639  23.348  10.690   2.698
15099W        W81640  42.494   4.516   3.796
15100W        W81641  24.630  17.132  11.551
15101W        W81642  27.265   9.000   3.354
15102W        W81643  21.922  25.748   1.745
15103W        W81644   1.830  27.030  14.046
15104W        W81645  40.035   3.334   3.646
15105W        W81646   6.824  20.117   1.351
15106W        W81647  41.372   1.452   1.384
15107W        W81648   8.940  16.804   1.314
15108W        W81649  42.745  10.249   4.066
15109W        W81650  38.569   7.668  10.809
15110W        W81651  12.588  22.296   0.380
15111W        W81652   7.892  21.000  12.023
15112W        W81653  14.224  42.046   0.883
15113W        W81654  26.587  26.002   1.836
15114W        W81655  25.511   7.433  13.994
15115W        W81656  10.840  13.779  13.448
15116W        W81657  20.711   3.355   3.189
15117W        W81658  35.947  36.990   4.942
15118W        W81659  28.211   1.860   4.401
15119W        W81660  11.674  21.266  13.551
15120W        W81661   5.628  23.716   3.150
15121W        W81662  30.951  25.784  13.223
15122W        W81663  28.629  20.901  12.944
15123W        W81664   7.944  29.116  13.571
15124W        W81665  25.993   6.808  11.668
15125W        W81666  25.425  33.985   3.882
15126W        W81667  10.976  17.408   3.805
15127W        W81668  37.432  42.519   2.426
15128W        W81669  25.504   3.427   3.540
15129W        W81670  17.747   5.918   1.853
15130W        W81671   2.405   0.011   2.400
15131W        W81672  29.727  43.778  12.478
15132W        W81673   5.412  32.975   2.227
15133W        W81674   0.002  21.926   3.346
15134W        W81675  26.089  15.903  10.620
15135W        W81676   8.307  24.442  13.925
15136W        W81677  24.498  36.544  11.671
15137W        W81678  21.208  39.651   1.311
15138W        W81679  36.833  34.438   2.602
15139W        W81680  43.483  13.684  11.481
15140W        W81681  39.806   1.823  10.932
15141W        W81682   0.738   4.208   3.103
15142W        W81683  11.310  17.344  13.591
15143W        W81684  42.995   1.244   2.265
15144W        W81685  34.929   2.320  14.303
15145W        W81686   4.877  34.091  14.725
15146W        W81687  12.695  34.651  13.015
15147W        W81688  15.872  28.526  14.960
15148W        W81689  13.339  20.149  13.623
15149W        W81690  38.506   0.252   2.334
15150W        W81691   8.880  36.352   4.231
15151W        W81692   2.756  24.305   3.007
15152W        W81693  43.961  43.263   2.167
15153W        W81694  36.895  32.920   3.773
15154W        W81695  37.161   5.292  14.536
15155W        W81696  31.113  33.214   0.284
15156W        W81697  33.022   0.797   0.682
15157W        W81698  37.666   5.228  14.754
15158W        W81699  33.886  31.416  12.245
15159W        W81700   8.258  28.506  14.609
15160W        W81701  28.279  14.363   2.757
15161W        W81702  43.934  28.179   2.315
15162W        W81703  32.410   0.814  13.907
15163W        W81704  13.367  16.754  12.627
15164W        W81705  27.742  10.258   3.676
15165W        W81706   5.178  44.757   4.611
15166W        W81707  23.040  14.532   1.942
15167W        W81708   5.154  29.568  14.482
15168W        W81709  10.385  33.853   2.571
15169W        W81710  43.959   6.254  11.481
15170W        W81711  26.638  32.252   1.378
15171W        W81712  34.315  30.484   3.806
15172W        W81713  25.016  27.404  13.495
15173W        W81714  20.588  15.266  10.364
15174W        W81715  10.253  17.608  12.252
15175W        W81716  17.495  31.693   1.211
15176W        W81717  17.526  42.945   4.011
15177W        W81718  38.286   1.170  14.510
15178W        W81719  40.993   7.896   3.169
15179W        W81720  44.830  19.535   2.259
15180W        W81721  34.824  36.888  11.553
15181W        W81722  25.041  35.471   0.942
15182W        W81723  29.077  15.788   0.250
15183W        W81724   8.689  11.912   1.535
15184W        W81725  15.499  34.013   0.424
15185W        W81726  12.126  30.367  11.552
15186W        W81727  42.604  39.608  12.110
15187W        W81728  15.331  35.346   1.761
15188W        W81729  31.986  13.551  11.248
15189W        W81730  31.185  44.522   0.822
15190W        W81731  26.930  26.048  13.845
15191W        W81732  16.346  40.326   2.251
15192W        W81733  44.946  21.300  14.083
15193W        W81734   3.337  22.736   0.013
15194W        W81735  20.245   5.187  10.721
15195W        W81736  20.088  41.016   3.111
15196W        W81737  32.400  25.651   1.791
15197W        W81738  30.732  37.383   0.075
15198W        W81739  24.714  28.409  11.135
15199W        W81740  34.496  16.658  13.903
15200W        W81741  25.363  39.905  10.770
15201W        W81742  42.045  25.523   0.704
15202W        W81743  11.154  26.580  10.482
15203W        W81744  31.000  16.040   0.897
15204W        W81745   8.637  31.081  13.918
15205W        W81746  35.933  26.122   2.957
15206W        W81747  37.851  25.651  12.060
15207W        W81748  15.864  32.910   1.335
15208W        W81749   0.711  15.644   0.280
15209W        W81750   7.790  43.807   2.358
15210W        W81751  23.052  21.268   4.258
15211W        W81752   4.812  21.770   2.219
15212W        W81753  34.013  40.048  12.878
15213W        W81754  26.436  42.999   3.826
15214W        W81755  29.916  31.703   3.323
15215W        W81756   3.915  20.181  11.002
15216W        W81757  29.857  36.842  14.232
15217W        W81758  29.588  43.016   5.094
15218W        W81759  42.240   5.280  14.978
15219W        W81760  39.382  18.095   3.128
15220W        W81761  19.572   7.477   2.264
15221W        W81762  30.120  20.985  11.637
15222W        W81763  18.806   1.743  13.446
15223W        W81764  20.295  34.556  11.543
15224W        W81765  41.944   8.720   4.774
15225W        W81766  24.188  23.544  10.873
15226W        W81767  14.268   9.614  12.572
15227W        W81768  34.803  42.506   0.307
15228W        W81769  43.892  14.983   9.803
15229W        W81770  44.280  35.006   4.224
15230W        W81771  20.927  35.453  11.433
15231W        W81772   0.901  41.883  11.623
15232W        W81773  13.438  21.638  11.012
15233W        W81774  10.429  20.579  11.479
15234W        W81775  29.897  19.138  13.313
15235W        W81776  35.649  42.518  12.542
15236W        W81777  39.069  44.897  10.610
15237W        W81778  16.207  43.316  11.056
15238W        W81779   0.226   3.801   0.377
15239W        W81780  14.758  32.007  11.547
15240W        W81781  26.710  23.726  14.454
15241W        W81782  35.354  13.583   3.025
15242W        W81783  23.253  13.208   1.317
15243W        W81784  33.482  15.579   2.845
15244W        W81785  40.435  16.588   2.569
15245W        W81786  34.024  16.254   0.384
15246W        W81787  12.116  44.784  14.611
15247W        W81788  21.056  25.685  10.620
15248W        W81789   7.944  24.250  10.750
15249W        W81790   3.068   4.422  13.841
15250W        W81791  20.591   5.431   1.460
15251W        W81792  18.123  34.985  13.404
15252W        W81793  23.997   8.882  14.861
15253W        W81794  17.318  43.400   4.164
15254W        W81795  10.759  37.701  11.405
15255W        W81796  14.170  19.140  13.947
15256W        W81797  39.020  30.893  14.883
15257W        W81798  28.037  24.770  12.059
15258W        W81799  38.562   7.129  14.575
15259W        W81800  33.179  12.154   5.594
15260W        W81801  19.458  44.082   4.197
15261W        W81802  29.182   2.696  12.436
15262W        W81803  37.170  10.121  12.396
15263W        W81804   3.678  35.125  10.586
15264W        W81805  37.898  29.705  11.139
15265W        W81806  13.314  31.057  14.580
15266W        W81807  27.118  12.046  12.396
15267W        W81808   7.958   9.767   1.714
15268W        W81809  19.130  29.477   3.210
15269W        W81810  23.656   5.002  13.358
15270W        W81811  18.080  44.350   3.768
15271W        W81812  27.369  16.274  12.291
15272W        W81813  44.896  34.387   1.331
15273W        W81814   6.922  28.510   2.612
15274W        W81815  28.798  11.101   4.992
15275W        W81816  34.223  44.182  11.104
15276W        W81817  37.193  21.310   1.815
15277W        W81818  37.804  27.193   3.591
15278W        W81819  11.869  23.200  13.117
15279W        W81820  12.268  34.959  11.473
15280W        W81821  44.315  22.494   0.913
15281W        W81822  41.050  31.428   0.478
15282W        W81823   5.374  40.522  14.418
15283W        W81824  15.087  28.990   1.953
15284W        W81825  21.773  10.427  10.679
15285W        W81826  28.154  31.870  14.842
15286W        W81827   8.182  42.531   4.144
15287W        W81828   5.935  28.852  12.474
15288W        W81829   7.661  13.042   3.754
15289W        W81830  12.489  24.018   3.588
15290W        W81831  40.404   0.365   2.604
15291W        W81832   9.099  10.846   2.832
15292W        W81833   1.010  42.692   1.015
15293W        W81834  37.008  24.561   0.461
15294W        W81835  40.685   6.497  11.896
15295W        W81836  38.008  29.402   3.703
15296W        W81837  32.672  11.797  12.830
15297W        W81838  42.942  41.893   2.156
15298W        W81839  41.087   5.551   3.920
15299W        W81840  42.490   8.451  12.611
15300W        W81841  13.783   5.262   4.071
15301W        W81842  37.394  42.355  12.132
15302W        W81843  23.529  34.073   2.038
15303W        W81844  41.878  38.220   1.305
15304W        W81845  40.874  10.147   0.059
15305W        W81846  25.676  27.903   4.567
15306W        W81847   3.848  20.125  14.641
15307W        W81848   0.014   6.260   0.997
15308W        W81849  15.166  33.182   0.327
15309W        W81850  21.433  34.676   4.545
15310W        W81851  10.746  29.488  13.410
15311W        W81852  39.462  27.987   1.347
15312W        W81853  37.342  44.268   4.737
15313W        W81854  33.374   7.200  12.167
15314W        W81855   7.177  21.128   2.745
15315W        W81856  17.681   6.277  14.332
15316W        W81857   7.333  12.226   3.317
15317W        W81858  29.875   4.974   2.983
15318W        W81859  29.566  19.757  12.079
15319W        W81860  11.689  29.459   4.466
15320W        W81861  14.204  13.549   2.637
15321W        W81862   3.847  44.480  10.220
15322W        W81863  23.210  17.205   2.300
15323W        W81864  11.099   9.268  12.505
15324W        W81865  24.035  12.336  10.394
15325W        W81866  14.849  41.802   1.948
15326W        W81867  17.877   1.844   0.013
15327W        W81868   5.692   1.495   3.597
15328W        W81869   2.856   8.986   3.762
15329W        W81870   5.623  14.675   0.603
15330W        W81871   8.500  16.325  10.750
15331W        W81872  20.672   1.742  14.943
15332W        W81873  33.646   4.908  11.711
15333W        W81874  34.250  41.239   2.239
15334W        W81875  35.214  23.082  12.440
15335W        W81876   2.236  11.178   4.624
15336W        W81877  17.096   3.511   1.786
15337W        W81878  21.627   4.361  14.315
15338W        W81879  39.883  34.413  11.595
15339W        W81880  27.950   4.783  12.079
15340W        W81881  18.494   2.387  13.796
15341W        W81882  42.742  28.934  11.989
15342W        W81883  24.160  37.883   2.118
15343W        W81884  32.066  28.137  14.648
15344W        W81885  15.357  34.949  13.586
15345W        W81886   7.077  29.287   1.338
15346W        W81887  40.502  41.765   0.825
15347W        W81888   7.317  37.330   4.219
15348W        W81889  36.344   3.508  12.469
15349W        W81890  37.114  34.432  13.849
15350W        W81891  25.673   5.648   1.903
15351W        W81892  29.490  16.547  13.967
15352W        W81893   1.418  30.774  10.905
15353W        W81894  12.229  33.525  11.166
15354W        W81895   0.698  31.795   2.138
15355W        W81896  15.665  42.967   3.641
15356W        W81897  13.175  38.071  10.779
15357W        W81898  22.579  25.128   2.950
15358W        W81899  33.704  27.712   1.941
15359W        W81900   0.656  22.694  12.821
15360W        W81901  33.970  30.007   2.318
15361W        W81902   8.359  25.586  14.768
15362W        W81903  10.879  22.551   4.862
15363W        W81904  15.088  36.598  12.542
15364W        W81905  33.651  22.795  11.150
15365W        W81906  36.813   8.283   4.073
15366W        W81907  15.269  40.000  13.841
15367W        W81908  38.891  44.829   1.169
15368W        W81909   4.158  28.491  13.502
15369W        W81910  28.321   0.246   0.746
15370W        W81911  34.454   1.578  14.339
15371W        W81912  22.496  32.486  10.797
15372W        W81913  21.723  30.393   1.293
15373W        W81914  21.626  35.602  14.513
15374W        W81915  22.130  42.401  12.983
15375W        W81916  33.392  21.487   2.731
15376W        W81917  26.652   5.820  11.932
15377W        W81918  34.647  18.241   0.675
15378W        W81919  38.567  22.580   3.699
15379W        W81920  38.108   6.454   1.757
15380W        W81921  14.783  21.620  11.024
15381W        W81922  21.596  33.175  11.862
15382W        W81923   9.620  27.894  14.482
15383W        W81924  23.586  21.403   2.420
15384W        W81925  29.661  26.662  11.826
15385W        W81926   4.782   1.148   1.203
15386W        W81927  28.580   5.852   1.564
15387W        W81928   6.225  21.477   9.780
15388W        W81929  32.627  27.024   2.193
15389W        W81930   5.928  30.195  11.993
15390W        W81931   6.351   4.917   9.914
15391W        W81932  39.773  27.963   3.781
15392W        W81933   0.964  15.774  14.056
15393W        W81934   5.721  39.348  12.089
15394W        W81935  12.633   7.705   2.416
15395W        W81936  20.003  10.376  14.679
15396W        W81937   8.006   6.691   3.661
15397W        W81938   3.277  32.244   1.222
15398W        W81939  44.316  25.620   4.324
15399W        W81940  44.440  28.422  11.271
15400W        W81941  22.606   5.605   0.448
15401W        W81942  35.609  15.193   4.229
15402W        W81943  26.095  34.166  11.136
15403W        W81944  22.496  35.169  10.783
15404W        W81945  18.639   6.432  11.533
15405W        W81946  37.887  37.399  12.972
15406W        W81947   2.936  28.132   0.024
15407W        W81948  28.046   0.229  13.473
15408W        W81949  37.897  15.189  11.515
15409W        W81950  27.560   9.805  12.996
15410W        W81951  41.995  12.159   2.750
15411W        W81952  22.523  36.921  12.954
15412W        W81953  13.800  22.852  13.993
15413W        W81954  44.533  37.939  14.960
15414W        W81955  32.486  17.166  10.689
15415W        W81956   5.702  37.592  10.550
15416W        W81957  26.177  36.436  11.449
15417W        W81958  20.869   0.543  11.151
15418W        W81959   4.058   9.374  13.722
15419W        W81960   7.013   4.181  14.550
15420W        W81961  27.937  22.213   2.643
15421W        W81962   0.699  12.770   0.705
15422W        W81963   9.858   9.629   1.282
15423W        W81964   1.830   5.982  12.924
15424W        W81965  26.869   7.374   0.923
15425W        W81966  10.431  33.005   3.076
15426W        W81967  43.000  11.256  10.371
15427W        W81968  37.956  27.748   0.460
15428W        W81969  31.524  15.948   5.118
15429W        W81970  41.878  29.090  10.815
15430W        W81971   7.291   0.327  11.219
15431W        W81972   5.337  23.654  13.402
15432W        W81973  31.636  20.700  14.233
15433W        W81974  12.389  32.863  13.723
15434W        W81975  22.462  13.896  11.217
15435W        W81976  44.007  12.062   2.296
15436W        W81977  22.887  31.146  14.012
15437W        W81978  38.377  34.874  10.444
15438W        W81979  17.054  19.508  11.702
15439W        W81980  36.066  36.729  13.481
15440W        W81981  39.444  40.859  12.850
15441W        W81982  13.696  29.634   2.729
15442W        W81983   6.620  14.695   3.358
15443W        W81984  12.850  21.540  14.814
15444W        W81985  24.113  15.607   3.803
15445W        W81986   8.693  43.793   0.724
15446W        W81987  26.278  10.484   2.052
15447W        W81988   3.747  25.035  12.462
15448W        W81989   6.619  40.354   1.728
15449W        W81990  44.191  33.717  14.949
15450W        W81991   0.306  34.109  11.602
15451W        W81992  28.143   4.129  10.883
15452W        W81993  21.747  29.636   2.920
15453W        W81994   3.590  32.879   3.621
15454W        W81995  27.490   1.456   3.211
15455W        W81996  15.762  44.260  11.584
15456W        W81997  18.875  12.881  11.108
15457W        W81998  37.307  33.466  13.382
15458W        W81999  12.421   5.294  14.877
15459W        W82000  12.302  33.471  10.031
15460W        W82001  17.179  34.782   0.786
15461W        W82002  21.743  28.032   4.580
15462W        W82003  16.179  36.945  11.283
15463W        W82004  30.977  25.597  11.923
15464W        W82005  17.352  39.462  11.111
15465W        W82006  28.616  19.617   3.761
15466W        W82007  25.079  12.240   3.702
15467W        W82008  41.321  23.591   1.765
15468W        W82009  37.866  27.023  13.745
15469W        W82010  27.418  20.437  14.165
15470W        W82011  13.474  33.862   1.846
15471W        W82012  35.906  27.166  13.264
15472W        W82013  28.292  15.536  14.052
15473W        W82014  23.313   4.474  13.943
15474W        W82015  35.152  11.835  11.491
15475W        W82016  27.493  40.558  13.312
15476W        W82017  17.983   9.393  14.958
15477W        W82018   5.640  17.697   2.889
15478W        W82019  25.470  23.570   0.840
15479W        W82020   4.642  42.027   1.452
15480W        W82021  30.527   0.918  13.606
15481W        W82022  16.408  14.929   5.399
15482W        W82023  43.601  40.416  14.095
15483W        W82024  18.860  23.959  12.015
15484W        W82025  21.529  39.479   0.609
15485W        W82026  27.597   0.568   1.298
15486W        W82027   8.668  42.927   2.802
15487W        W82028  36.891  34.799  12.131
15488W        W82029   4.871  28.043  14.992
15489W        W82030   6.370  33.410   0.495
15490W        W82031   4.541  22.185  14.477
15491W        W82032  35.834  30.545  12.520
15492W        W82033   4.258  15.605   4.594
15493W        W82034   1.433   7.045   3.953
15494W        W82035  35.465  18.150   1.060
15495W        W82036  28.589  28.775   2.393
15496W        W82037  36.852  18.559  11.157
15497W        W82038  20.081  27.128  10.776
15498W        W82039  20.765  26.882  14.854
15499W        W82040   0.861  44.774  13.624
15500W        W82041  12.122  40.344   4.795
15501W        W82042  11.043  23.332   0.156
15502W        W82043   4.647  26.249  13.821
15503W        W82044  36.548  35.420  11.773
15504W        W82045  26.098  15.373  14.793
15505W        W82046  44.850   4.977   1.712
15506W        W82047  31.781  32.403   4.918
15507W        W82048  38.015  29.785  12.430
15508W        W82049  10.165  44.541  11.551
15509W        W82050   5.751  36.258   4.735
15510W        W82051  19.773  10.333   2.406
15511W        W82052  11.647  41.757  10.567
15512W        W82053  18.300  11.910  10.295
15513W        W82054  30.608  23.035  12.345
15514W        W82055  37.391  10.535  14.852
15515W        W82056  20.117  26.370  13.426
15516W        W82057  37.044  30.042  14.299
15517W        W82058  39.778  15.270   1.918
15518W        W82059  19.707   0.307  10.847
15519W        W82060  37.871  33.945  13.242
15520W        W82061  24.953  20.575  14.515
15521W        W82062   0.788  34.573  13.876
15522W        W82063   4.283  13.108   2.893
15523W        W82064  24.145  17.064   4.578
15524W        W82065  20.524  11.641  11.031
15525W        W82066  31.856  41.820   3.648
15526W        W82067  20.277  22.451   2.434
15527W        W82068  14.713   7.377  12.511
15528W        W82069  12.307  36.212   3.987
15529W        W82070  32.559  22.822   4.569
15530W        W82071  24.496  20.059   4.311
15531W        W82072  35.410  26.153   3.693
15532W        W82073  41.888  29.602  12.684
15533W        W82074  22.412  42.538   2.686
15534W        W82075  28.524  40.358   1.743
15535W        W82076  23.618  29.719   4.594
15536W        W82077  23.784  21.132  14.471
15537W        W82078  10.791  14.241  14.038
15538W        W82079  13.354  36.150   4.102
15539W        W82080  17.682  26.477   1.711
15540W        W82081  41.359  14.295  11.744
15541W        W82082   2.022  41.874   0.086
15542W        W82083  28.134   0.622   1.723
15543W        W82084  26.614   4.313  11.991
15544W        W82085  17.760   1.907  13.610
15545W        W82086  38.974  15.876  13.885
15546W        W82087  22.931   4.677   4.083
15547W        W82088  34.882   5.713   3.124
15548W        W82089  42.830  37.747   0.363
15549W        W82090   0.221  31.631   2.240
15550W        W82091  30.925  43.371  11.650
15551W        W82092  10.641   2.530  13.016
15552W        W82093  17.678  41.846  14.110
15553W        W82094  44.954   3.313   0.285
15554W        W82095  40.989  25.005   1.368
15555W        W82096  34.044   9.820   2.176
15556W        W82097  41.600   3.429  12.112
15557W        W82098  43.553  30.578   0.173
15558W        W82099  30.659  22.495  14.876
15559W        W82100  19.613   3.283  14.657
15560W        W82101   8.168  35.602   0.882
15561W        W82102  25.169  30.297  11.478
15562W        W82103   8.147  41.069   1.873
15563W        W82104  30.059  10.369   5.025
15564W        W82105   7.346  42.904   3.072
15565W        W82106   2.727  35.048   1.705
15566W        W82107  31.502   4.103   4.589
15567W        W82108  28.765  40.889  13.948
15568W        W82109  10.234  12.752  14.017
15569W        W82110  17.207  42.101   4.786
15570W        W82111  10.084  22.926   3.823
15571W        W82112  43.981  14.185  12.168
15572W        W82113   8.609  36.085   3.863
15573W        W82114  40.831  27.620   3.268
15574W        W82115  34.112  31.963  11.416
15575W        W82116  43.901   0.674   0.314
15576W        W82117  22.927  33.378  13.604
15577W        W82118  21.160  25.922   2.207
15578W        W82119  10.840  40.499   3.380
15579W        W82120  11.885   9.636  13.562
15580W        W82121  19.774  39.830   4.461
15581W        W82122   2.237  17.217  12.539
15582W        W82123   0.462  11.186  13.609
15583W        W82124  12.572   7.402   1.201
15584W        W82125  20.130   8.181   4.413
15585W        W82126   7.302   5.065  11.111
15586W        W82127  24.121  40.049  11.444
15587W        W82128  35.850  19.834  12.658
15588W        W82129  40.367  20.374  11.164
15589W        W82130  20.081  23.917  13.278
15590W        W82131  44.357   4.958  10.928
15591W        W82132  28.130  20.787   1.414
15592W        W82133   0.315  44.870  12.289
15593W        W82134  27.966   5.316  12.047
15594W        W82135   5.471  39.855  14.798
15595W        W82136  23.734  31.191   3.084
15596W        W82137  23.705  35.024  12.928
15597W        W82138  43.726  20.134  14.876
15598W        W82139  29.715  20.478   2.633
15599W        W82140  38.721   4.710   3.635
15600W        W82141   8.130  11.373   1.356
15601W        W82142  36.330  26.006  10.702
15602W        W82143  39.879  35.170   2.629
15603W        W82144  15.143  29.894  10.266
15604W        W82145  23.397  27.214   2.826
15605W        W82146  22.298  26.648   1.198
15606W        W82147   9.445  27.124  13.010
15607W        W82148  42.502  24.963   3.218
15608W        W82149  42.380   5.189   0.863
15609W        W82150  15.693  28.860  10.783
15610W        W82151  12.935  14.430   5.080
15611W        W82152   1.176  33.894   3.713
15612W        W82153  18.165  15.364   9.864
15613W        W82154   4.374  14.979  14.222
15614W        W82155  32.135  30.725   4.656
15615W        W82156  44.792   0.264   3.226
15616W        W82157  18.769  29.954   4.857
15617W        W82158  16.733  12.609  14.023
15618W        W82159   9.753  25.009   4.948
15619W        W82160  43.428  24.170   4.150
15620W        W82161  28.657  22.914   2.724
15621W        W82162  35.829  42.441  14.395
15622W        W82163  11.442  14.264   4.705
15623W        W82164   2.191  29.578   1.703
15624W        W82165  27.029  25.548  13.875
15625W        W82166  44.483  18.679   3.923
15626W        W82167   6.501  14.673   3.863
15627W        W82168  27.123  40.455  14.526
15628W        W82169  14.075  11.303  14.104
15629W        W82170  38.234  11.906  11.932
15630W        W82171  33.857   3.236   0.825
15631W        W82172  43.853  26.393   2.665
15632W        W82173  40.684   5.979  11.960
15633W        W82174   5.981  19.692   3.696
15634W        W82175  31.662  44.000   3.560
15635W        W82176  25.708   9.128   3.104
15636W        W82177   2.114  13.547   3.701
15637W        W82178  44.204  26.226  13.897
15638W        W82179  22.813  25.739  10.955
15639W        W82180   9.678  20.796   1.306
15640W        W82181  30.244  35.067   0.305
15641W        W82182  18.213  37.579   3.341
15642W        W82183  13.864  43.893  12.812
15643W        W82184  17.169   5.998  11.966
15644W        W82185  11.168   2.716   2.074
15645W        W82186  43.598  16.564   3.810
15646W        W82187  14.160   5.734   1.878
15647W        W82188  41.106  29.626  11.994
15648W        W82189  10.049  12.522  12.397
15649W        W82190  19.770  34.145   2.331
15650W        W82191  13.716  39.926   0.342
15651W        W82192  39.077  26.140  12.603
15652W        W82193  32.645  35.410   1.498
15653W        W82194   4.218  26.078  14.330
15654W        W82195   8.066  10.142  14.458
15655W        W82196  31.744   1.974   5.443
15656W        W82197  27.177  32.503   3.738
15657W        W82198  36.001  29.846  11.219
15658W        W82199  25.799  30.012  11.471
15659W        W82200  41.519  15.558  13.926
15660W        W82201  44.308  16.125   2.681
15661W        W82202  30.646   9.650   1.157
15662W        W82203  29.401  10.768   3.582
15663W        W82204  34.043  34.641   2.779
15664W        W82205  18.251  38.558   4.832
15665W        W82206  26.122  10.592   4.928
15666W        W82207  28.783   0.272  14.241
15667W        W82208  24.453  31.874  12.082
15668W        W82209  30.169   3.382   3.297
15669W        W82210  15.326   1.304   4.458
15670W        W82211  30.674  31.153  12.095
15671W        W82212  15.292  34.957   2.105
15672W        W82213  27.955  20.333  14.273
15673W        W82214   0.172   3.779   3.871
15674W        W82215   2.845  33.560  12.445
15675W        W82216  23.145  25.753   4.802
15676W        W82217   3.452  37.454   0.460
15677W        W82218   5.512  40.423   4.294
15678W        W82219  44.277  37.059  10.097
15679W        W82220  41.734  10.248   1.457
15680W        W82221  13.586   1.682  11.940
15681W        W82222   9.310  18.543   4.978
15682W        W82223  28.019  41.963   2.654
15683W        W82224   9.093   8.394   3.659
15684W        W82225   2.362  43.704   4.091
15685W        W82226  25.153  19.533  14.469
15686W        W82227  33.183  35.934  11.073
15687W        W82228  11.755  26.590  13.420
15688W        W82229   6.915  16.221   1.398
15689W        W82230  11.163   8.610   0.435
15690W        W82231   1.458  16.660   4.637
15691W        W82232   3.353  44.700  10.607
15692W        W82233  10.306  38.738  13.993
15693W        W82234  15.224  42.861   1.679
15694W        W82235  22.876  15.785   1.229
15695W        W82236   1.905  29.777   1.091
15696W        W82237  19.069  11.203   2.522
15697W        W82238  28.408   6.705  12.142
15698W        W82239   7.165  26.657  12.517
15699W        W82240  22.101  13.191  14.460
15700W        W82241  44.144  21.789  12.595
15701W        W82242  18.506   1.929  13.027
15702W        W82243  14.753  21.914   0.257
15703W        W82244   3.131  12.230  10.662
15704W        W82245  43.877  39.089   1.647
15705W        W82246  21.916  16.815   3.320
15706W        W82247  22.543  28.178   1.951
15707W        W82248  44.756  35.130   2.820
15708W        W82249  37.875  43.620   2.843
15709W        W82250   0.228  30.901  11.251
15710W        W82251  44.496   1.761   1.725
15711W        W82252   3.745   9.948   4.158
15712W        W82253  41.067   9.257  14.107
15713W        W82254  44.457  26.691   1.815
15714W        W82255   9.222  28.213  14.505
15715W        W82256  31.138   1.500  13.033
15716W        W82257  19.185  31.756   2.371
15717W        W82258  22.327  15.784   3.312
15718W        W82259   5.905  16.502  14.801
15719W        W82260  36.605   5.913   0.503
15720W        W82261   1.005  23.005  13.025
15721W        W82262  10.212   4.246  13.953
15722W        W82263  44.797  42.491   3.296
15723W        W82264  36.888  25.207  13.774
15724W        W82265   3.316   9.814   2.897
15725W        W82266  21.206  12.892  14.376
15726W        W82267  27.825  25.116  14.522
15727W        W82268   4.253   9.124  11.299
15728W        W82269  32.114  13.746   0.704
15729W        W82270  37.595   4.039  12.827
15730W        W82271   0.736   8.206   3.630
15731W        W82272  25.007   4.878  13.067
15732W        W82273  24.285  18.005  14.445
15733W        W82274   2.789  37.495   1.831
15734W        W82275  38.960  40.781  12.950
15735W        W82276  36.965   5.504   1.942
15736W        W82277  14.748  37.654  10.224
15737W        W82278  35.384  28.964   3.630
15738W        W82279  38.865  21.350  12.541
15739W        W82280  28.485  39.863  12.460
15740W        W82281   8.982   1.931  11.618
15741W        W82282   8.326  18.619   0.463
15742W        W82283  38.148  30.100   2.397
15743W        W82284  29.646  14.187   4.564
15744W        W82285  10.359  43.344  10.402
15745W        W82286  38.497  20.526  12.558
15746W        W82287   3.537  36.318   2.661
15747W        W82288  37.861  25.125  10.742
15748W        W82289  40.438  22.139  10.591
15749W        W82290  26.985  19.106   1.920
15750W        W82291  37.816  44.080   4.935
15751W        W82292  31.335  33.622  10.709
15752W        W82293   5.361  40.393   0.818
15753W        W82294  26.969  22.093  10.641
15754W        W82295  12.690  14.489   2.659
15755W        W82296  23.733  28.964   2.176
15756W        W82297   3.081  34.426   0.245
15757W        W82298  16.357  16.130   2.238
15758W        W82299  35.471  21.763  11.683
15759W        W82300   6.182  27.095  10.721
15760W        W82301   7.087  31.441  11.045
15761W        W82302  22.916  33.364   1.836
15762W        W82303  36.151   5.301  12.488
15763W        W82304  27.635  21.105   0.845
15764W        W82305  35.964  17.711   3.598
15765W        W82306  25.425  30.851   1.203
15766W        W82307  22.056  42.564  12.101
15767W        W82308  38.786  21.675   3.179
15768W        W82309  36.115  12.177   0.864
15769W        W82310  22.960   1.308   2.444
15770W        W82311  44.742  18.263   0.162
15771W        W82312  20.662  26.263  12.257
15772W        W82313  18.587  35.588   1.248
15773W        W82314  25.573  22.990  14.812
15774W        W82315  22.335  30.180   3.510
15775W        W82316  12.228  44.356   2.643
15776W        W82317  25.790  40.431   2.357
15777W        W82318  28.888   0.918   3.552
15778W        W82319   0.287   9.095   4.540
15779W        W82320  12.131  38.013  13.314
15780W        W82321  18.296  12.662  12.335
15781W        W82322  25.058   6.662  13.077
15782W        W82323  11.702  35.880  14.030
15783W        W82324  26.392  22.744  14.415
15784W        W82325  38.372   8.450   4.078
15785W        W82326  23.575  24.360   2.621
15786W        W82327  10.658  24.987   2.170
15787W        W82328   7.099  37.930  11.568
15788W        W82329  16.093  11.406  10.581
15789W        W82330  33.546  34.077  14.259
15790W        W82331  12.312   1.600  11.938
15791W        W82332  23.915  44.714   1.975
15792W        W82333  30.971  38.181   3.621
15793W        W82334   4.952  33.730  12.879
15794W        W82335  31.202  40.425  13.419
15795W        W82336  41.793  18.178  14.403
15796W        W82337  44.480  28.857  10.909
15797W        W82338  13.090  43.464  12.862
15798W        W82339   4.034  43.521   0.717
15799W        W82340   9.537  43.150   5.075
15800W        W82341  42.093  24.515   4.525
15801W        W82342  16.806  13.713  13.810
15802W        W82343  25.538  26.987   2.938
15803W        W82344  30.047  10.011   4.619
15804W        W82345  40.353  23.452   0.433
15805W        W82346  28.154   0.479  11.531
15806W        W82347  14.341  23.036  12.508
15807W        W82348   1.781  42.429   0.269
15808W        W82349  42.399  20.793   0.833
15809W        W82350  40.701  32.932  12.787
15810W        W82351  10.985  10.254   3.605
15811W        W82352  17.336   5.929   4.522
15812W        W82353  31.954   9.737   4.064
15813W        W82354  12.396  44.287   3.365
15814W        W82355  23.626  32.344  11.919
15815W        W82356  15.858  28.547   1.824
15816W        W82357  19.325   5.388   5.522
15817W        W82358   1.250  24.759  13.388
15818W        W82359  13.630  22.431  14.279
15819W        W82360  20.946   4.699   3.233
15820W        W82361  16.102   9.496  14.905
15821W        W82362  29.532  15.631   2.102
15822W        W82363  43.757  22.697  12.975
15823W        W82364  34.236  38.164   4.696
15824W        W82365  22.612  26.547   0.046
15825W        W82366  37.440   5.457  11.535
15826W        W82367  13.576  37.687   4.079
15827W        W82368   0.029  14.972   1.493
15828W        W82369  44.726   6.091   0.448
15829W        W82370   8.896  20.575   0.254
15830W        W82371  38.386  43.208   1.219
15831W        W82372   5.954   6.692   0.478
15832W        W82373  19.331  42.251  12.460
15833W        W82374  20.711  42.445  14.875
15834W        W82375  16.850  38.630   4.014
15835W        W82376  23.533  40.088   3.774
15836W        W82377   5.568  32.542  10.953
15837W        W82378  30.496  21.112  13.941
15838W        W82379  23.112  29.375   2.344
15839W        W82380  22.059  15.332   3.342
15840W        W82381  11.638  26.773   4.207
15841W        W82382  21.505  25.551  14.443
15842W        W82383   2.356   5.415   2.318
15843W        W82384  40.059  31.382   3.641
15844W        W82385  22.824  38.904  12.944
15845W        W82386  38.527   9.845  13.945
15846W        W82387  31.851  12.980  12.109
15847W        W82388  36.847  33.531   0.054
15848W        W82389  28.229  43.908  14.297
15849W        W82390  28.662  18.063   2.652
15850W        W82391   8.878  19.719   2.909
15851W        W82392  24.420  33.939  11.389
15852W        W82393   9.560  25.754  11.621
15853W        W82394  27.538  43.192   2.335
15854W        W82395  20.593  22.719  11.556
15855W        W82396  22.134  10.837  10.687
15856W        W82397  15.657   4.367  12.868
15857W        W82398  15.473   7.348   4.124
15858W        W82399  24.490   3.248  11.153
15859W        W82400   9.831  26.540  14.925
15860W        W82401  34.877   6.790  14.564
15861W        W82402  35.940  40.806   3.592
15862W        W82403  20.718  35.098   2.855
15863W        W82404  20.565  19.661  14.206
15864W        W82405  39.056   5.805   4.207
15865W        W82406   2.682  22.188  12.117
15866W        W82407  14.520  35.430  11.069
15867W        W82408   3.660  43.678   0.342
15868W        W82409  19.040   2.671   4.544
15869W        W82410   3.697  39.515   1.367
15870W        W82411  43.490  36.019   1.272
15871W        W82412  28.706  19.739   3.279
15872W        W82413  30.934  12.685  12.452
15873W        W82414  43.994  19.573  13.123
15874W        W82415  16.393  28.675  12.113
15875W        W82416  19.400  35.207  13.897
15876W        W82417  29.199  32.136   4.618
15877W        W82418   0.405  35.649   4.276
15878W        W82419   6.684   9.999   1.842
15879W        W82420   0.830  30.450  12.499
15880W        W82421   7.649   1.633  13.418
15881W        W82422  29.804  40.887  13.294
15882W        W82423  44.527  31.671   0.185
15883W        W82424  22.506  18.911  12.597
15884W        W82425  27.659  25.501   1.957
15885W        W82426  44.455  16.866  14.741
15886W        W82427  11.676  31.414   2.438
15887W        W82428  33.939   0.546  13.082
15888W        W82429   7.840  41.592  14.207
15889W        W82430  42.513  27.205   1.799
15890W        W82431   3.082  37.163  13.881
15891W        W82432  21.968  17.881   2.301
15892W        W82433  33.098  27.927  11.244
15893W        W82434   0.124  34.050  11.093
15894W        W82435  26.916  32.269  10.204
15895W        W82436   2.552  24.174   3.453
15896W        W82437  14.928  24.928   2.940
15897W        W82438  31.495  43.389  11.815
15898W        W82439  44.500  29.884  12.182
15899W        W82440  38.141  32.668  13.169
15900W        W82441  19.359  13.115   2.419
15901W        W82442   7.239  34.578  13.830
15902W        W82443  35.079   7.765  14.583
15903W        W82444  24.222  33.480  14.365
15904W        W82445  32.064   9.465   2.304
15905W        W82446  25.272  34.561   3.490
15906W        W82447  36.722   0.563  14.946
15907W        W82448   2.161  29.528  10.771
15908W        W82449   5.459  11.262  10.475
15909W        W82450  13.897  16.108   2.293
15910W        W82451  22.547   9.698  11.138
15911W        W82452  29.897  28.954  12.675
15912W        W82453  30.983  32.661   2.549
15913W        W82454   7.995   2.495  11.940
15914W        W82455  15.216  21.407  10.843
15915W        W82456  25.029   6.779   2.155
15916W        W82457  25.117  41.525  12.044
15917W        W82458  15.290  41.533   4.432
15918W        W82459   6.917  13.924  14.284
15919W        W82460  36.481  32.762   4.010
15920W        W82461   3.245  43.636   4.150
15921W        W82462  11.610  20.696   1.755
15922W        W82463   2.696  29.374  14.515
15923W        W82464  33.067  12.189   5.091
15924W        W82465  17.568  21.512   0.798
15925W        W82466  20.179  22.711  14.032
15926W        W82467  44.475  21.151  11.942
15927W        W82468   2.922   5.576  14.803
15928W        W82469  15.752  36.815   2.897
15929W        W82470  22.528  13.461   2.607
15930W        W82471   2.686  34.908  12.503
15931W        W82472  16.828  35.057  10.444
15932W        W82473  31.588  41.028  14.045
15933W        W82474  30.903  41.125   3.257
15934W        W82475   5.890  20.756  13.821
15935W        W82476  37.550  12.264   3.328
15936W        W82477  38.179  22.809   2.727
15937W        W82478  10.643   5.802  10.482
15938W        W82479  20.013  38.850   1.420
15939W        W82480  22.631   3.048   3.299
15940W        W82481  42.324   6.586   1.109
15941W        W82482  44.012  33.895  13.925
15942W        W82483  14.669  34.697  12.037
15943W        W82484   3.718  24.207   2.002
15944W        W82485   6.416  43.308   3.837
15945W        W82486   7.963  44.199  12.233
15946W        W82487  41.382  38.976  12.146
15947W        W82488   0.500  20.545   3.369
15948W        W82489  37.306  29.109  14.988
15949W        W82490   0.983  29.991   0.822
15950W        W82491   6.176  34.546   4.824
15951W        W82492  21.098  20.395   2.308
15952W        W82493  32.684  11.905   0.690
15953W        W82494  34.597  33.409  14.401
15954W        W82495  34.073   1.502   9.806
15955W        W82496  37.374  30.326   0.978
15956W        W82497  10.050  33.956  14.952
15957W        W82498  35.393  44.633   1.228
15958W        W82499  31.017  40.872  11.559
15959W        W82500   9.772  30.299   0.324
15960W        W82501  31.886   0.594   5.021
15961W        W82502  37.295  37.508  12.935
15962W        W82503  37.272  13.468  13.313
15963W        W82504  35.277  30.728  11.197
15964W        W82505   9.821   0.468   1.483
15965W        W82506  25.894  38.873  14.992
15966W        W82507  26.553  32.068  11.376
15967W        W82508  25.142  21.191  13.924
15968W        W82509  22.071  37.503   0.032
15969W        W82510   2.222  31.917  10.962
15970W        W82511  29.147  35.239   3.089
15971W        W82512  15.518  41.849   2.191
15972W        W82513  18.492  31.664  13.797
15973W        W82514  39.354  43.207  11.873
15974W        W82515  38.831  25.276   1.831
15975W        W82516  31.507  28.958   4.631
15976W        W82517   7.779  24.793  12.906
15977W        W82518  19.066  24.657   3.741
15978W        W82519  44.056  42.997  12.533
15979W        W82520  27.559  44.223  12.596
15980W        W82521  42.938  25.012   2.904
15981W        W82522  15.825  43.726  14.026
15982W        W82523  38.231   7.890  12.043
15983W        W82524  12.661  15.675  13.845
15984W        W82525   9.642  35.805   2.762
15985W        W82526  15.349   2.138   4.158
15986W        W82527   9.119  16.042   1.211
15987W        W82528  30.373   7.266   3.587
15988W        W82529  41.511   2.963   1.302
15989W        W82530  28.622  34.545  14.348
15990W        W82531  24.226  25.159  14.036
15991W        W82532  39.129  38.627   1.336
15992W        W82533   5.817  14.246  10.382
15993W        W82534   5.512  33.251   0.765
15994W        W82535  25.018  28.514   4.653
15995W        W82536  22.251  13.785   2.953
15996W        W82537  44.517  10.903  13.354
15997W        W82538  21.649  11.583   3.772
15998W        W82539  33.964  25.341   2.808
15999W        W82540  25.080   2.333   4.430
16000W        W82541  20.534  37.415   2.821
16001W        W82542  13.672  25.655   3.328
16002W        W82543  38.668  11.719  14.084
16003W        W82544   6.479  36.663   1.790
16004W        W82545   4.468   6.760   1.808
16005W        W82546   1.379  29.317   0.390
16006W        W82547  32.108  25.531   0.223
16007W        W82548   1.690  17.780  12.841
16008W        W82549  26.913   6.656   0.541
16009W        W82550  11.789  20.431  12.960
16010W        W82551  37.158  14.802  11.791
16011W        W82552  20.597  26.785   3.791
16012W        W82553  42.806  16.751   0.248
16013W        W82554   0.032  18.577  10.763
16014W        W82555  44.150  32.569   4.180
16015W        W82556  15.999   0.531  14.279
16016W        W82557  33.986  36.482   3.481
16017W        W82558   9.287   8.908  11.754
16018W        W82559  30.059   6.306   2.657
16019W        W82560  35.092  33.927   3.410
16020W        W82561   2.278  39.342   1.242
16021W        W82562  37.380   4.612  11.869
16022W        W82563  39.121  22.119   3.374
16023W        W82564   5.976  18.231  13.647
16024W        W82565  31.072  36.055  10.659
16025W        W82566   7.681   3.320  10.910
16026W        W82567  17.269  13.690  12.768
16027W        W82568  16.991  32.055  14.835
16028W        W82569  32.062  38.855   0.462
16029W        W82570   5.263  44.363  10.697
16030W        W82571  41.317   0.865  14.646
16031W        W82572  28.483   5.256   0.871
16032W        W82573  10.293   6.758   2.969
16033W        W82574  34.347  41.609   3.701
16034W        W82575  32.636  24.975  14.690
16035W        W82576  22.661  33.177   0.325
16036W        W82577  42.298  27.919  13.372
16037W        W82578   9.894  40.842  14.388
16038W        W82579   5.852  41.746   9.748
16039W        W82580   8.130   5.333  10.725
16040W        W82581  25.730   7.751   3.418
16041W        W82582  30.031  26.320  12.081
16042W        W82583  29.904  11.113  12.476
16043W        W82584   7.765  28.376  11.638
16044W        W82585  20.368  29.006  10.712
16045W        W82586   8.908  27.159  12.147
16046W        W82587   1.902  31.820   1.268
16047W        W82588  42.336  21.820  11.940
16048W        W82589  38.796  11.857  12.962
16049W        W82590  44.144  24.182   0.437
16050W        W82591  14.680  41.494  14.443
16051W        W82592   4.861   4.750   3.582
16052W        W82593   4.987  25.139   3.077
16053W        W82594  39.549  13.550   2.098
16054W        W82595  11.343   6.392  12.856
16055W        W82596   5.197  28.050   1.447
16056W        W82597   8.634  10.407  12.063
16057W        W82598  11.901  36.745   3.578
16058W        W82599  23.836  35.442  13.276
16059W        W82600   7.166  12.104  13.118
16060W        W82601   6.644  37.820   3.786
16061W        W82602  28.961   5.415   3.159
16062W        W82603  43.772  32.606  12.415
16063W        W82604  35.400   9.830   2.781
16064W        W82605   5.581  17.678  14.001
16065W        W82606  42.017  39.963  11.357
16066W        W82607  11.382  26.585   2.710
16067W        W82608  23.016  15.605  10.642
16068W        W82609  37.830  12.676   2.649
16069W        W82610   9.952  31.134   4.211
16070W        W82611   4.733   2.336   0.498
16071W        W82612  27.027  23.672  13.807
16072W        W82613  14.316  23.005  11.082
16073W        W82614  40.283  33.017  14.873
16074W        W82615   5.685  31.600   0.487
16075W        W82616  41.101  25.129  13.898
16076W        W82617  34.856  20.286  13.541
16077W        W82618  10.378   2.839  12.436
16078W        W82619  33.847  37.612  10.815
16079W        W82620  31.411  15.267  14.234
16080W        W82621  40.746  30.963  13.441
16081W        W82622  18.032  43.236  13.500
16082W        W82623   0.673  12.343   1.009
16083W        W82624  13.205  39.441   1.885
16084W        W82625  26.572  16.060   4.551
16085W        W82626  39.269   6.754  12.961
16086W        W82627  39.296  21.882  12.590
16087W        W82628  34.844  38.514  11.984
16088W        W82629  21.109  31.483  11.469
16089W        W82630   0.516  23.740   1.372
16090W        W82631  44.697  29.673  10.934
16091W        W82632  12.343  26.949   3.296
16092W        W82633   4.587  32.463   5.013
16093W        W82634   9.980  20.618   3.679
16094W        W82635  30.449   6.561   0.359
16095W        W82636  34.547  11.825   4.943
16096W        W82637  34.503  12.284   2.263
16097W        W82638  15.126  19.660  14.359
16098W        W82639   1.167  18.460  12.054
16099W        W82640  27.018  14.080   0.926
16100W        W82641  39.091   9.437  11.668
16101W        W82642   5.875  26.895   4.348
16102W        W82643   3.339  39.040  13.409
16103W        W82644  10.247  30.963   2.398
16104W        W82645   2.349  25.315   0.910
16105W        W82646  20.611  33.226  13.496
16106W        W82647   3.112  35.054   9.879
16107W        W82648  13.379  34.856  10.724
16108W        W82649  25.057  19.064   2.014
16109W        W82650   6.996  41.102  11.256
16110W        W82651  41.737  34.036  12.084
16111W        W82652  41.299   6.709  12.418
16112W        W82653  31.083  24.884   1.695
16113W        W82654  28.486  28.140  14.515
16114W        W82655  10.636  15.726  14.380
16115W        W82656   4.896   7.927   1.225
16116W        W82657  11.813  18.651   0.772
16117W        W82658  40.027  12.600   4.497
16118W        W82659  39.455  38.545   2.792
16119W        W82660  33.428   7.327  13.568
16120W        W82661  20.227  26.544   1.125
16121W        W82662  16.695  15.865  14.953
16122W        W82663  36.096  34.536   0.992
16123W        W82664  21.745  28.911   4.316
16124W        W82665  32.226  37.868   2.304
16125W        W82666  19.337  19.544   4.535
16126W        W82667  27.555  37.799  13.559
16127W        W82668   0.665  10.731  13.865
16128W        W82669  41.120   4.773   3.178
16129W        W82670  25.917   0.464  12.471
16130W        W82671  31.357   9.118  14.491
16131W        W82672  25.063  35.868  14.354
16132W        W82673  25.231  25.065  11.239
16133W        W82674  28.083  36.561   1.227
16134W        W82675  18.960  18.554   4.147
16135W        W82676   7.885   9.273   2.724
16136W        W82677   2.249  37.463  10.473
16137W        W82678  13.156  14.822   4.803
16138W        W82679  40.557   1.759  12.130
16139W        W82680  13.412  34.006   2.711
16140W        W82681  27.526  18.057   3.071
16141W        W82682  23.716  38.516   2.619
16142W        W82683  34.160   7.810  14.538
16143W        W82684   3.610   3.360  12.609
16144W        W82685  26.863  24.161  13.882
16145W        W82686   1.020  30.512  11.122
16146W        W82687  13.669  21.026   0.643
16147W        W82688  37.960  15.557   4.530
16148W        W82689  20.599  15.340  11.832
16149W        W82690   2.920  28.090   2.128
16150W        W82691  34.366  24.660   0.423
16151W        W82692  39.045  36.481  13.497
16152W        W82693  10.678  36.428  10.788
16153W        W82694  31.890   7.174  10.409
16154W        W82695   0.253  20.628   2.426
16155W        W82696  26.110  33.188   3.374
16156W        W82697  32.177   7.513  14.920
16157W        W82698  36.341   7.170  10.282
16158W        W82699  26.610  33.980  11.470
16159W        W82700  35.618   2.761  13.904
16160W        W82701  32.882  29.063   3.684
16161W        W82702  14.151  42.046  12.133
16162W        W82703  30.501  13.017  11.143
16163W        W82704  30.654  28.406  10.626
16164W        W82705  32.211  35.537  12.338
16165W        W82706  26.185   1.626   2.376
16166W        W82707  19.284  17.236  13.203
16167W        W82708  11.336   9.357   4.519
16168W        W82709  27.135  26.101   3.657
16169W        W82710  27.526  29.492   4.023
16170W        W82711  12.750  39.344   2.166
16171W        W82712  26.203  18.720   1.773
16172W        W82713  19.052  25.577   2.719
16173W        W82714  17.086  35.541  12.113
16174W        W82715  35.035  12.942   4.666
16175W        W82716  12.580  26.707  10.682
16176W        W82717  42.941  35.496   3.575
16177W        W82718  33.117  18.872  10.700
16178W        W82719  19.281   6.594   1.413
16179W        W82720  25.381  16.678   4.720
16180W        W82721  18.264  27.008   1.952
16181W        W82722  38.418  31.534  13.530
16182W        W82723  27.145   4.991   3.657
16183W        W82724   5.326  14.577  12.822
16184W        W82725  17.378  24.999   0.070
16185W        W82726   3.915  11.813   4.318
16186W        W82727  34.448   0.853   5.221
16187W        W82728  32.249  20.896  10.094
16188W        W82729  43.452  17.124   0.484
16189W        W82730  15.615   4.239   2.274
16190W        W82731  11.119  22.321  11.174
16191W        W82732  21.140  43.716   4.443
16192W        W82733   5.749  14.664  14.624
16193W        W82734  39.922   4.886  14.025
16194W        W82735  16.655  27.932  13.049
16195W        W82736  28.280  34.589  11.181
16196W        W82737  42.537  13.916  12.336
16197W        W82738  26.410  16.867  10.776
16198W        W82739  44.461   3.175  11.507
16199W        W82740  23.185  12.198   1.296
16200W        W82741  26.924  18.661   3.258
16201W        W82742  21.294  13.416   1.822
16202W        W82743  39.900  23.142  12.516
16203W        W82744  40.829  35.421   2.957
16204W        W82745  34.885  20.249  10.915
16205W        W82746  29.874   5.361  11.225
16206W        W82747  19.352  26.243   3.905
16207W        W82748  37.093  30.532   4.159
16208W        W82749  34.617  42.561   1.874
16209W        W82750  40.205  32.443  11.561
16210W        W82751  15.216   0.547  11.430
16211W        W82752   2.405  36.988  10.732
16212W        W82753   3.824   4.607  13.345
16213W        W82754  30.404  33.361  11.725
16214W        W82755   1.834  15.834   1.607
16215W        W82756  27.595  29.411   1.038
16216W        W82757  29.041  33.497   0.225
16217W        W82758   9.501  35.525  12.459
16218W        W82759  37.980  18.523  11.873
16219W        W82760  31.806  32.559  13.840
16220W        W82761  29.584   1.230   0.943
16221W        W82762  32.915  18.072   1.325
16222W        W82763  36.612   1.991   1.812
16223W        W82764   9.502  12.781  11.555
16224W        W82765   6.630   7.682  14.781
16225W        W82766  41.312  26.883   3.772
16226W        W82767  38.981  16.256   0.173
16227W        W82768  20.774  35.042  13.887
16228W        W82769  37.371  40.814   0.904
16229W        W82770  31.575  16.719  10.440
16230W        W82771  19.087  12.693   0.761
16231W        W82772  31.926   5.482   4.108
16232W        W82773  28.434   7.414   1.439
16233W        W82774   7.480  10.472  12.360
16234W        W82775  37.154  14.230   2.731
16235W        W82776  10.670   3.399  13.616
16236W        W82777   2.289  19.526   0.511
16237W        W82778  29.899  32.186  10.634
16238W        W82779   3.433  41.298   0.247
16239W        W82780  21.084  17.583  10.960
16240W        W82781   5.455   6.929   2.596
16241W        W82782  41.544   6.689  13.526
16242W        W82783  21.169   5.247  12.104
16243W        W82784  35.562  28.503   4.851
16244W        W82785  40.790  21.697  11.966
16245W        W82786  30.160   1.257   3.391
16246W        W82787   5.650  11.202   0.037
16247W        W82788  16.293  14.734  14.521
16248W        W82789  30.780  12.588   4.053
16249W        W82790  12.842  29.249  11.128
16250W        W82791  41.482  30.470  14.059
16251W        W82792   1.273   5.728   3.724
16252W        W82793  40.342   0.825  12.586
16253W        W82794  28.150  24.048   3.873
16254W        W82795  33.084  32.501  13.219
16255W        W82796   9.201  12.712  11.155
16256W        W82797   4.781  33.108   4.375
16257W        W82798  27.126  40.207   0.817
16258W        W82799  27.641  13.143  12.223
16259W        W82800   0.496  38.908  11.455
16260W        W82801  26.988  15.384  14.080
16261W        W82802  38.827   2.765   2.253
16262W        W82803  29.854  15.459  10.536
16263W        W82804  13.194  26.058  11.884
16264W        W82805  19.242   2.281   1.447
16265W        W82806  16.983   6.622   3.364
16266W        W82807  18.015  25.782  11.129
16267W        W82808  14.101  31.365   2.182
16268W        W82809  10.361  20.200  14.750
16269W        W82810  25.515  31.355   1.302
16270W        W82811  28.947  17.650   2.800
16271W        W82812  40.753   5.727   2.864
16272W        W82813   9.581  25.403  12.447
16273W        W82814   1.869  20.325   0.781
16274W        W82815  25.176  28.501  12.021
16275W        W82816   1.463  36.407   2.070
16276W        W82817  31.125  11.860  13.899
16277W        W82818  15.281   8.276   1.834
16278W        W82819  11.132   8.210  10.401
16279W        W82820  40.996  18.698   0.455
16280W        W82821  41.826  25.513   1.702
16281W        W82822  15.708  40.261  14.041
16282W        W82823  38.325   2.785   2.107
16283W        W82824  44.873  23.391  14.874
16284W        W82825  19.745   7.380   4.204
16285W        W82826  20.977  17.562  14.046
16286W        W82827  25.274  41.514   0.404
16287W        W82828  33.501  42.299  12.907
16288W        W82829  19.233  14.914   3.674
16289W        W82830   7.273   8.107   1.748
16290W        W82831  10.892  15.124  10.585
16291W        W82832  27.663  31.492   2.032
16292W        W82833   6.379   3.316   5.156
16293W        W82834  21.791  27.025   3.674
16294W        W82835   0.447   5.444   1.233
16295W        W82836  23.473  35.094  12.459
16296W        W82837  19.258  31.885  14.504
16297W        W82838   9.556  44.895   0.256
16298W        W82839  31.098  33.505  13.781
16299W        W82840  38.929  14.412   3.640
16300W        W82841  26.581   3.473  10.817
16301W        W82842  34.334  27.702  14.024
16302W        W82843   6.608  29.567  13.887
16303W        W82844   9.392  34.556   3.783
16304W        W82845  16.117  24.499   3.904
16305W        W82846  40.885   6.017   4.707
16306W        W82847   7.018   1.075  13.865
16307W        W82848  10.066  10.512   1.588
16308W        W82849   1.723  37.565  12.675
16309W        W82850  34.366  16.100   2.701
16310W        W82851  18.841   8.192  11.791
16311W        W82852   2.410  24.212  12.961
16312W        W82853  19.811  15.537  12.202
16313W        W82854  31.124  11.878  11.943
16314W        W82855  39.343  22.756  11.603
16315W        W82856   0.264  33.080  13.403
16316W        W82857  40.208  19.058   3.765
16317W        W82858  16.793  44.193   4.735
16318W        W82859   7.640  33.914   1.438
16319W        W82860  43.459   4.766  10.825
16320W        W82861  14.157   9.868   0.498
16321W        W82862  14.515  14.038  12.602
16322W        W82863   8.281  14.790   3.904
16323W        W82864  30.128  26.830  11.966
16324W        W82865  38.452  31.944   0.811
16325W        W82866  24.583  31.917  13.062
16326W        W82867  16.566  38.791   3.612
16327W        W82868   7.171  25.591   0.204
16328W        W82869  18.141   3.905  14.985
16329W        W82870  15.971  24.838   5.262
16330W        W82871   7.289  35.973  13.090
16331W        W82872  35.896  30.046   1.575
16332W        W82873   2.440  14.558   3.278
16333W        W82874  37.071   7.792  13.941
16334W        W82875  29.654   2.047   2.574
16335W        W82876   7.747  36.365  13.852
16336W        W82877  16.500   3.639  10.627
16337W        W82878  14.695   2.248   2.196
16338W        W82879  27.976  38.616   4.893
16339W        W82880  34.746  13.871  11.659
16340W        W82881  14.496  31.496  11.677
16341W        W82882  25.297  10.239   2.751
16342W        W82883  43.229  18.152  12.518
16343W        W82884   1.041   2.769   1.644
16344W        W82885  22.162   0.955   4.966
16345W        W82886  26.511  42.495   0.916
16346W        W82887   9.029  12.865   2.332
16347W        W82888  31.917  15.893   1.304
16348W        W82889  24.189  28.452  11.184
16349W        W82890  32.975  29.629   1.449
16350W        W82891  10.859  14.085  12.490
16351W        W82892   5.170  15.025  12.989
16352W        W82893  18.293   9.796   4.600
16353W        W82894  25.278  26.504  14.530
16354W        W82895  32.377  38.464   4.893
16355W        W82896  18.211   0.749  14.492
16356W        W82897  28.550  40.641  11.942
16357W        W82898  13.242  25.360   2.136
16358W        W82899   2.065  20.318   4.413
16359W        W82900  32.172  25.499   0.752
16360W        W82901  40.008  43.877  11.829
16361W        W82902  27.557   9.159   0.789
16362W        W82903   0.422  19.307   2.215
16363W        W82904  20.474   4.423   3.237
16364W        W82905   9.757  44.537  14.338
16365W        W82906  23.000  19.553   3.546
16366W        W82907   7.135  27.552   4.633
16367W        W82908  35.603  12.752  12.564
16368W        W82909  44.976  24.690  12.906
16369W        W82910  33.464  10.578   0.893
16370W        W82911  30.387  39.340  13.938
16371W        W82912  39.862  19.135   1.730
16372W        W82913  37.807  29.625   4.124
16373W        W82914   3.343  26.340   3.531
16374W        W82915  20.021  20.746  12.218
16375W        W82916   8.416   4.760  12.979
16376W        W82917  14.379   3.815  12.924
16377W        W82918  35.363  28.665  11.676
16378W        W82919  16.356   6.372  13.452
16379W        W82920  14.936  11.273  13.025
16380W        W82921  33.136  34.026   0.230
16381W        W82922  24.554   4.871   1.686
16382W        W82923  29.634  41.580  14.450
16383W        W82924  31.347  36.257   1.801
16384W        W82925  41.021  44.796   1.809
16385W        W82926   6.800  18.102   2.885
16386W        W82927  44.430   8.134  12.819
16387W        W82928  28.431   1.059   3.729
16388W        W82929  28.148   8.694   4.608
16389W        W82930  37.034  41.775  10.621
16390W        W82931  32.420   3.314   0.286
16391W        W82932  12.831   0.294  13.192
16392W        W82933   4.270   6.850  14.613
16393W        W82934  14.321   5.657   3.713
16394W        W82935  12.932  30.562  11.153
16395W        W82936  28.422  42.897   3.830
16396W        W82937  20.519   9.870  11.210
16397W        W82938  33.570  26.474  12.394
16398W        W82939  43.302  36.056   4.183
16399W        W82940  35.842  44.536   3.640
16400W        W82941   7.289  40.756   1.396
16401W        W82942  12.234  39.778  13.989
16402W        W82943  44.216  21.730   4.942
16403W        W82944  41.335  13.032   2.241
16404W        W82945  12.804   5.979  11.640
16405W        W82946  42.879   1.994   0.903
16406W        W82947  36.885  41.048   4.568
16407W        W82948   4.443   2.770   0.331
16408W        W82949   7.812   0.069  13.025
16409W        W82950  36.670  31.842  11.237
16410W        W82951  34.824  30.078   2.899
16411W        W82952  26.950  19.812   5.090
16412W        W82953  14.081  39.265  11.589
16413W        W82954   2.746   1.368   3.778
16414W        W82955   0.772   6.353   5.126
16415W        W82956  15.608  12.862  13.357
16416W        W82957   8.711   8.206  10.650
16417W        W82958  37.574  20.220  12.189
16418W        W82959  35.144  37.067   3.156
16419W        W82960  31.672   4.804   0.819
16420W        W82961  28.594  28.680  13.096
16421W        W82962   9.805  28.987  10.615
16422W        W82963  27.110  27.576   0.251
16423W        W82964   8.613   1.563  11.574
16424W        W82965  34.982  23.962   1.692
16425W        W82966  14.745  13.145  10.973
16426W        W82967  34.475  14.596   4.388
16427W        W82968  40.378  37.378   3.120
16428W        W82969  35.715  29.614  14.424
16429W        W82970  39.690  27.610   4.599
16430W        W82971  37.394   8.220  13.850
16431W        W82972  29.311  23.024   4.597
16432W        W82973  28.502  15.691  12.011
16433W        W82974  41.885   7.749  11.183
16434W        W82975   8.685  32.330  11.626
16435W        W82976  34.235  15.095  13.931
16436W        W82977   0.282  15.821   1.299
16437W        W82978  13.780  20.520  12.970
16438W        W82979  29.683  26.182   4.352
16439W        W82980  44.277  36.982   2.698
16440W        W82981  39.914   8.906   3.182
16441W        W82982   9.695  21.906  13.016
16442W        W82983  42.071  44.141  12.406
16443W        W82984   1.901  25.937  12.927
16444W        W82985  37.847  13.793  10.260
16445W        W82986  10.033  14.230   1.040
16446W        W82987  12.888  32.307  12.395
16447W        W82988  20.021   4.736  10.698
16448W        W82989  22.239  22.271  11.400
16449W        W82990  17.300  37.578   4.570
16450W        W82991  19.521  39.802  13.560
16451W        W82992  19.151   8.466   3.326
16452W        W82993  27.610  37.929  11.327
16453W        W82994  34.640  40.535   0.736
16454W        W82995  32.891  10.602  10.659
16455W        W82996  34.352   8.204  14.086
16456W        W82997  33.255  13.412   9.907
16457W        W82998  34.294  43.029   3.694
16458W        W82999  15.515  34.843   0.007
16459W        W83000  18.518  39.761   0.741
16460W        W83001  13.306   8.026   0.832
16461W        W83002  24.252   9.298  11.176
16462W        W83003  13.292  20.137  12.085
16463W        W83004  41.605  28.254   2.623
16464W        W83005  37.545  43.313  13.402
16465W        W83006  44.269  20.948   0.405
16466W        W83007  37.599  32.490  14.420
16467W        W83008  41.956  19.561  12.144
16468W        W83009   1.906  26.675  10.656
16469W        W83010  16.991  10.211  11.930
16470W        W83011  40.593  42.856   3.269
16471W        W83012  35.662  15.744   1.422
16472W        W83013   1.352  43.979   4.193
16473W        W83014  29.902  41.938   0.419
16474W        W83015  13.338   5.218   0.906
16475W        W83016  12.035  33.619  13.459
16476W        W83017  21.073  22.301   4.409
16477W        W83018  11.436  43.729   1.005
16478W        W83019  36.409  38.370  11.903
16479W        W83020  17.542   4.206  13.899
16480W        W83021   5.425   8.632   0.892
16481W        W83022   9.322  27.171   4.893
16482W        W83023  32.211  39.347  11.513
16483W        W83024   5.324  28.232   0.443
16484W        W83025  35.110   5.956   5.451
16485W        W83026  44.385  10.399   5.122
16486W        W83027  40.451  12.204   0.386
16487W        W83028  27.715  25.167   4.761
16488W        W83029  18.323  41.497   4.147
16489W        W83030  27.091  18.788   2.765
16490W        W83031  35.474   9.053  11.624
16491W        W83032  21.008  40.815  12.006
16492W        W83033  44.697  33.116   1.882
16493W        W83034  32.840  40.045  14.039
16494W        W83035   5.927  34.995  10.726
16495W        W83036  38.008  39.281  10.737
16496W        W83037  10.253  39.414  11.802
16497W        W83038   6.409  38.594   4.426
16498W        W83039  26.461  23.237   2.273
16499W        W83040  11.263  29.539  12.612
16500W        W83041  40.337  23.500   3.185
16501W        W83042  38.013  27.058  10.589
16502W        W83043  28.460   6.906  13.003
16503W        W83044   2.761   9.346  14.353
16504W        W83045  24.925  41.321  11.603
16505W        W83046  44.625   6.737  11.177
16506W        W83047  23.204  26.704   3.707
16507W        W83048  27.623  42.520  10.691
16508W        W83049  39.789  12.339   9.861
16509W        W83050  41.412  38.794   0.875
16510W        W83051  14.142  34.603  11.059
16511W        W83052  16.214  12.115  12.185
16512W        W83053  28.709  40.827   1.387
16513W        W83054  16.257  34.424  14.434
16514W        W83055  25.629  18.880   4.071
16515W        W83056   9.068  28.419  11.911
16516W        W83057  26.156  16.815  13.994
16517W        W83058  39.691  37.863  10.547
16518W        W83059   9.694  44.744  11.425
16519W        W83060  39.112  11.585   0.793
16520W        W83061   6.086  33.841   0.590
16521W        W83062  35.374  39.534   1.725
16522W        W83063  39.885  27.694   0.259
16523W        W83064  24.131  26.062   2.582
16524W        W83065  26.970  20.180  11.201
16525W        W83066  23.191   6.722  12.348
16526W        W83067  31.508  35.153   4.650
16527W        W83068   1.613   8.019   3.728
16528W        W83069   9.042  14.118   4.228
16529W        W83070  36.880   9.111   0.428
16530W        W83071   6.356  33.319  14.450
16531W        W83072  15.583  14.815  10.168
16532W        W83073  38.332  28.738   0.753
16533W        W83074  16.020  16.412   9.896
16534W        W83075  30.671  43.255   0.206
16535W        W83076  17.551   3.665  12.994
16536W        W83077  41.532  17.506  13.299
16537W        W83078  10.148   6.459   2.199
16538W        W83079  14.889  23.510   1.341
16539W        W83080  19.480   4.400   0.712
16540W        W83081  13.442  34.567   1.157
16541W        W83082  34.085  27.701   0.273
16542W        W83083  31.369  14.261   1.735
16543W        W83084  24.927  10.220   4.422
16544W        W83085  32.597   9.956   2.237
16545W        W83086   1.271  28.394   4.465
16546W        W83087  25.819  18.300   0.423
16547W        W83088   4.600  13.743   4.552
16548W        W83089  39.825  32.503   1.424
16549W        W83090  34.585   0.805   3.671
16550W        W83091  44.783  37.668  14.032
16551W        W83092   1.841  30.551  14.459
16552W        W83093  40.705  23.489  11.617
16553W        W83094  12.768   0.939   0.389
16554W        W83095   9.445  35.622  11.193
16555W        W83096  40.295  27.625   3.200
16556W        W83097  27.518  33.942  13.970
16557W        W83098  12.753  30.958   5.103
16558W        W83099  39.732  25.949  11.040
16559W        W83100   1.505   2.864   1.797
16560W        W83101  44.119  11.255  12.438
16561W        W83102  31.384  41.962   3.318
16562W        W83103   7.761   0.130   4.355
16563W        W83104  27.253  33.927  12.525
16564W        W83105  40.092  16.120   3.316
16565W        W83106  17.221  32.901  14.268
16566W        W83107  43.932  32.851   3.556
16567W        W83108  29.461  11.839   3.132
16568W        W83109  17.803   9.860   2.244
16569W        W83110   5.258  21.841  13.138
16570W        W83111  33.043   4.192   3.955
16571W        W83112  15.354  33.043   5.249
16572W        W83113  14.486   4.730  14.567
16573W        W83114  32.879  41.101  13.776
16574W        W83115  20.212  29.212   2.481
16575W        W83116  36.938  26.196  11.963
16576W        W83117  28.671   4.369  14.343
16577W        W83118   1.072   6.311  13.582
16578W        W83119  44.499  16.225  10.851
16579W        W83120  23.098   4.506   1.436
16580W        W83121  18.733  43.752  14.076
16581W        W83122  23.735  28.395   1.013
16582W        W83123  42.716  17.303   2.781
16583W        W83124  28.439  30.466  11.126
16584W        W83125  25.102  42.138   1.080
16585W        W83126  23.540   6.378   2.536
16586W        W83127   3.481  10.826  10.703
16587W        W83128  43.927  40.939  12.890
16588W        W83129  15.744   3.958   0.324
16589W        W83130  21.911   9.159   3.162
16590W        W83131   4.846  32.588  13.048
16591W        W83132  23.179   5.824  13.636
16592W        W83133  24.198  34.164   0.452
16593W        W83134  36.400  26.253   2.353
16594W        W83135  24.654  22.293  11.465
16595W        W83136  30.470  21.535   0.988
16596W        W83137  34.425   9.339  11.479
16597W        W83138  14.507  18.624   4.219
16598W        W83139  35.795  13.783  14.304
16599W        W83140  16.824  37.844   1.747
16600W        W83141  21.051  24.172  14.548
16601W        W83142  28.504  18.557  12.595
16602W        W83143  30.712   3.329   4.161
16603W        W83144  25.366  15.586  14.456
16604W        W83145  15.789  34.666  14.240
16605W        W83146   1.222  36.202  13.069
16606W        W83147  13.190  22.813  10.695
16607W        W83148  10.666  17.597   1.922
16608W        W83149  21.676  15.589  13.513
16609W        W83150  36.978  24.630   3.887
16610W        W83151  32.939   0.520   3.757
16611W        W83152  27.493  43.948   1.230
16612W        W83153   7.449  32.673   1.922
16613W        W83154  26.002  21.712  10.534
16614W        W83155  13.621  26.394  13.030
16615W        W83156  42.072   0.325   3.124
16616W        W83157  41.234  33.435   1.012
16617W        W83158  17.302  31.519   1.958
16618W        W83159  19.150  32.430  11.052
16619W        W83160  36.246  32.657  14.279
16620W        W83161  13.104  34.967  12.995
16621W        W83162  16.792  40.804  10.683
16622W        W83163   8.421   3.897   0.449
16623W        W83164  10.213  22.283   4.918
16624W        W83165  12.331  25.692  12.850
16625W        W83166  28.341   6.984   4.177
16626W        W83167  31.036  35.318   1.902
16627W        W83168  18.783  16.455  13.618
16628W        W83169  16.225  13.707   0.022
16629W        W83170  19.575   7.637  14.762
16630W        W83171   1.237  20.617  12.152
16631W        W83172  10.294   3.862   5.048
16632W        W83173  30.525  31.226  14.067
16633W        W83174  38.511   2.829  11.982
16634W        W83175  39.227  16.122  13.494
16635W        W83176  20.562  22.682   3.771
16636W        W83177  12.560  12.075  11.979
16637W        W83178   8.670  16.156  12.477
16638W        W83179  22.671  14.798   3.328
16639W        W83180  44.323  32.618   2.682
16640W        W83181   8.454   9.101  10.568
16641W        W83182  36.734  29.119   0.033
16642W        W83183  17.136  30.777  11.789
16643W        W83184   7.806  24.197  14.059
16644W        W83185  27.038   9.119   0.890
16645W        W83186  44.880  37.168  13.961
16646W        W83187  24.748  38.482   4.190
16647W        W83188  29.563   4.014   2.316
16648W        W83189  26.462  33.052  14.150
16649W        W83190  42.547  17.819  11.710
16650W        W83191  44.324  17.408  14.737
16651W        W83192   7.303   5.570  14.585
16652W        W83193  28.478   1.528   4.679
16653W        W83194  40.983  14.813   1.338
16654W        W83195  40.400  37.790   3.931
16655W        W83196   0.665  27.538  12.387
16656W        W83197  11.767   5.705  14.373
16657W        W83198  18.554  15.838   3.888
16658W        W83199  15.788  19.636  13.909
16659W        W83200  22.037  25.642  12.426
16660W        W83201  14.681   7.077  14.913
16661W        W83202   7.162  18.278   3.702
16662W        W83203   0.868   7.897  11.530
16663W        W83204  14.196  16.850   2.266
16664W        W83205  37.834  13.697   3.779
16665W        W83206  44.996  13.845  12.862
16666W        W83207  10.162  15.735   2.869
16667W        W83208  25.654  33.439   1.390
16668W        W83209  27.690   9.914  14.368
16669W        W83210  16.338  33.939  13.810
16670W        W83211  19.088  29.984   3.126
16671W        W83212  16.569   7.126   1.082
16672W        W83213  16.689  26.603  12.434
16673W        W83214  25.676  35.923   4.163
16674W        W83215  27.651   3.350  13.501
16675W        W83216  37.480  11.307  13.857
16676W        W83217  10.417  14.552  14.778
16677W        W83218   3.683  44.715  11.005
16678W        W83219  27.131   5.307   0.738
16679W        W83220  28.515  44.753   0.713
16680W        W83221  18.539  23.716   0.242
16681W        W83222   3.526  28.165  13.575
16682W        W83223  17.637  11.296   4.287
16683W        W83224  17.711  32.463  12.830
16684W        W83225  21.425  22.609  13.802
16685W        W83226   1.952  24.792   4.126
16686W        W83227  43.025  39.976  13.350
16687W        W83228  40.006   2.444  13.811
16688W        W83229  25.401  27.456  11.529
16689W        W83230  22.292  43.024   3.157
16690W        W83231  43.133  37.354   4.300
16691W        W83232  14.595  40.283   4.569
16692W        W83233  10.658  23.130  12.148
16693W        W83234   4.998  15.295   4.777
16694W        W83235  26.710  23.126  12.593
16695W        W83236  26.413  41.610  11.858
16696W        W83237  27.443   1.693  10.953
16697W        W83238   1.494  23.578   3.881
16698W        W83239   9.603  34.895  14.878
16699W        W83240  15.767  33.031  10.268
16700W        W83241  37.659  10.425   4.066
16701W        W83242  19.762   8.152   3.262
16702W        W83243  40.369  36.942  11.625
16703W        W83244   2.396  18.518  10.773
16704W        W83245   2.481  12.603  12.918
16705W        W83246  43.364  36.846  12.802
16706W        W83247  39.019  34.596   4.043
16707W        W83248   2.843  38.501   2.342
16708W        W83249  36.240   2.460   2.660
16709W        W83250  19.122  25.323   0.757
16710W        W83251  14.158  34.163   3.800
16711W        W83252   0.098  32.350  12.943
16712W        W83253   3.929   1.498  11.985
16713W        W83254  28.074  17.024   3.645
16714W        W83255  14.111   9.881  12.984
16715W        W83256   6.400  29.462   1.776
16716W        W83257  40.768  12.301  12.931
16717W        W83258  25.921  44.812  14.807
16718W        W83259  27.452  19.469   1.251
16719W        W83260  13.639   7.807   3.146
16720W        W83261  25.596  20.319   2.277
16721W        W83262  23.237  24.947  11.399
16722W        W83263  23.630  25.526   1.762
16723W        W83264   1.886  40.038   0.980
16724W        W83265  37.028  12.125  13.508
16725W        W83266  26.147  44.349   1.691
16726W        W83267   0.497  32.042  12.626
16727W        W83268  14.202  39.410  12.838
16728W        W83269   2.742  27.451   3.290
16729W        W83270  38.267   3.468   0.998
16730W        W83271  19.461   4.520  13.469
16731W        W83272   0.519  27.191  13.516
16732W        W83273  34.028   0.726   4.490
16733W        W83274  44.001  17.693  12.416
16734W        W83275  25.425  14.209  14.448
16735W        W83276  10.471  38.773   3.201
16736W        W83277  13.936  28.156  11.136
16737W        W83278  21.216  36.457   4.023
16738W        W83279  31.464  38.061  12.522
16739W        W83280  18.508  40.497  11.197
16740W        W83281  13.403  33.233  13.489
16741W        W83282  28.140  36.484  13.009
16742W        W83283  41.570  14.281   0.831
16743W        W83284  20.052  36.436  11.489
16744W        W83285  10.735   4.610   4.085
16745W        W83286  17.054   5.670  12.358
16746W        W83287   0.938   6.882  11.416
16747W        W83288  20.580  31.631   2.024
16748W        W83289  16.001   5.828   4.674
16749W        W83290  38.496  38.266   4.253
16750W        W83291  42.817  41.020   0.888
16751W        W83292  36.809  16.280   3.480
16752W        W83293  44.325   5.322   3.641
16753W        W83294  26.946  21.800  14.440
16754W        W83295   7.746  12.012   4.005
16755W        W83296  27.858  12.656  14.405
16756W        W83297   8.493   1.169   3.786
16757W        W83298   3.956  41.774  13.368
16758W        W83299  14.817   5.549  12.921
16759W        W83300  43.377  37.920  10.719
16760W        W83301  11.138  36.824   2.775
16761W        W83302   8.276  16.456  11.228
16762W        W83303  27.874  23.655  12.840
16763W        W83304  37.163  41.758   2.624
16764W        W83305  17.692   4.939   0.853
16765W        W83306  32.005   8.643   0.135
16766W        W83307  44.865  23.615  11.994
16767W        W83308   8.813   6.901   1.162
16768W        W83309  20.761  13.180  14.834
16769W        W83310  29.385  18.888  12.066
16770W        W83311  10.227  40.971   4.133
16771W        W83312  15.182  42.020   0.758
16772W        W83313  24.250  17.708   1.725
16773W        W83314   1.747  11.601   4.855
16774W        W83315  40.914   1.403  11.711
16775W        W83316   4.010  25.158  14.762
16776W        W83317  27.466  10.200   1.420
16777W        W83318  38.963   5.897   2.819
16778W        W83319  17.708  27.460   2.081
16779W        W83320  17.381   9.314   3.840
16780W        W83321  19.088   6.343   0.783
16781W        W83322  24.508   1.412   2.196
16782W        W83323   3.862   3.938  11.985
16783W        W83324  15.138  26.835   4.509
16784W        W83325  18.788  36.086  12.978
16785W        W83326  18.437  41.502   1.336
16786W        W83327  36.525  27.451  13.553
16787W        W83328  14.213  11.956   4.541
16788W        W83329  30.328   2.527  11.130
16789W        W83330  28.697  34.859  11.145
16790W        W83331   4.788   6.482   3.208
16791W        W83332  15.093  16.295   0.950
16792W        W83333  34.367  37.285   1.797
16793W        W83334  22.533  12.055   4.554
16794W        W83335  24.500  28.664   3.914
16795W        W83336  22.609   5.468  12.430
16796W        W83337  29.683  13.257  11.548
16797W        W83338   6.784   3.662  11.689
16798W        W83339  28.965   0.958   0.324
16799W        W83340  25.736  20.835   2.193
16800W        W83341  24.715  14.855   1.834
16801W        W83342  32.869   7.767  11.125
16802W        W83343  31.939  16.273  14.418
16803W        W83344  35.589   4.861  12.004
16804W        W83345  22.783  13.786  13.293
16805W        W83346  15.801  23.120  14.829
16806W        W83347  42.828  29.469  11.966
16807W        W83348   7.286  21.016  13.439
16808W        W83349   9.088  15.576   3.701
16809W        W83350  31.270   9.295  12.634
16810W        W83351  25.001  41.824  11.617
16811W        W83352  33.545  35.363   1.498
16812W        W83353  16.273  20.487  14.496
16813W        W83354  37.839  28.738   2.343
16814W        W83355   1.714   1.922  12.015
16815W        W83356  15.641   3.438  12.471
16816W        W83357  17.512  40.605   1.106
16817W        W83358  22.091   8.094  13.737
16818W        W83359  33.955  19.212   1.843
16819W        W83360  28.605   8.440   1.377
16820W        W83361  36.342  31.623   2.899
16821W        W83362  28.061   4.838   0.926
16822W        W83363  31.033  39.425   3.063
16823W        W83364  14.800  26.666  12.122
16824W        W83365  22.225  25.117   2.323
16825W        W83366  42.661   9.638  10.687
16826W        W83367  19.514  28.721  13.347
16827W        W83368  23.094  20.578   4.551
16828W        W83369  20.833   3.277  14.922
16829W        W83370  40.125  39.133  11.349
16830W        W83371  12.700  26.447  13.451
16831W        W83372   6.840   4.879   2.824
16832W        W83373  11.923  21.430   5.148
16833W        W83374  24.164  39.413  10.305
16834W        W83375  28.581  26.450   0.709
16835W        W83376   6.114  24.305   1.890
16836W        W83377  36.147  41.216  13.437
16837W        W83378  41.316   8.887   2.795
16838W        W83379  21.667   9.424  11.903
16839W        W83380  12.179   8.062   1.300
16840W        W83381  31.570   6.291  14.620
16841W        W83382   3.124  14.107  11.917
16842W        W83383   8.903   7.787  13.487
16843W        W83384   7.113  25.992   1.481
16844W        W83385  25.468  24.164   0.463
16845W        W83386  11.109  24.225   1.472
16846W        W83387  28.050  13.576  10.635
16847W        W83388  42.021  42.820   0.452
16848W        W83389  20.180   7.366  10.721
16849W        W83390  20.446   0.634  13.122
16850W        W83391  32.995  39.339  11.758
16851W        W83392  27.566  26.694  13.790
16852W        W83393  30.460  41.732  13.511
16853W        W83394  24.620   6.090   0.896
16854W        W83395  15.558  38.103   2.600
16855W        W83396  43.880  16.411   2.848
16856W        W83397  27.477  13.635  11.431
16857W        W83398  25.593  11.961  13.855
16858W        W83399  24.265  28.482  12.257
16859W        W83400  23.058  28.622  14.052
16860W        W83401  31.925  22.832  11.102
16861W        W83402   7.403  15.533  14.760
16862W        W83403  44.934  44.871   2.384
16863W        W83404  35.887  22.066  10.603
16864W        W83405  37.103   5.835  11.682
16865W        W83406  32.082   6.482  14.455
16866W        W83407  30.857  42.402   1.959
16867W        W83408   5.401  44.229  13.046
16868W        W83409  25.508  14.734  11.853
16869W        W83410  40.468  30.462   4.129
16870W        W83411  11.060   2.728  11.564
16871W        W83412  26.719  27.902   4.628
16872W        W83413  32.019   5.687  13.091
16873W        W83414  17.805  20.228   0.543
16874W        W83415   8.560  11.932  14.413
16875W        W83416  22.687  10.230   5.087
16876W        W83417  13.054  30.343  10.695
16877W        W83418  31.004   7.715   4.660
16878W        W83419  31.419  30.949  11.608
16879W        W83420  41.923  21.061  12.114
16880W        W83421  10.571  36.483  13.823
16881W        W83422  34.323   4.387  11.984
16882W        W83423  42.747  38.886  14.029
16883W        W83424  32.321  20.775  11.952
16884W        W83425  17.345   1.081  14.839
16885W        W83426  42.987  34.820   0.901
16886W        W83427   6.539  25.144  12.554
16887W        W83428   8.081  31.214  14.885
16888W        W83429  12.826  32.043   0.866
16889W        W83430   1.853  37.874  14.451
16890W        W83431  33.816  15.152   2.910
16891W        W83432  44.427  10.855   2.112
16892W        W83433  16.061  39.443  13.889
16893W        W83434   8.352   5.006  13.458
16894W        W83435  17.251   5.460  12.870
16895W        W83436  23.089  23.462   0.299
16896W        W83437   6.372   7.887   1.256
16897W        W83438   2.951   2.329   2.433
16898W        W83439  12.068   7.532   1.244
16899W        W83440   9.773   7.329  12.473
16900W        W83441   1.193   7.807  13.392
16901W        W83442   9.781  40.024   3.253
16902W        W83443  31.527   8.613   3.748
16903W        W83444   2.929  18.074  11.823
16904W        W83445  13.292  31.892  14.315
16905W        W83446   1.524   1.877   5.383
16906W        W83447  10.547  30.984  12.593
16907W        W83448  37.854   1.834   5.092
16908W        W83449  15.796  17.219   5.101
16909W        W83450  31.697  12.405  14.122
16910W        W83451  44.504  26.223   1.599
16911W        W83452  23.717  29.631  11.051
16912W        W83453  15.248   4.807   2.856
16913W        W83454  39.476   9.649  11.933
16914W        W83455   7.723  30.570   2.772
16915W        W83456  29.147   5.946   0.755
16916W        W83457  30.472  31.757   4.132
16917W        W83458  37.057   0.230   1.323
16918W        W83459  43.010  22.674  12.488
16919W        W83460  20.694  13.603  12.373
16920W        W83461  13.733  10.142   0.311
16921W        W83462  44.835  26.943  10.375
16922W        W83463  29.915  16.857   2.017
16923W        W83464  16.519  11.538  11.514
16924W        W83465  26.105  20.494   2.891
16925W        W83466  40.078  36.890   2.886
16926W        W83467  44.566  10.095   1.683
16927W        W83468  28.112   6.021   3.295
16928W        W83469  16.838  23.396  11.371
16929W        W83470  25.962  30.427  12.407
16930W        W83471  27.680  37.363   3.704
16931W        W83472  16.520   9.391   4.116
16932W        W83473   2.198   2.852  11.642
16933W        W83474  37.972  23.520  12.027
16934W        W83475  42.296  30.263  13.760
16935W        W83476  27.515  42.317  14.008
16936W        W83477  15.365  26.082   1.966
16937W        W83478   1.158  33.445  12.985
16938W        W83479  43.703  26.132  12.148
16939W        W83480  24.851  11.775  12.491
16940W        W83481  12.136  42.051   1.310
16941W        W83482  19.611  28.612   4.019
16942W        W83483  30.218  18.810  13.072
16943W        W83484  26.192   7.356  11.217
16944W        W83485   4.219  19.151   0.916
16945W        W83486  23.794  35.962  14.794
16946W        W83487  25.258   3.276   1.176
16947W        W83488  27.577  35.818  14.005
16948W        W83489  20.007  31.068  10.433
16949W        W83490  27.176  36.057  12.428
16950W        W83491  14.217  19.684  12.814
16951W        W83492  30.062  31.134  13.856
16952W        W83493  36.632  40.689  11.421
16953W        W83494  34.396  32.561  14.969
16954W        W83495  37.019  32.645  14.791
16955W        W83496  29.231  33.627  11.632
16956W        W83497  24.658  34.463   0.260
16957W        W83498  37.546   8.726  13.767
16958W        W83499   3.159  19.760  10.898
16959W        W83500  35.886  42.034  13.284
16960W        W83501   4.972  19.865  12.118
16961W        W83502  15.658  22.086   9.902
16962W        W83503  16.202   9.963   2.765
16963W        W83504  18.306  33.484  11.583
16964W        W83505  34.008  28.672  12.624
16965W        W83506  16.293  18.792   1.100
16966W        W83507  39.446  44.493  14.929
16967W        W83508  40.050  35.068   1.740
16968W        W83509  14.036   3.727  13.314
16969W        W83510   9.158  13.680  10.594
16970W        W83511  12.300   3.198   0.270
16971W        W83512  29.407  39.010  11.783
16972W        W83513  19.357  18.548  13.477
16973W        W83514  34.807  34.906   0.854
16974W        W83515  16.454  15.637  12.016
16975W        W83516  44.184  44.104  13.166
16976W        W83517   0.517  39.141  13.059
16977W        W83518  17.191  33.444  14.965
16978W        W83519  27.461  29.140   2.772
16979W        W83520  16.790  28.848   4.094
16980W        W83521  38.106   6.782  12.083
16981W        W83522  24.047  33.929  12.580
16982W        W83523  26.204  32.642  13.957
16983W        W83524   4.839  25.960   1.139
16984W        W83525  27.626   5.336   0.404
16985W        W83526   5.243  31.411  14.062
16986W        W83527  12.347  26.184  10.831
16987W        W83528   8.287  16.040   1.470
16988W        W83529   3.687  36.198   1.619
16989W        W83530   6.108  39.808  11.884
16990W        W83531  27.545  17.981  13.363
16991W        W83532   1.765  38.377   2.366
16992W        W83533  44.067  11.161   4.618
16993W        W83534  17.858  22.493   1.914
16994W        W83535  23.472  32.926   3.352
16995W        W83536  41.104  19.466   3.822
16996W        W83537  12.415  20.199  12.434
16997W        W83538  24.918  27.949   5.202
16998W        W83539  26.455  11.945   2.320
16999W        W83540   1.397  16.369  13.431
17000W        W83541   5.888  15.491  13.790
17001W        W83542  14.609  34.047   0.474
17002W        W83543   8.913  24.411   3.091
17003W        W83544   6.455   2.619   1.905
17004W        W83545  15.232  20.540   2.559
17005W        W83546   1.846  32.653   9.802
17006W        W83547  32.671  25.511  12.778
17007W        W83548  31.453  20.541   2.815
17008W        W83549   5.291   7.165  11.536
17009W        W83550  33.147   2.597   2.277
17010W        W83551   1.463  31.900  14.488
17011W        W83552  34.824   2.990   2.821
17012W        W83553  11.164   3.441  11.054
17013W        W83554  29.236  15.260   3.786
17014W        W83555  23.250  14.288  10.632
17015W        W83556  30.355  39.552   2.785
17016W        W83557  31.986  41.726  11.709
17017W        W83558  24.082   6.371   2.229
17018W        W83559   7.674  20.992   0.507
17019W        W83560  26.318  35.425  10.936
17020W        W83561   4.170  37.433   2.217
17021W        W83562  12.158  19.592  13.932
17022W        W83563  39.016  41.994   0.747
17023W        W83564   8.707  12.557   3.317
17024W        W83565  35.922  16.880   1.893
17025W        W83566  35.430  21.849   0.804
17026W        W83567  23.762  28.657  10.294
17027W        W83568  22.251  14.398   2.247
17028W        W83569  40.194  32.064  12.020
17029W        W83570  30.881  15.969   4.223
17030W        W83571  35.036  13.868  11.240
17031W        W83572  39.637  26.007  12.534
17032W        W83573  23.621  29.335   3.651
17033W        W83574  17.102  35.267   2.803
17034W        W83575  38.213  13.756   9.886
17035W        W83576  28.611  32.961   1.865
17036W        W83577  16.232  30.578   3.700
17037W        W83578  38.399  39.730  13.877
17038W        W83579   6.420  22.637   4.242
17039W        W83580  29.486  30.347   0.274
17040W        W83581   9.981   9.908   0.855
17041W        W83582   9.902  37.864  11.598
17042W        W83583  20.693  27.518  12.963
17043W        W83584  18.252  44.715   2.183
17044W        W83585  28.270   1.956   1.301
17045W        W83586  24.155  26.613   4.913
17046W        W83587  30.096  41.094   2.183
17047W        W83588  10.017  40.401   4.497
17048W        W83589  13.455  43.206  11.593
17049W        W83590   2.841  26.827   0.052
17050W        W83591  36.370  15.770  11.536
17051W        W83592  20.651  32.920  13.057
17052W        W83593  16.961  28.049   4.991
17053W        W83594  33.335   7.237  13.047
17054W        W83595   6.739  24.060   0.744
17055W        W83596   0.964   7.882   2.725
17056W        W83597  43.931  33.870   2.440
17057W        W83598  22.483  25.733  12.206
17058W        W83599  38.664   8.494  14.308
17059W        W83600  43.250  39.520   0.545
17060W        W83601   3.394  44.561   0.474
17061W        W83602   8.782  14.691  13.281
17062W        W83603  39.488  23.705  12.910
17063W        W83604  25.669  25.672   0.894
17064W        W83605  38.422  15.895  12.492
17065W        W83606   8.137  29.615  12.378
17066W        W83607  25.640  15.311  13.082
17067W        W83608  35.600  18.077   3.694
17068W        W83609  37.567  36.420  14.868
17069W        W83610  26.880  43.728   4.034
17070W        W83611  26.678   3.362  12.311
17071W        W83612  30.108  22.935   1.239
17072W        W83613   5.354   3.266  11.840
17073W        W83614  32.909  23.140  12.355
17074W        W83615   9.725  28.710   3.991
17075W        W83616  17.782  42.411   0.200
17076W        W83617  27.530  35.628   2.795
17077W        W83618  10.175  21.480  13.553
17078W        W83619  43.288  29.671  12.026
17079W        W83620  32.838  23.544   1.333
17080W        W83621  29.022  14.643   0.317
17081W        W83622   7.751  34.827   3.340
17082W        W83623  34.972   1.973  13.928
17083W        W83624  17.503  19.170   0.843
17084W        W83625  35.056  20.508  13.978
17085W        W83626   3.800  30.543   1.847
17086W        W83627  14.338   2.803  12.116
17087W        W83628  38.522  31.469   3.108
17088W        W83629  43.269  42.487   2.023
17089W        W83630  10.631  22.812   1.774
17090W        W83631   6.315  21.845  11.603
17091W        W83632  37.881  14.056  14.418
17092W        W83633   5.220  20.194   3.337
17093W        W83634  44.500   8.387   2.483
17094W        W83635  16.511  27.087  12.470
17095W        W83636   1.772  14.088   4.472
17096W        W83637  22.756   5.323  11.401
17097W        W83638  19.607   9.426  11.173
17098W        W83639   7.689   3.970   0.909
17099W        W83640  34.001   5.613   9.959
17100W        W83641  13.009  20.122  14.951
17101W        W83642   8.294  15.356   0.685
17102W        W83643  19.061   3.460   3.900
17103W        W83644   8.308   3.301  11.613
17104W        W83645  18.701   1.879  11.614
17105W        W83646   3.166   6.406   1.814
17106W        W83647  36.120  12.123  14.894
17107W        W83648  33.637  10.812  10.116
17108W        W83649  11.150  22.858   1.787
17109W        W83650  18.318  13.563   3.205
17110W        W83651  19.552  42.489   3.931
17111W        W83652  16.374  43.592   2.317
17112W        W83653   2.463  34.661  11.870
17113W        W83654  32.431  37.399  14.483
17114W        W83655  29.849  14.077  12.519
17115W        W83656  28.723  27.054   3.039
17116W        W83657  21.253  34.012   4.720
17117W        W83658  26.546  34.814  12.525
17118W        W83659   5.048  34.929  10.755
17119W        W83660  29.037  26.365   1.734
17120W        W83661  10.783   6.817   2.748
17121W        W83662  26.353   7.300   0.879
17122W        W83663   2.554  19.261   1.279
17123W        W83664   9.268  20.612  13.103
17124W        W83665   1.213  37.409  10.702
17125W        W83666  18.123  28.214  11.552
17126W        W83667  25.254  39.049   2.768
17127W        W83668  30.655  11.246   2.315
17128W        W83669  42.119  42.682   2.369
17129W        W83670  28.344   5.142   4.144
17130W        W83671   8.425  31.672   3.131
17131W        W83672  15.177  37.617  14.407
17132W        W83673  19.665  33.102   0.766
17133W        W83674  18.555   7.757  13.811
17134W        W83675  17.714  21.483  10.558
17135W        W83676  15.459  22.654   1.604
17136W        W83677  38.003  36.938   3.831
17137W        W83678  23.050  19.942   1.313
17138W        W83679  44.226  30.677   2.828
17139W        W83680  11.709   1.326   2.284
17140W        W83681  23.005  19.787   1.809
17141W        W83682  17.919  15.924   4.552
17142W        W83683   9.209  14.898  13.057
17143W        W83684  37.437  42.454   0.524
17144W        W83685  41.393  17.297   3.037
17145W        W83686  18.178  14.835  12.048
17146W        W83687   8.799  23.257  10.665
17147W        W83688  43.349   3.756   0.051
17148W        W83689  17.703  15.253   0.479
17149W        W83690   2.771  34.671  11.446
17150W        W83691  11.293   2.246   3.369
17151W        W83692  17.028  24.415   0.431
17152W        W83693  15.804  36.051  13.830
17153W        W83694   5.446   2.967  12.250
17154W        W83695  33.662  39.770   1.388
17155W        W83696  13.675  33.182   0.367
17156W        W83697  16.013  15.728  12.788
17157W        W83698  31.357  30.105   0.330
17158W        W83699   3.425  16.313  11.103
17159W        W83700  19.636  27.876  13.568
17160W        W83701   5.928   3.620  14.821
17161W        W83702  41.367  10.895   0.144
17162W        W83703  27.717  17.620   1.761
17163W        W83704  12.346   1.940  13.092
17164W        W83705   2.796  23.815   3.143
17165W        W83706  26.203  35.911   1.715
17166W        W83707   3.724   2.258  13.380
17167W        W83708  29.234  12.684  12.050
17168W        W83709  13.229  16.526  13.051
17169W        W83710  28.723  19.540   2.282
17170W        W83711  40.119  29.546  12.435
17171W        W83712  35.623  40.931   1.385
17172W        W83713  15.720  37.901   4.560
17173W        W83714  25.021  38.793   2.374
17174W        W83715  43.900  11.805   0.986
17175W        W83716   2.807  10.934  13.383
17176W        W83717   4.728  27.009  11.994
17177W        W83718  28.743   4.193  13.522
17178W        W83719  33.210  33.838  13.386
17179W        W83720  37.360   3.327   2.147
17180W        W83721  12.996  23.903   5.044
17181W        W83722  34.568  14.627   0.498
17182W        W83723  42.299  31.973   1.445
17183W        W83724  17.599  22.729   2.330
17184W        W83725  14.619   6.890   2.205
17185W        W83726   6.680  30.011  14.373
17186W        W83727  20.046  12.183  11.460
17187W        W83728  13.674  18.306  14.580
17188W        W83729  28.981  24.538  12.382
17189W        W83730  37.635   6.856   1.846
17190W        W83731   9.952   3.883  12.548
17191W        W83732  11.296   3.400   0.275
17192W        W83733  10.119  11.838   2.325
17193W        W83734  33.913  28.066   1.039
17194W        W83735   6.724  30.518  12.007
17195W        W83736  22.143   6.750   0.013
17196W        W83737   7.385  13.682  11.701
17197W        W83738   5.668  27.528   5.011
17198W        W83739  27.007   9.192  10.586
17199W        W83740   3.013   8.708   5.077
17200W        W83741  10.656  42.346  11.101
17201W        W83742   6.260  24.464   3.604
17202W        W83743  43.172  39.652  11.080
17203W        W83744  21.746  26.910   0.521
17204W        W83745  21.771  16.223   1.748
17205W        W83746  23.402  27.410  11.677
17206W        W83747  33.494   0.236   1.472
17207W        W83748  12.909  25.166   0.224
17208W        W83749  15.101  30.884   0.849
17209W        W83750  38.486  39.300   3.344
17210W        W83751   8.955  14.577  12.752
17211W        W83752   1.552  17.329  13.353
17212W        W83753  33.476  15.568  13.076
17213W        W83754  17.220   5.019  14.797
17214W        W83755  32.308   0.840   4.099
17215W        W83756  17.288  29.846  13.040
17216W        W83757  18.581   4.173  11.887
17217W        W83758   7.699  13.068   1.224
17218W        W83759  35.514  42.953  14.316
17219W        W83760  32.594  17.797   3.861
17220W        W83761  16.480   1.321  14.718
17221W        W83762  19.992  18.553   1.493
17222W        W83763  35.965  14.754   0.377
17223W        W83764   7.821  35.430  12.145
17224W        W83765  28.469  18.550   2.167
17225W        W83766  11.199   0.501   3.646
17226W        W83767  34.802  37.903   1.305
17227W        W83768  22.730  41.385   2.292
17228W        W83769  39.490   3.470  14.515
17229W        W83770  11.759  25.600   2.430
17230W        W83771   8.784   2.318  13.843
17231W        W83772  13.454  43.262   1.679
17232W        W83773  44.750   4.589  11.744
17233W        W83774  32.631  32.960   0.426
17234W        W83775  23.199  23.707   2.792
17235W        W83776   5.425  35.714  13.797
17236W        W83777  26.682   5.223   3.695
17237W        W83778   3.388  10.034  11.038
17238W        W83779  34.059  38.774   4.725
17239W        W83780  36.315  16.031  10.965
17240W        W83781  17.384  34.510  10.792
17241W        W83782  18.159  44.434  14.055
17242W        W83783  11.745  18.823  12.614
17243W        W83784  16.156  35.381  13.110
17244W        W83785  16.857   8.573  13.327
17245W        W83786  14.890  44.328   0.892
17246W        W83787   6.940  22.030  12.923
17247W        W83788   5.728  33.650   2.353
17248W        W83789   7.133  28.739   1.050
17249W        W83790  32.117  35.431   2.838
17250W        W83791  14.196  21.244  11.660
17251W        W83792   8.410   8.388  12.598
17252W        W83793  31.079  22.578   4.188
17253W        W83794  34.953  40.742   3.251
17254W        W83795  26.019  43.874  12.537
17255W        W83796  34.175  24.077  13.587
17256W        W83797  42.743  39.559   0.652
17257W        W83798   8.441  12.650  10.510
17258W        W83799  42.416  41.796   3.367
17259W        W83800   8.467  38.299  14.494
17260W        W83801   4.779  38.779  11.155
17261W        W83802  40.138   7.222  13.000
17262W        W83803   1.461  22.599   2.482
17263W        W83804  14.332  10.686   4.237
17264W        W83805   8.820   0.179   1.038
17265W        W83806  12.161   7.608   2.593
17266W        W83807  23.121   2.068  11.006
17267W        W83808  35.441  19.952  11.131
17268W        W83809  10.917  40.012   2.637
17269W        W83810  34.113  28.119   4.120
17270W        W83811   7.667  29.183   3.075
17271W        W83812  21.164   7.643   2.674
17272W        W83813  29.088  30.164  14.925
17273W        W83814   8.704  42.662  11.914
17274W        W83815   2.269   8.803  11.691
17275W        W83816   1.503  42.626   1.213
17276W        W83817  29.490  37.888   4.120
17277W        W83818  31.078   5.807  11.045
17278W        W83819  38.359  32.084  12.391
17279W        W83820   8.889  36.123   0.760
17280W        W83821  36.567  11.167   2.666
17281W        W83822   8.538  32.836   2.765
17282W        W83823  29.010  31.575   2.314
17283W        W83824  16.412  30.718   4.194
17284W        W83825  25.138  22.973   1.856
17285W        W83826  11.577  14.273  11.649
17286W        W83827   1.162   8.287  12.104
17287W        W83828  38.925  23.454   4.208
17288W        W83829   8.236   3.405  10.187
17289W        W83830   5.781  38.054  13.085
17290W        W83831  20.068   1.198   4.116
17291W        W83832  32.527  31.196   0.431
17292W        W83833  22.634   1.779   4.916
17293W        W83834  25.804   9.222   1.370
17294W        W83835  33.349  16.543  10.778
17295W        W83836  25.852  30.551  14.450
17296W        W83837  33.576  27.735   0.252
17297W        W83838  22.469  12.858  11.163
17298W        W83839   8.453  29.236  14.731
17299W        W83840  33.158  24.009  13.427
17300W        W83841   0.928  38.467   2.856
17301W        W83842  44.008  21.246  12.875
17302W        W83843  17.988   3.824   2.691
17303W        W83844   7.378  28.331   2.066
17304W        W83845  12.855   6.417   0.389
17305W        W83846  34.650   2.787  11.322
17306W        W83847  19.742   8.965   2.316
17307W        W83848  28.176   8.070   3.064
17308W        W83849  11.315  18.930  11.908
17309W        W83850  16.707  39.124   4.071
17310W        W83851  38.463  43.421  14.692
17311W        W83852   0.991  22.313  11.765
17312W        W83853  28.244  29.892   1.489
17313W        W83854  23.489  41.945   2.115
17314W        W83855  30.597  15.303  12.968
17315W        W83856  34.400  36.233  13.291
17316W        W83857  13.867  21.264   2.893
17317W        W83858  26.888  29.999  12.402
17318W        W83859  30.430  33.621   1.883
17319W        W83860  41.685  31.427  13.394
17320W        W83861  34.458  38.004   3.271
17321W        W83862  17.361  42.841   3.178
17322W        W83863   1.268  35.034  13.086
17323W        W83864  24.151  10.703   4.439
17324W        W83865  27.654  44.406   1.440
17325W        W83866  15.995  39.862  10.752
17326W        W83867   1.001  21.060  12.246
17327W        W83868   8.514   4.192  12.615
17328W        W83869  36.855  40.101  13.508
17329W        W83870  26.746  28.150  14.382
17330W        W83871   4.914   9.004  10.800
17331W        W83872   8.130  38.813  14.217
17332W        W83873  11.855   6.966  12.040
17333W        W83874   2.454   5.922   2.015
17334W        W83875  25.702   0.856   2.490
17335W        W83876  43.523  15.117  11.626
17336W        W83877  13.754  42.891  14.847
17337W        W83878  14.598  36.417  14.049
17338W        W83879  41.290  10.338  10.335
17339W        W83880  44.802  32.833   3.246
17340W        W83881   8.674  19.557   2.452
17341W        W83882  12.785   9.214   0.943
17342W        W83883  29.911  16.806   0.458
17343W        W83884  10.261  28.908   0.977
17344W        W83885  13.392  28.429  14.995
17345W        W83886  25.232  18.207   0.774
17346W        W83887  27.389  15.623  12.783
17347W        W83888  29.220   7.744   2.913
17348W        W83889  21.997  34.099   3.660
17349W        W83890  42.833   3.971   4.107
17350W        W83891  41.781  33.004   3.287
17351W        W83892  15.951  15.789   2.225
17352W        W83893  22.291   6.139  13.577
17353W        W83894  42.887  28.428  13.029
17354W        W83895   5.706  32.862   9.616
17355W        W83896  15.595  22.088  10.460
17356W        W83897   3.782  14.968  10.486
17357W        W83898  37.807  30.378   0.673
17358W        W83899  19.708  25.792   1.448
17359W        W83900  43.970  13.786   1.413
17360W        W83901  29.439  17.749   2.837
17361W        W83902   6.737  41.976  10.877
17362W        W83903   3.941  28.217  13.895
17363W        W83904  33.774  31.907  13.788
17364W        W83905  31.104  38.476  11.874
17365W        W83906  43.753   3.410  11.216
17366W        W83907   1.337  43.754  13.491
17367W        W83908  27.615  13.593   3.347
17368W        W83909  32.239  23.715  10.293
17369W        W83910  27.434  15.677   2.222
17370W        W83911  44.458   9.793  10.640
17371W        W83912   4.837  13.819   0.903
17372W        W83913   9.031  41.062   5.199
17373W        W83914  10.064  11.830   4.640
17374W        W83915  12.100  21.033   0.350
17375W        W83916  33.654   4.167  12.743
17376W        W83917   7.717   8.993  14.749
17377W        W83918  38.411  10.706  11.605
17378W        W83919  25.328   9.553  10.915
17379W        W83920   2.010  39.776   4.230
17380W        W83921  33.982   9.088  12.620
17381W        W83922  38.815   6.421  13.986
17382W        W83923  31.427   8.661  13.956
17383W        W83924  36.795  22.975   2.757
17384W        W83925   2.820  24.021   0.220
17385W        W83926  28.113  13.170   4.472
17386W        W83927  14.308  13.330  14.931
17387W        W83928  37.914   6.188   3.684
17388W        W83929  17.156  43.975   0.767
17389W        W83930  24.058  15.145  10.790
17390W        W83931  15.633  39.376   4.463
17391W        W83932  21.024  11.251   3.278
17392W        W83933  20.762  30.978   2.696
17393W        W83934  32.006  34.706   1.850
17394W        W83935  32.543  21.764   2.243
17395W        W83936  13.212   1.362  11.781
17396W        W83937  39.934   1.233  12.603
17397W        W83938  43.513  34.112   1.244
17398W        W83939  30.874   4.389  11.040
17399W        W83940  33.197  29.628  14.812
17400W        W83941  36.388   8.723   3.415
17401W        W83942  31.034  20.091  12.104
17402W        W83943  41.357   8.941  13.829
17403W        W83944  32.617   7.911  13.892
17404W        W83945  27.985   8.958   4.103
17405W        W83946  24.996  27.481   3.261
17406W        W83947  23.503  19.171   0.293
17407W        W83948  11.037  22.664  14.023
17408W        W83949  38.851  23.549   0.374
17409W        W83950  27.841  37.883   4.787
17410W        W83951  18.708  28.179  11.219
17411W        W83952  21.792  18.113   0.538
17412W        W83953  20.041  19.707  13.064
17413W        W83954  42.903  25.027   4.374
17414W        W83955  16.453  23.529   4.010
17415W        W83956   6.748  31.499  12.963
17416W        W83957  11.363   0.195   0.473
17417W        W83958  27.024  36.606   0.340
17418W        W83959  41.844  38.858  12.999
17419W        W83960  36.507   2.882   1.501
17420W        W83961  27.715  16.282  10.909
17421W        W83962  15.561  15.145   1.787
17422W        W83963  22.068   2.684  12.809
17423W        W83964   8.333   7.454  12.290
17424W        W83965   1.010  12.104  12.948
17425W        W83966  41.871  28.422   3.820
17426W        W83967  23.925  31.486   4.366
17427W        W83968   3.813  30.915  13.557
17428W        W83969  15.070  44.465   1.339
17429W        W83970   2.558   3.278   1.408
17430W        W83971  41.062  19.166  11.307
17431W        W83972  15.256  29.098  13.754
17432W        W83973  13.086  28.684   3.131
17433W        W83974  40.490  11.564  13.493
17434W        W83975  20.472   7.833   0.052
17435W        W83976  41.528  43.544   1.212
17436W        W83977  21.262  23.764  14.294
17437W        W83978   8.817  17.758   3.243
17438W        W83979  23.706  10.364  10.752
17439W        W83980  13.130   8.850  11.142
17440W        W83981  27.757  40.287   0.343
17441W        W83982  11.709  19.136  14.485
17442W        W83983  33.774  15.680   1.275
17443W        W83984  39.338  41.486   0.239
17444W        W83985  11.609  19.495  10.345
17445W        W83986  20.093  21.061  12.809
17446W        W83987  16.653  19.707   0.712
17447W        W83988  44.321  37.137  13.427
17448W        W83989  24.971   0.823  12.916
17449W        W83990   4.861   1.501   5.750
17450W        W83991  39.458  33.852   3.099
17451W        W83992  18.553  32.140   5.075
17452W        W83993   7.195   2.351  13.015
17453W        W83994  27.360  28.131   2.705
17454W        W83995  25.049  40.301  12.859
17455W        W83996  37.280  19.165   2.090
17456W        W83997  40.582  43.386   3.402
17457W        W83998   3.129  20.715  11.014
17458W        W83999  11.041  44.721  11.489
17459W        W84000   3.651   5.531  11.041
17460W        W84001  32.074  16.698  10.285
17461W        W84002  38.272  34.024   4.077
17462W        W84003  25.719  10.238   2.282
17463W        W84004   1.775  23.083  13.607
17464W        W84005  18.655  24.804  11.309
17465W        W84006   6.709  16.719   2.739
17466W        W84007   4.666   1.494  13.029
17467W        W84008  41.553  10.631   0.600
17468W        W84009  35.949  41.510  11.586
17469W        W84010  28.200   1.848  13.419
17470W        W84011  31.064  15.035   2.833
17471W        W84012  38.986   1.113   2.193
17472W        W84013  12.925  21.288  10.259
17473W        W84014   9.881   4.156   3.956
17474W        W84015  33.005  17.633   3.109
17475W        W84016   4.460  37.898  10.526
17476W        W84017   1.338  30.857   0.493
17477W        W84018  44.523  43.554   2.889
17478W        W84019   1.562  25.037  10.336
17479W        W84020   1.024  28.129  13.644
17480W        W84021  41.738   3.020   0.827
17481W        W84022  19.148  10.249  14.400
17482W        W84023  13.849  27.031  11.151
17483W        W84024   0.128  25.513   0.433
17484W        W84025  18.811  38.885   4.035
17485W        W84026  25.261  25.692   4.235
17486W        W84027  16.113  29.732   1.404
17487W        W84028  43.774  35.527   3.225
17488W        W84029  27.854  33.018  13.413
17489W        W84030  37.848  19.073  13.460
17490W        W84031   9.055  35.883   4.066
17491W        W84032  16.096  16.618   3.295
17492W        W84033   3.674  20.390  12.399
17493W        W84034  10.210  17.993   1.810
17494W        W84035  39.767  27.264  12.993
17495W        W84036   9.375  41.759  11.248
17496W        W84037  23.059  25.546   0.879
17497W        W84038  22.602   7.837  12.103
17498W        W84039  25.157  17.590  12.587
17499W        W84040  44.983  17.282   3.647
17500W        W84041  36.791  39.338   3.847
17501W        W84042   2.755  37.447  11.660
17502W        W84043  34.782  22.411  12.653
17503W        W84044  14.111   4.963   3.226
17504W        W84045   4.706  11.794   3.658
17505W        W84046  28.723  41.497   1.802
17506W        W84047  20.041  33.345   1.908
17507W        W84048  39.534  35.532  14.809
17508W        W84049  25.389  12.112  12.142
17509W        W84050  40.032  21.508   4.316
17510W        W84051   7.310  13.103  12.952
17511W        W84052  14.794  37.437   4.576
17512W        W84053   9.418  18.077  12.408
17513W        W84054  28.424  25.154   4.182
17514W        W84055  33.304  19.170   2.462
17515W        W84056  43.534  17.904   2.558
17516W        W84057  30.099   4.304   4.776
17517W        W84058  23.568  21.666  10.574
17518W        W84059  22.119  14.594   3.114
17519W        W84060  20.054  13.359   1.166
17520W        W84061  33.858  33.924  12.295
17521W        W84062   3.913  21.318  11.383
17522W        W84063  17.804   7.468  13.472
17523W        W84064  26.102  44.791   0.731
17524W        W84065  19.566  42.349  13.066
17525W        W84066  44.949  33.522  13.294
17526W        W84067  10.897   8.349   3.269
17527W        W84068  40.440  29.546   4.615
17528W        W84069   0.356  18.286  12.957
17529W        W84070  24.264  11.875  14.822
17530W        W84071  30.557  37.832  12.349
17531W        W84072  23.461  17.683   1.183
17532W        W84073  21.636   5.311   0.423
17533W        W84074  16.563  43.446   2.784
17534W        W84075  17.768  20.536  12.096
17535W        W84076  37.265  31.319   0.002
17536W        W84077  22.166  38.446  10.625
17537W        W84078   6.066  23.888   2.360
17538W        W84079  10.271  35.661   0.300
17539W        W84080   6.071  41.888   2.326
17540W        W84081  24.997  43.821   1.441
17541W        W84082  30.325  29.906   3.894
17542W        W84083  33.432   5.950  10.709
17543W        W84084  17.257  18.314   1.775
17544W        W84085  44.897  35.611  13.047
17545W        W84086  12.275   8.883   3.094
17546W        W84087  32.571  24.723   4.511
17547W        W84088  31.272  27.246   0.087
17548W        W84089  14.268  15.302  13.978
17549W        W84090   2.529  19.587  11.531
17550W        W84091  31.051  17.312  13.888
17551W        W84092  36.005  44.941  13.916
17552W        W84093  12.880  43.884  13.049
17553W        W84094  15.310  33.170  12.450
17554W        W84095  31.445  42.689   1.423
17555W        W84096  18.696  41.382   2.630
17556W        W84097  14.238  29.972  11.139
17557W        W84098   6.916   3.832  13.355
17558W        W84099  30.128  15.212   3.777
17559W        W84100  39.311  32.580   2.344
17560W        W84101  41.408  31.015   0.045
17561W        W84102   7.293  37.476  13.796
17562W        W84103   6.003  29.148   1.695
17563W        W84104   4.730  11.789  10.540
17564W        W84105  27.547  17.357   4.565
17565W        W84106  29.140  19.248   2.378
17566W        W84107  42.595  14.195   0.972
17567W        W84108   2.428   5.282   1.304
17568W        W84109  16.055  37.098  12.461
17569W        W84110  33.639  40.460   0.752
17570W        W84111  37.021   1.528  12.566
17571W        W84112  22.875  22.114  12.038
17572W        W84113  12.391  25.747  11.154
17573W        W84114  31.600  40.761   3.820
17574W        W84115  31.982  41.020   4.088
17575W        W84116   0.280  27.707  14.423
17576W        W84117  26.267  33.354   2.263
17577W        W84118  27.747  39.048  12.400
17578W        W84119  43.239  15.848   4.220
17579W        W84120  11.309  18.588   0.960
17580W        W84121  27.064  13.561   0.002
17581W        W84122  23.474  14.599  12.949
17582W        W84123  40.874  30.144   3.443
17583W        W84124  36.690   2.702  10.271
17584W        W84125  27.816  20.114   4.428
17585W        W84126  28.986  13.795  14.780
17586W        W84127   5.864  21.325   3.665
17587W        W84128   6.404   6.811  13.518
17588W        W84129  24.995  29.606  10.466
17589W        W84130  15.700  32.315   2.729
17590W        W84131  30.763  13.233  13.598
17591W        W84132  24.159  32.667  11.081
17592W        W84133   3.880  40.807   2.616
17593W        W84134  22.626   2.482   2.468
17594W        W84135  13.842   0.694  14.792
17595W        W84136  25.834   4.276   3.059
17596W        W84137  30.324  15.684  12.745
17597W        W84138  10.446  29.111   1.913
17598W        W84139  32.489   7.930  14.913
17599W        W84140   3.944  15.237   2.309
17600W        W84141   3.780  41.581   3.368
17601W        W84142   1.331  20.617   1.928
17602W        W84143  26.961  30.594   2.310
17603W        W84144  36.918  39.210  13.881
17604W        W84145   6.847   7.427  12.862
17605W        W84146   7.343  43.195   1.763
17606W        W84147   9.631  43.545  12.017
17607W        W84148  31.725  19.682   3.640
17608W        W84149  20.368  16.172  12.081
17609W        W84150  12.368  32.523   3.223
17610W        W84151   8.302  43.446  12.029
17611W        W84152  18.841  16.047  13.241
17612W        W84153   4.378  32.347   2.711
17613W        W84154  10.609  25.059   3.673
17614W        W84155  16.756  20.460  12.138
17615W        W84156  13.764  20.194  14.413
17616W        W84157  38.439  44.343  12.795
17617W        W84158  37.874  29.940  11.620
17618W        W84159  21.670  18.794   3.354
17619W        W84160  26.028  42.615   2.371
17620W        W84161  18.804  35.830   4.464
17621W        W84162  37.569   0.410   1.474
17622W        W84163  38.462  12.709  10.740
17623W        W84164  41.520  20.727   1.741
17624W        W84165  36.495  10.676   3.435
17625W        W84166  21.193  36.035  10.599
17626W        W84167  14.783  15.114   3.307
17627W        W84168  19.669   6.128  11.213
17628W        W84169   7.152   2.789   2.838
17629W        W84170  27.994  14.367   3.742
17630W        W84171  31.954  19.696  11.362
17631W        W84172  26.580  36.277   4.210
17632W        W84173   6.148  39.312   2.832
17633W        W84174  18.059  13.326  13.040
17634W        W84175  31.444  33.343  13.428
17635W        W84176   6.814   5.727  13.790
17636W        W84177  36.733  37.960  12.546
17637W        W84178   8.738  10.177   3.140
17638W        W84179   3.228  38.218  13.999
17639W        W84180   5.882  12.753   2.639
17640W        W84181   8.147  38.431  12.650
17641W        W84182  30.096   1.762   3.731
17642W        W84183  32.729  14.177  14.673
17643W        W84184  26.470  33.568  11.100
17644W        W84185  28.995  16.670   4.870
17645W        W84186  19.766  38.404   4.390
17646W        W84187  29.151  42.699   1.943
17647W        W84188  33.191  26.308  14.771
17648W        W84189  12.862   4.870   3.707
17649W        W84190   9.313  44.875  11.726
17650W        W84191  15.386  30.506   3.064
17651W        W84192  44.789  32.449   3.597
17652W        W84193  34.086   3.590   2.371
17653W        W84194  38.874  40.431  14.429
17654W        W84195  20.121  16.081   0.704
17655W        W84196   3.955   4.068  14.206
17656W        W84197   1.170  33.712  14.822
17657W        W84198  19.870  16.688  11.136
17658W        W84199  30.410  11.178   4.256
17659W        W84200  24.198  15.260   1.178
17660W        W84201  21.152   8.260   4.064
17661W        W84202  41.778  37.888   4.208
17662W        W84203  37.752  33.382   3.581
17663W        W84204  41.052  41.387  14.827
17664W        W84205  39.362  30.664   3.549
17665W        W84206  34.811  37.844  12.349
17666W        W84207  38.603   5.316   2.207
17667W        W84208   0.086   1.002  12.939
17668W        W84209  19.488   0.004   4.455
17669W        W84210  37.465  25.066  12.974
17670W        W84211  30.993  32.501  14.337
17671W        W84212   1.919  42.913   4.143
17672W        W84213   0.651  16.742  10.670
17673W        W84214   4.497  16.113   1.917
17674W        W84215  41.057  18.052  12.723
17675W        W84216   5.454  40.737   1.239
17676W        W84217  41.016  29.262   3.903
17677W        W84218  17.814  21.912   0.566
17678W        W84219  26.978   5.436  12.012
17679W        W84220  11.699  38.017  14.009
17680W        W84221  39.258   7.693  14.102
17681W        W84222  19.605   9.411   0.415
17682W        W84223  32.882  15.866   0.765
17683W        W84224  30.469  35.552  13.015
17684W        W84225   3.593  34.913  12.407
17685W        W84226  10.091  40.488  13.835
17686W        W84227   4.271  37.925  12.964
17687W        W84228  14.839   3.431  11.921
17688W        W84229   4.783  21.230  12.522
17689W        W84230  37.642   4.438   2.422
17690W        W84231  33.069   4.902   0.908
17691W        W84232   7.683  21.737  14.355
17692W        W84233  39.402  44.933  12.392
17693W        W84234   4.729  25.451  13.371
17694W        W84235  15.583  10.139  10.719
17695W        W84236  14.017  22.064   0.042
17696W        W84237   4.291  10.592   0.792
17697W        W84238  36.431  41.398   3.808
17698W        W84239  26.514   3.867  11.673
17699W        W84240  32.376  36.034   0.301
17700W        W84241   1.659  16.012   2.067
17701W        W84242   2.498  39.490  14.783
17702W        W84243  11.395  19.850   0.481
17703W        W84244  37.369  14.592  10.796
17704W        W84245  26.512  15.211   0.737
17705W        W84246  26.680  25.353  12.899
17706W        W84247  44.677  28.777   4.054
17707W        W84248  30.905  34.532   4.768
17708W        W84249  26.507  21.714  11.988
17709W        W84250  22.213  25.811   2.789
17710W        W84251   6.197  17.168   2.113
17711W        W84252  21.194  38.147  10.101
17712W        W84253  44.538  30.542   3.248
17713W        W84254  29.072   4.513  11.289
17714W        W84255  13.228  27.633  11.569
17715W        W84256  11.307  16.799  10.371
17716W        W84257  13.371   4.737   1.818
17717W        W84258   2.722  10.848   4.189
17718W        W84259   5.405  25.611   3.632
17719W        W84260  38.559  23.441   1.498
17720W        W84261  19.760  10.869  13.299
17721W        W84262  24.042  39.737   1.639
17722W        W84263  25.560   8.829  13.575
17723W        W84264  14.077  28.621  12.487
17724W        W84265  11.637  42.303   0.447
17725W        W84266  13.821  30.915  13.397
17726W        W84267  26.689   2.162   1.190
17727W        W84268  18.885   6.426   3.127
17728W        W84269  11.307  22.003   2.835
17729W        W84270  21.126  25.453   1.310
17730W        W84271  17.115  38.654  13.893
17731W        W84272  14.834   1.439   4.740
17732W        W84273  11.663  39.336   3.814
17733W        W84274  22.702  17.234   3.227
17734W        W84275  34.477  36.366   2.748
17735W        W84276   2.029  19.616   1.983
17736W        W84277  15.272  39.202  13.270
17737W        W84278  16.133  27.209   3.679
17738W        W84279  12.323   8.646   4.113
17739W        W84280  32.693  28.011   3.747
17740W        W84281  35.339  43.195  13.889
17741W        W84282   3.012  38.584  12.020
17742W        W84283  38.705  32.577   0.455
17743W        W84284  36.817  30.023   4.094
17744W        W84285   3.654  44.965  14.862
17745W        W84286  22.143   5.719   0.698
17746W        W84287   3.410   1.856  13.512
17747W        W84288  43.048  25.105  12.474
17748W        W84289  40.375  37.393  11.377
17749W        W84290  39.624  22.860  11.101
17750W        W84291  32.399  37.844   3.718
17751W        W84292   7.399  25.982   5.607
17752W        W84293   4.259   9.113   2.883
17753W        W84294  24.139  35.844  10.358
17754W        W84295  33.462   7.258   0.412
17755W        W84296  22.745  26.221  12.919
17756W        W84297  21.529  44.292   0.431
17757W        W84298  41.406  29.437  11.444
17758W        W84299  38.919  22.221   3.839
17759W        W84300  31.458   8.485  14.446
17760W        W84301  15.441  28.461   2.261
17761W        W84302  18.021  36.753  14.391
17762W        W84303   0.307   3.765   1.924
17763W        W84304   4.379  28.665   3.444
17764W        W84305  38.914  26.128   3.584
17765W        W84306  30.002  20.228  13.593
17766W        W84307  40.704   5.834  10.564
17767W        W84308  16.503  18.060  10.821
17768W        W84309   6.701   5.348  14.802
17769W        W84310  32.911  23.560  13.767
17770W        W84311  18.840  42.332  11.046
17771W        W84312  36.217  37.356  12.544
17772W        W84313  36.525  26.140  14.451
17773W        W84314   9.855  43.243   0.201
17774W        W84315  41.367  23.749   0.751
17775W        W84316  32.732   1.798   2.590
17776W        W84317  41.017  42.041   2.141
17777W        W84318  13.372  38.103  14.242
17778W        W84319   7.225   1.914  13.284
17779W        W84320  40.304   1.826  10.763
17780W        W84321   0.623  11.635  10.641
17781W        W84322  39.025  16.264  11.959
17782W        W84323  25.694  21.215  11.019
17783W        W84324  19.205  36.293  10.655
17784W        W84325  13.781   9.664  10.696
17785W        W84326  17.046  15.431   2.273
17786W        W84327   2.842  33.085   1.071
17787W        W84328  31.104  40.031   5.089
17788W        W84329  44.333  36.438  10.463
17789W        W84330  31.763  30.940   1.102
17790W        W84331  41.421  23.678   2.831
17791W        W84332  37.780  13.669   0.755
17792W        W84333  40.035  42.329   1.309
17793W        W84334  43.009   0.730   0.369
17794W        W84335  42.022  40.943   3.614
17795W        W84336  18.174  12.646  10.630
17796W        W84337  28.362   3.361   0.255
17797W        W84338  39.568  41.823   3.172
17798W        W84339   4.661  19.700   1.733
17799W        W84340  42.065  19.347  14.736
17800W        W84341  19.810   8.357   1.451
17801W        W84342  15.083  30.942   3.216
17802W        W84343  14.010  12.208  12.881
17803W        W84344  12.241  27.238  11.891
17804W        W84345  33.649  12.287   4.624
17805W        W84346   0.368  42.371   4.537
17806W        W84347  12.424  43.580  12.394
17807W        W84348  24.298   7.178  12.242
17808W        W84349  25.772  32.385   0.481
17809W        W84350   7.019  11.394  13.554
17810W        W84351  26.087  33.824   0.488
17811W        W84352  22.682   9.829   4.649
17812W        W84353  23.385  39.327   1.368
17813W        W84354   8.950   1.804   3.239
17814W        W84355  30.554  14.369   2.097
17815W        W84356  13.047  10.287  14.044
17816W        W84357  20.517  27.016   1.779
17817W        W84358  19.564  30.891  12.107
17818W        W84359  14.668  43.675  10.732
17819W        W84360  10.636  40.784  12.164
17820W        W84361  41.094  30.611   0.761
17821W        W84362   5.414  26.486   1.419
17822W        W84363  34.656   8.261   0.480
17823W        W84364  43.935  43.494   4.169
17824W        W84365  26.119  33.432  14.260
17825W        W84366  28.128  23.485  11.078
17826W        W84367  20.750  13.584   3.592
17827W        W84368  18.551  36.615  14.447
17828W        W84369  36.013  20.543  13.943
17829W        W84370   5.817  17.472   1.044
17830W        W84371   7.954  21.566   4.212
17831W        W84372  13.751   6.202   4.015
17832W        W84373  15.856   2.752  10.724
17833W        W84374  12.633   2.870   1.969
17834W        W84375   4.268   3.824   4.081
17835W        W84376  23.537  38.373   2.151
17836W        W84377   5.333   4.015  12.497
17837W        W84378  19.211  39.977  12.845
17838W        W84379   1.669  17.103  14.721
17839W        W84380  16.168  33.016  12.742
17840W        W84381  14.216  21.844   0.477
17841W        W84382   8.113  13.848   5.013
17842W        W84383  17.626  25.234   4.610
17843W        W84384  33.388  37.572   0.310
17844W        W84385   4.219  29.046   1.741
17845W        W84386  35.467   0.406   4.088
17846W        W84387   1.889  25.915   1.238
17847W        W84388  21.459  13.792   4.160
17848W        W84389  37.100  20.715   3.831
17849W        W84390  39.499  30.101  14.018
17850W        W84391  34.811   2.320  12.999
17851W        W84392   1.898   4.251  11.701
17852W        W84393   1.974  10.116  13.866
17853W        W84394  20.628  16.612  13.341
17854W        W84395   3.366  44.528  12.539
17855W        W84396  31.103  32.627  10.678
17856W        W84397  22.787  36.718  12.542
17857W        W84398   6.043   2.296  13.978
17858W        W84399  44.244  44.418  11.254
17859W        W84400  24.919  33.064   2.376
17860W        W84401  30.314   6.278   3.683
17861W        W84402   5.639  15.245  12.944
17862W        W84403  25.446  11.112  13.849
17863W        W84404  21.007  32.982   3.780
17864W        W84405  11.593  18.700  13.393
17865W        W84406  28.695  35.081   4.589
17866W        W84407   7.794  29.699   5.054
17867W        W84408  12.840  10.572  13.144
17868W        W84409  17.173   1.350   4.029
17869W        W84410  19.797  17.664   1.940
17870W        W84411   4.437  24.452   0.242
17871W        W84412  36.479  22.647   2.236
17872W        W84413  14.738   4.646   4.064
17873W        W84414  27.608   9.982  11.118
17874W        W84415  20.666  40.535   2.447
17875W        W84416  34.990  28.333   1.721
17876W        W84417  41.319   3.002   2.649
17877W        W84418  30.102  39.926  14.549
17878W        W84419  23.949  17.513   1.249
17879W        W84420  28.627   2.442   3.132
17880W        W84421  35.416  12.185  13.488
17881W        W84422  33.515  34.598  14.324
17882W        W84423  42.963  12.783   2.416
17883W        W84424  28.355  27.459  14.693
17884W        W84425  35.549  39.534   1.222
17885W        W84426  39.547   5.670  11.439
17886W        W84427   0.306  27.475   0.717
17887W        W84428  12.254  20.714  12.465
17888W        W84429  22.014   4.369  13.259
17889W        W84430  37.740  32.508   2.127
17890W        W84431   2.927  42.044  14.623
17891W        W84432  17.696  30.549   5.007
17892W        W84433  15.324  30.905  10.246
17893W        W84434  44.435  16.720   1.944
17894W        W84435  37.486  24.694  14.203
17895W        W84436  35.522  37.478  11.448
17896W        W84437   5.650  15.879   0.229
17897W        W84438  36.984  13.369   1.228
17898W        W84439  16.268  15.060  12.016
17899W        W84440  27.831  16.429  14.560
17900W        W84441  40.783  19.502   2.825
17901W        W84442  40.781  20.557  11.483
17902W        W84443   1.849  26.093   0.749
17903W        W84444  24.041  39.829  14.763
17904W        W84445  36.427  17.473  13.101
17905W        W84446  38.470  37.780  10.387
17906W        W84447  16.414  23.732  10.750
17907W        W84448  28.616  13.685   0.204
17908W        W84449  20.576  23.150  12.954
17909W        W84450  34.838  43.060   0.758
17910W        W84451  38.208  32.415   0.553
17911W        W84452   0.782   3.864  13.334
17912W        W84453  44.219   3.562   0.347
17913W        W84454   1.539  14.250  11.535
17914W        W84455  34.843  39.771   4.363
17915W        W84456  18.365   6.076  13.600
17916W        W84457  44.633   5.168   3.229
17917W        W84458  22.700  23.176   1.485
17918W        W84459  18.719  39.337   0.972
17919W        W84460  38.934  12.102  11.503
17920W        W84461  37.842  13.272  11.068
17921W        W84462  32.026   6.593  12.139
17922W        W84463  23.701   2.806  12.499
17923W        W84464  31.115  43.782  12.630
17924W        W84465   9.473  31.038   0.208
17925W        W84466  42.196   6.905  14.231
17926W        W84467  40.747  25.686  11.111
17927W        W84468  36.755   2.379  10.672
17928W        W84469  31.492   0.062  11.475
17929W        W84470  13.579  21.100   3.315
17930W        W84471  12.850  31.098   4.213
17931W        W84472  33.442   1.994   0.800
17932W        W84473   3.516  41.586   2.877
17933W        W84474  35.976  28.544  12.942
17934W        W84475  29.606   6.855   4.144
17935W        W84476  20.593  24.498   2.168
17936W        W84477  38.824   0.497   4.610
17937W        W84478   1.094  41.445  12.877
17938W        W84479   8.089  16.563  13.439
17939W        W84480  25.722  36.033   2.616
17940W        W84481  16.447  25.369   2.260
17941W        W84482  24.491  17.116   0.847
17942W        W84483   3.959  34.091   3.391
17943W        W84484   7.976  10.221  13.909
17944W        W84485   8.334  15.583  13.809
17945W        W84486   7.451  33.815   2.849
17946W        W84487  19.728   6.308  13.298
17947W        W84488  21.125  41.206  14.378
17948W        W84489  40.348   4.072   3.320
17949W        W84490   8.947  19.730  14.773
17950W        W84491   4.235  43.604   2.949
17951W        W84492  35.465  39.016  12.352
17952W        W84493   8.173  31.863   2.730
17953W        W84494   0.461  33.527  13.247
17954W        W84495   0.396  12.900   4.227
17955W        W84496  27.701  36.110   2.978
17956W        W84497  37.117  29.675   1.496
17957W        W84498  41.328   1.161   4.518
17958W        W84499  43.878  22.620   1.167
17959W        W84500  10.722   4.923   3.248
17960W        W84501  21.014   8.973   3.626
17961W        W84502   1.776  41.551   4.777
17962W        W84503   3.186  25.987  12.712
17963W        W84504  39.093  22.543   1.167
17964W        W84505   4.458  31.680   2.310
17965W        W84506  10.267  21.147   4.558
17966W        W84507   9.928  21.652  14.904
17967W        W84508  27.023  43.323   1.759
17968W        W84509  28.165  35.604  13.407
17969W        W84510  30.585  15.295   0.240
17970W        W84511  21.178  25.715  12.927
17971W        W84512  42.791  34.915  11.174
17972W        W84513  23.214   7.336   0.676
17973W        W84514   4.965  33.554  14.854
17974W        W84515  34.696  34.750  13.077
17975W        W84516  25.184  36.996  14.405
17976W        W84517  31.983  40.820  11.956
17977W        W84518  22.946  27.129  11.714
17978W        W84519  14.302  32.862   4.116
17979W        W84520  19.050  29.762  12.682
17980W        W84521  40.868  40.900  13.518
17981W        W84522   8.708  25.530   2.815
17982W        W84523  31.224  30.909   1.757
17983W        W84524  42.822  44.843   2.158
17984W        W84525  22.271  33.056   1.290
17985W        W84526  23.111   7.481   2.315
17986W        W84527   7.166  10.717  10.805
17987W        W84528  27.339   4.902  12.220
17988W        W84529  13.256   2.580   3.781
17989W        W84530  39.786   9.310   2.867
17990W        W84531  21.843   1.479   1.420
17991W        W84532  43.496  42.959  13.411
17992W        W84533  21.031  31.599   3.807
17993W        W84534  33.835   7.253  14.465
17994W        W84535  26.999  40.465   1.245
17995W        W84536  44.827  28.144  14.690
17996W        W84537  40.232   6.862  13.883
17997W        W84538  22.217  34.545   1.297
17998W        W84539  38.475  39.095  10.594
17999W        W84540  28.650  13.119  13.567
18000W        W84541  12.514  11.897   1.892
18001W        W84542  42.541   1.951   4.761
18002W        W84543  19.258   2.413  14.288
18003W        W84544  23.716  19.645   2.257
18004W        W84545  19.587  24.454  12.445
18005W        W84546  37.378  20.886   2.828
18006W        W84547  23.085  40.233  14.361
18007W        W84548  23.755  19.409   2.920
18008W        W84549   1.547   3.399   2.314
18009W        W84550   5.873  16.061   2.171
18010W        W84551  16.547  27.910  11.688
18011W        W84552  44.213  28.687   0.263
18012W        W84553  44.404  30.455  12.930
18013W        W84554  19.043  43.980  13.732
18014W        W84555  40.369  40.046  11.222
18015W        W84556  38.432  13.833  13.330
18016W        W84557  39.169  21.904  11.607
18017W        W84558  32.781   5.972   1.821
18018W        W84559   0.219  18.733  13.541
18019W        W84560   2.804  22.990   1.837
18020W        W84561   2.219   2.029  12.034
18021W        W84562  34.395  17.256  12.063
18022W        W84563  16.035   3.487  13.454
18023W        W84564  17.844  38.090  11.480
18024W        W84565   8.574  17.776  10.663
18025W        W84566  44.533  40.105  13.593
18026W        W84567  28.443  30.016   2.838
18027W        W84568  11.923  12.249   3.738
18028W        W84569  27.491   1.923  10.496
18029W        W84570  41.473  28.690  13.974
18030W        W84571  37.301  11.670   1.272
18031W        W84572  14.880  29.953   9.831
18032W        W84573  17.748  16.650   0.820
18033W        W84574   9.475  22.348   3.172
18034W        W84575  43.400  39.170  11.959
18035W        W84576  39.664  26.474  11.637
18036W        W84577  43.546   4.796  14.780
18037W        W84578  29.459  36.988   4.638
18038W        W84579  28.092  24.912  13.478
18039W        W84580  40.548  33.856  14.232
18040W        W84581   8.758  34.616  10.444
18041W        W84582   6.742  41.570   2.911
18042W        W84583   9.732   4.388  13.808
18043W        W84584  24.932  31.994  11.997
18044W        W84585  40.619  32.287   1.708
18045W        W84586  24.176  18.112  12.038
18046W        W84587   6.819   3.689  10.734
18047W        W84588  11.687   6.682   0.454
18048W        W84589  23.254  29.004  13.352
18049W        W84590  29.059   7.879  13.955
18050W        W84591  40.695  21.858   1.282
18051W        W84592  23.456  14.208   1.815
18052W        W84593  38.507   4.237  13.523
18053W        W84594   2.420  13.498   2.282
18054W        W84595  14.842   9.904  13.425
18055W        W84596  22.306  36.614   4.937
18056W        W84597   7.727  36.120   1.650
18057W        W84598  18.174  40.503  14.533
18058W        W84599  34.509   6.490   1.718
18059W        W84600  38.155  35.889  14.388
18060W        W84601  38.611   3.779   0.775
18061W        W84602  40.968  33.876   3.648
18062W        W84603   1.074  36.985   2.466
18063W        W84604  43.285  18.130  13.364
18064W        W84605   9.095  30.130   3.412
18065W        W84606  26.609   0.799   9.999
18066W        W84607  34.934  27.698  12.047
18067W        W84608  28.950  13.299  13.961
18068W        W84609  28.748  11.108  13.401
18069W        W84610   9.185  25.741   2.836
18070W        W84611  40.549  12.830   1.224
18071W        W84612  34.488  13.631  12.073
18072W        W84613  24.033  34.140   3.399
18073W        W84614   4.481   3.414   2.804
18074W        W84615  12.623  26.623  11.512
18075W        W84616  21.064   9.694   2.420
18076W        W84617   8.193  41.706  14.617
18077W        W84618  38.208  41.231   0.053
18078W        W84619  25.607  36.725  14.261
18079W        W84620  31.479  33.712   1.261
18080W        W84621  34.468   8.893  10.648
18081W        W84622  15.708   6.674  11.524
18082W        W84623   0.425  32.748  13.003
18083W        W84624  11.850  20.042   0.594
18084W        W84625  13.675  15.314  11.066
18085W        W84626   9.090  15.520   1.286
18086W        W84627  36.813  17.042   0.441
18087W        W84628   9.081   8.258  13.329
18088W        W84629  27.269   5.774   1.405
18089W        W84630   2.865  16.170   0.381
18090W        W84631   4.328  35.805  12.949
18091W        W84632  39.059  42.594   3.623
18092W        W84633   3.708  16.245  14.801
18093W        W84634  30.039  23.270   3.641
18094W        W84635  25.651   4.204   0.386
18095W        W84636   9.871  33.418  12.863
18096W        W84637  14.263   8.331   0.407
18097W        W84638  22.102  16.719  11.609
18098W        W84639   5.864   7.717   1.231
18099W        W84640  12.903   2.253  10.623
18100W        W84641  37.372  19.494   0.043
18101W        W84642  40.335  26.203   1.867
18102W        W84643  29.230  40.866  13.098
18103W        W84644  36.865  13.837  14.491
18104W        W84645   6.931  33.062   0.852
18105W        W84646  44.491  25.617  12.776
18106W        W84647   8.137  35.970   4.109
18107W        W84648  10.050  20.069  10.695
18108W        W84649  44.294  10.105   0.759
18109W        W84650   7.046  25.260  10.933
18110W        W84651  14.049   7.789   2.802
18111W        W84652  11.768  35.645  10.736
18112W        W84653  17.231   3.439  11.947
18113W        W84654  40.424  20.072  12.481
18114W        W84655   3.178  34.395   2.996
18115W        W84656  37.802  39.922  12.547
18116W        W84657  32.697  32.868  11.136
18117W        W84658  26.430  12.492   0.672
18118W        W84659  29.452  21.051   5.074
18119W        W84660  32.420  17.713   1.857
18120W        W84661  39.052  44.810   1.683
18121W        W84662  30.153  24.883   3.208
18122W        W84663  30.005  31.863   4.757
18123W        W84664  40.283  36.651  13.070
18124W        W84665  32.635  17.593  13.122
18125W        W84666  25.395   8.204  10.867
18126W        W84667   8.846  33.014  12.357
18127W        W84668  40.156  42.736  13.815
18128W        W84669  13.881  44.343   1.761
18129W        W84670  39.454  37.799   2.281
18130W        W84671  36.274  15.952   4.089
18131W        W84672  27.781  30.408   0.138
18132W        W84673   2.442  33.553   3.724
18133W        W84674  28.984  28.047  12.868
18134W        W84675   8.970   2.202  11.093
18135W        W84676   3.413   2.372  13.777
18136W        W84677  12.745  38.530   1.706
18137W        W84678  38.056   5.871  13.646
18138W        W84679  18.055  20.282  11.669
18139W        W84680  39.103   5.444  11.064
18140W        W84681  20.334  32.364   2.872
18141W        W84682  31.986  33.453  14.378
18142W        W84683  33.895  17.243   2.857
18143W        W84684  42.747  31.301   3.110
18144W        W84685  24.982  31.119   3.787
18145W        W84686  37.461  34.004   1.851
18146W        W84687  37.931  24.723   0.895
18147W        W84688  38.234  42.997   2.140
18148W        W84689  28.132  25.522  12.546
18149W        W84690  13.781   6.108  11.134
18150W        W84691  41.372  43.891   2.495
18151W        W84692   3.308   9.505  11.367
18152W        W84693   4.637  35.118  11.010
18153W        W84694  35.529  12.831   1.394
18154W        W84695  11.501  40.911   1.069
18155W        W84696  10.813  34.487  14.043
18156W        W84697   5.730   5.755   4.163
18157W        W84698   2.423   4.905  13.477
18158W        W84699  36.542  26.679   2.082
18159W        W84700  15.555  10.122  14.660
18160W        W84701  18.555  41.905  11.828
18161W        W84702  34.014  25.145   0.868
18162W        W84703  10.905  35.986  14.514
18163W        W84704  22.444  32.069  11.075
18164W        W84705   4.170  43.924  10.958
18165W        W84706  42.786  21.701   4.293
18166W        W84707  22.462  31.490   1.457
18167W        W84708  21.020  32.905   1.011
18168W        W84709  17.691  24.189   3.840
18169W        W84710  23.340  27.647  13.410
18170W        W84711   9.868  18.552   2.988
18171W        W84712  44.006   6.302   0.844
18172W        W84713  40.248  36.408   1.834
18173W        W84714  13.159  29.934   0.023
18174W        W84715  21.508  21.869   2.506
18175W        W84716   1.284  25.937   3.162
18176W        W84717  43.332  30.374  12.695
18177W        W84718   8.799   8.726   0.758
18178W        W84719  16.816  24.060  12.927
18179W        W84720  39.959  31.663  12.259
18180W        W84721  39.641  21.585   2.844
18181W        W84722  20.729   6.888  12.097
18182W        W84723   2.110  12.085   3.766
18183W        W84724  17.995  35.756   0.970
18184W        W84725  18.484   9.836   4.129
18185W        W84726  27.145  19.174   0.892
18186W        W84727   1.393   2.945   1.294
18187W        W84728  37.843  39.076  11.183
18188W        W84729   4.373  29.673  12.972
18189W        W84730   7.273  18.090  13.873
18190W        W84731  38.342   8.060  14.232
18191W        W84732  15.312  18.002   2.654
18192W        W84733   1.245  39.146  12.157
18193W        W84734  24.551  26.444   0.829
18194W        W84735   8.360  26.037   0.070
18195W        W84736   4.725  35.944   0.830
18196W        W84737  41.627  24.572   2.348
18197W        W84738  32.466  14.247  13.416
18198W        W84739  19.605   1.810   3.572
18199W        W84740  16.594  42.539   2.826
18200W        W84741  44.035   4.893   2.217
18201W        W84742  17.054  27.103   0.748
18202W        W84743  25.421  12.629  14.419
18203W        W84744  43.770  14.687  11.448
18204W        W84745   1.996  31.603  13.455
18205W        W84746   0.176  22.769   1.118
18206W        W84747  27.650  13.747   1.425
18207W        W84748  18.045  35.524  12.195
18208W        W84749  36.320  26.057   1.492
18209W        W84750  16.868  33.137   4.376
18210W        W84751  30.113  19.483  12.631
18211W        W84752  43.359  25.495   3.298
18212W        W84753  31.105  28.496   3.633
18213W        W84754  20.992  16.620  13.706
18214W        W84755  17.305   0.413   4.321
18215W        W84756  33.108   9.554   2.592
18216W        W84757  16.357  27.653  10.481
18217W        W84758  44.558  34.202   1.732
18218W        W84759  25.469  17.918   0.414
18219W        W84760  25.294  34.929  14.568
18220W        W84761  28.628  28.577   1.819
18221W        W84762  41.537  29.471  10.954
18222W        W84763  19.038  39.733  13.275
18223W        W84764  35.437  30.866  14.255
18224W        W84765  16.695   1.750  11.220
18225W        W84766  36.175  24.607  11.697
18226W        W84767  27.817  28.434   0.241
18227W        W84768  39.838  15.866   3.702
18228W        W84769  34.475  36.356  12.427
18229W        W84770   5.219  26.286   1.877
18230W        W84771  44.498   4.836   5.161
18231W        W84772   8.173  17.316  10.616
18232W        W84773  34.492  21.014  13.056
18233W        W84774  34.500  16.174   1.213
18234W        W84775  30.580   1.705   2.367
18235W        W84776  23.926  28.666  14.172
18236W        W84777  19.532  34.548  14.181
18237W        W84778  35.107  38.488   0.405
18238W        W84779  22.925  18.289   3.321
18239W        W84780  23.944  31.705   2.164
18240W        W84781   4.093  19.724   5.330
18241W        W84782  43.086  21.136   3.723
18242W        W84783  33.385   9.175  10.167
18243W        W84784  30.720  16.464   4.159
18244W        W84785  13.941  33.003   1.786
18245W        W84786  42.690   4.297  11.122
18246W        W84787  15.352  28.450  11.267
18247W        W84788  12.224   6.713  14.835
18248W        W84789  12.524  41.378   4.556
18249W        W84790  22.415   3.458  13.443
18250W        W84791  36.075   5.778  11.885
18251W        W84792  39.509  18.568  14.082
18252W        W84793  21.873   6.876   2.002
18253W        W84794   6.883  35.511   0.288
18254W        W84795   3.992  26.001  11.819
18255W        W84796  27.788  41.396  15.000
18256W        W84797  37.939  40.435   0.420
18257W        W84798  41.871   5.770  12.095
18258W        W84799  10.075  40.026   2.317
18259W        W84800  39.313  11.592   5.356
18260W        W84801  16.486  37.257  12.053
18261W        W84802  34.970   3.998   1.744
18262W        W84803  43.972  10.186  13.859
18263W        W84804   5.282   1.192   5.559
18264W        W84805  39.884   2.834   4.318
18265W        W84806   9.191   5.244  11.575
18266W        W84807  19.587  30.930  13.912
18267W        W84808  34.787  17.840  13.048
18268W        W84809  13.587  13.602  11.785
18269W        W84810  36.129  23.535  10.671
18270W        W84811  36.943   2.903   1.790
18271W        W84812   0.310   4.231   1.707
18272W        W84813   8.153  37.865   4.925
18273W        W84814   1.463  22.508  11.886
18274W        W84815  39.424  12.433  11.998
18275W        W84816  43.531   3.719  12.481
18276W        W84817  29.287  19.615   0.631
18277W        W84818   2.390   9.281   1.739
18278W        W84819  11.817  43.885   3.942
18279W        W84820  36.504  40.744   4.360
18280W        W84821  11.651  19.765  12.367
18281W        W84822  24.241  13.231   0.981
18282W        W84823  24.009   7.719   4.494
18283W        W84824  10.815  17.297  13.420
18284W        W84825  33.375  18.791  12.030
18285W        W84826  39.415   6.981  13.484
18286W        W84827  42.109  19.564   1.849
18287W        W84828  38.468   1.321   4.431
18288W        W84829  34.473  26.889  12.629
18289W        W84830  33.884   1.584   2.641
18290W        W84831   3.720  42.960  12.485
18291W        W84832  33.988   8.763  11.443
18292W        W84833   6.455  38.829   2.085
18293W        W84834   4.253   0.737  10.220
18294W        W84835  32.552  23.234  11.555
18295W        W84836  10.369  37.378   2.834
18296W        W84837  23.965  17.786  10.756
18297W        W84838  24.848  10.542  10.741
18298W        W84839  12.533  25.711   1.266
18299W        W84840   6.097   3.685  11.932
18300W        W84841  12.771  31.900  14.358
18301W        W84842   4.789   6.534   2.200
18302W        W84843  43.910  36.558  13.013
18303W        W84844   5.339  36.111   0.828
18304W        W84845  12.137  41.682   1.933
18305W        W84846   1.981  23.140  10.301
18306W        W84847  39.034  43.995   4.609
18307W        W84848   3.865   2.539   1.477
18308W        W84849  33.863  15.741  13.394
18309W        W84850  18.072  37.452   2.048
18310W        W84851  36.828  18.121  14.486
18311W        W84852   4.786   8.698   0.171
18312W        W84853  36.127  33.981   1.789
18313W        W84854  25.386  44.527   4.185
18314W        W84855  40.484  43.065  11.217
18315W        W84856  29.416   6.400   0.769
18316W        W84857  42.123   9.312   1.734
18317W        W84858   8.287  40.548   2.797
18318W        W84859   5.923   1.314  13.961
18319W        W84860  12.599  22.117  13.969
18320W        W84861  13.141  27.733  12.473
18321W        W84862   6.664  41.999   1.334
18322W        W84863   2.849  44.266  14.438
18323W        W84864  21.883  21.659  12.879
18324W        W84865  13.772  14.668  10.677
18325W        W84866  14.542   9.378   3.369
18326W        W84867   6.360  15.749  14.011
18327W        W84868  36.381  21.196  10.754
18328W        W84869   5.651  35.804   4.933
18329W        W84870  14.270  30.484   3.028
18330W        W84871  44.228  12.566   4.653
18331W        W84872   2.973  16.811  14.927
18332W        W84873  34.978  11.654  11.973
18333W        W84874  10.892  12.194   4.588
18334W        W84875  41.187  24.311   2.359
18335W        W84876  14.311  22.621   0.891
18336W        W84877  32.956  31.933   4.207
18337W        W84878  30.687  34.694  13.369
18338W        W84879   6.301   4.436  14.773
18339W        W84880   0.390  11.194   1.800
18340W        W84881  16.779   8.437  10.625
18341W        W84882   3.961  18.594  14.810
18342W        W84883   2.886  39.738  10.740
18343W        W84884  34.576  31.634   3.288
18344W        W84885  32.166  26.435   0.275
18345W        W84886  32.609  38.577   1.352
18346W        W84887  44.670   7.168   4.395
18347W        W84888  27.204  41.549  13.146
18348W        W84889  25.157  19.716  13.972
18349W        W84890  16.539  11.520   3.105
18350W        W84891   0.629  23.572   2.424
18351W        W84892  12.253  27.925   2.401
18352W        W84893   0.436  17.696   2.865
18353W        W84894  27.995  42.867  10.546
18354W        W84895  13.630   5.830  10.712
18355W        W84896  23.010   7.273  12.999
18356W        W84897  35.575   1.827   3.514
18357W        W84898  15.857  33.985  11.052
18358W        W84899  18.322  34.580   3.109
18359W        W84900  11.818  37.590   1.315
18360W        W84901  20.373  19.253  10.785
18361W        W84902  11.236  20.058  13.727
18362W        W84903  44.950  32.292  11.074
18363W        W84904   2.460   2.751  13.898
18364W        W84905  17.112  23.275   1.317
18365W        W84906   3.252   3.477  13.937
18366W        W84907   7.358  27.535   3.117
18367W        W84908  37.283   4.683   3.758
18368W        W84909  19.768   9.857  12.401
18369W        W84910  26.740  17.847   2.774
18370W        W84911  24.075  21.474  14.812
18371W        W84912  36.388  42.545   3.295
18372W        W84913   5.481  29.838   1.699
18373W        W84914  36.813  42.567  11.768
18374W        W84915   7.258  12.065  14.845
18375W        W84916  37.563  23.191  12.566
18376W        W84917  42.501  41.879   1.823
18377W        W84918  11.232  35.646  11.425
18378W        W84919   7.841  31.218  10.716
18379W        W84920  10.906  19.008   4.585
18380W        W84921  20.053  24.064   0.942
18381W        W84922   7.962  14.069  12.446
18382W        W84923   2.785  16.100   4.662
18383W        W84924  37.558  21.808   1.777
18384W        W84925  12.088  23.529  11.065
18385W        W84926  22.466   0.808  12.669
18386W        W84927  38.353   2.985   3.322
18387W        W84928  13.556  30.143   2.771
18388W        W84929  41.102   9.336   1.003
18389W        W84930   4.799  21.681  14.612
18390W        W84931  34.205  28.697   1.755
18391W        W84932  26.687   1.352  14.571
18392W        W84933  28.141  13.299  13.538
18393W        W84934  28.377   8.774   0.401
18394W        W84935  31.629  30.058   1.885
18395W        W84936   9.678  18.154  13.147
18396W        W84937  31.720  34.065   3.186
18397W        W84938  24.690  12.426   0.358
18398W        W84939  15.175  35.452   3.228
18399W        W84940   4.770   3.872   4.139
18400W        W84941  26.454   8.621   0.334
18401W        W84942   5.346  20.180  14.493
18402W        W84943   6.378  42.352  10.983
18403W        W84944  39.519  28.470   2.380
18404W        W84945  29.831   8.094   4.580
18405W        W84946  20.074  21.723  11.139
18406W        W84947  16.257   8.602   2.300
18407W        W84948  30.489   1.725  14.932
18408W        W84949  41.337  32.445   0.993
18409W        W84950  43.083  37.789   1.284
18410W        W84951  41.879  40.109   3.040
18411W        W84952  23.063   8.872   3.993
18412W        W84953  36.544  13.137   1.021
18413W        W84954   7.893  35.504   0.403
18414W        W84955  32.284  42.854   1.724
18415W        W84956  28.045  39.250  11.510
18416W        W84957  11.215   5.951   4.372
18417W        W84958   1.313  29.995  11.923
18418W        W84959  36.990  40.391   1.800
18419W        W84960  43.683   6.158   1.219
18420W        W84961   3.833  22.688   4.574
18421W        W84962  43.643   3.886   1.517
18422W        W84963  41.870  23.045  12.364
18423W        W84964  19.433  25.730  11.379
18424W        W84965   3.350   5.865   0.977
18425W        W84966  41.975   4.169  10.742
18426W        W84967  23.108   1.031   1.232
18427W        W84968  28.727  15.842  11.496
18428W        W84969   0.440  30.483  10.294
18429W        W84970   0.132  35.582  10.800
18430W        W84971   4.196  16.262  10.639
18431W        W84972  41.867  41.063   4.616
18432W        W84973   8.463  38.215   1.248
18433W        W84974   0.546  15.850  12.180
18434W        W84975  32.569  35.123   2.905
18435W        W84976   2.359  12.384   1.454
18436W        W84977   0.689  15.267  14.886
18437W        W84978  13.749  33.612  13.549
18438W        W84979   6.403  14.205  12.172
18439W        W84980   1.888  10.378  14.715
18440W        W84981  43.770   6.187   4.160
18441W        W84982  22.637  24.755   3.312
18442W        W84983  43.648  35.191  13.022
18443W        W84984  13.784   0.312  12.414
18444W        W84985   2.919   3.892   1.340
18445W        W84986   8.256  40.582  12.095
18446W        W84987  17.614  33.823  13.840
18447W        W84988   3.908  22.624  10.165
18448W        W84989   1.702   5.500  10.322
18449W        W84990  29.869   4.448   2.205
18450W        W84991  26.251  14.790  11.470
18451W        W84992   0.305  38.838  14.418
18452W        W84993   1.091  42.527   3.321
18453W        W84994  42.354  44.675  13.392
18454W        W84995  30.720  29.159   1.260
18455W        W84996   4.231  38.972   2.583
18456W        W84997  14.682  15.762  14.867
18457W        W84998  27.482  39.331  11.353
18458W        W84999  14.182   0.049  11.670
18459W        W85000  31.470  39.954  14.370
18460W        W85001  41.009  25.538  13.006
18461W        W85002  31.112  17.475   5.038
18462W        W85003  21.259  43.391  12.976
18463W        W85004  21.403   7.411   1.419
18464W        W85005  18.349  25.935   4.692
18465W        W85006   8.675  29.969  11.268
18466W        W85007  13.798  32.975   0.823
18467W        W85008  19.650  42.835   1.230
18468W        W85009  14.570  43.291   4.127
18469W        W85010  29.734  32.427   0.329
18470W        W85011   8.730  34.468   2.221
18471W        W85012  40.012  43.835  14.390
18472W        W85013   7.746  43.777   3.794
18473W        W85014  17.369  17.565   3.832
18474W        W85015  36.551  25.530   4.108
18475W        W85016   2.770  35.866  13.408
18476W        W85017  29.421   0.440   1.950
18477W        W85018  20.657  18.755  14.207
18478W        W85019  33.512  12.376  14.427
18479W        W85020  10.591  26.837   0.400
18480W        W85021  41.640  35.660  12.641
18481W        W85022  11.330  27.921   2.190
18482W        W85023  35.078  35.044  14.499
18483W        W85024  39.905  15.709   0.714
18484W        W85025  22.699  25.439   0.486
18485W        W85026  19.689  16.004   2.809
18486W        W85027   4.432   1.865  11.347
18487W        W85028  41.260   4.205  13.989
18488W        W85029  20.036   7.881   1.021
18489W        W85030  40.789   9.219  11.093
18490W        W85031  42.010  31.176  10.680
18491W        W85032  23.794  21.568  12.005
18492W        W85033  24.665   3.254  12.544
18493W        W85034  43.860  11.024  11.616
18494W        W85035  25.313  43.547   2.326
18495W        W85036  19.122  28.087   2.825
18496W        W85037  16.620  41.499  12.857
18497W        W85038  41.272   9.756   4.126
18498W        W85039  29.213  15.818  13.979
18499W        W85040  30.633   6.079   0.518
18500W        W85041  13.098  34.075  11.116
18501W        W85042   3.427  24.769  12.075
18502W        W85043  14.197   5.894   4.170
18503W        W85044  24.711   2.809   4.556
18504W        W85045  10.867  34.620   2.317
18505W        W85046  14.107  34.070  11.022
18506W        W85047  43.243  44.234  10.993
18507W        W85048  14.784   1.372   2.378
18508W        W85049  13.189  42.859  13.610
18509W        W85050  38.464   8.185  14.704
18510W        W85051  27.353  36.988   1.942
18511W        W85052   2.794   9.151  12.608
18512W        W85053  11.690   2.225  10.255
18513W        W85054  14.862  10.620  13.858
18514W        W85055   6.251   2.049   0.685
18515W        W85056  18.350  26.683  11.940
18516W        W85057  21.023  18.097   4.467
18517W        W85058  15.108  36.877  11.554
18518W        W85059   1.507  17.620  13.896
18519W        W85060  25.093  15.824   3.296
18520W        W85061  16.717  36.565  12.484
18521W        W85062   6.951  34.947   0.965
18522W        W85063   3.357  22.702  12.395
18523W        W85064  35.435  37.680  11.905
18524W        W85065   1.893  31.502  11.682
18525W        W85066  44.821  32.664  10.716
18526W        W85067  13.618  14.232   0.049
18527W        W85068  38.310  29.671   4.250
18528W        W85069  16.426  28.093   0.322
18529W        W85070  31.702  16.446   4.118
18530W        W85071  34.115  24.647  11.653
18531W        W85072  23.555  16.459   2.797
18532W        W85073  17.091  44.394   4.195
18533W        W85074  35.934   1.472   3.431
18534W        W85075  25.463  31.754   2.128
18535W        W85076  34.517  15.969   4.752
18536W        W85077  18.469   6.459  12.026
18537W        W85078  41.476  13.354   0.369
18538W        W85079  37.395  16.382  14.535
18539W        W85080  19.122  23.752   0.767
18540W        W85081  19.053  19.557   4.116
18541W        W85082  37.859  23.479  12.904
18542W        W85083   0.945   5.799   1.869
18543W        W85084  33.441  39.544  12.447
18544W        W85085  30.989   9.853  14.965
18545W        W85086   3.723  37.011   0.593
18546W        W85087  26.513  30.186   3.244
18547W        W85088  19.743  32.574   0.659
18548W        W85089  10.639  23.086  12.655
18549W        W85090   7.783  12.676   3.377
18550W        W85091   2.402  29.232  11.641
18551W        W85092  18.133  27.544  10.473
18552W        W85093  32.212   9.354   4.768
18553W        W85094  14.448   8.394  10.453
18554W        W85095   9.135  18.972   3.003
18555W        W85096  42.999  36.105   1.875
18556W        W85097   5.343   9.686  12.363
18557W        W85098  26.006  23.976  12.019
18558W        W85099  36.323  29.432  11.199
18559W        W85100  12.405  21.354   4.889
18560W        W85101  16.385  38.844   2.694
18561W        W85102  18.654  20.928   4.525
18562W        W85103  26.664  15.239  13.292
18563W        W85104  42.583  41.382   1.672
18564W        W85105  28.290  41.327  14.281
18565W        W85106  13.263  22.234   4.298
18566W        W85107  27.306  29.862  13.542
18567W        W85108   3.935   3.414   2.818
18568W        W85109   1.059  23.214  11.708
18569W        W85110  10.369   4.380   1.523
18570W        W85111   6.859  25.698  14.477
18571W        W85112  15.365  24.058   0.882
18572W        W85113  32.934  39.277   4.679
18573W        W85114  24.251  12.604  11.393
18574W        W85115  18.478  18.564  13.045
18575W        W85116   9.412  40.741  11.274
18576W        W85117   8.538  21.669   3.376
18577W        W85118  31.452  31.370  14.959
18578W        W85119  22.957  16.749  12.990
18579W        W85120  44.301  32.922   3.174
18580W        W85121  26.915  35.872   4.060
18581W        W85122  30.579  23.786   5.063
18582W        W85123  29.475  30.894   4.230
18583W        W85124  37.033   4.226   3.642
18584W        W85125  20.224  10.804   3.376
18585W        W85126  35.875  25.207  10.637
18586W        W85127  30.140  36.767   1.322
18587W        W85128   4.280  26.344   4.924
18588W        W85129   0.287  17.908   4.598
18589W        W85130  14.405   8.897   3.216
18590W        W85131  23.407   0.867  10.671
18591W        W85132  31.164  16.210  14.044
18592W        W85133  44.272  28.936  11.933
18593W        W85134   1.275  35.654   4.741
18594W        W85135  33.444  18.634   0.897
18595W        W85136  18.569   2.442  12.915
18596W        W85137   7.888  29.592  13.361
18597W        W85138  30.107  34.680   0.645
18598W        W85139   6.953   4.984   4.340
18599W        W85140  39.042  32.381  10.748
18600W        W85141  29.217  14.749   3.731
18601W        W85142   5.976  31.174  11.120
18602W        W85143  36.412  41.815   1.706
18603W        W85144   1.674   1.265  12.942
18604W        W85145  32.165  25.678  12.772
18605W        W85146  18.658  19.787  12.834
18606W        W85147  39.059  16.661   4.343
18607W        W85148   4.433   9.399   3.258
18608W        W85149  38.268  33.848  14.264
18609W        W85150  19.286  40.297   2.719
18610W        W85151  43.903  29.430  10.486
18611W        W85152   1.974  12.612  13.899
18612W        W85153  33.328   4.674  14.439
18613W        W85154  28.127   1.239   0.866
18614W        W85155   6.913   7.713  11.102
18615W        W85156   6.823  14.747  12.853
18616W        W85157   2.760  14.851  11.239
18617W        W85158  37.337  22.714   3.326
18618W        W85159   4.666   6.258   1.773
18619W        W85160  34.487  22.470   2.883
18620W        W85161  22.317  18.269  13.859
18621W        W85162  31.646   2.307   3.145
18622W        W85163   1.771  24.647   2.335
18623W        W85164  42.371  16.592  13.526
18624W        W85165  22.709  16.912  14.749
18625W        W85166  23.321  24.008  12.220
18626W        W85167  11.154  12.893  13.587
18627W        W85168  26.624  22.213  12.854
18628W        W85169  39.936  13.843   1.827
18629W        W85170   4.411  18.341  12.042
18630W        W85171  25.539  14.215   2.581
18631W        W85172   5.344  29.849   4.626
18632W        W85173   2.640  15.503   2.214
18633W        W85174   1.923  31.014   3.144
18634W        W85175   0.842  26.609   3.465
18635W        W85176  17.653  24.678  13.881
18636W        W85177  31.504  16.345   4.776
18637W        W85178   4.349   0.104  13.637
18638W        W85179  27.949  36.874  11.522
18639W        W85180   0.368  26.953  11.992
18640W        W85181  33.477  31.198  12.007
18641W        W85182  36.325  18.266  11.986
18642W        W85183  36.568  29.429  11.650
18643W        W85184  18.147  15.974   0.069
18644W        W85185  26.328  11.398   1.534
18645W        W85186  20.275  32.034   2.234
18646W        W85187  27.585  26.897  10.918
18647W        W85188  35.066  17.980  13.463
18648W        W85189  32.453  30.703   9.778
18649W        W85190  44.350   1.973   4.978
18650W        W85191  11.138  20.694   2.723
18651W        W85192   6.900   4.472  10.508
18652W        W85193   9.925  13.790   0.276
18653W        W85194   2.907   9.276   1.854
18654W        W85195  35.544   0.183  13.976
18655W        W85196  33.708   4.920   4.338
18656W        W85197  33.048  19.248  13.818
18657W        W85198  17.345  19.564   4.632
18658W        W85199  42.236  38.537   2.594
18659W        W85200  44.566  16.447   2.372
18660W        W85201  11.465  12.100  14.514
18661W        W85202  14.688  35.799  14.616
18662W        W85203  23.566  14.194  11.691
18663W        W85204  15.634  27.518  11.058
18664W        W85205  38.377  35.607   1.737
18665W        W85206   2.359   1.932  14.366
18666W        W85207  33.131  29.182  13.310
18667W        W85208  14.040   2.401   1.381
18668W        W85209  36.029  20.626  13.396
18669W        W85210  31.619  10.153   1.763
18670W        W85211  40.563  18.570  14.198
18671W        W85212  43.472  15.378   1.006
18672W        W85213  23.503  26.556   3.332
18673W        W85214  17.858  22.610   3.324
18674W        W85215  25.764   1.143   0.829
18675W        W85216  23.064  26.716   4.549
18676W        W85217  21.202   6.197   2.914
18677W        W85218  20.979   4.342  13.517
18678W        W85219  23.131   0.831  11.487
18679W        W85220   4.340   5.876  10.388
18680W        W85221  27.868  10.352   5.025
18681W        W85222   4.802  40.851  14.525
18682W        W85223   7.762   1.066  11.712
18683W        W85224   5.110  15.133   4.113
18684W        W85225  37.599   9.364  12.538
18685W        W85226  17.559   5.223  11.571
18686W        W85227  11.393  40.187   3.729
18687W        W85228   7.316  12.101  14.010
18688W        W85229  35.458  38.740   0.704
18689W        W85230   2.192  33.823  13.467
18690W        W85231  23.606  14.428  11.019
18691W        W85232   9.287  39.658   1.852
18692W        W85233  19.236  36.596   4.442
18693W        W85234  26.474  16.384   0.516
18694W        W85235   2.376   5.686  11.620
18695W        W85236  27.733  42.522  13.600
18696W        W85237  20.307  23.059  14.833
18697W        W85238  13.269   7.242   1.804
18698W        W85239  37.399   0.694   2.668
18699W        W85240  40.255  36.385  12.605
18700W        W85241  38.014  42.933   0.389
18701W        W85242  18.152   8.437   4.298
18702W        W85243  35.417   2.187   1.028
18703W        W85244   9.381  27.067   0.771
18704W        W85245   6.341  18.240   2.672
18705W        W85246  15.003  12.560   3.169
18706W        W85247   1.533  41.047  14.043
18707W        W85248  44.425  42.285   3.818
18708W        W85249  35.214  38.274  12.416
18709W        W85250  29.853   4.827   0.518
18710W        W85251  28.640  28.110  13.287
18711W        W85252  17.618  28.234  14.514
18712W        W85253  29.679   0.749   0.796
18713W        W85254   2.765  17.518   2.816
18714W        W85255  33.461  19.124   1.981
18715W        W85256   7.880  32.933  13.182
18716W        W85257   3.257   0.617   2.329
18717W        W85258  35.610   1.521   2.228
18718W        W85259  22.082  13.156   4.427
18719W        W85260  37.796  44.731   0.010
18720W        W85261  36.919   3.179  11.092
18721W        W85262  40.583  11.129  11.613
18722W        W85263  20.695  27.721  14.402
18723W        W85264  31.023  31.807   4.714
18724W        W85265  17.647  33.597   0.188
18725W        W85266  39.975  26.435   0.413
18726W        W85267  12.277  15.151  14.964
18727W        W85268  27.932   2.717   3.726
18728W        W85269   3.683  43.804  12.006
18729W        W85270  25.033   3.401  13.815
18730W        W85271  43.350  31.160   1.813
18731W        W85272  32.119  43.549  13.574
18732W        W85273   2.440  25.068  14.748
18733W        W85274  34.998  42.549  12.108
18734W        W85275  20.246  40.246  13.317
18735W        W85276  15.185  12.167   2.815
18736W        W85277  35.374  44.216   3.621
18737W        W85278   1.127  26.380   5.291
18738W        W85279  32.762  17.002   4.125
18739W        W85280  19.610   8.956  12.233
18740W        W85281  31.098   2.910   0.969
18741W        W85282  19.684   4.048  13.371
18742W        W85283  14.141  27.800   2.220
18743W        W85284  17.806  17.249   1.401
18744W        W85285  26.261   3.544  14.277
18745W        W85286   7.801   0.027   3.404
18746W        W85287  39.291  38.902  13.111
18747W        W85288   2.954  41.189   0.029
18748W        W85289  22.780   1.014   0.091
18749W        W85290  14.762   6.295  14.406
18750W        W85291  29.130  13.884  11.121
18751W        W85292  42.500   3.546   2.359
18752W        W85293  32.510  15.839   0.396
18753W        W85294  43.923  12.718   0.673
18754W        W85295  38.007  24.800  14.374
18755W        W85296  11.833  21.579  10.501
18756W        W85297   9.755  31.079  11.333
18757W        W85298   6.735  10.700   3.725
18758W        W85299   4.448  12.659  12.599
18759W        W85300  14.714  37.427   0.454
18760W        W85301  14.183  13.176  12.952
18761W        W85302  43.985   2.168   4.156
18762W        W85303   5.086  12.591  11.623
18763W        W85304  11.580   9.152   2.165
18764W        W85305  44.406  33.640   1.300
18765W        W85306  11.645  34.934  14.880
18766W        W85307  14.729   5.401   0.769
18767W        W85308  39.497   3.788   3.786
18768W        W85309  29.517   3.295  12.012
18769W        W85310  16.117   7.688   2.716
18770W        W85311  43.071   7.284   3.808
18771W        W85312  26.976  40.967   4.438
18772W        W85313  12.663  36.619  14.959
18773W        W85314  17.179  41.009   1.165
18774W        W85315  42.428  38.464  13.462
18775W        W85316   6.131  39.894  10.515
18776W        W85317  20.029  34.403  12.441
18777W        W85318  33.424  15.330   1.417
18778W        W85319  42.830  39.284   0.228
18779W        W85320  26.065   3.692  12.542
18780W        W85321  26.463   2.031   2.661
18781W        W85322   3.443  42.524   1.062
18782W        W85323  41.389  23.017  12.910
18783W        W85324  39.428  39.403   0.964
18784W        W85325   7.726  24.025  11.152
18785W        W85326  40.276   8.724   1.984
18786W        W85327  26.742   2.945  13.648
18787W        W85328   6.243   2.320  10.329
18788W        W85329  41.396  15.770  11.538
18789W        W85330  10.877   5.242  11.101
18790W        W85331  35.824   6.872   1.922
18791W        W85332  40.947  40.327   3.845
18792W        W85333  15.360  15.200   4.150
18793W        W85334  43.769   6.804   2.931
18794W        W85335  29.208  17.683   3.291
18795W        W85336  20.296  23.588  14.863
18796W        W85337   3.292  44.752  12.087
18797W        W85338  43.843   7.297  11.946
18798W        W85339  10.181  15.760  14.853
18799W        W85340  30.242  20.238  11.153
18800W        W85341  27.371  12.573   0.773
18801W        W85342  30.398   4.821  12.072
18802W        W85343  19.585  22.573  14.904
18803W        W85344  37.941  35.376   1.952
18804W        W85345  25.718  16.878   0.427
18805W        W85346  12.083  43.700   0.299
18806W        W85347   1.338  16.962  14.186
18807W        W85348  25.116  33.744  12.051
18808W        W85349  43.485  21.363  11.984
18809W        W85350  40.571  42.298   2.752
18810W        W85351  20.156  33.237  13.101
18811W        W85352  27.076   0.597  12.474
18812W        W85353  25.179  35.208   0.526
18813W        W85354  37.119  26.148  11.481
18814W        W85355  22.085  30.686  12.516
18815W        W85356  39.074  31.579  14.360
18816W        W85357  42.632  32.932   3.665
18817W        W85358  11.706  14.241  12.533
18818W        W85359  35.320  13.037  13.070
18819W        W85360  26.682  31.667  12.731
18820W        W85361  40.397  10.142  10.828
18821W        W85362  32.973  14.652  14.076
18822W        W85363  42.910  39.908   1.772
18823W        W85364   9.326  30.667  13.088
18824W        W85365  10.137  28.245  13.375
18825W        W85366   7.759  37.942  12.171
18826W        W85367  14.191  42.559   0.843
18827W        W85368  37.542  40.537  10.523
18828W        W85369   5.338  35.576   0.719
18829W        W85370  11.627  13.372  12.681
18830W        W85371  31.477  39.360  11.998
18831W        W85372   5.425  26.108  12.878
18832W        W85373  30.040   4.490   2.877
18833W        W85374  30.477  24.984   1.093
18834W        W85375  40.706  43.492   1.711
18835W        W85376  44.571   3.306   4.386
18836W        W85377  29.951  26.136  12.568
18837W        W85378  42.993   4.208  13.528
18838W        W85379  23.694   2.338   4.077
18839W        W85380  35.025  11.071  12.048
18840W        W85381  37.174  10.964  10.696
18841W        W85382  43.970  32.859  13.914
18842W        W85383  29.277  26.938  14.379
18843W        W85384  16.372   6.277   2.856
18844W        W85385  11.592  13.435   2.562
18845W        W85386  42.979  26.374   2.006
18846W        W85387  23.466   9.440   5.463
18847W        W85388  20.569  29.358  13.897
18848W        W85389  35.877   0.859  14.625
18849W        W85390   1.382  34.881   0.356
18850W        W85391  24.608  32.386  10.744
18851W        W85392  42.925  19.312   4.193
18852W        W85393  43.785  24.951   4.331
18853W        W85394  27.728  37.471  11.609
18854W        W85395   6.189  26.782  11.130
18855W        W85396  23.305   5.285   3.133
18856W        W85397  36.865  17.136  11.094
18857W        W85398   7.158   1.000  12.004
18858W        W85399  10.249  24.052  10.352
18859W        W85400  21.666  34.519  11.205
18860W        W85401  18.858  16.408  12.029
18861W        W85402  35.903   6.704  11.009
18862W        W85403   0.819  41.045   2.231
18863W        W85404  21.305  40.807  13.995
18864W        W85405   3.675  14.412   4.044
18865W        W85406  32.792   3.954  12.998
18866W        W85407  31.589  39.445  14.316
18867W        W85408  44.031  33.363  13.853
18868W        W85409  21.495  24.538  13.872
18869W        W85410  30.588  23.499  11.082
18870W        W85411  44.890  15.036  13.451
18871W        W85412  44.459  41.486  10.981
18872W        W85413  37.008  24.606   2.930
18873W        W85414  22.799  18.569   2.265
18874W        W85415   7.883  29.175  13.061
18875W        W85416   9.301   6.924   3.180
18876W        W85417  19.211  32.036  11.392
18877W        W85418  32.662  39.068  11.480
18878W        W85419   9.500  14.161  11.785
18879W        W85420  13.689  32.602  11.897
18880W        W85421   5.863  41.490   0.221
18881W        W85422  18.731  28.238  12.970
18882W        W85423  37.208  12.651   3.195
18883W        W85424  29.399   8.240   1.693
18884W        W85425   0.045  16.609   4.715
18885W        W85426  38.516  44.801   3.975
18886W        W85427  37.093  24.962   2.263
18887W        W85428  36.289  37.859   3.712
18888W        W85429  16.887  41.116  14.826
18889W        W85430  20.147  17.640   9.928
18890W        W85431  16.075  15.313   3.599
18891W        W85432   4.738  43.869  13.604
18892W        W85433  38.633  24.374   0.982
18893W        W85434   2.071   7.395   1.339
18894W        W85435  39.956  22.639  12.449
18895W        W85436   4.980   0.989   0.146
18896W        W85437  35.782  15.149   2.818
18897W        W85438  28.848  29.734   0.239
18898W        W85439  26.656   0.902  14.289
18899W        W85440  27.481   3.576  10.442
18900W        W85441  12.262  14.772   4.770
18901W        W85442  36.956  39.613  11.197
18902W        W85443  38.133  38.061   0.186
18903W        W85444  27.110  12.181   2.108
18904W        W85445   0.697   6.225  10.831
18905W        W85446  14.311  37.027   2.629
18906W        W85447  42.115  41.056  13.344
18907W        W85448  38.974   6.713  13.406
18908W        W85449  40.088  14.164   3.178
18909W        W85450  29.507  21.286  11.846
18910W        W85451  35.396  30.162   0.702
18911W        W85452  31.597  32.297  13.371
18912W        W85453  39.866  21.485   2.361
18913W        W85454  36.442  29.404   1.385
18914W        W85455  19.831  13.269   3.720
18915W        W85456  24.814  11.317  14.426
18916W        W85457  21.498  32.154  11.110
18917W        W85458   0.772  18.490  11.276
18918W        W85459   4.738   7.762  14.815
18919W        W85460  21.483  39.804  10.644
18920W        W85461  33.680  34.992   3.366
18921W        W85462  10.840   8.145  12.070
18922W        W85463  10.791   6.606  13.037
18923W        W85464  27.964  25.830  14.253
18924W        W85465  13.683  14.961  14.260
18925W        W85466  37.929  35.853   0.880
18926W        W85467  17.101  22.065  11.766
18927W        W85468   4.788  21.519   1.743
18928W        W85469   9.700   6.160   4.250
18929W        W85470  22.170  21.318  13.620
18930W        W85471  22.657  21.102  10.679
18931W        W85472  22.541  30.003  12.926
18932W        W85473  37.919   9.560   2.764
18933W        W85474  22.556  14.349   2.688
18934W        W85475  34.296  22.652   0.836
18935W        W85476  26.889  17.054  14.713
18936W        W85477  35.415   1.734   4.853
18937W        W85478  33.102   3.129   2.293
18938W        W85479  29.069  36.590   4.444
18939W        W85480  27.961  22.514   0.471
18940W        W85481  34.407  27.975  10.610
18941W        W85482  29.575  39.034  13.615
18942W        W85483  39.231  26.769   1.768
18943W        W85484  26.575  42.791   2.209
18944W        W85485  17.001  37.852  13.433
18945W        W85486   4.001  16.655  14.965
18946W        W85487   9.831  31.069   0.937
18947W        W85488  11.385  37.283   2.738
18948W        W85489  24.489  29.524  11.399
18949W        W85490  40.133  43.944  13.891
18950W        W85491  21.536  34.661   3.144
18951W        W85492  42.046  20.092  13.890
18952W        W85493  43.225  28.715  14.354
18953W        W85494  10.629   9.785  12.029
18954W        W85495  44.028   5.798  13.796
18955W        W85496  44.014  25.171   1.441
18956W        W85497  34.114  21.227   0.960
18957W        W85498  25.544  39.831   3.494
18958W        W85499  24.787   4.307  10.238
18959W        W85500  31.306  42.135   4.306
18960W        W85501  36.498  40.352  12.943
18961W        W85502  30.086  31.908  11.010
18962W        W85503  17.099  20.438  12.531
18963W        W85504  13.275  25.663  14.464
18964W        W85505   6.817  34.327   0.572
18965W        W85506  29.118  29.368   2.034
18966W        W85507   1.449  33.093  12.389
18967W        W85508   4.426  29.068   0.290
18968W        W85509  28.913  19.707  11.142
18969W        W85510  28.417   9.210   0.105
18970W        W85511  31.387  13.226  14.841
18971W        W85512  16.221  43.487  14.260
18972W        W85513  41.570  22.440   0.043
18973W        W85514  40.814   0.250   2.313
18974W        W85515   3.229  20.999   2.334
18975W        W85516   6.277   9.997  11.466
18976W        W85517  29.960  25.822   1.771
18977W        W85518  36.991  12.491   2.753
18978W        W85519  36.958  12.483  10.736
18979W        W85520  27.960  30.888  14.800
18980W        W85521   5.809   7.830  12.051
18981W        W85522  40.712  17.744  10.199
18982W        W85523  38.903  18.702  14.798
18983W        W85524  10.219  18.793   1.213
18984W        W85525  37.275  22.078   0.786
18985W        W85526  24.030  36.608  12.977
18986W        W85527  27.276  14.792  10.162
18987W        W85528  10.189  32.610  13.733
18988W        W85529  31.114   6.712   0.914
18989W        W85530  40.060  34.706   2.793
18990W        W85531  30.896   6.917   3.480
18991W        W85532  29.632  10.304   2.756
18992W        W85533   9.695  42.868   1.192
18993W        W85534   9.760  18.947   4.244
18994W        W85535  30.095  38.871  11.183
18995W        W85536   6.165  16.691   4.673
18996W        W85537  42.572  34.602   1.174
18997W        W85538  19.360   4.801   1.830
18998W        W85539   7.218  26.022  10.511
18999W        W85540  28.496  36.985   2.377
19000W        W85541  33.135  38.940  13.182
19001W        W85542  21.456   5.522  11.731
19002W        W85543  40.883  38.558   4.427
19003W        W85544  40.125  32.941   2.313
19004W        W85545  38.853   7.475  13.902
19005W        W85546  22.250  11.280   4.321
19006W        W85547   6.688  29.267   3.194
19007W        W85548  12.937  44.805   0.415
19008W        W85549  20.211  32.850   1.844
19009W        W85550  40.100  38.157   3.229
19010W        W85551  21.563  29.678  14.070
19011W        W85552  27.611  23.609   1.929
19012W        W85553   5.136  22.272   3.300
19013W        W85554  12.592  32.197   2.716
19014W        W85555   3.166  12.921   4.749
19015W        W85556  15.163  17.630   1.949
19016W        W85557  41.413   5.255  10.672
19017W        W85558  27.201  27.495  12.814
19018W        W85559  32.427  11.415  12.592
19019W        W85560  16.654  25.103   2.744
19020W        W85561  40.629  44.663  14.558
19021W        W85562  35.440  13.601   3.543
19022W        W85563  29.452  13.658   3.841
19023W        W85564  40.907  38.129   0.384
19024W        W85565  19.235  39.458   1.672
19025W        W85566  31.650  31.905  12.517
19026W        W85567  30.362   8.426  12.508
19027W        W85568  28.056   5.616  11.461
19028W        W85569  28.737  17.123   1.099
19029W        W85570   3.976  20.600  14.794
19030W        W85571  33.599  38.057   4.103
19031W        W85572  31.128   7.381   3.358
19032W        W85573  38.559  21.297  14.783
19033W        W85574  38.086  19.165   0.368
19034W        W85575  10.341  20.165   4.517
19035W        W85576  32.529  36.556  12.914
19036W        W85577   1.639  10.172  10.734
19037W        W85578  22.280  17.862  13.541
19038W        W85579  43.694   1.332  10.505
19039W        W85580  10.289  38.199   3.630
19040W        W85581  14.616  42.277  11.956
19041W        W85582   5.218  28.087  10.707
19042W        W85583  37.590  21.083  13.863
19043W        W85584  34.984  31.760  11.648
19044W        W85585  20.585  43.473  12.395
19045W        W85586  24.497  33.164   4.298
19046W        W85587   1.147  39.766   1.474
19047W        W85588  39.415   1.494  13.484
19048W        W85589  18.241  31.703  13.111
19049W        W85590  42.874  44.591  12.865
19050W        W85591  37.829  22.314  13.378
19051W        W85592   6.823  33.369   4.525
19052W        W85593  30.151  22.705   2.638
19053W        W85594  37.925  32.215  14.937
19054W        W85595  12.317  39.418   3.180
19055W        W85596  34.059  17.315  13.402
19056W        W85597  41.385  21.647  11.816
19057W        W85598  15.518  30.192   4.316
19058W        W85599   1.554  27.371  11.462
19059W        W85600  38.761  33.412  10.624
19060W        W85601  39.211   4.438  14.324
19061W        W85602   3.133  44.907   5.394
19062W        W85603  13.158  21.287   1.133
19063W        W85604   9.084   7.729   0.438
19064W        W85605  16.889  23.721  10.944
19065W        W85606  25.692  20.967   4.695
19066W        W85607  14.847  26.075  10.911
19067W        W85608  25.322  28.985   1.075
19068W        W85609  44.014  43.539  10.789
19069W        W85610  19.073  14.804  11.161
19070W        W85611  22.617   4.633   0.198
19071W        W85612  12.489  30.918   9.827
19072W        W85613  42.939  31.453   1.829
19073W        W85614  42.970   8.297  11.624
19074W        W85615   4.165  17.805   2.796
19075W        W85616  30.411   3.916   3.729
19076W        W85617  20.628  18.510  11.871
19077W        W85618  37.573  34.823   0.484
19078W        W85619  42.992  26.212   3.236
19079W        W85620   7.321  37.444   1.755
19080W        W85621   0.025  33.457   4.002
19081W        W85622  36.999  11.467  10.624
19082W        W85623   6.279   1.044   0.821
19083W        W85624   4.504  14.556  12.453
19084W        W85625  34.294   0.529   3.194
19085W        W85626  38.341  23.531   0.446
19086W        W85627  13.275  19.758   0.214
19087W        W85628   7.815  16.028   4.250
19088W        W85629  37.548  15.252  10.210
19089W        W85630  30.166  31.174  12.084
19090W        W85631  22.330   2.493   0.958
19091W        W85632  38.281  15.231   2.675
19092W        W85633  21.115  38.857   4.624
19093W        W85634  38.431  36.979  13.347
19094W        W85635  38.736   5.646  12.494
19095W        W85636  33.353  17.106   1.781
19096W        W85637   5.648  41.890   4.572
19097W        W85638  37.522  21.685   0.310
19098W        W85639  11.874  35.863  13.019
19099W        W85640  40.861  35.343  13.218
19100W        W85641   3.129  44.977   4.020
19101W        W85642  20.300  33.958  12.363
19102W        W85643  34.565  14.202  14.095
19103W        W85644  11.565  13.760   4.291
19104W        W85645  29.705  38.835  10.846
19105W        W85646  27.885  34.842  11.425
19106W        W85647  40.471   6.465   3.280
19107W        W85648  41.752  26.647   0.212
19108W        W85649  37.603  32.202   0.358
19109W        W85650  18.278  32.054  10.927
19110W        W85651  37.102   4.170  10.778
19111W        W85652  32.396  22.110  12.149
19112W        W85653   8.245   6.362  14.903
19113W        W85654  18.199   5.756   4.152
19114W        W85655   1.886   0.742   1.405
19115W        W85656  42.043   9.748  11.265
19116W        W85657  42.363   2.979   0.026
19117W        W85658  16.264  28.404   1.509
19118W        W85659  32.576   5.447  13.144
19119W        W85660  20.240  43.601  13.042
19120W        W85661  10.526  21.183  12.605
19121W        W85662  44.504  31.851   4.596
19122W        W85663  27.016  33.730  11.911
19123W        W85664  20.682  17.239  11.619
19124W        W85665  34.896   1.761  13.465
19125W        W85666   2.339  26.588   3.306
19126W        W85667  10.908  38.031   3.459
19127W        W85668  44.938  28.113   2.331
19128W        W85669  28.609   2.398  12.770
19129W        W85670  27.908  34.381   3.199
19130W        W85671  30.479  15.774   0.033
19131W        W85672  34.944  10.082  11.668
19132W        W85673  43.448  27.291  14.463
19133W        W85674  41.368  15.133   1.654
19134W        W85675  13.915   9.470  11.799
19135W        W85676  25.799  42.709   3.627
19136W        W85677  34.889   1.010   1.917
19137W        W85678  26.569  44.050   0.002
19138W        W85679   1.363  22.671  13.241
19139W        W85680  14.061  14.353   4.298
19140W        W85681  37.620  40.310   3.763
19141W        W85682   4.610   5.464   3.753
19142W        W85683  18.178  22.807   2.998
19143W        W85684  38.403  27.363   0.534
19144W        W85685   2.035  31.017  12.913
19145W        W85686   6.334  44.480  12.486
19146W        W85687  40.473  42.954   5.236
19147W        W85688   3.624  29.853   0.959
19148W        W85689  32.582   9.406   4.346
19149W        W85690  28.226  21.060   1.878
19150W        W85691  24.478  23.169   1.437
19151W        W85692  28.496  20.105  12.545
19152W        W85693   7.042  16.290  10.446
19153W        W85694  32.244   9.216  13.758
19154W        W85695  43.411  35.515   2.827
19155W        W85696  29.051  29.030   0.705
19156W        W85697  22.754  20.684  11.484
19157W        W85698  13.832   7.712  13.964
19158W        W85699  33.956  14.098   3.787
19159W        W85700  12.831   4.197  14.885
19160W        W85701   5.849  43.145  12.403
19161W        W85702  28.018  42.876   3.524
19162W        W85703  15.230  10.957   4.492
19163W        W85704  25.423  33.863   3.212
19164W        W85705  43.478   6.360   3.508
19165W        W85706  37.398   3.030  11.997
19166W        W85707   3.863   6.356  10.934
19167W        W85708   2.190  29.723   0.206
19168W        W85709  19.953  19.399  13.506
19169W        W85710  28.570   4.824   2.543
19170W        W85711  18.711  41.761   4.517
19171W        W85712  42.495  41.072  14.497
19172W        W85713  22.264  29.451  12.374
19173W        W85714  36.372  43.529   2.218
19174W        W85715  41.982  30.900   2.808
19175W        W85716  35.031  27.148   4.435
19176W        W85717  10.139  19.552   2.820
19177W        W85718   6.947  34.016   3.636
19178W        W85719  42.414  12.616  14.851
19179W        W85720   5.431  12.709   1.494
19180W        W85721  23.202   2.648   0.924
19181W        W85722   4.176   7.810  13.113
19182W        W85723  35.610  43.458   2.679
19183W        W85724  10.284  20.565   2.858
19184W        W85725  25.258  14.904  11.178
19185W        W85726  22.147   7.300  10.616
19186W        W85727  39.402  10.364   4.617
19187W        W85728  19.650  23.173   4.366
19188W        W85729  28.162  19.624  13.333
19189W        W85730  21.719   4.013   2.853
19190W        W85731  27.985  16.277   1.474
19191W        W85732   1.293  30.569   3.752
19192W        W85733   1.485  34.343   1.882
19193W        W85734  37.370  27.181   0.507
19194W        W85735   0.377  44.844  13.775
19195W        W85736  28.083  41.932   3.686
19196W        W85737   4.909  23.523  10.523
19197W        W85738  20.931  27.948   4.152
19198W        W85739  30.455   9.183   1.297
19199W        W85740   1.786  33.475  10.707
19200W        W85741  34.569   8.515   0.938
19201W        W85742  30.940  10.205   5.107
19202W        W85743  23.142  38.548   0.682
19203W        W85744  27.377   1.056   1.205
19204W        W85745  16.432  14.633   9.754
19205W        W85746  44.899   9.076   4.150
19206W        W85747  28.218  33.471  10.272
19207W        W85748  19.123  42.283   2.770
19208W        W85749   6.813   4.748   3.331
19209W        W85750   7.287  37.002   9.879
19210W        W85751   1.497  40.547   3.000
19211W        W85752  14.551   6.208   4.427
19212W        W85753   0.104  39.975   5.152
19213W        W85754  17.498  17.315  12.628
19214W        W85755  10.951   7.426   3.791
19215W        W85756   9.561  38.661   3.158
19216W        W85757  39.537  31.852  12.465
19217W        W85758  30.342   2.020  11.098
19218W        W85759  19.183  23.231  13.969
19219W        W85760   6.251   9.745   4.343
19220W        W85761  33.495  21.047   0.677
19221W        W85762   2.428  36.486   1.219
19222W        W85763   1.326   2.854  10.836
19223W        W85764  29.219  20.626  12.510
19224W        W85765  39.065  38.625   2.409
19225W        W85766  24.286  42.047  11.952
19226W        W85767  43.369  35.540   1.062
19227W        W85768  14.732  28.135  13.738
19228W        W85769  44.545   3.661  10.241
19229W        W85770  40.026  37.322  11.768
19230W        W85771   2.047  23.193  11.209
19231W        W85772  26.937  42.084  11.554
19232W        W85773  38.009  13.928  12.286
19233W        W85774  18.289  37.253   2.829
19234W        W85775  14.305  20.307  14.524
19235W        W85776  40.028   1.370   1.811
19236W        W85777  12.638  30.985  11.215
19237W        W85778  12.704  22.827   0.288
19238W        W85779  43.475  30.151  14.889
19239W        W85780  29.850  30.534  12.584
19240W        W85781   1.086  18.809   4.075
19241W        W85782  11.385   5.437  13.027
19242W        W85783  44.013  36.013  13.211
19243W        W85784  38.000   1.892  12.598
19244W        W85785  17.839  26.529  10.674
19245W        W85786  22.526  41.219   4.557
19246W        W85787   2.932  11.622   5.041
19247W        W85788  41.322  26.182  13.784
19248W        W85789  23.093  18.153   2.835
19249W        W85790  37.282  19.526   3.816
19250W        W85791  10.643  29.218  11.044
19251W        W85792  25.759  33.413   0.349
19252W        W85793  42.338  38.435  11.540
19253W        W85794  11.347   7.312   0.079
19254W        W85795  40.952   7.389   0.680
19255W        W85796   7.719  25.280   3.017
19256W        W85797   5.260  10.264   1.848
19257W        W85798  12.931  34.175  12.965
19258W        W85799  23.479  13.263   4.636
19259W        W85800  27.030  44.998  10.994
19260W        W85801  21.293  38.111  11.643
19261W        W85802  13.120  14.880  14.449
19262W        W85803  32.959  39.297   4.126
19263W        W85804  38.001   0.880  13.466
19264W        W85805  44.287  27.513   3.959
19265W        W85806  14.112  18.498  11.223
19266W        W85807  26.331  22.000  11.182
19267W        W85808  22.664  14.675   0.277
19268W        W85809   3.414  22.683  10.331
19269W        W85810  43.902  30.584  11.446
19270W        W85811  20.739  30.859   4.219
19271W        W85812  11.141  30.262   1.934
19272W        W85813  23.003   3.195   2.804
19273W        W85814  39.419  13.690  12.572
19274W        W85815  34.599  25.981  12.822
19275W        W85816  12.387  35.685  12.075
19276W        W85817  30.080  22.989  12.445
19277W        W85818  39.443   7.295   4.604
19278W        W85819   0.598  40.267   0.730
19279W        W85820   3.657  31.021   9.902
19280W        W85821  26.311  11.341  13.569
19281W        W85822  34.411  15.212   1.353
19282W        W85823   2.127  26.223  10.585
19283W        W85824  36.878  18.362   2.563
19284W        W85825  18.362   5.617   2.187
19285W        W85826  21.721   0.520   2.342
19286W        W85827  29.382   3.373   2.718
19287W        W85828   8.759  42.955   0.258
19288W        W85829  38.152  36.259  12.098
19289W        W85830  40.550  11.752   4.928
19290W        W85831  22.774  33.407   3.721
19291W        W85832  29.369  26.010   2.883
19292W        W85833  36.525  28.846   4.690
19293W        W85834  19.508  33.701  10.906
19294W        W85835  13.685  12.158   2.755
19295W        W85836  20.445  22.343   1.892
19296W        W85837  11.479  12.277  14.012
19297W        W85838  12.966  19.289   3.938
19298W        W85839  22.567   3.838   4.087
19299W        W85840  12.853  28.114  13.914
19300W        W85841  10.252  15.789   0.804
19301W        W85842   8.044  15.991  11.271
19302W        W85843   3.354  22.881  14.197
19303W        W85844  18.138  21.617  11.193
19304W        W85845  40.191   0.889   4.026
19305W        W85846  43.881  32.250   4.991
19306W        W85847  11.718  33.344   5.014
19307W        W85848  36.945  43.443   4.723
19308W        W85849  44.819  27.467   2.919
19309W        W85850  40.717  29.598   4.165
19310W        W85851  43.115  10.543  12.215
19311W        W85852  30.295  21.623  12.353
19312W        W85853  11.999  16.827  14.415
19313W        W85854  37.901  33.105  12.993
19314W        W85855  34.012  21.187  13.084
19315W        W85856  21.784  43.885   2.880
19316W        W85857  37.852  14.581  14.400
19317W        W85858  24.748   9.855   3.549
19318W        W85859   9.578  31.571   4.202
19319W        W85860  16.644  10.471   1.302
19320W        W85861   8.590  38.315   3.334
19321W        W85862   4.331  27.758   3.603
19322W        W85863  26.438  19.243  11.668
19323W        W85864   0.788  21.919   3.970
19324W        W85865  13.257  21.711   3.511
19325W        W85866  18.631  35.432   0.183
19326W        W85867  11.647  41.549   3.631
19327W        W85868   5.941  31.722   4.534
19328W        W85869  10.936   3.094   2.933
19329W        W85870  35.660  16.644  10.855
19330W        W85871   6.724  26.203   2.427
19331W        W85872   7.742   0.775  14.649
19332W        W85873  18.527  32.858  11.948
19333W        W85874  35.451  20.447  11.060
19334W        W85875  35.422  37.868  12.895
19335W        W85876  41.474  36.799   1.713
19336W        W85877  33.109   3.841   0.665
19337W        W85878  23.164  30.385   4.153
19338W        W85879  38.793   9.116   2.612
19339W        W85880  19.649  18.635  10.327
19340W        W85881  40.887   1.763   4.054
19341W        W85882  20.634  42.308   2.240
19342W        W85883  10.097   7.393   0.708
19343W        W85884   4.503  16.750   2.214
19344W        W85885  39.986  30.909  12.447
19345W        W85886  25.994  44.489  12.570
19346W        W85887   5.447   7.921  13.948
19347W        W85888  32.906   0.293   0.804
19348W        W85889   9.256  44.503   0.397
19349W        W85890  42.726  12.198  12.064
19350W        W85891   4.614  19.133   4.865
19351W        W85892   1.936  33.184   9.842
19352W        W85893   5.333  35.146  12.024
19353W        W85894  13.876  32.957  12.511
19354W        W85895  13.417  34.776   2.372
19355W        W85896  31.579  12.705   1.871
19356W        W85897  27.066  24.595   3.281
19357W        W85898   4.067  10.248   4.455
19358W        W85899  16.123  14.394   1.780
19359W        W85900  20.972  23.923  10.801
19360W        W85901   4.237  19.226   4.519
19361W        W85902  38.754  29.514  11.239
19362W        W85903  25.104  33.624   4.050
19363W        W85904   5.163  41.019  11.497
19364W        W85905  44.920  25.217  10.770
19365W        W85906  44.785   0.993   0.741
19366W        W85907  18.227  10.314   1.925
19367W        W85908  11.404   8.155   0.455
19368W        W85909  21.628  43.886   4.710
19369W        W85910  14.144  24.533   0.438
19370W        W85911  10.708  19.059  13.080
19371W        W85912  10.177  22.084   1.362
19372W        W85913   5.818   5.310   0.496
19373W        W85914  34.925  21.524   3.582
19374W        W85915   9.070  40.281  12.151
19375W        W85916  21.604   6.140   2.216
19376W        W85917   8.226   6.261  11.577
19377W        W85918   6.858  23.697  12.524
19378W        W85919  35.828   5.636   2.858
19379W        W85920  29.142   6.679   3.859
19380W        W85921  43.070  27.055  11.935
19381W        W85922  16.593   9.927   2.312
19382W        W85923  38.974  28.337  14.921
19383W        W85924  25.516  18.113  13.082
19384W        W85925   5.577  20.482  12.094
19385W        W85926  15.827   3.859   4.066
19386W        W85927   8.278  27.607  11.190
19387W        W85928   1.230  28.610   3.986
19388W        W85929  42.071  33.439   4.106
19389W        W85930  21.821  18.347  11.965
19390W        W85931  44.906  25.800  11.748
19391W        W85932  41.155   1.668   4.484
19392W        W85933  31.598   9.288   0.476
19393W        W85934  23.711  37.777   0.342
19394W        W85935   9.554  26.492  13.553
19395W        W85936  15.460  21.676   3.627
19396W        W85937  23.280  37.641  11.026
19397W        W85938  41.945  28.032   0.802
19398W        W85939  23.726  34.451   0.251
19399W        W85940   7.479  39.570  12.988
19400W        W85941  25.661   5.415  13.788
19401W        W85942  16.309  17.808   4.937
19402W        W85943   3.312  20.447   4.679
19403W        W85944  43.440  15.783   3.385
19404W        W85945   5.435  31.653   4.296
19405W        W85946  14.510  24.049  13.318
19406W        W85947  17.627  24.602  10.693
19407W        W85948  14.700  21.794   4.088
19408W        W85949  25.523  12.165   3.297
19409W        W85950   8.762  26.696  11.098
19410W        W85951  17.990   2.770   4.642
19411W        W85952   5.394   1.150  12.580
19412W        W85953  22.173  30.114  11.662
19413W        W85954  29.888  34.175   3.496
19414W        W85955  20.101  23.081  11.467
19415W        W85956   5.508  43.235   3.933
19416W        W85957  34.898  11.692   0.945
19417W        W85958  30.497  23.788   2.379
19418W        W85959  26.078  31.861  14.316
19419W        W85960  24.733  17.218   2.239
19420W        W85961  39.845   4.797  11.964
19421W        W85962  32.680  19.028  11.619
19422W        W85963   3.723  32.653  14.537
19423W        W85964   3.498  15.230  13.396
19424W        W85965  16.353  10.663   0.517
19425W        W85966  24.976  13.564   0.111
19426W        W85967  38.091  42.067  11.083
19427W        W85968  28.836  22.399   4.119
19428W        W85969  35.600  42.749   4.386
19429W        W85970   3.294   4.307  12.466
19430W        W85971  37.332  26.595  11.615
19431W        W85972  13.734   2.306   4.570
19432W        W85973  43.566  39.865  13.291
19433W        W85974  17.130  32.694  13.181
19434W        W85975  16.650  30.351   3.935
19435W        W85976  29.696  22.477   2.836
19436W        W85977  17.756  26.527  11.549
19437W        W85978   5.976  14.154   2.225
19438W        W85979  36.906  32.265   1.679
19439W        W85980  13.905  13.396  12.584
19440W        W85981  38.596   9.312  11.127
19441W        W85982  26.833  28.999  13.012
19442W        W85983  43.856  19.102  10.883
19443W        W85984  36.810   9.605  14.168
19444W        W85985   3.082  37.535   4.769
19445W        W85986  22.606  27.016   0.292
19446W        W85987  21.142  32.914  14.381
19447W        W85988   2.295  19.718   0.046
19448W        W85989  12.639  29.244   1.235
19449W        W85990  39.007  37.959  12.617
19450W        W85991  24.099  24.682  13.392
19451W        W85992  26.039  26.869   4.871
19452W        W85993  38.528  29.910  12.382
19453W        W85994  44.188  28.646  13.992
19454W        W85995  37.212  41.191   1.925
19455W        W85996  41.442  28.881  12.982
19456W        W85997   4.702  23.814   3.577
19457W        W85998  14.654  16.622   3.282
19458W        W85999   7.473  12.793  10.713
19459W        W86000  29.849  25.157   4.050
19460W        W86001   9.696  31.450  12.567
19461W        W86002  43.827  25.506  12.846
19462W        W86003  34.899   4.217  14.519
19463W        W86004  37.056   6.186   3.801
19464W        W86005  43.602  34.490  12.569
19465W        W86006  20.190  15.339   3.672
19466W        W86007   1.898  40.337  12.860
19467W        W86008  40.016  42.277  10.780
19468W        W86009  30.407  11.276  12.424
19469W        W86010   8.721   7.084  13.081
19470W        W86011  30.586  32.512  10.666
19471W        W86012  31.701  10.286   0.407
19472W        W86013  12.416  10.740  12.026
19473W        W86014  26.700  25.527   4.086
19474W        W86015  19.171  27.350   3.401
19475W        W86016  26.084   5.450  13.496
19476W        W86017   6.453  11.643  12.977
19477W        W86018  36.548  13.247  10.476
19478W        W86019  30.575   8.110  13.841
19479W        W86020   8.957   8.386  11.065
19480W        W86021  29.950  35.618  12.976
19481W        W86022  27.952  42.829  14.463
19482W        W86023  18.962  41.737  12.617
19483W        W86024   1.039  41.962   1.659
19484W        W86025   4.983   9.682  10.050
19485W        W86026   4.779  39.493  14.268
19486W        W86027   0.381   1.708  14.227
19487W        W86028  13.791  37.065  10.874
19488W        W86029  21.145   8.542   1.410
19489W        W86030  14.824  18.141  13.978
19490W        W86031  15.842  30.639   0.767
19491W        W86032   2.315  43.413   2.531
19492W        W86033  23.058   9.747  13.835
19493W        W86034   5.191  43.404   2.118
19494W        W86035  15.706   9.334   2.269
19495W        W86036  18.281  27.521   3.004
19496W        W86037  11.149  34.888   3.689
19497W        W86038  11.077   3.174   4.290
19498W        W86039  43.533  42.995   0.486
19499W        W86040  41.797  33.369   4.538
19500W        W86041  29.008  39.270   1.391
19501W        W86042  15.423  12.777  14.308
19502W        W86043  33.655  34.142   2.411
19503W        W86044  14.523  21.974  13.857
19504W        W86045  35.990  17.168   2.341
19505W        W86046  37.346  18.184   4.141
19506W        W86047  21.714   1.785  14.897
19507W        W86048  42.733  23.439   0.363
19508W        W86049  18.802  18.747   2.372
19509W        W86050  44.427  15.720   0.784
19510W        W86051  44.442  20.710  14.635
19511W        W86052  24.770  38.938  14.259
19512W        W86053  37.924  32.086   3.558
19513W        W86054  25.065   9.336   0.738
19514W        W86055  12.660  32.157   3.706
19515W        W86056  21.081  23.268  12.936
19516W        W86057   1.748  20.745  12.222
19517W        W86058  41.216  26.101   2.415
19518W        W86059   1.851  26.765   3.202
19519W        W86060  29.691  33.615  13.285
19520W        W86061  37.365  15.794   0.395
19521W        W86062  38.379  18.166  14.439
19522W        W86063  19.804  21.080   3.641
19523W        W86064  18.781  28.747   1.861
19524W        W86065   0.359  28.117  11.613
19525W        W86066  35.786  44.283   1.372
19526W        W86067  15.321  23.558   0.618
19527W        W86068  38.290  41.343  10.821
19528W        W86069  14.190   5.975  13.904
19529W        W86070  20.497  10.216   1.487
19530W        W86071   4.979  25.519  11.220
19531W        W86072  31.568  28.368   2.310
19532W        W86073  15.226   6.768  11.916
19533W        W86074  11.569  42.222   2.279
19534W        W86075  31.578  27.997   3.139
19535W        W86076  27.941  14.969   2.093
19536W        W86077   6.229  23.234   1.777
19537W        W86078  37.564  33.826   0.489
19538W        W86079  24.924  34.017   0.924
19539W        W86080  29.060  26.495  13.480
19540W        W86081  43.824  44.484   1.084
19541W        W86082  42.082  17.253   1.902
19542W        W86083  18.089   2.334   4.341
19543W        W86084  40.609  28.406   2.702
19544W        W86085  27.065   2.742  10.659
19545W        W86086  30.668  21.614  14.013
19546W        W86087  37.416  24.776   2.653
19547W        W86088  18.224   5.501  11.946
19548W        W86089  38.014  16.306  14.827
19549W        W86090  31.553  34.988   2.704
19550W        W86091  21.736  16.170   0.165
19551W        W86092  43.200  21.034  11.679
19552W        W86093  17.039  25.882   1.845
19553W        W86094   5.102  23.108   2.244
19554W        W86095   1.979  22.100   4.462
19555W        W86096   3.822  23.138  14.251
19556W        W86097  42.362   9.780   3.471
19557W        W86098  33.022  17.190  12.871
19558W        W86099  30.573  38.098   0.816
19559W        W86100  38.581  43.806  12.082
19560W        W86101  32.713  18.557   2.234
19561W        W86102  11.683   5.586   4.082
19562W        W86103  37.684  10.909  10.774
19563W        W86104   3.166   0.271   0.720
19564W        W86105  24.181   4.614  11.366
19565W        W86106  33.842  19.198   4.287
19566W        W86107  40.824  39.323  13.850
19567W        W86108  22.170  31.521   4.649
19568W        W86109  15.674  27.536   0.296
19569W        W86110  24.512  33.080  11.190
19570W        W86111  42.783   6.283   4.207
19571W        W86112  34.556  19.675   4.124
19572W        W86113  10.391  41.028  14.466
19573W        W86114  23.031  23.669   4.179
19574W        W86115  26.428  17.097   3.631
19575W        W86116  34.956  11.422   4.834
19576W        W86117   6.429  34.889   2.256
19577W        W86118  19.211  44.050  14.501
19578W        W86119  37.918  42.996  12.494
19579W        W86120  38.136  38.296  10.716
19580W        W86121  24.262   3.960  12.124
19581W        W86122  12.307  23.451   2.773
19582W        W86123  41.054  37.836   2.254
19583W        W86124  28.037  19.010  11.929
19584W        W86125  11.883  43.304   2.326
19585W        W86126  10.312  16.635   2.280
19586W        W86127   3.933  26.404   2.401
19587W        W86128   0.730  15.721   2.268
19588W        W86129  15.136  22.109   0.857
19589W        W86130  21.654   7.716  14.294
19590W        W86131  28.748  37.563   4.718
19591W        W86132  15.486  34.339  11.095
19592W        W86133  23.023  17.060   3.752
19593W        W86134  36.435  38.613   2.345
19594W        W86135  29.967  20.036   4.378
19595W        W86136  10.233  26.064  12.508
19596W        W86137  40.765  20.113  13.841
19597W        W86138  24.511  10.899  12.999
19598W        W86139   0.731  26.423   2.047
19599W        W86140  39.022  18.075   1.830
19600W        W86141  39.653  16.072   3.074
19601W        W86142  43.925  44.013  10.574
19602W        W86143  33.981  20.825  14.879
19603W        W86144  15.069   4.271  12.015
19604W        W86145  23.000  28.115  11.503
19605W        W86146  23.068   9.600   1.367
19606W        W86147   7.233  21.081  10.922
19607W        W86148   8.603   1.936   4.589
19608W        W86149  39.284  39.516   2.917
19609W        W86150  38.528   9.694  14.927
19610W        W86151  25.996  39.818  12.992
19611W        W86152   9.713  21.084   3.626
19612W        W86153  12.314   3.768  13.919
19613W        W86154   5.451  37.962  10.793
19614W        W86155   6.902  43.475   2.638
19615W        W86156  36.315  17.429   0.259
19616W        W86157  40.423   7.241  12.522
19617W        W86158  42.888  24.750  10.675
19618W        W86159  24.696  41.542  14.302
19619W        W86160  42.417  14.656  12.948
19620W        W86161  12.864  41.386   3.593
19621W        W86162  43.439  27.662  10.724
19622W        W86163  17.497  35.594   2.753
19623W        W86164   5.336  18.202  14.504
19624W        W86165   2.729  43.416  13.261
19625W        W86166  19.108  21.991  14.627
19626W        W86167  19.710  16.811   0.513
19627W        W86168  17.198   2.859   3.857
19628W        W86169  36.841   6.515   1.719
19629W        W86170  17.647   5.001  12.504
19630W        W86171  16.306  27.694   3.742
19631W        W86172   1.528  16.393  10.692
19632W        W86173  42.564  41.512  14.791
19633W        W86174   5.976  10.205   2.297
19634W        W86175  28.184  15.157   1.104
19635W        W86176   4.223  32.573  14.467
19636W        W86177  42.764  29.624   3.252
19637W        W86178   7.844  13.363   4.140
19638W        W86179   2.697  24.966  13.495
19639W        W86180  18.129  19.653   0.577
19640W        W86181  39.017  11.791   1.240
19641W        W86182  19.253  14.276   0.132
19642W        W86183  27.745  22.991  12.550
19643W        W86184  22.773  38.099   2.117
19644W        W86185  17.021   0.391   3.902
19645W        W86186  37.761  36.287  11.287
19646W        W86187   7.234  22.575   4.598
19647W        W86188  10.947  30.027  13.455
19648W        W86189  16.102   1.845   5.037
19649W        W86190  13.055  40.067  10.503
19650W        W86191  30.782  28.996   0.770
19651W        W86192  41.217   3.195   0.944
19652W        W86193  31.965   4.247  11.699
19653W        W86194  40.956  18.169   0.489
19654W        W86195  26.044  38.995   3.244
19655W        W86196  20.703   4.189  10.699
19656W        W86197  20.829  38.056  13.054
19657W        W86198  27.806  11.234   4.057
19658W        W86199   7.605  30.991   3.631
19659W        W86200  22.725  35.476   2.555
19660W        W86201   6.720   7.217  13.539
19661W        W86202  25.100  23.913  14.768
19662W        W86203  20.161  41.266   3.572
19663W        W86204  34.671   9.058  11.096
19664W        W86205  41.047  14.518  11.208
19665W        W86206   7.451  19.224   2.300
19666W        W86207  27.827  13.314  14.884
19667W        W86208  30.531  35.110  14.301
19668W        W86209  16.632  37.868  13.804
19669W        W86210  10.103  26.581  11.971
19670W        W86211  21.200  18.487   1.020
19671W        W86212  40.027  17.559  14.142
19672W        W86213  19.218   9.956   4.660
19673W        W86214  30.125   8.649   0.650
19674W        W86215  22.456  35.890  12.442
19675W        W86216  24.046  16.535  14.425
19676W        W86217   3.289   8.919   0.741
19677W        W86218  34.710  37.647  11.869
19678W        W86219  23.425  35.047  14.575
19679W        W86220  19.164  33.308   0.733
19680W        W86221  34.530  33.323  11.262
19681W        W86222  40.897  42.266  14.850
19682W        W86223  34.904  25.499  11.197
19683W        W86224  41.835  35.790   2.402
19684W        W86225  10.000   3.217   1.818
19685W        W86226  33.871  43.319   3.276
19686W        W86227  10.114   3.375   1.309
19687W        W86228   4.584  18.177  13.040
19688W        W86229   8.456  22.643   4.964
19689W        W86230   7.386  44.935   4.666
19690W        W86231  22.790  11.990  13.829
19691W        W86232  34.501   2.216   3.896
19692W        W86233  43.067   6.380  10.712
19693W        W86234  39.491  32.942  10.669
19694W        W86235   7.338  13.357   0.401
19695W        W86236  24.161   9.364   4.900
19696W        W86237   8.328  15.746   1.030
19697W        W86238  14.803   8.740  14.395
19698W        W86239  26.412  31.300   2.298
19699W        W86240   4.647  23.095  13.561
19700W        W86241  27.894  31.194   3.081
19701W        W86242  13.180  28.927   0.024
19702W        W86243  37.121  13.121  12.483
19703W        W86244  24.628  41.560  13.776
19704W        W86245  38.383  35.819  14.926
19705W        W86246   8.311  16.516  12.192
19706W        W86247  38.869  30.982   2.427
19707W        W86248  40.089  32.194   3.289
19708W        W86249  30.732  15.335  13.891
19709W        W86250   1.063  21.068   4.024
19710W        W86251  14.719  43.249  14.279
19711W        W86252  24.737  30.584  11.569
19712W        W86253  23.372  41.643   4.500
19713W        W86254  36.084  16.695  11.506
19714W        W86255   2.243  20.946  12.964
19715W        W86256  40.557  22.733  13.739
19716W        W86257   5.328  16.547  13.414
19717W        W86258  20.976  30.987   0.803
19718W        W86259  38.096  13.506  13.539
19719W        W86260   9.446  30.450   4.523
19720W        W86261  38.990  11.798   0.334
19721W        W86262  11.050  41.327   4.101
19722W        W86263  27.610  10.525   2.380
19723W        W86264  11.282  15.312   4.812
19724W        W86265  39.935  23.568  11.536
19725W        W86266   1.425  21.506  12.251
19726W        W86267  23.025  38.058   1.466
19727W        W86268   4.426  28.553   0.998
19728W        W86269  41.532  33.426   0.032
19729W        W86270  15.391   9.382  11.113
19730W        W86271  13.722   0.364   3.305
19731W        W86272  25.140  27.655  13.050
19732W        W86273  12.017   6.276   4.465
19733W        W86274  26.346  35.974  12.054
19734W        W86275  31.829   1.681  12.355
19735W        W86276  11.089   1.393   3.220
19736W        W86277   8.135   0.402  12.034
19737W        W86278   8.379   7.316   0.270
19738W        W86279  10.808   4.835  12.504
19739W        W86280   6.664  22.695  10.782
19740W        W86281   8.258  17.682   4.529
19741W        W86282  15.350  38.122  11.488
19742W        W86283  24.099  44.113   1.286
19743W        W86284  24.159  25.317  11.740
19744W        W86285  11.006  25.489   0.114
19745W        W86286  27.618  18.011  14.447
19746W        W86287  36.551  24.204  14.448
19747W        W86288  15.830  17.601  11.915
19748W        W86289   6.868  10.527   4.571
19749W        W86290  29.178  13.427  11.673
19750W        W86291  26.123   8.192   2.218
19751W        W86292   2.909  44.785  14.613
19752W        W86293  39.311  34.746  13.847
19753W        W86294  23.811  14.039   1.473
19754W        W86295  36.552  34.886   0.217
19755W        W86296  17.618   4.086   2.305
19756W        W86297  40.441  26.730  12.024
19757W        W86298  27.216  15.561  13.497
19758W        W86299  35.992  12.257   2.715
19759W        W86300  34.046  14.406  13.301
19760W        W86301   6.023  35.612  12.447
19761W        W86302  32.969  37.648   2.883
19762W        W86303   0.693  13.318   4.148
19763W        W86304  29.385  12.592  13.305
19764W        W86305   3.666  19.696   1.762
19765W        W86306  30.569   6.949   2.625
19766W        W86307  30.475  18.409   0.032
19767W        W86308  40.346  40.583   0.445
19768W        W86309  33.399  41.506  12.508
19769W        W86310  34.164  26.452   1.119
19770W        W86311  44.774  28.580   1.433
19771W        W86312  27.924  31.165   1.712
19772W        W86313  19.422   0.002  12.663
19773W        W86314  31.219   9.825  11.592
19774W        W86315  10.922   2.906   3.494
19775W        W86316  13.191  28.672   3.621
19776W        W86317  24.579  28.073   0.313
19777W        W86318   2.949  15.242   2.550
19778W        W86319  23.079  18.753   4.580
19779W        W86320   9.898   4.653   1.754
19780W        W86321   9.269  10.867   3.322
19781W        W86322  18.107  20.229   3.525
19782W        W86323  22.524  28.400  10.701
19783W        W86324  25.482   7.852   1.560
19784W        W86325  13.711  31.486   0.707
19785W        W86326  17.669   4.176  10.862
19786W        W86327  41.345  35.351  14.861
19787W        W86328  33.360  10.857  10.626
19788W        W86329  12.795  37.610   0.016
19789W        W86330   8.339  28.278  13.729
19790W        W86331  11.523  26.521  10.823
19791W        W86332  26.196   9.660   4.678
19792W        W86333  22.159  18.325  13.318
19793W        W86334  29.306  35.720   3.098
19794W        W86335  39.281  15.618  13.553
19795W        W86336  33.454   1.711   2.984
19796W        W86337   4.118   1.619  14.517
19797W        W86338  37.304  31.379  12.004
19798W        W86339   1.332   4.375  12.563
19799W        W86340  44.329  28.559   3.705
19800W        W86341  22.158  35.149  12.901
19801W        W86342  22.570   6.214  12.971
19802W        W86343  44.781  16.037   3.394
19803W        W86344   7.107  10.320   1.732
19804W        W86345  17.540  20.000  14.288
19805W        W86346  39.975  38.271   1.222
19806W        W86347   1.725  44.081  14.867
19807W        W86348  24.222  23.558   1.695
19808W        W86349   9.326  31.028  11.741
19809W        W86350  25.546  22.503   0.965
19810W        W86351   3.912  14.720  14.467
19811W        W86352  24.246  42.630  13.640
19812W        W86353  35.151  40.557   0.683
19813W        W86354   4.845  20.835  12.146
19814W        W86355  29.353  15.180  11.389
19815W        W86356  11.836   7.948   4.486
19816W        W86357  14.190  41.269  14.318
19817W        W86358  44.825  14.595   0.042
19818W        W86359   1.187  27.379  12.322
19819W        W86360  42.696  16.127   1.740
19820W        W86361  43.547  14.193  11.258
19821W        W86362  11.153  40.817  13.058
19822W        W86363   6.819   1.952  12.956
19823W        W86364  43.717  43.818   0.902
19824W        W86365  38.423   7.191  13.925
19825W        W86366  21.721  29.100   2.316
19826W        W86367   3.655   6.734   0.865
19827W        W86368  34.496   1.422  13.390
19828W        W86369   2.283  27.476  12.096
19829W        W86370  38.515  23.483  12.085
19830W        W86371  10.609  29.562   4.554
19831W        W86372   9.399  31.313   2.014
19832W        W86373  15.743   1.060  12.078
19833W        W86374  13.283  36.248  10.822
19834W        W86375  43.707   9.406   0.952
19835W        W86376  21.045   5.432   2.395
19836W        W86377  44.390   5.001   4.681
19837W        W86378  37.952  22.426   0.405
19838W        W86379  30.644  39.496  10.759
19839W        W86380   8.894  14.530   4.516
19840W        W86381  39.746  12.742   5.347
19841W        W86382  27.640  17.013  12.360
19842W        W86383  39.371  15.778   3.900
19843W        W86384  40.796  21.654  10.587
19844W        W86385  25.499  19.736   4.487
19845W        W86386   6.896  39.870   2.767
19846W        W86387  37.425  40.524   0.443
19847W        W86388   3.894  10.209  14.179
19848W        W86389  18.183  42.974   5.131
19849W        W86390  17.699  13.492   2.178
19850W        W86391  12.264  27.387   0.624
19851W        W86392  44.298  20.701  13.608
19852W        W86393   3.332  18.886   4.785
19853W        W86394  27.075  32.549   2.003
19854W        W86395   3.556  29.463  10.832
19855W        W86396   1.480  12.387   1.254
19856W        W86397  28.923   8.026  11.723
19857W        W86398  13.238  26.276  13.816
19858W        W86399  43.978  27.492   1.687
19859W        W86400  32.634  44.009  14.301
19860W        W86401   1.790  27.198   1.755
19861W        W86402  22.653  35.017  11.997
19862W        W86403  43.644   7.000   4.282
19863W        W86404  38.391  44.357   3.755
19864W        W86405  16.828  39.958   2.494
19865W        W86406  23.023   4.475   9.684
19866W        W86407  39.606   7.887   2.764
19867W        W86408   9.004  19.562  12.732
19868W        W86409  37.852  18.166   4.128
19869W        W86410  24.679  35.446   2.247
19870W        W86411  15.925  37.844   2.838
19871W        W86412  33.327  44.965  13.147
19872W        W86413  20.179  26.521   3.633
19873W        W86414  32.578   1.088   3.108
19874W        W86415  28.935   6.429  14.059
19875W        W86416  12.015   2.463  11.980
19876W        W86417   8.372  29.463  14.279
19877W        W86418  29.717  20.499   3.667
19878W        W86419  39.817   3.016   2.229
19879W        W86420  18.611   4.758   5.074
19880W        W86421  38.654  44.360  13.245
19881W        W86422  32.983  18.051  13.778
19882W        W86423  22.011  15.311  13.798
19883W        W86424  21.295  28.181  10.456
19884W        W86425  37.885  20.384  14.881
19885W        W86426  12.728  32.565   1.712
19886W        W86427  27.687  31.620   3.768
19887W        W86428  12.009  14.814   0.257
19888W        W86429  42.367   6.738  11.356
19889W        W86430  40.098  39.866   4.536
19890W        W86431  15.618  37.145   0.323
19891W        W86432  18.949  41.786   0.272
19892W        W86433   4.358  39.911   4.630
19893W        W86434  13.683  30.413  14.310
19894W        W86435  18.941  22.017   1.482
19895W        W86436  41.547   3.763   3.934
19896W        W86437  15.025  23.571  10.520
19897W        W86438  23.053  39.439   3.184
19898W        W86439  28.441   7.928  13.012
19899W        W86440  41.368  34.868  14.534
19900W        W86441  33.515   9.861  10.830
19901W        W86442  42.860   0.536  13.687
19902W        W86443  32.437  39.364   1.789
19903W        W86444  16.499  39.863  10.744
19904W        W86445  29.106   6.258   0.345
19905W        W86446   7.224  37.544   2.678
19906W        W86447  40.275  23.294   4.139
19907W        W86448  40.094  13.273  13.528
19908W        W86449  26.666  19.700   2.814
19909W        W86450  30.761  44.789  14.247
19910W        W86451  31.091  27.569  12.781
19911W        W86452  35.971  16.044   0.530
19912W        W86453  31.795   0.982   2.925
19913W        W86454  36.074  10.296   4.065
19914W        W86455  30.022  42.929  14.442
19915W        W86456  22.508  21.016   4.252
19916W        W86457  34.836  23.494   1.826
19917W        W86458  13.269  18.628   4.053
19918W        W86459  14.211  19.668   4.150
19919W        W86460  25.271  21.114   1.096
19920W        W86461  42.301   9.320  11.146
19921W        W86462  40.488  29.454   3.001
19922W        W86463  23.491  37.480  11.589
19923W        W86464  39.329   4.872   4.478
19924W        W86465  19.715  43.808   0.707
19925W        W86466  13.831  11.805  11.735
19926W        W86467  38.666  10.920   0.402
19927W        W86468  32.665   3.867   0.941
19928W        W86469  43.495  10.758   3.833
19929W        W86470  21.162  19.230  11.655
19930W        W86471  42.764   6.159  13.287
19931W        W86472  10.360  42.928  10.111
19932W        W86473  10.428   3.864   1.233
19933W        W86474  34.664   5.250   3.219
19934W        W86475  11.573   2.707  11.652
19935W        W86476   4.703  44.817  13.379
19936W        W86477  33.697  27.935  12.370
19937W        W86478  12.900  39.846   1.833
19938W        W86479  36.064  33.087  11.716
19939W        W86480  29.637  26.308   5.136
19940W        W86481  37.793  22.912   0.434
19941W        W86482   4.933  36.857  13.394
19942W        W86483  33.885  32.806   2.391
19943W        W86484   3.858   7.470  11.592
19944W        W86485  32.852  19.675   1.958
19945W        W86486  23.142   3.154   0.864
19946W        W86487  41.102  37.039   3.731
19947W        W86488  36.806  18.172  13.958
19948W        W86489  35.064  44.318  14.589
19949W        W86490   6.152  39.954  14.569
19950W        W86491  27.952  14.658   1.632
19951W        W86492  44.852   4.032   2.692
19952W        W86493  19.624  43.593  13.662
19953W        W86494  33.059  14.161  14.232
19954W        W86495  44.313  25.020   3.701
19955W        W86496  27.299   8.795  10.747
19956W        W86497  25.621  26.564   4.551
19957W        W86498  10.925   3.699  12.632
19958W        W86499   7.736  37.051  10.133
19959W        W86500   1.608  33.987   9.972
19960W        W86501  31.480  38.282  13.959
19961W        W86502   1.443  33.678   2.147
19962W        W86503   0.551  18.639  10.805
19963W        W86504  20.617   4.689   4.051
19964W        W86505  18.752   8.706   2.120
19965W        W86506  38.254  19.996  14.922
19966W        W86507  18.050   2.753  12.965
19967W        W86508   6.129  15.206   5.032
19968W        W86509  33.372  36.644  11.609
19969W        W86510  13.713  26.254  14.797
19970W        W86511   4.026  15.558   1.423
19971W        W86512   7.825  15.754   5.071
19972W        W86513  30.929  22.754  12.056
19973W        W86514   6.485   8.457  11.500
19974W        W86515  32.948  20.071  13.090
19975W        W86516  37.872  22.706  11.578
19976W        W86517  13.820  40.479   0.215
19977W        W86518  38.447  39.590   4.309
19978W        W86519   0.178   0.242   4.574
19979W        W86520   7.890  38.059  10.357
19980W        W86521  44.380  25.726   2.262
19981W        W86522  34.367   8.803   1.370
19982W        W86523  28.792  32.360   1.497
19983W        W86524   4.915  12.343  14.852
19984W        W86525  42.026  13.803  14.251
19985W        W86526   7.949   2.910   3.150
19986W        W86527  14.371  14.248   3.909
19987W        W86528  44.211  37.546   4.275
19988W        W86529  14.755  15.763   4.672
19989W        W86530  39.963  35.573  13.169
19990W        W86531  33.739  23.142  10.374
19991W        W86532  26.707  36.524  10.621
19992W        W86533  37.420  36.236  13.969
19993W        W86534   9.303  19.822   2.633
19994W        W86535  25.571   3.935  12.535
19995W        W86536  20.256  42.465   4.186
19996W        W86537  17.224  40.747   4.978
19997W        W86538  37.016   8.020   3.093
19998W        W86539   9.307   1.816   2.858
19999W        W86540  18.397   1.935   4.554
20000W        W86541  42.446  35.759  11.918
20001W        W86542  28.912  13.533  12.433
20002W        W86543  17.584  23.570   1.397
20003W        W86544   3.834  13.934   4.946
20004W        W86545   0.909   6.504  11.779
20005W        W86546   3.848   0.331   4.382
20006W        W86547  12.090  32.128   1.258
20007W        W86548   9.764  23.628   4.351
20008W        W86549  27.214  44.009   2.391
20009W        W86550  28.746  22.275  11.064
20010W        W86551   4.621   0.899  14.778
20011W        W86552  32.537   3.777   0.453
20012W        W86553  24.596   0.240  11.097
20013W        W86554  41.624  16.189   4.622
20014W        W86555  28.533  44.510   4.750
20015W        W86556   5.381  11.785   0.933
20016W        W86557  25.238  12.849   3.803
20017W        W86558  25.620  18.116  13.623
20018W        W86559  15.495   6.122  13.877
20019W        W86560  11.591  24.046  12.601
20020W        W86561  20.707  34.820   0.402
20021W        W86562  28.089  17.236   1.774
20022W        W86563  26.637   8.788   4.595
20023W        W86564  39.090  25.736   2.637
20024W        W86565  20.220   3.929  11.331
20025W        W86566  26.212  29.332   2.193
20026W        W86567  13.049  34.434  12.524
20027W        W86568   7.908  32.428   1.011
20028W        W86569  43.363  44.381  11.829
20029W        W86570  26.271  23.632   1.466
20030W        W86571   4.109  32.919   3.413
20031W        W86572   5.895  26.822   3.775
20032W        W86573  27.583  19.283   4.721
20033W        W86574  11.229  37.536   1.820
20034W        W86575  20.936   9.250  14.265
20035W        W86576  30.235  31.921  14.429
20036W        W86577  39.458  27.686   2.774
20037W        W86578  25.083   6.477   3.148
20038W        W86579   7.277  35.885   3.252
20039W        W86580  42.276  36.263  13.148
20040W        W86581  10.863  26.790  14.914
20041W        W86582  38.620  23.991   3.367
20042W        W86583  36.346  40.915   2.683
20043W        W86584  15.072   8.831  12.858
20044W        W86585   8.794  40.077  11.533
20045W        W86586   7.401  13.673  13.578
20046W        W86587  25.383  39.068   4.088
20047W        W86588   6.301  29.341  14.261
20048W        W86589  37.294   8.769  11.118
20049W        W86590   6.112  37.037   1.870
20050W        W86591   4.590  17.108   0.737
20051W        W86592   8.247  40.595   3.766
20052W        W86593   0.348  30.326   4.622
20053W        W86594   5.508  33.231  12.031
20054W        W86595  14.840  11.662  11.015
20055W        W86596  25.991  20.940   2.643
20056W        W86597  15.695  19.682   2.471
20057W        W86598  22.897  37.684   2.418
20058W        W86599   5.431  38.914  12.577
20059W        W86600   0.384   5.903   3.979
20060W        W86601   5.767  41.999  14.368
20061W        W86602   8.409  20.823   2.522
20062W        W86603  29.121   9.203  10.690
20063W        W86604  43.708  29.727   0.098
20064W        W86605  15.124  14.679  12.502
20065W        W86606   9.537   3.865   4.479
20066W        W86607  24.241   2.499  10.613
20067W        W86608  34.285   2.462  12.119
20068W        W86609  29.403  37.041  14.410
20069W        W86610  34.820  41.083   4.185
20070W        W86611  38.632  11.491  14.575
20071W        W86612   6.789  27.220  14.924
20072W        W86613   6.763  24.267  13.417
20073W        W86614  40.429  30.855   3.119
20074W        W86615  31.942  34.933  10.490
20075W        W86616  17.195  42.039   1.438
20076W        W86617  12.721  12.047  11.075
20077W        W86618   9.307  12.666   5.068
20078W        W86619  29.760  31.102   1.837
20079W        W86620  34.990  24.404   3.555
20080W        W86621  18.453   2.356   1.003
20081W        W86622  34.937  44.728  13.409
20082W        W86623  37.889  13.807   4.421
20083W        W86624  29.585  28.212   2.309
20084W        W86625  13.888  32.138  11.827
20085W        W86626  30.719  40.839   3.656
20086W        W86627  37.097  36.776   3.110
20087W        W86628  11.906  34.478  11.530
20088W        W86629  29.311  41.779  13.128
20089W        W86630  35.009   0.219   0.372
20090W        W86631  36.464  19.364   4.176
20091W        W86632   1.627   4.142  13.473
20092W        W86633  15.398  29.464  11.960
20093W        W86634  36.625   1.473   2.686
20094W        W86635   5.777  13.068  11.136
20095W        W86636  43.287   3.265   2.837
20096W        W86637   2.723  32.498   3.675
20097W        W86638  26.980   2.562   1.413
20098W        W86639  16.594   5.942   0.586
20099W        W86640  25.101  14.751   2.757
20100W        W86641  19.787  44.710  12.969
20101W        W86642  17.632  27.412  13.962
20102W        W86643  33.983  25.510  11.482
20103W        W86644   2.404  26.293   1.909
20104W        W86645  10.210  16.227   3.073
20105W        W86646  39.965   7.997  12.660
20106W        W86647  26.548  22.033   1.499
20107W        W86648  23.357  39.529  12.535
20108W        W86649   6.377  12.863  13.597
20109W        W86650  37.697  19.860  12.556
20110W        W86651  30.604   4.896   1.796
20111W        W86652  23.502  42.951  14.496
20112W        W86653  34.395  29.955   0.759
20113W        W86654  20.709   1.234   0.815
20114W        W86655  30.172  40.938  14.409
20115W        W86656  40.088  15.810   2.803
20116W        W86657  23.513   3.394   4.527
20117W        W86658  32.826  14.988   2.772
20118W        W86659  13.556   8.378  14.227
20119W        W86660  13.089  18.816   2.731
20120W        W86661  16.133  36.448   3.773
20121W        W86662  27.663  24.080  12.612
20122W        W86663  35.836  19.021   2.738
20123W        W86664  13.849  42.532  13.397
20124W        W86665   4.427  20.240  10.958
20125W        W86666  22.613  21.832  11.056
20126W        W86667  14.261  26.084   2.805
20127W        W86668  35.613  21.199  12.188
20128W        W86669  11.210  31.636   0.323
20129W        W86670  35.621   2.550  12.626
20130W        W86671   1.824  28.770   4.097
20131W        W86672  33.192  38.447   2.273
20132W        W86673  43.939  31.959   1.503
20133W        W86674  18.142  19.012  13.884
20134W        W86675  30.912  24.545   3.027
20135W        W86676   5.723  38.335   4.313
20136W        W86677  32.858  29.578   2.777
20137W        W86678  16.833   0.212  13.978
20138W        W86679  12.342  17.360  10.613
20139W        W86680  13.127  41.625   4.085
20140W        W86681  37.606  18.064   3.688
20141W        W86682  24.505  41.731   3.771
20142W        W86683  18.079  42.834   0.112
20143W        W86684  19.188  12.269   2.400
20144W        W86685   9.351  14.085   4.648
20145W        W86686  30.962  15.669   1.250
20146W        W86687  38.589  10.924  11.169
20147W        W86688  26.842  25.796   4.508
20148W        W86689   6.888  14.530  11.407
20149W        W86690  39.887   5.898   2.362
20150W        W86691  35.207  41.071   2.653
20151W        W86692  41.806  15.247   3.322
20152W        W86693  43.014  12.217  11.609
20153W        W86694  25.171  26.943  14.257
20154W        W86695   2.678  39.624   1.421
20155W        W86696  12.093  20.002  14.731
20156W        W86697  39.777   6.400  11.862
20157W        W86698   3.385  26.949  13.863
20158W        W86699  13.033  31.725  13.465
20159W        W86700  39.653  37.178  12.729
20160W        W86701  14.656   4.793   0.977
20161W        W86702  25.685  13.390   0.837
20162W        W86703  15.163  31.085  12.377
20163W        W86704  25.817  43.016  11.602
20164W        W86705  12.392  25.729  14.890
20165W        W86706  31.831   1.287  11.733
20166W        W86707  19.581  20.204   3.235
20167W        W86708  27.140  36.976  11.055
20168W        W86709  27.462  22.673  13.453
20169W        W86710  39.193   2.799   0.749
20170W        W86711  25.868  27.807   2.372
20171W        W86712   6.508  40.515   4.034
20172W        W86713   9.308  24.493  13.291
20173W        W86714   6.305   9.094  14.430
20174W        W86715   4.340  39.930  12.517
20175W        W86716   6.574   0.625  13.873
20176W        W86717  11.864  44.288   2.262
20177W        W86718  19.299   5.371  13.008
20178W        W86719  16.661  22.771  10.715
20179W        W86720  42.407  13.387   2.838
20180W        W86721  30.464  26.535   3.712
20181W        W86722   4.635  41.731   3.675
20182W        W86723  30.104   9.784  12.882
20183W        W86724  44.275  30.644   0.165
20184W        W86725   2.158  15.151   1.074
20185W        W86726  16.119  36.833  14.210
20186W        W86727   8.869  32.971   1.247
20187W        W86728   5.808  29.484  13.369
20188W        W86729   2.481  11.599  14.824
20189W        W86730  38.433  26.938   3.866
20190W        W86731  42.635  13.013  10.067
20191W        W86732  15.504  19.157  11.143
20192W        W86733  33.026  20.291   1.509
20193W        W86734   4.885  40.826   3.774
20194W        W86735  23.015  10.217   3.287
20195W        W86736  17.574  36.072   0.871
20196W        W86737  11.765  30.330  13.040
20197W        W86738  31.158  19.185  14.950
20198W        W86739  28.453   5.841  11.695
20199W        W86740  12.590   2.465   2.744
20200W        W86741  21.930  20.705   1.300
20201W        W86742  32.573  27.222   4.230
20202W        W86743  25.954  24.427   4.639
20203W        W86744  31.214  16.229  11.962
20204W        W86745  23.171   3.332  11.188
20205W        W86746   1.365  28.153   0.788
20206W        W86747  12.883  29.858   3.203
20207W        W86748  14.589  35.839   2.013
20208W        W86749  21.772  41.081  11.104
20209W        W86750   9.648  20.217  10.375
20210W        W86751  12.631  31.652  10.614
20211W        W86752  40.218  28.365   1.859
20212W        W86753  28.160  19.227   0.900
20213W        W86754  35.403  38.880  11.528
20214W        W86755  40.608  32.063   4.176
20215W        W86756   2.440  35.509  12.111
20216W        W86757   9.702  37.283  10.713
20217W        W86758  35.076   6.827   4.724
20218W        W86759   8.397  35.460   1.725
20219W        W86760  42.662  32.853   2.946
20220W        W86761  33.935   0.876   4.961
20221W        W86762  39.845   0.161  12.412
20222W        W86763   7.570  16.860   1.776
20223W        W86764  31.952  11.434   0.281
20224W        W86765   0.240  20.670  12.063
20225W        W86766   1.817   6.813   2.095
20226W        W86767   1.853  25.452   3.648
20227W        W86768  14.079  44.359  12.934
20228W        W86769  15.838  38.743  10.385
20229W        W86770  33.900  11.244   2.396
20230W        W86771  28.114  28.472  12.963
20231W        W86772  37.239   5.961  11.201
20232W        W86773  24.629  34.988  11.186
20233W        W86774  18.172  18.057   1.441
20234W        W86775  21.230   7.304  10.966
20235W        W86776  12.916   6.391  12.838
20236W        W86777  14.152  40.025  11.105
20237W        W86778  13.277  33.869  10.680
20238W        W86779  36.997   7.468  14.934
20239W        W86780  28.927  18.411   0.039
20240W        W86781  20.958  37.468   2.232
20241W        W86782   7.724  41.864   3.646
20242W        W86783  29.428  42.222  13.375
20243W        W86784  30.082  12.927   3.611
20244W        W86785  33.898  39.887  11.165
20245W        W86786   8.770   4.667   3.131
20246W        W86787  14.890  27.464   1.706
20247W        W86788  38.114  35.703   4.803
20248W        W86789  44.459  31.338   1.921
20249W        W86790  22.509  37.958   1.625
20250W        W86791   0.891  28.840  14.768
20251W        W86792  15.003   4.775   1.371
20252W        W86793  12.289   6.756  11.341
20253W        W86794   7.341  13.374   4.003
20254W        W86795  15.300  26.454   3.581
20255W        W86796  35.130   5.918   0.361
20256W        W86797  44.381  10.313  11.469
20257W        W86798  38.067   4.683   2.136
20258W        W86799  44.934  12.536  11.786
20259W        W86800  17.485  21.654  14.761
20260W        W86801  14.651   6.906  12.017
20261W        W86802  43.385  19.224   3.894
20262W        W86803  32.268   9.893   4.830
20263W        W86804  16.567  44.058  11.244
20264W        W86805  43.998  17.284   1.395
20265W        W86806  12.788  22.191   2.875
20266W        W86807  41.295  30.095  14.979
20267W        W86808  17.518  28.208   4.571
20268W        W86809  27.733  31.027   4.759
20269W        W86810  30.671  31.630  13.771
20270W        W86811  16.870   2.515  13.454
20271W        W86812  19.667  31.845   3.770
20272W        W86813  31.182  16.877  12.426
20273W        W86814   1.469  16.648  14.871
20274W        W86815  27.524  28.506  11.966
20275W        W86816  16.798  27.571  13.741
20276W        W86817  17.455  29.971   4.527
20277W        W86818   1.175  37.898  13.464
20278W        W86819   2.621   1.445  12.600
20279W        W86820  14.041  25.626  12.422
20280W        W86821  41.234  33.554   2.820
20281W        W86822   2.358  13.644   1.788
20282W        W86823  22.534  11.716  10.229
20283W        W86824   3.922  13.967   4.159
20284W        W86825  21.018  19.082  12.671
20285W        W86826  18.073  15.849   2.676
20286W        W86827  39.932  42.443   0.770
20287W        W86828   3.294  27.238  14.504
20288W        W86829  42.940  13.601   0.421
20289W        W86830  12.619  12.882   4.907
20290W        W86831  12.656  33.007   4.727
20291W        W86832  22.665  32.298   0.389
20292W        W86833   9.415  37.727  11.470
20293W        W86834   3.685  17.364  13.071
20294W        W86835  26.671   9.379   4.551
20295W        W86836  25.994   8.784  13.324
20296W        W86837   7.947  26.883  11.316
20297W        W86838  29.425  17.826  12.075
20298W        W86839   5.196   3.921   1.722
20299W        W86840  31.069   0.420  14.834
20300W        W86841  17.287  17.345   1.684
20301W        W86842   3.353  38.076  12.442
20302W        W86843  35.993  24.797  14.811
20303W        W86844  43.817  12.656   2.873
20304W        W86845   6.166   1.413   4.239
20305W        W86846  38.005   4.084  12.498
20306W        W86847   4.712  19.997   0.089
20307W        W86848  37.164  13.339  14.350
20308W        W86849  26.208  30.881  14.635
20309W        W86850  35.840  41.941   2.985
20310W        W86851   7.321  21.827  14.735
20311W        W86852  15.743  30.338   3.847
20312W        W86853  22.584   3.756   2.262
20313W        W86854  36.261  12.301  11.954
20314W        W86855  43.482   1.092   4.207
20315W        W86856  18.843  44.747  10.685
20316W        W86857   6.794  19.493   2.841
20317W        W86858   3.834   8.161  12.118
20318W        W86859  10.595   2.231  13.849
20319W        W86860   6.348  26.732   4.507
20320W        W86861   7.649  25.672   4.557
20321W        W86862   4.303  20.236   4.256
20322W        W86863   8.654   0.468   4.685
20323W        W86864  38.402  41.727   4.491
20324W        W86865   8.190   1.269  11.491
20325W        W86866  22.027  12.677  13.879
20326W        W86867   3.203  18.559   0.241
20327W        W86868   4.177  23.704  12.001
20328W        W86869  21.984  17.698  13.967
20329W        W86870   0.789  39.951   4.349
20330W        W86871  24.923   8.083  11.139
20331W        W86872  25.031  10.671   2.038
20332W        W86873  25.661  24.272   1.821
20333W        W86874  38.070   0.714  14.899
20334W        W86875  44.166   5.418   0.637
20335W        W86876  27.207   6.964   2.634
20336W        W86877   4.930   4.889  14.929
20337W        W86878  14.146  22.716  10.694
20338W        W86879  40.323  28.688  14.349
20339W        W86880  35.679  44.753  12.172
20340W        W86881  20.121   0.619   3.201
20341W        W86882  21.004  10.667  10.829
20342W        W86883  23.093  21.420   1.130
20343W        W86884  40.339  30.119   3.754
20344W        W86885  35.905  14.841   1.273
20345W        W86886  23.016   4.184  10.263
20346W        W86887  20.169   3.773  14.185
20347W        W86888  11.743  38.946   1.558
20348W        W86889  16.505  37.425  13.523
20349W        W86890   4.690  41.103   1.044
20350W        W86891  23.957  43.865   3.480
20351W        W86892   4.983  40.690  11.033
20352W        W86893   5.677  24.058  14.042
20353W        W86894  36.519  19.442   3.300
20354W        W86895  31.024  19.666  11.789
20355W        W86896  34.909  25.942  13.772
20356W        W86897  32.364   7.196   0.840
20357W        W86898  21.598   9.827   3.549
20358W        W86899  24.536  31.385   3.814
20359W        W86900   7.151  42.968  12.134
20360W        W86901   1.202  15.127  14.014
20361W        W86902  28.362  19.869   0.888
20362W        W86903  36.666  24.832  14.053
20363W        W86904   6.778   2.969  13.861
20364W        W86905   2.197  28.487  13.569
20365W        W86906  43.976  17.603  13.499
20366W        W86907  13.814  10.750   0.828
20367W        W86908  24.539   5.321  14.837
20368W        W86909  15.202  27.474   1.232
20369W        W86910  22.550   7.501  12.509
20370W        W86911  30.855  14.849   5.421
20371W        W86912   5.488   4.513   3.281
20372W        W86913  24.602   9.079   0.685
20373W        W86914  15.221  11.519   1.245
20374W        W86915  29.161  32.680   4.038
20375W        W86916  39.358  20.026   3.342
20376W        W86917  33.129  12.156   0.523
20377W        W86918  29.928  39.197  14.967
20378W        W86919  44.384  24.021   3.864
20379W        W86920  10.691  42.863   3.260
20380W        W86921  14.257  29.445  12.047
20381W        W86922  15.636  26.081   4.554
20382W        W86923   1.917   3.321  11.918
20383W        W86924  33.639  42.875  13.985
20384W        W86925  16.340  28.904  11.260
20385W        W86926  14.763  19.556  13.959
20386W        W86927  42.283  43.043   2.720
20387W        W86928  13.363  25.203  10.665
20388W        W86929  42.886  12.646   2.903
20389W        W86930  21.154  39.672  12.497
20390W        W86931  41.878  25.510  13.790
20391W        W86932  27.043  16.331   2.735
20392W        W86933  37.316  38.494  11.622
20393W        W86934  14.923  18.528  12.426
20394W        W86935   1.408   7.816  11.229
20395W        W86936  41.994  28.397   2.291
20396W        W86937  27.699  37.861   2.884
20397W        W86938   0.788  13.056   3.049
20398W        W86939  22.055  21.693  14.253
20399W        W86940  20.782  32.434   2.613
20400W        W86941  20.910  38.108   0.517
20401W        W86942  29.870  10.709   2.989
20402W        W86943  38.119   4.988  14.888
20403W        W86944  19.263  14.686   1.495
20404W        W86945  19.236  31.124   1.831
20405W        W86946  33.471  13.406  10.732
20406W        W86947  38.318  14.364  14.460
20407W        W86948  14.811  28.009   2.778
20408W        W86949   5.762  43.367  14.786
20409W        W86950   7.799   2.685  13.404
20410W        W86951   2.656  10.203   3.492
20411W        W86952  35.469  39.506   2.658
20412W        W86953   2.354  27.937  13.486
20413W        W86954  10.833  24.987  10.860
20414W        W86955   4.727  32.506  14.361
20415W        W86956  35.348  15.764  12.424
20416W        W86957  19.220  21.110   4.561
20417W        W86958  16.218  30.490   1.618
20418W        W86959  14.074  14.124  11.615
20419W        W86960  22.234  26.183   1.823
20420W        W86961   8.326  42.801   1.879
20421W        W86962  41.284   4.318   0.470
20422W        W86963  26.275  44.041  12.054
20423W        W86964  43.460  37.405  10.685
20424W        W86965  42.782   4.378  13.970
20425W        W86966   6.139  41.041   2.814
20426W        W86967  23.208  44.660   4.208
20427W        W86968  28.658  21.812   1.773
20428W        W86969  32.363  28.244   1.344
20429W        W86970  10.165  13.861  10.667
20430W        W86971  31.094  40.166   1.913
20431W        W86972   0.558  34.266   0.262
20432W        W86973  10.771  34.883   0.524
20433W        W86974  36.011  29.140   1.236
20434W        W86975  17.376  26.128   0.958
20435W        W86976  22.803  28.849   3.177
20436W        W86977  40.041  43.614  12.272
20437W        W86978  30.504   9.242  11.586
20438W        W86979  33.376   9.891  12.631
20439W        W86980  21.317  42.485  12.488
20440W        W86981  16.483   7.540   1.369
20441W        W86982  30.422  10.135   4.202
20442W        W86983  15.282  23.642   1.664
20443W        W86984  44.980   6.651   2.289
20444W        W86985   6.300  30.702   2.106
20445W        W86986  22.277  29.660   4.793
20446W        W86987  43.669  26.127  11.631
20447W        W86988  39.309  41.860  11.566
20448W        W86989  43.782  25.198  14.613
20449W        W86990   1.863  11.656  11.383
20450W        W86991  41.675  33.845  11.394
20451W        W86992  22.122  20.288   0.305
20452W        W86993  22.279   3.872   4.508
20453W        W86994  26.102  13.171  12.983
20454W        W86995   2.249   9.886   0.778
20455W        W86996  27.941  30.449  14.029
20456W        W86997  26.929  33.562   4.105
20457W        W86998   5.433   9.651  14.828
20458W        W86999  41.500  18.450   3.686
20459W        W87000  23.681   0.462   0.437
20460W        W87001  14.539  22.856  12.951
20461W        W87002  44.733  13.414   1.265
20462W        W87003  11.902   1.695  11.088
20463W        W87004  17.859  28.718   2.308
20464W        W87005  24.603  11.043   2.529
20465W        W87006  31.543  21.255   2.060
20466W        W87007  16.752  38.280   0.964
20467W        W87008   8.620  20.137   0.367
20468W        W87009  37.439  19.268   0.578
20469W        W87010  38.632  15.101   1.035
20470W        W87011  17.205  44.735  14.383
20471W        W87012  30.721  29.781  13.916
20472W        W87013   9.712  42.058  10.976
20473W        W87014  17.906  19.237   4.576
20474W        W87015  28.624  39.292  14.358
20475W        W87016  20.828   6.791   0.834
20476W        W87017  44.831  28.192  11.019
20477W        W87018  37.926  43.177   1.545
20478W        W87019  25.696  28.065  14.496
20479W        W87020  42.698   7.272  12.417
20480W        W87021   6.436   9.806  12.932
20481W        W87022  31.905  23.222  13.312
20482W        W87023  21.639   7.839   2.798
20483W        W87024  42.769   3.377  10.939
20484W        W87025  43.482  21.167   4.055
20485W        W87026  42.395  27.616  14.797
20486W        W87027  17.145  20.310   1.076
20487W        W87028   6.987  35.484   3.374
20488W        W87029  24.996  37.608   1.161
20489W        W87030   2.538  16.970   1.703
20490W        W87031  30.158  20.311   3.506
20491W        W87032  40.553  30.616   4.651
20492W        W87033  15.336  13.955   3.668
20493W        W87034  20.292  25.577  11.731
20494W        W87035  18.314  10.054  13.830
20495W        W87036  18.769   9.757  14.487
20496W        W87037  29.229  32.257  14.327
20497W        W87038   1.490   7.935  12.990
20498W        W87039  25.926  25.486  12.122
20499W        W87040  29.279  10.738  13.866
20500W        W87041   7.395  32.951  13.557
20501W        W87042  35.883  25.004   3.192
20502W        W87043  39.472  15.656   4.913
20503W        W87044  27.778   4.494   4.204
20504W        W87045  41.289  35.466  12.955
20505W        W87046  34.683  23.953   2.279
20506W        W87047  23.959  33.001   2.013
20507W        W87048  14.824  29.836  14.910
20508W        W87049  42.091  31.783   2.606
20509W        W87050  10.100   3.720   3.728
20510W        W87051  31.888   4.705  12.113
20511W        W87052  19.572  26.348   0.363
20512W        W87053  35.112  32.427   3.234
20513W        W87054  34.703   3.200  13.005
20514W        W87055  15.542   1.750   2.343
20515W        W87056  36.730  34.567  10.472
20516W        W87057  22.289  20.242   2.478
20517W        W87058  43.243  12.381   2.636
20518W        W87059  28.978  23.989   0.342
20519W        W87060  37.247   6.697   0.362
20520W        W87061  28.034  27.141  10.807
20521W        W87062  32.024  15.153   1.789
20522W        W87063  36.565  14.307  11.583
20523W        W87064  17.754  22.187   1.018
20524W        W87065   1.007  39.541   4.098
20525W        W87066  36.185  19.703   2.058
20526W        W87067  35.596   8.587   2.376
20527W        W87068  27.683  20.468   1.375
20528W        W87069  14.735  42.682   4.786
20529W        W87070  38.333  23.069   1.187
20530W        W87071  42.783   7.944   3.560
20531W        W87072  13.622  31.115  12.071
20532W        W87073  24.828  14.845   0.510
20533W        W87074  34.469  43.239  12.381
20534W        W87075  25.629   6.214   4.336
20535W        W87076  15.404  38.058   4.123
20536W        W87077  19.201  22.732  12.905
20537W        W87078  33.354  23.051  10.721
20538W        W87079   9.891  25.977  14.716
20539W        W87080   6.815  12.843  13.326
20540W        W87081  44.736  31.228   0.481
20541W        W87082  42.005  15.705  13.726
20542W        W87083   9.293  37.586  13.130
20543W        W87084   7.629  10.525   3.558
20544W        W87085  14.385  23.544  13.396
20545W        W87086  28.437  20.094   2.662
20546W        W87087  37.193  27.998  14.527
20547W        W87088  33.662  33.478   0.514
20548W        W87089  30.515  33.070   2.770
20549W        W87090  27.941  12.194   4.584
20550W        W87091   2.000   0.031  13.477
20551W        W87092  35.708  40.589   1.881
20552W        W87093  44.666   0.235   0.025
20553W        W87094  24.493  10.473  14.466
20554W        W87095  44.300   4.808  11.666
20555W        W87096   1.544   3.677  12.591
20556W        W87097   6.153  18.129  11.470
20557W        W87098  30.284  20.640  13.897
20558W        W87099   4.461  15.332   0.180
20559W        W87100   7.898  24.293   3.167
20560W        W87101  33.654  43.995  11.521
20561W        W87102   6.071  34.700  10.305
20562W        W87103  29.935   2.747   4.539
20563W        W87104   4.829   6.807   4.348
20564W        W87105  25.975  16.646   1.847
20565W        W87106  13.296  16.976  13.739
20566W        W87107  39.878  30.909   0.760
20567W        W87108  35.885  23.211  11.672
20568W        W87109  36.681  43.941   1.459
20569W        W87110  19.997   0.750  10.990
20570W        W87111  10.874  41.584   9.844
20571W        W87112   0.756   0.720  13.356
20572W        W87113  37.910  36.917  10.464
20573W        W87114  28.107  28.604   2.161
20574W        W87115  17.714  34.061   2.320
20575W        W87116  27.955   0.831   2.536
20576W        W87117  16.040  14.916  12.494
20577W        W87118  22.505  44.341  13.084
20578W        W87119  12.449  25.628   4.127
20579W        W87120  11.256  26.605   3.562
20580W        W87121  12.469  26.026  13.249
20581W        W87122  38.815  41.292  13.852
20582W        W87123  26.001  33.298  14.742
20583W        W87124  42.041   6.817  13.385
20584W        W87125  19.275   6.678  14.055
20585W        W87126  21.364  27.709  11.981
20586W        W87127   7.391  14.778  12.053
20587W        W87128  37.884   6.107   2.620
20588W        W87129  17.392  23.777  11.048
20589W        W87130  27.430  42.990   1.852
20590W        W87131  10.177  39.528  14.689
20591W        W87132  42.035  28.318   3.334
20592W        W87133  33.694  12.081  14.036
20593W        W87134   6.908   8.967   1.760
20594W        W87135  20.787  26.622  10.978
20595W        W87136   8.316  27.596   0.282
20596W        W87137  25.770  41.466   0.892
20597W        W87138  29.483  34.439   3.163
20598W        W87139   2.417  41.032  13.873
20599W        W87140  28.417  29.561   3.669
20600W        W87141  38.082  31.718  14.444
20601W        W87142  29.348  41.236  11.573
20602W        W87143  40.252  18.280   3.263
20603W        W87144   2.447   8.051  11.982
20604W        W87145  26.489  38.687  11.726
20605W        W87146  43.535  23.064   0.798
20606W        W87147   2.847   0.247   4.863
20607W        W87148   1.736  20.566  10.329
20608W        W87149  30.570  31.205  13.047
20609W        W87150  27.648   8.150  14.947
20610W        W87151  24.425  24.153   2.266
20611W        W87152  35.075  30.279  11.182
20612W        W87153  32.817  19.603  12.949
20613W        W87154  26.948  34.245  14.797
20614W        W87155   3.300   3.986   0.429
20615W        W87156  26.984   9.797  14.434
20616W        W87157  14.292  23.150   0.213
20617W        W87158  28.401  38.578   2.192
20618W        W87159  35.805  23.713  11.534
20619W        W87160   3.273  21.247   1.331
20620W        W87161  28.669   3.366   2.182
20621W        W87162  29.540  22.694   4.257
20622W        W87163   6.664   0.704  12.537
20623W        W87164  36.596  34.675   0.698
20624W        W87165  27.883  23.321   2.264
20625W        W87166  39.787   8.245  11.954
20626W        W87167   8.913  18.526   3.518
20627W        W87168  12.135  28.236  14.471
20628W        W87169   4.933   5.206   2.652
20629W        W87170  26.725   5.171   2.784
20630W        W87171  15.275  17.769  11.914
20631W        W87172   4.663   5.287  12.011
20632W        W87173   0.206  19.840   1.294
20633W        W87174   6.424  24.103  10.800
20634W        W87175  29.199  42.555   0.789
20635W        W87176  39.982  43.312  10.595
20636W        W87177  21.558  37.263  11.597
20637W        W87178  38.110  40.350   0.912
20638W        W87179  23.674  13.886   2.195
20639W        W87180  25.155  38.062  11.508
20640W        W87181  22.679  26.678  13.440
20641W        W87182  21.434  13.316   0.580
20642W        W87183  22.232  10.853   3.369
20643W        W87184  24.230  13.195  14.943
20644W        W87185  37.818  43.875  14.576
20645W        W87186  34.294  43.546   3.431
20646W        W87187   1.082  44.775   2.927
20647W        W87188  44.218  32.997  13.467
20648W        W87189  32.942  21.673  14.826
20649W        W87190  35.474  37.009   4.077
20650W        W87191   2.871   2.759   0.423
20651W        W87192   1.475   9.123  11.518
20652W        W87193  30.091  28.856  11.297
20653W        W87194   1.830  34.625  14.728
20654W        W87195  43.010  25.614  13.183
20655W        W87196  22.240  41.030   1.805
20656W        W87197  36.367  38.870  11.134
20657W        W87198  29.899  18.465  10.658
20658W        W87199  17.649  13.824  14.443
20659W        W87200  21.034  32.489   1.679
20660W        W87201  37.295   7.184   1.629
20661W        W87202  44.236   6.997   2.857
20662W        W87203   3.834   0.474  14.990
20663W        W87204  42.602  12.868  10.577
20664W        W87205   8.234  43.940   2.105
20665W        W87206  44.343   4.327   2.825
20666W        W87207  37.318  14.975  13.538
20667W        W87208  12.430   0.570   0.557
20668W        W87209  40.995  10.449   3.271
20669W        W87210  40.618  21.727   2.317
20670W        W87211  36.987  18.248  12.991
20671W        W87212   7.781   3.497   4.611
20672W        W87213  44.556  18.285   2.249
20673W        W87214  30.672  42.779  14.930
20674W        W87215   9.567  27.217   0.289
20675W        W87216  19.229   1.999  14.988
20676W        W87217  42.513  21.237   4.792
20677W        W87218  35.912  34.388   2.955
20678W        W87219  15.103  33.092  14.820
20679W        W87220  12.175  31.594   2.367
20680W        W87221  30.024  37.919  14.960
20681W        W87222  28.881  11.053  12.085
20682W        W87223  13.142  39.799  11.505
20683W        W87224  31.635  14.888   5.004
20684W        W87225  11.406  16.340  13.924
20685W        W87226   6.357  26.040   3.937
20686W        W87227  32.313   6.748  14.862
20687W        W87228  26.906  34.691  12.181
20688W        W87229  26.495  23.811  13.984
20689W        W87230  25.993  13.241   2.697
20690W        W87231  22.282  42.237  12.457
20691W        W87232  42.513  10.706  11.097
20692W        W87233  16.261  41.408   0.248
20693W        W87234  34.508  35.367   2.700
20694W        W87235  15.251  18.738  14.756
20695W        W87236   5.497  19.090   2.628
20696W        W87237  32.042  37.321  11.565
20697W        W87238  41.595  14.270   1.734
20698W        W87239   7.867  14.597   3.683
20699W        W87240  39.625  24.752  11.031
20700W        W87241   9.850  18.826  11.879
20701W        W87242  40.027   7.196   0.857
20702W        W87243   9.604  14.138   3.326
20703W        W87244  15.589  29.582  14.429
20704W        W87245  27.170  27.262  14.446
20705W        W87246  39.769  15.741  11.784
20706W        W87247  42.381  42.785   3.177
20707W        W87248   4.759  44.161   4.155
20708W        W87249   0.983  22.225   4.663
20709W        W87250  39.298   4.243   1.915
20710W        W87251  43.804  20.616   1.505
20711W        W87252  29.230  43.902  13.260
20712W        W87253  44.414  19.363   1.358
20713W        W87254  26.024  24.415   3.618
20714W        W87255  23.217  40.892   3.870
20715W        W87256  25.014  27.843   0.467
20716W        W87257  33.475  15.618  13.714
20717W        W87258  16.180  27.400   2.433
20718W        W87259  31.101  41.957   2.539
20719W        W87260   9.906  43.946   3.706
20720W        W87261  23.099  40.423   4.022
20721W        W87262   9.615  36.520  13.433
20722W        W87263  34.125   1.944   1.343
20723W        W87264  14.595   9.463   3.883
20724W        W87265  17.536  37.442   2.250
20725W        W87266   2.482  19.755   3.222
20726W        W87267  37.940  42.766   3.854
20727W        W87268  36.928  36.831   2.619
20728W        W87269  20.324  31.591   1.326
20729W        W87270  31.332  20.155  11.695
20730W        W87271   3.401  41.294   1.225
20731W        W87272  11.173  11.886  10.633
20732W        W87273  37.239  31.809   4.992
20733W        W87274  14.215  17.321   1.232
20734W        W87275  12.779  17.098  10.624
20735W        W87276  25.029  36.747  12.176
20736W        W87277  16.308  16.298   3.625
20737W        W87278  15.111  42.770  13.292
20738W        W87279  30.012  39.117   1.906
20739W        W87280  27.489  19.473  13.462
20740W        W87281  26.052  23.151  10.710
20741W        W87282  26.477  13.080   1.514
20742W        W87283   0.734  43.357   4.577
20743W        W87284  34.492  25.123   0.667
20744W        W87285  29.103   9.262   1.189
20745W        W87286  28.185  15.250  10.349
20746W        W87287  44.410  23.481  12.237
20747W        W87288   1.954  12.959  11.228
20748W        W87289   6.668  14.754   0.365
20749W        W87290  42.889  12.771   3.393
20750W        W87291   9.841  28.494  11.614
20751W        W87292  25.943  22.201   2.676
20752W        W87293  14.571  17.696   1.639
20753W        W87294  27.525   3.077   4.512
20754W        W87295  29.079  30.023   2.159
20755W        W87296  34.937  41.345  11.216
20756W        W87297   3.783  37.842   3.174
20757W        W87298  40.610  19.010  10.508
20758W        W87299  28.978  13.222  13.095
20759W        W87300  22.535   0.482  10.277
20760W        W87301   9.239  30.797  14.369
20761W        W87302  41.959  13.116   0.414
20762W        W87303  41.093  15.768  13.131
20763W        W87304  39.990  24.805  12.735
20764W        W87305   6.910   1.472   5.095
20765W        W87306   8.406  10.304  14.803
20766W        W87307  15.712  29.361  13.953
20767W        W87308  12.533  11.042  12.448
20768W        W87309  44.590  12.204   4.644
20769W        W87310  44.513  31.832  12.902
20770W        W87311  12.273  33.426  14.816
20771W        W87312   3.222   9.644   1.672
20772W        W87313   6.473  28.939   1.759
20773W        W87314  39.912  21.329  12.777
20774W        W87315  38.576  14.033  12.299
20775W        W87316  29.916  31.557  12.379
20776W        W87317   3.543  43.035  11.363
20777W        W87318   1.770  41.822   1.005
20778W        W87319   7.301  33.882  12.194
20779W        W87320   5.648   9.201  14.297
20780W        W87321   4.446  23.941   2.382
20781W        W87322  43.077  29.715  11.102
20782W        W87323  35.537  22.379   3.934
20783W        W87324  42.294  39.753  13.924
20784W        W87325  30.584  23.353  10.590
20785W        W87326   8.842  41.942   3.781
20786W        W87327  26.810   1.791   4.872
20787W        W87328   8.246  28.380  10.719
20788W        W87329  22.338  24.175  11.125
20789W        W87330  41.278  10.790  10.643
20790W        W87331  28.611  11.258   2.221
20791W        W87332  12.216  10.959   3.210
20792W        W87333  27.385  27.575   2.753
20793W        W87334  30.509  13.787   0.764
20794W        W87335  44.929  18.011   3.205
20795W        W87336  14.326  28.453  12.060
20796W        W87337   1.862  13.855  14.993
20797W        W87338  19.466  43.455   3.290
20798W        W87339  32.116  34.655  13.861
20799W        W87340  39.458  42.995   4.943
20800W        W87341  32.317  40.927   1.041
20801W        W87342  31.606  40.455   0.833
20802W        W87343   8.246  39.537  14.863
20803W        W87344  18.719  35.224   2.118
20804W        W87345  27.546  31.622  12.272
20805W        W87346  32.441   8.166   3.660
20806W        W87347  42.791  20.991   0.595
20807W        W87348  13.177  28.663  13.528
20808W        W87349   9.756  24.506  12.030
20809W        W87350  37.205  39.445   0.631
20810W        W87351  11.794  32.437  11.631
20811W        W87352  12.656   9.804   3.662
20812W        W87353  14.577  40.777   1.763
20813W        W87354  30.011  12.095   3.179
20814W        W87355  35.751  11.283   2.260
20815W        W87356  13.708  19.417   2.812
20816W        W87357  14.314   9.750  11.616
20817W        W87358  15.244  30.166   3.881
20818W        W87359  16.830  24.317   2.197
20819W        W87360  32.956  26.598  10.361
20820W        W87361  36.255  12.380   3.903
20821W        W87362  13.491  28.200   0.738
20822W        W87363  44.509  43.958   0.275
20823W        W87364  37.429  28.291  11.992
20824W        W87365  36.489  43.720   4.582
20825W        W87366  19.602  38.883  14.546
20826W        W87367  29.991  43.283   4.937
20827W        W87368  36.905  21.095  12.518
20828W        W87369  39.376  44.806   3.521
20829W        W87370   5.291   7.596   0.949
20830W        W87371  37.064  28.665  13.817
20831W        W87372   0.214  34.116   4.124
20832W        W87373  41.220  33.892  11.179
20833W        W87374  22.230  15.167  10.682
20834W        W87375  42.284  41.339   4.105
20835W        W87376  20.486  24.713  13.522
20836W        W87377  36.338   8.668  13.194
20837W        W87378  15.961  13.811  12.537
20838W        W87379  19.598   0.816  11.963
20839W        W87380  27.979  36.093   2.142
20840W        W87381  24.951   1.231   3.658
20841W        W87382  22.206  30.555   1.015
20842W        W87383  27.263   6.173   3.079
20843W        W87384  15.369   9.336  11.968
20844W        W87385  36.072  39.604  13.059
20845W        W87386  14.367  21.560   4.394
20846W        W87387   7.421  36.997  13.633
20847W        W87388  12.391   3.427  13.052
20848W        W87389  17.757  44.467   0.362
20849W        W87390  43.808  35.807   3.669
20850W        W87391  41.469  15.315   4.108
20851W        W87392   2.861   5.467   1.569
20852W        W87393  43.625   9.617   1.427
20853W        W87394   6.425  16.830   4.227
20854W        W87395  17.138  34.359   1.100
20855W        W87396  11.625  31.291  14.589
20856W        W87397   5.169  25.456  11.685
20857W        W87398  16.200  11.166   4.544
20858W        W87399  33.271  22.561  10.902
20859W        W87400  18.373  39.678   1.711
20860W        W87401   2.566   7.348   1.188
20861W        W87402   7.583   4.359   2.954
20862W        W87403  11.689  41.047   3.682
20863W        W87404   5.275  27.191  10.713
20864W        W87405   4.170  40.337   4.883
20865W        W87406   8.818  19.597  11.799
20866W        W87407  28.455  24.073  10.612
20867W        W87408  35.568  24.080  14.404
20868W        W87409  18.953  29.498  14.364
20869W        W87410   3.607   5.183  11.895
20870W        W87411  28.116  39.691  13.923
20871W        W87412  12.205  33.973   1.394
20872W        W87413  19.765  15.754  12.691
20873W        W87414  40.300  33.404  10.445
20874W        W87415  12.304  14.533   4.310
20875W        W87416  29.594   2.450  13.641
20876W        W87417  24.940  40.397   3.081
20877W        W87418   3.772  32.536   1.243
20878W        W87419   5.363  20.948  12.000
20879W        W87420  11.324  29.048   3.600
20880W        W87421   5.686  20.607  10.423
20881W        W87422   1.510  10.671  14.472
20882W        W87423  20.140  31.325  12.562
20883W        W87424  29.132  43.187   4.909
20884W        W87425  12.299  33.620   3.153
20885W        W87426  30.881  39.449   0.956
20886W        W87427  14.351  23.566   3.302
20887W        W87428  14.341  23.879  14.729
20888W        W87429  12.612  20.042   3.257
20889W        W87430  18.086  25.077   3.600
20890W        W87431  30.115   4.154  12.523
20891W        W87432  35.940  44.770   4.120
20892W        W87433   6.599   1.314   2.614
20893W        W87434  22.805  40.839  13.044
20894W        W87435  41.833  38.677   4.582
20895W        W87436  31.465  42.424  14.299
20896W        W87437   7.693  12.333  10.671
20897W        W87438  25.049  23.849  11.998
20898W        W87439  40.670  21.687  11.093
20899W        W87440  23.361  22.398  12.105
20900W        W87441   1.256  36.008   1.393
20901W        W87442  34.586  40.769   3.639
20902W        W87443  18.784   3.784  13.659
20903W        W87444   4.259   1.197   1.275
20904W        W87445  40.472  15.631  11.947
20905W        W87446  44.968  37.774   4.528
20906W        W87447  38.152  29.884   3.783
20907W        W87448   0.992  32.949  12.185
20908W        W87449  44.982  12.279  13.571
20909W        W87450  33.114  42.364   2.698
20910W        W87451  38.326  10.045   1.243
20911W        W87452  10.830  42.653  11.497
20912W        W87453  15.242  32.396  14.801
20913W        W87454  23.605  34.576  12.091
20914W        W87455  31.472  19.681   1.754
20915W        W87456  42.896  33.409   4.313
20916W        W87457  27.386  36.028   0.924
20917W        W87458  42.431   9.444   2.132
20918W        W87459  12.304  28.804   3.675
20919W        W87460  18.097  42.612  14.236
20920W        W87461  32.518  34.019  10.651
20921W        W87462  21.247  18.386  12.089
20922W        W87463  10.663  29.172  13.885
20923W        W87464  29.294  29.505  14.817
20924W        W87465  42.852  11.569  13.213
20925W        W87466  42.009  37.171   1.395
20926W        W87467  17.244  18.236  14.592
20927W        W87468   7.743  29.851  14.238
20928W        W87469   5.313   9.273  10.595
20929W        W87470   0.633  19.103  13.986
20930W        W87471   7.609   5.399  11.567
20931W        W87472   4.827  23.289   3.597
20932W        W87473   2.448   9.896  11.361
20933W        W87474  42.316   9.237  12.088
20934W        W87475  12.558  24.939   0.956
20935W        W87476   3.973  27.093   4.622
20936W        W87477  19.123  41.882   0.804
20937W        W87478  20.548  19.746  13.706
20938W        W87479  29.237  11.076  11.692
20939W        W87480  42.458  44.907  12.927
20940W        W87481  38.420  24.121  14.678
20941W        W87482  23.416   9.432   2.235
20942W        W87483  10.302  41.993   0.511
20943W        W87484   7.915  38.535   4.200
20944W        W87485  34.252  39.457  11.104
20945W        W87486  37.838  40.563   4.637
20946W        W87487  28.154  33.565   1.359
20947W        W87488  44.604  31.685   2.778
20948W        W87489  39.848  16.383   1.282
20949W        W87490  23.985  44.496   4.254
20950W        W87491  28.924  31.719  13.794
20951W        W87492   9.744  16.064  13.158
20952W        W87493  34.279   2.668   4.004
20953W        W87494  21.468  42.279  10.782
20954W        W87495  36.093   6.754   2.804
20955W        W87496  28.156  35.242   3.276
20956W        W87497  44.844   8.695  10.711
20957W        W87498  31.859   5.338  11.032
20958W        W87499  22.083   7.778   1.990
20959W        W87500  34.062  12.065   4.921
20960W        W87501  20.290   2.274  11.153
20961W        W87502   0.242  32.180   3.564
20962W        W87503  23.459  27.725   4.164
20963W        W87504  19.481   6.421   5.144
20964W        W87505   4.345  35.465  12.452
20965W        W87506  10.286  37.877   0.504
20966W        W87507  37.418  16.720   4.032
20967W        W87508   6.367  40.511   2.128
20968W        W87509  29.792   1.027   4.605
20969W        W87510  21.043   8.170   3.088
20970W        W87511  24.079   7.023   4.586
20971W        W87512   6.429  41.327  11.503
20972W        W87513   5.490  44.658   3.803
20973W        W87514  17.873   2.175  10.903
20974W        W87515  36.272  44.388   2.456
20975W        W87516  43.836  10.705   4.685
20976W        W87517  18.436  43.004  12.714
20977W        W87518  28.234  16.769   2.358
20978W        W87519  41.395  12.182  10.582
20979W        W87520  16.699   2.840  14.803
20980W        W87521  20.297  20.562   0.341
20981W        W87522  13.824   9.279  14.819
20982W        W87523   2.518  11.163   3.321
20983W        W87524   7.412  18.234  12.103
20984W        W87525  31.624  33.599   2.995
20985W        W87526   5.129  10.274  10.744
20986W        W87527  27.045  10.397  13.939
20987W        W87528  13.865  35.742   0.454
20988W        W87529  39.012  44.413   2.978
20989W        W87530  20.821  29.680  11.188
20990W        W87531  39.335  35.683   2.756
20991W        W87532  16.981  43.762   3.440
20992W        W87533  37.054  20.601  12.438
20993W        W87534  14.730  43.213  10.413
20994W        W87535  25.453  24.535   4.727
20995W        W87536  12.531  10.661   1.326
20996W        W87537  42.055  25.495  14.815
20997W        W87538  38.353   2.802  12.977
20998W        W87539  43.995  36.453   0.358
20999W        W87540  11.139  34.398   0.815
21000W        W87541   5.721   6.725   3.429
21001W        W87542  19.158  27.517  11.013
21002W        W87543  18.134  32.496   5.065
21003W        W87544  29.546   9.160  11.984
21004W        W87545  19.328   2.617   3.333
21005W        W87546  24.286   5.176  14.381
21006W        W87547  21.751  12.959  10.815
21007W        W87548  11.394  26.582  12.646
21008W        W87549  13.546  13.146   3.236
21009W        W87550  21.152   4.790   1.319
21010W        W87551  17.801   6.816  10.708
21011W        W87552  33.189  24.638   1.833
21012W        W87553  17.546  42.383  10.409
21013W        W87554  44.556  39.675  14.798
21014W        W87555   4.285  16.242   3.419
21015W        W87556  41.807  34.564  12.931
21016W        W87557  37.681   3.801  11.555
21017W        W87558  38.758   9.520   0.352
21018W        W87559   8.295   5.787   4.504
21019W        W87560  31.432  14.408  13.905
21020W        W87561  12.395  36.022   4.899
21021W        W87562  22.920  24.774   4.540
21022W        W87563  35.919  12.073   0.402
21023W        W87564  33.627  25.715  13.958
21024W        W87565  36.587  19.682  10.693
21025W        W87566   8.368  18.518  11.202
21026W        W87567   8.081  19.796  13.384
21027W        W87568   9.807  41.919   3.333
21028W        W87569  13.613   6.187   3.528
21029W        W87570  32.497  18.083   0.979
21030W        W87571  36.566  40.465   2.599
21031W        W87572  19.498   6.426  11.995
21032W        W87573  24.172   2.986  14.083
21033W        W87574  41.569  22.957  14.891
21034W        W87575  34.671  44.401   0.489
21035W        W87576  43.343   5.558  11.414
21036W        W87577   6.477  26.884   0.239
21037W        W87578  22.699  12.813  14.332
21038W        W87579  19.659  29.352  13.908
21039W        W87580  39.782   4.068  12.922
21040W        W87581  29.338  15.879   0.692
21041W        W87582   9.846  40.042  11.938
21042W        W87583  37.020  44.757   2.701
21043W        W87584  19.504  16.026   3.303
21044W        W87585  41.468  34.584   2.719
21045W        W87586  11.392  39.639  10.132
21046W        W87587  15.218  43.881  10.407
21047W        W87588  39.922  27.948  11.588
21048W        W87589  15.718  41.920   2.653
21049W        W87590  34.784  31.934   3.717
21050W        W87591  39.950  24.689   2.250
21051W        W87592   3.556  32.011   2.619
21052W        W87593  16.867  44.994  10.687
21053W        W87594  15.957  43.872   3.621
21054W        W87595  42.395  18.100  10.729
21055W        W87596  32.102  35.587   3.669
21056W        W87597  15.761  43.252   0.909
21057W        W87598  33.661  38.111  14.379
21058W        W87599   9.304  43.891  12.264
21059W        W87600  13.907  44.608  11.674
21060W        W87601  15.062   7.625   3.743
21061W        W87602  42.557  29.217  11.587
21062W        W87603  21.986  24.122  13.464
21063W        W87604   5.455  27.940  12.708
21064W        W87605  19.712  11.025   4.140
21065W        W87606  13.121  12.543   1.438
21066W        W87607  24.985  13.404   1.871
21067W        W87608  25.011  19.752   4.834
21068W        W87609  41.014  12.442  11.573
21069W        W87610  25.953   0.233  13.358
21070W        W87611  12.119   1.981   3.630
21071W        W87612  31.960  15.249   3.837
21072W        W87613  23.208   8.249   5.122
21073W        W87614  41.323  32.032   4.601
21074W        W87615  11.140   3.929   3.739
21075W        W87616   1.560  36.268  11.490
21076W        W87617  31.795  33.909   4.513
21077W        W87618  28.615  36.298  12.969
21078W        W87619  34.117  27.782   4.514
21079W        W87620  24.595  12.037   4.563
21080W        W87621  36.136  33.089  10.723
21081W        W87622  23.895  37.797   4.637
21082W        W87623   6.878   5.399  11.015
21083W        W87624   0.778  24.951   4.987
21084W        W87625  35.466   1.734   4.034
21085W        W87626  20.074  16.457  12.964
21086W        W87627  13.618  44.403   1.310
21087W        W87628  33.581   0.495  11.821
21088W        W87629  12.763  24.370  13.596
21089W        W87630  16.696   6.285  14.613
21090W        W87631  17.989   3.704  13.943
21091W        W87632  30.975   3.353   0.208
21092W        W87633  14.257  25.726  12.907
21093W        W87634   1.801   9.877  12.949
21094W        W87635   7.306   5.470  14.045
21095W        W87636  37.143  41.792  14.401
21096W        W87637  12.542  20.802  11.978
21097W        W87638  19.763  16.059  13.471
21098W        W87639  23.644  38.029   0.837
21099W        W87640  11.061  12.549  13.982
21100W        W87641  43.284  39.326   2.426
21101W        W87642   5.644  17.319   4.763
21102W        W87643  25.819  26.576   0.936
21103W        W87644   1.888  23.073   4.583
21104W        W87645  37.617  27.967   1.828
21105W        W87646   5.940  43.932   1.176
21106W        W87647  33.515  35.828  12.529
21107W        W87648   6.709   8.927  11.998
21108W        W87649  24.418  44.508   5.022
21109W        W87650   7.654  23.309   0.996
21110W        W87651  35.667  26.460  13.923
21111W        W87652   7.425  36.021   2.791
21112W        W87653  44.884   2.864   2.686
21113W        W87654  30.247  27.014  13.725
21114W        W87655  38.415  26.709  14.019
21115W        W87656  26.798   9.186   3.151
21116W        W87657  23.985  11.452  12.020
21117W        W87658   3.331  21.518   4.725
21118W        W87659  33.732  40.215   3.668
21119W        W87660  30.173  22.527   3.134
21120W        W87661  16.281   8.749   1.380
21121W        W87662  23.483   6.917   2.177
21122W        W87663  21.767  40.377   2.256
21123W        W87664   1.990  28.390  11.914
21124W        W87665  37.014  27.923   2.668
21125W        W87666  25.405  30.329   4.620
21126W        W87667   2.246   6.507  14.320
21127W        W87668  41.455  20.196  13.418
21128W        W87669   9.186  43.583  13.463
21129W        W87670  24.482   8.420  11.547
21130W        W87671  42.047  20.519  14.239
21131W        W87672  16.612  13.437   3.020
21132W        W87673  16.298  32.901   3.235
21133W        W87674  18.915  15.182  12.931
21134W        W87675   0.248   4.699   1.960
21135W        W87676   5.334  32.386   0.422
21136W        W87677  37.658  17.037  13.013
21137W        W87678   1.762  37.266   4.074
21138W        W87679  19.624   0.569  14.063
21139W        W87680   5.707  44.351  10.139
21140W        W87681  12.684  25.094  14.261
21141W        W87682  21.318  30.417  12.379
21142W        W87683  26.617  39.894   3.311
21143W        W87684  19.171   8.276  10.749
21144W        W87685  37.850  11.214   4.169
21145W        W87686  21.178  25.245  13.172
21146W        W87687   0.463  36.950   1.881
21147W        W87688  39.973   6.072  10.452
21148W        W87689   5.062  21.281  14.848
21149W        W87690   5.863   1.954  12.991
21150W        W87691  44.769  24.111   1.815
21151W        W87692  37.949   1.467   0.283
21152W        W87693   9.859   3.780  10.899
21153W        W87694  10.271   6.233   3.717
21154W        W87695   4.350  34.965  12.236
21155W        W87696  43.089  28.518  12.555
21156W        W87697  12.835  15.589   4.920
21157W        W87698  40.043  10.055  11.200
21158W        W87699   7.093  30.977  11.211
21159W        W87700   9.254  27.617  12.876
21160W        W87701  37.292  40.689   2.885
21161W        W87702  33.752  42.557   4.844
21162W        W87703   0.439  26.286   4.200
21163W        W87704  19.093   3.433   2.847
21164W        W87705  35.213  38.037  14.489
21165W        W87706  23.783  26.443   4.597
21166W        W87707  38.095  13.967  12.922
21167W        W87708  16.656  12.505  11.488
21168W        W87709  26.513   5.084  11.155
21169W        W87710   9.867  41.813  11.423
21170W        W87711  14.398  15.865   0.828
21171W        W87712  41.502  26.327   2.825
21172W        W87713  38.387  34.816   3.648
21173W        W87714  44.892   6.395   4.637
21174W        W87715  14.316  28.636   1.693
21175W        W87716  36.735   1.074   3.178
21176W        W87717   2.180  25.642   4.058
21177W        W87718  25.147  35.416   3.151
21178W        W87719  16.135  18.574   3.026
21179W        W87720  19.160  38.429   1.835
21180W        W87721  17.635  23.991   1.045
21181W        W87722   6.435  11.452   4.463
21182W        W87723  12.898  33.010   1.882
21183W        W87724  36.233  16.292   0.935
21184W        W87725  43.446  38.387  12.432
21185W        W87726  19.044  37.927   1.355
21186W        W87727  26.386   7.337   3.582
21187W        W87728   0.773  40.226  11.581
21188W        W87729   5.420  25.142  13.950
21189W        W87730  10.816  32.091   1.819
21190W        W87731   4.254  16.558   1.811
21191W        W87732  42.291  33.609   2.763
21192W        W87733   3.737  10.179  14.736
21193W        W87734  12.629  35.497  13.344
21194W        W87735   6.833  34.514   3.340
21195W        W87736  38.962   4.851   3.195
21196W        W87737  44.807  19.056  14.328
21197W        W87738  27.472   2.721   0.291
21198W        W87739   4.365   3.034  12.995
21199W        W87740  17.623  41.618  13.241
21200W        W87741  14.420  40.956   4.488
21201W        W87742   2.642  11.164  11.190
21202W        W87743  22.757  16.998   4.547
21203W        W87744  19.675   7.104  13.508
21204W        W87745  34.533  21.626  13.491
21205W        W87746   1.713  29.999  11.580
21206W        W87747  24.266  14.790  13.909
21207W        W87748  43.759   6.379   0.396
21208W        W87749  18.178  30.163   3.267
21209W        W87750   6.774   1.797   2.470
21210W        W87751  42.282  29.078   2.694
21211W        W87752  27.030   5.311   4.063
21212W        W87753  30.576  32.383   3.123
21213W        W87754   1.363  25.135   2.847
21214W        W87755   5.779  28.452   0.363
21215W        W87756   1.670  29.014   1.756
21216W        W87757   6.329   3.439  11.514
21217W        W87758   6.778  44.427   1.451
21218W        W87759   1.705   5.933  12.028
21219W        W87760  24.050  18.044  11.178
21220W        W87761  11.408  43.776  11.656
21221W        W87762  43.399  18.035   3.910
21222W        W87763   5.096  42.109  13.111
21223W        W87764   6.915   0.282   2.463
21224W        W87765  16.870   6.905   4.102
21225W        W87766   9.287   1.998   0.781
21226W        W87767  41.977  38.627  11.147
21227W        W87768  15.810  23.607   1.659
21228W        W87769  24.124  23.817   0.812
21229W        W87770  17.995  24.686   0.348
21230W        W87771   2.016  32.634   3.025
21231W        W87772   0.964  31.042  12.432
21232W        W87773  11.697  11.105  10.618
21233W        W87774   8.454  31.792   0.875
21234W        W87775  22.516  27.889  11.629
21235W        W87776  33.141   6.941   1.761
21236W        W87777  15.851  32.824   2.670
21237W        W87778  28.219   2.437   1.874
21238W        W87779  33.882   1.302   0.804
21239W        W87780  32.116  33.072   0.331
21240W        W87781  32.465  34.172   0.950
21241W        W87782  29.877  43.785   0.333
21242W        W87783  38.340  32.520   1.418
21243W        W87784  24.534   7.460   0.346
21244W        W87785  22.650   1.909  11.114
21245W        W87786  40.634  43.750   1.167
21246W        W87787  12.624   6.392   1.504
21247W        W87788   9.236  18.820   1.983
21248W        W87789  33.541  17.371  14.259
21249W        W87790  12.270  27.795  12.827
21250W        W87791  34.420  38.140   3.824
21251W        W87792   0.406  26.474  12.399
21252W        W87793  38.481  12.292  11.691
21253W        W87794  28.630  29.937  14.762
21254W        W87795  41.695  21.522  13.208
21255W        W87796  29.156  17.968   1.806
21256W        W87797   7.473  24.950  14.117
21257W        W87798  24.661  34.490   4.104
21258W        W87799  19.242  23.154  12.129
21259W        W87800  26.639  24.490   4.157
21260W        W87801  13.628  23.999   4.134
21261W        W87802   4.701  38.963  13.592
21262W        W87803  42.525  44.849  11.152
21263W        W87804  22.481  40.156  13.768
21264W        W87805  14.643  11.588   4.483
21265W        W87806  38.415   9.187  14.966
21266W        W87807  18.497  23.014  12.106
21267W        W87808   6.345  41.869  11.222
21268W        W87809  19.999  32.894   2.790
21269W        W87810  12.244  40.388   3.809
21270W        W87811  34.974  12.763   3.205
21271W        W87812  29.998  44.367  12.844
21272W        W87813  13.136  18.129   3.134
21273W        W87814   7.591  20.356   0.572
21274W        W87815  18.200  30.550   3.602
21275W        W87816  31.868  38.775  10.392
21276W        W87817   2.193   8.736  13.891
21277W        W87818   7.934  15.612  13.454
21278W        W87819   5.395  35.057   0.535
21279W        W87820  23.432  20.921   4.294
21280W        W87821  27.989  17.546   1.326
21281W        W87822  34.824  16.128  12.051
21282W        W87823  44.776   6.451  12.003
21283W        W87824  42.420  25.492   0.342
21284W        W87825  31.969   8.284   1.883
21285W        W87826   3.768  40.131  12.927
21286W        W87827  23.405  14.867   4.040
21287W        W87828  12.166  43.332  11.198
21288W        W87829   5.422  33.091   4.970
21289W        W87830   4.693  25.047   3.487
21290W        W87831  13.907  27.013   3.323
21291W        W87832  43.989   2.938   0.944
21292W        W87833  31.881   1.709  12.956
21293W        W87834  36.679  24.132   2.180
21294W        W87835   3.489   1.966  12.507
21295W        W87836  19.111   2.820  13.981
21296W        W87837  39.939  44.011   0.824
21297W        W87838  39.827  21.094   0.237
21298W        W87839  13.705  11.814  13.089
21299W        W87840  36.783  11.338  12.303
21300W        W87841  33.766  41.289  10.471
21301W        W87842  30.442  34.627   1.980
21302W        W87843  22.707  16.214   0.962
21303W        W87844  30.047  24.719  13.542
21304W        W87845  18.384  11.588   4.996
21305W        W87846   6.769  24.972   0.703
21306W        W87847  12.314  14.241   4.878
21307W        W87848  16.613  40.611  14.482
21308W        W87849   8.252  38.381   2.299
21309W        W87850  15.116  24.183  10.596
21310W        W87851  14.472  19.174   4.669
21311W        W87852  15.350   8.186   0.597
21312W        W87853  34.197   8.246   2.857
21313W        W87854  25.105  42.156   2.378
21314W        W87855  38.886  44.564  10.982
21315W        W87856  17.796  13.635   9.769
21316W        W87857  41.475   5.367  12.587
21317W        W87858  32.716  28.485  12.485
21318W        W87859   5.932  28.421   4.601
21319W        W87860  14.302  39.047  13.401
21320W        W87861  32.585  19.138  12.933
21321W        W87862   0.341  27.030  10.546
21322W        W87863  14.994   9.211  14.255
21323W        W87864  37.670  26.514  10.714
21324W        W87865  36.627  37.941  12.045
21325W        W87866  41.260   4.965  12.819
21326W        W87867   1.558   3.755  13.827
21327W        W87868   6.307  34.147  12.962
21328W        W87869   9.436  19.305   1.290
21329W        W87870  42.871   6.994   3.450
21330W        W87871   4.444   5.201  10.718
21331W        W87872  27.807  44.476   2.914
21332W        W87873  24.179   3.836   4.370
21333W        W87874  32.439  38.834   0.904
21334W        W87875  22.285   2.008  11.466
21335W        W87876  40.486  15.048   1.682
21336W        W87877  22.748   3.988   2.767
21337W        W87878  14.103  41.498   0.090
21338W        W87879   3.272  16.932  14.528
21339W        W87880   3.941  10.241  12.105
21340W        W87881  10.252  15.423   4.068
21341W        W87882  10.796  43.418  10.698
21342W        W87883  34.647  36.818   1.879
21343W        W87884  17.495  21.228   0.377
21344W        W87885   4.179  14.842  13.745
21345W        W87886  35.635  15.717   2.312
21346W        W87887  26.631  14.730  11.126
21347W        W87888  38.308   6.825   3.604
21348W        W87889  19.858  16.042  12.187
21349W        W87890  23.200  44.303   0.303
21350W        W87891   1.320  14.303   1.939
21351W        W87892   0.826   8.264  12.568
21352W        W87893  37.133  11.619  13.588
21353W        W87894  39.835  33.226   2.684
21354W        W87895  11.257  34.991  12.486
21355W        W87896  43.227  20.921   2.343
21356W        W87897  28.684  32.934   2.363
21357W        W87898  22.457  31.370  14.286
21358W        W87899   8.354   3.306   4.814
21359W        W87900  22.193  14.869   0.198
21360W        W87901  40.288  26.975  14.863
21361W        W87902  14.330  38.341   2.358
21362W        W87903  34.446  42.266  11.208
21363W        W87904  25.183  11.101   2.315
21364W        W87905   1.288   3.323  10.600
21365W        W87906   0.278  24.754   4.610
21366W        W87907  11.318  10.253  11.579
21367W        W87908   9.180  36.231   5.023
21368W        W87909  44.478  26.980  11.513
21369W        W87910  30.149  33.345  13.352
21370W        W87911  28.707   4.843  12.606
21371W        W87912  24.486   2.269  11.033
21372W        W87913  20.184  33.389  14.478
21373W        W87914  29.019  12.647   0.185
21374W        W87915   2.645   2.946  13.443
21375W        W87916   7.981  42.046   4.073
21376W        W87917  34.432  30.642   2.932
21377W        W87918  14.566  40.479   1.319
21378W        W87919  39.051  40.852  13.884
21379W        W87920  39.506  20.233  11.506
21380W        W87921  21.126  19.851   4.064
21381W        W87922  10.278  34.436  14.843
21382W        W87923   3.830   2.373  12.524
21383W        W87924  32.377  37.936  12.501
21384W        W87925  44.542  14.073  13.865
21385W        W87926   3.724  31.911  13.480
21386W        W87927  38.616  37.786   4.097
21387W        W87928  12.223  39.678  11.003
21388W        W87929  14.050  39.480  12.342
21389W        W87930  26.659   2.931   1.592
21390W        W87931   7.909   4.777   3.175
21391W        W87932  19.478  17.279   4.857
21392W        W87933  16.239  23.495   0.895
21393W        W87934   4.171  23.077  11.847
21394W        W87935  16.636  25.657  13.519
21395W        W87936  18.816  25.938   2.410
21396W        W87937   0.025  10.746  11.845
21397W        W87938  39.008  15.870  10.733
21398W        W87939  15.152  30.271  13.439
21399W        W87940  12.849  33.463  13.837
21400W        W87941  18.740  16.657  12.580
21401W        W87942   0.040  18.037  11.376
21402W        W87943   7.658   6.249   0.689
21403W        W87944   9.609  26.537   4.706
21404W        W87945   0.888   6.469   1.430
21405W        W87946  33.335  30.639  10.030
21406W        W87947  11.138  18.432  12.058
21407W        W87948   5.001  28.435  10.990
21408W        W87949  37.766  28.854  10.149
21409W        W87950  18.569  32.565   4.285
21410W        W87951  40.754  24.258   1.384
21411W        W87952  24.632  24.513  11.685
21412W        W87953   3.302  33.366  12.553
21413W        W87954  37.803  31.277  14.442
21414W        W87955  15.403  13.837   1.891
21415W        W87956  43.486  38.115  14.877
21416W        W87957  29.882   3.891  12.047
21417W        W87958  21.600  22.718  14.752
21418W        W87959  35.698  37.012   3.043
21419W        W87960  31.230  21.550   1.655
21420W        W87961  37.485   1.883   1.359
21421W        W87962   3.678   4.767   1.718
21422W        W87963  32.012  11.337   3.605
21423W        W87964  26.405  27.616   1.479
21424W        W87965  31.911  15.036  12.581
21425W        W87966  39.090  33.038   3.664
21426W        W87967  36.343  42.239  13.421
21427W        W87968  39.884  33.603   4.207
21428W        W87969  22.191  11.297   0.652
21429W        W87970  40.403  15.716   3.300
21430W        W87971  33.297  31.183  14.413
21431W        W87972  27.782  33.842   3.949
21432W        W87973  36.072  12.630  12.790
21433W        W87974  21.474  26.430   4.381
21434W        W87975   0.468  33.844   1.931
21435W        W87976  23.488   4.954  12.030
21436W        W87977  30.313  11.062  12.960
21437W        W87978  28.101   1.856  12.159
21438W        W87979  11.826  23.661  12.903
21439W        W87980   9.813  17.508   3.183
21440W        W87981  41.144  19.312  14.838
21441W        W87982  32.070  23.032   4.444
21442W        W87983  22.478  39.006   2.815
21443W        W87984   9.354  28.600   0.447
21444W        W87985  28.758  39.006   3.828
21445W        W87986   0.242  30.111  12.556
21446W        W87987  30.194  25.650  12.529
21447W        W87988  41.982   6.012   2.831
21448W        W87989  42.435   8.821  13.145
21449W        W87990  20.417  29.626   2.794
21450W        W87991  19.535  38.796   4.613
21451W        W87992  32.529  38.346   3.871
21452W        W87993  39.333  40.078   4.103
21453W        W87994  33.694  13.764   1.884
21454W        W87995  18.061  20.717  14.899
21455W        W87996  23.958   7.219   3.589
21456W        W87997  39.741  42.018   3.660
21457W        W87998   3.873  30.994   3.716
21458W        W87999  34.650  15.439   0.947
21459W        W88000  29.480   4.556   4.102
21460W        W88001  36.091  27.977   2.979
21461W        W88002  11.914  12.623  10.771
21462W        W88003  12.615  39.391   0.651
21463W        W88004  44.933  39.486  12.589
21464W        W88005  31.616  12.756  14.781
21465W        W88006   2.382  20.044   4.096
21466W        W88007  21.632  11.729   2.807
21467W        W88008  16.202   2.687   4.536
21468W        W88009   3.854  44.237  14.430
21469W        W88010  14.904   1.244   0.515
21470W        W88011  40.032   7.175   3.222
21471W        W88012  43.357  33.074  12.188
21472W        W88013  33.702  38.441  12.659
21473W        W88014  35.870  44.702   1.046
21474W        W88015   4.380  37.610   3.804
21475W        W88016  18.062  17.743  14.228
21476W        W88017  30.415  41.239   3.501
21477W        W88018   7.756  19.755  12.524
21478W        W88019   8.388  34.973   1.570
21479W        W88020   7.702  30.060   0.807
21480W        W88021  42.099  18.200   1.959
21481W        W88022  28.997  12.352  14.263
21482W        W88023  15.780   6.760  12.674
21483W        W88024  43.411  30.154   4.123
21484W        W88025  39.876  34.942  11.513
21485W        W88026  36.807  17.084   2.484
21486W        W88027   2.494  38.373   3.012
21487W        W88028  22.489  28.856   1.095
21488W        W88029  13.490  33.412  12.629
21489W        W88030  23.652  37.882   2.232
21490W        W88031  40.382  11.472   2.409
21491W        W88032   2.973  40.660   0.928
21492W        W88033  18.464  18.286  11.724
21493W        W88034  38.358  43.783   2.708
21494W        W88035  17.874  39.203  13.976
21495W        W88036  27.572  20.058  14.471
21496W        W88037  31.657  12.286   1.275
21497W        W88038  37.904  23.637   2.397
21498W        W88039   5.434  35.030  14.394
21499W        W88040  14.479   4.319  11.181
21500W        W88041  37.915  33.166  14.877
21501W        W88042  40.767  34.056  13.514
21502W        W88043   6.149  40.335  10.788
21503W        W88044  18.744  41.496  11.440
21504W        W88045   0.306  43.554  13.012
21505W        W88046  42.969  20.939   2.790
21506W        W88047  25.712  35.612   2.299
21507W        W88048   9.909  21.211   0.292
21508W        W88049  14.897  42.750   2.863
21509W        W88050  36.343  20.786  11.897
21510W        W88051  36.112   6.163  12.543
21511W        W88052  14.971  15.560   2.184
21512W        W88053   9.976  40.393   3.561
21513W        W88054  35.085  40.900  10.973
21514W        W88055  22.912  32.965  11.939
21515W        W88056  36.034  39.988   4.591
21516W        W88057  24.714   0.252  10.592
21517W        W88058   6.582  31.878  12.348
21518W        W88059  29.959   2.279  11.379
21519W        W88060   7.831  42.291  13.388
21520W        W88061  20.139  31.996   4.955
21521W        W88062   1.485  23.530  11.024
21522W        W88063   0.400  18.626  14.899
21523W        W88064   8.189  11.798   2.379
21524W        W88065  41.315  31.676   2.305
21525W        W88066  16.841  18.588   1.903
21526W        W88067  30.361  22.011   3.197
21527W        W88068  28.737  41.539  14.414
21528W        W88069   7.223  43.235   5.012
21529W        W88070  38.531  42.986  12.187
21530W        W88071   5.561  31.412  14.995
21531W        W88072  23.426   6.934   3.133
21532W        W88073   2.701  29.855   2.659
21533W        W88074  38.652  36.975  11.099
21534W        W88075  23.148  21.547  12.864
21535W        W88076  11.620  18.304  13.840
21536W        W88077   5.614  42.468  10.530
21537W        W88078  27.171  28.536   1.217
21538W        W88079  29.949   6.607  11.650
21539W        W88080  24.609  22.331   2.090
21540W        W88081   0.730  44.944  12.653
21541W        W88082   3.826  11.329   1.648
21542W        W88083  27.013  38.310   3.175
21543W        W88084   3.726  15.209  12.913
21544W        W88085   3.924   5.327  10.641
21545W        W88086  17.041  42.538   4.547
21546W        W88087   3.693  24.989   3.727
21547W        W88088  36.025  35.608  11.712
21548W        W88089  22.573  38.090   2.606
21549W        W88090   0.908  15.711  13.010
21550W        W88091  40.186  40.112  10.749
21551W        W88092  36.899  37.702  11.608
21552W        W88093  10.038  33.583   0.825
21553W        W88094   4.979  20.257  14.108
21554W        W88095  36.942  40.178   4.328
21555W        W88096  39.970  34.325   1.983
21556W        W88097  12.093  22.978   2.673
21557W        W88098  14.264  43.732   1.283
21558W        W88099  32.787  25.291   3.700
21559W        W88100  32.541  34.387  12.059
21560W        W88101  31.933  10.895   1.179
21561W        W88102  11.482  31.832  11.049
21562W        W88103  26.369   3.056  11.995
21563W        W88104  17.586  13.179   4.082
21564W        W88105   6.482   3.331  11.983
21565W        W88106  29.673   2.862   0.684
21566W        W88107   5.822   5.351  12.458
21567W        W88108  31.033  10.278  10.221
21568W        W88109  23.113   2.515  13.869
21569W        W88110  19.026   3.872  14.860
21570W        W88111  22.160   2.877   3.168
21571W        W88112  16.039  18.038  11.715
21572W        W88113  31.945  19.942  13.988
21573W        W88114   4.003   2.149  11.192
21574W        W88115   9.657   4.140  13.361
21575W        W88116  37.836  20.283   2.198
21576W        W88117  26.247  35.284   4.111
21577W        W88118  40.750  24.460   2.597
21578W        W88119  27.278   1.078  12.466
21579W        W88120   8.006   3.638  11.141
21580W        W88121   2.297  42.087  12.725
21581W        W88122  43.970  34.366   1.356
21582W        W88123  20.364   7.427  12.530
21583W        W88124  31.691  32.613  12.992
21584W        W88125   3.938  21.740   2.093
21585W        W88126  42.250  20.973  11.044
21586W        W88127  36.312  28.438   4.494
21587W        W88128  26.178  43.534   1.232
21588W        W88129  20.477  24.213   0.021
21589W        W88130   9.612  26.198   1.227
21590W        W88131  37.305  23.842  11.483
21591W        W88132  14.819  17.386   0.332
21592W        W88133  43.497  37.046  13.821
21593W        W88134   7.509  21.518  10.941
21594W        W88135  32.386  38.029  10.471
21595W        W88136  30.564   3.394  12.692
21596W        W88137  33.893  20.946   2.500
21597W        W88138  22.449  36.894  12.188
21598W        W88139  27.518  15.263   0.295
21599W        W88140  29.554   2.951  10.808
21600W        W88141   4.808  42.919   3.669
21601W        W88142  34.503   6.664  14.946
21602W        W88143  23.750  23.592   1.899
21603W        W88144  21.741  18.253   2.599
21604W        W88145  25.540  28.390  11.689
21605W        W88146   4.793  42.702   2.262
21606W        W88147  36.044  35.027   2.310
21607W        W88148  37.651   1.931  12.198
21608W        W88149  18.134  31.457  14.988
21609W        W88150  26.050  18.214  10.705
21610W        W88151  39.727  17.824   4.422
21611W        W88152   2.677   3.677   4.056
21612W        W88153  34.987  16.925   4.829
21613W        W88154  18.171  27.867  13.552
21614W        W88155  34.513   2.750   3.169
21615W        W88156  43.409  23.619  14.976
21616W        W88157  32.972   6.448  11.835
21617W        W88158  33.812  39.549   0.895
21618W        W88159  26.497   5.775  11.455
21619W        W88160  23.969  41.973  13.363
21620W        W88161  30.563  37.941   3.379
21621W        W88162  39.029  32.525   3.574
21622W        W88163  27.355  43.243  12.488
21623W        W88164  15.530  10.943   1.514
21624W        W88165  44.960   1.404   4.232
21625W        W88166  17.815  32.973  13.030
21626W        W88167  30.113  32.166   3.207
21627W        W88168  13.782  10.307  10.137
21628W        W88169  19.259  41.669   4.954
21629W        W88170  35.578  20.708  11.483
21630W        W88171  19.530  34.170   0.901
21631W        W88172  15.724  10.049   4.302
21632W        W88173  25.532  15.304  13.610
21633W        W88174  26.226   0.385   4.273
21634W        W88175  11.805  21.495  12.908
21635W        W88176  40.878  29.454   0.724
21636W        W88177  33.501   3.945   2.379
21637W        W88178  33.109  10.466   0.467
21638W        W88179  37.434  10.379   4.969
21639W        W88180   1.892   9.657  12.488
21640W        W88181  14.538  13.674   0.975
21641W        W88182  23.198   1.705  14.290
21642W        W88183  24.609  30.059   2.163
21643W        W88184   0.998  14.273   4.018
21644W        W88185  35.048  28.182  11.502
21645W        W88186   6.358  13.061  14.078
21646W        W88187   5.472   1.950   2.688
21647W        W88188  31.904  28.038  11.087
21648W        W88189   6.687  35.350   1.430
21649W        W88190   9.906  28.375   3.634
21650W        W88191  20.495  15.197  10.935
21651W        W88192  13.308  20.013   1.888
21652W        W88193   5.709  28.215  13.099
21653W        W88194  17.071  17.739  14.713
21654W        W88195   2.813   7.692  11.990
21655W        W88196  29.892  19.629  11.687
21656W        W88197   6.675  25.684  12.480
21657W        W88198  22.199   9.737   4.413
21658W        W88199   8.482  23.483  11.936
21659W        W88200  14.072  41.039  13.484
21660W        W88201  41.093   8.611  10.495
21661W        W88202  17.954  37.555   2.529
21662W        W88203  41.905  29.498  14.024
21663W        W88204  26.902   6.519   3.179
21664W        W88205   3.526  34.765   2.866
21665W        W88206  24.433  17.848   3.035
21666W        W88207  22.444  37.827   0.253
21667W        W88208  22.571  39.601   3.695
21668W        W88209  41.408  41.864   0.512
21669W        W88210  24.492  13.694  12.778
21670W        W88211  42.271  13.251   0.811
21671W        W88212   2.297  18.205   1.876
21672W        W88213  28.404  31.608   4.350
21673W        W88214  13.141  22.999   2.839
21674W        W88215  27.506  30.851  12.876
21675W        W88216  18.243  18.263   0.972
21676W        W88217  36.827   7.048   4.676
21677W        W88218  16.125  15.340  10.210
21678W        W88219  12.690   0.892  12.387
21679W        W88220  18.514   6.736   3.305
21680W        W88221  44.023  24.002  14.961
21681W        W88222  17.717  44.634   4.430
21682W        W88223   0.278   1.534   2.743
21683W        W88224  31.131  25.467  12.865
21684W        W88225  26.702   7.130   0.491
21685W        W88226  29.675  19.504  11.222
21686W        W88227  13.118  35.558   3.344
21687W        W88228  26.054  29.612   2.638
21688W        W88229  44.095  17.620  10.391
21689W        W88230   6.246   3.330   2.196
21690W        W88231  15.105   2.880   0.844
21691W        W88232  42.536  31.174   3.670
21692W        W88233  32.566  19.270  12.053
21693W        W88234  35.544  27.273  12.524
21694W        W88235  18.243  31.029   3.403
21695W        W88236  12.105  41.757   3.649
21696W        W88237  19.706  40.648   4.109
21697W        W88238  33.677  34.858   0.279
21698W        W88239  10.278  37.486  12.996
21699W        W88240  24.105  22.836  12.258
21700W        W88241  14.422  43.688   2.779
21701W        W88242  35.592  38.332   1.895
21702W        W88243  44.967   2.934  13.891
21703W        W88244  24.122  11.393   3.879
21704W        W88245   9.136  34.281   1.725
21705W        W88246  15.357  25.085  10.645
21706W        W88247  31.194  27.288   1.376
21707W        W88248   8.718  31.621  10.747
21708W        W88249  11.346  16.766   4.197
21709W        W88250  36.135   9.180  11.159
21710W        W88251  22.596  22.082  14.301
21711W        W88252  11.150  29.175  11.720
21712W        W88253  24.558  30.989   1.225
21713W        W88254  10.803  18.103   4.308
21714W        W88255   7.616  28.135  14.142
21715W        W88256  18.224  39.280  14.852
21716W        W88257  35.618  34.221   3.361
21717W        W88258  11.311   3.198   3.268
21718W        W88259  30.893  35.376  13.764
21719W        W88260  39.732  30.929  11.169
21720W        W88261  12.289  26.939   0.358
21721W        W88262  16.072  31.394  13.897
21722W        W88263  11.354  36.330  14.194
21723W        W88264  12.347   7.671  10.798
21724W        W88265  21.021  14.970  11.820
21725W        W88266  10.755   8.395  10.783
21726W        W88267  30.783  18.697  13.761
21727W        W88268  30.460  25.476   0.778
21728W        W88269  10.621  37.193  11.226
21729W        W88270  29.326  20.355  13.602
21730W        W88271   1.383  17.778   2.394
21731W        W88272  11.695  18.136   0.225
21732W        W88273   6.548  35.891   4.152
21733W        W88274   2.438  13.352   4.050
21734W        W88275  23.212  44.387  13.557
21735W        W88276  34.634  10.599  12.737
21736W        W88277  31.517  18.646   2.861
21737W        W88278   7.866   6.309   3.064
21738W        W88279   9.137  31.615  11.976
21739W        W88280  25.629  16.171  12.162
21740W        W88281   1.771  21.810   2.716
21741W        W88282  22.398   8.310   1.268
21742W        W88283  43.424  38.340  14.413
21743W        W88284  19.190   5.173   3.518
21744W        W88285   2.902  38.550  13.774
21745W        W88286  34.824  36.555   1.428
21746W        W88287   2.251  31.926   0.741
21747W        W88288  13.044  35.028  12.050
21748W        W88289  13.221  24.322  13.866
21749W        W88290  32.272  20.199   3.803
21750W        W88291   5.787  36.726   4.476
21751W        W88292  40.465   3.921   2.250
21752W        W88293  41.993  30.778   4.677
21753W        W88294  33.616   4.706   1.765
21754W        W88295  26.469   5.358   2.359
21755W        W88296   8.655   4.759   2.134
21756W        W88297  36.166  16.764  14.529
21757W        W88298  38.903   2.458   2.667
21758W        W88299  24.101  25.459   4.780
21759W        W88300   1.323  28.917  14.002
21760W        W88301  14.295  26.487  12.091
21761W        W88302  13.120  30.654  11.717
21762W        W88303  23.673  17.972   3.782
21763W        W88304  41.729   8.135  14.284
21764W        W88305  16.008  43.921  14.496
21765W        W88306   4.235  30.687   3.479
21766W        W88307  41.568  10.459  12.266
21767W        W88308  44.618  44.208   3.673
21768W        W88309   2.948  35.880   3.304
21769W        W88310  37.936   2.008   1.962
21770W        W88311  29.458  30.358  10.458
21771W        W88312  36.342  27.288   3.365
21772W        W88313  22.096   0.558  11.983
21773W        W88314  35.382  26.391  11.094
21774W        W88315  23.745  35.048   1.935
21775W        W88316  44.865  41.015  11.147
21776W        W88317   2.571  35.041   3.199
21777W        W88318  42.896  42.237  11.579
21778W        W88319  38.022  38.785  10.647
21779W        W88320   1.474  17.928   1.916
21780W        W88321   2.308  25.851   0.934
21781W        W88322  14.410  11.538  11.338
21782W        W88323  35.912  20.584   4.500
21783W        W88324  44.193   0.684   1.853
21784W        W88325  23.588  19.031   1.950
21785W        W88326  11.231   9.225  14.750
21786W        W88327  26.665   8.420  12.390
21787W        W88328  14.822  44.282  12.553
21788W        W88329  39.040  15.692  13.070
21789W        W88330   8.396  18.689   3.750
21790W        W88331  26.001  15.318  13.871
21791W        W88332  12.300  24.585   1.847
21792W        W88333  37.836  16.177  10.722
21793W        W88334  34.513  41.943  11.636
21794W        W88335  18.961  38.354  14.038
21795W        W88336  28.110  35.015   4.309
21796W        W88337  25.722   3.083   2.538
21797W        W88338  12.539  22.481   0.874
21798W        W88339  34.943  24.551  13.378
21799W        W88340  31.763   3.246  11.183
21800W        W88341   4.275   9.374   1.448
21801W        W88342  43.581  35.650  12.047
21802W        W88343  20.493   4.900   3.027
21803W        W88344   3.110  16.851   1.692
21804W        W88345  33.474  30.887   4.129
21805W        W88346   2.355  30.558  10.011
21806W        W88347   2.343  25.851   9.825
21807W        W88348   4.199  22.725   3.240
21808W        W88349   0.690  43.656   4.145
21809W        W88350  24.491  14.592   0.850
21810W        W88351  19.169  40.982  13.019
21811W        W88352   4.261  10.825   3.269
21812W        W88353   9.629  36.249  12.964
21813W        W88354  23.452  17.777  10.727
21814W        W88355  19.232   6.831  12.172
21815W        W88356  11.370  25.356   2.207
21816W        W88357  12.348  38.035   0.905
21817W        W88358  43.572   0.494  14.281
21818W        W88359  20.188  15.875   3.834
21819W        W88360  16.220  43.030   3.507
21820W        W88361  39.012  38.725   2.947
21821W        W88362  32.552   8.946  14.862
21822W        W88363  14.328  26.106  10.868
21823W        W88364   9.717  10.176   3.242
21824W        W88365  23.060   4.307   0.296
21825W        W88366   6.674  41.013   2.793
21826W        W88367  23.796  31.396   1.727
21827W        W88368  31.709  10.864   3.298
21828W        W88369   7.458  19.328  14.387
21829W        W88370  21.637  36.070  14.315
21830W        W88371  44.183  30.889   1.718
21831W        W88372  23.551   1.382  12.316
21832W        W88373  18.798   8.394  10.398
21833W        W88374  43.572   0.554  11.209
21834W        W88375  35.667  18.357   4.485
21835W        W88376  33.569  26.455  10.971
21836W        W88377  21.540  36.922  14.330
21837W        W88378  38.221  15.889  13.358
21838W        W88379  30.946   4.676  12.598
21839W        W88380  17.601  38.020   1.002
21840W        W88381  34.468  12.396  11.596
21841W        W88382  44.247  34.006   4.529
21842W        W88383   8.604  15.134  11.527
21843W        W88384  25.526   6.432   0.220
21844W        W88385   7.439  20.263   2.956
21845W        W88386  10.366  18.066   0.498
21846W        W88387   1.977  30.784   1.362
21847W        W88388  28.940  19.614  13.092
21848W        W88389  38.310  18.512  13.477
21849W        W88390   9.834   0.395  11.459
21850W        W88391  10.800  13.424   0.537
21851W        W88392  29.879  33.907   0.524
21852W        W88393  16.912  26.903   4.095
21853W        W88394  21.536  13.559   2.356
21854W        W88395  11.611   6.644   3.142
21855W        W88396  34.398  13.707   4.702
21856W        W88397   9.902   9.503  14.919
21857W        W88398  17.636  21.712   1.280
21858W        W88399  37.134   7.370   0.849
21859W        W88400  37.169  33.126  14.932
21860W        W88401  26.354  29.281  13.825
21861W        W88402  37.658  13.394   4.624
21862W        W88403  31.965  39.104   1.807
21863W        W88404   0.333  25.228   1.507
21864W        W88405  25.802  26.533   2.840
21865W        W88406  15.675  26.900   3.658
21866W        W88407   7.200   1.479   4.128
21867W        W88408  20.753  26.792   1.374
21868W        W88409  40.266  17.106  12.488
21869W        W88410  26.785  10.140  12.344
21870W        W88411   5.927  26.854  13.342
21871W        W88412  44.062   4.200   1.687
21872W        W88413  42.774  44.972  14.770
21873W        W88414  41.756  22.850  11.482
21874W        W88415  15.530  14.683   4.410
21875W        W88416   8.566  14.870   2.177
21876W        W88417  23.765  36.978  12.387
21877W        W88418  11.296  43.420   4.012
21878W        W88419  10.812  25.585   2.889
21879W        W88420  29.534  37.530   1.756
21880W        W88421  31.606  26.691   4.712
21881W        W88422   9.244  13.682   1.955
21882W        W88423  32.482  22.733   3.732
21883W        W88424  40.256  14.671  14.931
21884W        W88425  39.272  35.886   0.492
21885W        W88426  43.183  21.645  10.578
21886W        W88427   2.923  10.672   1.322
21887W        W88428   9.819  12.297   4.607
21888W        W88429   6.970  38.259  11.941
21889W        W88430  17.369   8.438   0.805
21890W        W88431  30.422  29.530  13.506
21891W        W88432  41.292  15.315   5.083
21892W        W88433  16.225   3.374  14.019
21893W        W88434  22.106  37.786   3.892
21894W        W88435   6.227   6.852   1.995
21895W        W88436  29.189  27.326   1.502
21896W        W88437  20.349  19.664  12.664
21897W        W88438  42.634   3.906  12.564
21898W        W88439  14.865   3.375  13.892
21899W        W88440  10.339  42.010   3.336
21900W        W88441  30.527  12.702   2.735
21901W        W88442  37.154  13.677  13.947
21902W        W88443  38.465  36.153   2.766
21903W        W88444   5.479  43.710   3.652
21904W        W88445  43.690   2.317   2.265
21905W        W88446  41.828  31.653  10.498
21906W        W88447   2.329  33.073   2.365
21907W        W88448  26.941  32.103   0.441
21908W        W88449  32.793  20.967  12.462
21909W        W88450  28.383  19.698  13.937
21910W        W88451  15.425  27.454  10.593
21911W        W88452  19.235   9.630   2.185
21912W        W88453  13.057  12.461   3.266
21913W        W88454  28.196  39.254   4.641
21914W        W88455  18.502  20.265   3.190
21915W        W88456  28.653  34.462  11.548
21916W        W88457  27.449   7.040  13.326
21917W        W88458  26.785  42.009  12.949
21918W        W88459  42.373  43.501   2.965
21919W        W88460  17.397  31.880  10.505
21920W        W88461  16.959   6.952   2.901
21921W        W88462  22.807  22.848  13.306
21922W        W88463  44.763  33.133   0.778
21923W        W88464  42.676  18.778   1.351
21924W        W88465  33.986  31.800  10.076
21925W        W88466  44.077  44.307   1.891
21926W        W88467  14.479   0.020  12.469
21927W        W88468  27.118  13.792  12.799
21928W        W88469  42.716  32.989   1.106
21929W        W88470  36.132  38.390  11.458
21930W        W88471  31.975  22.051  13.932
21931W        W88472  22.978  33.015   4.461
21932W        W88473  38.497  41.994   4.044
21933W        W88474  13.030  16.166   0.847
21934W        W88475  26.169  14.016  14.081
21935W        W88476  32.061  35.012   0.686
21936W        W88477   6.456  26.027   5.121
21937W        W88478  38.004  33.479   4.464
21938W        W88479  31.662  42.881  11.052
21939W        W88480  21.763  10.728   3.718
21940W        W88481  18.290  18.245   3.321
21941W        W88482   3.384  14.156  11.114
21942W        W88483  34.875  35.959  14.050
21943W        W88484   3.749  32.213   3.588
21944W        W88485  14.675  40.752  14.944
21945W        W88486  37.103  20.748  12.940
21946W        W88487   2.310  27.939  14.844
21947W        W88488   9.352  34.413  11.927
21948W        W88489  40.549  19.196  14.911
21949W        W88490  44.968  30.545  10.012
21950W        W88491  19.831  16.054   0.283
21951W        W88492  28.645  13.095   2.409
21952W        W88493   1.877  25.493  13.399
21953W        W88494   4.656  17.752  11.738
21954W        W88495  31.059  43.377   3.508
21955W        W88496  11.137  25.681  12.489
21956W        W88497  11.883   5.685   1.482
21957W        W88498  20.570  31.539   4.256
21958W        W88499  35.094  13.940   4.284
21959W        W88500  21.983  10.655  11.143
21960W        W88501   1.796  16.908  12.470
21961W        W88502  13.309  35.928   1.607
21962W        W88503  37.438  31.564   2.767
21963W        W88504  19.353   3.407  13.795
21964W        W88505   0.798   8.900  12.640
21965W        W88506  16.360   5.556  12.870
21966W        W88507  19.805  14.984   1.206
21967W        W88508  29.466  27.499   0.662
21968W        W88509  44.568  31.402  10.737
21969W        W88510   6.121   1.360   2.374
21970W        W88511  39.892  28.274  12.877
21971W        W88512  13.858  29.117  11.970
21972W        W88513  38.955  24.513  11.631
21973W        W88514   8.368  36.300  12.075
21974W        W88515  13.253  42.786  10.808
21975W        W88516  35.088  22.531   0.095
21976W        W88517  33.813   6.224   4.524
21977W        W88518   7.386  36.391   3.198
21978W        W88519  10.877  27.158   3.261
21979W        W88520  38.007   1.235   1.300
21980W        W88521  35.334  43.994  10.798
21981W        W88522  11.204   2.221  11.602
21982W        W88523  33.859  40.401   0.219
21983W        W88524  22.772  40.929   4.167
21984W        W88525  10.561  15.695   0.369
21985W        W88526  27.533   3.600  11.839
21986W        W88527   6.260   2.895   3.968
21987W        W88528   3.843  20.989   3.116
21988W        W88529  20.095  11.620  13.639
21989W        W88530  41.898   7.939   1.483
21990W        W88531  25.854   7.468  13.353
21991W        W88532  34.097  30.498  12.081
21992W        W88533  43.432  28.600  11.569
21993W        W88534  11.215   5.077  11.422
21994W        W88535  20.673  38.370  13.948
21995W        W88536  33.464  34.022  12.677
21996W        W88537  35.497  18.864   0.458
21997W        W88538   0.948  23.592  13.181
21998W        W88539  29.898  31.154  14.801
21999W        W88540  44.430  34.168   1.221
22000W        W88541  36.899   5.878  13.861
22001W        W88542  43.858  36.210  10.436
22002W        W88543  27.702  44.796  10.738
22003W        W88544  37.120  30.118   2.315
22004W        W88545  41.361  41.121  11.384
22005W        W88546  10.226  10.278  10.913
22006W        W88547  39.163  37.534  13.901
22007W        W88548  26.097  15.133   1.106
22008W        W88549   3.432   6.754  11.385
22009W        W88550  16.348  26.993   2.172
22010W        W88551  32.470  21.713  14.535
22011W        W88552  27.079   6.859   3.556
22012W        W88553  19.285  32.470   2.742
22013W        W88554  36.256  43.459  13.863
22014W        W88555  26.003  39.348   3.674
22015W        W88556  11.802   6.924   3.643
22016W        W88557  26.152  35.532  11.879
22017W        W88558  10.313  43.297   4.277
22018W        W88559  25.688  20.113   3.702
22019W        W88560   1.860  18.383   3.715
22020W        W88561  19.275  35.030  14.377
22021W        W88562  12.643  41.297   0.316
22022W        W88563  22.129  34.607  11.504
22023W        W88564  25.915  34.616  13.210
22024W        W88565  29.489  22.661  11.932
22025W        W88566  31.545   0.127   2.693
22026W        W88567   3.933  34.605   3.293
22027W        W88568  33.435  12.673  13.467
22028W        W88569  36.559   2.200  13.942
22029W        W88570  20.034  20.016  11.225
22030W        W88571  21.630  44.438   4.768
22031W        W88572  32.000  35.791  10.783
22032W        W88573  16.838   0.044   1.311
22033W        W88574  30.370  35.937   2.361
22034W        W88575  38.036  40.807  12.852
22035W        W88576  28.348  41.879  14.376
22036W        W88577  25.549  28.047  10.739
22037W        W88578  14.408  18.788   1.104
22038W        W88579  33.736  12.056  12.122
22039W        W88580  34.466   0.477  14.391
22040W        W88581  23.108  20.181   2.676
22041W        W88582   3.959  18.962   0.417
22042W        W88583  40.574  40.861   0.014
22043W        W88584   4.002  38.115  11.309
22044W        W88585   5.826  41.750  12.646
22045W        W88586  10.056  37.086   4.176
22046W        W88587  33.464   9.944   3.383
22047W        W88588  17.881   7.096   2.882
22048W        W88589   9.339   3.971   3.259
22049W        W88590   7.372  38.548   3.528
22050W        W88591  38.953  10.284  10.432
22051W        W88592   6.937  27.619   3.723
22052W        W88593   9.855   5.559  11.110
22053W        W88594   1.135  11.570   2.363
22054W        W88595  20.553  41.864  13.736
22055W        W88596  34.826  31.446   2.825
22056W        W88597   8.755  43.983  11.587
22057W        W88598  41.622   8.911  10.616
22058W        W88599  10.649  38.543  12.437
22059W        W88600   4.923  34.862  12.323
22060W        W88601  39.252   4.750   3.632
22061W        W88602   6.823   2.267  13.407
22062W        W88603  43.531   4.872   4.894
22063W        W88604  23.090   0.201  11.972
22064W        W88605   5.326  41.983   2.251
22065W        W88606  41.009  25.701   0.768
22066W        W88607   0.361  28.344   0.289
22067W        W88608  28.852   5.983  12.001
22068W        W88609  33.649  43.468   0.302
22069W        W88610  26.066  30.175  12.828
22070W        W88611  19.972   4.474  13.360
22071W        W88612  40.512  17.173   4.621
22072W        W88613  25.204  30.474  13.060
22073W        W88614  15.074  26.994   1.543
22074W        W88615   0.366  17.379  13.228
22075W        W88616  32.846  12.920   0.789
22076W        W88617  42.874  18.736   1.824
22077W        W88618  42.513  41.564  11.216
22078W        W88619  10.378   4.030   4.048
22079W        W88620  35.418  39.635  14.824
22080W        W88621  15.336  26.824  11.661
22081W        W88622  24.542   6.752   3.650
22082W        W88623  23.737  41.311  11.111
22083W        W88624  20.769  36.336  14.395
22084W        W88625  21.702  13.049  13.551
22085W        W88626   5.201  16.249  10.708
22086W        W88627  25.080  34.716  10.980
22087W        W88628  13.183  13.514   3.851
22088W        W88629   8.862   3.271  10.852
22089W        W88630   1.779  22.565   4.645
22090W        W88631  22.918  32.737   0.348
22091W        W88632  24.204  44.687   0.247
22092W        W88633  27.986  43.920   0.957
22093W        W88634   1.063  30.217  12.896
22094W        W88635  23.023   5.407   3.559
22095W        W88636  41.910  38.795   0.363
22096W        W88637  15.378   0.053   4.911
22097W        W88638  44.102  31.625   4.352
22098W        W88639   1.994  20.216  14.010
22099W        W88640   5.155   4.361  13.497
22100W        W88641  18.679  38.728  13.778
22101W        W88642   3.053   6.268  12.519
22102W        W88643  24.724  29.644   0.499
22103W        W88644   1.871  25.747  14.802
22104W        W88645  33.401  14.229  12.398
22105W        W88646  23.536  10.166   4.825
22106W        W88647  11.111  24.725   0.141
22107W        W88648   7.430   0.308  12.489
22108W        W88649  14.088  15.663  14.832
22109W        W88650  19.358  35.257   3.611
22110W        W88651  41.358  23.081  13.545
22111W        W88652  28.037   9.174  11.489
22112W        W88653   6.475   6.102   4.334
22113W        W88654  14.721  25.709   4.490
22114W        W88655  37.516   0.554   0.397
22115W        W88656   2.796   5.951  14.480
22116W        W88657  28.902  20.159  11.359
22117W        W88658  32.108   5.602   0.554
22118W        W88659  39.186  30.176  14.441
22119W        W88660  12.144   5.683   0.501
22120W        W88661  30.644  16.787   4.579
22121W        W88662  26.646   0.798  11.609
22122W        W88663  17.782  19.157  12.326
22123W        W88664  30.913  30.995  11.502
22124W        W88665  30.516  26.957   0.873
22125W        W88666  30.210  27.400  11.034
22126W        W88667  12.719   2.972   0.993
22127W        W88668  11.284   5.352  11.831
22128W        W88669  10.424  11.668   0.545
22129W        W88670  13.333  23.491   0.181
22130W        W88671   6.740  20.739   4.552
22131W        W88672  44.430  36.907  13.871
22132W        W88673  36.319  23.934  12.085
22133W        W88674  37.865  39.353  12.585
22134W        W88675  18.666  18.102  11.279
22135W        W88676  12.283  33.962  10.885
22136W        W88677  11.103  27.992  14.323
22137W        W88678  31.865  13.705  12.028
22138W        W88679   5.474  15.003  14.916
22139W        W88680  18.531  25.618   2.723
22140W        W88681  31.154   1.520  11.940
22141W        W88682  20.734   2.339   2.640
22142W        W88683  37.459   7.359  11.650
22143W        W88684  11.808  18.587   1.794
22144W        W88685  12.902  34.050   2.699
22145W        W88686   7.349  25.821  10.045
22146W        W88687  13.069  42.882   3.489
22147W        W88688  12.338  28.455  11.072
22148W        W88689  23.589  42.024   2.601
22149W        W88690  19.882  37.473   4.782
22150W        W88691   5.823  28.441   2.225
22151W        W88692   0.555   7.431  10.776
22152W        W88693  40.541  20.834  12.005
22153W        W88694  32.163  19.285  11.159
22154W        W88695   9.370   6.358   1.772
22155W        W88696  25.590  17.809   4.102
22156W        W88697  11.264  30.459  13.079
22157W        W88698  34.095  36.222   4.944
22158W        W88699  11.366  17.493  11.846
22159W        W88700   3.488   4.446   3.725
22160W        W88701  16.255   4.602  10.677
22161W        W88702  11.919  17.450   3.553
22162W        W88703  27.021  43.521   0.384
22163W        W88704  13.015  39.154  11.361
22164W        W88705   5.125   5.378  13.589
22165W        W88706  36.889  23.243   3.619
22166W        W88707  30.204  27.351  12.024
22167W        W88708  12.238  42.946   4.697
22168W        W88709  15.702  23.541  12.000
22169W        W88710   5.450  34.363   1.767
22170W        W88711  29.207   7.303   3.190
22171W        W88712   7.761   3.895   2.180
22172W        W88713  36.077   7.951  11.542
22173W        W88714  12.624   9.763  11.962
22174W        W88715   6.551  28.239  11.174
22175W        W88716  15.724  38.849   4.625
22176W        W88717  33.158  37.361   4.759
22177W        W88718  18.142   8.697   0.366
22178W        W88719  35.095   9.044  14.319
22179W        W88720  34.814   6.387  10.048
22180W        W88721  21.797  26.762  10.998
22181W        W88722   0.717  23.713   4.426
22182W        W88723  19.079  19.916  13.131
22183W        W88724  33.310  19.177   4.241
22184W        W88725  36.996   7.193  12.499
22185W        W88726   0.146  32.938  10.421
22186W        W88727   0.360  41.413  14.061
22187W        W88728   5.146  22.313   1.844
22188W        W88729  44.472  26.598  10.172
22189W        W88730  23.673  11.412  10.846
22190W        W88731  43.397  20.475   3.440
22191W        W88732  39.003   4.335  13.845
22192W        W88733  10.639  25.559   3.755
22193W        W88734  32.237  17.704  12.773
22194W        W88735  41.219  38.097  10.798
22195W        W88736  34.534   6.119  14.968
22196W        W88737  22.964  39.422   4.021
22197W        W88738  12.972  11.056   2.731
22198W        W88739   6.277   3.265  12.811
22199W        W88740  21.311   4.573  10.247
22200W        W88741  40.275  14.258   0.405
22201W        W88742  42.423  29.618  14.819
22202W        W88743   4.507  32.130   0.803
22203W        W88744  17.582  24.245  11.155
22204W        W88745  12.281  16.225   0.367
22205W        W88746  16.240  16.796   1.141
22206W        W88747  27.720   5.380   1.748
22207W        W88748  24.579  25.985   2.865
22208W        W88749  44.452  32.900   4.648
22209W        W88750  12.172  16.334  10.795
22210W        W88751  10.808  37.306   0.040
22211W        W88752  20.790  16.608   2.585
22212W        W88753   2.959   0.713  12.869
22213W        W88754  23.711  25.188   0.899
22214W        W88755   7.784  18.819   3.949
22215W        W88756  31.181  29.464  13.939
22216W        W88757  41.029  37.847  13.956
22217W        W88758   5.887  10.407  13.321
22218W        W88759  10.338   6.700  13.441
22219W        W88760   4.963  37.402   0.202
22220W        W88761  13.269   9.214   3.629
22221W        W88762  27.623   7.845  13.568
22222W        W88763  12.762  23.890  11.659
22223W        W88764  21.013  19.809  14.420
22224W        W88765   9.403   5.737  11.397
22225W        W88766   0.487  33.428  14.275
22226W        W88767  29.283  23.424  14.456
22227W        W88768   9.561   5.939   0.905
22228W        W88769  26.113  12.723   2.783
22229W        W88770  14.998  36.311   3.082
22230W        W88771  35.682   2.232  13.968
22231W        W88772  12.138  16.881   3.768
22232W        W88773  36.562  29.597   3.571
22233W        W88774  30.680  38.467  11.558
22234W        W88775   9.359  26.001  13.456
22235W        W88776  41.785  42.876  13.008
22236W        W88777  33.177  33.518  11.512
22237W        W88778  32.490  36.829   3.704
22238W        W88779  15.194  34.511  12.099
22239W        W88780  31.214  32.202  14.745
22240W        W88781  41.197  10.374   0.904
22241W        W88782  42.957  18.997   4.613
22242W        W88783  19.582   9.848   2.533
22243W        W88784  40.656  19.576  13.866
22244W        W88785   4.358  25.163   3.109
22245W        W88786  36.113   5.845   3.702
22246W        W88787   1.259  36.770  14.390
22247W        W88788  41.540  37.984  14.035
22248W        W88789  30.602   3.699   1.211
22249W        W88790  26.093  14.166   0.816
22250W        W88791  14.803   4.148  13.033
22251W        W88792  24.415  19.601   0.877
22252W        W88793   0.714   3.245   0.789
22253W        W88794  28.872  42.847   4.151
22254W        W88795  38.469  26.020  11.463
22255W        W88796  16.105  28.065  10.226
22256W        W88797  26.602  22.586   0.238
22257W        W88798  17.410  11.675   3.495
22258W        W88799  19.099   6.837  10.267
22259W        W88800   3.931  28.749   1.150
22260W        W88801  13.367  41.731  10.928
22261W        W88802  33.944   3.468  12.139
22262W        W88803  23.402   7.219  11.653
22263W        W88804  19.204   4.619   4.235
22264W        W88805  25.530  26.614  12.149
22265W        W88806  23.698  11.257  13.089
22266W        W88807   4.187  33.135   4.412
22267W        W88808  40.267   4.705   1.587
22268W        W88809  41.577   9.760   2.248
22269W        W88810  17.309  10.647   1.670
22270W        W88811  12.654   6.465  11.569
22271W        W88812  34.977  23.977   1.005
22272W        W88813   6.980  42.292   0.510
22273W        W88814  38.552  27.457   3.827
22274W        W88815  38.312  16.719   4.553
22275W        W88816  27.888  31.736   4.220
22276W        W88817  41.088   6.587  11.555
22277W        W88818   7.569  36.892   4.052
22278W        W88819  38.017  16.562  11.600
22279W        W88820  22.728  28.643  11.113
22280W        W88821  41.773  43.526  13.447
22281W        W88822  21.865  16.656  11.149
22282W        W88823  23.876  23.148   1.580
22283W        W88824  30.840  33.475  10.835
22284W        W88825  14.621   9.132   0.793
22285W        W88826  19.201  29.066   0.190
22286W        W88827  18.345  44.741  12.494
22287W        W88828  13.653  15.750  13.918
22288W        W88829  37.951   8.501  13.041
22289W        W88830  15.682  38.849   9.859
22290W        W88831  42.297   6.811  10.342
22291W        W88832  30.143  16.018   5.062
22292W        W88833  29.120  23.462   0.327
22293W        W88834  40.385   6.430   1.939
22294W        W88835  30.144  20.410   1.824
22295W        W88836  44.461   6.385  13.853
22296W        W88837  35.112  26.157   4.093
22297W        W88838  33.187  12.887   3.642
22298W        W88839  14.185   9.690   4.588
22299W        W88840  10.860  22.652   4.353
22300W        W88841  13.351  10.286   5.103
22301W        W88842  29.885  21.755  12.044
22302W        W88843  19.703  42.724  14.720
22303W        W88844   9.851   6.741   0.541
22304W        W88845  34.537   1.013  13.767
22305W        W88846   3.612  24.160   3.781
22306W        W88847  13.208   1.305  14.425
22307W        W88848  27.118  39.478  12.139
22308W        W88849  16.304   6.073  12.607
22309W        W88850   6.139  13.674  14.671
22310W        W88851  14.803  26.315   3.702
22311W        W88852   2.324  36.107   0.759
22312W        W88853  27.913   7.144  14.390
22313W        W88854  39.480  30.877  12.385
22314W        W88855  36.014  20.617  14.888
22315W        W88856  12.760  13.762   3.703
22316W        W88857  37.615   8.758   4.144
22317W        W88858  35.568   5.574  10.675
22318W        W88859  40.006  25.743  12.834
22319W        W88860  40.272  35.367  10.543
22320W        W88861  11.099  31.059   4.521
22321W        W88862   2.212  33.727  14.078
22322W        W88863   8.705  12.675  13.832
22323W        W88864  12.510   2.237  13.597
22324W        W88865  21.691  26.704  13.456
22325W        W88866  27.580  38.160  13.938
22326W        W88867  40.535  38.010   2.315
22327W        W88868  28.478  42.716   1.234
22328W        W88869  35.906  16.609  12.834
22329W        W88870  27.237  18.691   3.684
22330W        W88871   7.300   2.445  12.512
22331W        W88872  32.452  31.697  12.825
22332W        W88873  11.343  44.808   0.888
22333W        W88874   2.056   7.968  11.204
22334W        W88875   3.837  23.981  14.557
22335W        W88876  17.111  41.012   4.541
22336W        W88877  36.896  33.497  12.605
22337W        W88878  10.051  21.168   1.378
22338W        W88879  23.519  41.010   1.229
22339W        W88880  17.557  25.970   1.934
22340W        W88881  37.527   2.208   4.923
22341W        W88882  28.520  20.081   4.048
22342W        W88883  13.973  40.915  13.994
22343W        W88884  20.965  44.038   1.177
22344W        W88885   4.933  27.522   4.525
22345W        W88886  36.769  44.497  13.179
22346W        W88887  42.607  40.093  13.043
22347W        W88888   3.675  21.738   3.661
22348W        W88889  19.408  17.743  13.147
22349W        W88890  25.957  40.917   2.518
22350W        W88891  33.933  11.225   9.943
22351W        W88892  22.374  38.836  13.225
22352W        W88893  26.262  29.472  11.251
22353W        W88894  32.418  21.485  11.167
22354W        W88895  18.813  26.401   1.412
22355W        W88896  20.141  18.595  12.135
22356W        W88897  40.330  17.726   1.582
22357W        W88898  24.981  28.468   3.370
22358W        W88899  12.018   5.957   0.937
22359W        W88900  42.329  43.880   2.190
22360W        W88901  16.386  42.147   2.021
22361W        W88902   1.485  26.617  13.909
22362W        W88903   3.591  12.145   1.295
22363W        W88904   0.513  43.839   3.704
22364W        W88905  40.610  26.473  12.424
22365W        W88906  29.438   0.060   3.769
22366W        W88907  25.729  21.252  10.502
22367W        W88908  34.672  11.782   2.409
22368W        W88909  44.514  27.523  10.659
22369W        W88910  28.579   3.159   1.719
22370W        W88911  40.968  24.752  10.767
22371W        W88912   5.401  43.723  12.983
22372W        W88913  30.954   1.418  13.950
22373W        W88914  23.143  13.741  10.660
22374W        W88915  19.643  36.632  11.286
22375W        W88916  28.589   5.231  14.854
22376W        W88917  17.023  11.354  11.552
22377W        W88918  39.880   7.315   1.814
22378W        W88919  36.415   9.390   0.359
22379W        W88920  39.308   5.887   1.384
22380W        W88921  21.747  20.321   3.814
22381W        W88922  33.298  32.294  10.606
22382W        W88923  12.324  29.257   5.097
22383W        W88924  10.051   8.351   4.971
22384W        W88925  32.729  17.769   4.821
22385W        W88926  32.679  20.548   1.128
22386W        W88927  10.222  22.941  13.523
22387W        W88928   8.840  31.108  14.383
22388W        W88929  11.336  35.144  11.574
22389W        W88930  40.057  44.717  13.522
22390W        W88931  30.754  21.246  14.385
22391W        W88932  25.204   6.566   3.651
22392W        W88933  13.713  41.826  13.891
22393W        W88934  23.595   2.525   0.403
22394W        W88935  11.210  25.665   0.585
22395W        W88936  26.255   1.339   4.325
22396W        W88937   8.256  28.415  12.714
22397W        W88938  14.096  39.480  14.416
22398W        W88939  42.893   5.528   4.902
22399W        W88940   5.754  29.465   2.273
22400W        W88941  29.350   9.928   2.934
22401W        W88942  21.293  35.441  11.079
22402W        W88943  12.838  34.663   0.088
22403W        W88944  22.215  12.838   0.355
22404W        W88945  39.677  37.272   0.273
22405W        W88946  13.959  40.046   4.573
22406W        W88947  10.823  34.341   4.105
22407W        W88948  37.653  40.995  10.328
22408W        W88949  31.005  14.288   4.407
22409W        W88950  21.097  33.587   3.178
22410W        W88951  20.171  43.147  12.065
22411W        W88952  37.263  13.594   0.780
22412W        W88953   6.196  44.382  13.490
22413W        W88954  10.818   0.138   4.407
22414W        W88955  39.965  24.986   2.823
22415W        W88956   5.689   0.290  11.083
22416W        W88957  32.693  20.780   4.508
22417W        W88958   1.016   4.313   2.153
22418W        W88959   6.215  27.199   2.705
22419W        W88960  22.519  12.293  14.456
22420W        W88961  30.962   6.724   3.964
22421W        W88962   3.278  34.836  11.332
22422W        W88963  32.537   9.233   2.429
22423W        W88964  39.063  24.117  12.925
22424W        W88965  24.998   3.676  11.794
22425W        W88966  35.803   0.267   2.875
22426W        W88967  19.818  12.596  13.074
22427W        W88968  43.078  19.547  11.414
22428W        W88969  11.776  16.243   0.330
22429W        W88970  18.603  22.444   3.672
22430W        W88971  36.251  10.220  11.950
22431W        W88972  20.215  41.020   4.741
22432W        W88973  15.873  24.204   0.953
22433W        W88974  44.722  16.548  14.274
22434W        W88975   1.390  23.255   4.675
22435W        W88976  14.660   0.931   2.733
22436W        W88977  44.383  28.831   5.206
22437W        W88978  17.551  16.866  12.385
22438W        W88979  20.239  44.346  13.763
22439W        W88980  27.955  34.853  10.883
22440W        W88981  40.391   6.502   1.431
22441W        W88982  23.040  13.772   0.013
22442W        W88983  19.655  39.386   2.316
22443W        W88984   8.383  26.167   3.131
22444W        W88985  12.935  21.705  13.916
22445W        W88986  41.785  44.141   3.257
22446W        W88987  32.442  36.661  11.623
22447W        W88988   3.034   3.752  13.111
22448W        W88989  22.210  28.013  14.376
22449W        W88990  33.413  16.186   4.773
22450W        W88991   1.341  37.856  11.600
22451W        W88992  16.368  43.744   1.781
22452W        W88993   4.751   0.991  13.098
22453W        W88994  32.384   2.264   1.815
22454W        W88995  14.733  30.131   3.587
22455W        W88996  36.928  18.597   2.049
22456W        W88997  44.371  15.582  10.293
22457W        W88998  22.438  16.041  13.111
22458W        W88999  15.658  39.950   1.198
22459W        W89000  17.296   7.495   3.698
22460W        W89001  11.065  44.991   1.299
22461W        W89002  26.857  28.811   1.541
22462W        W89003  35.732   8.362   2.842
22463W        W89004  37.754   8.881  12.669
22464W        W89005  28.878   8.941   4.208
22465W        W89006   1.872  25.078   0.734
22466W        W89007  27.599  38.011  14.443
22467W        W89008  43.055  15.471   3.642
22468W        W89009  37.619  11.972  14.908
22469W        W89010  29.150   2.464   9.825
22470W        W89011  11.293  35.375   3.639
22471W        W89012  38.276   1.373  14.007
22472W        W89013  11.233  38.909   2.940
22473W        W89014   3.788   8.747  12.063
22474W        W89015   9.386  15.272   3.403
22475W        W89016   3.766  36.149   1.057
22476W        W89017   2.067  17.502   4.560
22477W        W89018  15.702  35.685   1.247
22478W        W89019  21.201  15.964  11.160
22479W        W89020  43.920   7.185   1.105
22480W        W89021  23.662  10.118   1.856
22481W        W89022  39.378  21.339  12.665
22482W        W89023  43.744  28.950  13.072
22483W        W89024  32.002  31.782  10.093
22484W        W89025  33.914  36.572  10.741
22485W        W89026  35.034  14.838   3.155
22486W        W89027  12.608  17.312   2.569
22487W        W89028  12.156  24.556   4.726
22488W        W89029  25.731  13.191  10.670
22489W        W89030   3.756  11.470   3.939
22490W        W89031   6.841  25.946   0.350
22491W        W89032  16.514  39.167  11.047
22492W        W89033   1.894  23.239  12.124
22493W        W89034   7.715  36.235   4.654
22494W        W89035  20.617  20.586   2.393
22495W        W89036  37.480  42.800  10.655
22496W        W89037  22.566  42.312  10.681
22497W        W89038  32.451  38.460  12.614
22498W        W89039   3.738  27.659  11.035
22499W        W89040  25.802  25.061  13.836
22500W        W89041  12.808   0.470   3.142
22501W        W89042  20.674  20.591  12.450
22502W        W89043  39.445  31.433   4.556
22503W        W89044  41.299  28.284   5.018
22504W        W89045  11.649   6.124   1.366
22505W        W89046  12.194  12.170   2.721
22506W        W89047  40.012  22.398   1.983
22507W        W89048  34.549   1.426  12.007
22508W        W89049   8.482   2.422   2.699
22509W        W89050  27.366  23.848  12.979
22510W        W89051   2.219  20.043  12.731
22511W        W89052  27.470  25.327  14.019
22512W        W89053  42.462   1.828  14.931
22513W        W89054  27.288   0.401   0.902
22514W        W89055  21.231  37.712  14.042
22515W        W89056  15.008   6.780  14.528
22516W        W89057  34.111  11.641   3.049
22517W        W89058  35.582  37.655   2.422
22518W        W89059   3.260  43.380   0.524
22519W        W89060   8.685  11.320  12.588
22520W        W89061  40.532  37.268   0.173
22521W        W89062  13.641  14.164  10.663
22522W        W89063  10.240  23.401   2.779
22523W        W89064   7.375  11.922  11.237
22524W        W89065   5.336  29.849  11.183
22525W        W89066  36.509  35.503   4.135
22526W        W89067  39.459  30.811   1.479
22527W        W89068  21.156  35.440   1.313
22528W        W89069  36.600  13.069  12.376
22529W        W89070  35.406  37.405   2.846
22530W        W89071  16.186  20.559  11.365
22531W        W89072  20.333  11.388   4.125
22532W        W89073  20.522  40.719  14.827
22533W        W89074  41.614  36.942  13.102
22534W        W89075  30.729  29.195  13.211
22535W        W89076   9.672   0.811   2.658
22536W        W89077  11.782  42.325  12.475
22537W        W89078  10.829  30.877  13.009
22538W        W89079  15.655  11.361   4.597
22539W        W89080   0.338  21.658  13.944
22540W        W89081  41.905  38.856   4.103
22541W        W89082  40.526   4.046  12.216
22542W        W89083  19.087  34.543   4.921
22543W        W89084  30.861  14.119   1.772
22544W        W89085  30.872  34.917  10.708
22545W        W89086   8.660  12.024   2.024
22546W        W89087  21.548  28.362   1.344
22547W        W89088  13.818  29.987  11.698
22548W        W89089  13.747   7.111   3.948
22549W        W89090   9.836  12.863   0.219
22550W        W89091   4.927  15.828  10.741
22551W        W89092   1.023  14.489   3.258
22552W        W89093  14.638  26.922  14.261
22553W        W89094  32.443  31.585  14.833
22554W        W89095  13.462  41.589   1.499
22555W        W89096  43.036  11.794  14.478
22556W        W89097  43.776  35.043   4.148
22557W        W89098  24.457  40.529   0.811
22558W        W89099  21.469  43.496   3.741
22559W        W89100   1.829  32.030  11.546
22560W        W89101  31.738  11.696   0.965
22561W        W89102  36.415   0.540   2.654
22562W        W89103  12.875  31.169  13.830
22563W        W89104  37.954  29.650  13.528
22564W        W89105  42.551  32.447  13.870
22565W        W89106  27.000  42.135  10.238
22566W        W89107   8.438  23.754   4.107
22567W        W89108  31.798  13.322  11.689
22568W        W89109   8.603  26.696  10.192
22569W        W89110   9.312  37.930  13.813
22570W        W89111  17.106   7.931   4.093
22571W        W89112   3.277   0.395  11.103
22572W        W89113  38.084  21.586   1.801
22573W        W89114  33.574  39.645   4.038
22574W        W89115  14.790  13.629  12.862
22575W        W89116  44.413  18.742   2.018
22576W        W89117  31.579  40.948   1.801
22577W        W89118  17.733  40.141   3.775
22578W        W89119  15.703  27.091  10.316
22579W        W89120  20.492  35.533  10.469
22580W        W89121  44.483  39.800   3.738
22581W        W89122   1.865  17.167  12.018
22582W        W89123   8.897  18.116  12.448
22583W        W89124  41.869  36.655   1.385
22584W        W89125  32.479  17.249   0.241
22585W        W89126  41.033  14.327   2.199
22586W        W89127   6.631  23.474  11.194
22587W        W89128  10.193  37.557   1.868
22588W        W89129  25.535  34.454  14.697
22589W        W89130   1.517  44.017  13.898
22590W        W89131   7.227  24.610   0.151
22591W        W89132   0.423  24.630  14.845
22592W        W89133   1.257  33.567   0.313
22593W        W89134  41.401  29.398   0.580
22594W        W89135   4.017  27.691  14.527
22595W        W89136  16.985  15.262  11.131
22596W        W89137  15.379  31.434  11.137
22597W        W89138  33.618  23.327   3.871
22598W        W89139   3.903  14.701   2.417
22599W        W89140   8.326  24.054  14.276
22600W        W89141  14.628  12.325   2.839
22601W        W89142  32.418  44.236  10.579
22602W        W89143  38.373   2.296  14.997
22603W        W89144  30.920   6.229   0.943
22604W        W89145  13.676  28.904  13.377
22605W        W89146   5.658  31.676   1.769
22606W        W89147   8.435   2.764   3.085
22607W        W89148  34.407  19.846  14.531
22608W        W89149  42.487  15.764  13.948
22609W        W89150  17.318  19.607  14.549
22610W        W89151  28.571  18.103  14.283
22611W        W89152   7.824   7.761   1.015
22612W        W89153  24.696  37.911  12.057
22613W        W89154  29.258  41.635   0.790
22614W        W89155  11.800  38.986  11.579
22615W        W89156   6.843   6.854   4.175
22616W        W89157  37.038  40.761   2.200
22617W        W89158  10.289  32.148   3.866
22618W        W89159   0.942  14.773   1.034
22619W        W89160  21.689  16.747   2.567
22620W        W89161   1.265   2.318  11.247
22621W        W89162   9.961  26.091  12.076
22622W        W89163  14.850  34.451  11.631
22623W        W89164  40.472  16.677   1.847
22624W        W89165  43.078   7.284  11.532
22625W        W89166  36.066  28.911   0.741
22626W        W89167  23.253   0.356  10.566
22627W        W89168  26.563  25.484   1.866
22628W        W89169   3.504  44.318   0.021
22629W        W89170  44.716  19.979   4.177
22630W        W89171  16.257  17.674  12.989
22631W        W89172  32.635   4.933  12.564
22632W        W89173  40.203  38.018  13.565
22633W        W89174  27.219  12.786  13.580
22634W        W89175  23.281   3.806   4.705
22635W        W89176   3.881  17.047  10.839
22636W        W89177  12.528   3.254   4.208
22637W        W89178  37.882  35.821   1.694
22638W        W89179  13.770   2.297  12.488
22639W        W89180  24.067  37.327   4.026
22640W        W89181  35.362  41.834   4.897
22641W        W89182  15.707  40.922   3.337
22642W        W89183  18.614   4.366  10.842
22643W        W89184  41.619  42.016   1.426
22644W        W89185  34.108  36.958   3.235
22645W        W89186  22.655  29.132   2.252
22646W        W89187   1.505  41.417  11.639
22647W        W89188  42.461   0.471   3.479
22648W        W89189  14.081   5.532  10.751
22649W        W89190   9.019  31.114   1.655
22650W        W89191  40.629  35.828  12.502
22651W        W89192  40.043  27.864   1.974
22652W        W89193   2.827   0.973  12.435
22653W        W89194  15.525  34.481  12.776
22654W        W89195  16.192  29.027  10.781
22655W        W89196  19.120  18.106   3.915
22656W        W89197  35.860  10.938  14.977
22657W        W89198   0.762  29.949  12.508
22658W        W89199  25.450  20.285   2.784
22659W        W89200  28.694  11.961  14.488
22660W        W89201  25.364  23.592  13.373
22661W        W89202  38.588  10.905  12.952
22662W        W89203  22.054  40.588  12.855
22663W        W89204  16.963  31.699   2.696
22664W        W89205  38.344  20.017   3.315
22665W        W89206   1.355  35.382   1.972
22666W        W89207  44.563  44.186   0.790
22667W        W89208  38.810  36.505  13.981
22668W        W89209  29.417   5.821   2.298
22669W        W89210  15.208  15.271  11.842
22670W        W89211   9.203  43.338  12.183
22671W        W89212  25.788  14.760   4.613
22672W        W89213  26.204  21.301  10.750
22673W        W89214  39.606  11.222   1.445
22674W        W89215  13.574  14.469  14.115
22675W        W89216   6.724  34.062   1.774
22676W        W89217  44.319  20.265   2.220
22677W        W89218  15.551  42.750  10.747
22678W        W89219   3.470  32.989   1.889
22679W        W89220  33.623  12.271   0.333
22680W        W89221   9.169   5.719   4.244
22681W        W89222  41.320  17.020   2.592
22682W        W89223  32.497  12.337   2.598
22683W        W89224  11.421  24.327   1.935
22684W        W89225  41.539  38.242   0.879
22685W        W89226  10.383   9.582   0.164
22686W        W89227  22.566  42.540  14.409
22687W        W89228   4.450  23.470   1.431
22688W        W89229  12.646   3.178  11.989
22689W        W89230  38.814  27.557  11.972
22690W        W89231   3.256  11.348   4.703
22691W        W89232  44.987   8.881  11.749
22692W        W89233  24.385  20.443   1.307
22693W        W89234  21.974  44.113  12.061
22694W        W89235  39.912   5.720   3.380
22695W        W89236   0.975  10.783  11.902
22696W        W89237  35.369  33.177   3.133
22697W        W89238  24.607  28.066  13.880
22698W        W89239   2.845  22.932  11.541
22699W        W89240  24.538  26.164   4.444
22700W        W89241  29.964  39.306  12.029
22701W        W89242  34.016  16.247  13.443
22702W        W89243   9.334  26.551  14.051
22703W        W89244  39.504  25.961   2.402
22704W        W89245  30.060  16.325   0.638
22705W        W89246  13.268  31.526   3.134
22706W        W89247  19.316  27.433  14.411
22707W        W89248  17.291  18.518  11.015
22708W        W89249  27.543   4.807  11.751
22709W        W89250  41.471   2.728  12.436
22710W        W89251  33.009  39.676  12.180
22711W        W89252  15.385  20.494  11.147
22712W        W89253  36.453   7.165   4.350
22713W        W89254   4.172  34.719   3.766
22714W        W89255   2.166  36.909   2.451
22715W        W89256   5.518  16.639  10.780
22716W        W89257  14.730  26.641   3.286
22717W        W89258  39.049  26.008   1.285
22718W        W89259   2.241  21.951  11.818
22719W        W89260   9.184   7.598   4.161
22720W        W89261  17.772   6.511  11.128
22721W        W89262  25.320  36.782   3.279
22722W        W89263  39.154  34.106  13.146
22723W        W89264  15.188  33.585   2.711
22724W        W89265  23.737  31.430  12.054
22725W        W89266  34.461  20.786  14.624
22726W        W89267  34.099  19.019  14.552
22727W        W89268  30.446  39.605  12.888
22728W        W89269  14.313  27.981  14.005
22729W        W89270  22.008  15.077   3.785
22730W        W89271  14.517  14.227  14.086
22731W        W89272   3.377  24.943   2.338
22732W        W89273  40.053   1.004  12.160
22733W        W89274  40.875  28.989  13.477
22734W        W89275  43.340   5.790   1.354
22735W        W89276   9.683  11.843  11.673
22736W        W89277   4.677  15.086  12.949
22737W        W89278  44.266   8.238  11.945
22738W        W89279   2.502  42.846  14.759
22739W        W89280  33.513   7.505   9.714
22740W        W89281   3.264  41.975  12.688
22741W        W89282  38.274   6.639   1.151
22742W        W89283  12.102  12.626   9.919
22743W        W89284  26.517   5.745  13.510
22744W        W89285  16.733  21.083   0.731
22745W        W89286  21.720  15.215   4.198
22746W        W89287  31.924  29.715  11.964
22747W        W89288  34.527  13.006   3.359
22748W        W89289  43.461   0.339   1.912
22749W        W89290  16.600  23.691  13.646
22750W        W89291  23.108   0.675  14.306
22751W        W89292  38.592  24.483  13.409
22752W        W89293  32.752  13.814  10.781
22753W        W89294  38.043  14.909  10.903
22754W        W89295  38.502  15.384   3.512
22755W        W89296  30.673  14.271   0.879
22756W        W89297  30.368  25.139   4.030
22757W        W89298  20.832  19.011  10.440
22758W        W89299  30.581   7.781  11.616
22759W        W89300   6.660  36.852   0.761
22760W        W89301  11.507  32.856  12.080
22761W        W89302  18.732   3.323   0.693
22762W        W89303  35.083  15.372   3.439
22763W        W89304  44.020  25.548  13.832
22764W        W89305  10.012  32.662  12.143
22765W        W89306  36.904  26.227  13.249
22766W        W89307  21.331  16.543  11.984
22767W        W89308  32.205  28.984  13.562
22768W        W89309  11.547  25.218   5.028
22769W        W89310   2.518  23.445   4.113
22770W        W89311  29.893  19.705  13.878
22771W        W89312   5.301  39.965   4.151
22772W        W89313   4.242   4.334  10.705
22773W        W89314   4.937  38.165   4.224
22774W        W89315  21.971  19.312   0.231
22775W        W89316  39.460  27.474   3.626
22776W        W89317   7.363  36.865  12.114
22777W        W89318  15.834  16.384  14.955
22778W        W89319   1.683   5.338   3.113
22779W        W89320  24.178  27.931  10.971
22780W        W89321  21.088   4.790   4.257
22781W        W89322  41.348   0.272   1.036
22782W        W89323  42.799  42.840  12.902
22783W        W89324  23.670   6.831   1.692
22784W        W89325  31.154  16.642   4.534
22785W        W89326  14.371  27.201   2.404
22786W        W89327  12.384  29.407   3.815
22787W        W89328   5.856  30.909  11.570
22788W        W89329   8.719   3.483   1.383
22789W        W89330  27.514  15.774   0.166
22790W        W89331   7.679   2.926   3.602
22791W        W89332  15.861  21.608   2.280
22792W        W89333  35.467  26.920   3.245
22793W        W89334  23.685  23.054  11.493
22794W        W89335  12.869  14.117  11.218
22795W        W89336  20.327  34.752   3.718
22796W        W89337   2.502  14.332  10.726
22797W        W89338  12.242  14.127  14.931
22798W        W89339  40.600   0.995   1.204
22799W        W89340  14.252  39.398   2.425
22800W        W89341  40.954  25.667   2.892
22801W        W89342  34.358  19.253   4.351
22802W        W89343  39.347  27.230  10.609
22803W        W89344  10.908  37.307  13.576
22804W        W89345  33.955  44.010   2.616
22805W        W89346  38.302   9.345   0.980
22806W        W89347  18.870  11.921   2.181
22807W        W89348  31.875  37.388   0.800
22808W        W89349  42.289  36.443  14.472
22809W        W89350  35.127  20.650  12.703
22810W        W89351  15.712  39.229  12.228
22811W        W89352  31.599  22.523  14.351
22812W        W89353  22.788  36.498  12.075
22813W        W89354  25.213  27.254  14.647
22814W        W89355  39.534  30.182   3.167
22815W        W89356  17.376  26.653   0.845
22816W        W89357   5.230  14.150  13.580
22817W        W89358  19.645  41.335   3.147
22818W        W89359  27.599  31.617  11.736
22819W        W89360  17.164  14.907   1.466
22820W        W89361   2.258  32.198   3.630
22821W        W89362   1.275  10.292  13.922
22822W        W89363   7.463   9.657   4.104
22823W        W89364  18.315  39.790  11.939
22824W        W89365  35.531  26.021  12.935
22825W        W89366  42.037   8.935  10.286
22826W        W89367  32.616   3.810   2.297
22827W        W89368  24.811   8.336   4.583
22828W        W89369  32.930  26.499  14.366
22829W        W89370  32.318  37.765   1.812
22830W        W89371  12.961   6.238  11.219
22831W        W89372   8.201  11.170   3.380
22832W        W89373   0.229  43.422  13.940
22833W        W89374  18.085   0.907  14.022
22834W        W89375  34.978  18.990   2.640
22835W        W89376   0.320  13.122  13.513
22836W        W89377  10.223  35.959  11.545
22837W        W89378   6.501  18.135   0.273
22838W        W89379  16.277  38.043   0.982
22839W        W89380  41.917  20.077   2.903
22840W        W89381  38.916  43.476  11.028
22841W        W89382  10.583  14.307   3.733
22842W        W89383   3.269  32.647  13.315
22843W        W89384  28.094  37.522   5.038
22844W        W89385  40.728  25.705   0.271
22845W        W89386   6.252  41.833  14.425
22846W        W89387  37.570   0.894   3.181
22847W        W89388  25.955  25.634   3.417
22848W        W89389  31.893  37.767  12.460
22849W        W89390  29.036   6.155  11.548
22850W        W89391   5.231  19.962   1.496
22851W        W89392  32.331  12.330  13.417
22852W        W89393  27.352  16.100   1.840
22853W        W89394  38.510  27.459  13.294
22854W        W89395  19.596  21.455  11.097
22855W        W89396  25.110  38.728  12.119
22856W        W89397  38.067  14.337   1.468
22857W        W89398  41.827  18.225   3.233
22858W        W89399  10.900  35.469  14.880
22859W        W89400  32.069  30.655  11.166
22860W        W89401  43.035  10.696  11.071
22861W        W89402  27.906  18.109   1.833
22862W        W89403   3.999  18.618   2.329
22863W        W89404  23.236  37.964   4.276
22864W        W89405   3.292  12.667  12.499
22865W        W89406  10.205  14.852  13.044
22866W        W89407  18.726   9.004  10.265
22867W        W89408   5.113  44.485  13.404
22868W        W89409  19.563   1.740   3.050
22869W        W89410   7.246   0.276  13.534
22870W        W89411   9.299  30.538   3.154
22871W        W89412  22.619  11.590   0.793
22872W        W89413  44.851  14.548  11.999
22873W        W89414   3.844   5.742  14.804
22874W        W89415  30.627  30.647  11.945
22875W        W89416   1.886  25.991  11.462
22876W        W89417  20.991  35.604  12.809
22877W        W89418  21.503   4.900   2.898
22878W        W89419   3.903   1.648  10.220
22879W        W89420  12.956  43.326  14.744
22880W        W89421  16.788  28.437  14.820
22881W        W89422  13.803  28.595   0.921
22882W        W89423  17.570  30.176  11.200
22883W        W89424  42.297  31.864  12.960
22884W        W89425  38.328  20.708  14.637
22885W        W89426  12.870  16.869   2.759
22886W        W89427   4.489  20.175   2.879
22887W        W89428  42.433  11.305  12.950
22888W        W89429  41.909   8.341  12.326
22889W        W89430  37.107  10.346   2.247
22890W        W89431  32.407   1.377   3.515
22891W        W89432  23.762  19.607   0.199
22892W        W89433  28.184   6.758  13.458
22893W        W89434  24.070  23.209   2.051
22894W        W89435  24.722  22.008  13.985
22895W        W89436  34.184  30.914   0.774
22896W        W89437  38.965  35.533  13.525
22897W        W89438  39.964  20.147  12.228
22898W        W89439  43.323  14.354   3.733
22899W        W89440  12.260  41.954  14.795
22900W        W89441  30.635  38.525   3.777
22901W        W89442  43.419  38.066  13.516
22902W        W89443  43.268  12.268  13.550
22903W        W89444  43.403   2.788   1.895
22904W        W89445  39.172  20.026   1.957
22905W        W89446  24.417  33.030   4.872
22906W        W89447  22.472   1.309   4.667
22907W        W89448  25.738  26.079   0.275
22908W        W89449  21.106   3.245  11.868
22909W        W89450  18.655  42.959  10.390
22910W        W89451  42.983  12.287  10.580
22911W        W89452  40.463  32.393  12.463
22912W        W89453   8.644  42.857  14.355
22913W        W89454  25.642  26.810  11.087
22914W        W89455   8.237   7.801  10.975
22915W        W89456  32.201  30.415  12.554
22916W        W89457  13.887  30.896   2.255
22917W        W89458  24.255  40.369   2.240
22918W        W89459  40.388  22.087   1.737
22919W        W89460  15.814  40.779  14.024
22920W        W89461  36.312  39.555   3.831
22921W        W89462   0.649  18.978   0.812
22922W        W89463  18.791   0.242   3.228
22923W        W89464  15.772  14.817  10.653
22924W        W89465  21.167  43.820  11.633
22925W        W89466  26.094   4.320  14.757
22926W        W89467   8.351   8.607  10.637
22927W        W89468  36.449  44.302  12.814
22928W        W89469  26.367  25.494  14.502
22929W        W89470   6.375  18.448   2.203
22930W        W89471  26.551  36.397   0.262
22931W        W89472  28.803   3.999  12.095
22932W        W89473  29.136  38.387  13.951
22933W        W89474  42.986  13.259   5.160
22934W        W89475  13.746  34.935   3.629
22935W        W89476   2.651  28.715   3.587
22936W        W89477  10.516  26.975  12.849
22937W        W89478  28.925  44.408  14.824
22938W        W89479  28.029  26.534  14.324
22939W        W89480  20.132  43.133   3.608
22940W        W89481  21.231   3.760  12.356
22941W        W89482  34.923  35.269   1.835
22942W        W89483  36.491  18.095  12.987
22943W        W89484  20.009  41.099   4.129
22944W        W89485   9.354  13.112  12.400
22945W        W89486  38.460  21.394  13.884
22946W        W89487  22.281  31.043  10.867
22947W        W89488  11.244  19.698   5.070
22948W        W89489  22.079  13.720   4.651
22949W        W89490   4.978  34.671  10.316
22950W        W89491  23.984   5.604   1.297
22951W        W89492  37.417  13.807  14.415
22952W        W89493  13.283  27.461  12.046
22953W        W89494  27.730  35.592   0.797
22954W        W89495  10.656   8.163   4.226
22955W        W89496   7.453  25.595   0.733
22956W        W89497  35.626  30.053  13.842
22957W        W89498  26.564  39.715   1.302
22958W        W89499  44.484  38.503  12.458
22959W        W89500  34.097  13.197  14.407
22960W        W89501  24.034  37.455  11.496
22961W        W89502  44.308  19.548   2.904
22962W        W89503   0.311  32.535  12.526
22963W        W89504  21.655  41.614  12.030
22964W        W89505   2.758   4.950   3.751
22965W        W89506  37.095  37.293  14.031
22966W        W89507  39.378  29.948  14.866
22967W        W89508  42.557  21.531  11.574
22968W        W89509  22.674  20.564  14.029
22969W        W89510  34.881  33.568   4.747
22970W        W89511  19.566  37.948  13.415
22971W        W89512  33.903  11.749  13.674
22972W        W89513   5.286  39.370  13.445
22973W        W89514  37.381  19.712  14.042
22974W        W89515  26.917  24.776  11.931
22975W        W89516  44.937  16.049  14.900
22976W        W89517  16.857  29.946  11.907
22977W        W89518  27.083  16.599  14.920
22978W        W89519  20.480   4.767  13.850
22979W        W89520  39.885  32.032  13.728
22980W        W89521  34.544  13.609  11.171
22981W        W89522   6.389  43.766   0.138
22982W        W89523  36.867  43.011   2.427
22983W        W89524  29.726   1.668   0.132
22984W        W89525   3.739   6.573  10.035
22985W        W89526  27.039  18.277  12.518
22986W        W89527  44.944  17.374  12.915
22987W        W89528  28.838  13.072  11.899
22988W        W89529  26.303   5.547   3.582
22989W        W89530  42.893  42.558  11.186
22990W        W89531  29.245  43.825   4.390
22991W        W89532  22.681  43.499   3.213
22992W        W89533  17.239   8.448   4.195
22993W        W89534  33.943  25.224   3.696
22994W        W89535  30.076  41.405  14.680
22995W        W89536  14.227  20.794   3.381
22996W        W89537  30.015   6.212   4.629
22997W        W89538  39.658   7.473  13.510
22998W        W89539   8.237  10.247  13.450
22999W        W89540  33.661  44.892  11.255
23000W        W89541  22.043  39.389  14.315
23001W        W89542   3.232  19.950  12.148
23002W        W89543  34.932  14.295  12.471
23003W        W89544  27.005  16.472   1.234
23004W        W89545   0.378  43.351   2.304
23005W        W89546  14.639  29.513   3.379
23006W        W89547   6.820   8.943  13.030
23007W        W89548  32.448  41.278   0.021
23008W        W89549  37.973  12.219  11.488
23009W        W89550  15.093  32.037  12.768
23010W        W89551  43.253  16.606  11.667
23011W        W89552  21.320  22.133  11.575
23012W        W89553  11.100  40.386  11.330
23013W        W89554  15.180  42.975  10.491
23014W        W89555   7.178  25.270   3.772
23015W        W89556  42.362  39.011   4.415
23016W        W89557  13.910  32.193   2.634
23017W        W89558   8.563   1.587  13.362
23018W        W89559  27.593  32.593  14.200
23019W        W89560  35.694  21.913   3.790
23020W        W89561  15.264   2.326   0.341
23021W        W89562   2.272  21.719   2.856
23022W        W89563   0.952   7.415   3.579
23023W        W89564   0.514  30.673   3.230
23024W        W89565  22.714   8.622   0.851
23025W        W89566  41.326  20.020   1.068
23026W        W89567  22.414  13.034   0.929
23027W        W89568  26.260  40.699   0.855
23028W        W89569  18.766  43.974   3.161
23029W        W89570  27.423  33.445  12.086
23030W        W89571   4.823  14.101  13.955
23031W        W89572  24.075  43.535  12.052
23032W        W89573  22.075   8.404   4.746
23033W        W89574  16.396  44.105  10.352
23034W        W89575  21.668  29.771  11.136
23035W        W89576  31.257  30.553   4.803
23036W        W89577  44.903  24.439   1.416
23037W        W89578   9.710  42.389  14.771
23038W        W89579   0.542   4.528  11.335
23039W        W89580  27.486  35.095   2.843
23040W        W89581  12.683  15.039  13.260
23041W        W89582  38.939  29.585   4.697
23042W        W89583   5.940  41.500   3.337
23043W        W89584  44.895  20.321   2.762
23044W        W89585  35.229  25.052  14.119
23045W        W89586  36.902   9.171  11.701
23046W        W89587   7.532   7.227  11.768
23047W        W89588   2.203  34.909   0.045
23048W        W89589  30.044  40.923  11.569
23049W        W89590  28.414  29.545  10.983
23050W        W89591  30.686  41.984  10.886
23051W        W89592  30.089  14.063  11.231
23052W        W89593  21.920  42.343   1.748
23053W        W89594  14.752   2.329   2.699
23054W        W89595  11.769  27.258  13.366
23055W        W89596  24.101  43.021   9.655
23056W        W89597   6.394  36.299   0.461
23057W        W89598   9.683  34.859   1.278
23058W        W89599  43.895  39.274   1.137
23059W        W89600  29.173  41.249  14.484
23060W        W89601  19.384  16.798   4.104
23061W        W89602  20.187  41.835   2.690
23062W        W89603  42.869  20.482  12.928
23063W        W89604  16.844  34.199  11.054
23064W        W89605  11.656  36.640   1.610
23065W        W89606  11.710  28.258   1.237
23066W        W89607   3.435  37.259  11.101
23067W        W89608   4.821   7.481   3.207
23068W        W89609  40.998  18.803   3.322
23069W        W89610   6.411  42.569   2.780
23070W        W89611  13.877  40.996   4.508
23071W        W89612  33.511  30.419   1.160
23072W        W89613  26.258  22.208  14.545
23073W        W89614  37.524   5.779   2.794
23074W        W89615  40.603  38.941   1.222
23075W        W89616  33.575   6.631   4.756
23076W        W89617  16.020  38.893   0.874
23077W        W89618   4.005  31.159  11.163
23078W        W89619   9.798  31.148  10.812
23079W        W89620   2.627  42.422  10.651
23080W        W89621   2.312  29.756  14.238
23081W        W89622  38.980  13.716   1.430
23082W        W89623  29.225   7.468  12.782
23083W        W89624  32.089   6.087  14.082
23084W        W89625   6.715  21.020   4.112
23085W        W89626  37.819  31.097   3.233
23086W        W89627   3.942  41.039   1.667
23087W        W89628  44.535  18.357  14.596
23088W        W89629  23.956  29.726   3.128
23089W        W89630  24.628  17.063  14.757
23090W        W89631  32.123  44.058   0.214
23091W        W89632  40.435  40.575  10.809
23092W        W89633  30.420  23.201   0.354
23093W        W89634  41.822  43.773   2.241
23094W        W89635  23.115  10.261  13.845
23095W        W89636  34.104   4.651  11.616
23096W        W89637  11.168   0.105   2.184
23097W        W89638  17.991  30.865   4.660
23098W        W89639  37.591  34.940  13.403
23099W        W89640  15.785  28.188  14.576
23100W        W89641  35.293  40.963  10.499
23101W        W89642  24.792  26.044  13.845
23102W        W89643  25.906  10.149  12.135
23103W        W89644  15.712  22.023  14.024
23104W        W89645   6.678  22.942  13.261
23105W        W89646  18.544   5.356  12.494
23106W        W89647  19.590   9.567  14.929
23107W        W89648  12.621  14.303  13.407
23108W        W89649  17.939  11.415   1.779
23109W        W89650  22.794  41.419  13.658
23110W        W89651  31.376  44.014   0.778
23111W        W89652  39.389  24.963   3.665
23112W        W89653  37.358  38.364  13.625
23113W        W89654  13.711  24.171   0.947
23114W        W89655  13.042  17.134  14.158
23115W        W89656  22.612  15.275  14.505
23116W        W89657   3.823  43.424   1.451
23117W        W89658   1.399  38.684  10.481
23118W        W89659  24.171   4.249   0.364
23119W        W89660  29.203  14.301  14.822
23120W        W89661  23.457  27.659  14.855
23121W        W89662  25.171  17.533  11.466
23122W        W89663   9.359   1.420  13.833
23123W        W89664  29.105  32.451  10.455
23124W        W89665  43.986  27.522  10.651
23125W        W89666   1.743   3.317   1.842
23126W        W89667  12.489  13.716   4.629
23127W        W89668   0.377   9.342   4.089
23128W        W89669   7.415  34.325   2.745
23129W        W89670  11.113  40.904  12.087
23130W        W89671  14.095  19.484   3.172
23131W        W89672  40.710  28.301  12.700
23132W        W89673   7.877  33.214  12.182
23133W        W89674  37.022   0.035  12.538
23134W        W89675  24.169   6.138   2.676
23135W        W89676  25.161  13.001   4.642
23136W        W89677  22.891  43.536   4.550
23137W        W89678   0.298  40.645  12.815
23138W        W89679  16.703  34.946   2.079
23139W        W89680  10.643  15.683   1.407
23140W        W89681  14.269  30.920  13.104
23141W        W89682  19.531   5.187  12.570
23142W        W89683  16.877  17.240   1.194
23143W        W89684   7.479  11.670  12.157
23144W        W89685   6.366  23.579  11.639
23145W        W89686  26.367  40.082   3.713
23146W        W89687  21.260  29.835  11.449
23147W        W89688  12.860  30.549   1.107
23148W        W89689   0.911  40.451   4.094
23149W        W89690   2.049   2.407  12.331
23150W        W89691  23.268   7.333  14.438
23151W        W89692  18.670  14.327  12.531
23152W        W89693  17.254  13.553   1.903
23153W        W89694  35.225  39.011   0.340
23154W        W89695  10.384  40.679   3.676
23155W        W89696  16.213  15.696  13.781
23156W        W89697   4.305  12.662  10.675
23157W        W89698  25.014   6.640   0.274
23158W        W89699   1.471  30.945  12.425
23159W        W89700   6.696  40.425   4.851
23160W        W89701  11.294  20.233  11.194
23161W        W89702   9.408   7.858  13.489
23162W        W89703  43.577  14.129   4.110
23163W        W89704  13.024  26.115   4.298
23164W        W89705  24.492  32.437   1.297
23165W        W89706  11.108  10.700  14.323
23166W        W89707  12.757  35.379  14.287
23167W        W89708  37.168  24.465  13.351
23168W        W89709  38.447  37.370  14.185
23169W        W89710   3.147  29.103   4.498
23170W        W89711  21.873   8.209   1.768
23171W        W89712  25.683  10.430   3.698
23172W        W89713  36.382  19.795  14.851
23173W        W89714   3.789  10.716   0.879
23174W        W89715  41.828  40.589  13.426
23175W        W89716  41.357   7.745   2.340
23176W        W89717  43.491  30.133   3.183
23177W        W89718  13.335  23.632  10.332
23178W        W89719  29.903   7.746   0.269
23179W        W89720  13.004  29.780  10.975
23180W        W89721  28.651  16.128   1.376
23181W        W89722  27.053  29.125  11.502
23182W        W89723  26.602  27.160  14.429
23183W        W89724  23.082  18.490  11.111
23184W        W89725   9.310  30.866   2.282
23185W        W89726  42.379  29.238  13.939
23186W        W89727  20.841  21.378  11.218
23187W        W89728   7.887  33.073   3.481
23188W        W89729   7.327  32.920   1.482
23189W        W89730  13.276  23.888   3.197
23190W        W89731  24.217   6.321   3.652
23191W        W89732  38.129   8.193   3.688
23192W        W89733  17.071   7.962   2.770
23193W        W89734   8.837  31.988  10.403
23194W        W89735  29.651  20.103   0.921
23195W        W89736  44.442  21.947  13.589
23196W        W89737  11.896  12.326  11.204
23197W        W89738  14.765   1.704   1.471
23198W        W89739  17.849  13.654   5.269
23199W        W89740  35.605  20.225   0.551
23200W        W89741  41.822   0.342   2.647
23201W        W89742   9.133  29.979  10.945
23202W        W89743  43.835  32.459   2.391
23203W        W89744  26.939  13.685   3.840
23204W        W89745  24.056   5.646   2.725
23205W        W89746  37.455   6.224   0.653
23206W        W89747  38.152   4.182  13.974
23207W        W89748  36.568  23.612   4.406
23208W        W89749  16.687  29.364   2.239
23209W        W89750   0.822  23.343   4.050
23210W        W89751  29.556  25.918  10.592
23211W        W89752  13.688   0.325   1.731
23212W        W89753  26.575  33.168  12.653
23213W        W89754   5.128  23.185  12.094
23214W        W89755  13.224  29.137  14.298
23215W        W89756   4.430  11.678   4.389
23216W        W89757   3.412  27.825   2.648
23217W        W89758   1.475  42.247   0.827
23218W        W89759  40.044  26.154   1.260
23219W        W89760  39.999  41.927   2.819
23220W        W89761  19.204  29.574  13.911
23221W        W89762  26.484  41.236  11.045
23222W        W89763   9.963  22.628   4.225
23223W        W89764  22.547  32.933  13.518
23224W        W89765  25.667  15.915  10.289
23225W        W89766  43.887   7.194  13.727
23226W        W89767  12.638  43.488  13.411
23227W        W89768  19.137  15.388   4.945
23228W        W89769   7.599  30.009   2.208
23229W        W89770  26.422   0.334   0.516
23230W        W89771  17.791  24.228   4.746
23231W        W89772   8.595  28.559  11.047
23232W        W89773   4.866  43.623   0.430
23233W        W89774  33.468  28.060   4.706
23234W        W89775   3.073  26.479  11.911
23235W        W89776   4.455  30.583  12.912
23236W        W89777  28.896  39.362  11.145
23237W        W89778  26.151  31.199   0.042
23238W        W89779  11.526  27.468  11.635
23239W        W89780  14.249  13.010   4.726
23240W        W89781  33.184  20.772   0.341
23241W        W89782   1.886   1.758  13.006
23242W        W89783  43.463  26.250  14.426
23243W        W89784  23.535  40.866  14.107
23244W        W89785  38.832  34.033   4.745
23245W        W89786   2.455  28.220  11.660
23246W        W89787  44.233  33.917  12.677
23247W        W89788   1.224  14.641   3.737
23248W        W89789  14.500  38.074  11.140
23249W        W89790  25.108   3.336  12.926
23250W        W89791  10.740   2.456   1.905
23251W        W89792  20.560   9.455   3.212
23252W        W89793  32.624   5.354  11.657
23253W        W89794  15.192  15.552   3.560
23254W        W89795  34.513  37.009  14.032
23255W        W89796  13.887  15.709  10.803
23256W        W89797  15.105  12.364   0.026
23257W        W89798  12.781   3.268   0.037
23258W        W89799  38.140  26.852  11.422
23259W        W89800  19.450  27.513  12.968
23260W        W89801   2.839  26.729   2.334
23261W        W89802   6.008  32.992   4.201
23262W        W89803  14.338  13.066   2.499
23263W        W89804   5.483  32.161   1.724
23264W        W89805  12.638  43.998  13.522
23265W        W89806  14.660   5.540   2.780
23266W        W89807   2.731  25.662   1.196
23267W        W89808  23.039   5.836   0.330
23268W        W89809  27.048   1.434   1.349
23269W        W89810   4.049  40.597  11.806
23270W        W89811  17.168  18.320   0.820
23271W        W89812  31.627  41.713  14.846
23272W        W89813  33.964  35.422   3.398
23273W        W89814  21.200  25.561   0.807
23274W        W89815   2.840  15.718  11.535
23275W        W89816  36.243  12.661   2.927
23276W        W89817  17.427  30.254   1.755
23277W        W89818  27.673  19.520  12.565
23278W        W89819  35.925   0.063  13.412
23279W        W89820  11.799   0.579  11.947
23280W        W89821  39.948  21.504   1.525
23281W        W89822  41.634  19.079  14.756
23282W        W89823  10.006  18.294  14.531
23283W        W89824  16.247   2.384   2.309
23284W        W89825  42.912   1.980   2.778
23285W        W89826  20.326  30.662  10.314
23286W        W89827  42.433  14.105  13.296
23287W        W89828  41.898   5.689  12.606
23288W        W89829  17.386   8.056   3.182
23289W        W89830  20.710   4.148  14.562
23290W        W89831  20.532   4.704  12.977
23291W        W89832  28.394   7.310   0.894
23292W        W89833  16.384  30.734   0.103
23293W        W89834  10.242  41.480  11.572
23294W        W89835  40.734  25.484  13.884
23295W        W89836   7.650  21.203  11.616
23296W        W89837  23.117  43.788   3.144
23297W        W89838  44.661  25.985  13.923
23298W        W89839  30.453  26.020   3.318
23299W        W89840  10.827  25.851   0.922
23300W        W89841   4.490  20.419   1.130
23301W        W89842  25.443   3.717   0.876
23302W        W89843   7.081  34.457  11.934
23303W        W89844  41.038  35.334   2.090
23304W        W89845  35.007   6.619   3.425
23305W        W89846   6.966  40.254   4.020
23306W        W89847  41.793  28.668  12.033
23307W        W89848  16.797  19.583   0.208
23308W        W89849  27.638  17.966   0.370
23309W        W89850  13.665   9.108  11.548
23310W        W89851  17.829  20.130   2.408
23311W        W89852  12.254  19.693   3.799
23312W        W89853  32.404   7.173  11.635
23313W        W89854  21.311  20.576   3.622
23314W        W89855  29.580  21.312  12.879
23315W        W89856   3.267   8.924   3.449
23316W        W89857  12.368  44.497  11.542
23317W        W89858  34.816  25.184  14.907
23318W        W89859  26.060  12.343  12.479
23319W        W89860  25.689  15.384   4.933
23320W        W89861  37.379  20.027   3.832
23321W        W89862  42.558  19.049  13.849
23322W        W89863  37.403  23.836   4.757
23323W        W89864  43.841  25.463   4.204
23324W        W89865  32.787  39.044   9.901
23325W        W89866   8.818  31.493   4.834
23326W        W89867  16.784  20.671   1.612
23327W        W89868  39.240  35.959   4.089
23328W        W89869   6.211  24.590   0.133
23329W        W89870  25.580  22.379  10.583
23330W        W89871  10.356   3.471  13.200
23331W        W89872  26.651  41.733   1.379
23332W        W89873  14.604  19.220  10.739
23333W        W89874  33.104  30.414  13.030
23334W        W89875  17.591  17.296   2.274
23335W        W89876  22.116  32.418  12.817
23336W        W89877   4.739   5.068  10.304
23337W        W89878  38.207  39.390   1.051
23338W        W89879  16.263   0.897   3.869
23339W        W89880   1.980  35.717  13.786
23340W        W89881  17.277  15.272   0.201
23341W        W89882  30.880  41.268  12.460
23342W        W89883  35.984  35.983   2.147
23343W        W89884  23.420  37.905  12.484
23344W        W89885  35.895  40.974   0.936
23345W        W89886  40.872  42.044  10.782
23346W        W89887   8.511   2.476   1.434
23347W        W89888  17.204  31.975   4.657
23348W        W89889   2.279   1.585   3.963
23349W        W89890   1.275  44.900   3.381
23350W        W89891  23.624  20.746  14.814
23351W        W89892  23.788  10.500   2.847
23352W        W89893  14.713  30.176  12.025
23353W        W89894  40.149   1.758   2.790
23354W        W89895   8.316  11.128  11.157
23355W        W89896  22.105  26.439  11.998
23356W        W89897  31.481   6.252   1.693
23357W        W89898  28.007   5.210  11.159
23358W        W89899   0.785  28.637   0.263
23359W        W89900  44.727  26.634  11.229
23360W        W89901   1.835  33.487   5.490
23361W        W89902  24.812  18.020  14.417
23362W        W89903  16.667  13.109  10.795
23363W        W89904  43.258  22.701  10.804
23364W        W89905  29.046  12.667   0.718
23365W        W89906  40.389   2.716   2.804
23366W        W89907  34.664  18.343  13.359
23367W        W89908   4.067   0.263   3.319
23368W        W89909  22.847  39.914   4.789
23369W        W89910   2.753  12.591   4.724
23370W        W89911   1.762  24.548  13.353
23371W        W89912   1.128  28.903   1.748
23372W        W89913   1.017  11.409   3.227
23373W        W89914  40.413  11.660   1.917
23374W        W89915  40.353  35.945  13.407
23375W        W89916  35.975  32.794  12.131
23376W        W89917  42.336  18.340  14.486
23377W        W89918  43.221  26.533  10.096
23378W        W89919  32.828  32.641   2.402
23379W        W89920  39.933  13.127  12.145
23380W        W89921  43.113   5.234   2.654
23381W        W89922  15.262  15.569   3.042
23382W        W89923  33.341   0.870  10.141
23383W        W89924  34.367  25.864  12.350
23384W        W89925  13.180   3.291   0.377
23385W        W89926   8.899   0.386  13.421
23386W        W89927  44.800  20.333  11.679
23387W        W89928  16.711  42.772  12.429
23388W        W89929  18.779  17.761  12.604
23389W        W89930   8.823  13.775  14.355
23390W        W89931  21.342  38.737   4.130
23391W        W89932  37.475  37.924  12.455
23392W        W89933  40.162  38.881   1.507
23393W        W89934   9.754  27.535  13.032
23394W        W89935  21.699  33.182   4.273
23395W        W89936  33.644  29.642  14.514
23396W        W89937  28.475  36.832  11.433
23397W        W89938   8.859  20.294  12.925
23398W        W89939  13.304  19.210  12.946
23399W        W89940  24.108  13.985   5.065
23400W        W89941  24.099   0.624   1.736
23401W        W89942   2.519  22.566   3.604
23402W        W89943  37.137  43.975  11.113
23403W        W89944  27.284   0.748  13.366
23404W        W89945  14.420  25.070   2.787
23405W        W89946  24.027  13.093   1.862
23406W        W89947  22.157   5.366   0.329
23407W        W89948  39.531  35.233  12.421
23408W        W89949  30.427   6.200   2.286
23409W        W89950  14.097   1.494  13.043
23410W        W89951  37.982  13.320  10.064
23411W        W89952  15.254  13.893   4.630
23412W        W89953  38.818  34.567   2.140
23413W        W89954  21.117   9.391  14.735
23414W        W89955  25.248  33.689  14.249
23415W        W89956   2.104   0.993  10.169
23416W        W89957   7.222  38.138   9.835
23417W        W89958  37.384   2.801   0.278
23418W        W89959  18.373  15.766   1.776
23419W        W89960  11.310   8.840  14.127
23420W        W89961  21.141  37.843   1.290
23421W        W89962   1.839  29.975  13.349
23422W        W89963   9.972  33.387  11.107
23423W        W89964  34.059  32.956   1.916
23424W        W89965  36.117   9.839   2.412
23425W        W89966  40.789  32.501   1.046
23426W        W89967  26.456  30.793   2.283
23427W        W89968  40.608  21.461   2.788
23428W        W89969  35.565  26.682   0.819
23429W        W89970  34.915  22.565  11.797
23430W        W89971   3.916  13.890  12.160
23431W        W89972  37.515  43.760   4.410
23432W        W89973  32.932  14.894  12.448
23433W        W89974   4.134  26.598  14.956
23434W        W89975   9.809  22.571  12.431
23435W        W89976  38.652  31.946  10.025
23436W        W89977  43.217   6.356   3.949
23437W        W89978  28.898  30.889   1.563
23438W        W89979  22.676   6.579   0.723
23439W        W89980  38.285  35.329  14.323
23440W        W89981  11.722   2.706  14.918
23441W        W89982  21.574  17.420  12.033
23442W        W89983  39.737  17.815  11.594
23443W        W89984   0.254  43.765   3.275
23444W        W89985   3.680  29.220   4.491
23445W        W89986   7.371  26.027  14.973
23446W        W89987  31.974  18.771   2.674
23447W        W89988  43.919   3.512  14.471
23448W        W89989  32.641  41.262   3.350
23449W        W89990  33.221  13.823   1.656
23450W        W89991  20.146  17.708   1.202
23451W        W89992   8.148  29.108  11.172
23452W        W89993  23.221  42.378  12.589
23453W        W89994  16.521  39.818   1.751
23454W        W89995  15.781  21.755  14.463
23455W        W89996  20.326  18.175  13.307
23456W        W89997  26.108  18.047  12.482
23457W        W89998  13.586  26.572   0.206
23458W        W89999  19.748  16.217   1.708
23459W        W90000  11.569  43.927   3.171
23460W        W90001   7.957   1.306   4.585
23461W        W90002  12.655  26.622   2.301
23462W        W90003  43.776  31.511  14.742
23463W        W90004  13.624  34.996   0.711
23464W        W90005  28.070  33.782  12.828
23465W        W90006  37.988  11.678  11.523
23466W        W90007  40.418   0.495   1.184
23467W        W90008   1.633  26.984   0.366
23468W        W90009  37.496  29.903  12.496
23469W        W90010  33.400  33.517  10.926
23470W        W90011  44.221  43.786   0.671
23471W        W90012  14.012  14.418   2.317
23472W        W90013   9.137  32.136  12.073
23473W        W90014  28.172  23.603   1.160
23474W        W90015  30.011  42.373   1.888
23475W        W90016  34.421  17.194   3.562
23476W        W90017  30.544  36.194   1.940
23477W        W90018  13.690  25.162   3.133
23478W        W90019  22.385   8.666   3.373
23479W        W90020  20.991  25.233   2.805
23480W        W90021  42.995  25.087   1.474
23481W        W90022  17.174  16.693   3.400
23482W        W90023   8.672  18.342  14.227
23483W        W90024  13.737  24.661   3.075
23484W        W90025  34.513  39.553   4.008
23485W        W90026  17.303   0.446  13.929
23486W        W90027  16.083  29.859   4.963
23487W        W90028  33.553  17.792  12.166
23488W        W90029  22.986   7.619  11.096
23489W        W90030  14.680   3.538   1.805
23490W        W90031  21.191  16.720  11.491
23491W        W90032  40.824   7.224  14.230
23492W        W90033  31.459  16.920   4.153
23493W        W90034  36.262  22.036   0.908
23494W        W90035  18.532  33.084  14.710
23495W        W90036   5.605  44.411   2.751
23496W        W90037   3.812  10.165  10.235
23497W        W90038  13.100  40.731  11.754
23498W        W90039  28.142  27.068  14.966
23499W        W90040  20.496  33.602  11.122
23500W        W90041  34.210  26.826   3.220
23501W        W90042  17.332  11.276  13.995
23502W        W90043  17.151  42.286  12.015
23503W        W90044  29.328  32.243   1.644
23504W        W90045   0.512   5.883   4.972
23505W        W90046  31.770   1.935  10.240
23506W        W90047  18.946  38.676  12.956
23507W        W90048  23.238  37.336  13.571
23508W        W90049   6.439  25.826  11.070
23509W        W90050  43.204  27.156  12.679
23510W        W90051  22.054  22.555  13.019
23511W        W90052  38.977  28.394  10.480
23512W        W90053  38.411  24.468   3.398
23513W        W90054  35.710  28.080   1.823
23514W        W90055   8.292  24.771   1.438
23515W        W90056  30.558   3.446  10.270
23516W        W90057  10.344   4.181  10.365
23517W        W90058   6.250   7.577  14.447
23518W        W90059   2.041  23.738   0.749
23519W        W90060  35.988  11.215  14.544
23520W        W90061  18.322  44.473   1.714
23521W        W90062   4.238  39.134   2.089
23522W        W90063   3.018   6.928  13.940
23523W        W90064  18.199  28.933   3.171
23524W        W90065  40.743   4.422   3.267
23525W        W90066   0.292  29.815   4.563
23526W        W90067  24.001  21.064  10.263
23527W        W90068  16.047  29.719  12.896
23528W        W90069  11.715   6.698  13.029
23529W        W90070  41.273  33.065   3.154
23530W        W90071  19.627  27.252  12.023
23531W        W90072   1.500   1.396   3.141
23532W        W90073   4.225  26.285  10.724
23533W        W90074   2.362  19.757  10.251
23534W        W90075   6.599  21.729   3.269
23535W        W90076  13.984  44.854  12.589
23536W        W90077   6.640  33.528   2.016
23537W        W90078   4.976  16.263  14.293
23538W        W90079  42.013   7.230   2.778
23539W        W90080  41.232   6.775   3.595
23540W        W90081  42.016  31.828  12.502
23541W        W90082   1.560   3.375   0.524
23542W        W90083  40.746   8.243   2.381
23543W        W90084  29.335  15.634   1.629
23544W        W90085  39.358   1.309   3.005
23545W        W90086  22.279  12.792   2.786
23546W        W90087  43.573  11.244   1.995
23547W        W90088  17.642  15.689  13.269
23548W        W90089  13.668  18.435   4.308
23549W        W90090  30.684  40.382   3.361
23550W        W90091   9.192  40.681   0.761
23551W        W90092  29.650  41.379   1.647
23552W        W90093  34.885  15.722   3.101
23553W        W90094  21.484  37.768   1.771
23554W        W90095  29.912  16.159  11.558
23555W        W90096  44.397  23.248  12.686
23556W        W90097  38.115  14.767  13.967
23557W        W90098  11.466  25.128   3.324
23558W        W90099   0.349  40.843  10.860
23559W        W90100  17.514  43.177  14.844
23560W        W90101  17.405  17.041   0.812
23561W        W90102   5.947  33.013   3.279
23562W        W90103   8.938  15.958  12.028
23563W        W90104  18.704  17.147   3.206
23564W        W90105  20.237  39.887  12.959
23565W        W90106  26.921  38.459  11.474
23566W        W90107  16.025  33.636   2.930
23567W        W90108   6.228   1.730   3.818
23568W        W90109   1.886   9.520   0.853
23569W        W90110   8.787   6.332  13.530
23570W        W90111  31.471  29.034  12.382
23571W        W90112  42.894  27.894  13.881
23572W        W90113  20.579  39.249   2.401
23573W        W90114  12.017  23.092  11.315
23574W        W90115  41.005   9.602   4.554
23575W        W90116  25.515  14.025  11.421
23576W        W90117   3.313   9.272   4.629
23577W        W90118  17.366  32.702  10.128
23578W        W90119  13.542  31.805   2.767
23579W        W90120  16.200  24.272   2.862
23580W        W90121   4.982  24.013  11.813
23581W        W90122  44.765  27.928   4.368
23582W        W90123  27.061  25.146   0.805
23583W        W90124  20.020   7.019  11.096
23584W        W90125  23.495  26.470  13.029
23585W        W90126   6.350  40.545  11.216
23586W        W90127   5.683  29.141  14.865
23587W        W90128  37.769  17.071   0.787
23588W        W90129  36.625  31.500  10.711
23589W        W90130  30.127  40.730  12.073
23590W        W90131  27.173   3.332   2.051
23591W        W90132  27.207  17.779   3.713
23592W        W90133  20.143  24.285   2.269
23593W        W90134  28.155  12.639   1.154
23594W        W90135  26.624  21.940   2.027
23595W        W90136  32.442  22.496  10.228
23596W        W90137  36.316  35.507   0.336
23597W        W90138  37.038  40.128  11.182
23598W        W90139  29.653  41.093  12.868
23599W        W90140  23.644  18.151   1.345
23600W        W90141  25.640  13.899   0.846
23601W        W90142  17.684  21.960   2.812
23602W        W90143  16.755  23.987   0.446
23603W        W90144  15.605  18.305   2.291
23604W        W90145   4.680  24.077  14.562
23605W        W90146  22.152  12.635   1.899
23606W        W90147  23.039  27.608  10.469
23607W        W90148   0.556   8.378  13.976
23608W        W90149   9.746  43.308   4.566
23609W        W90150  29.585  43.285   2.148
23610W        W90151   4.835  12.876   1.663
23611W        W90152  10.763  19.213  14.077
23612W        W90153  11.284  13.654   1.620
23613W        W90154  21.309  38.098   2.208
23614W        W90155  25.972  36.069   2.161
23615W        W90156  12.217  30.146  12.863
23616W        W90157  15.369  23.024   4.605
23617W        W90158  24.593  43.961   1.829
23618W        W90159  13.274   3.805  11.508
23619W        W90160  18.275  12.760   1.759
23620W        W90161  18.470  17.264   0.858
23621W        W90162  43.739  23.417   1.929
23622W        W90163   0.511   2.294   4.165
23623W        W90164  40.118  12.803  11.599
23624W        W90165   4.381  19.844  10.631
23625W        W90166  29.980  22.918   0.317
23626W        W90167  21.027  38.108  12.488
23627W        W90168  38.077   6.368  14.940
23628W        W90169  12.943   1.391   2.103
23629W        W90170  44.242  19.637  13.801
23630W        W90171   1.828  15.680  13.002
23631W        W90172  33.400  16.282   3.721
23632W        W90173   3.508  38.848   0.777
23633W        W90174  41.507  40.310  14.101
23634W        W90175  22.400  31.933   4.413
23635W        W90176  32.883  11.153  10.736
23636W        W90177  13.255  19.803  11.426
23637W        W90178  30.928  26.574   0.845
23638W        W90179  39.587  28.452   4.616
23639W        W90180  24.629   1.647  12.062
23640W        W90181  30.728  31.660  13.256
23641W        W90182  25.563  36.628  12.250
23642W        W90183   6.286  35.527  12.020
23643W        W90184   3.300  16.233   4.653
23644W        W90185  31.651  11.920  13.934
23645W        W90186  32.409  11.260   2.347
23646W        W90187  16.081   2.961  12.762
23647W        W90188  44.753  28.949  13.177
23648W        W90189   8.919  14.355   3.514
23649W        W90190  23.052  30.260  14.099
23650W        W90191  23.254  34.595   0.443
23651W        W90192  35.483  31.273  12.930
23652W        W90193  32.956  38.561   2.704
23653W        W90194  33.433  18.048   1.276
23654W        W90195  37.752  33.017   4.342
23655W        W90196  30.162  15.095  14.988
23656W        W90197  29.443   0.318  13.640
23657W        W90198   1.837   0.191   0.620
23658W        W90199  16.499  38.826   1.042
23659W        W90200  18.344  21.992   3.791
23660W        W90201   0.848  19.371  11.151
23661W        W90202  22.543  35.110  14.438
23662W        W90203  24.011  19.606   3.881
23663W        W90204  19.829  36.839  13.950
23664W        W90205  25.069  26.564   5.021
23665W        W90206  26.059  17.263  12.982
23666W        W90207  22.951   2.569  11.016
23667W        W90208  21.818  26.133   2.780
23668W        W90209  27.421  29.684  14.021
23669W        W90210  35.210  12.292  12.978
23670W        W90211  29.223   3.722   0.487
23671W        W90212   2.989   8.011  11.623
23672W        W90213   6.900  36.775   2.369
23673W        W90214   1.405  13.286   1.882
23674W        W90215  22.116  44.923   2.157
23675W        W90216  25.631  13.332   3.998
23676W        W90217   5.504   0.750   3.763
23677W        W90218   0.921  22.129   2.979
23678W        W90219  39.055   5.432   1.326
23679W        W90220  27.970  17.671  11.538
23680W        W90221  31.999   1.934   1.320
23681W        W90222  12.484  22.187  13.290
23682W        W90223  30.868   6.302  10.645
23683W        W90224  42.001  41.686  11.555
23684W        W90225  44.986   9.577   3.291
23685W        W90226   3.853  35.655   0.856
23686W        W90227  22.139   6.617  14.103
23687W        W90228  41.735   0.122  10.433
23688W        W90229  36.512   2.362   1.383
23689W        W90230   9.644   3.869  11.705
23690W        W90231  36.963   4.384   2.878
23691W        W90232  14.089  12.708   2.197
23692W        W90233  12.842   2.988  14.109
23693W        W90234  40.533  38.229   4.175
23694W        W90235   1.398   5.656  14.976
23695W        W90236  28.266  10.367  14.499
23696W        W90237   9.080  22.168   2.337
23697W        W90238   9.829  43.499   1.756
23698W        W90239   0.521   7.724   0.699
23699W        W90240  12.281   3.916  10.797
23700W        W90241   8.942  33.022   0.172
23701W        W90242  33.157   0.119   0.339
23702W        W90243  44.366  17.130  14.280
23703W        W90244  16.796   4.950   1.792
23704W        W90245  23.450  17.216   4.081
23705W        W90246   2.854   2.443   0.957
23706W        W90247   1.308  36.955   4.361
23707W        W90248  15.712  11.704  11.909
23708W        W90249  26.419  31.498   4.159
23709W        W90250  11.754   9.929   3.703
23710W        W90251  28.939   1.388  14.776
23711W        W90252   2.979   9.155   0.282
23712W        W90253   1.181  32.308  14.322
23713W        W90254   2.283   0.899  11.053
23714W        W90255  13.428  24.652   2.652
23715W        W90256  29.096  22.136   1.829
23716W        W90257  40.594   1.250   3.770
23717W        W90258  30.965  11.054   4.158
23718W        W90259   5.923  37.462   3.128
23719W        W90260  36.969   3.913   1.659
23720W        W90261  28.191  32.275  10.947
23721W        W90262  35.198  19.736  10.296
23722W        W90263  39.720  29.205   3.134
23723W        W90264  24.421  12.669  14.978
23724W        W90265  35.058  32.782  10.754
23725W        W90266  21.196  30.586  11.886
23726W        W90267  10.800  36.519   1.391
23727W        W90268   3.273  38.617   4.625
23728W        W90269  23.905  32.022   0.206
23729W        W90270  30.509  14.996   2.673
23730W        W90271  32.891  11.133   2.731
23731W        W90272  22.567  12.523   0.952
23732W        W90273  19.670  31.145   0.807
23733W        W90274  26.127  42.495  11.378
23734W        W90275  40.019  41.887  12.175
23735W        W90276  41.573  19.266   4.023
23736W        W90277  24.693  44.015   2.752
23737W        W90278  41.652  39.270  13.351
23738W        W90279  23.166  20.469   3.195
23739W        W90280  32.461   8.178  14.432
23740W        W90281  42.512   7.208   3.150
23741W        W90282  32.674  32.112   3.354
23742W        W90283  35.536  32.619   1.852
23743W        W90284   1.727   4.785   1.776
23744W        W90285  32.517  28.125  11.183
23745W        W90286  35.600  11.830   2.908
23746W        W90287  16.241  22.231  14.923
23747W        W90288  41.294  20.828   4.146
23748W        W90289  40.828  25.738   2.375
23749W        W90290  16.251  20.809   3.217
23750W        W90291  29.355  43.802   1.377
23751W        W90292  24.257  10.550  13.306
23752W        W90293   2.514  21.237  13.309
23753W        W90294   1.030  40.300   2.884
23754W        W90295  37.645  27.718  11.174
23755W        W90296   2.215  10.724   3.324
23756W        W90297   4.434  17.827   4.958
23757W        W90298  29.837  24.880  13.092
23758W        W90299  16.359  34.604   1.884
23759W        W90300  33.178  44.778   1.942
23760W        W90301  29.278  28.210   4.591
23761W        W90302  23.501  16.990  13.834
23762W        W90303   5.381  31.522  11.896
23763W        W90304  18.046  35.363  10.802
23764W        W90305  13.752  30.815  14.776
23765W        W90306  20.004   9.743   1.590
23766W        W90307  24.625  31.760  12.564
23767W        W90308  31.958  15.760  13.083
23768W        W90309  35.146  42.936   4.592
23769W        W90310  26.070   9.955  14.912
23770W        W90311  43.817  31.990  10.684
23771W        W90312  34.108  18.558   2.325
23772W        W90313   4.218   6.326  13.859
23773W        W90314  24.441  35.404   1.775
23774W        W90315  18.044   6.595  14.553
23775W        W90316  32.008  32.940   2.673
23776W        W90317   7.965  25.422   0.727
23777W        W90318  19.706   6.031   2.190
23778W        W90319  12.597  44.824   3.815
23779W        W90320  10.388  23.985   3.239
23780W        W90321  15.797  15.730  11.433
23781W        W90322  34.941  33.971   0.849
23782W        W90323   0.490  10.742  12.128
23783W        W90324  31.155  22.486  14.098
23784W        W90325  29.893  19.961   1.884
23785W        W90326  31.271  39.681   3.724
23786W        W90327  10.634  30.469  12.442
23787W        W90328   7.979  25.081   3.420
23788W        W90329   0.426  22.084  14.730
23789W        W90330   9.074  16.397   1.669
23790W        W90331  11.317  15.405  13.454
23791W        W90332  23.584  16.598   0.877
23792W        W90333  36.982  31.138  11.645
23793W        W90334  10.860  40.845  11.189
23794W        W90335   0.724   4.743   2.214
23795W        W90336   9.210  15.059  13.966
23796W        W90337  24.474  31.973  14.023
23797W        W90338  32.969  18.189   3.899
23798W        W90339  41.243  18.638   1.826
23799W        W90340   6.434  24.133  14.392
23800W        W90341  10.922  44.887   2.606
23801W        W90342  20.120   9.573   3.674
23802W        W90343  44.567  20.018  13.761
23803W        W90344  38.974  32.215  13.536
23804W        W90345  33.602  13.279   1.232
23805W        W90346  41.873  38.146  12.407
23806W        W90347  27.600   5.324  12.430
23807W        W90348  28.030   9.737  12.803
23808W        W90349   5.861  31.069   2.769
23809W        W90350   5.475  32.679   0.815
23810W        W90351  16.061  23.556  11.628
23811W        W90352  32.148  40.960  12.430
23812W        W90353  37.485  19.518  10.370
23813W        W90354   8.010  17.088   2.699
23814W        W90355  17.099  44.048  10.401
23815W        W90356  40.091  31.483   2.012
23816W        W90357  15.810   6.924   0.244
23817W        W90358  29.386  42.969   4.121
23818W        W90359  33.510  18.558  12.693
23819W        W90360  15.686  15.745  12.373
23820W        W90361  38.950  37.988   4.615
23821W        W90362   4.241  37.859   4.231
23822W        W90363  39.448  10.210  10.582
23823W        W90364  26.537  42.045   4.547
23824W        W90365  24.531  39.894   1.562
23825W        W90366  26.800  33.265   2.299
23826W        W90367   8.364   3.086   2.059
23827W        W90368  19.999  22.996   1.204
23828W        W90369  24.390  12.722   0.913
23829W        W90370  34.315  28.470  11.813
23830W        W90371  40.822  36.854  12.551
23831W        W90372   4.163  11.713   1.677
23832W        W90373  36.688  14.826  11.581
23833W        W90374  44.844  43.288   1.050
23834W        W90375  11.308  35.576   4.575
23835W        W90376  36.103  35.094  12.542
23836W        W90377   4.782  29.795   1.392
23837W        W90378  14.837  29.453   4.198
23838W        W90379   7.275  10.764   1.525
23839W        W90380  30.886  43.959   1.723
23840W        W90381  41.496  17.672   2.376
23841W        W90382   5.584  36.989   9.764
23842W        W90383  10.234  32.619  12.648
23843W        W90384  16.354  36.982  13.778
23844W        W90385  34.871  33.748   2.310
23845W        W90386  24.306  18.724   0.214
23846W        W90387  15.317  36.557   1.294
23847W        W90388  20.257  27.003  12.051
23848W        W90389  19.209  42.807  12.982
23849W        W90390  37.559  33.769   2.320
23850W        W90391   7.690  24.668   0.361
23851W        W90392  12.208  34.139   3.760
23852W        W90393  16.137   6.462  12.942
23853W        W90394  42.775  42.037  14.900
23854W        W90395   9.276   7.156   2.306
23855W        W90396  18.651  17.196  12.388
23856W        W90397  31.459   4.909  11.846
23857W        W90398   0.817  23.219   0.508
23858W        W90399  20.352   2.746   2.582
23859W        W90400  19.560   3.735  14.947
23860W        W90401  22.565   3.973  14.030
23861W        W90402  12.146  29.443   1.530
23862W        W90403  26.652   8.259   3.221
23863W        W90404  41.724  36.600  11.182
23864W        W90405  29.371  25.938  14.457
23865W        W90406  32.041  27.302   2.227
23866W        W90407   3.012  25.244  11.904
23867W        W90408  37.649  27.051  12.448
23868W        W90409  28.462  20.279  10.622
23869W        W90410   4.745   9.814   3.304
23870W        W90411  21.026  16.139  14.973
23871W        W90412  36.975  17.803  14.886
23872W        W90413  30.443  20.206   4.351
23873W        W90414  21.647  14.852  12.879
23874W        W90415  10.969  41.402  12.026
23875W        W90416   6.094  39.601   4.961
23876W        W90417  19.563   5.790   4.577
23877W        W90418   0.327  21.468   4.091
23878W        W90419  29.350   7.801   1.394
23879W        W90420  16.381   2.892  11.452
23880W        W90421  26.627  44.366   1.387
23881W        W90422  38.473  39.353   1.977
23882W        W90423  30.748  14.814   2.230
23883W        W90424  11.778   2.789   1.393
23884W        W90425  19.851  37.197   0.171
23885W        W90426  18.982  29.947   2.609
23886W        W90427   7.504  13.980  14.992
23887W        W90428  20.178  38.365  11.368
23888W        W90429  39.370  27.940   3.329
23889W        W90430   8.236  14.525   2.365
23890W        W90431   6.156  42.892   1.246
23891W        W90432   8.255  10.389   4.122
23892W        W90433  43.325  23.104   3.694
23893W        W90434  19.306   3.690   2.301
23894W        W90435  29.641  24.923   3.619
23895W        W90436  26.462  42.785  13.437
23896W        W90437  29.681  38.457   2.097
23897W        W90438  19.587  19.071  12.445
23898W        W90439  26.220   7.756   3.167
23899W        W90440  38.917  26.202   0.670
23900W        W90441  39.519  11.311  14.936
23901W        W90442   3.772  40.093   3.171
23902W        W90443  16.535  29.044   4.526
23903W        W90444  30.548  36.239  14.345
23904W        W90445  21.686  29.444   4.456
23905W        W90446   9.622  28.464   4.484
23906W        W90447  30.430   2.541   4.462
23907W        W90448  26.222  44.278   4.071
23908W        W90449   5.828  30.520   2.361
23909W        W90450  26.236  17.743  10.542
23910W        W90451  17.580  40.997  10.194
23911W        W90452  44.467   5.900  14.062
23912W        W90453  32.310   5.856  12.377
23913W        W90454  18.246  30.960  14.274
23914W        W90455  11.722  25.789   4.536
23915W        W90456  36.699  30.444  14.321
23916W        W90457   7.924  11.296   4.534
23917W        W90458   4.442  37.628  13.404
23918W        W90459  37.784  33.597  10.827
23919W        W90460   3.668  19.007   2.286
23920W        W90461  29.580   1.550   2.642
23921W        W90462  26.297  40.609   2.762
23922W        W90463  40.613  40.042   2.714
23923W        W90464  15.353  16.005  11.150
23924W        W90465  15.669  24.249   4.095
23925W        W90466  33.114  19.789   1.423
23926W        W90467  33.684  35.046  14.138
23927W        W90468   3.085  21.861  12.030
23928W        W90469  27.487   0.486   2.299
23929W        W90470  15.615   7.185  12.899
23930W        W90471  43.760  25.584   1.617
23931W        W90472  39.801  24.355   1.870
23932W        W90473   9.678  26.188   4.270
23933W        W90474  19.577  26.984  10.712
23934W        W90475  17.508  32.952   0.739
23935W        W90476   7.060  38.320  13.359
23936W        W90477  12.864  13.139   4.013
23937W        W90478   8.146  26.893  14.822
23938W        W90479  43.306   1.424  11.692
23939W        W90480  12.096  14.331  13.474
23940W        W90481   6.857  31.679   0.247
23941W        W90482  16.721  19.205  11.486
23942W        W90483  15.345  28.947  12.009
23943W        W90484   0.544  44.876   4.588
23944W        W90485  28.766  38.430   2.543
23945W        W90486   8.461   9.965   1.686
23946W        W90487  32.541  40.285  14.749
23947W        W90488  24.946  40.321  14.903
23948W        W90489  14.177   2.543   4.413
23949W        W90490  40.816  23.671   3.112
23950W        W90491  42.050   7.176  12.982
23951W        W90492  11.357  41.693  12.151
23952W        W90493   0.985   4.957  14.342
23953W        W90494  36.877   2.008  12.429
23954W        W90495  35.243   3.422   1.193
23955W        W90496  41.293  33.567  10.794
23956W        W90497  42.671  38.754   2.366
23957W        W90498  41.040   8.268  14.905
23958W        W90499   7.921  13.371  13.803
23959W        W90500  42.268  44.415   0.146
23960W        W90501   2.886   9.766   3.243
23961W        W90502  41.324  29.826  10.677
23962W        W90503  34.963  23.100  10.976
23963W        W90504   3.960  30.216  14.832
23964W        W90505  36.403  31.555  14.898
23965W        W90506  38.502  15.743   0.399
23966W        W90507   1.884  37.156   2.795
23967W        W90508   5.595  10.928   0.469
23968W        W90509  38.168   7.062   4.561
23969W        W90510   2.696  28.827   4.402
23970W        W90511  17.591  17.599  11.796
23971W        W90512   1.895  27.641  11.183
23972W        W90513  10.513   9.288   3.242
23973W        W90514  14.147  30.072   0.940
23974W        W90515  38.157   3.556   5.101
23975W        W90516  14.136  32.471   3.696
23976W        W90517  35.241  10.828  11.612
23977W        W90518  43.798  19.042  11.394
23978W        W90519  41.344  16.022  11.985
23979W        W90520  10.169  15.828  13.890
23980W        W90521  28.546  29.387   0.866
23981W        W90522  32.672  27.721  13.550
23982W        W90523  39.806  26.084   3.638
23983W        W90524  32.429   1.972  12.164
23984W        W90525  36.475   5.472  10.600
23985W        W90526  24.186  41.339   4.098
23986W        W90527  14.875  23.731  12.152
23987W        W90528   1.709   4.112  14.191
23988W        W90529  28.613  42.435  13.543
23989W        W90530  15.827  39.983  14.503
23990W        W90531  39.879   6.216   0.844
23991W        W90532   3.723  18.513   0.270
23992W        W90533  19.533  27.629   3.660
23993W        W90534  21.105  39.257  14.562
23994W        W90535  27.635  36.909  12.125
23995W        W90536  29.451   9.428  13.453
23996W        W90537  40.405  29.855  10.688
23997W        W90538   3.637  30.918   2.191
23998W        W90539   3.436  34.674   2.027
23999W        W90540  42.425  20.579   0.345
24000W        W90541   7.710  18.276   2.235
24001W        W90542  24.916  23.679   3.003
24002W        W90543  32.021   0.191  14.469
24003W        W90544  20.012  26.999   2.957
24004W        W90545  28.508  19.365  12.063
24005W        W90546  41.957  40.551  13.959
24006W        W90547  19.230  31.433   2.824
24007W        W90548   9.727  28.921   0.250
24008W        W90549  39.312  43.344   4.585
24009W        W90550  13.906   6.469   0.578
24010W        W90551  22.071  10.831   0.917
24011W        W90552  20.091  15.600   0.437
24012W        W90553   7.224  11.578   4.645
24013W        W90554  23.020  17.783   3.356
24014W        W90555   1.802  44.365   1.905
24015W        W90556  36.397  23.431   3.592
24016W        W90557  38.490   2.907   4.020
24017W        W90558  17.187  34.854   2.302
24018W        W90559  38.488  28.572  10.659
24019W        W90560  30.900   0.377  13.924
24020W        W90561  31.134  19.585  13.561
24021W        W90562  39.921   7.824  11.689
24022W        W90563  37.550  44.197   2.178
24023W        W90564   7.626  14.198   5.004
24024W        W90565  38.444   8.929  12.189
24025W        W90566  39.462  22.846  12.439
24026W        W90567  34.287  26.193   0.636
24027W        W90568  31.612  43.927   4.075
24028W        W90569  16.655  21.313  14.747
24029W        W90570  11.838  14.682  13.010
24030W        W90571   0.463  40.470  14.534
24031W        W90572  14.356  21.618  10.720
24032W        W90573  41.636  11.790   2.226
24033W        W90574  43.480   8.341   0.543
24034W        W90575  10.342  13.235   0.747
24035W        W90576  13.536   0.870   4.145
24036W        W90577   0.478  39.942  10.353
24037W        W90578  24.588  21.829  11.691
24038W        W90579  38.109  30.032   0.388
24039W        W90580  41.830  44.309  10.763
24040W        W90581  12.444  43.776  11.149
24041W        W90582  23.596  38.824   0.397
24042W        W90583   0.959  21.910   3.461
24043W        W90584   3.171  34.231   0.711
24044W        W90585  12.263  26.935  14.073
24045W        W90586  18.098  41.022  14.399
24046W        W90587   6.418  39.480   0.767
24047W        W90588  43.326  39.775  11.917
24048W        W90589  14.684  25.237   4.262
24049W        W90590   1.797  30.550  13.076
24050W        W90591  37.970  35.401  13.468
24051W        W90592  38.455  16.366   1.455
24052W        W90593  44.817  15.345  13.930
24053W        W90594   8.897  44.137   2.358
24054W        W90595  12.104   4.927   2.010
24055W        W90596  29.973  23.737   1.759
24056W        W90597  36.513  33.867   2.583
24057W        W90598   9.604  44.018   1.399
24058W        W90599  21.269  13.823   2.710
24059W        W90600  27.606  28.673   1.518
24060W        W90601  30.728  34.864  11.215
24061W        W90602  33.692   9.931  13.987
24062W        W90603   2.348  36.141   2.242
24063W        W90604   3.142  19.189  13.115
24064W        W90605   3.132  28.167   4.603
24065W        W90606  39.472  17.584  11.970
24066W        W90607  17.033  16.140   0.818
24067W        W90608  37.577   5.500   4.086
24068W        W90609  29.161  18.616   2.886
24069W        W90610  35.519  33.533   1.289
24070W        W90611   3.237  33.743   1.616
24071W        W90612  31.113  38.806  12.589
24072W        W90613   8.354   7.154   1.200
24073W        W90614  38.056   9.901  12.256
24074W        W90615  30.386  26.916  10.905
24075W        W90616  29.131  40.048  10.808
24076W        W90617  11.958  31.647   0.949
24077W        W90618  26.452  27.417  14.895
24078W        W90619  17.655  28.600   2.765
24079W        W90620   7.797  33.716   0.945
24080W        W90621  37.537  37.775   4.135
24081W        W90622  16.504  40.531   1.304
24082W        W90623  40.967  17.665   9.679
24083W        W90624  10.784  33.214   3.409
24084W        W90625  26.567  29.732  13.625
24085W        W90626  21.244  13.071  11.477
24086W        W90627  33.676  22.243   1.375
24087W        W90628  24.579  17.548  14.431
24088W        W90629  22.117  14.750   4.167
24089W        W90630  18.108  28.908  11.282
24090W        W90631  13.338   5.835  13.350
24091W        W90632  11.285  19.068  13.788
24092W        W90633   2.331  17.345   0.394
24093W        W90634  41.999  36.987   3.955
24094W        W90635   9.843  40.909   2.733
24095W        W90636  18.273  16.749   0.829
24096W        W90637  19.111  18.367   3.460
24097W        W90638   0.905   7.502  14.379
24098W        W90639  41.103  38.940   1.391
24099W        W90640   9.117  22.453   0.161
24100W        W90641   8.919   5.709   3.566
24101W        W90642  33.606  38.195   1.407
24102W        W90643  24.080  15.026   2.300
24103W        W90644  44.294   8.959   0.377
24104W        W90645  13.320  37.305   1.381
24105W        W90646  18.037   8.338   2.667
24106W        W90647  33.880  22.723   1.687
24107W        W90648  32.523   8.753  12.625
24108W        W90649  41.591  42.535  13.346
24109W        W90650  26.579  26.602  14.448
24110W        W90651  35.460   9.806  14.197
24111W        W90652  41.307   3.790   3.455
24112W        W90653  19.529  39.398  14.479
24113W        W90654  26.064  16.393  11.508
24114W        W90655  20.508  22.850   1.221
24115W        W90656  37.791  37.987   1.164
24116W        W90657  39.660  31.709   2.683
24117W        W90658  21.474  35.949   1.452
24118W        W90659  21.257  19.563   4.994
24119W        W90660  24.556   2.518   3.241
24120W        W90661   7.531   0.651  12.004
24121W        W90662  24.170  21.607   2.893
24122W        W90663  31.468  23.410  13.545
24123W        W90664  10.365  28.114  12.593
24124W        W90665  23.296   9.215   2.718
24125W        W90666  24.195  38.005   1.147
24126W        W90667  15.134   6.461  10.711
24127W        W90668  28.322  14.053   2.347
24128W        W90669  32.313  29.453  12.425
24129W        W90670  32.618   8.743   3.182
24130W        W90671  44.384  23.573  11.754
24131W        W90672  20.820  36.109  13.490
24132W        W90673   1.478  34.837  14.426
24133W        W90674  39.806   9.930   1.817
24134W        W90675   3.423  36.402  14.994
24135W        W90676  31.325  11.194  11.454
24136W        W90677  39.560  38.890   4.670
24137W        W90678  42.860   2.150  11.945
24138W        W90679   0.167  42.501  10.678
24139W        W90680  44.675   7.599   0.809
24140W        W90681  19.062   6.192  10.297
24141W        W90682  26.074  35.643   3.783
24142W        W90683   5.024  18.726   3.996
24143W        W90684  29.703  10.269  14.421
24144W        W90685  26.219  12.543  14.093
24145W        W90686  20.969  40.534   4.801
24146W        W90687   9.059  21.205  11.542
24147W        W90688  31.205  16.287  11.065
24148W        W90689  31.682  20.769   0.813
24149W        W90690  11.765  25.692  14.353
24150W        W90691   1.228  18.671  11.479
24151W        W90692  26.432  37.537   4.092
24152W        W90693  41.371   6.316  14.858
24153W        W90694  18.868  13.112   2.610
24154W        W90695  17.666  26.289   0.559
24155W        W90696  23.785   2.902   4.546
24156W        W90697  14.821   6.417   1.628
24157W        W90698  40.080  40.350  13.426
24158W        W90699   2.441  30.508   1.388
24159W        W90700   1.186  13.907  11.690
24160W        W90701  43.685  26.978  12.665
24161W        W90702   8.808  11.411  12.096
24162W        W90703  27.129   9.373   0.099
24163W        W90704  38.878  24.438   3.178
24164W        W90705   4.380   5.000   3.689
24165W        W90706   8.839  15.490   4.162
24166W        W90707  38.344  31.720   2.700
24167W        W90708   4.906  12.794  12.408
24168W        W90709   7.231  22.085  14.299
24169W        W90710   4.675  15.677   3.340
24170W        W90711   8.781  42.960   4.355
24171W        W90712  19.281   4.232  12.587
24172W        W90713   1.885   0.363   2.165
24173W        W90714   7.191   2.344  11.583
24174W        W90715  26.202   9.153   3.791
24175W        W90716  27.890  29.151  12.475
24176W        W90717   4.779   4.726   2.618
24177W        W90718  25.720  44.953  12.499
24178W        W90719  26.613  33.339   3.527
24179W        W90720   4.097  10.724  11.939
24180W        W90721   0.985  25.659  12.451
24181W        W90722  35.929  38.566  11.912
24182W        W90723  29.180  32.528   1.211
24183W        W90724  42.075   9.299  14.035
24184W        W90725  31.168  21.666   2.143
24185W        W90726  14.610  44.769   0.772
24186W        W90727  42.084  12.718   4.524
24187W        W90728  44.819  27.628   2.432
24188W        W90729   3.057  17.291   4.838
24189W        W90730  15.118  43.446  10.687
24190W        W90731  40.784  21.815  14.400
24191W        W90732  30.424  26.149  11.814
24192W        W90733   9.801  23.634  12.449
24193W        W90734  11.421  43.332  10.468
24194W        W90735  25.484  19.266   0.204
24195W        W90736  25.495  32.097  13.649
24196W        W90737  42.397  36.831  11.311
24197W        W90738  13.041  19.706   3.175
24198W        W90739  43.737   6.425   2.224
24199W        W90740   5.715  35.165  14.899
24200W        W90741   3.900  31.318   3.289
24201W        W90742   1.488  11.356  10.645
24202W        W90743   5.329   1.267   4.458
24203W        W90744  25.974  40.486  11.164
24204W        W90745   6.910  17.058  11.176
24205W        W90746   2.521  39.859   2.776
24206W        W90747  32.394  15.197   4.152
24207W        W90748  12.944  34.459   1.212
24208W        W90749  30.787   2.855  12.814
24209W        W90750   2.267  15.703  12.149
24210W        W90751   6.705  42.879   3.712
24211W        W90752  38.468  41.533  14.133
24212W        W90753  38.973  16.734  12.178
24213W        W90754  11.725  42.290  10.632
24214W        W90755  22.653   8.132  13.042
24215W        W90756  41.582  17.712  14.236
24216W        W90757  13.743  35.645   1.960
24217W        W90758   7.309  15.006   2.486
24218W        W90759   6.408  39.870   1.717
24219W        W90760   4.704  34.922   2.245
24220W        W90761   7.782   3.945  11.592
24221W        W90762  20.777  28.593  12.367
24222W        W90763  40.827   2.646  13.125
24223W        W90764  36.512  21.001   2.440
24224W        W90765   1.020  15.383   4.891
24225W        W90766  21.576  36.338   3.668
24226W        W90767   3.080  41.508  12.870
24227W        W90768   4.424  34.771  14.772
24228W        W90769   8.410  31.902   1.857
24229W        W90770  29.793  39.855  12.641
24230W        W90771  10.380  42.435  10.658
24231W        W90772  26.131  15.195   3.607
24232W        W90773  35.148  13.062  12.575
24233W        W90774   5.802  41.384   4.273
24234W        W90775  41.385  26.193   1.399
24235W        W90776  29.690  17.794   2.385
24236W        W90777  35.982   6.443   1.713
24237W        W90778  21.596  24.354   0.881
24238W        W90779  13.671  24.435  11.639
24239W        W90780  25.979   0.792  12.965
24240W        W90781  23.812  44.501   3.030
24241W        W90782  39.754  40.965  11.667
24242W        W90783  19.807  17.610  11.229
24243W        W90784  19.795  21.204   2.717
24244W        W90785  37.201  16.001   1.944
24245W        W90786   1.674  33.122  11.591
24246W        W90787   7.593  27.074   0.524
24247W        W90788  13.659  18.776  13.406
24248W        W90789  26.909  35.487   1.668
24249W        W90790  24.257   5.858   2.200
24250W        W90791  42.852  20.853   0.117
24251W        W90792  24.062  20.633   0.533
24252W        W90793  28.102   1.053  10.016
24253W        W90794   3.728  37.682   4.674
24254W        W90795  35.839  29.371   2.261
24255W        W90796  13.737  41.786  14.816
24256W        W90797  16.452   0.410  13.347
24257W        W90798   4.638  37.782   3.122
24258W        W90799  19.592  28.991  12.862
24259W        W90800  26.932  13.071  14.984
24260W        W90801  42.513  25.220   3.751
24261W        W90802  44.150  22.629  14.288
24262W        W90803   4.820  18.384   2.823
24263W        W90804  36.206  44.875  14.412
24264W        W90805  25.898  16.359  14.781
24265W        W90806  15.850  36.915   0.714
24266W        W90807  30.593  13.852  14.931
24267W        W90808   8.391  11.125   4.702
24268W        W90809   2.417  44.233  13.183
24269W        W90810  34.308  12.351  13.432
24270W        W90811   0.481  42.514   5.025
24271W        W90812  40.072  42.763  14.820
24272W        W90813  12.840  19.070   2.342
24273W        W90814  14.363  29.846   3.086
24274W        W90815  22.385  34.962  12.472
24275W        W90816  31.468   8.517   2.645
24276W        W90817   6.543  29.541  12.016
24277W        W90818  39.996  29.988  14.074
24278W        W90819  44.954  25.797   3.705
24279W        W90820   7.588  25.940  13.513
24280W        W90821  15.128   3.482  14.456
24281W        W90822  28.027  15.355  11.337
24282W        W90823   2.401  33.053  14.277
24283W        W90824  31.614  29.619  11.095
24284W        W90825  21.880  22.442   4.815
24285W        W90826  27.538  26.009  10.718
24286W        W90827  34.684  26.064  11.932
24287W        W90828  18.266   8.227  13.520
24288W        W90829  12.456  11.151   2.705
24289W        W90830   0.850  36.608   1.865
24290W        W90831   9.797  15.660  13.532
24291W        W90832  31.974  10.169  10.978
24292W        W90833  10.938  19.514   1.355
24293W        W90834  28.435   7.661   3.244
24294W        W90835  11.683   4.383  10.908
24295W        W90836  29.697  35.023  14.158
24296W        W90837  11.842  13.879  13.408
24297W        W90838  15.097  33.689   0.445
24298W        W90839  42.285   9.936   4.850
24299W        W90840   1.226  41.333  11.196
24300W        W90841  31.486  22.188  10.625
24301W        W90842  22.010  25.714   3.845
24302W        W90843   5.885  42.390   1.355
24303W        W90844  10.112  19.269  11.894
24304W        W90845  25.277  16.184   4.158
24305W        W90846  44.361  22.815   1.888
24306W        W90847  16.525   5.675  12.381
24307W        W90848   8.692   6.227   2.251
24308W        W90849   4.071  25.708  13.074
24309W        W90850   7.293  31.063   3.158
24310W        W90851  13.853  19.274  12.119
24311W        W90852  14.916  11.614  12.553
24312W        W90853  20.244   8.379  13.004
24313W        W90854   1.852   1.935  14.467
24314W        W90855   4.245  43.736  13.746
24315W        W90856   1.072  40.850   3.764
24316W        W90857  18.850  39.264   3.444
24317W        W90858  30.044  24.262   3.586
24318W        W90859  27.452   9.736   4.075
24319W        W90860  42.813   1.756   2.300
24320W        W90861  22.829  34.402   0.204
24321W        W90862   7.267  40.393  12.496
24322W        W90863   1.340   4.181  11.057
24323W        W90864  14.668  25.922  14.789
24324W        W90865  14.277  27.111  14.551
24325W        W90866  15.733  10.373  11.176
24326W        W90867   3.785  41.965   1.189
24327W        W90868  25.471  14.793  14.895
24328W        W90869   5.866   1.189  13.475
24329W        W90870  44.524  44.153  12.730
24330W        W90871   5.525  37.737   2.656
24331W        W90872  31.223  21.044   0.737
24332W        W90873  17.263  39.568   3.232
24333W        W90874  33.928   5.915   4.108
24334W        W90875  11.620  17.182   2.267
24335W        W90876  24.352  31.383   0.890
24336W        W90877  29.190  11.306  10.768
24337W        W90878  14.943  30.368  14.947
24338W        W90879  13.248  22.306  14.606
24339W        W90880  16.196  31.688  12.454
24340W        W90881  29.169  37.576  12.754
24341W        W90882  20.314  21.651  12.110
24342W        W90883  10.417  21.628   0.804
24343W        W90884  11.582   7.315  10.698
24344W        W90885  37.808  20.023   0.765
24345W        W90886   1.132  39.389   1.831
24346W        W90887   9.483   2.775   3.702
24347W        W90888  38.907  44.728  13.855
24348W        W90889  44.541  11.919  12.471
24349W        W90890  36.464  23.252   0.475
24350W        W90891  22.468  44.032  12.230
24351W        W90892  42.361  21.593   2.948
24352W        W90893   6.435  13.870  11.646
24353W        W90894   4.011  32.499  10.164
24354W        W90895  40.346  23.970   0.455
24355W        W90896   8.094  22.725   1.692
24356W        W90897  24.929  20.214  10.837
24357W        W90898  34.893  20.232  10.386
24358W        W90899  38.828  27.402  12.906
24359W        W90900   9.093  33.356  13.533
24360W        W90901  20.241  17.638  10.946
24361W        W90902  39.217   6.347  11.199
24362W        W90903  24.460  39.417   1.360
24363W        W90904  14.120  17.226  12.404
24364W        W90905  24.007   2.438   0.091
24365W        W90906  23.578   3.029  11.649
24366W        W90907  26.542  20.788  13.118
24367W        W90908   6.279   8.380   4.623
24368W        W90909  34.359  33.581   2.256
24369W        W90910  42.065  24.324   3.638
24370W        W90911   5.237  34.472  14.401
24371W        W90912  43.227  37.132  11.122
24372W        W90913  15.796  10.003  12.414
24373W        W90914  28.903  25.749   3.309
24374W        W90915  20.168  25.657   1.667
24375W        W90916   0.053  37.211  11.902
24376W        W90917   7.331  22.356  12.959
24377W        W90918  41.066   3.449  14.821
24378W        W90919   1.279   2.880  11.377
24379W        W90920  19.304  44.667  13.114
24380W        W90921  26.287  36.812   3.353
24381W        W90922  11.817  25.500  12.025
24382W        W90923   4.787  10.190  12.256
24383W        W90924  21.905  17.358  11.626
24384W        W90925  37.864  22.296   2.680
24385W        W90926   8.883  30.867   4.033
24386W        W90927  22.780  34.919   4.502
24387W        W90928  14.104  43.337   4.507
24388W        W90929  22.619  30.645  11.114
24389W        W90930  35.336  37.334   0.841
24390W        W90931  10.074  28.606   3.216
24391W        W90932  15.044  40.183  11.555
24392W        W90933  40.750   7.188  13.410
24393W        W90934  20.080  25.129  10.728
24394W        W90935  23.608  37.079  14.780
24395W        W90936  15.405  41.522  12.018
24396W        W90937  24.637  15.566   2.518
24397W        W90938  33.363  29.601  11.650
24398W        W90939  15.829  29.167  12.060
24399W        W90940  32.966  22.272  11.441
24400W        W90941  31.142  21.248   2.444
24401W        W90942   1.324  26.729   3.793
24402W        W90943   5.363  13.731   0.778
24403W        W90944   5.322  16.054  13.490
24404W        W90945   0.479  19.175   4.664
24405W        W90946  43.796  44.530  14.762
24406W        W90947  20.297  29.909   0.280
24407W        W90948  40.614   5.615   4.198
24408W        W90949   1.287  14.009   4.345
24409W        W90950  11.769  33.138   4.003
24410W        W90951  13.873  34.392   1.325
24411W        W90952   2.677   3.928  11.192
24412W        W90953   6.156  10.168   0.163
24413W        W90954  11.201  41.293  12.469
24414W        W90955  25.470  11.791   4.507
24415W        W90956   3.843  16.013   1.224
24416W        W90957  27.765   9.881   1.712
24417W        W90958  10.341  42.412  13.706
24418W        W90959  17.681  29.505  11.819
24419W        W90960   4.601  32.455  13.500
24420W        W90961  28.220  30.015  11.053
24421W        W90962   2.704   8.333  13.395
24422W        W90963  23.174  14.854  12.563
24423W        W90964   5.334  27.821   2.808
24424W        W90965  37.314  16.173   3.308
24425W        W90966  24.038  29.626  14.092
24426W        W90967  38.201  12.760   1.832
24427W        W90968  43.925  16.217   1.359
24428W        W90969   6.350   4.349   3.664
24429W        W90970  30.258  29.167  13.937
24430W        W90971  18.623  30.574   0.414
24431W        W90972  41.493  25.869   1.938
24432W        W90973  27.515  39.723   1.204
24433W        W90974  13.855  37.802   4.499
24434W        W90975   6.734  20.565   1.813
24435W        W90976  42.569   9.873  13.389
24436W        W90977  34.638   3.460   4.542
24437W        W90978  10.863   2.661  12.566
24438W        W90979  20.862  31.406   3.363
24439W        W90980  38.425  15.042   4.588
24440W        W90981  24.562  10.647   1.752
24441W        W90982   6.174   5.895  13.035
24442W        W90983  42.873  18.288  10.557
24443W        W90984  20.562  34.109  11.080
24444W        W90985  34.469  22.031  10.751
24445W        W90986  35.859   4.448   0.722
24446W        W90987   9.257  26.412   0.215
24447W        W90988   3.228  39.801   1.313
24448W        W90989  42.331  27.143  14.029
24449W        W90990  13.129  14.133   0.215
24450W        W90991   5.823   0.061   1.729
24451W        W90992  26.030  27.591   1.864
24452W        W90993  16.639  28.981  12.912
24453W        W90994  15.676  35.098   0.428
24454W        W90995  19.810  16.511   2.780
24455W        W90996  26.489  19.778  14.367
24456W        W90997  20.175  32.691  10.838
24457W        W90998  30.682  16.763  12.512
24458W        W90999   1.786   8.786   0.119
24459W        W91000  39.612  23.503  13.357
24460W        W91001  26.681  14.902  12.411
24461W        W91002  35.845  12.776   2.618
24462W        W91003  24.729  20.167   4.758
24463W        W91004  40.978  10.604   4.622
24464W        W91005  34.686  11.257  10.579
24465W        W91006   8.376  31.535  14.023
24466W        W91007  13.656  23.698   1.875
24467W        W91008  35.379  10.770   1.828
24468W        W91009   1.366  24.935  14.849
24469W        W91010  12.434  15.205  13.999
24470W        W91011  43.464  40.803  12.148
24471W        W91012  44.925  27.055  12.778
24472W        W91013  30.138  14.152   0.941
24473W        W91014   6.478  18.533  12.831
24474W        W91015  22.288  40.044  12.029
24475W        W91016  27.541  43.916   0.688
24476W        W91017  34.426  36.526   2.246
24477W        W91018   0.285  20.439   0.739
24478W        W91019  22.709   7.742   1.201
24479W        W91020  36.968  41.485  10.177
24480W        W91021  39.393   7.435   2.619
24481W        W91022  11.836  39.980  11.167
24482W        W91023  26.150   3.064   4.964
24483W        W91024   5.784  39.376   3.223
24484W        W91025  24.055  30.422   2.287
24485W        W91026  38.500  31.933  13.829
24486W        W91027  18.760   5.983  14.968
24487W        W91028  31.062  23.297   3.765
24488W        W91029  19.575   7.840  11.923
24489W        W91030  36.530   1.205   0.665
24490W        W91031  18.322  35.569   2.358
24491W        W91032   7.822  32.579  14.438
24492W        W91033  17.341  37.881   1.754
24493W        W91034  28.276  24.180   5.116
24494W        W91035  12.643  28.581   2.925
24495W        W91036  19.042  36.966  12.619
24496W        W91037  21.406  16.592   1.927
24497W        W91038   1.690   3.690  10.637
24498W        W91039   4.020  28.112   3.218
24499W        W91040  32.986  11.478  11.882
24500W        W91041   8.971   6.430  11.079
24501W        W91042  11.224  43.156   5.011
24502W        W91043  32.510   2.648  14.814
24503W        W91044  37.133  27.803   1.711
24504W        W91045  14.076   7.383  11.953
24505W        W91046   3.141  31.281  13.132
24506W        W91047  21.589   5.806  14.072
24507W        W91048   9.412  27.907  11.065
24508W        W91049  43.353  33.507   4.548
24509W        W91050   1.737  16.477   3.322
24510W        W91051  28.480  10.685  13.524
24511W        W91052  35.437  44.479   1.711
24512W        W91053   8.553  10.289   0.599
24513W        W91054  31.060  29.123   2.210
24514W        W91055  24.120  38.793   0.917
24515W        W91056  37.997   6.888  14.823
24516W        W91057  19.674  24.119  13.581
24517W        W91058  19.731  18.678   4.691
24518W        W91059  43.242  36.334   2.284
24519W        W91060  33.634  13.317  11.211
24520W        W91061  23.685   6.739  11.652
24521W        W91062   8.129  28.611   4.683
24522W        W91063  11.271  16.120   3.303
24523W        W91064  25.130   3.872   2.802
24524W        W91065   1.590  42.337   3.402
24525W        W91066   9.788  30.593  12.845
24526W        W91067  21.953   6.759   3.603
24527W        W91068  13.302  30.594   3.112
24528W        W91069  44.709  25.372  14.482
24529W        W91070   7.999  23.518  13.426
24530W        W91071  24.313   3.267   1.372
24531W        W91072   7.935  20.928   2.410
24532W        W91073  43.882  18.797   0.277
24533W        W91074  21.288  11.815   1.937
24534W        W91075  27.540  41.823  11.902
24535W        W91076  11.638   9.769   4.608
24536W        W91077   6.981  22.920  12.831
24537W        W91078   3.934  36.593   0.816
24538W        W91079  42.290   1.474   4.755
24539W        W91080  38.559  23.116  12.437
24540W        W91081  32.956  23.007  14.759
24541W        W91082   7.219  18.708  12.159
24542W        W91083  44.834  14.740   4.926
24543W        W91084  15.234   3.704   2.678
24544W        W91085   5.678  21.037  11.231
24545W        W91086   4.731   6.910  11.251
24546W        W91087  23.775   9.303  11.455
24547W        W91088  25.660  18.653  13.533
24548W        W91089  12.610  18.075   3.130
24549W        W91090  29.083  33.085   3.711
24550W        W91091  24.091   3.858  14.911
24551W        W91092  42.361   9.416  14.470
24552W        W91093   3.774   2.406   2.362
24553W        W91094  17.210  14.218  12.832
24554W        W91095  21.386  28.088  14.369
24555W        W91096  13.901  33.127  13.532
24556W        W91097  21.231  44.689   0.273
24557W        W91098  35.021  28.072  13.276
24558W        W91099  26.477   9.844  14.178
24559W        W91100  41.798  37.368   4.294
24560W        W91101  25.056  35.565   4.904
24561W        W91102   0.941  11.894  10.984
24562W        W91103   3.962  16.215   0.293
24563W        W91104  26.521  28.535   2.748
24564W        W91105  27.659  27.569  13.880
24565W        W91106  31.768  25.304  14.195
24566W        W91107   2.241  12.599   4.580
24567W        W91108  35.569  37.167   2.281
24568W        W91109   2.456   0.990   2.355
24569W        W91110  41.317  10.870  13.662
24570W        W91111  19.652  10.432  11.181
24571W        W91112  38.087  37.569   0.962
24572W        W91113  39.064   1.362  12.080
24573W        W91114   3.923  35.570  10.663
24574W        W91115  25.283  12.124  13.039
24575W        W91116  37.615  20.758   4.744
24576W        W91117  23.141  15.626   4.623
24577W        W91118  11.347   7.281  14.552
24578W        W91119  15.042  14.066  14.825
24579W        W91120  21.088  34.104  11.859
24580W        W91121  31.942  39.905   3.196
24581W        W91122  27.707  41.842  13.951
24582W        W91123  37.271   0.862  12.024
24583W        W91124   7.690  12.579   1.342
24584W        W91125  36.438  29.639   4.082
24585W        W91126  36.498  22.688  10.682
24586W        W91127  37.270  25.169  11.701
24587W        W91128  35.966  16.647   4.445
24588W        W91129  27.290  34.974   1.940
24589W        W91130  17.683  26.401  12.392
24590W        W91131   9.472  24.551   3.915
24591W        W91132   8.609  25.978  12.809
24592W        W91133  12.721  18.339  13.752
24593W        W91134  41.213  21.563   1.849
24594W        W91135  18.549   0.218  12.620
24595W        W91136  13.849  23.683   3.314
24596W        W91137  31.264  36.416   2.325
24597W        W91138  33.623  42.899   4.474
24598W        W91139   8.511   3.540  11.134
24599W        W91140  20.207  23.780   2.242
24600W        W91141  37.746  20.717   3.160
24601W        W91142   1.107  26.062   0.365
24602W        W91143  26.492   0.498   4.785
24603W        W91144  25.172  15.529   3.729
24604W        W91145  29.952  24.756   1.817
24605W        W91146  19.165   8.789  12.903
24606W        W91147  30.938  13.430  12.162
24607W        W91148  38.509  16.614   3.046
24608W        W91149  12.539   8.661   2.646
24609W        W91150   9.217  37.530  14.126
24610W        W91151  30.546   7.979   2.958
24611W        W91152  27.893  41.008  11.139
24612W        W91153  22.740  40.369  10.454
24613W        W91154   3.281  38.214   2.547
24614W        W91155  43.878   3.912  11.315
24615W        W91156  40.051  15.736  12.998
24616W        W91157  19.039  13.639   0.866
24617W        W91158  35.136  18.975   0.852
24618W        W91159  32.557  16.325  11.565
24619W        W91160  25.451   3.346   2.168
24620W        W91161  14.054  39.759  11.537
24621W        W91162  32.177  26.082  11.578
24622W        W91163  17.958  18.548   1.334
24623W        W91164   3.573  37.279  13.722
24624W        W91165  25.930   2.929   0.388
24625W        W91166  20.996  21.894   4.026
24626W        W91167   4.714  23.751   4.493
24627W        W91168  44.278  15.545   0.288
24628W        W91169   1.997   4.364  12.172
24629W        W91170  29.159  18.151   2.686
24630W        W91171  23.008  26.651  11.530
24631W        W91172   2.268  21.280   3.142
24632W        W91173  39.360  30.094  10.630
24633W        W91174  15.046  28.866   4.438
24634W        W91175   0.975  22.645  14.254
24635W        W91176  36.439  20.052  13.005
24636W        W91177  10.874  25.510   2.360
24637W        W91178  26.424  13.570   3.677
24638W        W91179  32.305  10.339  13.036
24639W        W91180   1.296  24.641  14.290
24640W        W91181  37.950  12.753  13.936
24641W        W91182  38.853  30.710   1.217
24642W        W91183   9.860  22.965  14.325
24643W        W91184  32.125  26.034   2.006
24644W        W91185  14.425  39.846  14.277
24645W        W91186  21.248  35.141  12.170
24646W        W91187  39.510  11.663   2.710
24647W        W91188  43.913   0.455   2.719
24648W        W91189  14.573  28.490   2.702
24649W        W91190  34.519  12.864  14.957
24650W        W91191  37.524   2.933  13.372
24651W        W91192  40.405  44.529   4.688
24652W        W91193   8.209  14.319  11.446
24653W        W91194  39.057  22.211   4.672
24654W        W91195  23.225  23.729   2.202
24655W        W91196  16.507  20.048  14.284
24656W        W91197  19.662  21.421   5.170
24657W        W91198  40.543  17.838  12.779
24658W        W91199  27.108  22.103   1.835
24659W        W91200  20.551   0.963   0.397
24660W        W91201   9.766  23.786   0.490
24661W        W91202  27.162  28.448   1.737
24662W        W91203   7.467  43.029   0.870
24663W        W91204   0.037  23.944  14.577
24664W        W91205  40.228  38.915  14.473
24665W        W91206  25.755  28.764   9.888
24666W        W91207  34.367  10.691  11.952
24667W        W91208   0.925  17.152  10.821
24668W        W91209  29.848  44.873  11.333
24669W        W91210  41.258  36.425  14.267
24670W        W91211  34.306  23.974   0.367
24671W        W91212  11.896  30.264   1.462
24672W        W91213  31.181   4.259  12.419
24673W        W91214  44.331  24.655   2.150
24674W        W91215   8.781  40.860   2.925
24675W        W91216  42.018  17.689   2.286
24676W        W91217   2.384   4.740  12.136
24677W        W91218  22.624  27.366   2.728
24678W        W91219  23.182  11.853   1.946
24679W        W91220  32.701  30.705  12.526
24680W        W91221  16.316  20.936  11.022
24681W        W91222  11.789  37.499   1.844
24682W        W91223  33.460  19.581   0.646
24683W        W91224  25.068   5.100  14.476
24684W        W91225  36.889   7.708  12.484
24685W        W91226  30.496  14.388   3.196
24686W        W91227  36.422  34.276   4.827
24687W        W91228  26.037  35.053  13.011
24688W        W91229  27.872   7.424   3.637
24689W        W91230  40.640   4.811   3.949
24690W        W91231  41.900   0.663   2.226
24691W        W91232  38.500   7.876   4.604
24692W        W91233  30.386  18.267  13.044
24693W        W91234  37.372   6.460  14.282
24694W        W91235   8.194  28.163   4.916
24695W        W91236  19.301  14.310  13.752
24696W        W91237   1.786  43.389  12.874
24697W        W91238  33.725   4.833   3.298
24698W        W91239  38.943  16.707   3.315
24699W        W91240  31.053  18.482  10.709
24700W        W91241  19.971  30.446   2.969
24701W        W91242  18.051  18.104   2.284
24702W        W91243   3.628   0.775   5.115
24703W        W91244  23.248  23.249   3.798
24704W        W91245   0.339  11.773   3.649
24705W        W91246  14.401  12.743  10.640
24706W        W91247  26.181  43.751  14.813
24707W        W91248  22.669   0.194   2.184
24708W        W91249  38.262  12.936   4.072
24709W        W91250  17.012  39.038   3.596
24710W        W91251  40.386  31.242  13.823
24711W        W91252  13.983  38.987  14.276
24712W        W91253  43.767  41.500  12.622
24713W        W91254   4.821  14.841  11.666
24714W        W91255   8.411  33.211  13.867
24715W        W91256  20.696  35.351   0.464
24716W        W91257  16.631  13.111   4.440
24717W        W91258  12.702   0.744   3.592
24718W        W91259  36.605  34.840  13.452
24719W        W91260   8.559   1.988  10.841
24720W        W91261  19.798  29.982  12.267
24721W        W91262   1.721  42.248   2.440
24722W        W91263  31.982   5.400  14.748
24723W        W91264   0.833  35.495   4.553
24724W        W91265   7.306  33.235   4.614
24725W        W91266  18.910  24.812  14.444
24726W        W91267   9.594   9.900  10.817
24727W        W91268  41.991   1.873  10.814
24728W        W91269  10.927   4.590  12.958
24729W        W91270   7.739  40.002   3.159
24730W        W91271  42.699  14.133   5.442
24731W        W91272  17.306  39.961  11.151
24732W        W91273  22.327   0.271   1.783
24733W        W91274  36.339  22.624   4.970
24734W        W91275  17.182  11.181   2.433
24735W        W91276  42.065  26.955  14.434
24736W        W91277  40.708  21.663   1.798
24737W        W91278  14.195  16.585   2.731
24738W        W91279  18.706  16.274   1.543
24739W        W91280   1.891  17.334   2.749
24740W        W91281   4.229  20.742   4.402
24741W        W91282  13.774  19.596  12.541
24742W        W91283  19.378  15.139  10.215
24743W        W91284   6.000  18.145   1.720
24744W        W91285  20.037  27.128  12.529
24745W        W91286  24.051  21.146  11.802
24746W        W91287  31.365  26.098   3.406
24747W        W91288  23.557  21.200   1.176
24748W        W91289  31.849  31.426  10.481
24749W        W91290  23.870  19.550  13.213
24750W        W91291   7.028   2.765   3.332
24751W        W91292   8.881   1.475   2.857
24752W        W91293   5.776  20.227  11.672
24753W        W91294  37.715  33.252   4.828
24754W        W91295  13.868  33.412  12.298
24755W        W91296  16.676  12.175   4.385
24756W        W91297   9.289  28.882   3.826
24757W        W91298  43.951   5.697  14.836
24758W        W91299  26.136  43.091   2.193
24759W        W91300   2.693  15.857   3.808
24760W        W91301   7.933   7.749  11.625
24761W        W91302  39.940  16.819  12.133
24762W        W91303  38.320  37.422  11.164
24763W        W91304  40.355  30.569   3.542
24764W        W91305   7.410  40.917  12.568
24765W        W91306  22.739  33.794   1.538
24766W        W91307  12.222  15.366  12.015
24767W        W91308  23.870   3.823   0.372
24768W        W91309  39.573  14.061   2.162
24769W        W91310   3.405   0.421  10.257
24770W        W91311   7.437  34.050  12.716
24771W        W91312   1.858  27.715  13.457
24772W        W91313   6.822  42.664   2.360
24773W        W91314   9.746  36.138  11.583
24774W        W91315  37.975  30.477  13.150
24775W        W91316  16.085  39.916  11.589
24776W        W91317  26.577  23.234  12.099
24777W        W91318  39.981  40.846  10.766
24778W        W91319  39.640  35.044  11.070
24779W        W91320  41.446  17.402   1.343
24780W        W91321  43.508  35.097   4.614
24781W        W91322  18.989  14.726   0.582
24782W        W91323   3.897  26.817   1.585
24783W        W91324  28.092  14.880   0.227
24784W        W91325  36.492  40.802  14.523
24785W        W91326  13.628  10.408   3.773
24786W        W91327  19.862   7.445  13.862
24787W        W91328  10.309  27.113   3.947
24788W        W91329  30.429  42.057   1.217
24789W        W91330  41.268  24.249  13.389
24790W        W91331  27.292  25.623  13.424
24791W        W91332  41.897  43.649   3.128
24792W        W91333  34.552   5.822  10.676
24793W        W91334  43.358  30.079   1.790
24794W        W91335  18.488  41.718   0.031
24795W        W91336  35.974   9.318  13.925
24796W        W91337  37.700  44.925  12.040
24797W        W91338   1.875  25.686  12.473
24798W        W91339  20.578  18.518  10.447
24799W        W91340  44.256  22.509  11.572
24800W        W91341  15.297   5.485   0.767
24801W        W91342  36.484   0.221   2.227
24802W        W91343  14.780  39.273   4.651
24803W        W91344  11.196  10.552   3.148
24804W        W91345  11.638  34.081   0.866
24805W        W91346   2.394  22.464  13.834
24806W        W91347  41.422  40.061  12.713
24807W        W91348  10.687  36.633  12.422
24808W        W91349  10.794  34.738   1.022
24809W        W91350  40.504  21.247  14.024
24810W        W91351  10.347  17.095  10.761
24811W        W91352  19.908  43.444   1.864
24812W        W91353  16.620  25.722  11.593
24813W        W91354  21.574  24.102   4.148
24814W        W91355  32.349  41.921   4.066
24815W        W91356  11.379  15.253  10.443
24816W        W91357  39.695  32.359   0.213
24817W        W91358  20.587  39.009  11.515
24818W        W91359  17.160  29.497   4.573
24819W        W91360  39.094  39.062   4.938
24820W        W91361  15.036  23.852  10.973
24821W        W91362   3.962  17.429  10.056
24822W        W91363  23.425  19.162  11.671
24823W        W91364  35.174  17.624  11.864
24824W        W91365  33.068   9.612  10.862
24825W        W91366  36.898   0.426  13.592
24826W        W91367  35.970  10.006   5.303
24827W        W91368  14.387  21.763   2.185
24828W        W91369  13.150  25.616   0.337
24829W        W91370  39.405  42.335   0.835
24830W        W91371   3.506  28.466  10.712
24831W        W91372   4.617  24.226   1.226
24832W        W91373   4.404   7.668   0.288
24833W        W91374  31.665  19.283   0.840
24834W        W91375   1.561  41.038  12.517
24835W        W91376  42.800  34.590  11.658
24836W        W91377  38.075  32.553  10.674
24837W        W91378   8.283  40.340   4.207
24838W        W91379  34.808  21.130  10.644
24839W        W91380  12.550  37.052  13.058
24840W        W91381  43.654  19.552  10.710
24841W        W91382  18.324  39.752  12.859
24842W        W91383  13.379   2.300   0.331
24843W        W91384   6.173  31.518   1.681
24844W        W91385  22.702   9.436  14.033
24845W        W91386  38.276  38.479   2.958
24846W        W91387   5.797  12.295   2.904
24847W        W91388  29.773  25.251   3.211
24848W        W91389  25.963  31.883  13.810
24849W        W91390  16.167  42.811  11.147
24850W        W91391   8.208  27.994  14.963
24851W        W91392   3.936   2.000  12.145
24852W        W91393  40.473   3.823   3.770
24853W        W91394  29.256  15.410  13.521
24854W        W91395  17.651  18.310  11.330
24855W        W91396  13.139  29.596  13.387
24856W        W91397  24.484  22.137   1.055
24857W        W91398  10.878   3.485  13.127
24858W        W91399  16.529  11.029  11.375
24859W        W91400  40.782  26.606  14.754
24860W        W91401  11.215  13.727  14.792
24861W        W91402  29.466  30.568  11.192
24862W        W91403  15.733  24.657  13.109
24863W        W91404   9.757   8.620   2.673
24864W        W91405  35.589  35.900  12.808
24865W        W91406  43.523  31.899   0.768
24866W        W91407   8.253  35.234  12.349
24867W        W91408  12.463  30.354   2.700
24868W        W91409  21.113  39.984  14.935
24869W        W91410  25.259  13.838   1.790
24870W        W91411  19.053  25.428  12.875
24871W        W91412   7.819  27.039  13.836
24872W        W91413  18.219   4.727  10.285
24873W        W91414  10.891  20.964  12.944
24874W        W91415   9.643  38.036   4.024
24875W        W91416  43.779  26.589  11.396
24876W        W91417  38.605   5.991  12.879
24877W        W91418  18.546  22.204   0.465
24878W        W91419   3.931  40.521   0.775
24879W        W91420  32.877  28.251  14.776
24880W        W91421  20.154  37.772   2.846
24881W        W91422  22.020  12.670  12.636
24882W        W91423  27.475  42.668   2.270
24883W        W91424  11.385  19.072   0.787
24884W        W91425  28.956  17.242  14.469
24885W        W91426  22.276  30.209   1.896
24886W        W91427  14.881  12.874  14.193
24887W        W91428  19.192  37.944   4.375
24888W        W91429   0.518  23.650  12.175
24889W        W91430  10.560  19.142   1.359
24890W        W91431  44.855  26.322  11.629
24891W        W91432  41.310   0.781  12.591
24892W        W91433  10.159  31.007   4.701
24893W        W91434  24.441  38.599   3.796
24894W        W91435  30.180  42.583  14.895
24895W        W91436  17.122  10.704  12.680
24896W        W91437  28.839  25.433   4.061
24897W        W91438  15.692  21.463  12.569
24898W        W91439  16.234  39.125  13.098
24899W        W91440  14.112  24.231   2.200
24900W        W91441  16.744  20.182  11.429
24901W        W91442  18.001  31.547   0.507
24902W        W91443  44.007  20.655  11.542
24903W        W91444  20.775  37.298   3.897
24904W        W91445  36.375  20.402  11.087
24905W        W91446  33.034  34.149  12.943
24906W        W91447  31.898  27.221   3.024
24907W        W91448  28.917  23.862  13.126
24908W        W91449  35.699   4.401   2.185
24909W        W91450  40.417   7.489   3.058
24910W        W91451  32.590  40.140   4.227
24911W        W91452  23.053  30.593  14.499
24912W        W91453   4.875  26.508  12.101
24913W        W91454  16.603  42.667  13.801
24914W        W91455  10.110   7.461  12.115
24915W        W91456   4.353  27.426   1.948
24916W        W91457  30.965  31.923   4.207
24917W        W91458  44.963   9.231  14.111
24918W        W91459  19.078   1.351   3.823
24919W        W91460  26.527   9.062  10.327
24920W        W91461  12.849   9.098   5.061
24921W        W91462  16.673   0.986  14.240
24922W        W91463   3.332  37.012  10.641
24923W        W91464  12.404  22.749  11.228
24924W        W91465  38.728  43.844  14.935
24925W        W91466  28.922  25.647  14.954
24926W        W91467   9.161  40.459   2.306
24927W        W91468  26.333  14.316   1.256
24928W        W91469   0.704   7.640   3.140
24929W        W91470   0.265  39.554   2.684
24930W        W91471   1.794  21.927   1.834
24931W        W91472  29.087  15.708  10.502
24932W        W91473   0.173  40.914   4.034
24933W        W91474  43.296  40.358  10.511
24934W        W91475  37.023  22.238   3.892
24935W        W91476  44.046  21.644  14.840
24936W        W91477  37.791  34.075   3.891
24937W        W91478  42.281  33.323  14.696
24938W        W91479  32.827  11.610  13.605
24939W        W91480  37.461  26.583  12.614
24940W        W91481  12.193  32.535  14.076
24941W        W91482   8.206  41.830   4.537
24942W        W91483  13.569  32.085   2.240
24943W        W91484  23.186  29.691  12.428
24944W        W91485  41.984  32.995  14.984
24945W        W91486  29.981  39.494   3.632
24946W        W91487   2.661  20.008   1.366
24947W        W91488  42.009  35.483   1.038
24948W        W91489  14.279  28.105  13.487
24949W        W91490  41.477   4.293   5.009
24950W        W91491   2.907  33.850   5.654
24951W        W91492  31.557  42.332   0.646
24952W        W91493  30.964   4.112   2.900
24953W        W91494   3.185  29.372  14.333
24954W        W91495  32.712  14.141  12.974
24955W        W91496  13.222   6.775   4.294
24956W        W91497  24.891  10.595  14.860
24957W        W91498  35.398  21.734  10.457
24958W        W91499  34.976   2.310   0.772
24959W        W91500  43.351  12.426   0.229
24960W        W91501   9.594   7.295   4.009
24961W        W91502  37.689  13.166  13.457
24962W        W91503  44.812  40.851   0.767
24963W        W91504  42.403  33.587   1.141
24964W        W91505  14.118   4.020   4.571
24965W        W91506  38.043   9.616  12.683
24966W        W91507  30.636  26.108  12.817
24967W        W91508  33.449  34.986   1.838
24968W        W91509  30.667  19.933  11.060
24969W        W91510  22.164  26.157   2.376
24970W        W91511  19.972   4.734   2.161
24971W        W91512   8.888   1.289  13.066
24972W        W91513   3.003  41.519   0.998
24973W        W91514  38.309  13.702   0.754
24974W        W91515  19.176  17.927   5.110
24975W        W91516  41.478   3.330   3.629
24976W        W91517  31.067  32.815  11.557
24977W        W91518   4.090  26.670  13.472
24978W        W91519  19.755  13.793  11.744
24979W        W91520  17.149  27.850   1.811
24980W        W91521  37.132  20.507  11.613
24981W        W91522  38.149   8.132  12.534
24982W        W91523  42.694  34.624   4.863
24983W        W91524  17.663  27.721   3.799
24984W        W91525  11.464  12.836  12.534
24985W        W91526   6.154  41.949   1.372
24986W        W91527  34.418  13.276   1.641
24987W        W91528  36.037  25.542  12.663
24988W        W91529  42.410  14.390   2.430
24989W        W91530  10.878  31.566   1.884
24990W        W91531   9.634   6.476   0.921
24991W        W91532  31.971  34.990  12.405
24992W        W91533  35.137  25.674   0.600
24993W        W91534  15.673   3.831  13.145
24994W        W91535  16.719   6.262  11.257
24995W        W91536  11.708  26.214  14.349
24996W        W91537  19.709  20.028  13.958
24997W        W91538  21.805  39.026   0.825
24998W        W91539  20.805  17.854  14.468
24999W        W91540  31.507  28.479   4.407
25000W        W91541  23.570   1.209  14.925
25001W        W91542   6.265  25.991  12.452
25002W        W91543  36.587   3.361   1.660
25003W        W91544  17.356   9.187  12.098
25004W        W91545  25.416   5.704   3.575
25005W        W91546  35.616  16.955   4.216
25006W        W91547  12.612  42.457   0.911
25007W        W91548  32.543  42.195  14.877
25008W        W91549  12.883  12.683  13.424
25009W        W91550  33.139  44.255  13.426
25010W        W91551  43.760  37.069  14.864
25011W        W91552  26.209  41.920  13.846
25012W        W91553   1.335  10.412   2.478
25013W        W91554  29.552  22.608   0.242
25014W        W91555  28.764  40.308   0.249
25015W        W91556  25.492  16.061  14.847
25016W        W91557   1.013  22.662   3.704
25017W        W91558  29.457  39.853   4.374
25018W        W91559   3.252  30.319   0.314
25019W        W91560  15.332  40.917   1.538
25020W        W91561  39.031   5.657  14.415
25021W        W91562  39.497  33.898  10.787
25022W        W91563  38.475  30.571  11.007
25023W        W91564  30.048   9.023  11.712
25024W        W91565  34.182  43.920  11.536
25025W        W91566  16.685  26.644   4.898
25026W        W91567  29.889  11.735   2.252
25027W        W91568  21.167  19.482  10.356
25028W        W91569  24.703  19.801   2.601
25029W        W91570  25.411  16.253  13.957
25030W        W91571   6.750   8.198   3.367
25031W        W91572  20.032  28.078  13.329
25032W        W91573  40.142  36.508   0.420
25033W        W91574  35.903  22.990  10.704
25034W        W91575  29.003   9.698   0.750
25035W        W91576  24.164  25.006  14.741
25036W        W91577   9.440  31.910  12.517
25037W        W91578  26.351   4.676  13.354
25038W        W91579  30.934  16.697   2.116
25039W        W91580   6.509  32.167   2.544
25040W        W91581  17.352  17.311   4.617
25041W        W91582  37.989  22.991   4.168
25042W        W91583  14.206  17.052   3.654
25043W        W91584  14.573  21.995   4.589
25044W        W91585  13.786  12.173  13.487
25045W        W91586   7.917  23.450   4.030
25046W        W91587  21.931  38.972  10.281
25047W        W91588  10.064  38.341  11.628
25048W        W91589  36.479  30.948  14.235
25049W        W91590  37.420   4.376  14.804
25050W        W91591  39.932  38.550   2.220
25051W        W91592  18.809  32.163  12.134
25052W        W91593  41.372  19.174  10.907
25053W        W91594  21.604  13.260  12.101
25054W        W91595  10.270  38.417  13.348
25055W        W91596   3.312  44.035  12.649
25056W        W91597  14.686  35.005   0.162
25057W        W91598  35.838  12.541   0.186
25058W        W91599   7.926   0.241   1.127
25059W        W91600  39.514  38.873   2.340
25060W        W91601  21.117   1.598  13.455
25061W        W91602  38.040  29.869  13.985
25062W        W91603  12.854   8.390  12.005
25063W        W91604  25.778  15.488  11.538
25064W        W91605   6.302  40.017   3.987
25065W        W91606   8.294  34.237  14.799
25066W        W91607  33.011   8.708  14.799
25067W        W91608  32.565  21.235   2.257
25068W        W91609   2.332  14.380  14.262
25069W        W91610  38.492   9.606  12.411
25070W        W91611  32.077   0.861  10.659
25071W        W91612  23.959  15.178  11.928
25072W        W91613  26.044  44.981   3.140
25073W        W91614  28.627   2.342  11.271
25074W        W91615  36.660   9.673  12.436
25075W        W91616   9.910  43.505  14.380
25076W        W91617  33.071   5.698  14.479
25077W        W91618   0.465  23.009   4.333
25078W        W91619  24.097  11.746  10.841
25079W        W91620  21.557  36.437  13.036
25080W        W91621  44.109   1.370  14.555
25081W        W91622  20.462  19.433   1.402
25082W        W91623  32.624  34.891  13.916
25083W        W91624  18.768   2.253  13.365
25084W        W91625   3.818  43.964   3.727
25085W        W91626  15.127  44.337  12.128
25086W        W91627  17.994   5.271  13.609
25087W        W91628  16.912   7.629  11.238
25088W        W91629  26.642   5.310  12.871
25089W        W91630   5.288  24.552   1.239
25090W        W91631  37.913   3.509   1.738
25091W        W91632  43.991  26.135  14.358
25092W        W91633  23.749   9.824   3.127
25093W        W91634   6.745   0.614   3.211
25094W        W91635  24.759  42.395   0.341
25095W        W91636   9.154  33.228   1.934
25096W        W91637  42.064  41.040  14.199
25097W        W91638  29.129   6.980   4.264
25098W        W91639   8.704  31.622   0.404
25099W        W91640   4.026  16.707   1.373
25100W        W91641   7.325  23.619   2.812
25101W        W91642  24.948  27.710  12.539
25102W        W91643  21.064  27.111   1.760
25103W        W91644  17.550   7.724  13.075
25104W        W91645   5.520  43.222  13.038
25105W        W91646  24.252  17.638   2.599
25106W        W91647  19.839  41.544  14.099
25107W        W91648  26.240   5.049  14.475
25108W        W91649  11.150  29.551   3.604
25109W        W91650  27.094  38.093   0.496
25110W        W91651   9.194  28.479   1.924
25111W        W91652  39.358   3.243  13.886
25112W        W91653   4.646   0.302  11.194
25113W        W91654  24.035  32.642  10.577
25114W        W91655  44.497  38.934  12.153
25115W        W91656  20.505  10.720   3.826
25116W        W91657  31.663   1.494   2.115
25117W        W91658  14.612   5.992   1.834
25118W        W91659  11.391  43.534   3.519
25119W        W91660   9.723   7.366  10.664
25120W        W91661  27.695  20.584   0.489
25121W        W91662  36.452  24.404   1.776
25122W        W91663  33.412  40.803  14.646
25123W        W91664  15.323   7.818  13.903
25124W        W91665   5.271  27.667   9.911
25125W        W91666  31.117  34.102  10.636
25126W        W91667  35.748  20.863   0.739
25127W        W91668  23.789   8.412  14.923
25128W        W91669  12.683  40.455  11.390
25129W        W91670  44.858  22.477  10.362
25130W        W91671  41.240  33.995   4.068
25131W        W91672  41.299   8.973   4.786
25132W        W91673  18.083  30.552   2.207
25133W        W91674  20.392   6.849   4.607
25134W        W91675  33.423  29.583  13.496
25135W        W91676  17.174  34.575   4.745
25136W        W91677  29.203  14.349  13.919
25137W        W91678  37.255   6.655   0.881
25138W        W91679  18.136   5.677  13.333
25139W        W91680  12.313   5.389  11.274
25140W        W91681  41.436   2.996   2.153
25141W        W91682   4.667   1.489  11.672
25142W        W91683  38.601  16.400  12.444
25143W        W91684  20.742  21.016   4.533
25144W        W91685  16.250  24.380  13.810
25145W        W91686  39.271  41.315   2.615
25146W        W91687   7.469  25.567  14.765
25147W        W91688  10.748  26.501  12.685
25148W        W91689  22.639  14.891  11.249
25149W        W91690  16.315  32.485   0.103
25150W        W91691  37.950  23.861   5.079
25151W        W91692  25.064  43.938  13.867
25152W        W91693  31.964  11.888   1.418
25153W        W91694  33.932  11.655   1.684
25154W        W91695  15.755  39.005   0.437
25155W        W91696  12.349  35.797  11.194
25156W        W91697  10.045  31.028  12.708
25157W        W91698  16.850  29.701  13.271
25158W        W91699  40.682  14.448   9.967
25159W        W91700  24.190  24.071  10.997
25160W        W91701  36.474  33.563  14.301
25161W        W91702  41.368   0.300   2.980
25162W        W91703  39.158  18.621  12.329
25163W        W91704   8.490  42.573   3.645
25164W        W91705  34.325  25.021   4.203
25165W        W91706  33.508  14.803   3.847
25166W        W91707  43.674  10.697  13.381
25167W        W91708   2.605  34.021   3.277
25168W        W91709   8.852  21.624   0.949
25169W        W91710   9.236   5.886  12.930
25170W        W91711   7.664  20.771  10.708
25171W        W91712  17.389   6.596   1.009
25172W        W91713   7.556   4.688   1.649
25173W        W91714  29.140  25.798   1.743
25174W        W91715  38.072  17.307  11.150
25175W        W91716  13.866  39.767   4.107
25176W        W91717  29.128  11.645   4.082
25177W        W91718   5.958  28.212  14.958
25178W        W91719  16.250  12.788   2.859
25179W        W91720  43.143  42.994  14.593
25180W        W91721   2.981  43.322  12.367
25181W        W91722  10.403  34.976   1.786
25182W        W91723  36.706  22.113  12.173
25183W        W91724  36.609  28.336   4.915
25184W        W91725   3.176   7.250  11.112
25185W        W91726  14.069   9.431   4.141
25186W        W91727  15.488  21.192   3.151
25187W        W91728  22.083  41.279  11.903
25188W        W91729  27.037   9.137  11.560
25189W        W91730  19.365  38.948   1.766
25190W        W91731  24.798  12.517   2.720
25191W        W91732   9.946  30.547   4.848
25192W        W91733   3.163   7.277  11.980
25193W        W91734   9.632   9.657   3.212
25194W        W91735  28.709  18.290  13.819
25195W        W91736  29.579  40.044  13.051
25196W        W91737  36.537  15.296   4.513
25197W        W91738  12.945  10.649  11.184
25198W        W91739   2.232  22.784   3.207
25199W        W91740  41.045   6.016   2.526
25200W        W91741  39.363  44.498  13.957
25201W        W91742  40.119  10.212   3.315
25202W        W91743  20.834  44.513   4.893
25203W        W91744  34.671  24.969  13.310
25204W        W91745   0.705   2.398  10.648
25205W        W91746  22.305  11.164   2.592
25206W        W91747  30.632  16.064   1.391
25207W        W91748  25.759  26.157  12.013
25208W        W91749  43.964  24.897   0.008
25209W        W91750   6.844  25.666  11.351
25210W        W91751  40.523  27.121  10.778
25211W        W91752  28.671   3.794  12.592
25212W        W91753  21.607   2.941  13.495
25213W        W91754  19.282  43.655   0.387
25214W        W91755  30.582   0.992  11.374
25215W        W91756   9.187  32.503  11.646
25216W        W91757  37.070  34.315   1.706
25217W        W91758  34.810   2.730  10.829
25218W        W91759  38.126  26.514   0.851
25219W        W91760  22.097  33.309  11.867
25220W        W91761  38.829  39.496  12.353
25221W        W91762  22.011  22.452   1.385
25222W        W91763  19.936  12.317   1.321
25223W        W91764  27.083   3.983   3.875
25224W        W91765  21.544  33.869   0.701
25225W        W91766  32.649  44.155   2.794
25226W        W91767  14.843   6.064  12.997
25227W        W91768  39.213  12.472   2.321
25228W        W91769  18.523  41.453  12.786
25229W        W91770  16.276  15.024   2.173
25230W        W91771  38.894  44.271  14.102
25231W        W91772   6.577   3.882   3.749
25232W        W91773  30.181   3.211  10.593
25233W        W91774  40.332  32.509   3.955
25234W        W91775  17.251  22.694   2.722
25235W        W91776  27.703  37.356  13.800
25236W        W91777  33.933  31.930  12.286
25237W        W91778  11.591  43.559   1.625
25238W        W91779  14.395  18.198   2.714
25239W        W91780  36.085  43.212   2.733
25240W        W91781  17.018   6.917  11.755
25241W        W91782  22.029  11.793  14.419
25242W        W91783   8.225  37.972   0.838
25243W        W91784   0.816  30.523   2.594
25244W        W91785  24.182  36.058   3.159
25245W        W91786  13.586  12.534  13.914
25246W        W91787  27.680  40.008  11.136
25247W        W91788  10.237  17.348  12.738
25248W        W91789  40.150  32.893   4.478
25249W        W91790  31.755  39.073  13.946
25250W        W91791  40.023   8.600  11.046
25251W        W91792  14.156   6.178  11.521
25252W        W91793  20.115  27.726   4.513
25253W        W91794  38.946  10.126   4.423
25254W        W91795  16.813   7.433  10.560
25255W        W91796  40.411  15.118  14.686
25256W        W91797  21.206  14.037  14.910
25257W        W91798  38.525   9.978  13.398
25258W        W91799  22.029  24.179  14.984
25259W        W91800   6.318   2.020   5.225
25260W        W91801  40.810  41.478  11.078
25261W        W91802  38.525   7.253   2.320
25262W        W91803  29.950  41.043   3.298
25263W        W91804  16.134  36.031   4.254
25264W        W91805  42.464  22.127   3.604
25265W        W91806  10.601   6.417   2.452
25266W        W91807  27.505  32.670  12.491
25267W        W91808  26.938  17.797   0.377
25268W        W91809  39.068  18.063   2.665
25269W        W91810   0.252  20.443   0.116
25270W        W91811   5.093  31.801   1.687
25271W        W91812  24.513  37.727  10.754
25272W        W91813   4.511   3.840   3.125
25273W        W91814   1.395  34.624  12.788
25274W        W91815  25.262  26.579   2.812
25275W        W91816   8.899  39.035  11.542
25276W        W91817  31.049  22.998  11.611
25277W        W91818   3.806  27.265  14.313
25278W        W91819  32.737   5.013   4.069
25279W        W91820  31.935  26.984  13.068
25280W        W91821  32.623  37.334  14.965
25281W        W91822  12.536  13.742  14.140
25282W        W91823  13.129  26.637  11.302
25283W        W91824  39.088  12.741   0.310
25284W        W91825  11.911  35.335  12.948
25285W        W91826  33.748  29.883   3.768
25286W        W91827  29.567  25.461  14.309
25287W        W91828  24.449   7.712  14.463
25288W        W91829  10.233  17.783   3.180
25289W        W91830  21.663  28.407   3.662
25290W        W91831  13.331  31.608  13.875
25291W        W91832  21.644   4.103  10.256
25292W        W91833   8.365   5.530  12.498
25293W        W91834  33.691  15.927  10.917
25294W        W91835  20.843  36.568   4.985
25295W        W91836  11.174  17.462   0.719
25296W        W91837  21.046  19.637  14.959
25297W        W91838  13.060  21.516  13.443
25298W        W91839  14.372  27.976   4.003
25299W        W91840  16.778  40.248   0.878
25300W        W91841  30.700  36.422   0.240
25301W        W91842   7.915  17.519  14.998
25302W        W91843  26.603  43.087  12.057
25303W        W91844  41.156  28.207  12.430
25304W        W91845  35.567   5.233  11.631
25305W        W91846  25.562  32.079   2.967
25306W        W91847  16.706  26.134   3.347
25307W        W91848  31.014  34.317   1.069
25308W        W91849   2.345  36.033   3.213
25309W        W91850  37.494   7.816   3.376
25310W        W91851   4.006  12.876   2.475
25311W        W91852  44.073  32.981   5.065
25312W        W91853  22.973  22.029   2.962
25313W        W91854  19.425  20.003  11.172
25314W        W91855  30.139  38.617  10.710
25315W        W91856   7.696  18.034   0.963
25316W        W91857  16.677  37.178   2.705
25317W        W91858  25.884  11.959   2.998
25318W        W91859  35.872  18.739  11.523
25319W        W91860  28.574  26.026  14.954
25320W        W91861  26.311   4.343   3.388
25321W        W91862  29.235  30.704  10.760
25322W        W91863  39.033   0.216   4.220
25323W        W91864   2.547  27.824   1.758
25324W        W91865  19.226   0.881  13.837
25325W        W91866  38.144  31.833  10.183
25326W        W91867  16.138  11.347   0.051
25327W        W91868   3.545  21.408   2.179
25328W        W91869  29.755  41.744  14.945
25329W        W91870  31.569   4.303  10.584
25330W        W91871  11.105  19.240   1.865
25331W        W91872  35.532   6.633  11.606
25332W        W91873   3.005  13.882   1.327
25333W        W91874   2.465  15.771   1.301
25334W        W91875  43.197  16.011  12.882
25335W        W91876  24.110  39.542  11.327
25336W        W91877  14.853  27.935  14.200
25337W        W91878  13.069  30.010   0.903
25338W        W91879  18.051  33.040   4.975
25339W        W91880  13.649  42.037   2.628
25340W        W91881  26.160  25.495  13.122
25341W        W91882  35.572  10.604   2.307
25342W        W91883  13.757  33.694   0.397
25343W        W91884   2.262  44.480   1.173
25344W        W91885  32.326  36.771   4.218
25345W        W91886  34.633  13.312  10.713
25346W        W91887  36.140  36.744  12.955
25347W        W91888   2.363  24.743  12.965
25348W        W91889  25.010  32.500  14.836
25349W        W91890  38.083  34.818   2.795
25350W        W91891   4.919   4.319  14.334
25351W        W91892  12.184  10.178   2.668
25352W        W91893  33.310  37.485  12.479
25353W        W91894  41.380  41.035   2.315
25354W        W91895  26.155  29.460  13.357
25355W        W91896  16.067  25.112  12.623
25356W        W91897  19.414  34.785   1.572
25357W        W91898  24.741   0.788  10.608
25358W        W91899  35.012  26.666   4.167
25359W        W91900  38.463  19.827   1.497
25360W        W91901  33.442  32.479   0.894
25361W        W91902   4.307  32.173   2.224
25362W        W91903  18.564  12.308  10.083
25363W        W91904  41.080  17.630  10.548
25364W        W91905  34.376  28.373  12.311
25365W        W91906   1.264  43.579  13.992
25366W        W91907   5.243   3.373  11.355
25367W        W91908  28.958  34.263   4.554
25368W        W91909  24.700  32.243  12.389
25369W        W91910  42.503   5.843   4.289
25370W        W91911  10.434   8.424  12.130
25371W        W91912  37.502   7.589   1.166
25372W        W91913   3.598  32.301  11.558
25373W        W91914  13.731  22.570   2.335
25374W        W91915   5.781  33.313   2.888
25375W        W91916  38.087   4.664   4.222
25376W        W91917  13.865  41.621  11.052
25377W        W91918  38.379  43.265   0.693
25378W        W91919  31.477  31.947   4.492
25379W        W91920  41.862  41.529   4.841
25380W        W91921  36.454  31.027   3.557
25381W        W91922   7.861  16.096   2.412
25382W        W91923  23.699  43.275   0.372
25383W        W91924  32.668  34.923   3.414
25384W        W91925  21.681  40.553   4.488
25385W        W91926  20.162  36.855  12.002
25386W        W91927  30.255  16.492  12.534
25387W        W91928   9.097  40.004   3.603
25388W        W91929  24.610  19.196   4.460
25389W        W91930  28.852  37.163   1.676
25390W        W91931   3.694  31.937  12.129
25391W        W91932  29.393   0.186   0.128
25392W        W91933  20.914   0.572  11.887
25393W        W91934  41.227  42.203  14.015
25394W        W91935  30.678  26.206  14.028
25395W        W91936   2.265  31.634   3.588
25396W        W91937  19.666  29.867  13.996
25397W        W91938  40.259  13.699  10.816
25398W        W91939  19.249  13.888   5.171
25399W        W91940  35.425  38.704   1.222
25400W        W91941  31.812   6.617  14.950
25401W        W91942  13.380   7.179  10.931
25402W        W91943   3.850  16.706   4.533
25403W        W91944  38.344  17.059   3.743
25404W        W91945   7.261   5.423  13.060
25405W        W91946   9.889  35.387   2.928
25406W        W91947   9.902  35.083   1.697
25407W        W91948   8.023  42.755   2.303
25408W        W91949  23.638   2.627  14.792
25409W        W91950  22.569  30.559   3.764
25410W        W91951  44.634  41.781   3.966
25411W        W91952  14.356   4.030  12.453
25412W        W91953   1.398  25.973  14.924
25413W        W91954  44.336  29.947   4.177
25414W        W91955  41.829  13.172   2.442
25415W        W91956  41.891  11.463  10.726
25416W        W91957   9.273   6.458  13.601
25417W        W91958  28.694  21.439  11.502
25418W        W91959   9.595   8.159   2.949
25419W        W91960  41.796  13.775  14.698
25420W        W91961  16.209  37.561   0.812
25421W        W91962  41.324  19.951  14.580
25422W        W91963  33.431  28.000  13.961
25423W        W91964  33.465  17.884  14.269
25424W        W91965  21.568   2.281   0.606
25425W        W91966  21.343   7.177  10.475
25426W        W91967   2.322  10.101  14.799
25427W        W91968  28.955   5.773   4.306
25428W        W91969  16.731  42.009  11.967
25429W        W91970  30.480  37.057  12.849
25430W        W91971   8.690  14.022   0.921
25431W        W91972  13.127  17.332   2.664
25432W        W91973  15.609  22.582   3.573
25433W        W91974  22.745  36.395  10.990
25434W        W91975   0.924  29.473   0.967
25435W        W91976   2.886  36.326  13.671
25436W        W91977  40.340  35.921   4.145
25437W        W91978  34.484  22.703  11.517
25438W        W91979  31.575  39.353   4.605
25439W        W91980   3.208  20.602   1.774
25440W        W91981   0.479  19.811   3.456
25441W        W91982  41.862  20.053  12.066
25442W        W91983  11.546  12.522   1.361
25443W        W91984  38.296  19.676  14.497
25444W        W91985  36.507  28.145  10.528
25445W        W91986  21.671  44.040  13.658
25446W        W91987  35.270  41.490  13.561
25447W        W91988  14.315   3.906   1.677
25448W        W91989  24.613  18.924  14.321
25449W        W91990  44.319  25.030  11.569
25450W        W91991  40.300  13.695   0.847
25451W        W91992  21.534  17.404  11.125
25452W        W91993  39.231  31.993   1.853
25453W        W91994   2.233  20.583  14.934
25454W        W91995  40.405  39.571  14.991
25455W        W91996  36.568  32.292   3.816
25456W        W91997  17.230  30.192  14.340
25457W        W91998  34.244  21.805  12.518
25458W        W91999  43.418  24.331  12.010
25459W        W92000   3.058  10.866   4.583
25460W        W92001  36.749  40.552   1.153
25461W        W92002  39.348  43.944  14.392
25462W        W92003   2.812  10.568  14.990
25463W        W92004   4.898  33.001   2.380
25464W        W92005  14.193  38.389   4.386
25465W        W92006  19.092   9.091   2.178
25466W        W92007  28.509  44.293   1.228
25467W        W92008  38.783  36.724  10.174
25468W        W92009  37.905   8.408  10.698
25469W        W92010  32.011   9.731  13.723
25470W        W92011  40.203  21.809  11.253
25471W        W92012  39.045  17.055   4.686
25472W        W92013  41.399  27.197   4.259
25473W        W92014  18.344   7.890   0.316
25474W        W92015  24.693   4.321   0.337
25475W        W92016  22.203   1.637  11.094
25476W        W92017   6.829  41.358   2.451
25477W        W92018  38.705  25.288   0.914
25478W        W92019  14.345  33.985  13.403
25479W        W92020  41.580  26.301  13.343
25480W        W92021  28.505  34.173   0.459
25481W        W92022   8.627  35.836  14.234
25482W        W92023  30.319  19.334  13.113
25483W        W92024  11.155  15.344  12.944
25484W        W92025  30.653  11.085   3.315
25485W        W92026   9.150  21.531  14.080
25486W        W92027  37.105   0.820  12.951
25487W        W92028  17.644  11.075  14.366
25488W        W92029  21.303  27.153   4.543
25489W        W92030  30.925  33.061  13.993
25490W        W92031  11.687   5.367  13.445
25491W        W92032  26.417  26.904  14.858
25492W        W92033  16.582   6.744   0.731
25493W        W92034   9.703   6.727   1.366
25494W        W92035   8.887   5.833  14.466
25495W        W92036  41.733  35.190  12.043
25496W        W92037  41.401   4.503   1.408
25497W        W92038   6.118  14.683   3.504
25498W        W92039  18.628   4.681  11.949
25499W        W92040  21.489  17.342  12.954
25500W        W92041   0.425  39.781  12.482
25501W        W92042  25.141   7.135  10.377
25502W        W92043  44.852  14.153   2.800
25503W        W92044  39.844   3.163  10.707
25504W        W92045  12.315  14.896  10.711
25505W        W92046   0.049   1.868  13.235
25506W        W92047   5.567  27.636   2.179
25507W        W92048  15.749  16.808   0.946
25508W        W92049  34.181  26.232  12.698
25509W        W92050   5.674  33.573  13.429
25510W        W92051  44.389  10.415  14.040
25511W        W92052  31.585   7.299  11.736
25512W        W92053   5.181  17.464   1.367
25513W        W92054  30.149   4.917  11.194
25514W        W92055  26.527  13.879   0.984
25515W        W92056   2.748   9.322   1.356
25516W        W92057  38.539  39.524  12.810
25517W        W92058  41.584  25.142  14.091
25518W        W92059   9.865  41.115  13.537
25519W        W92060  11.009  36.376  12.736
25520W        W92061  41.061  38.092  13.415
25521W        W92062  26.885  44.831   2.841
25522W        W92063  16.719  32.670  10.915
25523W        W92064  28.503  34.657  10.714
25524W        W92065   3.003  36.991   4.625
25525W        W92066  20.764   9.777  11.647
25526W        W92067  28.947   0.516  11.908
25527W        W92068  39.350  27.263   1.903
25528W        W92069  19.790  28.636  12.433
25529W        W92070  25.489  34.925   3.797
25530W        W92071  19.503   3.239   2.571
25531W        W92072  42.209  25.597   1.369
25532W        W92073   9.445   3.173  10.515
25533W        W92074  24.457  26.726  14.835
25534W        W92075  36.964   2.790   2.808
25535W        W92076   7.320  23.997  13.936
25536W        W92077  23.096  27.616   1.647
25537W        W92078  13.347  21.146   4.694
25538W        W92079  33.026  10.958  11.942
25539W        W92080  18.433   8.498  11.683
25540W        W92081  11.398   2.402   4.642
25541W        W92082   0.248   7.338  13.069
25542W        W92083   1.879  44.562  11.378
25543W        W92084  39.497   4.301   3.695
25544W        W92085  22.443  10.227  14.546
25545W        W92086  29.127   0.467   3.680
25546W        W92087  32.038  42.930  14.880
25547W        W92088  25.430   4.710  13.356
25548W        W92089  28.113  24.935  12.979
25549W        W92090  41.563  11.858   2.809
25550W        W92091   5.417   6.988  13.873
25551W        W92092  31.130  42.945  13.565
25552W        W92093  19.151  30.243  11.648
25553W        W92094  10.241   6.729  13.950
25554W        W92095  11.724  21.029  11.177
25555W        W92096  23.124  21.497  14.822
25556W        W92097   8.146  26.736   4.345
25557W        W92098  36.076  35.385   1.434
25558W        W92099  25.940   7.181   2.365
25559W        W92100  12.075  20.634  13.855
25560W        W92101  20.299  35.475   4.163
25561W        W92102  29.447  38.483   0.372
25562W        W92103   2.360  26.769   4.734
25563W        W92104  23.175  18.419  12.012
25564W        W92105  42.957  25.594   0.804
25565W        W92106   7.128  17.932   0.982
25566W        W92107  13.765  31.999   0.734
25567W        W92108  31.338  31.490  10.337
25568W        W92109  35.128  15.386  14.308
25569W        W92110  19.264  42.068  14.939
25570W        W92111  31.496  44.743  12.907
25571W        W92112  29.048  44.447   4.623
25572W        W92113   8.364  22.143   0.799
25573W        W92114  17.714  13.331  13.477
25574W        W92115  27.775  43.363   1.891
25575W        W92116  40.088  29.463  13.926
25576W        W92117  10.100  12.527   3.710
25577W        W92118   1.238  39.663  12.069
25578W        W92119   3.216  36.123   2.262
25579W        W92120  12.279  27.094   1.428
25580W        W92121  40.100  21.077  11.730
25581W        W92122  39.537  22.599  14.513
25582W        W92123  13.229  35.435  14.589
25583W        W92124  30.324   7.907   4.560
25584W        W92125  27.170  25.615   1.793
25585W        W92126  24.219  28.611   2.772
25586W        W92127  26.750  27.548   2.418
25587W        W92128  31.488   6.734  12.897
25588W        W92129  32.804  11.678  12.324
25589W        W92130  20.821  34.324   0.487
25590W        W92131  14.245  35.555   1.771
25591W        W92132   8.945   4.409   4.396
25592W        W92133  40.512   7.820  11.036
25593W        W92134  22.313  39.498  11.163
25594W        W92135  19.268  44.510   3.141
25595W        W92136  25.023  20.049   2.944
25596W        W92137   1.677  15.569   0.262
25597W        W92138  16.976  15.193   4.269
25598W        W92139   7.855  22.787  12.106
25599W        W92140   9.414  38.058  12.914
25600W        W92141  38.022  12.303   0.948
25601W        W92142  23.060  27.612  13.844
25602W        W92143  24.454   8.709   4.616
25603W        W92144   3.665  34.097   0.677
25604W        W92145   6.219  38.443   2.708
25605W        W92146  32.474  20.254  12.855
25606W        W92147  22.952  29.383   3.252
25607W        W92148  14.329   0.269  11.219
25608W        W92149  12.182  26.401  14.221
25609W        W92150  34.067   3.394  11.182
25610W        W92151  33.603  25.782   4.084
25611W        W92152   6.391   7.249  12.601
25612W        W92153  13.767   7.786   5.026
25613W        W92154   1.002  14.877   2.339
25614W        W92155  33.855  12.109   1.471
25615W        W92156   5.729   5.525   4.617
25616W        W92157  32.914   0.179  11.126
25617W        W92158  35.869  29.369  14.881
25618W        W92159  37.772  22.752  12.430
25619W        W92160  39.658  14.534   0.779
25620W        W92161  30.972  17.823  12.608
25621W        W92162  30.699  30.492   2.837
25622W        W92163  38.160  30.059   0.921
25623W        W92164  37.578   6.936   2.429
25624W        W92165  31.556  11.620   3.627
25625W        W92166  14.641  34.576  13.903
25626W        W92167  12.782  25.990   0.695
25627W        W92168  41.847  29.200  12.104
25628W        W92169  35.070  19.666   4.149
25629W        W92170  21.324  21.129   1.075
25630W        W92171  23.755  43.138   4.942
25631W        W92172  22.788   9.278   2.791
25632W        W92173   9.025  33.848   0.879
25633W        W92174  38.552  16.116  11.103
25634W        W92175  16.117  29.841   0.481
25635W        W92176   7.590   3.957   3.717
25636W        W92177   6.402  38.919   2.599
25637W        W92178   5.228  37.494   0.672
25638W        W92179  37.627  24.242  11.615
25639W        W92180  40.960  32.382   5.107
25640W        W92181  27.601   4.722   0.709
25641W        W92182  30.166  40.165   4.211
25642W        W92183  39.949   3.732  14.550
25643W        W92184   4.820  23.105  14.409
25644W        W92185  33.241  23.772  12.851
25645W        W92186  17.829  30.489   9.837
25646W        W92187  35.869  37.517  10.736
25647W        W92188  16.023  18.475   2.016
25648W        W92189  17.825  36.653  10.958
25649W        W92190  11.626  35.974  11.702
25650W        W92191  37.363  44.422  10.363
25651W        W92192  34.496  22.137   2.165
25652W        W92193  27.631  32.126  12.511
25653W        W92194  19.183  17.371  11.949
25654W        W92195  39.599  30.952   4.691
25655W        W92196  10.881  44.465  13.605
25656W        W92197  37.075   2.351   2.340
25657W        W92198  22.642  32.775   4.156
25658W        W92199  37.016  33.201   1.988
25659W        W92200  11.796  27.024   0.501
25660W        W92201  13.263  25.754  13.387
25661W        W92202  11.114  14.350   4.234
25662W        W92203  34.773  43.854  12.943
25663W        W92204  39.435  28.375   3.759
25664W        W92205  33.636   9.783   4.863
25665W        W92206  32.199  29.892   0.031
25666W        W92207   3.465  39.460  14.814
25667W        W92208   8.660  17.746  11.526
25668W        W92209  42.972  41.932   4.067
25669W        W92210  25.187   5.359   5.115
25670W        W92211  23.719  39.991  12.663
25671W        W92212  14.782  31.181   3.592
25672W        W92213  22.781  17.107   1.409
25673W        W92214   5.698   1.227  12.169
25674W        W92215  42.413  15.447  10.661
25675W        W92216  13.848  22.964  14.957
25676W        W92217  16.682  29.613  11.558
25677W        W92218  16.651  20.251  14.748
25678W        W92219  23.113  38.706  13.892
25679W        W92220  42.283  28.745   3.718
25680W        W92221   2.985  10.224  14.104
25681W        W92222   9.749  41.884   4.385
25682W        W92223  25.549  32.808  14.086
25683W        W92224   2.323  12.204  13.213
25684W        W92225  38.005  11.234   4.680
25685W        W92226  11.577   8.879   4.527
25686W        W92227  22.656  26.006   2.635
25687W        W92228  33.404  44.156  11.964
25688W        W92229  17.668  19.552   4.231
25689W        W92230  43.441  12.163  13.055
25690W        W92231  30.075  21.068  13.323
25691W        W92232  41.765  40.782  11.438
25692W        W92233  26.728  21.469  11.597
25693W        W92234   3.805  42.543   1.848
25694W        W92235  29.436  39.558   1.257
25695W        W92236  10.038  21.989  13.387
25696W        W92237  25.606   0.977   0.354
25697W        W92238  35.141  42.711  12.589
25698W        W92239   1.499  16.970  12.900
25699W        W92240  40.835  30.186   0.922
25700W        W92241  28.572  37.577   2.274
25701W        W92242   3.319  31.100  13.572
25702W        W92243  10.269   8.613  11.602
25703W        W92244  20.239  31.663  13.856
25704W        W92245   1.962  39.815   1.898
25705W        W92246  10.433  23.464   3.309
25706W        W92247   1.291  26.509   4.270
25707W        W92248  12.337  17.754   3.463
25708W        W92249   2.314  16.683   4.067
25709W        W92250  22.522  10.568   4.155
25710W        W92251  11.732  32.806  11.238
25711W        W92252  10.748  34.346  14.599
25712W        W92253  11.206  41.542  14.317
25713W        W92254  16.940   8.105   0.896
25714W        W92255  31.663   1.427   0.404
25715W        W92256   9.486  31.827  14.501
25716W        W92257  28.411  29.485   2.763
25717W        W92258  17.465   3.678  13.913
25718W        W92259  12.331  26.422  12.352
25719W        W92260  37.373  39.874   2.231
25720W        W92261  37.840  27.627  13.255
25721W        W92262  42.291  23.742  11.651
25722W        W92263   0.398  39.277  12.588
25723W        W92264   2.589  40.936   1.653
25724W        W92265   3.303   8.709   3.932
25725W        W92266  43.849  21.498   1.912
25726W        W92267  16.137  16.628   0.652
25727W        W92268  25.611  22.805   0.497
25728W        W92269   4.917   7.833  11.244
25729W        W92270   4.661   8.139   4.510
25730W        W92271  44.346  26.742   3.809
25731W        W92272  30.442   4.159   2.787
25732W        W92273  37.530  22.904  14.976
25733W        W92274  11.383  12.171   2.265
25734W        W92275  16.310  23.644   1.728
25735W        W92276  31.960  11.312  12.353
25736W        W92277  36.024  15.181  13.835
25737W        W92278  43.713  23.246   3.376
25738W        W92279  21.224   1.284   2.435
25739W        W92280   7.146   8.423   3.623
25740W        W92281  13.065  19.346   5.110
25741W        W92282   0.431   2.140   5.059
25742W        W92283  24.561  14.618  10.647
25743W        W92284  31.150   9.720   3.389
25744W        W92285   5.832   2.489  13.083
25745W        W92286  43.733  31.677  12.915
25746W        W92287  34.905  44.303  13.134
25747W        W92288   6.339  39.535  14.907
25748W        W92289  37.688  26.474   0.561
25749W        W92290  42.017  43.948  11.095
25750W        W92291  29.457  37.721   0.891
25751W        W92292  22.710  26.132   0.830
25752W        W92293  28.016  44.876   2.687
25753W        W92294   1.937   5.898   4.830
25754W        W92295   9.954  22.024  12.563
25755W        W92296  42.134  28.823   3.198
25756W        W92297   7.732  26.147   2.336
25757W        W92298  42.841  26.488   1.538
25758W        W92299  43.577   6.722   4.842
25759W        W92300  40.467  37.897  12.567
25760W        W92301  24.183  33.472   4.584
25761W        W92302  43.254  20.200   4.204
25762W        W92303  20.000  33.666   2.309
25763W        W92304   9.571  27.759   2.541
25764W        W92305  27.175  29.545  12.295
25765W        W92306  31.256  25.290   0.577
25766W        W92307  35.514  42.159  12.919
25767W        W92308  39.052   5.961  14.827
25768W        W92309  24.549  15.868   2.090
25769W        W92310  20.122   6.968   2.054
25770W        W92311  15.219   1.864   1.252
25771W        W92312   9.776   3.359   0.490
25772W        W92313  26.931   7.771   4.324
25773W        W92314   8.687   0.209  11.209
25774W        W92315  27.924   1.840  13.992
25775W        W92316  11.117  34.679  14.415
25776W        W92317  41.007  24.678  13.593
25777W        W92318  38.446  11.799  12.506
25778W        W92319  31.493  30.525  11.897
25779W        W92320  38.340  13.083  13.806
25780W        W92321  28.339  40.719   3.172
25781W        W92322  39.334  40.401  14.166
25782W        W92323  25.167  12.034  10.942
25783W        W92324  23.114  29.556   4.564
25784W        W92325  12.796  39.234   4.068
25785W        W92326  25.622  11.675   0.639
25786W        W92327  13.620  41.339   4.190
25787W        W92328  20.223  23.342  13.293
25788W        W92329   7.333  12.671   3.074
25789W        W92330  13.606  17.041  10.891
25790W        W92331  15.610  13.677   1.223
25791W        W92332  25.463  12.341  10.634
25792W        W92333  29.578  18.666   2.581
25793W        W92334   6.442  33.068  12.950
25794W        W92335  40.954  32.666  12.413
25795W        W92336  44.945  14.841  13.950
25796W        W92337  25.095  37.738  13.004
25797W        W92338  12.412  30.386   1.317
25798W        W92339  33.131  18.002   0.361
25799W        W92340  44.226  31.419  10.319
25800W        W92341  21.006  16.287   3.150
25801W        W92342   2.886   9.887  13.050
25802W        W92343  41.493  37.412  14.761
25803W        W92344  36.155  40.480  11.423
25804W        W92345  25.056  38.893   1.362
25805W        W92346   3.732  28.139   0.422
25806W        W92347  14.527  23.481  10.354
25807W        W92348  18.458  37.976  10.641
25808W        W92349  12.640   7.480  14.591
25809W        W92350  29.273  36.290  12.465
25810W        W92351  31.381  43.577   2.119
25811W        W92352  40.862  39.016  12.181
25812W        W92353   7.251  21.636   3.722
25813W        W92354  39.665  30.647  12.820
25814W        W92355  10.463  17.750  13.546
25815W        W92356  22.796   7.255   0.347
25816W        W92357  35.922   8.667   1.180
25817W        W92358  33.508  23.773   3.288
25818W        W92359  10.190  44.360  12.922
25819W        W92360  36.960  22.073  12.613
25820W        W92361  41.229   7.673   3.631
25821W        W92362  30.318  32.498  13.727
25822W        W92363  15.964  35.492   2.263
25823W        W92364  35.966  15.069   0.780
25824W        W92365  35.832  22.506   4.837
25825W        W92366  33.680  29.112   2.562
25826W        W92367  27.393  18.229   1.714
25827W        W92368  30.018   8.191   2.824
25828W        W92369  43.460  12.610  10.702
25829W        W92370  27.210  27.484   3.909
25830W        W92371  29.376  32.944   1.452
25831W        W92372  32.195  40.226   2.223
25832W        W92373   2.903   7.711  11.162
25833W        W92374   5.145  38.051  13.858
25834W        W92375  27.800  21.114   4.998
25835W        W92376  24.149  41.594   3.067
25836W        W92377  27.253  40.413   0.381
25837W        W92378  16.767  24.581  11.026
25838W        W92379  17.062  35.514   3.679
25839W        W92380  32.744  12.290  14.719
25840W        W92381  18.622  15.797  14.771
25841W        W92382  44.200  40.464   4.788
25842W        W92383  32.203  37.617  14.032
25843W        W92384  28.511  26.746   2.244
25844W        W92385  33.219  10.253  14.020
25845W        W92386  15.071  16.571   4.609
25846W        W92387   2.205  36.452  13.081
25847W        W92388  15.609  26.133   2.734
25848W        W92389  39.827  10.913  14.796
25849W        W92390  16.096  23.927   4.073
25850W        W92391   0.940  22.759  10.081
25851W        W92392  19.628  18.198   2.648
25852W        W92393  26.416  25.858  11.498
25853W        W92394  31.867  23.678   0.416
25854W        W92395  27.613  25.168  11.277
25855W        W92396  35.508  14.742   2.970
25856W        W92397  17.156  29.681   4.083
25857W        W92398   7.745   8.486  13.325
25858W        W92399  43.295  23.243  12.011
25859W        W92400  33.057  41.900  12.353
25860W        W92401  39.747  31.226  12.083
25861W        W92402  11.537  33.606   1.083
25862W        W92403  35.546  12.629   3.981
25863W        W92404  42.073  42.798  14.564
25864W        W92405  36.346  40.918   3.911
25865W        W92406   5.567  34.216   2.814
25866W        W92407  18.219   4.218  11.115
25867W        W92408   4.584   7.603  11.956
25868W        W92409  22.119  39.861   4.565
25869W        W92410  21.160  18.876  14.371
25870W        W92411   4.003   5.976  11.715
25871W        W92412   5.809  22.911   1.715
25872W        W92413   2.542  18.046   3.434
25873W        W92414  19.742  38.398   4.921
25874W        W92415  42.215  20.612  13.754
25875W        W92416  17.754  22.277   4.591
25876W        W92417  42.913  36.664  11.962
25877W        W92418  13.806  27.914   3.188
25878W        W92419  34.473  43.467  10.473
25879W        W92420  28.613  17.220   1.620
25880W        W92421  20.350  33.117  11.094
25881W        W92422  36.771  36.875  13.900
25882W        W92423   4.137   9.426   0.919
25883W        W92424   8.338   9.703   0.404
25884W        W92425   3.245   3.296  12.964
25885W        W92426  15.702  12.387   2.723
25886W        W92427  16.409  11.676  10.246
25887W        W92428  19.125  43.975   4.573
25888W        W92429  33.971  20.190  10.869
25889W        W92430  22.805  38.248   0.318
25890W        W92431   4.663   2.971  11.949
25891W        W92432  14.254  21.700  13.278
25892W        W92433   0.708  15.230  12.810
25893W        W92434  20.020   8.854  12.511
25894W        W92435   2.799  44.246  11.505
25895W        W92436  25.569  21.922  10.321
25896W        W92437  43.525  41.595   4.653
25897W        W92438   9.210  10.837   1.333
25898W        W92439   9.296   7.893  11.623
25899W        W92440  43.901  19.850   2.817
25900W        W92441  40.114   2.910   3.348
25901W        W92442   2.171  14.789   2.847
25902W        W92443  29.205  44.727   3.453
25903W        W92444  15.740  11.800  12.659
25904W        W92445  38.481  23.925   1.734
25905W        W92446  43.820  13.100   0.260
25906W        W92447  39.405  27.813  12.504
25907W        W92448  18.201   3.201  12.560
25908W        W92449   1.968  32.891  11.991
25909W        W92450  26.699  30.585   1.859
25910W        W92451  35.223  38.381   4.297
25911W        W92452  22.513  14.927   1.278
25912W        W92453  39.032  12.895   3.561
25913W        W92454  21.576  10.163   2.423
25914W        W92455  42.487   8.204   2.960
25915W        W92456  44.583   0.992  13.144
25916W        W92457  35.203  33.101   3.942
25917W        W92458  31.535  13.141   9.830
25918W        W92459   4.003   5.330  14.513
25919W        W92460  44.557  35.981   4.646
25920W        W92461   5.384   1.569   3.166
25921W        W92462  18.674  28.896   5.086
25922W        W92463  30.116  41.572  10.551
25923W        W92464   5.776  10.889   4.141
25924W        W92465  14.814  31.523  14.315
25925W        W92466  16.978  32.634  10.467
25926W        W92467  20.299  20.997   2.670
25927W        W92468  11.703  33.993   2.328
25928W        W92469  41.305  19.035   0.711
25929W        W92470  25.611   5.383   4.096
25930W        W92471  29.430  44.902  10.400
25931W        W92472  43.980   7.722  13.806
25932W        W92473  22.439  29.001   1.765
25933W        W92474  38.785  27.540   0.238
25934W        W92475  13.295  25.499   3.017
25935W        W92476  28.313  16.287  14.768
25936W        W92477  34.964  27.776   3.267
25937W        W92478   3.612  30.866  10.758
25938W        W92479  28.727  12.305   3.022
25939W        W92480  26.060  38.446   3.408
25940W        W92481  30.560  24.051   0.072
25941W        W92482   3.901   5.940   3.967
25942W        W92483  23.547  19.504   0.696
25943W        W92484  36.886  22.455   0.736
25944W        W92485  43.716  21.060   2.298
25945W        W92486  19.216   5.757  14.899
25946W        W92487  22.882   7.090  12.529
25947W        W92488  26.845  20.287   4.929
25948W        W92489  16.647  44.745   3.645
25949W        W92490  12.595  10.138   1.829
25950W        W92491  39.381  26.395  12.229
25951W        W92492  17.758  27.309  11.962
25952W        W92493  22.255   2.597  13.429
25953W        W92494  25.214   4.580  11.202
25954W        W92495   6.249  18.195  14.229
25955W        W92496  15.107  34.479  13.590
25956W        W92497  43.926   6.656  14.372
25957W        W92498  22.143  10.805  13.491
25958W        W92499  19.321  42.577   3.156
25959W        W92500  11.160   7.366  11.901
25960W        W92501  17.205  44.364   3.153
25961W        W92502  33.952   7.931   1.098
25962W        W92503  31.464   9.999  10.294
25963W        W92504   4.060   4.341  11.202
25964W        W92505   3.483  20.032  11.273
25965W        W92506  29.840  18.104  13.066
25966W        W92507  38.039  27.496   3.130
25967W        W92508  13.163  17.235  11.893
25968W        W92509   7.247  13.777   1.896
25969W        W92510  24.504  28.428   4.413
25970W        W92511  37.664   5.428   3.160
25971W        W92512  22.977  22.271  10.721
25972W        W92513   9.358   5.399   1.606
25973W        W92514  27.101   0.976  11.428
25974W        W92515  37.313  19.861   4.317
25975W        W92516  10.897   7.859   2.613
25976W        W92517  24.955  41.274  10.782
25977W        W92518  32.978  16.197   0.324
25978W        W92519   4.289  44.450   1.006
25979W        W92520   1.443  28.967   4.862
25980W        W92521  13.396  37.903   0.778
25981W        W92522   1.050  28.998  10.762
25982W        W92523  32.203   3.455   3.215
25983W        W92524  22.482  20.617  10.051
25984W        W92525  41.556  13.172   1.706
25985W        W92526  39.457  22.631  12.935
25986W        W92527  43.869  38.577   1.715
25987W        W92528  12.848  20.317  11.108
25988W        W92529  35.350  40.009  13.479
25989W        W92530  11.591  41.864  12.564
25990W        W92531  44.000  32.640   4.675
25991W        W92532  33.755  39.953   2.900
25992W        W92533   3.451  27.934  10.701
25993W        W92534   3.218  23.016   1.498
25994W        W92535  39.568  15.328  12.341
25995W        W92536  39.730  18.623   4.033
25996W        W92537  35.355  11.798  14.692
25997W        W92538  24.154  32.132  10.705
25998W        W92539  23.188  20.273   1.829
25999W        W92540  22.350   7.223   4.140
26000W        W92541  28.653  20.776   1.892
26001W        W92542  36.771  25.039  11.644
26002W        W92543   0.319   9.925  12.858
26003W        W92544  43.238   2.544   2.326
26004W        W92545  32.896  26.208  13.495
26005W        W92546  24.513  42.811   3.378
26006W        W92547  36.759  25.775   1.525
26007W        W92548  42.515  31.778   0.588
26008W        W92549  27.618  12.180  14.429
26009W        W92550  21.204  11.415   0.520
26010W        W92551  22.090  15.346  11.875
26011W        W92552   5.414   3.681  14.882
26012W        W92553  19.206  22.714   0.876
26013W        W92554  34.169   1.817  13.440
26014W        W92555  21.791  15.042  14.949
26015W        W92556  41.487  22.725  11.053
26016W        W92557  29.632  35.656  13.522
26017W        W92558   6.429  43.432   4.342
26018W        W92559   2.860  13.219   2.128
26019W        W92560  26.659   8.693  13.446
26020W        W92561  30.741  16.329  10.158
26021W        W92562  17.756  11.706  10.778
26022W        W92563   0.989   9.330  13.936
26023W        W92564  17.157  29.439  10.656
26024W        W92565  10.885  20.524  14.965
26025W        W92566  23.142  10.468   4.692
26026W        W92567  42.836   5.416   4.389
26027W        W92568   0.688   3.908  10.233
26028W        W92569  31.185  25.544   4.150
26029W        W92570  21.082  29.950   0.816
26030W        W92571  34.956  24.189   3.095
26031W        W92572   1.920  37.943  10.617
26032W        W92573  39.218  32.310   3.133
26033W        W92574  16.570  22.245  10.741
26034W        W92575   1.715  36.869  13.992
26035W        W92576  29.746  31.399  12.874
26036W        W92577  22.351  23.692  13.667
26037W        W92578  19.092   9.502   3.241
26038W        W92579   6.320  35.476   4.365
26039W        W92580   4.548  30.735   1.310
26040W        W92581  11.358  44.284  11.490
26041W        W92582  21.649  39.268  10.620
26042W        W92583  24.583  25.083  11.533
26043W        W92584   2.662  23.466  13.928
26044W        W92585  25.172  22.017  10.634
26045W        W92586   8.568   8.977  12.367
26046W        W92587  28.682  29.268  13.989
26047W        W92588   9.652  26.468   2.902
26048W        W92589  14.968   6.885  13.526
26049W        W92590   7.858  25.217  13.822
26050W        W92591  14.897   2.015  12.458
26051W        W92592  24.613   8.197   1.940
26052W        W92593   0.979  26.984   4.294
26053W        W92594  28.190  41.710  12.179
26054W        W92595  24.620  22.760  13.452
26055W        W92596   7.848  19.493  14.090
26056W        W92597   1.196  15.840   0.254
26057W        W92598  13.299  27.092  11.527
26058W        W92599   5.227  19.332  10.825
26059W        W92600   2.392  33.698  11.914
26060W        W92601  29.543  18.086  13.975
26061W        W92602   0.355   1.598   1.472
26062W        W92603  41.612  41.280  13.363
26063W        W92604  19.553   0.501   4.655
26064W        W92605  10.387  28.655  12.619
26065W        W92606  19.772   3.699   5.018
26066W        W92607  33.336  18.172   3.516
26067W        W92608  44.208   4.654   1.347
26068W        W92609   0.386  34.549  12.998
26069W        W92610  40.137  18.320  13.492
26070W        W92611   0.572  27.303   4.158
26071W        W92612  34.876  20.653   2.300
26072W        W92613  10.767  16.137  12.890
26073W        W92614  23.355  37.107   0.873
26074W        W92615  29.592  10.572   4.149
26075W        W92616   8.862  18.610   4.041
26076W        W92617  19.673  38.552   1.831
26077W        W92618   3.469  15.409   0.206
26078W        W92619  27.225   0.874   4.669
26079W        W92620  18.877  11.840  12.270
26080W        W92621  36.077  44.158  13.752
26081W        W92622  32.463  31.024   3.666
26082W        W92623  28.785  23.611  14.404
26083W        W92624   8.448  11.784  13.384
26084W        W92625  30.177   6.157   4.148
26085W        W92626  36.883  36.896  10.420
26086W        W92627  39.869  19.760  11.604
26087W        W92628  25.447  35.093  11.057
26088W        W92629  15.596  34.629   1.829
26089W        W92630  36.191   6.782   2.306
26090W        W92631   4.421  26.796   4.611
26091W        W92632  11.247  21.535   1.440
26092W        W92633  23.641  37.422   3.521
26093W        W92634  19.064  40.049  11.563
26094W        W92635  24.667  18.572   1.627
26095W        W92636  33.909  13.595   4.585
26096W        W92637  42.841   5.395   2.256
26097W        W92638  31.970  14.635  14.948
26098W        W92639   5.507  15.664  11.602
26099W        W92640  23.081  27.077   4.937
26100W        W92641  33.536  40.915   2.421
26101W        W92642  16.686  35.073  10.949
26102W        W92643  44.644   7.781   1.306
26103W        W92644   9.470  29.453  12.141
26104W        W92645  27.536  25.396   0.810
26105W        W92646  32.484  21.733   0.870
26106W        W92647  26.549   0.845   0.502
26107W        W92648  34.882  13.816   3.136
26108W        W92649   4.744  33.120   0.028
26109W        W92650  15.518   7.670   1.483
26110W        W92651  11.484  20.410   0.673
26111W        W92652   3.827  11.511   0.220
26112W        W92653  13.350  24.565   1.751
26113W        W92654  24.913   3.816  12.993
26114W        W92655  12.560  14.094   4.207
26115W        W92656  22.170  41.357   2.258
26116W        W92657  17.997  34.996  13.903
26117W        W92658  35.770   6.185  12.129
26118W        W92659  44.930  37.831  11.196
26119W        W92660   7.584   3.400   2.163
26120W        W92661  31.548  28.872  10.676
26121W        W92662   6.193  22.611   3.782
26122W        W92663  35.540  43.939  12.580
26123W        W92664  15.191  10.826  10.661
26124W        W92665  10.156   7.812   1.420
26125W        W92666   2.315  16.518   0.583
26126W        W92667  22.955  27.597   4.050
26127W        W92668  20.512  22.131  11.032
26128W        W92669  10.926  36.181   4.090
26129W        W92670  43.423  37.310   0.652
26130W        W92671  29.014  19.920  10.582
26131W        W92672   1.798  30.797   2.203
26132W        W92673  32.831   5.371  14.150
26133W        W92674   3.556   3.051   2.834
26134W        W92675  36.288   9.854   0.616
26135W        W92676  16.754  25.233  14.975
26136W        W92677  13.573  20.566  12.104
26137W        W92678   0.374  25.682   1.263
26138W        W92679  25.115  38.250  13.033
26139W        W92680  24.498  23.022  13.876
26140W        W92681  11.147  14.097   1.853
26141W        W92682  16.131  13.158  11.114
26142W        W92683   4.130  35.496  11.156
26143W        W92684   5.576  21.948   4.134
26144W        W92685   3.737  39.854   2.254
26145W        W92686   3.479  28.162   0.912
26146W        W92687  17.155   3.359   4.004
26147W        W92688  24.979  44.753   4.403
26148W        W92689  33.422  23.497   4.731
26149W        W92690  25.718  28.028  13.971
26150W        W92691  10.574  17.892   0.976
26151W        W92692  36.619  42.775   1.955
26152W        W92693   8.282  42.256  13.153
26153W        W92694  31.456  23.703  14.988
26154W        W92695  26.959  10.161   1.392
26155W        W92696  23.555  24.164   3.136
26156W        W92697   0.134  28.437   4.861
26157W        W92698  24.462  21.741   1.391
26158W        W92699  18.136  19.521  12.980
26159W        W92700  31.946  20.320  10.734
26160W        W92701  19.197  15.607   5.409
26161W        W92702   8.105  33.955  11.054
26162W        W92703  23.478  13.717  11.973
26163W        W92704  13.104  37.941   0.316
26164W        W92705  32.554  27.631   2.917
26165W        W92706  11.395  35.390  13.897
26166W        W92707  23.127  43.997  11.655
26167W        W92708  30.654  22.778  14.408
26168W        W92709   1.700  28.565  13.326
26169W        W92710  29.418  31.199  11.615
26170W        W92711  43.682  19.048   3.322
26171W        W92712  28.970   1.697  12.476
26172W        W92713  31.593  15.736   2.769
26173W        W92714  34.830  23.761  13.844
26174W        W92715  34.184  15.015   1.770
26175W        W92716  43.256  36.041  12.003
26176W        W92717  31.928  14.605  11.482
26177W        W92718  27.977  16.467   2.028
26178W        W92719  42.976  16.858   1.990
26179W        W92720  30.955  34.716   3.374
26180W        W92721  40.365  21.288   2.320
26181W        W92722  27.195  30.746   3.561
26182W        W92723   8.223  19.606   1.348
26183W        W92724  32.476   1.860   1.526
26184W        W92725  16.435   2.313   0.970
26185W        W92726   3.782  24.950  14.327
26186W        W92727  28.087  40.789   0.693
26187W        W92728   6.353  23.554  12.493
26188W        W92729   0.020  12.669   3.955
26189W        W92730  19.661  13.256   5.044
26190W        W92731  24.234  19.519   1.374
26191W        W92732   4.433  30.667  11.352
26192W        W92733  22.203   3.393   3.254
26193W        W92734  32.025  27.273   0.855
26194W        W92735  38.094  18.127   0.803
26195W        W92736  16.043   1.357   1.200
26196W        W92737  20.221   7.795   3.094
26197W        W92738  30.426   0.219  11.947
26198W        W92739   4.869  19.676   3.585
26199W        W92740  29.540  13.190   2.922
26200W        W92741  16.173  26.830   2.806
26201W        W92742  21.724  36.851  11.862
26202W        W92743  23.663   1.892  10.888
26203W        W92744   6.311  21.966  13.869
26204W        W92745  44.869  11.134  11.135
26205W        W92746   2.521   1.916   2.622
26206W        W92747  17.687  35.064  11.610
26207W        W92748  24.234  36.377   2.704
26208W        W92749  37.940  37.887  13.343
26209W        W92750  12.112  27.146   1.954
26210W        W92751   3.339  12.682  10.572
26211W        W92752  44.968  39.044   1.726
26212W        W92753  13.719  38.637   3.273
26213W        W92754  14.595  18.330   2.177
26214W        W92755  34.417  12.232  10.815
26215W        W92756  40.800   8.329   1.872
26216W        W92757   7.921   9.769  14.144
26217W        W92758  24.919  14.653   2.280
26218W        W92759  44.416  44.875   0.409
26219W        W92760  28.080  25.880   3.038
26220W        W92761  42.472   3.009  12.152
26221W        W92762  23.232  42.901   1.903
26222W        W92763  24.516  21.242   2.799
26223W        W92764  43.442   7.617   1.624
26224W        W92765  39.859   6.945   4.521
26225W        W92766  15.083  36.692  14.800
26226W        W92767  33.927  31.679  10.576
26227W        W92768  37.110  43.284   3.749
26228W        W92769  27.402  29.895   0.857
26229W        W92770   7.318  11.767   1.462
26230W        W92771  41.031   6.445  13.711
26231W        W92772  11.320  44.314  10.647
26232W        W92773  13.223  19.608   2.696
26233W        W92774   0.316  25.956  12.552
26234W        W92775  41.393  32.058   3.224
26235W        W92776  26.553  25.089  13.361
26236W        W92777  36.145   6.319  13.384
26237W        W92778  42.948   2.790  12.042
26238W        W92779  25.778  29.609  11.118
26239W        W92780  38.230  26.477  14.470
26240W        W92781  28.997  13.114   0.415
26241W        W92782  21.629  36.662  10.601
26242W        W92783  28.636   6.679  11.207
26243W        W92784  11.675  31.614  13.554
26244W        W92785  35.046  33.642  14.490
26245W        W92786  39.520   4.959  10.518
26246W        W92787   7.266  21.967   1.475
26247W        W92788   9.393  38.054  10.191
26248W        W92789  19.774   7.268   3.685
26249W        W92790  40.551   8.028  12.120
26250W        W92791  16.189  21.416  14.508
26251W        W92792  25.078  37.843   1.895
26252W        W92793  31.487  36.232   0.569
26253W        W92794  11.770  19.482   3.769
26254W        W92795  38.889   2.194   4.277
26255W        W92796  18.932  25.308  10.181
26256W        W92797  12.074   4.147   0.244
26257W        W92798  30.972  37.901  14.939
26258W        W92799  17.236  28.676   3.263
26259W        W92800  40.480  22.519  12.429
26260W        W92801  12.098  20.968   9.955
26261W        W92802  38.065  18.583  14.399
26262W        W92803  18.957  12.018   4.176
26263W        W92804  24.068  15.938   2.362
26264W        W92805  21.291  10.536   0.323
26265W        W92806  29.068   8.625   2.939
26266W        W92807   6.355  41.999   4.998
26267W        W92808  24.790  35.489  11.298
26268W        W92809   1.293  24.801   5.031
26269W        W92810  20.193  16.763  14.802
26270W        W92811  37.354  24.157   1.371
26271W        W92812   1.825  36.952   1.549
26272W        W92813  13.207  22.150   3.792
26273W        W92814   6.925   9.265  11.665
26274W        W92815   9.375   4.141  12.094
26275W        W92816  27.549  19.846  14.954
26276W        W92817   7.611  33.537  12.545
26277W        W92818   6.518  10.680  12.612
26278W        W92819  21.728   2.268   1.746
26279W        W92820  35.402  16.312  10.530
26280W        W92821  18.433  21.720   4.877
26281W        W92822   5.169  29.004   4.962
26282W        W92823   5.774   0.691  13.429
26283W        W92824  20.314  27.053  14.688
26284W        W92825  41.289   4.822  10.915
26285W        W92826  40.746  30.413  11.652
26286W        W92827  34.958  10.575   0.273
26287W        W92828   2.000   9.940  11.155
26288W        W92829  23.681  42.987   3.849
26289W        W92830  33.635   2.765  14.387
26290W        W92831  36.528  20.465   3.137
26291W        W92832  18.297  38.462  13.530
26292W        W92833  34.116   4.952   2.632
26293W        W92834  26.989   8.674   4.168
26294W        W92835  39.284  35.012  14.325
26295W        W92836   2.235  25.128   3.397
26296W        W92837  12.782  28.336  11.320
26297W        W92838  19.553  37.564  12.007
26298W        W92839  29.512  29.667   1.261
26299W        W92840   7.176  44.521  12.225
26300W        W92841   8.881  39.371   1.628
26301W        W92842  35.023   7.466   0.007
26302W        W92843   6.662  26.412   0.243
26303W        W92844  43.759  17.700  13.028
26304W        W92845  10.073  15.585   0.349
26305W        W92846  25.357  19.187  12.750
26306W        W92847  13.681   2.131   2.139
26307W        W92848   0.002  31.118  12.456
26308W        W92849  14.865  33.156   2.763
26309W        W92850  41.416  39.039   0.414
26310W        W92851  20.473  13.831   3.980
26311W        W92852  29.298  10.880  11.130
26312W        W92853  41.090  16.194   4.069
26313W        W92854  23.466   4.120   4.347
26314W        W92855  22.081  42.506   3.110
26315W        W92856  34.943   2.871  13.903
26316W        W92857  26.209   2.902   4.453
26317W        W92858  32.591  28.970   1.837
26318W        W92859  32.340  42.445  12.363
26319W        W92860  20.203  17.140   9.813
26320W        W92861  37.364  20.681  12.038
26321W        W92862   7.686  34.119   1.929
26322W        W92863  37.972  19.311   4.003
26323W        W92864  21.595   0.222  12.839
26324W        W92865   1.962   8.271   4.494
26325W        W92866  14.349   5.167  11.030
26326W        W92867  28.656  14.228   4.556
26327W        W92868  35.977  10.572   0.314
26328W        W92869  24.012   8.506  11.744
26329W        W92870  36.595   5.622   0.947
26330W        W92871   4.872   1.061  14.349
26331W        W92872  14.752  40.298   1.807
26332W        W92873  11.756  42.103   4.495
26333W        W92874  36.887  25.449   3.709
26334W        W92875   2.881   7.910   4.836
26335W        W92876  13.997  16.811  12.902
26336W        W92877  14.264  19.632  13.778
26337W        W92878   2.015  17.513  13.791
26338W        W92879  43.233   3.884   3.326
26339W        W92880  42.887   1.335   3.181
26340W        W92881  35.441  14.298  12.476
26341W        W92882  10.981  27.510  11.699
26342W        W92883  15.145  18.275  11.464
26343W        W92884   1.018  31.331   1.285
26344W        W92885  13.297  17.630   3.121
26345W        W92886  18.357  31.993   3.251
26346W        W92887  18.277  24.752  10.984
26347W        W92888  31.339  23.780  11.647
26348W        W92889  35.266  13.015   4.200
26349W        W92890  28.616  25.442  12.404
26350W        W92891  10.160   1.414   0.881
26351W        W92892  27.288  34.548  11.232
26352W        W92893  24.979  20.508   2.656
26353W        W92894  16.076   0.327  13.805
26354W        W92895   4.197  17.838  11.975
26355W        W92896  32.331  35.925   2.612
26356W        W92897   5.737  12.560   0.824
26357W        W92898   7.309   8.302  14.088
26358W        W92899   4.190   3.806   1.727
26359W        W92900   5.871  38.909  11.302
26360W        W92901  18.592  30.149  12.529
26361W        W92902  44.470  36.108   2.917
26362W        W92903  35.796   7.212   3.558
26363W        W92904  14.334   8.816  14.741
26364W        W92905  29.867  26.204   2.088
26365W        W92906  35.417  15.355  11.439
26366W        W92907  27.438  18.565   3.069
26367W        W92908   9.637  33.817   3.707
26368W        W92909  20.750  32.532   3.920
26369W        W92910  38.184  11.913  11.112
26370W        W92911  20.786  18.249   0.353
26371W        W92912  30.459  14.955   4.530
26372W        W92913  11.311  14.697  13.046
26373W        W92914  24.148  44.208   0.457
26374W        W92915  19.546   5.432  13.451
26375W        W92916  24.917  24.898  12.092
26376W        W92917   1.841  25.152  12.486
26377W        W92918   6.253  23.853  11.224
26378W        W92919  32.070  19.964   3.393
26379W        W92920  42.252  30.493  12.435
26380W        W92921  12.291  16.053   1.660
26381W        W92922   2.690   1.098   4.260
26382W        W92923  18.728   8.978  14.576
26383W        W92924  31.998  27.341   4.080
26384W        W92925   2.949  33.057  11.457
26385W        W92926  44.980  39.757  11.593
26386W        W92927   0.367   6.425   1.373
26387W        W92928   3.770  40.938  10.931
26388W        W92929  30.520  11.665  10.722
26389W        W92930   5.284   1.619   2.347
26390W        W92931   8.690   0.167  14.822
26391W        W92932  16.374  38.520   2.284
26392W        W92933  15.007  12.652  11.256
26393W        W92934  16.056   9.008  13.015
26394W        W92935  18.133  29.563   2.016
26395W        W92936  18.393  12.932  10.976
26396W        W92937  16.775  33.565   2.426
26397W        W92938  10.820  32.505  10.694
26398W        W92939  34.204  23.679   0.774
26399W        W92940  28.219  22.565  14.965
26400W        W92941  23.505  11.513   4.557
26401W        W92942  32.441  27.257  13.774
26402W        W92943  23.216  43.421  12.109
26403W        W92944  36.918  21.666  14.991
26404W        W92945  17.739  16.716  11.415
26405W        W92946  22.025  16.329   2.499
26406W        W92947  22.403  11.839   4.096
26407W        W92948  43.056  26.866  13.593
26408W        W92949  41.346  42.218  11.987
26409W        W92950   0.880  29.966   1.793
26410W        W92951  11.376  43.292   2.187
26411W        W92952  14.995  10.101   4.631
26412W        W92953  21.321  33.039   4.625
26413W        W92954  16.071  14.844   0.356
26414W        W92955  17.794  27.499  13.462
26415W        W92956   1.882  38.900  10.491
26416W        W92957  35.520  36.421  14.763
26417W        W92958  36.236  30.259   2.207
26418W        W92959   1.442  44.503   4.174
26419W        W92960  44.286  33.320   0.871
26420W        W92961  31.875  16.111   4.509
26421W        W92962   2.857  40.828  14.051
26422W        W92963  19.719   5.910   1.331
26423W        W92964   3.419  32.226  12.989
26424W        W92965  39.353  22.265   0.194
26425W        W92966   5.407  27.640   1.685
26426W        W92967  22.272   1.199   1.380
26427W        W92968  36.326  16.546   1.756
26428W        W92969  20.031  43.998  12.750
26429W        W92970  18.148  40.288  11.937
26430W        W92971  26.519  44.730   3.196
26431W        W92972   9.814  25.178   2.350
26432W        W92973   0.956  44.331   0.933
26433W        W92974  20.646  32.454  10.804
26434W        W92975  42.231  31.976  10.378
26435W        W92976   0.837  27.761  10.488
26436W        W92977  40.728  43.970   2.422
26437W        W92978  44.523  34.087   2.668
26438W        W92979  22.285  33.367   3.963
26439W        W92980  33.706   1.324   2.230
26440W        W92981  31.845  33.098   0.787
26441W        W92982  12.566  15.002   4.316
26442W        W92983  15.402  12.966   1.871
26443W        W92984  32.047  18.974  14.034
26444W        W92985  37.462  23.457  14.242
26445W        W92986  34.862   1.990   0.372
26446W        W92987  24.547  28.970  13.761
26447W        W92988  14.445  25.657   4.042
26448W        W92989  16.144   0.462   1.680
26449W        W92990  34.405   6.981   1.720
26450W        W92991  41.739  16.430  14.536
26451W        W92992  33.583   7.210  10.657
26452W        W92993   5.306  20.839  10.684
26453W        W92994  18.637   4.219  13.866
26454W        W92995  39.975  33.715  14.356
26455W        W92996   1.014  39.176   0.104
26456W        W92997  38.332  39.920  11.208
26457W        W92998  38.326  39.282  12.369
26458W        W92999  33.863  41.650  12.331
26459W        W93000  35.581  25.666   0.295
26460W        W93001  35.492   9.347  14.452
26461W        W93002   6.367   5.333   5.180
26462W        W93003  13.081   2.008   0.025
26463W        W93004  40.875  27.576   1.793
26464W        W93005  25.114   0.238  14.373
26465W        W93006   0.750   0.789   0.855
26466W        W93007  39.139  41.683  14.797
26467W        W93008  38.728   6.400  11.118
26468W        W93009   2.281  11.582  10.571
26469W        W93010   7.201  29.075  12.936
26470W        W93011  17.764   7.057   1.705
26471W        W93012  24.857  23.529  13.399
26472W        W93013   4.878  37.593  13.797
26473W        W93014  10.736  21.969  11.014
26474W        W93015   6.661  40.203  10.826
26475W        W93016  38.565  38.388   2.101
26476W        W93017  15.563   8.286  13.435
26477W        W93018  13.062   4.862   0.501
26478W        W93019  40.002  27.076  13.429
26479W        W93020   9.458  14.102  13.973
26480W        W93021   3.093   5.900   3.764
26481W        W93022  14.079   0.321   3.682
26482W        W93023  33.492  39.781  10.668
26483W        W93024  43.920  22.577  13.436
26484W        W93025   1.933  20.894   2.017
26485W        W93026  27.463   6.388   1.798
26486W        W93027  42.185  20.997   1.311
26487W        W93028  22.649  44.011   1.938
26488W        W93029  17.403  40.766   1.573
26489W        W93030  24.058  40.858   3.581
26490W        W93031  16.143  24.821   4.336
26491W        W93032  27.416  22.918   4.168
26492W        W93033  14.534   2.394   3.140
26493W        W93034   8.598  42.468  14.769
26494W        W93035  40.922   0.924   1.694
26495W        W93036  35.942  39.617   4.221
26496W        W93037   7.889  44.375  10.771
26497W        W93038  21.332  36.203  13.906
26498W        W93039  25.652  28.671   0.441
26499W        W93040  29.770  44.208   2.566
26500W        W93041  44.359  31.452  11.252
26501W        W93042  31.475   4.400   0.515
26502W        W93043  29.155  18.480   1.866
26503W        W93044  41.372  42.465  14.926
26504W        W93045  37.192  15.793   4.090
26505W        W93046  25.095  39.752   0.765
26506W        W93047   2.893  32.452  13.632
26507W        W93048  12.107  44.844  10.627
26508W        W93049  26.390  31.058   1.825
26509W        W93050   7.930  41.141  11.269
26510W        W93051  22.582  30.706  14.813
26511W        W93052  17.134  23.122   0.180
26512W        W93053   0.290   1.441  13.105
26513W        W93054  24.710   0.274   0.322
26514W        W93055  38.295   4.891   4.664
26515W        W93056  42.011  38.127  11.182
26516W        W93057  14.856  12.305  11.887
26517W        W93058  34.000  14.868   0.840
26518W        W93059  21.065  23.127   4.617
26519W        W93060   5.014  37.679   2.757
26520W        W93061  44.902  27.669   0.967
26521W        W93062   1.493  41.562  12.522
26522W        W93063  29.214  18.189  14.660
26523W        W93064  40.009   4.222   3.689
26524W        W93065  15.552  36.928  14.829
26525W        W93066  43.714  21.578  10.667
26526W        W93067  38.167   5.694  12.738
26527W        W93068   1.915  12.203  11.533
26528W        W93069  11.029  36.546   3.199
26529W        W93070   5.901  35.455  13.859
26530W        W93071  20.245  34.067  14.440
26531W        W93072  42.560  17.658   2.358
26532W        W93073  23.714  21.825   0.612
26533W        W93074  38.310  34.816  14.469
26534W        W93075  44.061  12.746   5.127
26535W        W93076  23.086  12.755  13.357
26536W        W93077  33.550   8.162  11.189
26537W        W93078  36.681  26.557   3.074
26538W        W93079  34.056  26.651  12.460
26539W        W93080  17.377  40.971  14.832
26540W        W93081  25.673  19.198  13.697
26541W        W93082   7.273   2.027  12.230
26542W        W93083  20.005  44.934  13.382
26543W        W93084  16.827  32.163   0.906
26544W        W93085  20.795   0.387   4.693
26545W        W93086  41.094  38.476   1.651
26546W        W93087  23.539  36.338   2.223
26547W        W93088  27.795  10.810   1.491
26548W        W93089  39.871  39.312   0.715
26549W        W93090   4.915  10.041   0.495
26550W        W93091  43.473  33.286  10.326
26551W        W93092  33.450  21.697   1.413
26552W        W93093  16.040  42.475   4.768
26553W        W93094  24.166  23.576   0.326
26554W        W93095   8.264  43.856   2.608
26555W        W93096   3.479   1.197   5.363
26556W        W93097  40.671  29.255  14.836
26557W        W93098   9.878  25.681  13.819
26558W        W93099  39.082  42.010  12.099
26559W        W93100  26.783  26.726   3.784
26560W        W93101  13.576  30.083   1.821
26561W        W93102  16.045  22.198  10.717
26562W        W93103  11.313  42.437  11.443
26563W        W93104  19.644  32.663   2.428
26564W        W93105  22.112  22.766   4.111
26565W        W93106  32.405  35.959  12.839
26566W        W93107  44.286  31.357  11.777
26567W        W93108  29.074   9.759  11.570
26568W        W93109   9.355  44.473   2.411
26569W        W93110   8.837  37.115   3.830
26570W        W93111   1.635  22.157   1.355
26571W        W93112  38.870  22.070  14.315
26572W        W93113   3.278  42.829  12.759
26573W        W93114  32.821   4.495  14.312
26574W        W93115  29.453  41.975  12.594
26575W        W93116  30.605  35.296   1.380
26576W        W93117  19.406  42.733  11.658
26577W        W93118  34.096  21.528  11.724
26578W        W93119  15.715  12.112  13.110
26579W        W93120  30.765  13.571   0.333
26580W        W93121  20.182   0.030  12.883
26581W        W93122  24.498  42.976  11.291
26582W        W93123  40.408   8.343  10.787
26583W        W93124   6.326   3.018  12.359
26584W        W93125  34.662  12.734  10.793
26585W        W93126   8.273  37.715  10.304
26586W        W93127  44.383  14.959  12.450
26587W        W93128  19.443  38.462  14.995
26588W        W93129   5.519  32.132   3.264
26589W        W93130  21.198  35.363  14.324
26590W        W93131  10.784   9.957   1.439
26591W        W93132  13.007  36.388   3.165
26592W        W93133  38.155   3.517   3.388
26593W        W93134   0.476   0.652  14.788
26594W        W93135  27.464   0.910  13.828
26595W        W93136  12.471  29.938   0.051
26596W        W93137  16.699   5.451   4.181
26597W        W93138  17.845  37.064   2.634
26598W        W93139  17.081  39.402  12.483
26599W        W93140  31.782   4.364   3.361
26600W        W93141  44.480  27.197   1.579
26601W        W93142  32.356  13.829  12.126
26602W        W93143  36.848  32.343  11.132
26603W        W93144  25.812  34.013   3.537
26604W        W93145  41.785   8.733   3.888
26605W        W93146  13.264   5.402  14.640
26606W        W93147  29.415  12.895  12.463
26607W        W93148  30.524  39.092   0.774
26608W        W93149   0.419   0.081   2.258
26609W        W93150  25.458   3.748   0.258
26610W        W93151  43.985  20.473  10.682
26611W        W93152  44.260  23.859  13.406
26612W        W93153   5.825  28.412   3.205
26613W        W93154   2.378  27.690  14.360
26614W        W93155   3.840  10.152  13.642
26615W        W93156  42.224  41.498  12.564
26616W        W93157  20.713  11.902  12.096
26617W        W93158  15.369  36.492   1.823
26618W        W93159   2.409   6.207  13.934
26619W        W93160  26.726  22.997  11.652
26620W        W93161  34.427  29.072   3.083
26621W        W93162  33.413   4.924   4.763
26622W        W93163   6.433  17.681   3.248
26623W        W93164  36.934  20.870   1.777
26624W        W93165  32.913  21.085   1.890
26625W        W93166   3.907  36.131  11.508
26626W        W93167   2.687  36.027  11.081
26627W        W93168  32.982   6.431  10.830
26628W        W93169  20.708  25.929   0.440
26629W        W93170  36.968  26.481  12.406
26630W        W93171  28.249   6.179  13.459
26631W        W93172  27.757   6.475   4.213
26632W        W93173  33.199  32.012   0.771
26633W        W93174  31.499  44.602   2.050
26634W        W93175  36.433  22.182  12.606
26635W        W93176  29.934   5.250   4.625
26636W        W93177  34.970  35.095   2.732
26637W        W93178  36.035  30.496   1.366
26638W        W93179  33.584  15.141  12.802
26639W        W93180  12.389  39.768   2.743
26640W        W93181   0.362  35.877  12.996
26641W        W93182  30.921  38.396   0.157
26642W        W93183  19.115  38.284   2.779
26643W        W93184   7.444  33.860   3.653
26644W        W93185  37.269   3.478  14.869
26645W        W93186  15.269  35.049  10.629
26646W        W93187  28.156  42.984  11.517
26647W        W93188  16.597   6.796   3.664
26648W        W93189  41.770  23.652   4.167
26649W        W93190  20.479  29.988   3.339
26650W        W93191  18.784  32.370   2.758
26651W        W93192   2.278   3.809  14.776
26652W        W93193   5.040   6.607  13.945
26653W        W93194  42.932  33.932   4.277
26654W        W93195  41.135   3.482   2.595
26655W        W93196  18.333   9.881  14.735
26656W        W93197  20.819   4.849   5.033
26657W        W93198  44.559   6.964   1.459
26658W        W93199  23.867   5.993   1.848
26659W        W93200  32.025  43.450   0.045
26660W        W93201  19.053  20.779  10.782
26661W        W93202   7.877  36.358  10.809
26662W        W93203  26.744   0.246  10.491
26663W        W93204   7.754  28.221   0.133
26664W        W93205  35.503  24.442   2.311
26665W        W93206   3.785  31.944   2.136
26666W        W93207   3.102  21.730   1.300
26667W        W93208  34.644   2.773   1.415
26668W        W93209  38.328  17.468   2.512
26669W        W93210  17.566  35.163  11.140
26670W        W93211   2.500  35.354  12.643
26671W        W93212  20.682  21.538  14.033
26672W        W93213  33.428  43.550   3.135
26673W        W93214  19.127  19.573  12.720
26674W        W93215   3.274  26.518   3.045
26675W        W93216  39.819  12.846   0.723
26676W        W93217  30.155   9.867  12.184
26677W        W93218  21.763  20.000  13.888
26678W        W93219  38.879  44.044  10.094
26679W        W93220  11.807   9.844   0.991
26680W        W93221  19.774  20.581   0.422
26681W        W93222  25.868  35.129  13.496
26682W        W93223  44.855  36.587  14.798
26683W        W93224  12.257  20.016   2.848
26684W        W93225  37.564  27.644   3.677
26685W        W93226  41.809  27.929  13.210
26686W        W93227  20.403  27.927   4.123
26687W        W93228  34.332  38.579  11.152
26688W        W93229  35.056  41.592   2.671
26689W        W93230  41.014   4.275  13.223
26690W        W93231   9.062  27.189   0.406
26691W        W93232   3.807  39.906  14.011
26692W        W93233  14.598  24.685   3.246
26693W        W93234  30.009  25.587  14.595
26694W        W93235  16.964  27.993  13.448
26695W        W93236  38.418   8.203  13.764
26696W        W93237  24.287  13.147   3.388
26697W        W93238  12.285  37.741  14.950
26698W        W93239   4.793  35.551  12.989
26699W        W93240  16.793  36.858  11.937
26700W        W93241  15.523  20.317   1.241
26701W        W93242  37.394  18.584   0.214
26702W        W93243  40.383  18.632   0.807
26703W        W93244  11.609  42.222   1.373
26704W        W93245  28.914  43.463  14.720
26705W        W93246  14.527   2.423  13.742
26706W        W93247   0.744  14.423  13.546
26707W        W93248  16.210  10.406  11.500
26708W        W93249  17.673  40.691   0.315
26709W        W93250   5.688  34.652  14.676
26710W        W93251  41.307  41.835   1.045
26711W        W93252  42.557  35.156   3.691
26712W        W93253  38.949   1.926   3.518
26713W        W93254   8.876  14.132  10.640
26714W        W93255  27.910  20.250   4.916
26715W        W93256  37.603  22.562  11.168
26716W        W93257  14.077  24.719  14.953
26717W        W93258  29.844  34.101   4.175
26718W        W93259  31.476   3.005   3.768
26719W        W93260  43.540  16.811   0.891
26720W        W93261  20.214  35.973  11.640
26721W        W93262  22.982  36.405   3.229
26722W        W93263   0.091  42.871  14.735
26723W        W93264   8.352   7.995  11.462
26724W        W93265  20.548  20.805   1.321
26725W        W93266  15.044  15.096   0.895
26726W        W93267  29.070  44.771  12.986
26727W        W93268  29.393   4.372  14.762
26728W        W93269  32.251  24.591   0.854
26729W        W93270  13.068  29.262   3.288
26730W        W93271  43.356  29.695  14.700
26731W        W93272   4.309   1.877   3.837
26732W        W93273  26.639  39.567  11.967
26733W        W93274  11.845   7.426   1.775
26734W        W93275  32.357  40.114  14.303
26735W        W93276  37.278  12.653   4.580
26736W        W93277  33.613  28.099  13.430
26737W        W93278  43.819  17.753   1.214
26738W        W93279  29.439  38.570  13.003
26739W        W93280  17.527  27.524  13.002
26740W        W93281  20.919   0.205   4.236
26741W        W93282  11.205  33.526  10.455
26742W        W93283   2.899  10.227   2.343
26743W        W93284  21.873  39.562   0.176
26744W        W93285   0.209  19.285   2.729
26745W        W93286  21.666  34.579  10.698
26746W        W93287  15.853   9.844   0.971
26747W        W93288  13.221  40.364  13.979
26748W        W93289  38.134  38.371  14.236
26749W        W93290  42.233  42.029  11.089
26750W        W93291  22.962  25.117   4.114
26751W        W93292  34.507  29.898  13.057
26752W        W93293  40.446  20.000   1.181
26753W        W93294  44.411  19.223  12.525
26754W        W93295  21.110  22.966  11.062
26755W        W93296   2.784  43.602   1.207
26756W        W93297   1.809  13.744   2.400
26757W        W93298  16.067  38.302   1.902
26758W        W93299  44.023   6.422   1.518
26759W        W93300  21.538  29.974   4.493
26760W        W93301  26.502  12.326  11.680
26761W        W93302   6.693  41.378  12.160
26762W        W93303  14.750  21.746  12.382
26763W        W93304  39.506  15.723   2.695
26764W        W93305  20.773  26.509   4.175
26765W        W93306  17.157   3.745   1.309
26766W        W93307  40.902  43.908   0.629
26767W        W93308  36.868  27.854  10.810
26768W        W93309  36.085   8.830  11.546
26769W        W93310  27.064  10.693   4.537
26770W        W93311  31.955   6.650  12.673
26771W        W93312   5.030  27.162   2.227
26772W        W93313  34.850   1.005  12.078
26773W        W93314   5.375  14.857  10.439
26774W        W93315  24.051  17.524  11.209
26775W        W93316  11.618  24.023  14.518
26776W        W93317  38.780   4.189   1.834
26777W        W93318  35.695  41.485  14.847
26778W        W93319  18.000  41.757  14.855
26779W        W93320  36.951  32.520   4.182
26780W        W93321  30.524  26.551   3.199
26781W        W93322  13.302   4.880  13.322
26782W        W93323   3.443  25.239   2.768
26783W        W93324   3.455   4.252  13.503
26784W        W93325  32.512  18.789   2.699
26785W        W93326  41.161   0.324  13.999
26786W        W93327  24.819   5.337  10.226
26787W        W93328  15.141   3.990   3.824
26788W        W93329  13.296   9.705  14.954
26789W        W93330  34.684  19.261  12.929
26790W        W93331   0.758   2.424   2.798
26791W        W93332  32.980  16.642  14.106
26792W        W93333  30.523  31.927  10.028
26793W        W93334   5.157  25.902  14.275
26794W        W93335  38.475  30.540   2.439
26795W        W93336  19.229  13.627   1.355
26796W        W93337  15.286  26.877  11.126
26797W        W93338  16.219   4.721   2.811
26798W        W93339  22.910  18.820   4.090
26799W        W93340  32.069   2.229  13.081
26800W        W93341  12.110   4.811   0.958
26801W        W93342  43.469  35.423   0.494
26802W        W93343  28.887  42.661   3.164
26803W        W93344   1.111  26.756   2.079
26804W        W93345  25.941  33.299  12.439
26805W        W93346  12.597  42.713   3.391
26806W        W93347  16.673  29.028  13.888
26807W        W93348   6.601  31.991   4.642
26808W        W93349  34.446   4.826  12.857
26809W        W93350  11.073   5.051   1.314
26810W        W93351  11.683  44.800  13.502
26811W        W93352  23.612  38.256  13.113
26812W        W93353  39.541  27.548   2.284
26813W        W93354  19.250  36.608  11.975
26814W        W93355  12.291  31.129  12.038
26815W        W93356  14.999  27.990  14.702
26816W        W93357  36.063  39.049  14.480
26817W        W93358  40.447   8.765   0.131
26818W        W93359  44.336  24.236  10.999
26819W        W93360  30.683  43.302  11.192
26820W        W93361  41.964  10.447  13.450
26821W        W93362  17.650  16.642   3.606
26822W        W93363  11.911  38.935  10.114
26823W        W93364   5.680  23.690   4.444
26824W        W93365   0.384   7.194  11.750
26825W        W93366  32.195  27.578  13.439
26826W        W93367   0.399  44.307  14.494
26827W        W93368   4.818   6.200   4.907
26828W        W93369  41.879  22.108  10.711
26829W        W93370  34.023  32.056  14.259
26830W        W93371  12.197   1.831  13.596
26831W        W93372  37.029  28.215   4.152
26832W        W93373   3.212  44.740   0.012
26833W        W93374  33.873   3.339   2.752
26834W        W93375  14.357  33.559   4.498
26835W        W93376  15.637  13.395   0.740
26836W        W93377  15.692  35.624   0.361
26837W        W93378  12.956  19.239   3.406
26838W        W93379   1.509  14.213   3.926
26839W        W93380  13.389   8.362   2.365
26840W        W93381  37.133  14.591  13.886
26841W        W93382   8.866  33.774  12.877
26842W        W93383  19.709  44.538   4.101
26843W        W93384  24.543  31.967  11.040
26844W        W93385  24.614  19.258   2.207
26845W        W93386  29.934  37.439   4.043
26846W        W93387  29.888  18.998  14.676
26847W        W93388   4.885   9.396  13.045
26848W        W93389  18.523  10.832   3.147
26849W        W93390  37.222  20.672   4.371
26850W        W93391  25.909  19.256  12.930
26851W        W93392  34.421  36.289  10.721
26852W        W93393  42.894  35.465   4.678
26853W        W93394  11.084  26.726   3.085
26854W        W93395  25.986   0.455   4.718
26855W        W93396  24.650  37.999   2.259
26856W        W93397   6.451  20.037   2.662
26857W        W93398  18.260  31.101   5.507
26858W        W93399   2.126  19.647   5.368
26859W        W93400  34.844  41.851   0.730
26860W        W93401   2.604  11.689   1.761
26861W        W93402  39.873  19.963   3.261
26862W        W93403  42.474  43.616   0.490
26863W        W93404   0.737   6.211   4.614
26864W        W93405  26.654  14.036   3.616
26865W        W93406  43.056  17.878  11.784
26866W        W93407   5.242  25.108   3.514
26867W        W93408  27.034  12.764   0.413
26868W        W93409  28.943  38.933   2.614
26869W        W93410  17.067  35.861  13.331
26870W        W93411  22.054   9.815   2.464
26871W        W93412  12.114  16.210   2.669
26872W        W93413  33.517  44.500  14.551
26873W        W93414  11.220  44.024   2.781
26874W        W93415  25.389  36.948   4.504
26875W        W93416  14.684  21.077  10.295
26876W        W93417  35.359  27.043   1.926
26877W        W93418   2.414   8.916   0.339
26878W        W93419  29.232  12.112   4.332
26879W        W93420  29.191  44.268  12.880
26880W        W93421  38.894  31.881   3.152
26881W        W93422   4.988  29.460  14.991
26882W        W93423  12.296  38.395   4.255
26883W        W93424   3.781  22.357   1.475
26884W        W93425  30.974  19.227   2.286
26885W        W93426  16.673  36.318   4.203
26886W        W93427  35.149   6.187   4.230
26887W        W93428   2.822   1.264  10.388
26888W        W93429   6.289  23.585   2.741
26889W        W93430  19.675  20.813  14.522
26890W        W93431  28.610  16.175  11.119
26891W        W93432  35.855  10.931  13.275
26892W        W93433  30.858   0.958   4.507
26893W        W93434  39.105  11.810   4.391
26894W        W93435  28.837   8.911  11.506
26895W        W93436   4.728  13.297   3.142
26896W        W93437  40.008  29.841   0.924
26897W        W93438  36.037  34.531   2.469
26898W        W93439  38.890  24.747   1.928
26899W        W93440  19.478  23.037  12.562
26900W        W93441  18.162  20.482   4.315
26901W        W93442  13.368  43.322   3.376
26902W        W93443  20.238   8.229   3.396
26903W        W93444  39.911  34.845   2.188
26904W        W93445  35.036  27.525  14.524
26905W        W93446  14.505  33.762   1.936
26906W        W93447  16.087  38.671  13.254
26907W        W93448  41.233  22.089  14.782
26908W        W93449  15.939   6.357   4.823
26909W        W93450   4.621  31.180   2.209
26910W        W93451  44.276  18.799   4.836
26911W        W93452  26.012  38.175   2.119
26912W        W93453   6.764   8.900  13.570
26913W        W93454   0.901  36.039   4.684
26914W        W93455  10.429  35.107   0.873
26915W        W93456  28.517  14.995  14.908
26916W        W93457  43.215  23.152  13.438
26917W        W93458   4.753  10.529   0.504
26918W        W93459  24.317  29.145  11.714
26919W        W93460  40.367  41.826   4.231
26920W        W93461  35.854  40.543   3.140
26921W        W93462  36.802   7.029   1.673
26922W        W93463  23.657  16.126   0.567
26923W        W93464  22.422  24.130   4.141
26924W        W93465  23.225   8.729  13.417
26925W        W93466   1.217  22.220   3.867
26926W        W93467  24.946  28.035  14.922
26927W        W93468  29.101  25.302   1.844
26928W        W93469  34.665   1.432   3.222
26929W        W93470  36.942  26.448   0.374
26930W        W93471   4.474  28.421  13.044
26931W        W93472  39.942  31.955   0.729
26932W        W93473  37.223  14.303  12.937
26933W        W93474  32.545   3.920   3.188
26934W        W93475  37.916  24.083  12.098
26935W        W93476  12.094  43.347  12.087
26936W        W93477  15.862   4.976  10.747
26937W        W93478   4.089  41.620   4.559
26938W        W93479  38.497  37.382  13.668
26939W        W93480  31.479  40.741  13.118
26940W        W93481  43.053  15.218  11.401
26941W        W93482   2.206  31.155  11.429
26942W        W93483  15.306   0.958  14.102
26943W        W93484   7.359  38.337   4.006
26944W        W93485  34.817  28.676   4.481
26945W        W93486   6.439  12.091   1.175
26946W        W93487  19.354  18.251  12.989
26947W        W93488  27.654  33.041  14.539
26948W        W93489  35.133  43.992   4.446
26949W        W93490  43.460   5.912   3.800
26950W        W93491  15.161  14.221   1.672
26951W        W93492  32.059  14.690  12.197
26952W        W93493  24.485   8.033  12.748
26953W        W93494   3.781  39.836   0.902
26954W        W93495   9.091  38.113  11.567
26955W        W93496   3.225  18.486  11.735
26956W        W93497  36.483  19.654   2.474
26957W        W93498  10.690  43.387   0.566
26958W        W93499  36.018  15.131  13.327
26959W        W93500   9.367  21.619  11.168
26960W        W93501   4.254  28.532   1.503
26961W        W93502  39.321   3.515   4.195
26962W        W93503  40.481  42.031  12.015
26963W        W93504  10.851  40.662  13.475
26964W        W93505  36.611  14.578  13.865
26965W        W93506  18.931  38.408  14.982
26966W        W93507  28.116  12.204  12.470
26967W        W93508  38.366   0.703   4.809
26968W        W93509  34.395  17.435   4.261
26969W        W93510  21.127   2.220   3.496
26970W        W93511  29.774   5.534   3.624
26971W        W93512  38.509  18.236   1.887
26972W        W93513  21.952  34.977   4.017
26973W        W93514  22.971  35.295  14.682
26974W        W93515  14.601  33.932  13.872
26975W        W93516   2.777  22.653  12.570
26976W        W93517  19.388   7.747  13.790
26977W        W93518   5.330  43.166  11.153
26978W        W93519  12.273   5.379   2.183
26979W        W93520  31.557  32.844  12.564
26980W        W93521  12.237  17.850  13.477
26981W        W93522   3.447   7.034   0.098
26982W        W93523  32.483  32.484  14.254
26983W        W93524  41.794   3.759  13.271
26984W        W93525  23.646  31.208  13.412
26985W        W93526  27.788  37.668   0.879
26986W        W93527  15.124  37.149  12.509
26987W        W93528  26.640  23.552   0.996
26988W        W93529  27.895  27.102  12.115
26989W        W93530  30.796  28.415  12.487
26990W        W93531  17.172  19.333  12.959
26991W        W93532  12.887  42.267   3.464
26992W        W93533  32.873  23.409  11.917
26993W        W93534  29.308  13.851   3.376
26994W        W93535  40.823  23.228   0.461
26995W        W93536  17.740  35.897   3.317
26996W        W93537  22.135  43.884   1.891
26997W        W93538  25.342  19.906  10.980
26998W        W93539  19.626  13.987   1.917
26999W        W93540  23.069  26.975  14.073
27000W        W93541  41.258  37.712  11.716
27001W        W93542  24.160   8.844   0.871
27002W        W93543  38.093  33.856   3.528
27003W        W93544  18.570  36.078  14.430
27004W        W93545  32.183  35.182  13.907
27005W        W93546  31.077  13.938   5.132
27006W        W93547   3.232  18.041   2.392
27007W        W93548   2.160  12.051   2.443
27008W        W93549  23.487  24.181   4.081
27009W        W93550  36.121  16.333  12.446
27010W        W93551   3.505  20.654   2.851
27011W        W93552   0.948  18.061   2.392
27012W        W93553  26.165  27.232  11.829
27013W        W93554  27.601  17.769  12.018
27014W        W93555  42.087  40.129   1.150
27015W        W93556  21.212  34.487  10.945
27016W        W93557  29.198  17.773   4.161
27017W        W93558   7.492   5.745   0.114
27018W        W93559  35.150  19.581   0.816
27019W        W93560   0.057  34.961  10.060
27020W        W93561  39.335  33.468  11.665
27021W        W93562  21.197  24.655  11.987
27022W        W93563  20.317  25.872  13.521
27023W        W93564  23.453  25.032  10.475
27024W        W93565  41.067  30.008   4.419
27025W        W93566  28.942  12.167   1.352
27026W        W93567  35.329  30.391  12.568
27027W        W93568  20.322  16.755   4.037
27028W        W93569  42.327  19.135   2.805
27029W        W93570   3.233  25.694   0.991
27030W        W93571   6.212   9.719   2.926
27031W        W93572   8.773  27.464   3.365
27032W        W93573  36.430  18.189  10.689
27033W        W93574   1.524  18.308  11.687
27034W        W93575  29.175  24.248  13.904
27035W        W93576  43.634   6.801  13.949
27036W        W93577  37.549  43.964  12.881
27037W        W93578   5.161  38.635   4.238
27038W        W93579  43.395  37.694   4.725
27039W        W93580  40.294  10.640   3.577
27040W        W93581  27.638  19.791  12.127
27041W        W93582  17.577   7.344  14.444
27042W        W93583  27.512   7.423   4.159
27043W        W93584   9.659  34.041   4.569
27044W        W93585  41.305   0.514  10.558
27045W        W93586  24.240  24.382  11.993
27046W        W93587  31.131  43.203   4.497
27047W        W93588   0.009  25.666  12.965
27048W        W93589  24.206  31.280   2.044
27049W        W93590  39.405  23.003  14.210
27050W        W93591  40.640  14.615  10.875
27051W        W93592  26.622  25.230  13.872
27052W        W93593  17.325  33.005   1.381
27053W        W93594   9.818  27.217  12.031
27054W        W93595  26.785   4.205  14.604
27055W        W93596  37.891   4.826  10.228
27056W        W93597   3.823  17.232   1.390
27057W        W93598  13.075  17.100  12.878
27058W        W93599  33.448  31.508   1.285
27059W        W93600   7.447  35.206   1.865
27060W        W93601  42.886  43.979  14.868
27061W        W93602  16.361  29.188  12.011
27062W        W93603  21.653  41.734   2.772
27063W        W93604  25.156   0.021   3.306
27064W        W93605  17.574  37.777  11.831
27065W        W93606  11.528  43.655   2.559
27066W        W93607  42.929  29.114   4.556
27067W        W93608  36.103  18.109   3.235
27068W        W93609  33.107  19.501  12.511
27069W        W93610   3.893   0.405   4.903
27070W        W93611  35.162  18.479  13.574
27071W        W93612  16.575  24.073  11.184
27072W        W93613  40.645  16.101   0.728
27073W        W93614  30.285  43.091  14.847
27074W        W93615   0.309  38.039  13.384
27075W        W93616  41.151  38.666   0.103
27076W        W93617  18.021  22.139  11.912
27077W        W93618  12.300  22.026   1.732
27078W        W93619  42.403  24.459   1.219
27079W        W93620  37.999  36.377   2.627
27080W        W93621  19.474  16.497   5.437
27081W        W93622  42.771  13.154   0.708
27082W        W93623  21.170  19.543   2.795
27083W        W93624  13.333  44.724   3.257
27084W        W93625   0.619  39.828   2.970
27085W        W93626  33.600  14.300   4.565
27086W        W93627   9.662  22.667   2.626
27087W        W93628   9.454  20.100   0.919
27088W        W93629  27.742   6.239  10.804
27089W        W93630  21.220  25.092  14.466
27090W        W93631  39.967  28.081  13.337
27091W        W93632  40.131  29.043  12.606
27092W        W93633  37.294   4.005  11.235
27093W        W93634   2.946  19.340  14.426
27094W        W93635  28.361   5.182   2.226
27095W        W93636  33.419  42.451   2.236
27096W        W93637  21.184  14.758   1.187
27097W        W93638   5.421  11.195  14.323
27098W        W93639  16.250   8.368   0.108
27099W        W93640   1.186  14.269  12.080
27100W        W93641  42.066  11.925  12.141
27101W        W93642   0.191  18.816  14.058
27102W        W93643  23.094  33.829  13.296
27103W        W93644  15.841  38.498   0.450
27104W        W93645  19.671   2.161   4.078
27105W        W93646   5.536  19.438  11.234
27106W        W93647  42.147  24.956  11.070
27107W        W93648  15.489   4.219  11.105
27108W        W93649  41.841  35.586   4.129
27109W        W93650  43.867  36.674   2.739
27110W        W93651  15.569   6.369   3.304
27111W        W93652  25.050  28.915   1.511
27112W        W93653   9.296  42.483   2.158
27113W        W93654   9.132  14.803   2.736
27114W        W93655  41.858  29.047   4.331
27115W        W93656   7.396  20.267   1.720
27116W        W93657  43.718   5.321  14.503
27117W        W93658  13.589  12.554   4.458
27118W        W93659  18.996   9.159  13.929
27119W        W93660   0.859  21.697  10.958
27120W        W93661  43.725  15.140  12.657
27121W        W93662   2.694  32.042  11.194
27122W        W93663  33.528  10.270  13.605
27123W        W93664  41.781   6.637   4.950
27124W        W93665  33.681  44.918   1.854
27125W        W93666  18.516  26.070  14.328
27126W        W93667  20.225   7.166  13.556
27127W        W93668  42.823   5.295  11.944
27128W        W93669   4.043  28.318   0.025
27129W        W93670  17.781  35.562   4.189
27130W        W93671  42.078  42.236   1.318
27131W        W93672  36.645  11.095  11.520
27132W        W93673  26.578  32.345  10.942
27133W        W93674   6.157  33.516  13.574
27134W        W93675  21.447  29.303   2.705
27135W        W93676  38.584  41.058  10.520
27136W        W93677  28.935  27.377  13.398
27137W        W93678  29.489  30.006   4.616
27138W        W93679  14.636  19.242  11.247
27139W        W93680   1.847  43.763   4.250
27140W        W93681   0.162  41.817   4.036
27141W        W93682  16.139   1.845  11.850
27142W        W93683  33.704  35.791  11.595
27143W        W93684  27.712  15.749  13.369
27144W        W93685   0.529  33.611  11.622
27145W        W93686   3.226  20.466  12.120
27146W        W93687  34.661  28.200   3.246
27147W        W93688  26.452   5.451   4.534
27148W        W93689   1.289  22.750   4.706
27149W        W93690  23.744  32.507   0.298
27150W        W93691  16.236  37.852  14.962
27151W        W93692  24.275  27.142   1.317
27152W        W93693  30.521  33.417   3.163
27153W        W93694  35.978  31.658   4.520
27154W        W93695  29.547  30.219   1.214
27155W        W93696  18.632  30.966   1.829
27156W        W93697   8.168  18.689   2.180
27157W        W93698  30.172  11.584  13.821
27158W        W93699  30.927  34.061   4.251
27159W        W93700  15.198  23.364  13.753
27160W        W93701  14.367  29.618   0.787
27161W        W93702   2.554  24.023  13.417
27162W        W93703  25.035  16.480   1.453
27163W        W93704   0.138  16.367   2.640
27164W        W93705   2.892  36.981  11.405
27165W        W93706  14.782  34.931   2.174
27166W        W93707  43.753  21.184  13.325
27167W        W93708   8.704  31.385  11.762
27168W        W93709   1.845  25.359   0.285
27169W        W93710  18.919  41.165   9.745
27170W        W93711  43.727  44.832   3.722
27171W        W93712  22.686  16.666  10.727
27172W        W93713   0.927   1.026   1.353
27173W        W93714  23.097   3.987  13.956
27174W        W93715  21.514  26.607   3.438
27175W        W93716  42.923  43.439  14.746
27176W        W93717  23.997  19.824  11.550
27177W        W93718  39.660  10.446   3.199
27178W        W93719  28.762  15.542  13.290
27179W        W93720  33.164   5.857  13.468
27180W        W93721  22.599   3.938  12.491
27181W        W93722   7.883  14.195   4.548
27182W        W93723  25.171  21.706  13.806
27183W        W93724  18.721  29.498   3.667
27184W        W93725  18.327   9.023  12.849
27185W        W93726   3.261  30.652  14.437
27186W        W93727   1.759   2.857  12.183
27187W        W93728  33.117   9.040   2.214
27188W        W93729  16.401   3.197   0.516
27189W        W93730  14.593  40.376   2.697
27190W        W93731  31.918  36.074   2.318
27191W        W93732  35.086  37.932   1.747
27192W        W93733  28.960  20.177  12.358
27193W        W93734  35.519  30.966   0.296
27194W        W93735  14.906  34.645   4.747
27195W        W93736  44.761  23.171   1.822
27196W        W93737  44.178  11.272  13.804
27197W        W93738  40.041  41.414   1.431
27198W        W93739   0.250   6.330  12.194
27199W        W93740  17.262  39.213  10.670
27200W        W93741   2.452  23.455   2.094
27201W        W93742  11.864  24.942  12.619
27202W        W93743  35.825  14.688  11.847
27203W        W93744   1.700   1.976   2.171
27204W        W93745  29.337  23.465  12.482
27205W        W93746  27.037  13.071  12.557
27206W        W93747  44.879  35.303  10.421
27207W        W93748  29.901   8.100  13.437
27208W        W93749  10.558  40.051  12.437
27209W        W93750  37.580  23.802   4.249
27210W        W93751   2.003  20.310   3.886
27211W        W93752  36.128   5.175   9.866
27212W        W93753  27.679  16.809   2.301
27213W        W93754   7.293  37.847  13.428
27214W        W93755   2.826   0.778   2.085
27215W        W93756  44.571  14.537   0.509
27216W        W93757   0.883   6.342  11.311
27217W        W93758  32.900  40.085   0.075
27218W        W93759  31.090  11.287   2.647
27219W        W93760  39.337  32.047   3.565
27220W        W93761  40.485  44.843   0.354
27221W        W93762   1.660   2.577   3.657
27222W        W93763  16.167   4.748   0.091
27223W        W93764  12.589  30.403   9.788
27224W        W93765  11.383  25.575   4.211
27225W        W93766   7.391  34.583   1.408
27226W        W93767  22.207   0.735   1.126
27227W        W93768  38.906  34.898   3.590
27228W        W93769  42.174  14.758   2.722
27229W        W93770  10.356  12.587   0.558
27230W        W93771  19.132   6.882  13.614
27231W        W93772  23.749  20.072  14.018
27232W        W93773  24.644  35.998  13.020
27233W        W93774  30.958  35.883   5.116
27234W        W93775  39.791  28.651  12.548
27235W        W93776  39.418  40.922   4.142
27236W        W93777  20.575  16.394  11.637
27237W        W93778   0.444  30.700  11.705
27238W        W93779  39.426  32.964  11.575
27239W        W93780  17.018  39.581  13.846
27240W        W93781  12.413  30.533   3.217
27241W        W93782  32.914  12.029  11.089
27242W        W93783   9.268  19.702   0.647
27243W        W93784  32.068  21.096  11.087
27244W        W93785  36.316  23.545   0.860
27245W        W93786  17.593  16.621   0.299
27246W        W93787  26.958  24.193  12.908
27247W        W93788   0.233  30.467   2.709
27248W        W93789  31.154  31.953  13.446
27249W        W93790  20.649  38.854   3.240
27250W        W93791   0.336   5.292  10.716
27251W        W93792  28.916   4.215   1.333
27252W        W93793  11.139  18.414   3.072
27253W        W93794  30.412   8.888   2.962
27254W        W93795  31.396  26.303   0.923
27255W        W93796  23.995  40.550  13.454
27256W        W93797  20.204  19.349   3.829
27257W        W93798  16.385  18.965  11.161
27258W        W93799   2.391  18.610   5.035
27259W        W93800  41.539   1.552  14.892
27260W        W93801   4.945   7.452  10.621
27261W        W93802  31.978   7.814   3.695
27262W        W93803  30.617  11.826  13.847
27263W        W93804  28.494  13.787   5.276
27264W        W93805  19.232  12.810  14.336
27265W        W93806  10.303  41.720  11.099
27266W        W93807  39.936  12.318  11.614
27267W        W93808  24.719  16.065  12.400
27268W        W93809  23.631  13.310  12.314
27269W        W93810  42.778  22.796  10.489
27270W        W93811  24.175   1.877  11.173
27271W        W93812  32.049  19.605   4.443
27272W        W93813  34.026  10.417   0.357
27273W        W93814  42.548  13.138  13.460
27274W        W93815  12.698   1.464   4.185
27275W        W93816   9.376  22.717  13.497
27276W        W93817   8.423   2.465   0.487
27277W        W93818  31.061  22.584  13.089
27278W        W93819  13.821  12.792  12.935
27279W        W93820  40.275  30.644  11.696
27280W        W93821  36.498  24.200  12.486
27281W        W93822  20.201  38.865  10.011
27282W        W93823  12.035  33.732   0.967
27283W        W93824  39.844   4.722   2.456
27284W        W93825  16.598  16.631   1.839
27285W        W93826  30.381   4.260  14.900
27286W        W93827  37.975  17.658   1.019
27287W        W93828  36.007   3.596  11.178
27288W        W93829  35.521  29.662  10.539
27289W        W93830  16.822   2.860   1.167
27290W        W93831   0.719   8.876  14.111
27291W        W93832  43.485  10.527   4.285
27292W        W93833  26.216  23.240  14.897
27293W        W93834   5.187  43.500   2.631
27294W        W93835  42.552  40.297   0.922
27295W        W93836  33.151  17.607   1.335
27296W        W93837  11.313  21.522   3.121
27297W        W93838   0.966  39.481  12.908
27298W        W93839  11.863  39.045  14.702
27299W        W93840  13.263  39.274   2.880
27300W        W93841  44.705  44.510  11.055
27301W        W93842  39.377  31.458   0.831
27302W        W93843  32.073  11.705  14.842
27303W        W93844   7.339  26.044   0.496
27304W        W93845  27.081  44.058  12.447
27305W        W93846  38.319  44.532   1.720
27306W        W93847   7.718   0.324   0.618
27307W        W93848  19.940  25.791  12.975
27308W        W93849  44.385  10.805  10.602
27309W        W93850  21.580  37.690   0.902
27310W        W93851  17.756  14.124  13.999
27311W        W93852   0.495  25.524  13.873
27312W        W93853  12.913  43.856  14.738
27313W        W93854  30.481  32.989  14.971
27314W        W93855  35.042  16.627  14.946
27315W        W93856   4.764  40.622  13.134
27316W        W93857  14.562  33.317  10.640
27317W        W93858  35.898  38.810   3.239
27318W        W93859  19.828   2.997  10.863
27319W        W93860  24.631   3.709   3.508
27320W        W93861  42.043   0.403  12.413
27321W        W93862  23.596  15.184  11.569
27322W        W93863  26.723  19.551   3.866
27323W        W93864  18.662  30.951  12.115
27324W        W93865  25.701  43.327  10.493
27325W        W93866   6.291  23.869  12.083
27326W        W93867   2.463  37.599  12.966
27327W        W93868  28.874  42.490  12.105
27328W        W93869  20.045  31.549   2.237
27329W        W93870  39.000  26.607  11.933
27330W        W93871  40.381  26.051   2.397
27331W        W93872  28.457  22.525  13.174
27332W        W93873  22.218  14.033  12.131
27333W        W93874  30.243  38.321   1.249
27334W        W93875  11.755  41.955  11.997
27335W        W93876   1.696  11.767   4.363
27336W        W93877  33.977  12.500   5.183
27337W        W93878  21.646  23.367   0.909
27338W        W93879   3.745  32.963  11.200
27339W        W93880  42.938  42.281  10.721
27340W        W93881  23.226  28.360  11.871
27341W        W93882  12.436  18.809  14.571
27342W        W93883   6.368  32.979  11.959
27343W        W93884  44.356   8.334   4.585
27344W        W93885   0.214  35.737   2.095
27345W        W93886   7.249  24.113   4.474
27346W        W93887   0.291  18.871   3.150
27347W        W93888  12.644  42.252  11.012
27348W        W93889  30.284   5.922  14.227
27349W        W93890  26.941  38.390  10.943
27350W        W93891   1.839  33.599   3.501
27351W        W93892  31.623  38.551   0.312
27352W        W93893  40.983  42.946  13.501
27353W        W93894  32.466  27.122  11.168
27354W        W93895   2.701  37.568   2.822
27355W        W93896   1.035  24.732   2.813
27356W        W93897  30.107  10.504   0.534
27357W        W93898   0.487  26.080   4.688
27358W        W93899  19.828   3.898   1.875
27359W        W93900  31.307  35.293  14.031
27360W        W93901  19.111  17.707   3.588
27361W        W93902  41.125  44.876  12.068
27362W        W93903  38.532  36.529  13.558
27363W        W93904  13.235   1.045   0.694
27364W        W93905  33.342   7.536  14.504
27365W        W93906  29.899  10.729  10.531
27366W        W93907   4.853  20.542   3.096
27367W        W93908  24.084   0.745  14.407
27368W        W93909  27.944  22.492  11.074
27369W        W93910  43.051  16.310   4.023
27370W        W93911   9.728  23.681  10.452
27371W        W93912  20.390   9.438  11.556
27372W        W93913  13.870   8.193   2.249
27373W        W93914  29.056  37.426   3.510
27374W        W93915  14.180  43.655   2.166
27375W        W93916  29.159  25.692   3.758
27376W        W93917  27.145  37.984  11.509
27377W        W93918  40.740  24.059   2.279
27378W        W93919   4.817  36.785   1.235
27379W        W93920   1.464  19.218   1.228
27380W        W93921  19.722  34.048  14.082
27381W        W93922  21.958  22.834   2.791
27382W        W93923  26.085  28.660  10.631
27383W        W93924  18.106  22.089  13.762
27384W        W93925   3.272  18.714   3.108
27385W        W93926  27.640  22.297  12.863
27386W        W93927  36.143  33.127   1.820
27387W        W93928  38.840  12.455   3.749
27388W        W93929  21.964   4.537  11.535
27389W        W93930   0.812  43.459  12.571
27390W        W93931   1.028  39.787  11.619
27391W        W93932   0.167   5.119   4.451
27392W        W93933  25.529   5.596  12.384
27393W        W93934  18.055  26.045   3.401
27394W        W93935  19.588  19.605   1.913
27395W        W93936  16.351  14.115   0.947
27396W        W93937   6.944  36.311   2.912
27397W        W93938  30.673   3.256  10.742
27398W        W93939   5.432  44.739  10.339
27399W        W93940  22.447  17.262   0.015
27400W        W93941  41.027  19.491  12.042
27401W        W93942  44.015  16.598   0.707
27402W        W93943   9.142  11.907   9.870
27403W        W93944  39.468  33.702   4.526
27404W        W93945  24.757  26.327  12.062
27405W        W93946  43.579  34.937   3.673
27406W        W93947  42.278  39.437  10.630
27407W        W93948  11.444  26.076   0.332
27408W        W93949  13.905  22.004  11.992
27409W        W93950  12.106  12.398  14.160
27410W        W93951  34.351  26.543   2.403
27411W        W93952  41.442  36.137  13.505
27412W        W93953  11.034   4.245   0.268
27413W        W93954  18.046  27.120   2.780
27414W        W93955  35.757   7.299  14.860
27415W        W93956  29.607  42.007  11.159
27416W        W93957   7.897   9.119   4.666
27417W        W93958  37.295  27.019  12.874
27418W        W93959   7.811  40.078  12.897
27419W        W93960  40.866  14.125  10.936
27420W        W93961  43.277  21.453   2.574
27421W        W93962  35.552  31.313   4.622
27422W        W93963  15.830  37.773  14.188
27423W        W93964  14.327  35.316   2.866
27424W        W93965   6.949  27.105   2.829
27425W        W93966   2.821  41.830  10.614
27426W        W93967  27.934   4.242  13.889
27427W        W93968  10.821  15.506  13.373
27428W        W93969  34.568   9.276   1.435
27429W        W93970  39.409  43.357  13.677
27430W        W93971  15.719  24.686  12.596
27431W        W93972  42.542  38.563   4.130
27432W        W93973  12.553  26.462   0.355
27433W        W93974  30.977   3.371   0.733
27434W        W93975  25.947   7.988   1.758
27435W        W93976   0.733   6.416  13.145
27436W        W93977  15.229   7.136   3.692
27437W        W93978  37.439  26.557  10.262
27438W        W93979   8.561  23.107   4.738
27439W        W93980  35.422  32.436  11.638
27440W        W93981  35.394  27.258  10.781
27441W        W93982  44.689  39.183   2.416
27442W        W93983  24.117  11.360   0.705
27443W        W93984  41.367  22.314   2.827
27444W        W93985  44.513  22.316   0.451
27445W        W93986  18.872   5.983  11.610
27446W        W93987  31.868  24.000  14.885
27447W        W93988  31.996  42.729  11.567
27448W        W93989  44.776   6.691  12.465
27449W        W93990  39.447  43.557  14.733
27450W        W93991  10.254  43.270  12.832
27451W        W93992  15.718  30.842  12.449
27452W        W93993  28.357   5.467   3.735
27453W        W93994   1.488  35.516   1.463
27454W        W93995  14.893  42.750  12.295
27455W        W93996   7.481   9.424  14.289
27456W        W93997  18.194  30.744  12.724
27457W        W93998  25.473   2.147  13.472
27458W        W93999  36.258  37.273   3.251
27459W        W94000   5.752   0.265  12.472
27460W        W94001  39.927  14.335  12.910
27461W        W94002  35.290  38.931  12.814
27462W        W94003  16.084  26.869  11.569
27463W        W94004  36.246   7.626  11.157
27464W        W94005   6.578  32.502  12.810
27465W        W94006   6.354  27.406  11.685
27466W        W94007  41.795  18.075  12.178
27467W        W94008  41.850  13.121  13.934
27468W        W94009  31.796  32.605   1.354
27469W        W94010  13.846   5.783   0.050
27470W        W94011  24.190  31.037   2.933
27471W        W94012  31.653  21.559  12.112
27472W        W94013  42.816  36.080   2.380
27473W        W94014  23.095   0.365   2.549
27474W        W94015  44.340  27.123   3.433
27475W        W94016  21.289   8.272   0.983
27476W        W94017  14.747  37.078   3.710
27477W        W94018   4.934  20.511   3.618
27478W        W94019   5.129  21.336  13.124
27479W        W94020  30.793   1.865   4.197
27480W        W94021  20.120  31.785   1.771
27481W        W94022  28.031  20.021  14.719
27482W        W94023  35.042  16.072   0.430
27483W        W94024   2.849  10.604   2.752
27484W        W94025  13.222  27.229   1.701
27485W        W94026  43.982   8.253   0.387
27486W        W94027  19.836  26.268  12.082
27487W        W94028  12.720  14.646   0.805
27488W        W94029  20.221  11.745  12.173
27489W        W94030  19.328  15.188   4.101
27490W        W94031  31.742  35.191   3.627
27491W        W94032   6.589  43.460   3.069
27492W        W94033  34.966  18.755   0.392
27493W        W94034  39.472  28.220  14.230
27494W        W94035   6.391   0.852   2.730
27495W        W94036  41.365   9.498  12.528
27496W        W94037   2.852  38.452   4.402
27497W        W94038   9.697  17.635   1.818
27498W        W94039  22.710  22.523   4.159
27499W        W94040  31.818  11.561  13.575
27500W        W94041   1.284  28.678  13.054
27501W        W94042  30.625  18.670   0.455
27502W        W94043  32.069  10.118   3.080
27503W        W94044  32.172   7.410   2.289
27504W        W94045  36.446  25.672   0.731
27505W        W94046  18.340   0.561  13.453
27506W        W94047   8.801   5.456   4.001
27507W        W94048  18.567  22.618   2.730
27508W        W94049   0.337  17.735  11.669
27509W        W94050  11.074  10.003  11.203
27510W        W94051  42.936  30.177   4.789
27511W        W94052   4.334  28.521  12.075
27512W        W94053  39.978   6.564  10.603
27513W        W94054  25.244  44.723  14.324
27514W        W94055  15.225  26.042   0.530
27515W        W94056  26.003  41.255   1.788
27516W        W94057   0.533  10.975   1.360
27517W        W94058  31.966   9.639  11.106
27518W        W94059  33.422   0.480  10.494
27519W        W94060   4.636   5.474   1.328
27520W        W94061  16.194  26.651  12.402
27521W        W94062   1.028  32.076   0.343
27522W        W94063  30.253  16.644   3.204
27523W        W94064   3.275  43.606  13.523
27524W        W94065   3.978  10.305   3.320
27525W        W94066  12.645  36.552  13.100
27526W        W94067  43.820  23.619   1.006
27527W        W94068  43.031  40.248   2.295
27528W        W94069  38.784  43.054   3.716
27529W        W94070  30.157  30.772   4.444
27530W        W94071  42.439   5.024   3.690
27531W        W94072  42.038  39.537  11.064
27532W        W94073  11.811  19.116   1.054
27533W        W94074  26.435  33.007   2.584
27534W        W94075   2.185  42.163  10.783
27535W        W94076  44.519  40.034   2.530
27536W        W94077  22.770   1.629  13.102
27537W        W94078  36.224   7.248   3.870
27538W        W94079  12.790  24.297   0.453
27539W        W94080  26.497   3.341  14.937
27540W        W94081  23.614   7.479   5.174
27541W        W94082  27.417  32.965   3.687
27542W        W94083  22.472  37.443  12.989
27543W        W94084  26.373  26.985   4.447
27544W        W94085  40.856  17.151   4.241
27545W        W94086  40.487  42.852  11.682
27546W        W94087  17.534  23.765   4.743
27547W        W94088  26.501  41.756  14.264
27548W        W94089  42.951  39.276   3.719
27549W        W94090   0.745  16.625   0.298
27550W        W94091  39.098  24.736  12.591
27551W        W94092  40.076  13.775   0.378
27552W        W94093  20.837  39.462  13.471
27553W        W94094  31.597   7.698  13.089
27554W        W94095  38.296   6.322   2.383
27555W        W94096  40.327  42.779   1.047
27556W        W94097   4.438  33.911   3.459
27557W        W94098   1.019  33.859  12.428
27558W        W94099   6.704  17.580   1.869
27559W        W94100  23.310  15.580  11.095
27560W        W94101  30.590  25.931   1.000
27561W        W94102  32.396   6.312   4.498
27562W        W94103  32.394  28.469  14.920
27563W        W94104  37.644  13.100  14.348
27564W        W94105  16.301  39.915   2.566
27565W        W94106  16.826   6.554  13.567
27566W        W94107   2.465   8.287   2.004
27567W        W94108  11.805  28.168   2.305
27568W        W94109   0.243  28.080   4.105
27569W        W94110  21.871  23.961  14.515
27570W        W94111  42.071  37.308   0.549
27571W        W94112   8.681  38.867  12.885
27572W        W94113  18.585  34.258  10.358
27573W        W94114  16.356  20.935   4.084
27574W        W94115  13.282  11.758   1.619
27575W        W94116  32.210   7.692   0.865
27576W        W94117  36.880  29.353   2.985
27577W        W94118   6.811  35.251  14.392
27578W        W94119   0.044  44.339   1.657
27579W        W94120  34.159   9.856  12.932
27580W        W94121   8.805  19.013   3.635
27581W        W94122  44.997  11.660   1.204
27582W        W94123  39.476  16.221   0.333
27583W        W94124  25.107  34.301  13.485
27584W        W94125   2.404  16.302   2.087
27585W        W94126  10.096  36.502  13.637
27586W        W94127  42.275   2.548   4.015
27587W        W94128  13.826  29.189   3.670
27588W        W94129  31.881  26.781   0.913
27589W        W94130  42.259  36.576   1.725
27590W        W94131  34.668  21.790  13.981
27591W        W94132  31.354  32.097   4.987
27592W        W94133  27.136   0.256  13.411
27593W        W94134  15.862   6.651   1.257
27594W        W94135  42.500  12.912  11.524
27595W        W94136  43.922  35.963  14.781
27596W        W94137  10.137  24.353   2.483
27597W        W94138  40.249  12.797  14.815
27598W        W94139  36.030  25.534   2.143
27599W        W94140   6.878   8.251   2.876
27600W        W94141  36.986  38.527   3.774
27601W        W94142   9.801  38.461   0.894
27602W        W94143  14.072   3.275  10.720
27603W        W94144  39.089  17.186   0.504
27604W        W94145  39.081  26.971  12.730
27605W        W94146  30.595  12.790  13.822
27606W        W94147  18.721  34.337  12.915
27607W        W94148  23.397  11.456  12.683
27608W        W94149  34.477  20.309   2.389
27609W        W94150   7.593  26.533   9.829
27610W        W94151  42.920  33.894  11.153
27611W        W94152  36.319   7.643  11.843
27612W        W94153  31.585  16.342   0.208
27613W        W94154   4.734  30.142  13.941
27614W        W94155  35.109   7.768  14.056
27615W        W94156  17.095  41.069   1.879
27616W        W94157   8.333  24.189   4.397
27617W        W94158   2.015  20.205   2.563
27618W        W94159  12.093  23.961  10.769
27619W        W94160  33.892  38.881   4.164
27620W        W94161  30.073  27.755   2.788
27621W        W94162  42.936  31.263   4.499
27622W        W94163  36.601  35.131   1.439
27623W        W94164   2.459  42.735   1.321
27624W        W94165  14.668  20.071   4.162
27625W        W94166  30.100  41.986   5.055
27626W        W94167  36.776  30.204   2.731
27627W        W94168  27.416   8.993  11.241
27628W        W94169   8.669  26.731  13.363
27629W        W94170  18.008  18.631  11.575
27630W        W94171   0.880  20.413  11.802
27631W        W94172  38.416  41.135  11.415
27632W        W94173  23.772  31.351   0.869
27633W        W94174  29.937  38.848  12.934
27634W        W94175  11.639  13.863  12.896
27635W        W94176  24.195  22.500   4.152
27636W        W94177   2.950  17.082  11.960
27637W        W94178  42.320  10.826  12.782
27638W        W94179  14.092   3.191   2.873
27639W        W94180  27.304  20.059   3.536
27640W        W94181  12.574  26.112   2.201
27641W        W94182  32.027  32.101  11.170
27642W        W94183   5.425  42.897  13.978
27643W        W94184  33.758   2.195   1.763
27644W        W94185   3.865  22.069   5.456
27645W        W94186  12.190  32.646   2.327
27646W        W94187  27.624  20.986   4.515
27647W        W94188  32.382   9.458  13.326
27648W        W94189  34.263  43.414  13.153
27649W        W94190  15.119  11.174   3.151
27650W        W94191   6.338  44.856  14.318
27651W        W94192  18.584  21.773  11.050
27652W        W94193  16.092   7.830   1.814
27653W        W94194  26.432   0.070   0.995
27654W        W94195   2.515  33.044  12.864
27655W        W94196  20.032  38.941  13.323
27656W        W94197   3.471  41.899   3.900
27657W        W94198  33.455  31.067   2.051
27658W        W94199  10.762  26.968   4.691
27659W        W94200  40.777  42.911  10.428
27660W        W94201  24.623  25.488   2.705
27661W        W94202  37.860   3.766   3.786
27662W        W94203  32.884  28.989  12.786
27663W        W94204  31.915  13.607   2.029
27664W        W94205  17.236  20.010  10.754
27665W        W94206  30.196  12.333  11.865
27666W        W94207  12.175  36.296   3.489
27667W        W94208   8.740   9.717  14.153
27668W        W94209   8.763  12.762  12.936
27669W        W94210   2.826  30.379   4.992
27670W        W94211  19.960  21.634   0.937
27671W        W94212  18.774  21.007   3.672
27672W        W94213  39.710  11.281   9.749
27673W        W94214  40.813  41.523  12.015
27674W        W94215   8.348  34.816  11.023
27675W        W94216  15.128  20.595  11.986
27676W        W94217  25.765  29.150   2.359
27677W        W94218  11.849  16.045  13.828
27678W        W94219  15.965   4.813   1.466
27679W        W94220  31.745   5.421  10.528
27680W        W94221  34.516   7.755   0.416
27681W        W94222   0.015  39.503   4.435
27682W        W94223  32.363   6.869  12.924
27683W        W94224  35.306  17.302  14.436
27684W        W94225  38.976   9.948   0.063
27685W        W94226  41.085  34.568   1.691
27686W        W94227   6.273  36.975   4.566
27687W        W94228   4.415  16.620   0.933
27688W        W94229  28.050  16.195  13.579
27689W        W94230  27.720  11.751  10.030
27690W        W94231  16.291   3.830  14.893
27691W        W94232   7.739  25.771  13.053
27692W        W94233  42.248  33.989  12.213
27693W        W94234  36.599   8.129  14.709
27694W        W94235  34.570  33.958   4.127
27695W        W94236  30.549  10.823  14.760
27696W        W94237  39.510  32.474   0.801
27697W        W94238  26.000  15.877  14.946
27698W        W94239  35.969  44.272   4.080
27699W        W94240   0.786  12.254   1.951
27700W        W94241  10.064  15.716  10.601
27701W        W94242   9.016  16.104   3.726
27702W        W94243  19.845  36.629   3.628
27703W        W94244   7.164  35.145  11.205
27704W        W94245  36.972  36.111   4.513
27705W        W94246  38.887  27.641   0.734
27706W        W94247  41.363  40.522   2.252
27707W        W94248  44.278  34.515  14.847
27708W        W94249   5.244   2.946   2.641
27709W        W94250  25.493  20.295   0.252
27710W        W94251  27.657  24.353   2.463
27711W        W94252   7.480   6.782  14.521
27712W        W94253  33.273  38.074  11.390
27713W        W94254  27.949  36.006  13.060
27714W        W94255  34.035  35.532   4.916
27715W        W94256  36.834   0.883  11.117
27716W        W94257  16.306   2.158   1.448
27717W        W94258   0.058  12.232  13.070
27718W        W94259  28.934  19.169  12.855
27719W        W94260  35.379  14.909  10.786
27720W        W94261   2.373  12.375  11.327
27721W        W94262  36.949  27.322   0.780
27722W        W94263   8.813  20.947   2.255
27723W        W94264  19.707  18.562  10.822
27724W        W94265  15.604  18.677   1.779
27725W        W94266  32.304  26.501   0.773
27726W        W94267  43.446  44.906  11.725
27727W        W94268  30.383  36.583  11.742
27728W        W94269  39.145  33.306   4.555
27729W        W94270   8.250  15.003   0.314
27730W        W94271  23.135  14.679   2.450
27731W        W94272  18.879   5.785  14.492
27732W        W94273   5.730  13.379  12.532
27733W        W94274  43.784  24.438   0.161
27734W        W94275   8.571   4.947   4.655
27735W        W94276  13.869  31.607   1.780
27736W        W94277  21.045  25.770   4.037
27737W        W94278  41.436  16.081   1.267
27738W        W94279  33.973  15.786   2.586
27739W        W94280  15.259  35.618  12.854
27740W        W94281  17.254   8.657  11.115
27741W        W94282  32.629  13.416   2.335
27742W        W94283  19.745  11.480   1.139
27743W        W94284  30.285   9.821   2.570
27744W        W94285   5.703  36.176  14.905
27745W        W94286  17.633  43.885  11.569
27746W        W94287  13.721   7.805  10.816
27747W        W94288  20.749  27.505   0.457
27748W        W94289  29.988   3.677  14.271
27749W        W94290   4.481  28.690   4.749
27750W        W94291   7.099  37.318   2.212
27751W        W94292  14.782  15.890   1.841
27752W        W94293  39.999  34.997  12.383
27753W        W94294  42.363  39.019   3.911
27754W        W94295  11.178  15.883  13.651
27755W        W94296   5.665  40.360  13.982
27756W        W94297   2.871   4.611  11.908
27757W        W94298  42.226   3.714   3.206
27758W        W94299  18.720  18.569  14.291
27759W        W94300  27.386  14.749  13.546
27760W        W94301  39.502   4.844   9.917
27761W        W94302  28.294  17.703   1.760
27762W        W94303  18.481   1.734  11.184
27763W        W94304  20.000  31.473  14.722
27764W        W94305   0.711   2.392   1.753
27765W        W94306  12.131  34.004  11.424
27766W        W94307  24.572  11.137   3.144
27767W        W94308  15.411  11.389   1.757
27768W        W94309  23.024  34.323  13.933
27769W        W94310   7.673   8.078   0.481
27770W        W94311  33.658   7.129  14.957
27771W        W94312  43.628  23.980   0.333
27772W        W94313  18.251  28.884  10.315
27773W        W94314  26.692   3.474  11.312
27774W        W94315  33.018  13.162   1.223
27775W        W94316  19.529   6.285  10.747
27776W        W94317  38.795  34.586  11.221
27777W        W94318  18.045  13.271  11.150
27778W        W94319  32.701  33.085   1.259
27779W        W94320  21.817  37.979   2.131
27780W        W94321  14.117  22.432  14.094
27781W        W94322  27.427  12.284  13.961
27782W        W94323   8.314  33.684   2.297
27783W        W94324  27.785  14.187   2.242
27784W        W94325  42.570  39.417   3.138
27785W        W94326  35.387  23.944   2.415
27786W        W94327  24.352   8.215   3.673
27787W        W94328  35.194  24.642  13.813
27788W        W94329  18.400  24.993  14.938
27789W        W94330  17.764  33.159   1.150
27790W        W94331  31.783  19.234  10.812
27791W        W94332  35.375   1.310  13.135
27792W        W94333  44.809  29.708   4.212
27793W        W94334  20.287  39.141   4.148
27794W        W94335  12.107   7.412  12.130
27795W        W94336   9.211  41.477  10.714
27796W        W94337  26.736   3.213   5.009
27797W        W94338   6.777  38.286   1.955
27798W        W94339   2.635  43.262  14.204
27799W        W94340  22.056  23.269   4.204
27800W        W94341  40.017   3.914  11.458
27801W        W94342  18.446  44.915  14.508
27802W        W94343  12.082  18.961  10.739
27803W        W94344  30.132  24.688  10.646
27804W        W94345  38.243  28.589  14.395
27805W        W94346  43.749  29.362   1.236
27806W        W94347  34.696  20.062  13.128
27807W        W94348  27.635   7.172   3.207
27808W        W94349  31.087  29.615   3.528
27809W        W94350  14.800  10.813  12.856
27810W        W94351  16.345  41.498   0.936
27811W        W94352  29.370  28.498   3.664
27812W        W94353  19.454  20.103   1.697
27813W        W94354   5.122  24.785  12.463
27814W        W94355  29.630   2.713  14.084
27815W        W94356  20.062  39.324  10.699
27816W        W94357  36.900  20.596   2.764
27817W        W94358   8.608   4.238   2.877
27818W        W94359  28.019  41.328  10.158
27819W        W94360  30.609  21.082   3.197
27820W        W94361  16.175  21.087  11.501
27821W        W94362   8.234  14.791   3.373
27822W        W94363   2.438  21.081   4.234
27823W        W94364  18.652  24.695  14.003
27824W        W94365   3.432  30.454   3.268
27825W        W94366  31.173  34.917  13.642
27826W        W94367  30.984  21.749  14.441
27827W        W94368   3.032  35.968  11.601
27828W        W94369  30.517  33.545  14.492
27829W        W94370  42.216   0.937  11.495
27830W        W94371   5.047  17.637  14.033
27831W        W94372  16.151  33.104   4.660
27832W        W94373  28.440  33.039   2.800
27833W        W94374  35.133  28.120  12.763
27834W        W94375  28.990  20.823   0.239
27835W        W94376  31.860  23.641  11.698
27836W        W94377   8.751  16.775  11.611
27837W        W94378   1.401   1.337  13.546
27838W        W94379  28.095   7.065   1.227
27839W        W94380   8.277   2.893  12.086
27840W        W94381  16.703  43.723   0.862
27841W        W94382  19.282  12.157  12.090
27842W        W94383   6.102  40.944   2.300
27843W        W94384   1.795  16.771  14.300
27844W        W94385   2.672  24.499  10.785
27845W        W94386  10.105  26.518   0.420
27846W        W94387   3.191   0.893  14.704
27847W        W94388  32.381  15.078   3.106
27848W        W94389  17.352   9.316   2.634
27849W        W94390  11.224  44.737  14.881
27850W        W94391   3.207  25.187   3.623
27851W        W94392  14.124   4.539   4.646
27852W        W94393   8.898  18.540   1.660
27853W        W94394   8.387  35.625   0.371
27854W        W94395  13.591  13.509   4.681
27855W        W94396  30.459  16.043  12.392
27856W        W94397   1.885  25.585   0.779
27857W        W94398  34.894  28.539  11.929
27858W        W94399  10.272   6.894   4.942
27859W        W94400  25.360  13.220  11.097
27860W        W94401  16.635  43.853   3.071
27861W        W94402  37.253   9.820   0.499
27862W        W94403  33.816   2.486  13.011
27863W        W94404  20.251   8.841  14.679
27864W        W94405  30.187  41.276   1.666
27865W        W94406   4.436  32.074  11.434
27866W        W94407   7.744  30.836   1.353
27867W        W94408  15.177  39.982  14.932
27868W        W94409  10.238  34.012   1.039
27869W        W94410  40.437  24.485   2.182
27870W        W94411  15.330  31.424  10.250
27871W        W94412  16.780   1.895   1.337
27872W        W94413  43.462  22.006  12.631
27873W        W94414  34.447  10.045   4.112
27874W        W94415  27.504  36.918   4.621
27875W        W94416  12.448  29.500   2.458
27876W        W94417  21.579  28.029   2.034
27877W        W94418  39.012  44.717  10.107
27878W        W94419  19.791  18.077   3.160
27879W        W94420  36.043  37.021   2.226
27880W        W94421  33.001  43.847  12.077
27881W        W94422  17.236  36.609   3.136
27882W        W94423   4.293  12.354   4.617
27883W        W94424   7.292  18.203   2.759
27884W        W94425  15.762  21.423   4.561
27885W        W94426  23.947  44.043   3.950
27886W        W94427  33.614  10.851  11.340
27887W        W94428  14.369  44.771  11.279
27888W        W94429  30.875   6.706   3.001
27889W        W94430  16.584  37.946  10.700
27890W        W94431  33.728   0.469   2.337
27891W        W94432  17.556   5.516  12.468
27892W        W94433  11.806  17.333   1.292
27893W        W94434  38.031   6.009  13.144
27894W        W94435  20.146  43.888   0.983
27895W        W94436   6.931  34.395   4.364
27896W        W94437   5.269  10.783   4.132
27897W        W94438   4.376  31.884   0.291
27898W        W94439   6.559  24.565   1.890
27899W        W94440  33.484  21.432  12.424
27900W        W94441  44.818  26.627   2.718
27901W        W94442  17.693  42.808  10.691
27902W        W94443  29.367  15.903   4.232
27903W        W94444  17.670  43.444   0.314
27904W        W94445  12.321  27.038  11.414
27905W        W94446  34.332  36.098  14.277
27906W        W94447  41.810  35.506  13.997
27907W        W94448  12.833  27.662   3.371
27908W        W94449  29.663  35.945   4.320
27909W        W94450  41.829  14.713   0.875
27910W        W94451   6.641   8.738  11.078
27911W        W94452   7.811  18.140   3.196
27912W        W94453  36.006  11.946  12.659
27913W        W94454  21.705  27.224  11.999
27914W        W94455  38.310  39.075   3.771
27915W        W94456  35.518  19.961  13.086
27916W        W94457  32.504  14.863  14.256
27917W        W94458  31.759  19.580  12.979
27918W        W94459  43.591  29.589   0.601
27919W        W94460  38.741   4.929   1.291
27920W        W94461   0.900   5.893  12.585
27921W        W94462  44.813  24.204  13.687
27922W        W94463  43.792  34.283   4.579
27923W        W94464  14.318   2.849   2.129
27924W        W94465  37.010   0.904  13.846
27925W        W94466   6.270  15.504  13.106
27926W        W94467  24.133  10.130  10.970
27927W        W94468  30.558   4.164   4.588
27928W        W94469   6.513  22.292  10.464
27929W        W94470  40.178  17.249   3.664
27930W        W94471   5.916  15.532   2.234
27931W        W94472   4.026  40.584  12.866
27932W        W94473  22.188  28.068  13.491
27933W        W94474  12.266  37.999   3.273
27934W        W94475  33.541  24.313  11.084
27935W        W94476  10.989  12.241  14.400
27936W        W94477   8.754  33.966   2.240
27937W        W94478   9.965  33.528   4.527
27938W        W94479  27.468  18.002  12.514
27939W        W94480  16.561  39.321   4.589
27940W        W94481   7.370  39.516   0.729
27941W        W94482  37.970   7.694   3.159
27942W        W94483  26.705   8.719  11.560
27943W        W94484  30.688  17.307  11.696
27944W        W94485  44.978  13.589   3.628
27945W        W94486  43.285   6.693   2.710
27946W        W94487  15.347  12.445  11.984
27947W        W94488   2.524  10.762   0.388
27948W        W94489   7.923   0.977  12.745
27949W        W94490   5.959  11.332   3.630
27950W        W94491   9.177  42.819   2.885
27951W        W94492  36.897  36.087   1.098
27952W        W94493  37.809  33.535  13.544
27953W        W94494   0.388  36.381  13.907
27954W        W94495  21.117  26.072   0.746
27955W        W94496  22.074   6.616  13.589
27956W        W94497  17.517  33.353   3.789
27957W        W94498  11.990   5.257   1.200
27958W        W94499  43.195   3.437  13.986
27959W        W94500  26.178  37.995  13.520
27960W        W94501  41.357  36.867  10.782
27961W        W94502  38.513  33.502   4.014
27962W        W94503  18.578  29.473   2.284
27963W        W94504  35.810  24.484   0.685
27964W        W94505  26.607  10.258  11.523
27965W        W94506  30.700   8.865   1.970
27966W        W94507   7.000  44.452   0.457
27967W        W94508  31.413  39.775   2.314
27968W        W94509  36.845   9.397   1.989
27969W        W94510   5.381  36.331  10.747
27970W        W94511  28.444  17.498   3.876
27971W        W94512  12.532  28.210  13.031
27972W        W94513  11.208  23.127  14.161
27973W        W94514  31.113  27.999   1.923
27974W        W94515  20.486   9.834  12.971
27975W        W94516  30.989  16.167   4.693
27976W        W94517  31.936  40.907  10.712
27977W        W94518  14.642   6.573  11.145
27978W        W94519   6.955  36.870   1.861
27979W        W94520   6.581  33.713  11.769
27980W        W94521  32.508  28.106   4.216
27981W        W94522  10.245  37.819   4.033
27982W        W94523  18.761   9.569   3.776
27983W        W94524  16.795   3.683  14.899
27984W        W94525  29.941  44.909  14.885
27985W        W94526  24.525   2.785  13.472
27986W        W94527   2.258  31.350   1.689
27987W        W94528  14.656  11.312  12.194
27988W        W94529   4.769  30.041  14.461
27989W        W94530  37.294   1.871   2.240
27990W        W94531  29.145   6.486   2.520
27991W        W94532  18.987  34.394  12.474
27992W        W94533   4.491  15.101  12.464
27993W        W94534   1.008  19.607  12.134
27994W        W94535   5.903  10.447  11.324
27995W        W94536  12.491  29.650   1.972
27996W        W94537   4.441  24.253   0.732
27997W        W94538  44.959  15.841  13.936
27998W        W94539  35.589  14.175   3.733
27999W        W94540  21.174  15.673  14.822
28000W        W94541   6.296  31.094   3.068
28001W        W94542  41.370  25.731   1.174
28002W        W94543  15.284  39.713   2.267
28003W        W94544  23.105   9.811  14.708
28004W        W94545  21.642  19.078  14.868
28005W        W94546   6.241   5.197   1.684
28006W        W94547   7.293  33.788  13.140
28007W        W94548   3.638  11.336  11.165
28008W        W94549  13.382  16.158   2.371
28009W        W94550  15.586  11.655   3.682
28010W        W94551  36.882  34.028   3.940
28011W        W94552  43.686  14.426   4.573
28012W        W94553  25.725  33.186   0.922
28013W        W94554  16.058   2.205  12.215
28014W        W94555   7.869   8.380   2.711
28015W        W94556   1.359  30.305  14.522
28016W        W94557  17.191  37.208  12.873
28017W        W94558  33.259  39.998   3.757
28018W        W94559  15.735  17.041  14.176
28019W        W94560  40.762   6.211  12.828
28020W        W94561  44.975  19.825  11.910
28021W        W94562  16.852   5.898  14.304
28022W        W94563  39.105  29.184   4.347
28023W        W94564  34.202  42.749  11.167
28024W        W94565  41.945  23.003  11.019
28025W        W94566  14.791   7.696  14.419
28026W        W94567  43.392  18.064   1.422
28027W        W94568  21.307   0.199   9.758
28028W        W94569  17.104  31.605  13.983
28029W        W94570  40.396   9.190   0.423
28030W        W94571  27.097  40.167   1.669
28031W        W94572  36.493  20.518  13.190
28032W        W94573  10.129  34.528   1.746
28033W        W94574  42.545   6.851   0.735
28034W        W94575   8.982  37.089   1.290
28035W        W94576  40.312  30.155  11.556
28036W        W94577   4.655   6.036  12.152
28037W        W94578   5.686   1.478   2.686
28038W        W94579  44.205   2.463  10.434
28039W        W94580  36.927  40.621  13.110
28040W        W94581  36.964   5.349  11.698
28041W        W94582  11.367  44.136   2.301
28042W        W94583  11.210  11.536   1.389
28043W        W94584  28.464  32.035   1.218
28044W        W94585   2.521  32.062   0.306
28045W        W94586  36.353   3.275   3.296
28046W        W94587  24.519  30.811   4.646
28047W        W94588  20.658  43.481   0.327
28048W        W94589  23.049  16.412  11.843
28049W        W94590  16.340  13.808  14.532
28050W        W94591   5.600  23.629  11.124
28051W        W94592   6.127  38.411  12.916
28052W        W94593   2.892  40.042   3.375
28053W        W94594  42.448  43.231   3.403
28054W        W94595  15.602   6.360  10.521
28055W        W94596  31.444   1.980   2.211
28056W        W94597  21.004  30.546   2.834
28057W        W94598   8.228  28.755   1.950
28058W        W94599  15.736  44.882   4.582
28059W        W94600  22.003  20.779  14.364
28060W        W94601  28.117   0.098   1.704
28061W        W94602  16.562  13.736   2.590
28062W        W94603   1.091  37.535  13.981
28063W        W94604  43.546  21.807   2.311
28064W        W94605  26.017   4.906   4.147
28065W        W94606  27.471   3.263  14.955
28066W        W94607  13.581  35.071   1.227
28067W        W94608  29.719   3.743   4.723
28068W        W94609  12.075   3.099  11.181
28069W        W94610  42.810  39.815   4.562
28070W        W94611  38.681  34.045  11.222
28071W        W94612   3.770  12.423   2.592
28072W        W94613   6.403  23.594  10.740
28073W        W94614  16.408  37.692   4.131
28074W        W94615  27.550  12.818  10.372
28075W        W94616  10.864  35.455  13.981
28076W        W94617  22.185  19.671   3.149
28077W        W94618  25.664  33.485  14.009
28078W        W94619  36.385  25.573   1.241
28079W        W94620  38.681   6.045  14.356
28080W        W94621  19.648  29.223  14.886
28081W        W94622  39.395  43.375  14.239
28082W        W94623  36.864   0.515  12.591
28083W        W94624   3.412  18.280   3.489
28084W        W94625  10.144  41.960  10.658
28085W        W94626  22.141  24.554  11.737
28086W        W94627  26.984  24.096   3.486
28087W        W94628   3.365  12.295   1.753
28088W        W94629  38.159  42.115  14.362
28089W        W94630  38.547  28.376   0.459
28090W        W94631  13.524  14.271   2.345
28091W        W94632  44.544  39.392  14.286
28092W        W94633  23.608  43.718  11.975
28093W        W94634  28.581  24.534   0.956
28094W        W94635  27.171  27.812   2.352
28095W        W94636  25.649   8.001   2.436
28096W        W94637  42.532  38.238  13.924
28097W        W94638  30.877  35.182   3.146
28098W        W94639  23.414  29.813   1.007
28099W        W94640  42.961  40.621   5.031
28100W        W94641  27.590  17.106   1.855
28101W        W94642  32.658  16.137   4.114
28102W        W94643  36.546   1.200   2.254
28103W        W94644  18.509   8.815   4.413
28104W        W94645  34.468  29.237   0.296
28105W        W94646  41.053  21.959   2.130
28106W        W94647   2.741  22.142  12.653
28107W        W94648  42.676   5.291   1.779
28108W        W94649  34.481  10.185  11.919
28109W        W94650  26.672   7.189  14.965
28110W        W94651  23.535  18.513   0.649
28111W        W94652   0.049  23.738   4.640
28112W        W94653  30.012  37.798   1.541
28113W        W94654  17.573   2.306  14.134
28114W        W94655   8.422  35.209   0.655
28115W        W94656  22.649  14.167   3.698
28116W        W94657  21.288  17.541   9.958
28117W        W94658  11.698  26.461  13.912
28118W        W94659  39.072   1.754   4.508
28119W        W94660  23.967  11.164  14.264
28120W        W94661   5.460   8.845  12.994
28121W        W94662  25.945  35.149   3.678
28122W        W94663  13.599  14.197  13.648
28123W        W94664  44.552   9.247  10.657
28124W        W94665  36.288  20.145  13.531
28125W        W94666  34.937  21.030   1.929
28126W        W94667  18.027  33.123   2.143
28127W        W94668  20.675  28.901   0.239
28128W        W94669  40.930  30.986   4.683
28129W        W94670  39.395  33.537   1.747
28130W        W94671  33.678  39.560   2.167
28131W        W94672   2.180  23.313  13.884
28132W        W94673  12.882  32.080  10.771
28133W        W94674  26.962  27.540   4.350
28134W        W94675  39.391  10.114   0.577
28135W        W94676   0.833  44.615   3.396
28136W        W94677   2.450   4.529   3.764
28137W        W94678  13.063  17.644  12.573
28138W        W94679  43.429  35.956  10.686
28139W        W94680  40.839  26.584  10.668
28140W        W94681  44.094  32.743  11.182
28141W        W94682  32.896  27.260  13.501
28142W        W94683  28.527   8.178  12.020
28143W        W94684  30.438  41.444  10.119
28144W        W94685  32.187  35.766  10.293
28145W        W94686   5.294  26.713  11.672
28146W        W94687  19.638  44.919  12.108
28147W        W94688  33.171  42.929  12.119
28148W        W94689  40.343  23.848  11.732
28149W        W94690  35.562  18.654   0.933
28150W        W94691   0.343  12.496  10.995
28151W        W94692  16.060  40.271   1.262
28152W        W94693  12.825  38.786  13.315
28153W        W94694  14.436  11.156   4.042
28154W        W94695  31.882  31.898   1.790
28155W        W94696  22.472  18.452   1.842
28156W        W94697  15.054  29.730   3.669
28157W        W94698  25.735  43.778  10.844
28158W        W94699   6.458  12.428   4.207
28159W        W94700  33.160  18.550   3.184
28160W        W94701  31.625  35.984   1.466
28161W        W94702   2.431  37.939   3.337
28162W        W94703  28.187  38.990   1.948
28163W        W94704   3.309  43.770   3.663
28164W        W94705  39.070  41.968  12.616
28165W        W94706  36.985  12.955  10.898
28166W        W94707  16.674  28.155  12.598
28167W        W94708  29.576  16.096   3.261
28168W        W94709  25.813  19.306   4.388
28169W        W94710  40.774  10.541  11.970
28170W        W94711  17.111  25.082   4.687
28171W        W94712  34.666   0.597   0.232
28172W        W94713  31.955  21.437   3.239
28173W        W94714   1.942  33.050   0.196
28174W        W94715   7.172   5.970  14.124
28175W        W94716   2.302  19.716  13.588
28176W        W94717  22.511   8.215   4.557
28177W        W94718  37.262  42.388   1.430
28178W        W94719   2.216  18.670   1.651
28179W        W94720   9.595  26.686   1.033
28180W        W94721  26.511  30.834  13.060
28181W        W94722  40.289  25.128  14.558
28182W        W94723  13.162   4.356  14.294
28183W        W94724  22.011  29.915  13.674
28184W        W94725  24.030   6.465   1.698
28185W        W94726  23.053  26.385  12.538
28186W        W94727   6.262  40.279   3.110
28187W        W94728   9.558  21.721   0.273
28188W        W94729  33.921  22.435  12.116
28189W        W94730  40.447   7.252   3.555
28190W        W94731  17.983  32.770   0.859
28191W        W94732   6.278   9.716  11.925
28192W        W94733  18.642   4.372   0.288
28193W        W94734  35.193  13.659  11.673
28194W        W94735  43.041   2.412  14.020
28195W        W94736   3.438   9.666   3.878
28196W        W94737  34.339   8.632  11.078
28197W        W94738  31.990   0.819  11.532
28198W        W94739  14.279  36.011   0.752
28199W        W94740  35.594  44.156  13.944
28200W        W94741  30.718  36.972  10.591
28201W        W94742  28.967  42.531  10.614
28202W        W94743  41.807  12.162  11.394
28203W        W94744   7.804  43.432   0.871
28204W        W94745  17.799  31.009  14.565
28205W        W94746  12.407  34.900  10.455
28206W        W94747   7.640   1.809  14.688
28207W        W94748  40.886   8.405   4.070
28208W        W94749  31.041  32.783   4.368
28209W        W94750   9.204  39.006  13.442
28210W        W94751  25.997  42.144  11.703
28211W        W94752   8.056  17.820  10.669
28212W        W94753  27.462  15.155   2.385
28213W        W94754  43.297  14.865  14.883
28214W        W94755   7.782  26.432   5.964
28215W        W94756  34.695  35.171  13.352
28216W        W94757  23.760  16.809   1.897
28217W        W94758   7.657  41.124   3.065
28218W        W94759  19.304  36.771  13.878
28219W        W94760  30.971  19.564  12.291
28220W        W94761   1.560  34.849  11.568
28221W        W94762  27.869  34.051  13.227
28222W        W94763  39.953  35.662  14.503
28223W        W94764  43.272  18.629  13.498
28224W        W94765   1.815  26.923   0.852
28225W        W94766  18.222   3.247   0.522
28226W        W94767  35.654  36.811  13.108
28227W        W94768  38.484   9.003  13.428
28228W        W94769  14.286   1.540  12.538
28229W        W94770   7.474   5.753   2.423
28230W        W94771  14.593  26.208   1.401
28231W        W94772   3.975  25.981   2.735
28232W        W94773  18.040  30.321  12.461
28233W        W94774  12.278  15.673  14.917
28234W        W94775  21.065  10.123  12.208
28235W        W94776  14.533  19.454   0.065
28236W        W94777  30.334  10.260   2.255
28237W        W94778  13.171  38.645   1.423
28238W        W94779  23.790   7.273   1.922
28239W        W94780  33.434  25.500   2.800
28240W        W94781  31.858   4.499  14.428
28241W        W94782  14.293  28.633  10.729
28242W        W94783   2.431  20.962  11.582
28243W        W94784  28.599  34.804   1.675
28244W        W94785  10.701  25.704  13.391
28245W        W94786   0.011  14.352  12.902
28246W        W94787  34.541  37.970  13.856
28247W        W94788  38.854   8.709   3.843
28248W        W94789   6.017  32.028   0.701
28249W        W94790  13.226  20.245   0.432
28250W        W94791  39.287   5.784   4.721
28251W        W94792  34.188  23.472  13.001
28252W        W94793  17.642  13.770  14.963
28253W        W94794  14.216   9.478   0.846
28254W        W94795  40.855  30.543  14.348
28255W        W94796   3.748  28.794  12.625
28256W        W94797  22.665  15.263   2.062
28257W        W94798  38.305  18.142  12.608
28258W        W94799  41.073  37.802  14.972
28259W        W94800  43.212  12.935   9.894
28260W        W94801  19.711  31.082  14.864
28261W        W94802  13.277  25.015  12.024
28262W        W94803  15.745  39.984   3.038
28263W        W94804  27.327  28.885  13.111
28264W        W94805  38.975  39.340   1.725
28265W        W94806  10.733   4.253   4.677
28266W        W94807  32.639   7.625   4.782
28267W        W94808  16.214  37.995   2.430
28268W        W94809  31.044  20.934   9.715
28269W        W94810  26.427  39.787  13.760
28270W        W94811  32.508  28.859   0.318
28271W        W94812  32.287  37.444  12.303
28272W        W94813  27.240  19.534  10.516
28273W        W94814  22.604  38.958  10.395
28274W        W94815   1.799  12.829  14.383
28275W        W94816  16.165  16.301  11.915
28276W        W94817  34.926  32.828  13.949
28277W        W94818  28.531  15.139  12.015
28278W        W94819  21.989  19.188   2.377
28279W        W94820   8.635   9.817   0.846
28280W        W94821  43.298  27.593  14.024
28281W        W94822  21.118  10.173   2.187
28282W        W94823  40.029  22.750   4.368
28283W        W94824   4.200  42.943  12.959
28284W        W94825   0.834  23.686  12.594
28285W        W94826  26.640  33.136  13.166
28286W        W94827  28.733  34.242   1.477
28287W        W94828  43.520   3.746   2.858
28288W        W94829   5.817  23.921   4.894
28289W        W94830  31.958  22.333  10.367
28290W        W94831   3.233  42.838   1.422
28291W        W94832  32.419  19.209   0.428
28292W        W94833  37.494   9.454  13.410
28293W        W94834  22.464  29.519  14.381
28294W        W94835  18.046   6.153  12.091
28295W        W94836   8.892  30.303   4.703
28296W        W94837   3.861  41.970  13.843
28297W        W94838  39.206   4.788  12.441
28298W        W94839   4.008  38.010  14.283
28299W        W94840  28.981  10.086  12.463
28300W        W94841  43.530  34.132   2.653
28301W        W94842  37.029  35.466   2.187
28302W        W94843  17.139  43.986  14.843
28303W        W94844  40.384  35.871  14.312
28304W        W94845  44.989  20.819  10.761
28305W        W94846   9.875  31.637   0.796
28306W        W94847  36.825  30.076   1.861
28307W        W94848   6.455  33.968   2.735
28308W        W94849  43.936  44.545  12.491
28309W        W94850  41.150   3.699  13.950
28310W        W94851  14.620   6.049   2.819
28311W        W94852  17.822  11.263  11.013
28312W        W94853  11.486  10.386   3.560
28313W        W94854  22.088  32.079  12.423
28314W        W94855  41.638   1.904   4.544
28315W        W94856  37.463   9.184  14.719
28316W        W94857  26.963  12.013  14.004
28317W        W94858  29.925  13.742   1.228
28318W        W94859  28.005  35.595  11.284
28319W        W94860  23.610  34.401  10.759
28320W        W94861  31.373  41.941   3.829
28321W        W94862  12.710  22.666  10.818
28322W        W94863  35.935   5.151   1.269
28323W        W94864  25.647  31.072  11.491
28324W        W94865  12.577   0.514  13.597
28325W        W94866  26.135  24.158  14.723
28326W        W94867   2.086   3.285   2.261
28327W        W94868   4.395  15.847  13.903
28328W        W94869   4.294  34.377  11.505
28329W        W94870  36.929  23.717  11.173
28330W        W94871  10.582  18.203  13.845
28331W        W94872  23.250  19.618   0.302
28332W        W94873  15.881   8.732  10.684
28333W        W94874  11.393  11.282  13.988
28334W        W94875  20.217   0.639  11.449
28335W        W94876  19.116   4.180   2.220
28336W        W94877  23.981  32.024   4.405
28337W        W94878  10.563  13.173   1.871
28338W        W94879  34.147  40.517   4.564
28339W        W94880  17.402  25.004   3.303
28340W        W94881  25.132  20.065   2.409
28341W        W94882  30.438   3.254  13.986
28342W        W94883  38.285  23.909  14.222
28343W        W94884   7.852  44.708  14.782
28344W        W94885  22.478  16.106   1.427
28345W        W94886   6.003  29.698  11.966
28346W        W94887  37.891  30.124   4.164
28347W        W94888  39.547  43.481  12.273
28348W        W94889  18.218  12.598  12.824
28349W        W94890  36.395   4.247  11.664
28350W        W94891  42.840  23.198   4.831
28351W        W94892  30.116  10.728  13.301
28352W        W94893  23.515  27.978   1.786
28353W        W94894  32.966  26.894   4.523
28354W        W94895  40.731  14.574   1.780
28355W        W94896   3.289  18.280  10.566
28356W        W94897  14.086  10.301   3.998
28357W        W94898  23.086  21.157   2.610
28358W        W94899  33.960  11.654  10.273
28359W        W94900   1.166  30.101  10.336
28360W        W94901   4.240  19.305  12.091
28361W        W94902   9.316  44.808  14.067
28362W        W94903  19.742   0.536   2.763
28363W        W94904   8.932   2.288  11.976
28364W        W94905  24.694   2.303   0.470
28365W        W94906  22.031   2.651   5.009
28366W        W94907  41.264   3.866   2.925
28367W        W94908  31.905  39.804  14.111
28368W        W94909   0.834  36.340   4.245
28369W        W94910  34.304  10.392  12.365
28370W        W94911   6.955  25.168   1.680
28371W        W94912  30.851  28.065  12.115
28372W        W94913  31.333  37.856  12.976
28373W        W94914  42.875  43.812   2.241
28374W        W94915   4.391  20.148  12.535
28375W        W94916  14.717   8.229   2.702
28376W        W94917  37.800  27.998   4.595
28377W        W94918  25.843  34.366   2.243
28378W        W94919   0.272   2.414   4.646
28379W        W94920   8.736   2.457  10.687
28380W        W94921  26.571   4.789  12.898
28381W        W94922   7.393  33.276  13.010
28382W        W94923  33.083  28.970   0.475
28383W        W94924  34.107  20.663   3.603
28384W        W94925   5.567  21.113  14.827
28385W        W94926  21.611   7.446  14.781
28386W        W94927  42.353  13.060  12.494
28387W        W94928  39.801  30.740  11.934
28388W        W94929  27.105  30.392  10.707
28389W        W94930  35.887  29.864   2.068
28390W        W94931  39.301  28.628   1.941
28391W        W94932  41.469  22.697  12.454
28392W        W94933  25.093   8.996  13.425
28393W        W94934  13.785  14.089   1.947
28394W        W94935   2.174  36.994   3.223
28395W        W94936  25.196  15.599   0.286
28396W        W94937  19.190  36.770   2.628
28397W        W94938  35.908   3.945  12.381
28398W        W94939  33.252  39.023  10.157
28399W        W94940   2.352  44.986  10.724
28400W        W94941  26.116  27.956  12.542
28401W        W94942  22.112   2.901   0.302
28402W        W94943  19.252  14.887  12.047
28403W        W94944  16.454  36.720   3.234
28404W        W94945  25.984   7.955  13.508
28405W        W94946   2.969  18.134   4.269
28406W        W94947  11.700  43.514   4.817
28407W        W94948  25.038  17.578   0.305
28408W        W94949  31.938  43.268   4.836
28409W        W94950  34.991  36.433   4.295
28410W        W94951  32.280  24.170   3.281
28411W        W94952  36.027  27.577   0.277
28412W        W94953  24.576  11.132   0.806
28413W        W94954  11.744   9.966   0.467
28414W        W94955   3.887  23.517   4.116
28415W        W94956  11.214  29.561  10.569
28416W        W94957  42.850  24.690  13.658
28417W        W94958  21.128  43.618   2.069
28418W        W94959  31.615  38.005  12.039
28419W        W94960   6.146  24.013   4.518
28420W        W94961  17.897  24.278  13.605
28421W        W94962  26.107  25.697   1.766
28422W        W94963  35.989   6.972  13.923
28423W        W94964   5.760  40.396   3.306
28424W        W94965  29.921  39.409  13.734
28425W        W94966  43.774  32.123   0.356
28426W        W94967   5.323  10.406   0.460
28427W        W94968   7.770  14.052  11.709
28428W        W94969  43.321  35.783   3.411
28429W        W94970  12.342  17.732  11.460
28430W        W94971   5.789  43.711   3.242
28431W        W94972  39.209  27.938  10.256
28432W        W94973   8.011  43.465  11.119
28433W        W94974   0.004   2.347  12.994
28434W        W94975  17.866  25.585  11.590
28435W        W94976  14.710  27.135   0.691
28436W        W94977  25.250   3.600  14.291
28437W        W94978   9.096  28.408  14.978
28438W        W94979  19.007   4.705  11.554
28439W        W94980  10.602  32.074  11.142
28440W        W94981  34.592  25.080   3.133
28441W        W94982  28.866  17.304   4.173
28442W        W94983   1.086  43.416  11.676
28443W        W94984  29.086  21.146  13.064
28444W        W94985  42.248  39.601  12.526
28445W        W94986  22.509  34.169  12.196
28446W        W94987  11.247   7.869  13.930
28447W        W94988  21.532   9.757  11.224
28448W        W94989  21.805   0.961   1.362
28449W        W94990  31.704  36.044   4.624
28450W        W94991   1.737  27.500  13.016
28451W        W94992   9.356  17.343   1.551
28452W        W94993  43.856  31.982   4.093
28453W        W94994  14.702   0.445   2.459
28454W        W94995  15.803  39.075   1.852
28455W        W94996  40.871  24.707  13.092
28456W        W94997  18.772   4.886   4.176
28457W        W94998   7.363  29.689  13.429
28458W        W94999   3.885   2.221   1.871
28459W        W95000  32.376  32.234   1.014
28460W        W95001  41.768  25.391   1.150
28461W        W95002   9.390  34.533  14.551
28462W        W95003  29.575  29.950  14.797
28463W        W95004  22.329  31.028   3.947
28464W        W95005  27.497  40.422  11.384
28465W        W95006  23.637  20.236  12.150
28466W        W95007  27.593  40.768   3.363
28467W        W95008  14.874  29.260   3.751
28468W        W95009  27.218  38.966  11.070
28469W        W95010   8.853  31.857   3.751
28470W        W95011  20.999   3.060  11.247
28471W        W95012  37.507  23.863  14.555
28472W        W95013  12.181  38.293  11.080
28473W        W95014   1.924  28.592   1.865
28474W        W95015  26.500  30.803   4.753
28475W        W95016  30.540  36.898   4.585
28476W        W95017   7.477  28.961   1.332
28477W        W95018  31.256  23.072   4.236
28478W        W95019   7.774  19.039  11.637
28479W        W95020   6.287  24.901  12.174
28480W        W95021  34.131   2.984  12.181
28481W        W95022  21.903   0.936  12.944
28482W        W95023  22.107  11.817  14.938
28483W        W95024  20.645  11.404  12.032
28484W        W95025  40.926   2.897  11.519
28485W        W95026  40.903  10.093  11.073
28486W        W95027  27.807  28.446  13.375
28487W        W95028  33.983   5.359  12.389
28488W        W95029  10.740  13.048   1.004
28489W        W95030  28.003  15.877  12.028
28490W        W95031  12.780   8.439   4.278
28491W        W95032  11.980  12.967  10.380
28492W        W95033  12.037  27.112  10.431
28493W        W95034   4.915  13.728   4.143
28494W        W95035  44.603  28.105  11.984
28495W        W95036  22.541  16.609  13.804
28496W        W95037  20.737  10.211   4.440
28497W        W95038  30.003  10.606  11.666
28498W        W95039  38.834   8.472   1.810
28499W        W95040   7.675   6.903   3.991
28500W        W95041  38.558  31.560  14.502
28501W        W95042   2.933  23.106   4.166
28502W        W95043   5.801  33.394  11.430
28503W        W95044  38.506  22.858  12.920
28504W        W95045   1.465  18.233   0.268
28505W        W95046  10.689  18.272   2.839
28506W        W95047   7.399  16.568   4.606
28507W        W95048   3.740   4.268   0.458
28508W        W95049   3.387   4.604  14.589
28509W        W95050  34.001  23.963   3.155
28510W        W95051  44.404   4.706   1.852
28511W        W95052  42.944  44.984   1.675
28512W        W95053   5.191   4.617  13.959
28513W        W95054  27.148  41.204  11.412
28514W        W95055  32.907  25.513   2.804
28515W        W95056  18.797  26.179  14.765
28516W        W95057   5.745  27.731   4.119
28517W        W95058  34.098  20.697  13.305
28518W        W95059  13.789  13.706  13.760
28519W        W95060  24.029  20.284   1.637
28520W        W95061  27.988   0.840  12.890
28521W        W95062  20.303   2.847   3.131
28522W        W95063   0.944  38.470   1.282
28523W        W95064  16.193  15.272   2.666
28524W        W95065   6.218   0.449  12.640
28525W        W95066  43.981  17.681   2.362
28526W        W95067  28.751  36.830  11.864
28527W        W95068  25.680  32.617   2.215
28528W        W95069  33.356  41.473   0.190
28529W        W95070  30.958  35.526  12.010
28530W        W95071  44.937   4.528   3.642
28531W        W95072  34.820  34.025  10.748
28532W        W95073  31.116  10.699  14.520
28533W        W95074  40.938  18.708   0.964
28534W        W95075  29.745  38.001  14.489
28535W        W95076  10.233  36.170   0.285
28536W        W95077  39.891   1.440   2.324
28537W        W95078   7.820  22.985   4.255
28538W        W95079  13.468  10.747  14.506
28539W        W95080  26.660  22.441   1.813
28540W        W95081  39.273  28.109   0.872
28541W        W95082  36.734  14.811  12.643
28542W        W95083  24.004  19.091  13.024
28543W        W95084   8.805  32.096   0.628
28544W        W95085  36.439  29.514  13.859
28545W        W95086  26.430  18.282  13.052
28546W        W95087  34.539  11.697   3.910
28547W        W95088  23.496   4.317  11.651
28548W        W95089  36.645  16.675  11.262
28549W        W95090   8.494   9.862  12.376
28550W        W95091   9.847  17.029  13.298
28551W        W95092  12.729  32.086  14.888
28552W        W95093   5.858   2.050   3.480
28553W        W95094  35.894  37.318   2.674
28554W        W95095  11.647  31.449   0.591
28555W        W95096   1.943  33.597   4.501
28556W        W95097  34.673   9.787  13.079
28557W        W95098   5.364  40.312  11.009
28558W        W95099  16.335  37.896  11.641
28559W        W95100   2.067  24.604   2.739
28560W        W95101   9.788  11.091  12.076
28561W        W95102   2.838  26.989  14.517
28562W        W95103  24.695  33.401  10.817
28563W        W95104  31.018  24.103   4.174
28564W        W95105  39.641  40.991   2.433
28565W        W95106   2.002   6.899  14.576
28566W        W95107   9.276  15.532  13.734
28567W        W95108   6.879  33.128  12.104
28568W        W95109  26.898  26.874  12.117
28569W        W95110  28.944  30.067  12.397
28570W        W95111  37.526  35.429   4.138
28571W        W95112   6.180   8.335  14.032
28572W        W95113  16.083  29.993   1.947
28573W        W95114   3.609  29.080  13.048
28574W        W95115  38.967  43.227   4.943
28575W        W95116   6.078  19.121   4.674
28576W        W95117  11.859   8.885   4.089
28577W        W95118  25.170  37.952  14.401
28578W        W95119  18.530   3.342   2.035
28579W        W95120  43.168  10.430   3.547
28580W        W95121  36.600  27.085  11.527
28581W        W95122  31.293  24.712  12.608
28582W        W95123  33.469  29.119  12.573
28583W        W95124  26.251   1.858   3.662
28584W        W95125  17.487  34.340   5.085
28585W        W95126  21.992  18.705   1.834
28586W        W95127  20.097  17.571  13.810
28587W        W95128  21.222  20.188   1.851
28588W        W95129   6.360   6.360   1.845
28589W        W95130   8.825  25.124   3.718
28590W        W95131  40.511   6.835  14.373
28591W        W95132  24.922  10.089  12.111
28592W        W95133   6.635  24.968   2.872
28593W        W95134   0.484  26.692   1.677
28594W        W95135  13.085  13.736  10.939
28595W        W95136  28.775   8.697  14.290
28596W        W95137  32.612  24.615  12.943
28597W        W95138  10.159  11.915  10.990
28598W        W95139  10.886   8.097  13.487
28599W        W95140  29.921  21.457  11.573
28600W        W95141   7.500  36.361  14.756
28601W        W95142   5.332   5.194  12.271
28602W        W95143  37.767  31.197   0.034
28603W        W95144  38.039  16.768   2.866
28604W        W95145  31.924  36.026  11.213
28605W        W95146  22.359  19.841  12.449
28606W        W95147   6.162  37.059   3.667
28607W        W95148  38.744  32.685  11.052
28608W        W95149  10.680  24.652  11.619
28609W        W95150  23.256  10.572   0.257
28610W        W95151  18.285   5.170   1.924
28611W        W95152  33.104  43.766  14.258
28612W        W95153  32.061  31.948   4.004
28613W        W95154  20.725  17.620   4.186
28614W        W95155  17.202  45.000   4.614
28615W        W95156  23.650  22.770  14.960
28616W        W95157  35.792  13.776  13.289
28617W        W95158  35.914  13.249   3.981
28618W        W95159  29.347  35.840   2.292
28619W        W95160   0.540  36.564   3.797
28620W        W95161  40.724  33.020  11.081
28621W        W95162  28.217  27.007  14.449
28622W        W95163  35.355  25.541  13.344
28623W        W95164  11.736  14.973   0.658
28624W        W95165  11.615  29.350   0.454
28625W        W95166  41.779  15.177  14.987
28626W        W95167  20.169   6.267  14.301
28627W        W95168  41.407  26.035  11.640
28628W        W95169  11.764   3.972  10.592
28629W        W95170  32.406  12.839  14.466
28630W        W95171  22.262  34.388   3.276
28631W        W95172   1.323  12.417   2.720
28632W        W95173  18.219  37.584   1.576
28633W        W95174  12.825  41.342   0.886
28634W        W95175  25.930  35.277  14.363
28635W        W95176   6.636  10.499   1.868
28636W        W95177  35.602  36.214  11.287
28637W        W95178   5.394  22.091   4.593
28638W        W95179  37.019  35.162  14.308
28639W        W95180  33.413  43.788  14.878
28640W        W95181   5.629   4.202  13.474
28641W        W95182   2.341  29.659   9.926
28642W        W95183  23.985  30.387   0.906
28643W        W95184  31.902   0.260   4.627
28644W        W95185  34.490  27.276   1.477
28645W        W95186  22.306  31.516   0.952
28646W        W95187   7.279  22.950   1.091
28647W        W95188  29.023  29.400  14.377
28648W        W95189   1.063  33.579  11.569
28649W        W95190  35.352  26.262  12.516
28650W        W95191   7.747  23.694  13.833
28651W        W95192  18.365  24.675   4.174
28652W        W95193  18.037   3.802  13.120
28653W        W95194   7.015  31.681  12.544
28654W        W95195  38.085  31.169  13.459
28655W        W95196  18.659  28.652   1.355
28656W        W95197   2.031  37.990  11.733
28657W        W95198  28.443  38.866  10.492
28658W        W95199  30.809   5.383   3.357
28659W        W95200  31.665  32.041  14.530
28660W        W95201  19.023  12.654   1.307
28661W        W95202  15.962  35.575  10.737
28662W        W95203  44.886  26.043   1.912
28663W        W95204  18.519  23.678   3.751
28664W        W95205  14.668  30.707   2.735
28665W        W95206   4.417  20.043  13.421
28666W        W95207  26.924  21.459  12.100
28667W        W95208  33.550  43.562  14.433
28668W        W95209  17.202  44.173  13.493
28669W        W95210  40.913  34.681  10.820
28670W        W95211  12.843  23.037  11.942
28671W        W95212  29.945  19.462  10.778
28672W        W95213   6.105  13.273   1.874
28673W        W95214  25.523  39.518   2.759
28674W        W95215  25.677  22.250  12.318
28675W        W95216  34.474  31.254  14.082
28676W        W95217  43.964  39.860   3.804
28677W        W95218  31.566   3.902   0.210
28678W        W95219  38.930  34.117   2.911
28679W        W95220  23.996  24.818   1.774
28680W        W95221  33.037  41.992   0.987
28681W        W95222   2.785  18.786   4.182
28682W        W95223   8.334  25.540   1.077
28683W        W95224  34.653  44.691  13.978
28684W        W95225   1.314  32.882   1.700
28685W        W95226  35.489   5.259   5.056
28686W        W95227  23.570  27.075  10.589
28687W        W95228  15.567   5.422   5.171
28688W        W95229  11.952   5.396   3.652
28689W        W95230   7.373   9.756   2.468
28690W        W95231  32.973  40.489  11.082
28691W        W95232  34.957  22.670   1.687
28692W        W95233   0.646   8.447  14.487
28693W        W95234  11.392  43.830  14.908
28694W        W95235  17.615   9.399   2.193
28695W        W95236  36.006  24.611   1.416
28696W        W95237  43.816  33.593  10.660
28697W        W95238  43.547  15.956   4.689
28698W        W95239  25.039  30.513   2.280
28699W        W95240   8.417  33.552  11.176
28700W        W95241  38.832  22.162   2.946
28701W        W95242  28.452  11.980  10.011
28702W        W95243   9.598  43.941   2.325
28703W        W95244  29.951  37.997   2.367
28704W        W95245  27.055  13.806   4.327
28705W        W95246  24.739  27.306  13.043
28706W        W95247  32.514  39.169   4.346
28707W        W95248  22.574   1.512   2.180
28708W        W95249  22.019   1.227   3.409
28709W        W95250   3.762  12.826  13.397
28710W        W95251  13.750  34.007   0.821
28711W        W95252  43.323  13.797   1.658
28712W        W95253   0.509   1.630  10.093
28713W        W95254  21.783   2.883  14.293
28714W        W95255   6.201  31.001   4.059
28715W        W95256  10.344  17.774  14.040
28716W        W95257  19.642  32.883   3.847
28717W        W95258  40.393  31.604  13.001
28718W        W95259  39.498  31.106  10.697
28719W        W95260  11.545  31.919  10.045
28720W        W95261  14.416  30.942   2.109
28721W        W95262  36.599  29.068   1.958
28722W        W95263   4.765  35.975   4.647
28723W        W95264   6.460  16.695  10.997
28724W        W95265  40.913  35.068  14.739
28725W        W95266  33.540  34.399   1.047
28726W        W95267  29.603   2.406  13.141
28727W        W95268  20.018  12.331   3.598
28728W        W95269  22.078  21.252  11.430
28729W        W95270  35.281  12.184   3.712
28730W        W95271   8.748  26.353   4.786
28731W        W95272  40.261  27.200  12.100
28732W        W95273  42.769  15.612   1.844
28733W        W95274  26.933  41.196   1.762
28734W        W95275  36.173   4.918   0.453
28735W        W95276  36.249  28.973  14.857
28736W        W95277   6.626  11.105   0.343
28737W        W95278  34.529   1.794   2.824
28738W        W95279  22.579   7.630  13.010
28739W        W95280  14.432   5.719   0.437
28740W        W95281   6.694  18.044   2.315
28741W        W95282  22.484  20.642  12.463
28742W        W95283  42.241  33.107  13.520
28743W        W95284  14.548  29.130   0.938
28744W        W95285  26.592  12.210   1.658
28745W        W95286   8.608  16.657  14.891
28746W        W95287  26.888  10.909  14.835
28747W        W95288  42.484  26.221  12.225
28748W        W95289  32.968  21.472  12.543
28749W        W95290  23.561  23.634   4.042
28750W        W95291   5.312   5.946   0.451
28751W        W95292   9.682   5.276   1.147
28752W        W95293  21.097  36.049   3.687
28753W        W95294  10.247   9.160  10.713
28754W        W95295   5.340  42.505  10.995
28755W        W95296  38.792  21.120   0.241
28756W        W95297  30.664  34.396   3.068
28757W        W95298   1.504  14.333   3.422
28758W        W95299  29.029   7.941   4.437
28759W        W95300  42.278  24.783   3.677
28760W        W95301  17.804  35.829  10.643
28761W        W95302  31.819  35.554   3.243
28762W        W95303   8.276  34.473  14.356
28763W        W95304  28.106  22.777   3.406
28764W        W95305  43.851  22.261  14.037
28765W        W95306  32.158  36.556  12.043
28766W        W95307  16.672  12.622  10.631
28767W        W95308  17.541   0.620  13.136
28768W        W95309   6.246  27.400   0.979
28769W        W95310  28.001  41.544  11.165
28770W        W95311   8.648   4.804  11.486
28771W        W95312  34.127   8.240   3.379
28772W        W95313  43.412  33.344   3.070
28773W        W95314  13.682   6.349  12.445
28774W        W95315  35.065  37.478  12.684
28775W        W95316  32.352  17.193   1.962
28776W        W95317   6.590   0.323  10.001
28777W        W95318   6.836   6.327   1.552
28778W        W95319  12.478  44.523   4.609
28779W        W95320  14.665  29.663  10.241
28780W        W95321   7.892   0.345   1.652
28781W        W95322  24.042   0.802  11.196
28782W        W95323  20.208  43.258   0.244
28783W        W95324   2.111   7.428   0.270
28784W        W95325  13.867  28.834   2.387
28785W        W95326   0.522  31.886   2.626
28786W        W95327  33.221  13.753  11.558
28787W        W95328  36.444   6.253   1.930
28788W        W95329  42.888   8.803   3.894
28789W        W95330  38.444  24.741  12.981
28790W        W95331  37.760  26.158   4.668
28791W        W95332  38.143   1.922  12.025
28792W        W95333   7.254  17.665   2.782
28793W        W95334  41.950  44.748   1.998
28794W        W95335  36.864  19.746  13.002
28795W        W95336  24.327   6.286   4.965
28796W        W95337  24.854  39.895  10.639
28797W        W95338  15.706  34.613  13.745
28798W        W95339   7.655   0.278   2.573
28799W        W95340   8.910   6.416  12.631
28800W        W95341  18.571  37.985  11.960
28801W        W95342   9.224  39.124   1.926
28802W        W95343  16.348  28.635   1.965
28803W        W95344  33.766  18.036  11.196
28804W        W95345  25.185  31.336  11.566
28805W        W95346  17.469  12.898  13.392
28806W        W95347  26.006   0.617   0.386
28807W        W95348   6.245   3.019  13.932
28808W        W95349  25.054   4.922   1.867
28809W        W95350   1.746  26.226  10.995
28810W        W95351  32.189  25.203  12.965
28811W        W95352  37.339  41.992   0.773
28812W        W95353  14.360  15.632  14.393
28813W        W95354  21.544   0.809   2.809
28814W        W95355  23.712  39.532  12.943
28815W        W95356  15.349  41.032  11.503
28816W        W95357  38.473  26.466   2.351
28817W        W95358  21.097  34.639   2.844
28818W        W95359   9.946  10.303   2.051
28819W        W95360  18.466   8.218   3.916
28820W        W95361  26.497   3.847  13.882
28821W        W95362   9.832  11.219   1.696
28822W        W95363  19.515   0.138  14.997
28823W        W95364   0.834  25.067  13.220
28824W        W95365  41.640  41.360  11.738
28825W        W95366   7.182  42.385   4.121
28826W        W95367  11.799  31.985   1.676
28827W        W95368  39.176  31.366  13.876
28828W        W95369   9.934  43.285  11.659
28829W        W95370  44.951  20.644  14.753
28830W        W95371  21.950  39.137   3.366
28831W        W95372  20.107  25.153   3.087
28832W        W95373   9.275  12.902  12.887
28833W        W95374  10.203  13.302   4.236
28834W        W95375  40.508  40.569   3.658
28835W        W95376   8.067  15.334  14.740
28836W        W95377  22.095  29.024  11.030
28837W        W95378  22.813  25.472   1.349
28838W        W95379   6.831  43.920   3.376
28839W        W95380   2.870   3.995   2.204
28840W        W95381  29.183  14.735   2.832
28841W        W95382  39.476   0.462   4.055
28842W        W95383  13.271  44.770   2.733
28843W        W95384   7.158   8.389  11.575
28844W        W95385  17.429  42.991  12.889
28845W        W95386  31.963   7.896  14.102
28846W        W95387  34.264  44.252  12.095
28847W        W95388  36.561  35.950   3.275
28848W        W95389  11.800  41.017  10.965
28849W        W95390  33.929   6.384  11.070
28850W        W95391   3.670  27.468   0.827
28851W        W95392  28.341  36.596   0.162
28852W        W95393  29.389  33.004  10.923
28853W        W95394   1.000  42.487  14.876
28854W        W95395  17.976  21.413  13.007
28855W        W95396  29.075  15.610   5.157
28856W        W95397  44.499  30.632  14.709
28857W        W95398  40.433  20.563   4.095
28858W        W95399  32.651   6.399   4.045
28859W        W95400  15.683  27.397   3.822
28860W        W95401   5.924  40.465   2.360
28861W        W95402  39.470  10.852   9.913
28862W        W95403   2.378  38.943  14.872
28863W        W95404  36.508  14.093  13.690
28864W        W95405  34.207  25.912  10.649
28865W        W95406  31.016   9.792  12.707
28866W        W95407  28.466  30.044   3.848
28867W        W95408  11.587  44.117  12.010
28868W        W95409  20.651  39.852   0.096
28869W        W95410  20.079   9.022  13.892
28870W        W95411  31.866  15.470  11.162
28871W        W95412  22.040   1.179  13.430
28872W        W95413  44.330  27.747   4.942
28873W        W95414  32.398  27.720   2.065
28874W        W95415  43.652  29.971  12.850
28875W        W95416  18.573  20.531   4.849
28876W        W95417   4.985   4.541   3.071
28877W        W95418  17.832  22.584   4.164
28878W        W95419  16.959  39.897   3.871
28879W        W95420  40.277  20.574  12.475
28880W        W95421  22.887  23.716  13.537
28881W        W95422  11.857  13.384  14.712
28882W        W95423  22.364  24.523  14.770
28883W        W95424  35.014  11.788   5.181
28884W        W95425   8.821   6.817   3.677
28885W        W95426  29.583  28.732   2.349
28886W        W95427  27.802   0.213  12.506
28887W        W95428  20.318  31.406   3.285
28888W        W95429  27.889  40.984  14.267
28889W        W95430  44.866  10.123   4.101
28890W        W95431  34.956  12.638   2.676
28891W        W95432   9.482  37.037  13.454
28892W        W95433  26.416  34.528   3.074
28893W        W95434   4.356  28.538   0.422
28894W        W95435  20.204  43.793   3.775
28895W        W95436  42.565   4.001  11.550
28896W        W95437  27.281  37.796   0.875
28897W        W95438  23.036  15.321  13.486
28898W        W95439   7.271  39.490  11.740
28899W        W95440  20.489  21.606   2.437
28900W        W95441  42.292  42.873   1.831
28901W        W95442  28.523  36.911   4.449
28902W        W95443   4.759  26.333   5.346
28903W        W95444  37.079  31.637  11.602
28904W        W95445  32.872  12.592   0.403
28905W        W95446  20.161   0.198   1.365
28906W        W95447   5.103  41.970   4.534
28907W        W95448   9.868   6.503   3.883
28908W        W95449  24.273  26.137  12.930
28909W        W95450  33.086   3.648   2.412
28910W        W95451  11.327   4.312   1.963
28911W        W95452  12.847  42.941   4.221
28912W        W95453   5.711   7.305   0.805
28913W        W95454  39.436  31.523  13.435
28914W        W95455  31.219  33.440  11.198
28915W        W95456  26.982  29.924  10.522
28916W        W95457   2.285  39.328   3.685
28917W        W95458  28.101  22.152  14.008
28918W        W95459  35.728  15.415   3.280
28919W        W95460  28.111  31.890   4.660
28920W        W95461  32.671  42.887   0.802
28921W        W95462  36.370  19.034   1.488
28922W        W95463  19.709   6.920  11.984
28923W        W95464  39.453  35.755   4.555
28924W        W95465   9.346  29.500  14.174
28925W        W95466   1.753   9.214   2.665
28926W        W95467  17.142  21.031  11.676
28927W        W95468   2.203  11.397  11.089
28928W        W95469   0.957  38.988   2.629
28929W        W95470  41.263  22.129   0.313
28930W        W95471  25.516   6.951  13.036
28931W        W95472  30.927  22.613   0.835
28932W        W95473   5.733   9.857   4.173
28933W        W95474  18.167  31.228  12.952
28934W        W95475  40.751  30.615  12.110
28935W        W95476  16.543  23.658   4.531
28936W        W95477  41.139  21.337   4.236
28937W        W95478   7.760   6.366   4.059
28938W        W95479  42.027   2.865  10.711
28939W        W95480  40.713   2.642  12.038
28940W        W95481  31.789   7.686   2.762
28941W        W95482  25.603  11.442  11.461
28942W        W95483  31.539  11.030   2.776
28943W        W95484  22.556   8.923  10.995
28944W        W95485   0.728   0.786   0.215
28945W        W95486  25.634  25.985  12.494
28946W        W95487   1.428  14.714  14.202
28947W        W95488  21.499   0.007  11.636
28948W        W95489  25.199   4.657   4.384
28949W        W95490  27.129   1.387  14.254
28950W        W95491  24.388  42.874  12.539
28951W        W95492  21.083  42.777  14.526
28952W        W95493  18.562  36.956   0.884
28953W        W95494   1.241  24.983   4.187
28954W        W95495  34.800  24.301  13.843
28955W        W95496   1.692  27.918   9.849
28956W        W95497  37.143   2.310  11.015
28957W        W95498   0.902  41.322  10.772
28958W        W95499  16.919  26.100  12.541
28959W        W95500  15.825  20.439  14.195
28960W        W95501   7.149   4.345  12.478
28961W        W95502   7.280  42.215  13.613
28962W        W95503   0.865   9.785  10.991
28963W        W95504   5.870  31.377   3.186
28964W        W95505  33.142  25.727   2.373
28965W        W95506  32.968   3.306  12.105
28966W        W95507  10.621   7.842   1.664
28967W        W95508  13.048   9.337  13.993
28968W        W95509  40.796  20.168   4.566
28969W        W95510  31.041  44.033  14.843
28970W        W95511  35.019  34.905   1.355
28971W        W95512  33.589  11.570  14.871
28972W        W95513   7.967  37.559   1.402
28973W        W95514  34.813  22.290  14.214
28974W        W95515  22.669  10.600   3.351
28975W        W95516  23.896  19.329  11.576
28976W        W95517  43.329  17.036   9.720
28977W        W95518  42.846   1.418  12.750
28978W        W95519  26.039  24.723  11.557
28979W        W95520   4.377  28.491   2.931
28980W        W95521  18.606  12.926   3.113
28981W        W95522  12.848  29.003   0.433
28982W        W95523  38.946   4.685  12.875
28983W        W95524   0.891   7.276   1.772
28984W        W95525  17.695  39.071   1.835
28985W        W95526  37.198  13.784  14.897
28986W        W95527   4.525  11.373  14.516
28987W        W95528  42.285  40.033  12.176
28988W        W95529   4.817   0.856   1.645
28989W        W95530  36.961   4.834  14.959
28990W        W95531  13.237  37.107   4.219
28991W        W95532  20.499   3.706  10.862
28992W        W95533   4.551  41.356   4.642
28993W        W95534   6.502   3.224  10.262
28994W        W95535  44.872   5.958  11.992
28995W        W95536  29.905  20.150  11.926
28996W        W95537  39.215  31.125  12.022
28997W        W95538  24.157  43.360  11.215
28998W        W95539  24.003   7.654  12.870
28999W        W95540   9.364  11.634  13.452
29000W        W95541  31.712  23.296   4.174
29001W        W95542  30.629  15.363   3.027
29002W        W95543  38.106  21.021  13.856
29003W        W95544  21.467  10.638   4.239
29004W        W95545   8.125   4.692   3.681
29005W        W95546  31.159  24.734   4.718
29006W        W95547  18.753   6.286   4.612
29007W        W95548  15.314  16.207   0.460
29008W        W95549  28.422  30.432   3.476
29009W        W95550  22.589   2.491   4.151
29010W        W95551  22.696  12.088  12.059
29011W        W95552   6.905  32.868   4.572
29012W        W95553  37.871  28.468   2.862
29013W        W95554  26.962  44.992   1.044
29014W        W95555  37.103  28.878   2.865
29015W        W95556  44.424  19.192   4.537
29016W        W95557  15.158  27.568  14.387
29017W        W95558  33.398  14.682   0.046
29018W        W95559  31.258  35.547  10.831
29019W        W95560  35.356  17.044  10.740
29020W        W95561   1.671   6.954   2.569
29021W        W95562  22.996  41.525   1.872
29022W        W95563  43.927  33.361   1.226
29023W        W95564  43.315  18.208   4.920
29024W        W95565  40.727  21.298   0.314
29025W        W95566  11.228  44.820   4.043
29026W        W95567  11.598  25.154   2.672
29027W        W95568  32.481  33.826  11.178
29028W        W95569  22.122  38.260  11.941
29029W        W95570  36.924   6.962   1.153
29030W        W95571  41.426  43.827   3.010
29031W        W95572  41.868  13.123  12.627
29032W        W95573  11.682  42.990   4.757
29033W        W95574  23.099  26.599   1.830
29034W        W95575  39.004  43.759  13.931
29035W        W95576  33.037  24.086   0.872
29036W        W95577  25.445  43.927   1.200
29037W        W95578   7.719  12.782   2.363
29038W        W95579  37.562   8.157   2.238
29039W        W95580  38.566  22.302  13.969
29040W        W95581  23.228  29.973   0.137
29041W        W95582   2.206  11.703   0.280
29042W        W95583  13.350  40.601  13.339
29043W        W95584  22.427   6.761  13.245
29044W        W95585  35.471  20.737   4.705
29045W        W95586  35.575   2.497  11.323
29046W        W95587  29.075  42.594  11.631
29047W        W95588  22.703  18.719   3.149
29048W        W95589  36.406  21.246  12.595
29049W        W95590  21.072   0.160   0.411
29050W        W95591  22.532   5.492   3.747
29051W        W95592  25.698  29.959   3.908
29052W        W95593  37.431  15.955  13.597
29053W        W95594  10.581  10.712  14.341
29054W        W95595  15.316   5.890  13.051
29055W        W95596  11.382  36.359   2.845
29056W        W95597  15.225   9.187  13.779
29057W        W95598  14.554   3.237  13.514
29058W        W95599  10.754  20.981   0.209
29059W        W95600  13.081  39.945  11.013
29060W        W95601  21.428  42.726   3.658
29061W        W95602  16.333  32.607  12.085
29062W        W95603  43.772  28.486  10.494
29063W        W95604  44.807  21.616  11.851
29064W        W95605  29.461   0.062   2.896
29065W        W95606   4.427  15.844  10.868
29066W        W95607  20.344  20.204   3.818
29067W        W95608  12.235   0.333   0.099
29068W        W95609   4.043   3.911  10.294
29069W        W95610  21.319   5.506  13.047
29070W        W95611  25.703  27.509  11.936
29071W        W95612  20.768  27.127  11.097
29072W        W95613   5.855  43.237  11.390
29073W        W95614  23.872  35.947  12.402
29074W        W95615  22.094  17.521   0.432
29075W        W95616  44.599  16.723   4.988
29076W        W95617  36.902  35.857  11.278
29077W        W95618  15.539  12.667   3.144
29078W        W95619  28.200  40.414   2.189
29079W        W95620  11.580   1.393   0.866
29080W        W95621  36.122  29.913  13.848
29081W        W95622  43.941  11.926   4.142
29082W        W95623   1.758  29.489   1.950
29083W        W95624   3.424  36.156  14.379
29084W        W95625  11.306  38.953   4.233
29085W        W95626   2.256   4.894   2.894
29086W        W95627  39.411  38.681   4.192
29087W        W95628  26.707   7.930   0.970
29088W        W95629  33.076  15.781   3.129
29089W        W95630  30.983   6.867  13.077
29090W        W95631  35.052  23.268  13.897
29091W        W95632  39.389  16.565   2.239
29092W        W95633  22.970  11.281   0.005
29093W        W95634  16.291  30.198   0.146
29094W        W95635  18.589  38.936   3.148
29095W        W95636  33.217   5.440  13.797
29096W        W95637  23.743  22.541  13.556
29097W        W95638   0.304  40.100  11.376
29098W        W95639  43.938  32.395   3.280
29099W        W95640   6.358   4.195   4.573
29100W        W95641  14.564   7.759   2.918
29101W        W95642   0.287  27.103  14.793
29102W        W95643   5.272   3.811   2.652
29103W        W95644  21.233  37.327   2.650
29104W        W95645  17.776   0.823   3.121
29105W        W95646  17.762   0.854  13.581
29106W        W95647  42.107  42.069   4.130
29107W        W95648  39.777  40.450   1.413
29108W        W95649  43.043   5.273   3.904
29109W        W95650  21.920  26.855  14.709
29110W        W95651  19.789  34.881   3.086
29111W        W95652  13.773  25.729   1.452
29112W        W95653  32.838  36.972   4.564
29113W        W95654  40.321  22.920   0.404
29114W        W95655   5.359  12.921   0.936
29115W        W95656  27.556  43.078   4.312
29116W        W95657  44.496  41.986   2.153
29117W        W95658   2.241  42.314   4.612
29118W        W95659  27.936  20.574   1.845
29119W        W95660  17.497  18.215   4.550
29120W        W95661  40.582  34.794   0.020
29121W        W95662  10.813  30.416   4.053
29122W        W95663   9.907  43.115  11.124
29123W        W95664  13.397  43.833  13.052
29124W        W95665  20.203  22.804  13.510
29125W        W95666   5.243  34.076   0.929
29126W        W95667  28.207  41.015  12.012
29127W        W95668  42.457  41.376   2.552
29128W        W95669  40.693  40.776  13.026
29129W        W95670  31.008  37.462  13.129
29130W        W95671   2.889  33.037   4.115
29131W        W95672  33.681  41.201   1.207
29132W        W95673   5.922  29.943  10.099
29133W        W95674  13.521   0.556  10.329
29134W        W95675  32.448  22.523   2.866
29135W        W95676  20.796  10.807  14.336
29136W        W95677  33.014  35.463   2.896
29137W        W95678  28.392  21.535   3.719
29138W        W95679  21.267  10.802   3.301
29139W        W95680  15.221  16.808  12.819
29140W        W95681  26.207  17.821   0.889
29141W        W95682  13.846  24.794   1.769
29142W        W95683  37.439   2.281   0.293
29143W        W95684  33.079  10.232   3.161
29144W        W95685   1.978  25.948   4.491
29145W        W95686  35.225   2.433  13.897
29146W        W95687  17.484   5.822   0.389
29147W        W95688   9.728  23.620   2.693
29148W        W95689  18.739  41.964  13.584
29149W        W95690   6.382  11.851   1.658
29150W        W95691  28.717  38.892  10.933
29151W        W95692  33.387  14.281   1.341
29152W        W95693   8.598  12.760   0.313
29153W        W95694  43.729   5.684   4.545
29154W        W95695  27.066  23.717   1.927
29155W        W95696   0.282  44.473   4.324
29156W        W95697   1.446  17.594  11.101
29157W        W95698   8.662  36.859   0.953
29158W        W95699  31.234  34.201   0.580
29159W        W95700  13.146  29.659  14.424
29160W        W95701  17.572  41.053  12.394
29161W        W95702  15.529  29.037   4.560
29162W        W95703  12.035  27.025   0.954
29163W        W95704  25.112   1.814  12.169
29164W        W95705  24.690  22.701  14.791
29165W        W95706  34.560   5.240   2.714
29166W        W95707   1.655  39.403   2.004
29167W        W95708  10.053  36.702  14.901
29168W        W95709   9.670  27.651   4.064
29169W        W95710  14.144  33.000  10.647
29170W        W95711  18.282  17.053   1.288
29171W        W95712  17.204  43.229   0.253
29172W        W95713   8.033  29.170   3.466
29173W        W95714  17.266  33.861  14.290
29174W        W95715  21.637  26.220  11.829
29175W        W95716  39.807  24.722   4.112
29176W        W95717  32.002   8.780   9.539
29177W        W95718  19.990  16.274  10.852
29178W        W95719  23.736  43.737  12.842
29179W        W95720   2.777  16.249  14.473
29180W        W95721  23.202  40.773   4.423
29181W        W95722  27.642  24.554  13.862
29182W        W95723  14.030  14.564  14.373
29183W        W95724  32.519  19.229  14.120
29184W        W95725  29.182  31.014  11.186
29185W        W95726   2.819  20.170  10.724
29186W        W95727   6.169  40.487  14.012
29187W        W95728  29.466  25.905  12.631
29188W        W95729   2.376   2.279  13.018
29189W        W95730  39.346  12.160   0.507
29190W        W95731   1.344  34.039  11.442
29191W        W95732  21.641   2.768   0.805
29192W        W95733  22.271  28.737   4.275
29193W        W95734   2.835  44.510  11.945
29194W        W95735   7.349  36.544  12.895
29195W        W95736  40.238  42.090   3.808
29196W        W95737  19.167  29.634  14.848
29197W        W95738  27.510   9.705  12.495
29198W        W95739   5.926  37.386  14.258
29199W        W95740  30.032  21.419   1.632
29200W        W95741  36.718  39.023   2.176
29201W        W95742  33.296   3.837  12.963
29202W        W95743  31.971  36.862   2.407
29203W        W95744  22.069  39.629   3.291
29204W        W95745   6.528  42.835  10.786
29205W        W95746  27.005  12.363  10.231
29206W        W95747  11.356  10.784  13.884
29207W        W95748  43.268   0.372  11.607
29208W        W95749  33.479  39.918   3.318
29209W        W95750  10.659  31.331   2.322
29210W        W95751   1.376  41.272   4.567
29211W        W95752   4.524  39.645  14.989
29212W        W95753   3.017   7.262   1.476
29213W        W95754  17.337  27.607  12.097
29214W        W95755  22.659  19.099  14.722
29215W        W95756  14.080  13.672   1.237
29216W        W95757  40.152  24.057  13.706
29217W        W95758   3.215  44.509   1.367
29218W        W95759  36.423  42.026   3.241
29219W        W95760  30.642  32.395   1.605
29220W        W95761  36.018  11.970   2.305
29221W        W95762  21.180  31.573   2.943
29222W        W95763  27.103  39.240  10.631
29223W        W95764  44.885  15.357   0.252
29224W        W95765   6.242  30.572   3.141
29225W        W95766   3.984  15.787   4.177
29226W        W95767  14.557  11.076   4.536
29227W        W95768   7.279  11.176  13.131
29228W        W95769   5.362  44.915  12.364
29229W        W95770  41.979  27.064   4.856
29230W        W95771   5.638  32.501  10.030
29231W        W95772  19.753  37.845   1.616
29232W        W95773  40.324  37.140  12.175
29233W        W95774  18.506  42.018   4.098
29234W        W95775  30.182  23.950  11.736
29235W        W95776   6.785  23.033   0.918
29236W        W95777   6.773  28.787   3.036
29237W        W95778  23.480   9.393   9.664
29238W        W95779   0.866  13.372  13.565
29239W        W95780  31.641  35.305   2.148
29240W        W95781   5.613  39.793  11.846
29241W        W95782  29.209  18.247  11.564
29242W        W95783  22.289  36.608  12.626
29243W        W95784   9.347   8.828   3.540
29244W        W95785  16.113  35.269  11.658
29245W        W95786   0.417   8.144  13.484
29246W        W95787  16.234  43.991   0.023
29247W        W95788   5.295   0.260  12.903
29248W        W95789  35.052  30.942  14.601
29249W        W95790  16.169  35.590  12.613
29250W        W95791   6.794  18.111  12.639
29251W        W95792   8.554  20.226  10.687
29252W        W95793  12.157  32.132   2.355
29253W        W95794  29.400   8.221   0.855
29254W        W95795  16.559  27.463   3.350
29255W        W95796  28.929   1.704   3.104
29256W        W95797  11.207  40.856   1.499
29257W        W95798  38.761   9.703   3.821
29258W        W95799  12.788  24.676   0.076
29259W        W95800   4.677  22.619   0.234
29260W        W95801  42.339  13.942   0.191
29261W        W95802  25.256  24.210   3.114
29262W        W95803  36.262   5.523   0.498
29263W        W95804  33.443   9.003  12.607
29264W        W95805  16.263  36.419   2.880
29265W        W95806   8.924   4.275   3.424
29266W        W95807  15.179  35.816   0.818
29267W        W95808  43.055  42.580   3.668
29268W        W95809  20.562   9.477  13.314
29269W        W95810  36.050  16.069   2.291
29270W        W95811   9.796  27.741   1.689
29271W        W95812   4.501  18.689   2.338
29272W        W95813  20.607  40.959   4.415
29273W        W95814  15.314   4.874   3.849
29274W        W95815  14.593  13.369  14.149
29275W        W95816  35.504  14.700   1.964
29276W        W95817  28.492  12.268   2.041
29277W        W95818  16.957  32.652   1.458
29278W        W95819  27.554   8.328   3.847
29279W        W95820  43.427  22.097   4.599
29280W        W95821  32.852  18.152   3.367
29281W        W95822  40.807  29.069   0.319
29282W        W95823  17.838  39.855   2.392
29283W        W95824   3.750  37.069   4.131
29284W        W95825  13.380  41.369   3.680
29285W        W95826  13.530  12.234   1.444
29286W        W95827  31.461   3.515  14.256
29287W        W95828  41.735   3.273   4.994
29288W        W95829  16.462  11.365   4.105
29289W        W95830  40.409   4.181   0.912
29290W        W95831  13.945   1.499   0.248
29291W        W95832   7.228  25.107  11.373
29292W        W95833  27.916  27.157   1.452
29293W        W95834   6.950  44.748  11.259
29294W        W95835  33.502  34.515   1.612
29295W        W95836  43.325  18.681   2.648
29296W        W95837  28.737   0.548   0.589
29297W        W95838  32.494  31.419  13.800
29298W        W95839   7.311   3.151   1.077
29299W        W95840  38.022   1.721   3.856
29300W        W95841  26.568  31.401   4.650
29301W        W95842  17.239  19.038   2.851
29302W        W95843  28.868  41.355   2.704
29303W        W95844  27.903  35.002   0.486
29304W        W95845  26.753  10.252  14.335
29305W        W95846  22.967  33.700   2.227
29306W        W95847  38.059  41.852  11.558
29307W        W95848  32.421   6.210   3.154
29308W        W95849  13.148  38.503  10.437
29309W        W95850  29.850  20.590   0.897
29310W        W95851  19.692  20.413  10.999
29311W        W95852  18.558  33.795   2.568
29312W        W95853  23.162  14.063  14.230
29313W        W95854   4.263  43.057  11.964
29314W        W95855   5.003  37.513   1.174
29315W        W95856  33.100   0.891  10.587
29316W        W95857  29.808  20.039  11.387
29317W        W95858  23.086   3.467   1.290
29318W        W95859  22.076  28.153  10.770
29319W        W95860  22.011  43.723  13.391
29320W        W95861  40.069  24.710  12.234
29321W        W95862   4.343  29.757  11.471
29322W        W95863  18.351  17.730  11.113
29323W        W95864   6.764   9.590   4.879
29324W        W95865  18.032  22.670  12.495
29325W        W95866   5.660  28.494  13.564
29326W        W95867  10.192  21.576  12.444
29327W        W95868  21.503  27.213   0.892
29328W        W95869  34.522  19.063  13.858
29329W        W95870   2.238  32.872   1.685
29330W        W95871  32.568   7.963   1.118
29331W        W95872  23.170  16.235   1.231
29332W        W95873  32.966  16.661  13.603
29333W        W95874   5.747  34.210   2.256
29334W        W95875  31.643  13.992   2.817
29335W        W95876   0.281   6.505  13.899
29336W        W95877  16.946  37.781  10.353
29337W        W95878  42.998  38.553  13.137
29338W        W95879  12.239  22.426  10.799
29339W        W95880  15.992  14.891   1.677
29340W        W95881   5.818  38.239   2.432
29341W        W95882   9.335  14.648  11.679
29342W        W95883   6.845  15.720  14.207
29343W        W95884   1.376  18.332   1.412
29344W        W95885  21.673  43.542  10.732
29345W        W95886  25.615  33.699   1.845
29346W        W95887   3.205  32.868  12.425
29347W        W95888   7.234  18.814  10.741
29348W        W95889  29.538  35.450  11.191
29349W        W95890  35.622  16.619   3.657
29350W        W95891   5.898   4.538  12.883
29351W        W95892  15.688  29.184   2.438
29352W        W95893   9.172  25.443  14.317
29353W        W95894  15.186  37.628  11.521
29354W        W95895  42.252  41.906  14.957
29355W        W95896  15.120  17.052   2.651
29356W        W95897  12.256   7.915  11.226
29357W        W95898  37.517   2.253  12.589
29358W        W95899  39.905  32.637  14.818
29359W        W95900  42.044  24.711   3.225
29360W        W95901  11.917  44.025  14.123
29361W        W95902  39.566  17.541   3.178
29362W        W95903  11.291  16.659  11.825
29363W        W95904  13.622  22.518  10.717
29364W        W95905  32.473  12.771   3.346
29365W        W95906  32.157  39.024   2.689
29366W        W95907  13.651  30.916   3.696
29367W        W95908  37.847  28.933   3.702
29368W        W95909  44.310  37.152  10.637
29369W        W95910  35.150  44.976   1.545
29370W        W95911   7.562  40.537   0.408
29371W        W95912  34.758   3.284   1.335
29372W        W95913   0.660  13.997  11.651
29373W        W95914  14.072  18.394   1.229
29374W        W95915  19.877  27.977  14.905
29375W        W95916  36.495   8.577   4.383
29376W        W95917  18.862   3.311  13.917
29377W        W95918  34.451  28.538   2.908
29378W        W95919   5.345  23.592   1.383
29379W        W95920  35.561  28.731  10.820
29380W        W95921  19.755  37.096  10.708
29381W        W95922   9.708   5.717   1.396
29382W        W95923  20.223   5.169   2.193
29383W        W95924  20.581   3.035   1.333
29384W        W95925  31.254  12.950  10.713
29385W        W95926  31.156  25.941  11.559
29386W        W95927   5.626  24.122  14.907
29387W        W95928   0.421  28.969  14.917
29388W        W95929  42.258  35.654  13.799
29389W        W95930  22.022  35.893   1.432
29390W        W95931   0.761  19.955  11.599
29391W        W95932  10.749  19.044   3.253
29392W        W95933  17.181  21.794   4.149
29393W        W95934   5.317  23.699  13.930
29394W        W95935  38.121  36.914   4.327
29395W        W95936  31.159   1.462   2.299
29396W        W95937  44.435  17.736   2.940
29397W        W95938   2.924  20.732   3.634
29398W        W95939   0.489  12.675  13.745
29399W        W95940  29.454  18.418  13.395
29400W        W95941  20.304  19.347   0.906
29401W        W95942  13.547  41.055  14.300
29402W        W95943  43.553  28.087  13.054
29403W        W95944   3.899   7.784  11.179
29404W        W95945  20.424  23.777  11.638
29405W        W95946  23.518  13.043   2.779
29406W        W95947  40.218   5.975   3.732
29407W        W95948  22.628   9.540   4.218
29408W        W95949  21.270   6.233  13.505
29409W        W95950   5.390  33.099   1.548
29410W        W95951   2.652  34.435  10.644
29411W        W95952  10.058   9.286   4.417
29412W        W95953  37.757  34.721  12.024
29413W        W95954  23.940  11.286  13.757
29414W        W95955  14.699  12.869  11.602
29415W        W95956  38.583  13.649   1.758
29416W        W95957  36.273   9.525  13.498
29417W        W95958  41.315  15.142   0.189
29418W        W95959  28.637  33.134   4.578
29419W        W95960  35.512  10.230  12.431
29420W        W95961  21.403  14.211  11.154
29421W        W95962  21.111  40.600  12.868
29422W        W95963  41.403  21.787   4.254
29423W        W95964   3.446  21.231  12.556
29424W        W95965  10.697  31.725   1.422
29425W        W95966  29.583   9.229  10.478
29426W        W95967   9.129  29.082   0.409
29427W        W95968  37.534  40.153  14.505
29428W        W95969   0.230  44.253   4.808
29429W        W95970   7.217  43.404   2.241
29430W        W95971  19.601  19.570   2.429
29431W        W95972  43.811  36.165   4.045
29432W        W95973  12.881  11.630   0.960
29433W        W95974  38.829  40.836  11.443
29434W        W95975  17.269  19.757  12.128
29435W        W95976  30.510  27.582   3.638
29436W        W95977  34.832  21.264   0.206
29437W        W95978  28.037  25.693  10.701
29438W        W95979  40.351  23.561   2.648
29439W        W95980  42.493   2.547  11.924
29440W        W95981  40.347  29.987   0.168
29441W        W95982  43.959   0.579  12.158
29442W        W95983  12.713  40.804   0.791
29443W        W95984  36.528  33.126  11.508
29444W        W95985  25.151  22.989  10.412
29445W        W95986  14.902  20.212   2.300
29446W        W95987  16.465  33.781  12.931
29447W        W95988  23.648  37.488  12.684
29448W        W95989  37.346  32.236   4.708
29449W        W95990   3.052   7.096   0.431
29450W        W95991  17.790  40.685  10.547
29451W        W95992  12.740  43.373   0.988
29452W        W95993  26.590   4.169   5.067
29453W        W95994  23.017  11.181  13.859
29454W        W95995  39.392   4.160   2.827
29455W        W95996  26.572  32.688   3.350
29456W        W95997  21.714  41.368  11.573
29457W        W95998   7.618  14.729  14.499
29458W        W95999  28.100   3.180  12.529
29459W        W96000  31.197   5.420  12.968
29460W        W96001  33.975  32.729  10.897
29461W        W96002  19.601  11.165   0.694
29462W        W96003  18.480  11.277  11.685
29463W        W96004   8.318  18.750  14.358
29464W        W96005  25.327  25.576  11.173
29465W        W96006  33.568  23.163  14.295
29466W        W96007  35.357  17.995  10.642
29467W        W96008  30.701  16.094  11.949
29468W        W96009  24.071  33.403   3.598
29469W        W96010  20.755  43.673  12.923
29470W        W96011  24.411  39.916  14.032
29471W        W96012  16.870  12.533   5.010
29472W        W96013  21.453  23.839   0.802
29473W        W96014  20.021  29.501  12.428
29474W        W96015   1.894  10.707   0.993
29475W        W96016  12.305  13.110   2.622
29476W        W96017  11.790  35.492   2.410
29477W        W96018  19.982  23.151   3.050
29478W        W96019  20.586   4.168   4.093
29479W        W96020   8.582  23.425  12.577
29480W        W96021  28.273  33.139   9.849
29481W        W96022  18.998   1.855  10.300
29482W        W96023  18.784  16.858   0.913
29483W        W96024  35.000  17.824  11.409
29484W        W96025  32.546  26.509   3.635
29485W        W96026  10.305  22.425  12.614
29486W        W96027   9.229  38.133  14.990
29487W        W96028  37.432  29.580  11.636
29488W        W96029  10.390  29.130  12.398
29489W        W96030  38.875   7.415   3.762
29490W        W96031  19.808  16.566  14.490
29491W        W96032  43.809  19.689  14.065
29492W        W96033  36.367   1.928  14.537
29493W        W96034   9.369  11.421  14.322
29494W        W96035  35.936   6.175   1.269
29495W        W96036  30.391   4.034  11.022
29496W        W96037  34.854   4.682   1.184
29497W        W96038   0.433   1.134  11.543
29498W        W96039  40.972   3.616   3.855
29499W        W96040  30.681  39.504  11.598
29500W        W96041  26.516   5.171  13.361
29501W        W96042  27.999  33.841  13.700
29502W        W96043  41.032  28.379   2.305
29503W        W96044  32.552  25.025  12.622
29504W        W96045   4.195  25.842   4.139
29505W        W96046  29.859  27.523  14.751
29506W        W96047   0.245  36.407  12.998
29507W        W96048  22.459  15.576  13.864
29508W        W96049  12.234  27.739   4.582
29509W        W96050  44.786   8.754  13.995
29510W        W96051  39.493  25.276   3.284
29511W        W96052  25.059  44.417  10.584
29512W        W96053   3.377   2.203   2.762
29513W        W96054  31.767  42.104  12.959
29514W        W96055   2.634  17.400   0.958
29515W        W96056  27.259  21.192  13.433
29516W        W96057  18.593  36.088  14.947
29517W        W96058  15.105  34.133   3.737
29518W        W96059   8.972  42.526   0.510
29519W        W96060  42.519  14.260  13.793
29520W        W96061   3.980  13.327  14.922
29521W        W96062  44.548  37.342  13.027
29522W        W96063   0.886  24.153   1.426
29523W        W96064  38.913  30.413  11.641
29524W        W96065  31.928  10.169  14.957
29525W        W96066  10.901   4.969   0.805
29526W        W96067  24.590  23.010   0.936
29527W        W96068  31.477  29.442  12.045
29528W        W96069  22.695  12.538   0.365
29529W        W96070  13.122  40.408   4.512
29530W        W96071  17.804  13.633  11.739
29531W        W96072  40.346  33.865  10.677
29532W        W96073  42.790  29.547  13.855
29533W        W96074  39.236  43.815  13.469
29534W        W96075  15.167  36.118  11.130
29535W        W96076   0.806  15.284  13.301
29536W        W96077  12.616   5.162   3.360
29537W        W96078  41.986  22.579  13.792
29538W        W96079  27.193   2.751   4.747
29539W        W96080   0.357  28.876  11.192
29540W        W96081   4.567  26.977   2.356
29541W        W96082   4.963  16.072  12.044
29542W        W96083  15.165  19.731  12.458
29543W        W96084  29.605  42.943  13.819
29544W        W96085  10.205  35.716  12.196
29545W        W96086   6.716   0.933   0.463
29546W        W96087   0.235   3.463   0.775
29547W        W96088  39.475  33.798  12.053
29548W        W96089  12.791  35.279   0.885
29549W        W96090  33.137  38.859  11.651
29550W        W96091  40.517   5.959   3.278
29551W        W96092  40.894  19.623  14.513
29552W        W96093  38.968  26.480   2.186
29553W        W96094  44.187   9.557   0.853
29554W        W96095  31.915  14.924   4.222
29555W        W96096   2.763  37.501  14.082
29556W        W96097   7.815  40.934   0.197
29557W        W96098  31.176  40.974  14.762
29558W        W96099  27.124  26.969   1.954
29559W        W96100  36.417   1.725   3.567
29560W        W96101  11.859  28.957  13.357
29561W        W96102  41.059  28.925  14.842
29562W        W96103   5.389  32.334  12.214
29563W        W96104   6.345  42.377  12.835
29564W        W96105  18.233   1.196   2.396
29565W        W96106  25.366  14.364  12.888
29566W        W96107   0.155  25.234   1.033
29567W        W96108  23.469  28.917  13.821
29568W        W96109  25.327   4.101  14.357
29569W        W96110   3.370  40.080   4.328
29570W        W96111  39.038   9.625  11.166
29571W        W96112   0.352  12.842   1.922
29572W        W96113   3.206  28.935  14.041
29573W        W96114  31.986   0.728   1.964
29574W        W96115  15.186  34.102   2.576
29575W        W96116  40.998  11.430  11.623
29576W        W96117  26.862  31.016   2.584
29577W        W96118  12.462  39.466  13.424
29578W        W96119  28.004  31.093  10.398
29579W        W96120  38.147   1.343  13.285
29580W        W96121  38.588  35.871   1.323
29581W        W96122  22.143   8.454  14.403
29582W        W96123  34.230  23.112   4.215
29583W        W96124  13.346  40.649   2.334
29584W        W96125   2.033   9.232  10.807
29585W        W96126  17.699  10.991  11.894
29586W        W96127  17.768  35.462  14.620
29587W        W96128  37.281  32.622   0.264
29588W        W96129  17.168  22.256  13.456
29589W        W96130  11.839  27.035  11.576
29590W        W96131  20.319  37.987  13.042
29591W        W96132  18.625  27.281  10.466
29592W        W96133  29.616  34.391   1.359
29593W        W96134   5.590  13.229   3.637
29594W        W96135   4.028  40.583  10.100
29595W        W96136  19.159  37.212   0.739
29596W        W96137  38.979  30.327  14.920
29597W        W96138  40.388  16.515  10.579
29598W        W96139   1.809  21.600   3.657
29599W        W96140  21.483  31.100   4.269
29600W        W96141   7.883  35.319   3.482
29601W        W96142  21.733  25.138  14.655
29602W        W96143  33.913  28.913  10.406
29603W        W96144  27.448   6.262   0.481
29604W        W96145   4.235  44.926  11.881
29605W        W96146  21.764  21.352  10.780
29606W        W96147  25.237  14.245   2.134
29607W        W96148  23.639   3.872  11.480
29608W        W96149  17.563   1.861   3.212
29609W        W96150  12.778  32.517  13.741
29610W        W96151  10.078  44.425  14.730
29611W        W96152  13.312  39.316  14.905
29612W        W96153  15.016  41.399   1.625
29613W        W96154   1.016  34.046   0.465
29614W        W96155  29.778   8.639   4.569
29615W        W96156  14.562  16.071  11.645
29616W        W96157  21.339   2.408   2.576
29617W        W96158  22.497  19.926   0.186
29618W        W96159   7.712  28.356   3.265
29619W        W96160   4.998  18.713   2.219
29620W        W96161  23.610  29.999  11.464
29621W        W96162   7.191  22.785  13.866
29622W        W96163   3.663  40.551  12.479
29623W        W96164  35.823   5.405   9.515
29624W        W96165   2.902   0.885   2.585
29625W        W96166  43.463   0.853  10.554
29626W        W96167   1.037   2.252   4.211
29627W        W96168  38.234   0.053  14.881
29628W        W96169  44.266  41.042   1.969
29629W        W96170  22.462  15.882  11.552
29630W        W96171  28.187  17.916   2.625
29631W        W96172  43.805  25.686  11.923
29632W        W96173   7.234  34.985  14.551
29633W        W96174  19.272  18.677  11.732
29634W        W96175  20.557   5.742  11.326
29635W        W96176  31.945  11.125  13.349
29636W        W96177  13.299   8.404   0.434
29637W        W96178   5.791  40.708   0.795
29638W        W96179  32.440   7.610  11.375
29639W        W96180  22.089  31.992   3.053
29640W        W96181   0.274  34.946  11.041
29641W        W96182  15.621  34.762   4.067
29642W        W96183  28.077  13.019   3.974
29643W        W96184  34.547  43.561  11.463
29644W        W96185  13.647   7.636   4.023
29645W        W96186   2.371  33.678   5.727
29646W        W96187  28.055  37.043  12.431
29647W        W96188  12.073  23.910   2.716
29648W        W96189  36.456   2.872   2.950
29649W        W96190  17.920  38.856   0.765
29650W        W96191  40.794  34.424   2.394
29651W        W96192   4.917  34.483   2.447
29652W        W96193  23.016   4.194   4.891
29653W        W96194   3.740  31.408  13.504
29654W        W96195  40.580  32.933   1.347
29655W        W96196  28.175   8.301  12.355
29656W        W96197  38.010  26.056  11.766
29657W        W96198  40.846  32.112  10.700
29658W        W96199   8.880   3.837   0.223
29659W        W96200  24.204  29.004  11.134
29660W        W96201  18.097  36.860  12.911
29661W        W96202  15.791   5.038   1.916
29662W        W96203  15.686  42.021  11.181
29663W        W96204  17.803  33.934   0.605
29664W        W96205  30.835   7.848  10.762
29665W        W96206  32.623  13.317  12.803
29666W        W96207  19.719  20.135  13.121
29667W        W96208  36.399  43.855  14.217
29668W        W96209  42.940  18.722  13.927
29669W        W96210   6.429  23.063  13.703
29670W        W96211  40.260  18.942  10.882
29671W        W96212  26.126  15.256  11.216
29672W        W96213  16.624  24.234  10.685
29673W        W96214  18.780  18.256   2.226
29674W        W96215  35.031  29.387  13.586
29675W        W96216  23.763  23.455   2.393
29676W        W96217  23.012  34.402  10.809
29677W        W96218  31.178  31.134   0.394
29678W        W96219   2.279  35.979   4.111
29679W        W96220  43.277  14.646   3.292
29680W        W96221  17.989  19.535   2.863
29681W        W96222  29.215  24.261  11.484
29682W        W96223  25.555   1.208   3.668
29683W        W96224  37.395  36.881  10.670
29684W        W96225   8.197  35.920   1.933
29685W        W96226  20.171  30.218  11.193
29686W        W96227   9.845  43.627   4.126
29687W        W96228   7.934  29.772  12.888
29688W        W96229  29.655   3.347   3.219
29689W        W96230  35.600   4.334   1.660
29690W        W96231  39.456  10.364  13.018
29691W        W96232  35.536   4.813   1.843
29692W        W96233   3.227   3.973   3.650
29693W        W96234   0.508  16.815  11.896
29694W        W96235  36.308  26.393  13.259
29695W        W96236  29.690  23.956  10.717
29696W        W96237  10.133  24.545  10.712
29697W        W96238  32.413  15.305   2.639
29698W        W96239  40.735  29.014  10.786
29699W        W96240  29.837   9.541  12.494
29700W        W96241  23.309  22.774   0.927
29701W        W96242  29.684  12.542   2.371
29702W        W96243  21.232  29.930  12.524
29703W        W96244  20.163  12.138   1.753
29704W        W96245  10.439  22.761   5.011
29705W        W96246  42.815  30.763   0.363
29706W        W96247   1.710  37.393   0.771
29707W        W96248  14.557  18.534  14.256
29708W        W96249  25.882  41.093  13.354
29709W        W96250  18.314  40.757   3.702
29710W        W96251  36.766   8.228  13.818
29711W        W96252  35.878  22.560   1.840
29712W        W96253  35.604  35.130  12.804
29713W        W96254  11.932  28.588   4.922
29714W        W96255  37.365  13.114  11.169
29715W        W96256  11.100   9.610   1.185
29716W        W96257   3.862  20.425   2.183
29717W        W96258  14.753  15.116  13.824
29718W        W96259  24.150   0.361   2.600
29719W        W96260  30.016  37.031   0.381
29720W        W96261  43.364  40.916  14.574
29721W        W96262  12.302  19.750   0.502
29722W        W96263  31.618  42.199  14.733
29723W        W96264  42.782   2.681  13.644
29724W        W96265   2.494  17.905   4.463
29725W        W96266  43.223  24.175  11.522
29726W        W96267  26.955   9.423   2.691
29727W        W96268  18.215  28.461   3.465
29728W        W96269  33.393  34.821  11.676
29729W        W96270   3.303  40.892  10.692
29730W        W96271   4.639  12.866  11.601
29731W        W96272  39.340  29.530  12.605
29732W        W96273   1.748  43.743   0.721
29733W        W96274  38.705  31.028  12.931
29734W        W96275  36.975  11.984  10.640
29735W        W96276   6.017  16.931  10.261
29736W        W96277  10.613   3.873  13.393
29737W        W96278  40.752   1.342   0.098
29738W        W96279  23.126  31.981   1.958
29739W        W96280  23.808   1.752   2.206
29740W        W96281  33.613  19.019   2.866
29741W        W96282  12.570  31.965   1.319
29742W        W96283  30.531  39.577   4.800
29743W        W96284   3.188  37.143  13.372
29744W        W96285  30.144  20.281   2.342
29745W        W96286  43.861  22.958   1.668
29746W        W96287   2.699  40.030   2.315
29747W        W96288  31.522  13.914  13.907
29748W        W96289   1.476   7.024  11.694
29749W        W96290  21.586  40.458  13.027
29750W        W96291   1.297  10.364  11.412
29751W        W96292  37.496  43.416   1.239
29752W        W96293  30.222  37.304  14.971
29753W        W96294   9.637  29.582   0.986
29754W        W96295   9.127   5.746  13.996
29755W        W96296  39.294   8.139   1.827
29756W        W96297   9.389  17.094  13.538
29757W        W96298  20.815  17.643  12.386
29758W        W96299  43.511  35.934   2.510
29759W        W96300  26.056  28.983   0.524
29760W        W96301  20.606  41.384   2.258
29761W        W96302   6.849  29.182   4.052
29762W        W96303   2.744  24.440   3.850
29763W        W96304  28.926  22.096   4.544
29764W        W96305  26.670  14.525  11.594
29765W        W96306  16.103  43.612  12.853
29766W        W96307  26.031   8.855  13.878
29767W        W96308   6.187  20.440   3.403
29768W        W96309  20.046  24.636  13.812
29769W        W96310  30.202   4.230   3.310
29770W        W96311  16.560  24.617   3.627
29771W        W96312  21.206   9.826  13.429
29772W        W96313   0.329  30.590  13.156
29773W        W96314  10.043  13.750   2.261
29774W        W96315  32.940  31.941  10.757
29775W        W96316  38.888  28.591   0.829
29776W        W96317  19.693  42.126   0.513
29777W        W96318  14.860  36.900  12.895
29778W        W96319   5.680  28.072   1.856
29779W        W96320  31.091  34.015   1.932
29780W        W96321  12.270  22.704   3.830
29781W        W96322   6.774   7.347   4.307
29782W        W96323  23.487  12.197  14.578
29783W        W96324  20.709  40.443   4.323
29784W        W96325  19.272  34.964   3.150
29785W        W96326  26.432  16.636  12.502
29786W        W96327  25.950  21.961   0.366
29787W        W96328  23.788  17.753  13.403
29788W        W96329  16.321  38.385  10.796
29789W        W96330  28.315  17.958  11.037
29790W        W96331  41.261   7.807  14.747
29791W        W96332  25.882  21.431   2.435
29792W        W96333  31.080  25.496   2.224
29793W        W96334  24.562   1.269   2.696
29794W        W96335   3.060  42.444   0.737
29795W        W96336  35.632  23.064  12.098
29796W        W96337  25.687  12.512   1.242
29797W        W96338  21.287  24.066  11.175
29798W        W96339  37.825   3.814   0.274
29799W        W96340   1.533   8.754   2.754
29800W        W96341  16.833  27.621   1.419
29801W        W96342  14.829  42.786  14.001
29802W        W96343  15.905  22.550  11.777
29803W        W96344   6.045  12.765  14.430
29804W        W96345  44.262  40.136  10.891
29805W        W96346  42.928   5.934   0.590
29806W        W96347  26.181  34.951   4.515
29807W        W96348   6.992  37.451   0.083
29808W        W96349  21.034  18.602  13.392
29809W        W96350   6.535  39.711   1.224
29810W        W96351  34.138  13.213   3.043
29811W        W96352   2.430  33.510  13.131
29812W        W96353  32.236  16.990   3.690
29813W        W96354  37.061  17.569   4.374
29814W        W96355  36.994  19.447  12.117
29815W        W96356  20.671  36.931   4.643
29816W        W96357  15.018   6.252   2.086
29817W        W96358  37.430  14.695   2.895
29818W        W96359  31.524  30.276  13.022
29819W        W96360  32.447  13.698  13.084
29820W        W96361  40.397   5.804   4.633
29821W        W96362   6.813  29.512   2.346
29822W        W96363  12.068  41.620  11.187
29823W        W96364  30.373   1.719   3.270
29824W        W96365  22.662  21.507  14.583
29825W        W96366  18.857  26.090   4.763
29826W        W96367  25.124   9.686  12.911
29827W        W96368  36.577   7.376   1.172
29828W        W96369  16.007   8.843   0.948
29829W        W96370   7.671  31.637  13.271
29830W        W96371  12.209  29.367  10.653
29831W        W96372  24.206  13.124   3.893
29832W        W96373   3.525  22.033  14.570
29833W        W96374  39.302  40.412  10.986
29834W        W96375  14.666  44.950   2.736
29835W        W96376   7.417   6.430   2.783
29836W        W96377  35.347  36.671   1.317
29837W        W96378   1.480  42.984  12.857
29838W        W96379  11.288  14.297  10.922
29839W        W96380  15.875  39.488   3.388
29840W        W96381  33.959  38.775  12.307
29841W        W96382   1.851  41.380  14.306
29842W        W96383  43.554   3.448   3.272
29843W        W96384  13.341   5.914   1.281
29844W        W96385  19.578  14.071  12.124
29845W        W96386  13.635  37.240  14.405
29846W        W96387  27.978  22.414   3.820
29847W        W96388  41.578  34.110  13.050
29848W        W96389  33.402   5.364   1.651
29849W        W96390   8.738   3.412   3.779
29850W        W96391  33.583  38.939   4.576
29851W        W96392   6.407  10.571  11.257
29852W        W96393  13.749  21.767   1.779
29853W        W96394  21.588   9.656   2.263
29854W        W96395  24.126   4.378   3.609
29855W        W96396  14.887  20.888   2.325
29856W        W96397  42.380  19.118   1.768
29857W        W96398  28.449  27.961  12.831
29858W        W96399   1.234  17.214  13.748
29859W        W96400  19.601  32.036   5.008
29860W        W96401  14.866   3.722  12.741
29861W        W96402   3.764  38.484  11.603
29862W        W96403   4.216  13.185  11.653
29863W        W96404  14.760  32.120   3.662
29864W        W96405   0.263   1.602   5.064
29865W        W96406  16.290  19.251  10.724
29866W        W96407  20.719  30.179  11.059
29867W        W96408  40.292  35.548   1.721
29868W        W96409  12.809  33.668  11.448
29869W        W96410  30.650  33.089   1.871
29870W        W96411  34.672  29.679  14.447
29871W        W96412  41.004   3.880  10.634
29872W        W96413  43.566  23.435   4.591
29873W        W96414   1.718  27.612   1.419
29874W        W96415  38.006  44.355  12.039
29875W        W96416  37.815   4.309  11.697
29876W        W96417  43.894  21.063  10.609
29877W        W96418  19.154  18.593  10.200
29878W        W96419  43.295  33.545  12.692
29879W        W96420  40.547  19.098   2.411
29880W        W96421   2.344  15.534  13.963
29881W        W96422  36.942  20.560  13.422
29882W        W96423  24.920  30.502   4.886
29883W        W96424  20.563  31.627  12.538
29884W        W96425  20.025  20.288   1.174
29885W        W96426   3.845  22.804  12.171
29886W        W96427   1.933  13.259   4.104
29887W        W96428  38.273  17.679   0.359
29888W        W96429   6.054   7.190  10.343
29889W        W96430  19.520  23.212   1.360
29890W        W96431  20.013  19.770   1.001
29891W        W96432   3.300  36.469  12.467
29892W        W96433  27.133  40.330   2.685
29893W        W96434  16.703  32.218   1.411
29894W        W96435   7.138   7.417   0.640
29895W        W96436  12.222  18.723  12.475
29896W        W96437  44.487  24.683  13.015
29897W        W96438   2.742  32.336   2.640
29898W        W96439  11.855  18.461   3.629
29899W        W96440  33.391  28.945  10.348
29900W        W96441  11.210  37.299   1.325
29901W        W96442  37.502   6.649  14.768
29902W        W96443  14.401  30.468   3.822
29903W        W96444   0.743   6.260  14.048
29904W        W96445  18.547  44.445  12.912
29905W        W96446  11.301  15.168   0.884
29906W        W96447  35.654  18.323  12.429
29907W        W96448   3.868  39.575   0.462
29908W        W96449   5.853  34.914  13.934
29909W        W96450   2.772  10.187   1.429
29910W        W96451  33.457  17.613  11.249
29911W        W96452  31.497  26.021   0.463
29912W        W96453   1.398  22.289  11.434
29913W        W96454  38.880  18.080  12.657
29914W        W96455  42.964  22.298   2.222
29915W        W96456  32.902  35.333  13.863
29916W        W96457   9.759  43.988  13.466
29917W        W96458  21.240  12.585  12.163
29918W        W96459   1.985   0.305   1.656
29919W        W96460   7.587  11.761  14.336
29920W        W96461  26.331   2.030   1.930
29921W        W96462  16.647  44.570  12.268
29922W        W96463   3.698  12.851  14.607
29923W        W96464  27.557  27.641   3.564
29924W        W96465  37.299  28.158  11.101
29925W        W96466  15.234   7.355  13.248
29926W        W96467  21.038  23.273  14.381
29927W        W96468  21.172  22.076   2.159
29928W        W96469  18.499  27.755  13.078
29929W        W96470  31.010  32.693  14.847
29930W        W96471  37.035  17.247  14.979
29931W        W96472   8.342  37.807  11.114
29932W        W96473  37.755  43.748  13.668
29933W        W96474  32.032  43.298   4.176
29934W        W96475   9.393  43.387  13.919
29935W        W96476  26.007  41.400  12.056
29936W        W96477  35.368   8.745   2.835
29937W        W96478  30.573  17.746   2.810
29938W        W96479  32.922  15.293   4.554
29939W        W96480   7.426  44.454  11.048
29940W        W96481  20.524   4.400   0.994
29941W        W96482  38.305   4.546  12.570
29942W        W96483  41.668   9.222  12.823
29943W        W96484  28.054  19.017   3.661
29944W        W96485  25.621   8.234   0.274
29945W        W96486   4.265  17.851  11.067
29946W        W96487  19.255  24.125   0.419
29947W        W96488   3.422   0.039   4.423
29948W        W96489  32.453  32.968   3.614
29949W        W96490  44.938  23.569   2.826
29950W        W96491  20.537  16.364  13.892
29951W        W96492  21.417  15.162   3.019
29952W        W96493  17.120   4.702   5.148
29953W        W96494  21.814   6.974  10.351
29954W        W96495   8.244  44.453   0.093
29955W        W96496  35.139   8.224  13.351
29956W        W96497  22.104  37.004   0.195
29957W        W96498  28.849  26.173   3.659
29958W        W96499  38.558   7.439   3.350
29959W        W96500  43.505  44.307   3.847
29960W        W96501  40.926   0.393  12.571
29961W        W96502  42.674   0.325   1.991
29962W        W96503  38.134  30.580   4.212
29963W        W96504  23.515   8.236  14.519
29964W        W96505   5.459  28.235   4.642
29965W        W96506  19.819  37.827  11.621
29966W        W96507   8.353  35.052   2.607
29967W        W96508  10.544  31.712   3.159
29968W        W96509  15.676  32.733   0.882
29969W        W96510  30.983  39.932  11.599
29970W        W96511   3.926  30.653  11.117
29971W        W96512  38.962  31.455  12.704
29972W        W96513  41.068  29.662  14.740
29973W        W96514  19.068  18.210  12.518
29974W        W96515  43.796  31.441  13.759
29975W        W96516   8.634  10.620  14.297
29976W        W96517  40.337  13.376  13.958
29977W        W96518  13.449  43.806  14.767
29978W        W96519  30.915  28.383   1.598
29979W        W96520  29.422  14.665   1.522
29980W        W96521  40.838  40.313   3.345
29981W        W96522  17.151  21.745  13.073
29982W        W96523  43.726  19.327   0.841
29983W        W96524  38.851   4.853  11.981
29984W        W96525  38.443  20.577  13.470
29985W        W96526  26.746  37.990   2.789
29986W        W96527  22.552  24.066  14.978
29987W        W96528  12.292  20.666   2.042
29988W        W96529  14.058  11.479  14.656
29989W        W96530  37.537  40.897   2.292
29990W        W96531  39.248   2.475   2.036
29991W        W96532   4.635  26.520   1.802
29992W        W96533   5.901  16.399   2.576
29993W        W96534   3.553   7.085  12.958
29994W        W96535  28.378   1.402   2.169
29995W        W96536  25.544  13.714   1.341
29996W        W96537   4.195   1.104  14.461
29997W        W96538  13.343  28.238  13.785
29998W        W96539  17.669  44.560  14.126
29999W        W96540  16.027   0.369  12.406
30000W        W96541  30.386  23.572   1.394
30001W        W96542  25.281  10.172   4.797
30002W        W96543  18.346  17.925   1.912
30003W        W96544  13.256  15.597  13.068
30004W        W96545  20.992  19.368   2.322
30005W        W96546   6.672   1.873   0.934
30006W        W96547   2.342  14.157  11.186
30007W        W96548  18.780  16.746   4.899
30008W        W96549   3.909  42.204  11.479
30009W        W96550  37.657   4.450   4.045
30010W        W96551  27.356  19.974  13.395
30011W        W96552  40.328  33.139   1.795
30012W        W96553  28.909  25.449   0.503
30013W        W96554  33.109  17.322  11.477
30014W        W96555   4.804  43.200   3.198
30015W        W96556   7.297  18.075  12.947
30016W        W96557  28.128  30.464   0.988
30017W        W96558  10.355  11.599   9.956
30018W        W96559  21.589  35.823   3.607
30019W        W96560  27.059  31.784  14.869
30020W        W96561  19.728  40.322   3.658
30021W        W96562  43.454  16.332  13.876
30022W        W96563  18.772  33.932  12.563
30023W        W96564  37.577   3.890  14.802
30024W        W96565  11.856  16.362   4.403
30025W        W96566  14.223  34.420   0.378
30026W        W96567  19.669  11.370   2.359
30027W        W96568  25.616  17.837  12.592
30028W        W96569  23.503  43.340  12.548
30029W        W96570  20.117   5.697  11.640
30030W        W96571  15.157  37.703   0.379
30031W        W96572  33.760  11.262  13.501
30032W        W96573  31.003   4.074  13.352
30033W        W96574  31.280  43.382  13.310
30034W        W96575  28.679  37.933  13.577
30035W        W96576  23.425  23.764  12.650
30036W        W96577  20.982  18.124   4.961
30037W        W96578  15.218  40.758  14.416
30038W        W96579  32.039  43.840  14.721
30039W        W96580   7.226  17.106  13.001
30040W        W96581  40.864  37.176   0.575
30041W        W96582  26.705   3.694   3.149
30042W        W96583  15.136  33.551   9.936
30043W        W96584   0.055  31.621   0.251
30044W        W96585  15.269   9.619   2.192
30045W        W96586  31.599   9.128   3.681
30046W        W96587  44.025  35.409  13.899
30047W        W96588  14.291  16.525  11.651
30048W        W96589  14.640  20.237  10.936
30049W        W96590  36.051   9.390  12.166
30050W        W96591  43.310  27.522  12.000
30051W        W96592  18.713  20.816   0.408
30052W        W96593   1.185   1.986   2.291
30053W        W96594  32.026  36.568   3.713
30054W        W96595  35.384  27.410   2.397
30055W        W96596  24.575  31.553   1.351
30056W        W96597   1.238  27.491  10.642
30057W        W96598  28.185  44.775   4.438
30058W        W96599  17.015  39.933  12.455
30059W        W96600   3.205   6.109   2.876
30060W        W96601  33.866  38.098  10.605
30061W        W96602  15.152  29.907   1.914
30062W        W96603  21.165  29.069  14.782
30063W        W96604   6.257  40.956  12.188
30064W        W96605  25.647  42.436   4.071
30065W        W96606   3.815  43.335   3.434
30066W        W96607   1.294  25.036  13.879
30067W        W96608  15.695   1.257   4.811
30068W        W96609  22.099   7.365   4.596
30069W        W96610  34.331  29.144  14.078
30070W        W96611  20.354  18.497   0.421
30071W        W96612  25.439  30.424   1.956
30072W        W96613   9.984  20.043  12.792
30073W        W96614  22.414  38.927   3.336
30074W        W96615  17.968  29.458   0.550
30075W        W96616  43.739  18.781  14.400
30076W        W96617  18.118   4.416   1.885
30077W        W96618  27.677  14.701  10.519
30078W        W96619  42.328  26.620  11.938
30079W        W96620  12.584  39.532   4.447
30080W        W96621  13.268  21.832  13.091
30081W        W96622  32.833  36.600  12.486
30082W        W96623   1.559  30.408  11.244
30083W        W96624  36.546  14.608  11.133
30084W        W96625   0.121  17.090   4.553
30085W        W96626  39.875  17.957   3.136
30086W        W96627   7.480  35.424  13.813
30087W        W96628  12.149   2.680   1.774
30088W        W96629  35.741  17.500  13.159
30089W        W96630   1.696  36.837   3.334
30090W        W96631  19.169  42.366   1.829
30091W        W96632  16.076   9.257  12.547
30092W        W96633  43.200   0.799  14.824
30093W        W96634  43.067  11.048  14.089
30094W        W96635  36.146   6.814   0.409
30095W        W96636  44.911  30.491  12.891
30096W        W96637  32.179  29.502   4.934
30097W        W96638  37.596  40.047  13.043
30098W        W96639  16.829  34.430   1.893
30099W        W96640  36.568  39.411   3.405
30100W        W96641   6.170  36.918  14.878
30101W        W96642   3.212  29.675   2.637
30102W        W96643  19.570   3.430   1.136
30103W        W96644  18.648  40.962  13.672
30104W        W96645   7.659   2.541  12.888
30105W        W96646  23.167  43.239  11.219
30106W        W96647  35.994  35.439   1.948
30107W        W96648  15.674  31.484   1.194
30108W        W96649  38.365  20.704   0.978
30109W        W96650   5.899  35.524  10.669
30110W        W96651  32.036  16.490   3.671
30111W        W96652  31.595  38.560  11.758
30112W        W96653  38.548  21.311   3.637
30113W        W96654  14.753  44.190  11.613
30114W        W96655  31.655  27.040   3.848
30115W        W96656  20.091   9.108   4.908
30116W        W96657  20.283  26.030  11.981
30117W        W96658  22.965   4.176   4.170
30118W        W96659  36.448  26.440   3.938
30119W        W96660  40.612   8.895   4.147
30120W        W96661  11.379  33.601   1.583
30121W        W96662  16.745  36.482   4.717
30122W        W96663  24.634  29.542   2.279
30123W        W96664  39.585  30.104  13.058
30124W        W96665   6.969  21.948   0.087
30125W        W96666  25.168  34.169   1.374
30126W        W96667  19.005  41.851  14.522
30127W        W96668  26.061  38.982  14.333
30128W        W96669  38.176   3.435  14.489
30129W        W96670   9.602  28.039  11.510
30130W        W96671  14.406  11.421  10.845
30131W        W96672  21.036  24.223   0.053
30132W        W96673  18.251  42.015   2.750
30133W        W96674  29.040  43.516   3.376
30134W        W96675   8.044   5.546  14.428
30135W        W96676   9.926   8.194  10.898
30136W        W96677   9.145   6.813  12.904
30137W        W96678  34.699  40.302   2.155
30138W        W96679  10.595   2.918  11.588
30139W        W96680  34.962   1.598   3.952
30140W        W96681  17.135   2.450   4.173
30141W        W96682  24.654  29.753  14.414
30142W        W96683  39.863  42.250   3.214
30143W        W96684  32.547  30.431   4.853
30144W        W96685  27.457  31.491   3.311
30145W        W96686   0.445  38.770  12.530
30146W        W96687   6.706  36.329  13.516
30147W        W96688  41.827  11.485  13.398
30148W        W96689  21.888   1.839  13.348
30149W        W96690  15.830  37.269  11.075
30150W        W96691  14.220  23.792  11.594
30151W        W96692  37.966  32.942  12.509
30152W        W96693   6.219  21.756   2.312
30153W        W96694   0.335  16.224   4.153
30154W        W96695  34.477  42.696   0.739
30155W        W96696  37.338   1.265  12.884
30156W        W96697  23.100   0.060   4.612
30157W        W96698   8.987  35.084  13.071
30158W        W96699   5.224   8.136   1.803
30159W        W96700  27.961  14.329  13.907
30160W        W96701  43.189   6.811   1.273
30161W        W96702  21.959   4.871   3.168
30162W        W96703  16.610  10.927   4.319
30163W        W96704  18.630  40.963  14.541
30164W        W96705  17.659  12.864   1.499
30165W        W96706   7.839  44.602   4.709
30166W        W96707  22.087  12.181   4.813
30167W        W96708   6.026   0.476   2.683
30168W        W96709   9.884  43.186  13.972
30169W        W96710  42.298  43.466  11.248
30170W        W96711   5.885  30.160   1.656
30171W        W96712  41.979   4.977  11.751
30172W        W96713  14.278   7.097  12.323
30173W        W96714  15.156  26.392  11.180
30174W        W96715  26.143   2.479  11.524
30175W        W96716   4.387  38.310   0.298
30176W        W96717  10.686   1.972  11.409
30177W        W96718   1.572  41.823  14.423
30178W        W96719  10.691  44.016  13.426
30179W        W96720  32.368   1.677   4.142
30180W        W96721  23.001  15.166   3.800
30181W        W96722   1.301  35.877   0.395
30182W        W96723  43.484  30.676  10.493
30183W        W96724  34.187  12.139  13.918
30184W        W96725  14.889   0.864   3.839
30185W        W96726  35.004   6.904  13.152
30186W        W96727  19.835  29.379   1.675
30187W        W96728  11.757  10.820   0.844
30188W        W96729  37.650  24.986   3.475
30189W        W96730  29.441   1.302  11.762
30190W        W96731   4.958  14.306  12.554
30191W        W96732  41.703  19.270  10.533
30192W        W96733   5.673  12.260  10.622
30193W        W96734  25.172   5.919  14.907
30194W        W96735  29.519   7.202  13.133
30195W        W96736  27.416  33.524   3.196
30196W        W96737  38.462  27.189  11.656
30197W        W96738  32.662  27.782  10.337
30198W        W96739  29.599  27.637   1.669
30199W        W96740  22.673  33.593   4.217
30200W        W96741  23.527   9.893   1.387
30201W        W96742   9.942  31.941   0.331
30202W        W96743   7.685  18.712   0.003
30203W        W96744  19.170   2.265   2.337
30204W        W96745  36.319  38.153   4.136
30205W        W96746  23.753   0.456  10.747
30206W        W96747  38.800   2.511   1.781
30207W        W96748  40.470  27.466  14.217
30208W        W96749  35.510   0.331   1.660
30209W        W96750  32.299  22.604   4.966
30210W        W96751  35.036  34.369   1.258
30211W        W96752  17.186  43.873   2.945
30212W        W96753  18.359  27.387  13.412
30213W        W96754  19.390  27.494   0.769
30214W        W96755  44.363  36.314  12.974
30215W        W96756   2.452  23.070  12.434
30216W        W96757  13.211  13.637   1.410
30217W        W96758   3.002  44.268  14.931
30218W        W96759  28.033  40.688  11.638
30219W        W96760  13.334  37.483   0.461
30220W        W96761  20.161  20.533  11.206
30221W        W96762  23.226  33.565   1.508
30222W        W96763  42.354  13.412   1.305
30223W        W96764  42.545  32.188  11.340
30224W        W96765  24.930   1.284  11.696
30225W        W96766  10.169  12.204   1.929
30226W        W96767   7.172  13.190   1.212
30227W        W96768   7.795  14.476   2.138
30228W        W96769  19.728   5.304   3.939
30229W        W96770  10.196   0.087   1.481
30230W        W96771   8.208   9.462   0.841
30231W        W96772  17.127  44.526   3.664
30232W        W96773  26.307  38.255   1.664
30233W        W96774  33.872  20.330  14.994
30234W        W96775  35.997  19.796  13.143
30235W        W96776  34.666  38.469  13.927
30236W        W96777  36.022   1.854   0.395
30237W        W96778   4.379   8.362  12.407
30238W        W96779  19.344  29.229   2.383
30239W        W96780  35.041   7.889   3.681
30240W        W96781  25.478   0.921  13.853
30241W        W96782  32.142  18.077   4.620
30242W        W96783   6.227  12.462  14.853
30243W        W96784  43.985  26.413   1.779
30244W        W96785  31.648  35.341  14.386
30245W        W96786   4.245  22.052  11.597
30246W        W96787  11.632  35.013   0.404
30247W        W96788  26.192  40.230  11.537
30248W        W96789   2.126   2.834  12.586
30249W        W96790  18.329  38.469   1.329
30250W        W96791   6.823  24.336   5.616
30251W        W96792  32.580  42.390   1.832
30252W        W96793  11.357   1.343   2.760
30253W        W96794  15.140   1.062  11.427
30254W        W96795  22.555   2.434  11.715
30255W        W96796  20.279   8.119  14.083
30256W        W96797  16.628  43.261  12.457
30257W        W96798  32.083  18.094  14.262
30258W        W96799  33.605  32.960   0.676
30259W        W96800  43.309  37.332   2.681
30260W        W96801  24.561  34.521   3.144
30261W        W96802  23.164  40.588   0.234
30262W        W96803  21.186  41.705   3.719
30263W        W96804  30.473   5.098   1.314
30264W        W96805  26.619  21.385   2.205
30265W        W96806  11.843   4.714  14.428
30266W        W96807  29.387  13.396  14.879
30267W        W96808  38.255   6.739  13.167
30268W        W96809  10.792  10.468   2.345
30269W        W96810  15.805  10.594   1.778
30270W        W96811  38.182  41.219  13.827
30271W        W96812  15.530   5.185   3.174
30272W        W96813   6.421   5.061   4.269
30273W        W96814  35.083  26.578   1.909
30274W        W96815  14.149  41.930  14.181
30275W        W96816  41.786  11.886  10.429
30276W        W96817  10.275  19.110  13.370
30277W        W96818   5.222  28.107  10.189
30278W        W96819   0.747  40.045   2.525
30279W        W96820  29.567  23.954   0.950
30280W        W96821  22.616  39.920  13.345
30281W        W96822  24.554  22.263  14.452
30282W        W96823  18.472  13.265   4.417
30283W        W96824  24.695  19.648   0.211
30284W        W96825  32.651  44.026   2.270
30285W        W96826  38.825  23.113   1.184
30286W        W96827  25.863  37.889   0.829
30287W        W96828  37.117  12.263   0.794
30288W        W96829   2.547  10.730   4.673
30289W        W96830  15.754  24.520   4.523
30290W        W96831  16.816   1.661   3.765
30291W        W96832   2.018  17.142   4.058
30292W        W96833  39.876  24.057  11.659
30293W        W96834  37.148  16.453  13.487
30294W        W96835  18.676   3.325   0.174
30295W        W96836   8.730   4.931  14.417
30296W        W96837  15.240  29.581  13.997
30297W        W96838  11.453  20.340   4.281
30298W        W96839  40.035  30.489   3.110
30299W        W96840   4.754  23.188   1.849
30300W        W96841  14.588   7.273   4.885
30301W        W96842  12.339   8.096   2.603
30302W        W96843  26.231  22.047   4.728
30303W        W96844  16.790   3.545   0.396
30304W        W96845  13.867  25.270   3.619
30305W        W96846   4.232  19.596   4.856
30306W        W96847  32.120  43.822  12.378
30307W        W96848   7.578  10.112   1.654
30308W        W96849  39.017  30.039   0.955
30309W        W96850  10.223  30.382  13.754
30310W        W96851  10.810  38.493   0.346
30311W        W96852   3.233  39.458   2.071
30312W        W96853   3.492  16.326  12.907
30313W        W96854   2.373  27.711   0.289
30314W        W96855  36.975  19.710   3.379
30315W        W96856  44.305  36.914  14.759
30316W        W96857  29.940   3.931   3.954
30317W        W96858  30.505  33.982  11.579
30318W        W96859  12.905  30.286   1.872
30319W        W96860   6.600   8.793   4.392
30320W        W96861  21.792  19.143  12.964
30321W        W96862  29.934  15.817  13.069
30322W        W96863  41.029  21.261  14.845
30323W        W96864  24.592  28.930   2.921
30324W        W96865  22.723  44.377   1.537
30325W        W96866  37.013  43.534  10.899
30326W        W96867   6.353   2.191   3.623
30327W        W96868  29.057  16.328  11.814
30328W        W96869  36.613  37.498   4.624
30329W        W96870   2.277  23.170  14.384
30330W        W96871  31.930  37.595  11.964
30331W        W96872  37.540   3.171   5.063
30332W        W96873  21.740  44.458  11.244
30333W        W96874   1.966  20.744  14.519
30334W        W96875  15.178   5.845  13.556
30335W        W96876  43.704  16.316  11.258
30336W        W96877   6.211  22.076  10.823
30337W        W96878  16.621  21.135  12.510
30338W        W96879   0.664  11.131   0.554
30339W        W96880  42.788  41.397   2.154
30340W        W96881   8.188  28.676   1.420
30341W        W96882  22.841   0.309   1.646
30342W        W96883  37.610  25.464  14.828
30343W        W96884  21.280   9.624   0.172
30344W        W96885   4.912  28.393   0.840
30345W        W96886  15.084  25.097  11.536
30346W        W96887   3.220  43.929  11.709
30347W        W96888   0.210  33.042  14.490
30348W        W96889  39.385  29.189   1.201
30349W        W96890  23.267  32.168  10.805
30350W        W96891  44.939  10.713   0.816
30351W        W96892  42.352  44.742   2.326
30352W        W96893  39.488  14.884  12.863
30353W        W96894  11.708  32.643  10.745
30354W        W96895  42.085   3.834  13.863
30355W        W96896  19.828  26.802   0.356
30356W        W96897   9.136  20.106   0.330
30357W        W96898  43.486  38.667  14.842
30358W        W96899  34.035  10.054   0.727
30359W        W96900  40.350  11.142   3.315
30360W        W96901  40.724  24.342  14.395
30361W        W96902  39.335  24.766  14.334
30362W        W96903  42.468  34.385  10.509
30363W        W96904  44.463  10.091  12.031
30364W        W96905  39.524  32.525   3.688
30365W        W96906  10.116  40.359  14.808
30366W        W96907  15.558   5.534   4.580
30367W        W96908   3.284   6.549  14.119
30368W        W96909   0.511  30.900   0.439
30369W        W96910   7.206  40.216  11.636
30370W        W96911  39.788  17.400  14.774
30371W        W96912   5.272  33.162  11.563
30372W        W96913  37.907  16.534  12.986
30373W        W96914   9.685  13.243   4.146
30374W        W96915  24.586  42.869   4.404
30375W        W96916  43.911  23.273   2.409
30376W        W96917  14.569  41.341   1.895
30377W        W96918  19.293  43.381   2.423
30378W        W96919  34.130  23.446   0.294
30379W        W96920  16.749  29.354   4.155
30380W        W96921  34.396  32.440   0.546
30381W        W96922  17.162   7.589   3.193
30382W        W96923   3.704  37.778  11.046
30383W        W96924  17.641  40.760   2.543
30384W        W96925   3.706  34.638  12.832
30385W        W96926   7.367  33.429   1.527
30386W        W96927  43.702  13.890  12.946
30387W        W96928   9.327  39.335  14.360
30388W        W96929   0.056   3.259   4.524
30389W        W96930  25.149  31.481   4.658
30390W        W96931  26.648  36.575  13.233
30391W        W96932  22.270  11.992   3.267
30392W        W96933  39.232  14.067   0.322
30393W        W96934  37.398  42.946  13.764
30394W        W96935  44.516  16.381  14.964
30395W        W96936   3.179  42.472  14.134
30396W        W96937  15.325  38.886  14.291
30397W        W96938  38.570  19.094  11.209
30398W        W96939  14.625   4.333  14.880
30399W        W96940  10.479  44.305   1.347
30400W        W96941  31.220   3.424   4.147
30401W        W96942  30.054  25.489   4.380
30402W        W96943  35.998  37.088   0.826
30403W        W96944  21.597  44.740   2.935
30404W        W96945  32.888   0.830   2.202
30405W        W96946   6.896  14.680   4.204
30406W        W96947   5.862  34.068  13.323
30407W        W96948   5.280  26.272   4.692
30408W        W96949  26.097   8.655   4.895
30409W        W96950  30.053   1.366   4.298
30410W        W96951  24.978  43.759   3.290
30411W        W96952  10.346  21.600   1.462
30412W        W96953  38.314  11.718   1.404
30413W        W96954   3.892  27.635   2.721
30414W        W96955  11.370  20.382   2.365
30415W        W96956   6.345  18.263   4.898
30416W        W96957  15.818   0.401   4.546
30417W        W96958  23.012  17.667   2.466
30418W        W96959   6.365   0.755  14.352
30419W        W96960   4.721   8.332  11.157
30420W        W96961  44.188  26.037  11.936
30421W        W96962   4.465   3.562  14.147
30422W        W96963  43.321  44.242  14.717
30423W        W96964  14.253   6.669   1.494
30424W        W96965  43.790  20.735   3.741
30425W        W96966  39.313   9.686  10.720
30426W        W96967  38.576   2.825  10.651
30427W        W96968  21.035  20.705  10.647
30428W        W96969  33.005  36.405  13.784
30429W        W96970  30.473  44.447  12.634
30430W        W96971   9.198  38.442  12.596
30431W        W96972  36.775  41.630  12.633
30432W        W96973  10.465  34.077  13.970
30433W        W96974  24.230  30.180   1.308
30434W        W96975  42.807  16.628  11.141
30435W        W96976  42.442  19.648  14.547
30436W        W96977  36.387  22.530  12.194
30437W        W96978   4.234  42.326   1.662
30438W        W96979   5.525  42.118   1.774
30439W        W96980  28.169   4.180  14.358
30440W        W96981  20.250  31.282   1.740
30441W        W96982   2.817  21.662   4.642
30442W        W96983   9.759  30.085   4.684
30443W        W96984  12.231  11.099  14.996
30444W        W96985  40.721   7.672   3.527
30445W        W96986  10.798  31.180  11.168
30446W        W96987  32.838  19.058  12.471
30447W        W96988   8.196  14.817  11.590
30448W        W96989  10.712  34.989   4.538
30449W        W96990  25.207  43.458   4.868
30450W        W96991  36.121  10.159  12.917
30451W        W96992  43.590   8.351   0.035
30452W        W96993  37.508   2.284  11.369
30453W        W96994  16.822   8.147  13.673
30454W        W96995  44.825   3.517   3.576
30455W        W96996  25.210  35.895   3.372
30456W        W96997   2.686  23.879  10.675
30457W        W96998   9.368  25.112   3.329
30458W        W96999  34.612  18.053  11.628
30459W        W97000   2.477  39.921   1.841
30460W        W97001  32.796  41.314  14.239
30461W        W97002  43.501  36.235   1.840
30462W        W97003  28.242  16.309  12.206
30463W        W97004  18.801  10.427  12.409
30464W        W97005   7.241  28.428  11.592
30465W        W97006  27.925  32.979   2.781
30466W        W97007   2.034   3.694  14.031
30467W        W97008   4.779  36.920   3.082
30468W        W97009  31.883  27.758   3.802
30469W        W97010   6.173  31.791   1.242
30470W        W97011  39.017   3.262   2.248
30471W        W97012  41.798  34.543  11.608
30472W        W97013  25.052  38.391   1.693
30473W        W97014   6.377   2.778   4.473
30474W        W97015  10.817  20.440  11.169
30475W        W97016  44.802  36.252   3.850
30476W        W97017  11.203  24.676  10.643
30477W        W97018  26.914  29.580   0.514
30478W        W97019  18.784  27.467  11.697
30479W        W97020   7.312   6.830  12.191
30480W        W97021  19.138  36.598   3.142
30481W        W97022  44.585  42.016   1.259
30482W        W97023   2.177  15.671   0.337
30483W        W97024  21.104  29.059   4.934
30484W        W97025  34.024  16.217  11.224
30485W        W97026  21.799  10.596  12.462
30486W        W97027  39.386  24.324   3.136
30487W        W97028  21.749   7.007   4.761
30488W        W97029  16.245   1.786  10.945
30489W        W97030  30.491  28.709   1.514
30490W        W97031   8.149  22.795  11.415
30491W        W97032  20.170  41.496   4.518
30492W        W97033  25.485  38.335   3.689
30493W        W97034   5.985  29.117   3.793
30494W        W97035  44.541  22.221   3.766
30495W        W97036  10.165  43.757   0.906
30496W        W97037   4.452  41.224   3.739
30497W        W97038  20.695  31.903  12.137
30498W        W97039  20.903   9.768   4.114
30499W        W97040  35.564  34.505   1.098
30500W        W97041  21.470  17.769  13.829
30501W        W97042  13.766   9.638   2.117
30502W        W97043  15.766  17.943   4.263
30503W        W97044  27.981  29.643  10.668
30504W        W97045  21.167   2.516   0.874
30505W        W97046  13.881  20.988  12.053
30506W        W97047  28.637   9.911   1.765
30507W        W97048  35.066   2.969   0.484
30508W        W97049  43.010  32.366   1.396
30509W        W97050   8.675   5.926   4.139
30510W        W97051   4.462  28.915  11.137
30511W        W97052  26.101  18.398   0.858
30512W        W97053  18.103  35.501   1.411
30513W        W97054  42.228   9.828  12.991
30514W        W97055  20.774  24.042  11.279
30515W        W97056  43.390  16.956   2.326
30516W        W97057   9.899  18.908   3.371
30517W        W97058  29.664  25.021  10.898
30518W        W97059  24.635  40.293   1.246
30519W        W97060  33.353  34.822  12.456
30520W        W97061   4.919  30.596  13.142
30521W        W97062  17.343  27.615  10.274
30522W        W97063   9.469   9.233  14.672
30523W        W97064   5.679   8.243  14.994
30524W        W97065  32.707  34.644  14.373
30525W        W97066  33.398  38.856  14.857
30526W        W97067  33.921   8.117   4.318
30527W        W97068  27.918  22.225   4.337
30528W        W97069  35.887  19.034  11.959
30529W        W97070  31.420  37.551  12.469
30530W        W97071   3.456  24.426   1.361
30531W        W97072  37.634  21.487  11.164
30532W        W97073  40.325   1.730   5.217
30533W        W97074  16.095  10.732  12.539
30534W        W97075  26.579  16.553   2.760
30535W        W97076   9.733  13.181  11.150
30536W        W97077  17.110  30.507   2.093
30537W        W97078   0.238  13.396  10.746
30538W        W97079  21.043  41.778   0.449
30539W        W97080  40.368  17.206  13.402
30540W        W97081   2.840   2.260   2.904
30541W        W97082  24.104  33.690   3.148
30542W        W97083  14.831  44.730   3.618
30543W        W97084  31.083  21.940  11.672
30544W        W97085   7.822  38.510   1.761
30545W        W97086  39.448  21.997  10.942
30546W        W97087  10.245  23.383  12.377
30547W        W97088   4.632  15.802   0.705
30548W        W97089  21.448   9.218   0.882
30549W        W97090  36.640   3.939  12.498
30550W        W97091   2.489  27.702  11.655
30551W        W97092   8.686  41.948  13.210
30552W        W97093  28.934  40.804   3.795
30553W        W97094  21.041   8.842   1.838
30554W        W97095  11.297   5.644   2.093
30555W        W97096  32.578  10.439  14.838
30556W        W97097  16.533   6.269  10.793
30557W        W97098  36.622   2.640   2.364
30558W        W97099  23.980   1.136   1.885
30559W        W97100   2.252   9.679  13.934
30560W        W97101  15.166  40.728   0.282
30561W        W97102  32.023  41.077  14.281
30562W        W97103  17.728  34.901  10.732
30563W        W97104  10.356  27.112   4.995
30564W        W97105  10.294  17.769   4.724
30565W        W97106   4.371   0.974   4.197
30566W        W97107  40.820  12.689  11.159
30567W        W97108   7.474  22.844  12.945
30568W        W97109  29.423   0.922   3.602
30569W        W97110  26.624  11.390  14.825
30570W        W97111  43.754   8.774   5.105
30571W        W97112  32.357  16.041  13.379
30572W        W97113   3.359  41.855  14.414
30573W        W97114  11.779  29.154  10.153
30574W        W97115  29.034  10.637  12.426
30575W        W97116  10.674  30.421   3.562
30576W        W97117  19.275  26.213  14.953
30577W        W97118  11.847  37.088   0.952
30578W        W97119  10.867  10.981   3.268
30579W        W97120   3.711   1.369   2.219
30580W        W97121  27.435  15.729  10.087
30581W        W97122  34.478  16.581   1.499
30582W        W97123   3.718  16.599   3.537
30583W        W97124  22.230   6.424   0.938
30584W        W97125  33.494   6.696  11.236
30585W        W97126  27.113   8.515   3.163
30586W        W97127   7.582  42.048  14.041
30587W        W97128  18.809  19.095   4.090
30588W        W97129  39.102  27.101   0.280
30589W        W97130  31.819  18.648  11.899
30590W        W97131  16.209  33.224   5.320
30591W        W97132  30.293   9.316  12.530
30592W        W97133  23.662  35.439  14.322
30593W        W97134  15.240  18.732   1.202
30594W        W97135  21.794  35.163   3.073
30595W        W97136  30.020   6.466  12.128
30596W        W97137  14.786   0.350  12.012
30597W        W97138   2.377  31.547   0.361
30598W        W97139  40.673  17.092   3.772
30599W        W97140  33.992  29.960  13.917
30600W        W97141  40.535  19.882  14.261
30601W        W97142  30.467  27.757   4.537
30602W        W97143  20.338   1.581  14.572
30603W        W97144  23.712  31.918   2.637
30604W        W97145  22.565  15.127  13.607
30605W        W97146  11.465  14.703  14.513
30606W        W97147  34.676  14.739  12.563
30607W        W97148  26.506  22.767  12.903
30608W        W97149   6.231  14.503  14.480
30609W        W97150  43.052  17.183   0.148
30610W        W97151  29.973  37.600   2.032
30611W        W97152  33.561  32.025  14.521
30612W        W97153  22.493  22.118  10.606
30613W        W97154   6.761  22.054  12.066
30614W        W97155   8.655  38.767  11.129
30615W        W97156   4.830  27.244  12.974
30616W        W97157  24.940  10.958   1.602
30617W        W97158   2.511   6.714  11.361
30618W        W97159  39.078  14.911   3.743
30619W        W97160  21.034  34.479   4.857
30620W        W97161  31.521  37.781   1.664
30621W        W97162   4.810   6.680  13.028
30622W        W97163  17.789   7.210  12.067
30623W        W97164  31.958  11.747  10.655
30624W        W97165  31.173  38.571   3.887
30625W        W97166  11.634   7.187  13.907
30626W        W97167  32.125  15.794  12.053
30627W        W97168   6.456  41.219   3.210
30628W        W97169  37.745  23.752  14.996
30629W        W97170  42.941   5.217  11.413
30630W        W97171   1.303   7.879  14.718
30631W        W97172   3.330  44.979  11.629
30632W        W97173  12.933  27.151  10.708
30633W        W97174  39.111  22.444  10.781
30634W        W97175  18.804   5.277   3.831
30635W        W97176   5.991  14.200  11.866
30636W        W97177  40.763  19.785   2.365
30637W        W97178  33.686  42.152  11.966
30638W        W97179  28.467  28.061   3.528
30639W        W97180  22.976  26.196  13.376
30640W        W97181  22.140   0.220   0.351
30641W        W97182  19.536  37.401  14.753
30642W        W97183  43.259  35.883   0.210
30643W        W97184  17.447  37.331   3.311
30644W        W97185  40.291   7.882  13.063
30645W        W97186   1.329  44.258   1.686
30646W        W97187  38.826  18.710  11.385
30647W        W97188  40.044  23.375   0.006
30648W        W97189   2.238  14.179   0.752
30649W        W97190  11.170   7.364  14.033
30650W        W97191  33.796  28.378  11.084
30651W        W97192   2.483  10.740   3.754
30652W        W97193  21.118  10.711  10.326
30653W        W97194  37.762  22.813  13.477
30654W        W97195  25.644  16.403   2.695
30655W        W97196   0.959   8.704   2.349
30656W        W97197  13.531   2.994   1.695
30657W        W97198  28.485   5.401  11.931
30658W        W97199  43.177  23.752  14.523
30659W        W97200   7.879  24.973  13.377
30660W        W97201  26.514  14.816  13.779
30661W        W97202   6.749  39.909   3.705
30662W        W97203  31.449  14.804   3.131
30663W        W97204   2.913  25.015   1.723
30664W        W97205  41.006   8.851   3.206
30665W        W97206   5.142  20.319  12.931
30666W        W97207  20.049  30.813  12.616
30667W        W97208   1.329  38.788   0.360
30668W        W97209  31.464  11.585  11.137
30669W        W97210  35.397  38.795   3.381
30670W        W97211  22.987  34.895   0.033
30671W        W97212  19.760  18.736  14.273
30672W        W97213   7.707  21.099  12.577
30673W        W97214  11.617  12.633   2.196
30674W        W97215  10.380  18.525  14.819
30675W        W97216  29.502   1.201  14.907
30676W        W97217   5.358  36.564   4.884
30677W        W97218  38.703  21.720  11.080
30678W        W97219  13.552  33.204  14.468
30679W        W97220  41.204  14.891   5.368
30680W        W97221  29.727  42.565   0.838
30681W        W97222  30.340  10.249   1.320
30682W        W97223  14.334  10.750   0.907
30683W        W97224  30.616  36.406   4.521
30684W        W97225  22.834  22.700   1.618
30685W        W97226  10.387  35.204  11.334
30686W        W97227  33.918   6.156  11.527
30687W        W97228  34.780  43.978   1.262
30688W        W97229   3.766   3.689   4.075
30689W        W97230  30.940  36.841  12.487
30690W        W97231   0.868  21.072   1.210
30691W        W97232  44.758  14.531  13.320
30692W        W97233   6.205  32.530   4.084
30693W        W97234  24.925  35.349  14.477
30694W        W97235  22.431   9.622  13.012
30695W        W97236  41.559   2.904   0.325
30696W        W97237  29.927  42.499  10.676
30697W        W97238  32.316  32.871   4.089
30698W        W97239  42.516  23.128   2.104
30699W        W97240  11.377  37.434   4.525
30700W        W97241  33.064  44.594   0.319
30701W        W97242  27.498  10.639  13.609
30702W        W97243  21.928   1.742   2.708
30703W        W97244  12.236  33.865  10.356
30704W        W97245   0.536  34.860   2.214
30705W        W97246   0.386  24.091   0.011
30706W        W97247  20.380   0.821   3.651
30707W        W97248  43.332  33.602   0.539
30708W        W97249  33.903  33.933   4.893
30709W        W97250  38.355   5.877   4.781
30710W        W97251   6.263  30.551  13.890
30711W        W97252   8.907  18.411   2.803
30712W        W97253  39.717  41.239   2.874
30713W        W97254  23.011  44.002  13.288
30714W        W97255  10.433  22.169  13.119
30715W        W97256  15.617  38.539   1.896
30716W        W97257  38.134  27.441  14.561
30717W        W97258   3.790  33.063  14.868
30718W        W97259  15.748  11.907  14.517
30719W        W97260  18.142  17.276  12.385
30720W        W97261  33.703  10.195   1.161
30721W        W97262   0.769   2.910  12.198
30722W        W97263   6.195  41.909   3.680
30723W        W97264  41.118  28.568   3.227
30724W        W97265  16.475  10.208  11.921
30725W        W97266  35.604  42.407  14.861
30726W        W97267  11.626  41.372   0.365
30727W        W97268  13.769  21.090  13.829
30728W        W97269  35.155  27.946   4.118
30729W        W97270  30.433  24.754   0.627
30730W        W97271   0.414  14.669  12.760
30731W        W97272  34.219  35.372   2.249
30732W        W97273  42.844  25.187   0.446
30733W        W97274   7.872  40.143   0.320
30734W        W97275  42.454   7.314   0.953
30735W        W97276  22.606  18.387   2.757
30736W        W97277   2.168  30.074  10.665
30737W        W97278   5.910   7.208   1.730
30738W        W97279  33.928  28.143  14.059
30739W        W97280   5.520  37.487   0.229
30740W        W97281  19.646  24.473  14.067
30741W        W97282  24.401  25.055  12.462
30742W        W97283  42.747  43.336  10.642
30743W        W97284   4.569  14.136  10.317
30744W        W97285  33.177   0.444  12.987
30745W        W97286   7.232  35.666   2.235
30746W        W97287  33.497   9.176  14.436
30747W        W97288  15.116   9.788   2.675
30748W        W97289  44.759  33.642   2.780
30749W        W97290  21.040  10.076   0.281
30750W        W97291  15.502   9.223   3.193
30751W        W97292   7.665  40.953   0.704
30752W        W97293  28.782  29.415  14.844
30753W        W97294  24.731  27.395   0.892
30754W        W97295   6.713  28.469   4.319
30755W        W97296  34.510  28.712   0.386
30756W        W97297   0.330  26.214   2.294
30757W        W97298  44.272  18.766  14.326
30758W        W97299  23.007   8.642  10.085
30759W        W97300  12.606  35.322  11.112
30760W        W97301  42.230  37.408  13.404
30761W        W97302  37.338  13.324   1.601
30762W        W97303  21.700  44.544  12.181
30763W        W97304   7.159   8.980   3.115
30764W        W97305  28.569  33.590  10.647
30765W        W97306  32.213  29.166   0.984
30766W        W97307  15.164  37.326   0.750
30767W        W97308  10.116  11.781   3.270
30768W        W97309  31.112  27.201  11.970
30769W        W97310  32.024  35.503   0.807
30770W        W97311  33.649   0.899   0.184
30771W        W97312  21.133  14.567   3.590
30772W        W97313  41.595  16.290  12.327
30773W        W97314  27.415  36.514  11.837
30774W        W97315  22.447  16.640   0.131
30775W        W97316  14.335  18.517  14.745
30776W        W97317  20.060  35.921   4.131
30777W        W97318   8.075  23.455  11.098
30778W        W97319   3.921   5.986   2.211
30779W        W97320  38.760  16.624   4.783
30780W        W97321  16.767  43.029   1.499
30781W        W97322   8.499  35.620  12.563
30782W        W97323   2.249   8.068  14.893
30783W        W97324  15.196  17.846  12.985
30784W        W97325  21.511  26.353   0.538
30785W        W97326   2.764   6.451  14.311
30786W        W97327  21.514  39.573   5.066
30787W        W97328  25.524   5.941   1.157
30788W        W97329  15.274  38.826  13.766
30789W        W97330   5.631  38.140  14.053
30790W        W97331  11.370  34.726  11.896
30791W        W97332  23.159  10.650   3.565
30792W        W97333  40.426  16.321   5.214
30793W        W97334   1.253  31.892   1.913
30794W        W97335  40.344  24.704  14.273
30795W        W97336  29.095   2.160  10.545
30796W        W97337  18.740  30.106   0.653
30797W        W97338  28.944  10.194   2.484
30798W        W97339  40.582  38.808  12.561
30799W        W97340  36.229  12.846   4.094
30800W        W97341  31.065  40.401   0.830
30801W        W97342  44.743  28.645   0.333
30802W        W97343  23.913  29.865  14.552
30803W        W97344  26.071  39.867   3.350
30804W        W97345  20.757  15.501   2.140
30805W        W97346   9.954  11.727   1.849
30806W        W97347   2.957  18.856   0.840
30807W        W97348  32.141   9.440   0.522
30808W        W97349  44.089  30.684   4.074
30809W        W97350   4.733  34.985   1.733
30810W        W97351  44.892   3.986  10.489
30811W        W97352  39.774   6.085  12.252
30812W        W97353   6.126   5.993  10.972
30813W        W97354   4.400   7.096  13.720
30814W        W97355  28.591  23.280  11.086
30815W        W97356  43.707  29.442  12.919
30816W        W97357  44.158   9.567   4.918
30817W        W97358  41.210  44.912  12.606
30818W        W97359  40.083  28.476   1.373
30819W        W97360  30.533  10.766   1.314
30820W        W97361  19.734  12.199   4.034
30821W        W97362   7.354   1.263  10.671
30822W        W97363  42.233  32.179   0.367
30823W        W97364  34.816  37.289   2.022
30824W        W97365   0.262   2.792  12.855
30825W        W97366  37.615  14.736  13.906
30826W        W97367  30.225   2.127   4.126
30827W        W97368   8.410  31.619  14.951
30828W        W97369  12.806  23.990   2.083
30829W        W97370  43.984  16.278  10.828
30830W        W97371   7.628  29.000   2.600
30831W        W97372   4.311   6.133  11.114
30832W        W97373   3.550   3.217  13.377
30833W        W97374  34.123  23.782   2.663
30834W        W97375   2.405  14.873   1.505
30835W        W97376  12.106   0.431   2.393
30836W        W97377  10.207   1.989  11.165
30837W        W97378  38.390  25.700  13.969
30838W        W97379  34.626   8.359   4.834
30839W        W97380  28.881   8.216   0.775
30840W        W97381   1.114   6.069  13.017
30841W        W97382  39.833   3.388   2.622
30842W        W97383   9.620   9.269   0.277
30843W        W97384  20.536  30.812  14.893
30844W        W97385  12.356  17.356   3.851
30845W        W97386  36.549   7.189   0.217
30846W        W97387  19.557  39.434   3.744
30847W        W97388  43.937   3.963  11.825
30848W        W97389  19.668  40.115  14.085
30849W        W97390  26.044  31.042  13.226
30850W        W97391  42.957  32.663   3.329
30851W        W97392  32.915  31.498  14.614
30852W        W97393  13.618  13.127  12.016
30853W        W97394   4.512  20.683   3.932
30854W        W97395  23.167  12.178   2.760
30855W        W97396  28.622   8.744   3.261
30856W        W97397  16.053  31.879   3.218
30857W        W97398   9.182  30.015  14.709
30858W        W97399   2.422   7.681   4.847
30859W        W97400  43.284  31.272  10.753
30860W        W97401  16.330  34.489   4.443
30861W        W97402   2.363  12.316   2.863
30862W        W97403  18.382  25.658  11.464
30863W        W97404  41.239  41.223  10.903
30864W        W97405  14.270   7.088   0.544
30865W        W97406   9.395  32.155   4.604
30866W        W97407  26.569  11.162  11.145
30867W        W97408  26.822   9.191  13.325
30868W        W97409  30.860   2.014  11.218
30869W        W97410  29.359   4.302  12.781
30870W        W97411  16.012  34.437  13.042
30871W        W97412  28.631  22.279   0.984
30872W        W97413  43.338  42.500  10.922
30873W        W97414  30.923  14.359   4.899
30874W        W97415  23.832   3.422   0.044
30875W        W97416  25.348  31.355   4.068
30876W        W97417  10.621  23.138  11.640
30877W        W97418  25.766  28.875   4.882
30878W        W97419  10.534  28.372  11.631
30879W        W97420  38.068  34.301   0.774
30880W        W97421  16.595  44.566   1.325
30881W        W97422  32.013  34.228   4.862
30882W        W97423   5.416  32.146   3.822
30883W        W97424   4.910  10.811   0.101
30884W        W97425   5.704   8.953   1.985
30885W        W97426  14.743  44.811  12.039
30886W        W97427  15.976  40.419  11.446
30887W        W97428   5.926  40.475   1.243
30888W        W97429   6.937  34.959   2.268
30889W        W97430  10.365   8.113   0.540
30890W        W97431  13.572  42.382  11.971
30891W        W97432  13.566   0.485  14.354
30892W        W97433   8.151   7.437   0.743
30893W        W97434  37.941  22.726   1.914
30894W        W97435   1.287  16.182   1.189
30895W        W97436  12.657  11.202   0.763
30896W        W97437  42.878  35.063   3.218
30897W        W97438  36.481  36.839   2.389
30898W        W97439  17.711   5.748  10.709
30899W        W97440  41.733  37.028  14.018
30900W        W97441  18.002   5.407  10.417
30901W        W97442   1.938   1.469   5.276
30902W        W97443  28.334  20.007   3.566
30903W        W97444  37.035  23.774  14.022
30904W        W97445  11.714  44.183   2.752
30905W        W97446  21.585  31.976   1.795
30906W        W97447  29.376  31.131   2.852
30907W        W97448  40.012  21.578  11.663
30908W        W97449  27.670  20.345  14.978
30909W        W97450  44.226  23.920   3.371
30910W        W97451  33.156  22.286   1.406
30911W        W97452  33.628  43.302  11.086
30912W        W97453  39.750  44.986   0.826
30913W        W97454   2.774  29.565  10.794
30914W        W97455  26.188  23.212  11.597
30915W        W97456  36.979   4.911   3.006
30916W        W97457  34.055   7.001  11.332
30917W        W97458  26.385  44.832   1.468
30918W        W97459   2.431  26.222  10.171
30919W        W97460   9.205  26.729   2.981
30920W        W97461  36.481  36.129   1.795
30921W        W97462  14.653  41.279   0.837
30922W        W97463  35.115  42.754   1.980
30923W        W97464  34.675  35.001   3.174
30924W        W97465   4.319  22.489   4.657
30925W        W97466  19.540  36.640  12.972
30926W        W97467  12.774  10.224  14.963
30927W        W97468   2.909  16.917   0.886
30928W        W97469   1.706  37.989  13.493
30929W        W97470  13.410  14.641  13.445
30930W        W97471  43.736   7.252   0.262
30931W        W97472  35.207  38.292   2.945
30932W        W97473  28.037   6.117  11.505
30933W        W97474  28.867  34.101  12.996
30934W        W97475  10.717  33.580  13.850
30935W        W97476   4.381  14.393   0.431
30936W        W97477  11.324  22.648  14.492
30937W        W97478  10.856  36.478  14.262
30938W        W97479  34.938   7.982   0.093
30939W        W97480  22.866   9.918   2.189
30940W        W97481  37.780   3.229  12.601
30941W        W97482  35.974  20.817  14.404
30942W        W97483  18.715  25.267  11.482
30943W        W97484  44.042  12.578  13.592
30944W        W97485  40.368  42.345  14.299
30945W        W97486   1.362  13.109   0.937
30946W        W97487  36.582  13.606  11.977
30947W        W97488  21.186  44.174   4.703
30948W        W97489  26.002  14.578  11.913
30949W        W97490  32.316  22.452  13.888
30950W        W97491  27.414  33.070  14.074
30951W        W97492  34.429  19.307  10.790
30952W        W97493   3.656  36.722   4.509
30953W        W97494  28.011  26.881   3.299
30954W        W97495   8.930  44.275  12.964
30955W        W97496   0.346  26.588   2.705
30956W        W97497  39.777  13.201  11.662
30957W        W97498  25.280   7.333  11.379
30958W        W97499  23.515   3.145  12.145
30959W        W97500  33.477  16.069  11.858
30960W        W97501  35.328  23.595   3.267
30961W        W97502  41.061   2.446  13.933
30962W        W97503  29.213   8.208   0.357
30963W        W97504  34.088  13.219  12.371
30964W        W97505  17.274  41.502  11.578
30965W        W97506   6.057   1.201  11.243
30966W        W97507  20.537  42.497   1.333
30967W        W97508  33.182  10.767   2.426
30968W        W97509  14.354  28.654   2.218
30969W        W97510  18.783   9.760   1.931
30970W        W97511  32.641  18.032   2.924
30971W        W97512  34.298  38.026   1.379
30972W        W97513  21.011   6.327  14.737
30973W        W97514  33.132  18.207   0.869
30974W        W97515  22.096  24.604   2.258
30975W        W97516  25.097  15.132   2.236
30976W        W97517  23.081  25.775   0.416
30977W        W97518  17.592  15.730   1.289
30978W        W97519   5.296   8.310   2.289
30979W        W97520   6.181  31.535   0.725
30980W        W97521   8.702  26.010  11.445
30981W        W97522  43.324  11.730  13.337
30982W        W97523   1.813  44.802   1.620
30983W        W97524   1.931  27.266   4.113
30984W        W97525  12.317  35.475   2.661
30985W        W97526  14.447  32.899   1.854
30986W        W97527  10.774  21.667  14.479
30987W        W97528   7.404  23.661  13.443
30988W        W97529  29.577  31.582  14.968
30989W        W97530   7.194  39.386  13.874
30990W        W97531  11.129  23.841  12.547
30991W        W97532  17.607  36.821  14.829
30992W        W97533  35.393  40.056  10.874
30993W        W97534  18.166  39.055   2.390
30994W        W97535  42.155  35.657   2.796
30995W        W97536  33.655  38.653   2.192
30996W        W97537  19.421  32.143   0.814
30997W        W97538  27.676   2.756   1.668
30998W        W97539  18.249   5.799   0.650
30999W        W97540  42.965  27.959   4.479
31000W        W97541   6.553  33.438  10.813
31001W        W97542  32.072   3.916   4.097
31002W        W97543  40.851  18.133  10.602
31003W        W97544  21.734  21.650   0.931
31004W        W97545   1.754  38.540   3.770
31005W        W97546  42.620  15.096   0.796
31006W        W97547   8.901  40.859   0.372
31007W        W97548  37.939  20.609   1.781
31008W        W97549  32.108  30.841  13.359
31009W        W97550  11.070  25.640  11.599
31010W        W97551  30.525   1.422   3.741
31011W        W97552  33.086  42.372  10.622
31012W        W97553  25.013  41.817  10.764
31013W        W97554   8.213  20.999  10.914
31014W        W97555  34.375  15.545  12.983
31015W        W97556  11.159  26.533   4.588
31016W        W97557   2.787   7.871   1.918
31017W        W97558  18.976  28.588  10.721
31018W        W97559  10.652   4.392  13.379
31019W        W97560  39.282  44.263   4.262
31020W        W97561  31.940  38.298  12.475
31021W        W97562  10.729  28.019   4.691
31022W        W97563  17.288  40.978  10.687
31023W        W97564  30.942  14.613   3.126
31024W        W97565  31.939   7.425  13.398
31025W        W97566  27.530   0.772  11.647
31026W        W97567  36.251  25.978  12.522
31027W        W97568  19.256  38.212   0.970
31028W        W97569  10.463   0.391  13.306
31029W        W97570  14.821  31.091   1.819
31030W        W97571  39.127  44.261  13.083
31031W        W97572   7.391  42.513  13.198
31032W        W97573  21.975  15.827   1.376
31033W        W97574  18.691   7.416   1.640
31034W        W97575  16.332  20.122  11.140
31035W        W97576  23.094   7.572  12.467
31036W        W97577  26.763  41.546   3.751
31037W        W97578  34.782  28.588  12.530
31038W        W97579  44.145  18.635  12.309
31039W        W97580  42.376  25.518  12.848
31040W        W97581  16.225  28.473  11.019
31041W        W97582  17.319  39.784   2.431
31042W        W97583  16.346   2.692   1.305
31043W        W97584  24.906  33.148   3.275
31044W        W97585  22.118  44.036  13.914
31045W        W97586   7.251  28.931  12.089
31046W        W97587   7.991  36.214  14.774
31047W        W97588  24.269  16.811   2.003
31048W        W97589  15.171  12.408   4.573
31049W        W97590  14.836  24.204  12.860
31050W        W97591  39.398   2.771  11.801
31051W        W97592   0.847  41.888  13.188
31052W        W97593  31.954  25.960   4.594
31053W        W97594  39.083   7.865   2.688
31054W        W97595   1.412   6.707   4.376
31055W        W97596   0.908  38.129  13.865
31056W        W97597  21.753  15.860  10.215
31057W        W97598  18.777  36.882  13.930
31058W        W97599  11.648   5.944   1.875
31059W        W97600  31.802   4.431   2.867
31060W        W97601   5.728   4.455  11.908
31061W        W97602  35.481  39.459   0.298
31062W        W97603  18.856  40.826   0.036
31063W        W97604  24.508   6.821   4.192
31064W        W97605  29.992  35.815  14.820
31065W        W97606  14.173  40.380   4.247
31066W        W97607  23.692  10.836  13.934
31067W        W97608  37.470   6.801   2.930
31068W        W97609   3.425   0.755  12.009
31069W        W97610  21.236  20.146  12.156
31070W        W97611  27.937  14.162  13.012
31071W        W97612   9.185  38.924   1.429
31072W        W97613  26.220  31.682   0.184
31073W        W97614  36.494  31.396   4.344
31074W        W97615  12.301  21.324  12.966
31075W        W97616   7.161   1.705  10.827
31076W        W97617   5.025  32.623   3.212
31077W        W97618   2.491  37.037   2.834
31078W        W97619   6.311  44.886   2.907
31079W        W97620  26.132  24.171   3.140
31080W        W97621   4.504  36.483   1.671
31081W        W97622  28.335  24.061  13.723
31082W        W97623  32.437  21.711  12.549
31083W        W97624  10.638  33.332   1.433
31084W        W97625  12.714   1.322  11.094
31085W        W97626  27.591  20.484   3.783
31086W        W97627  11.908  13.038  12.961
31087W        W97628  18.063  16.508  11.069
31088W        W97629  24.030  14.334  14.028
31089W        W97630  27.746   2.852   0.721
31090W        W97631  19.761  23.530  14.927
31091W        W97632  19.784  24.891   1.791
31092W        W97633  39.683  23.664   2.412
31093W        W97634  13.188   0.776  12.547
31094W        W97635  37.740   5.589   2.358
31095W        W97636  21.699  26.155  13.370
31096W        W97637  39.041  10.603   3.305
31097W        W97638  18.272   2.456  13.337
31098W        W97639   1.713   9.271   1.331
31099W        W97640  34.370  37.199  11.566
31100W        W97641  10.883  29.117   3.335
31101W        W97642   8.763  42.387  13.475
31102W        W97643  29.621  25.841  13.464
31103W        W97644  10.306   6.218  14.441
31104W        W97645  18.541  27.604   2.088
31105W        W97646  36.571  38.846  11.997
31106W        W97647  38.313  31.879   1.849
31107W        W97648  23.477  25.262  13.490
31108W        W97649   8.933  12.333  14.305
31109W        W97650   3.585  11.313  10.236
31110W        W97651  27.519  11.601  14.898
31111W        W97652  11.898   2.631  13.571
31112W        W97653  23.977  35.569   0.079
31113W        W97654  43.927  36.073   0.709
31114W        W97655  40.865  35.353   1.157
31115W        W97656  19.510  25.700   2.913
31116W        W97657  34.727  16.621   3.013
31117W        W97658  42.547  38.955  13.526
31118W        W97659  15.592  44.535  12.942
31119W        W97660  20.825  44.974  11.154
31120W        W97661  16.210  12.799   4.235
31121W        W97662  26.002  30.991   2.476
31122W        W97663   7.890   9.986   2.739
31123W        W97664  20.661  18.540   3.294
31124W        W97665  10.271  36.405   0.756
31125W        W97666  31.996  21.549  14.324
31126W        W97667   6.498   3.729   4.350
31127W        W97668  29.725  17.120   4.648
31128W        W97669  22.682  26.749   0.838
31129W        W97670   1.687  25.230   4.084
31130W        W97671  39.361  19.878  13.860
31131W        W97672  27.038  23.059  13.094
31132W        W97673  33.426  12.262  10.192
31133W        W97674  35.950  20.288  12.974
31134W        W97675   3.673   4.912  14.310
31135W        W97676  27.999   6.738  10.722
31136W        W97677  42.497  19.689  10.534
31137W        W97678  29.407  31.910  13.861
31138W        W97679  29.598   5.617  14.018
31139W        W97680   3.285  12.413   2.380
31140W        W97681  41.831  29.986   0.856
31141W        W97682   8.114  42.855  12.417
31142W        W97683  25.764  35.606  11.013
31143W        W97684   1.915  36.129   1.956
31144W        W97685   0.416  10.025  14.306
31145W        W97686  19.926  40.966   2.195
31146W        W97687  12.636  26.888   4.913
31147W        W97688  37.805  14.693  10.501
31148W        W97689  29.124  22.558   3.238
31149W        W97690   2.411  21.573  14.913
31150W        W97691  15.760  37.949   3.563
31151W        W97692   4.914   2.151  11.211
31152W        W97693  28.153   8.015  14.808
31153W        W97694  12.264  12.155   4.124
31154W        W97695  13.230   9.825   2.208
31155W        W97696  17.676  34.198   1.040
31156W        W97697   1.042  12.719   3.647
31157W        W97698  39.078   8.455  11.097
31158W        W97699  24.447  14.787   0.035
31159W        W97700   0.991   0.010  14.462
31160W        W97701   8.872  23.477   4.932
31161W        W97702   1.774  22.519   3.309
31162W        W97703   6.464  20.186  13.337
31163W        W97704   7.300   4.945  11.610
31164W        W97705   1.544  22.923   0.535
31165W        W97706   4.919  19.285  12.448
31166W        W97707  28.431   7.267   1.946
31167W        W97708   0.025  41.268   0.006
31168W        W97709  34.031   2.104   4.102
31169W        W97710  10.304  11.049   4.295
31170W        W97711  16.623   1.097  12.097
31171W        W97712  13.233  11.985  12.869
31172W        W97713  14.332  29.295   5.484
31173W        W97714   0.287  36.785   0.001
31174W        W97715  29.707  22.632  14.647
31175W        W97716  41.644  25.326   4.573
31176W        W97717  20.948  12.425  13.494
31177W        W97718  27.651  12.402   2.160
31178W        W97719   9.264  33.232   2.440
31179W        W97720  12.488   1.681   0.853
31180W        W97721  10.972  38.724   5.525
31181W        W97722  42.104  42.574  13.308
31182W        W97723   6.073  27.995  11.533
31183W        W97724   5.882  36.909   2.331
31184W        W97725   4.729   2.730   3.512
31185W        W97726  37.678  43.859   3.267
31186W        W97727   8.157  25.245  11.523
31187W        W97728  40.313  22.848   1.303
31188W        W97729  33.954   6.562   0.807
31189W        W97730  17.002  40.444  12.569
31190W        W97731  20.484  36.366   4.300
31191W        W97732   4.992  37.451  11.179
31192W        W97733  33.464  37.634  11.558
31193W        W97734  22.205   2.651   1.796
31194W        W97735  34.422  39.824   0.039
31195W        W97736  14.112  36.201  13.184
31196W        W97737  18.700  21.724  10.560
31197W        W97738  13.780  18.647  12.563
31198W        W97739  31.993  11.959  12.038
31199W        W97740  36.428  35.069  12.139
31200W        W97741   9.534  14.535  10.811
31201W        W97742  19.838  40.971  13.809
31202W        W97743  28.342  41.868   1.770
31203W        W97744  34.626  34.680   3.629
31204W        W97745  21.252  43.821  10.597
31205W        W97746   4.346  15.396   4.131
31206W        W97747  36.958  20.708  14.907
31207W        W97748  44.817  34.424   2.376
31208W        W97749  33.977  11.711   3.585
31209W        W97750  34.786  44.280   2.168
31210W        W97751  31.340  42.870   4.080
31211W        W97752  28.256  43.473  12.836
31212W        W97753  31.561  14.464   2.273
31213W        W97754  18.559   0.743   0.798
31214W        W97755  35.940  27.041  14.755
31215W        W97756  27.579  25.704   1.458
31216W        W97757   4.422  20.884   2.403
31217W        W97758  30.193  30.615   2.766
31218W        W97759  19.085   0.292   3.748
31219W        W97760  29.162  11.752  11.079
31220W        W97761   3.510  19.961   2.324
31221W        W97762  31.329   9.307   4.059
31222W        W97763  17.381   5.711   2.162
31223W        W97764  44.841  20.888   2.858
31224W        W97765   3.303  25.293  12.607
31225W        W97766   7.373  15.735   4.145
31226W        W97767  31.098  38.978  13.497
31227W        W97768  19.563  33.542   5.043
31228W        W97769  35.545  35.425  13.663
31229W        W97770  15.918   3.170  14.852
31230W        W97771  16.711   3.183  10.913
31231W        W97772  17.126  40.904  13.494
31232W        W97773  24.127  31.200  13.110
31233W        W97774  21.641  16.508  11.579
31234W        W97775   8.339  20.661  11.666
31235W        W97776   7.077  25.539   5.479
31236W        W97777  29.191  31.022  13.430
31237W        W97778   0.607   5.923  13.033
31238W        W97779  44.109   1.755  12.501
31239W        W97780   3.141  26.302  13.585
31240W        W97781  16.798   3.650  13.286
31241W        W97782  41.477  16.652  12.673
31242W        W97783  27.708  33.160   4.137
31243W        W97784  27.587   1.462  14.491
31244W        W97785  19.728  17.691  14.950
31245W        W97786  12.054  12.644   0.137
31246W        W97787  42.749  32.211   0.400
31247W        W97788   0.105  29.228   3.347
31248W        W97789  31.440  36.911  13.135
31249W        W97790  41.174  26.605  14.439
31250W        W97791  29.454   1.838   3.096
31251W        W97792  44.028  13.092  14.315
31252W        W97793   1.792  35.982   4.691
31253W        W97794  32.463  11.734  11.943
31254W        W97795   5.998   5.626  13.465
31255W        W97796  39.071  26.581   4.559
31256W        W97797  33.283  39.857  14.546
31257W        W97798  18.636  22.373   1.288
31258W        W97799   3.789  18.650   4.508
31259W        W97800   5.327  33.857   0.040
31260W        W97801  30.485  28.241  13.785
31261W        W97802  10.306  22.408  13.560
31262W        W97803  24.473  37.020  13.039
31263W        W97804  20.651  22.318   2.793
31264W        W97805  28.481  41.860  11.739
31265W        W97806   9.413  19.520  13.865
31266W        W97807  39.336  20.630  12.349
31267W        W97808   9.299   5.033   2.995
31268W        W97809  44.418  27.628   1.988
31269W        W97810  22.493  24.404  12.549
31270W        W97811  26.937  13.139  11.541
31271W        W97812   2.124   5.829  10.359
31272W        W97813  42.445   4.528  11.530
31273W        W97814  42.516  14.270   3.969
31274W        W97815   3.705   7.242  12.044
31275W        W97816  23.412  25.634   0.055
31276W        W97817   9.845   1.929   4.270
31277W        W97818   3.404   8.909  13.876
31278W        W97819  44.549  31.589  14.278
31279W        W97820  11.070   0.986   2.414
31280W        W97821  35.920  34.294  12.109
31281W        W97822  41.954  10.541   3.280
31282W        W97823   7.757  38.026  14.138
31283W        W97824   4.968  19.172  13.337
31284W        W97825  31.430   6.618   0.314
31285W        W97826  11.585  17.642   3.884
31286W        W97827  22.551  32.667   4.640
31287W        W97828   4.783   2.372  14.983
31288W        W97829  26.251  12.465   2.373
31289W        W97830  12.317  16.662  13.911
31290W        W97831  38.917  30.608  14.459
31291W        W97832  25.327  37.505  11.093
31292W        W97833  25.659   0.683   1.984
31293W        W97834  20.519  24.909  10.532
31294W        W97835   6.657  10.897   2.830
31295W        W97836   5.761  13.788   0.442
31296W        W97837  32.989   0.286  13.492
31297W        W97838  37.880  33.597  14.566
31298W        W97839   2.902  36.438   0.966
31299W        W97840   2.722   6.424  12.865
31300W        W97841  20.103  37.328   0.890
31301W        W97842  19.749   6.607  14.840
31302W        W97843  40.772  25.045   3.733
31303W        W97844  12.071  36.102   0.791
31304W        W97845  25.559  22.651  11.045
31305W        W97846  21.278  18.028  10.175
31306W        W97847  30.550   5.852  12.508
31307W        W97848   8.286   5.495   1.262
31308W        W97849   8.170   2.691  12.593
31309W        W97850   1.797  18.713  11.480
31310W        W97851   1.454  34.563   4.663
31311W        W97852  16.194  41.560  12.516
31312W        W97853  36.823  33.502  11.752
31313W        W97854  29.155  28.482   3.211
31314W        W97855  23.008  39.595  13.391
31315W        W97856  42.208   2.120   3.164
31316W        W97857  23.609  17.785  11.214
31317W        W97858  31.814  26.619  12.462
31318W        W97859   6.201  16.082  14.869
31319W        W97860  37.067  42.020  12.911
31320W        W97861  21.115  10.895  14.871
31321W        W97862   1.823  32.814   4.902
31322W        W97863  21.387  15.185  12.588
31323W        W97864   2.963   2.224   1.424
31324W        W97865  16.092  10.702   3.595
31325W        W97866  14.266  40.786   0.251
31326W        W97867  10.446  33.566  11.127
31327W        W97868  28.034   3.405  11.645
31328W        W97869  42.917  40.478  11.091
31329W        W97870  27.560  12.772  11.371
31330W        W97871  42.298  16.784   0.295
31331W        W97872   7.614  22.592   2.791
31332W        W97873   7.424  31.261  14.131
31333W        W97874  35.800  25.001   4.111
31334W        W97875   4.415  14.818  12.005
31335W        W97876  24.536  20.740   2.813
31336W        W97877  36.881  35.022   3.370
31337W        W97878  21.112   3.124  14.470
31338W        W97879  40.824  42.454  13.795
31339W        W97880   8.751  23.489   2.875
31340W        W97881  44.764  31.347  13.877
31341W        W97882  12.316   8.212   4.412
31342W        W97883  23.734  36.594   2.643
31343W        W97884  12.714  16.780   3.274
31344W        W97885  37.434  21.352  11.616
31345W        W97886  44.660   5.264  13.485
31346W        W97887  42.122  35.955  11.558
31347W        W97888   7.682  30.076  13.339
31348W        W97889  39.000  21.664   4.132
31349W        W97890  10.774  14.376  11.043
31350W        W97891  33.777  38.129  11.514
31351W        W97892   6.216  39.311  11.858
31352W        W97893  43.441  38.921  12.423
31353W        W97894  20.587  35.116  11.234
31354W        W97895  26.717  20.453   3.737
31355W        W97896  29.512  24.528   4.605
31356W        W97897  21.543  22.579  11.731
31357W        W97898  13.838  39.602  11.041
31358W        W97899   9.118  31.029  14.827
31359W        W97900  30.013   4.430   3.771
31360W        W97901  15.306  30.911   2.749
31361W        W97902  18.568  17.226  11.000
31362W        W97903  18.303  42.863   4.635
31363W        W97904  35.512  19.303   1.727
31364W        W97905  32.464  26.217  11.984
31365W        W97906  28.515  14.322  12.457
31366W        W97907  35.861  11.834   4.610
31367W        W97908  38.244  18.423   1.448
31368W        W97909  29.237  22.216  11.147
31369W        W97910  32.974  42.498  14.896
31370W        W97911  18.726  43.876  12.244
31371W        W97912  16.534  33.590   2.875
31372W        W97913  39.277  33.417  10.689
31373W        W97914   5.331  10.734   1.671
31374W        W97915  40.619  33.167  11.996
31375W        W97916  20.950  14.297  12.397
31376W        W97917  13.613   4.043   1.021
31377W        W97918   9.393   0.577  12.527
31378W        W97919  25.262  43.844  10.633
31379W        W97920   1.085   3.898  12.484
31380W        W97921   4.215   4.807   5.000
31381W        W97922  44.883  18.862  11.942
31382W        W97923  13.707  20.134  10.746
31383W        W97924  18.544  32.623   4.807
31384W        W97925  22.525   5.825  12.028
31385W        W97926   1.354  20.379  10.618
31386W        W97927  34.835   3.353   0.815
31387W        W97928  13.439   2.354  10.638
31388W        W97929  14.740  24.477   3.693
31389W        W97930  43.007  42.753  13.392
31390W        W97931  43.971  41.992   2.101
31391W        W97932  15.157  35.911  10.588
31392W        W97933   5.162  32.957   1.098
31393W        W97934  42.285  34.636   2.843
31394W        W97935   8.136  21.329  13.958
31395W        W97936  13.247  22.536   3.328
31396W        W97937  29.139  43.226   1.885
31397W        W97938  15.664  38.498  13.511
31398W        W97939  34.477  34.332   2.661
31399W        W97940  44.029  28.835  10.115
31400W        W97941   5.738  14.788  13.668
31401W        W97942  32.837  29.232   0.092
31402W        W97943  43.331   6.858  14.931
31403W        W97944  18.068   8.583   1.936
31404W        W97945  20.305  35.866   3.098
31405W        W97946  37.720  18.546   1.532
31406W        W97947   4.690  44.525  14.877
31407W        W97948  10.785  21.208   4.581
31408W        W97949  22.565  29.787   3.189
31409W        W97950  26.219  30.331  11.534
31410W        W97951  25.479  30.536  14.861
31411W        W97952   3.780  39.354  10.578
31412W        W97953   7.766   0.235   5.368
31413W        W97954  14.346  36.615   1.294
31414W        W97955   7.814  28.207  13.632
31415W        W97956  14.639  26.137   4.174
31416W        W97957  33.188  25.083   3.465
31417W        W97958   9.840  26.928   2.807
31418W        W97959  25.949  33.922  14.020
31419W        W97960  16.121   8.628  13.823
31420W        W97961  20.666  11.416   1.402
31421W        W97962  18.369   8.217  12.111
31422W        W97963  44.851  42.069  12.093
31423W        W97964  37.948  42.422   0.648
31424W        W97965  20.885  38.801   1.636
31425W        W97966  42.599   0.248  14.092
31426W        W97967  34.133   2.934  14.504
31427W        W97968  38.902  31.779  14.819
31428W        W97969  32.885   9.793  14.931
31429W        W97970   8.428  15.542  11.153
31430W        W97971  11.066   4.066  12.223
31431W        W97972   4.776   9.712   2.342
31432W        W97973  35.089  35.861  12.117
31433W        W97974  40.364   4.179   1.426
31434W        W97975  38.293  39.879   0.878
31435W        W97976   1.722   1.655   1.311
31436W        W97977  19.038   9.408   0.825
31437W        W97978  44.257  37.904  11.896
31438W        W97979  19.646  22.628   2.717
31439W        W97980  11.856  30.572  10.250
31440W        W97981   9.994  29.742  11.232
31441W        W97982  13.514  42.851  10.062
31442W        W97983   1.714  11.186   3.730
31443W        W97984  24.699  19.659   3.099
31444W        W97985  19.483  33.506  12.295
31445W        W97986  20.412  43.135   3.165
31446W        W97987  33.186  39.279  14.570
31447W        W97988  21.717   8.172   0.278
31448W        W97989   7.182  18.838  13.441
31449W        W97990  22.946  26.243  14.410
31450W        W97991   0.402  38.069  13.891
31451W        W97992  19.835  37.109   2.143
31452W        W97993  43.755  28.931   3.737
31453W        W97994  40.145  29.272  14.831
31454W        W97995   2.857   3.693   0.475
31455W        W97996  23.524  12.866   2.289
31456W        W97997  30.101  36.872   3.360
31457W        W97998   0.927  23.605   4.933
31458W        W97999  21.465  32.898   0.765
31459W        W98000   6.155   1.291  13.063
31460W        W98001  14.425  44.130   0.004
31461W        W98002  33.591  43.032  12.407
31462W        W98003  24.025   3.178  10.964
31463W        W98004   7.384  40.133   2.785
31464W        W98005  15.747   0.109   2.444
31465W        W98006   8.742  41.337  11.601
31466W        W98007  13.829  23.493   2.409
31467W        W98008  31.635  43.622  11.001
31468W        W98009  13.665  26.875   2.878
31469W        W98010  42.249  18.883  14.623
31470W        W98011  39.486  33.870   4.045
31471W        W98012  20.628  42.247  12.853
31472W        W98013  10.710  30.936   3.613
31473W        W98014   5.855  33.385   0.402
31474W        W98015  40.776  35.892   3.284
31475W        W98016  25.268  37.473  14.214
31476W        W98017  24.755  42.246  10.959
31477W        W98018   1.135  37.636  11.168
31478W        W98019  35.618  44.285   4.487
31479W        W98020  33.268   1.696   1.767
31480W        W98021  42.215  32.428  14.294
31481W        W98022  42.276  26.671  13.826
31482W        W98023  25.737  38.819   3.619
31483W        W98024  12.148   3.628   4.608
31484W        W98025  38.744  42.441  14.392
31485W        W98026  12.195  42.806  13.955
31486W        W98027  30.936  25.293  10.605
31487W        W98028  33.084  44.278  14.331
31488W        W98029   1.841  30.924  10.620
31489W        W98030  38.825  23.037  14.475
31490W        W98031  25.814   4.543   2.322
31491W        W98032  20.629  21.987  11.880
31492W        W98033  17.592  37.933   2.439
31493W        W98034   0.279  38.468  11.655
31494W        W98035   8.458  24.502   1.833
31495W        W98036  36.465  10.773   1.768
31496W        W98037   9.004  15.714  12.486
31497W        W98038  39.396  23.519   1.982
31498W        W98039  10.354   0.376  11.653
31499W        W98040  19.607  18.694  13.043
31500W        W98041  34.403  38.907  11.586
31501W        W98042  34.446  29.466   4.436
31502W        W98043   5.136  13.054  13.108
31503W        W98044  27.905  32.468   2.411
31504W        W98045  39.821  24.189   2.374
31505W        W98046  34.444  30.615  12.527
31506W        W98047  41.897  43.232  14.843
31507W        W98048   6.479  19.571  10.710
31508W        W98049  20.180  22.267   4.534
31509W        W98050   9.959  23.637   3.166
31510W        W98051  14.730  38.567  13.346
31511W        W98052  31.208  30.748  14.430
31512W        W98053  18.255  43.271   3.765
31513W        W98054  22.762  35.820  10.953
31514W        W98055   6.231   5.320   2.194
31515W        W98056  27.702   1.816   2.202
31516W        W98057  33.924  36.319   3.959
31517W        W98058  20.404   8.485  10.228
31518W        W98059  17.339  13.343  14.808
31519W        W98060  15.721   0.751   1.691
31520W        W98061  31.434   9.071   0.926
31521W        W98062  32.382   3.468  12.166
31522W        W98063   5.398   6.699  13.436
31523W        W98064   4.026  24.004  11.431
31524W        W98065  24.247  38.323   4.219
31525W        W98066  14.330  10.758   0.362
31526W        W98067  44.823  13.698  10.879
31527W        W98068  16.647  21.800   4.113
31528W        W98069  26.440  15.848   3.222
31529W        W98070  22.192  24.486   3.243
31530W        W98071  42.276  25.991   3.299
31531W        W98072  34.128   7.786   0.084
31532W        W98073  11.630   5.047  10.146
31533W        W98074  30.098  32.723  11.531
31534W        W98075  13.263  18.492   0.827
31535W        W98076  29.443  13.831   4.882
31536W        W98077   7.951  12.383   4.344
31537W        W98078  16.331  41.412   2.240
31538W        W98079  37.534  14.213   3.093
31539W        W98080   9.712  37.106   3.285
31540W        W98081  11.536  30.615   1.238
31541W        W98082  10.192  33.568   1.334
31542W        W98083   4.784  11.392  10.216
31543W        W98084  27.539  26.689  14.305
31544W        W98085  20.585  34.498  14.489
31545W        W98086  28.616  40.329  14.385
31546W        W98087  24.513  19.077  12.828
31547W        W98088   0.811  17.189   0.057
31548W        W98089  41.357  20.483  14.463
31549W        W98090  16.492  44.719   2.740
31550W        W98091   5.261  28.870   2.898
31551W        W98092  11.433  40.006   1.691
31552W        W98093  22.561  23.112  10.502
31553W        W98094  13.710  31.966  13.964
31554W        W98095  42.377  39.966   3.787
31555W        W98096  39.261  33.176  14.966
31556W        W98097  12.049  10.690   4.635
31557W        W98098  26.544   8.477  12.951
31558W        W98099  13.129  42.475  14.899
31559W        W98100  32.674  37.312  11.936
31560W        W98101  14.874  24.826  14.041
31561W        W98102  42.139  39.072  12.562
31562W        W98103  43.472  26.429   3.275
31563W        W98104  42.028  28.470   1.408
31564W        W98105  19.052  12.144  10.261
31565W        W98106   7.414  11.214   2.341
31566W        W98107  16.041  25.694   2.144
31567W        W98108   8.824   3.936  13.908
31568W        W98109  19.584   2.208  12.994
31569W        W98110  22.972  31.885   5.117
31570W        W98111   1.992  33.780  10.275
31571W        W98112  18.216  23.793   3.372
31572W        W98113  18.683  12.390   3.101
31573W        W98114  14.353   4.351   4.235
31574W        W98115  40.108  37.018   0.352
31575W        W98116  34.071  29.317  13.289
31576W        W98117  27.677  31.182  12.018
31577W        W98118  19.145  16.814   1.761
31578W        W98119  14.366  37.942   3.600
31579W        W98120   6.542  17.115   1.691
31580W        W98121  25.690  30.554  12.007
31581W        W98122  11.251   3.988   4.587
31582W        W98123  41.880   5.212   0.407
31583W        W98124  13.093  28.056  14.773
31584W        W98125  39.550  11.921   5.006
31585W        W98126  43.494  31.913  11.647
31586W        W98127  33.834  40.551  12.545
31587W        W98128   4.403  13.569  13.365
31588W        W98129   7.354  23.101   0.583
31589W        W98130  17.285  15.288  12.093
31590W        W98131   9.245   3.284   3.664
31591W        W98132   5.912  12.902   0.450
31592W        W98133  29.772  44.791  14.407
31593W        W98134   4.392   5.653   3.317
31594W        W98135  38.385  32.332   4.693
31595W        W98136  18.277  34.035  12.559
31596W        W98137  44.987  38.844  11.486
31597W        W98138   6.143   0.274  10.320
31598W        W98139   3.405  39.305   0.528
31599W        W98140  34.163   9.637   4.652
31600W        W98141  25.740  33.719  14.467
31601W        W98142  11.623  11.061   2.230
31602W        W98143   8.733   7.212   3.086
31603W        W98144  23.136  23.882  13.062
31604W        W98145  27.715  36.502   0.871
31605W        W98146   7.429  33.148   1.027
31606W        W98147  42.119  44.205   4.143
31607W        W98148   2.769  19.521  13.360
31608W        W98149  42.415  33.812   3.260
31609W        W98150   6.901  40.063  11.248
31610W        W98151  31.408  37.504   4.935
31611W        W98152  17.746  10.671   1.368
31612W        W98153  44.505   4.498   4.733
31613W        W98154  11.720  25.001  12.142
31614W        W98155  14.208  22.408   1.378
31615W        W98156  20.270  21.537   1.986
31616W        W98157  14.564   9.854  11.090
31617W        W98158   0.994  23.028  12.514
31618W        W98159  14.345  31.957   2.735
31619W        W98160   0.522  31.440  12.065
31620W        W98161  32.359  41.489  11.458
31621W        W98162  35.387  24.931   4.438
31622W        W98163  28.022  18.848  14.405
31623W        W98164  27.468   8.235   2.894
31624W        W98165  15.283   0.989   0.839
31625W        W98166  38.411  30.992  13.838
31626W        W98167  44.047  40.943  10.372
31627W        W98168   3.052   6.384   2.457
31628W        W98169  19.009  11.755  11.077
31629W        W98170  15.276   7.290   3.213
31630W        W98171   7.296  43.934  14.853
31631W        W98172  20.633  14.763   3.093
31632W        W98173  44.756   3.138  12.598
31633W        W98174  13.576  32.323  14.307
31634W        W98175  15.188  20.312   3.869
31635W        W98176  36.533  22.155   4.078
31636W        W98177  21.609   3.439  13.159
31637W        W98178  38.764   2.738   1.039
31638W        W98179   4.210   6.366   2.834
31639W        W98180  37.698  13.352   1.974
31640W        W98181   7.038   9.132   0.466
31641W        W98182   7.633  26.713   0.110
31642W        W98183  27.548  18.523  14.481
31643W        W98184  36.362  11.415  13.278
31644W        W98185  12.610  15.538  10.730
31645W        W98186  34.427  14.125  11.963
31646W        W98187  15.251  35.958  11.728
31647W        W98188  18.197  19.617  11.570
31648W        W98189  24.846  12.758   2.245
31649W        W98190   4.842  36.562   5.324
31650W        W98191  41.256   1.208  12.856
31651W        W98192   9.754  43.072   3.590
31652W        W98193   2.345   2.027  13.489
31653W        W98194  14.078  10.358   0.656
31654W        W98195   1.995  41.765  12.461
31655W        W98196   2.062  23.346   5.328
31656W        W98197  32.104   2.346  14.872
31657W        W98198  41.528   7.343  14.847
31658W        W98199  34.119  35.999   0.397
31659W        W98200   9.086   2.887   2.161
31660W        W98201   9.242  15.533   0.306
31661W        W98202  16.767   8.273   4.359
31662W        W98203  33.411  27.182  13.549
31663W        W98204  24.547  37.505   0.943
31664W        W98205   5.998   7.132   3.273
31665W        W98206  18.521  42.388  13.375
31666W        W98207  15.113  30.652  12.638
31667W        W98208   9.136  43.016   1.285
31668W        W98209  28.641  17.212   2.800
31669W        W98210  35.464  34.513   4.164
31670W        W98211  27.290  20.181   4.481
31671W        W98212  12.886  38.835  12.504
31672W        W98213  43.349  24.717   4.223
31673W        W98214  32.829  38.093  12.684
31674W        W98215  42.223  32.422  11.662
31675W        W98216  18.551  20.558   0.842
31676W        W98217  39.623  20.905   9.993
31677W        W98218  44.054   4.919  14.786
31678W        W98219  22.481  35.772   4.896
31679W        W98220  33.254   8.126   3.398
31680W        W98221  24.518  14.179  12.561
31681W        W98222  44.489  28.949  10.408
31682W        W98223  12.565   4.659   1.260
31683W        W98224  15.653  38.858  13.024
31684W        W98225  16.679   7.180   4.498
31685W        W98226   8.117  14.492  14.420
31686W        W98227  41.751  34.689  14.882
31687W        W98228   3.987   4.265   0.907
31688W        W98229  18.017  29.182  13.950
31689W        W98230  22.195  30.419  13.924
31690W        W98231  27.537  22.953   3.181
31691W        W98232  43.423  25.951   3.072
31692W        W98233  31.652   0.688   3.330
31693W        W98234  26.605  18.234  10.760
31694W        W98235  17.457  25.517   1.329
31695W        W98236  18.522  20.272   1.763
31696W        W98237  21.093   5.480   3.671
31697W        W98238  12.582  35.029   2.645
31698W        W98239  26.750  17.766  10.396
31699W        W98240  43.689  38.794  14.368
31700W        W98241  33.396  12.121   4.143
31701W        W98242   3.564  34.604  11.975
31702W        W98243  29.921  17.159  13.235
31703W        W98244  19.260  23.778  10.776
31704W        W98245  19.475  36.420  14.817
31705W        W98246   3.518  21.278   0.435
31706W        W98247  12.224  28.613  13.252
31707W        W98248  11.011  44.476   1.379
31708W        W98249   7.670  24.026   2.764
31709W        W98250  41.700  29.991   3.618
31710W        W98251  26.232  11.447   2.087
31711W        W98252   2.230  19.031   3.163
31712W        W98253  44.027  14.078   4.403
31713W        W98254  36.976  14.210  13.532
31714W        W98255  23.067  43.772   4.108
31715W        W98256  10.171  28.620  12.012
31716W        W98257  15.338  26.041  10.764
31717W        W98258  20.613  36.843   2.236
31718W        W98259  36.056  43.477  14.428
31719W        W98260  30.920  10.631  10.609
31720W        W98261  43.524   0.397   0.665
31721W        W98262   3.787  28.532  12.184
31722W        W98263  35.626  28.166  13.015
31723W        W98264  20.213  33.436   2.742
31724W        W98265  38.309  17.337  14.125
31725W        W98266   5.281  12.033  14.661
31726W        W98267  28.573  12.613  11.614
31727W        W98268  29.059  41.277  14.990
31728W        W98269   4.653  18.733  10.696
31729W        W98270  13.785  44.295  13.903
31730W        W98271  13.269  18.677   1.722
31731W        W98272   3.295  13.609  14.889
31732W        W98273  41.527  17.384  13.819
31733W        W98274  18.692  16.316   4.614
31734W        W98275   2.718  33.796  13.472
31735W        W98276   0.272  24.906   3.339
31736W        W98277  31.838  29.173   3.767
31737W        W98278  35.549  42.896  11.686
31738W        W98279  32.130  15.058  11.328
31739W        W98280  35.039   9.210   1.235
31740W        W98281   1.917  36.546  12.667
31741W        W98282  14.638  27.929  11.595
31742W        W98283  31.900  19.100   2.281
31743W        W98284  13.205   1.861  10.761
31744W        W98285  21.176  22.446  14.910
31745W        W98286   5.180  10.745  12.550
31746W        W98287  36.659  20.219   1.326
31747W        W98288  34.044   7.842  10.741
31748W        W98289   4.394  43.291   4.710
31749W        W98290   8.665  33.594   4.079
31750W        W98291  17.327  23.169   2.556
31751W        W98292  26.638  24.071  12.494
31752W        W98293  23.051  22.886   3.448
31753W        W98294  44.443  29.993   3.694
31754W        W98295  44.258  40.288   2.891
31755W        W98296  38.551  25.617   2.712
31756W        W98297  36.072  28.035  12.720
31757W        W98298  12.347  40.757   2.543
31758W        W98299  17.173  10.132   0.902
31759W        W98300  36.460  12.806   1.924
31760W        W98301  17.375  11.716  12.618
31761W        W98302  41.029  39.146   2.639
31762W        W98303  21.645  12.489   4.833
31763W        W98304  28.925  19.271  12.338
31764W        W98305  31.595   0.302  12.822
31765W        W98306  28.359  19.601   0.346
31766W        W98307   1.712  34.960   4.490
31767W        W98308   8.622  35.866  13.342
31768W        W98309   8.934  20.109  14.393
31769W        W98310  37.983  24.391   4.978
31770W        W98311  19.672  10.553   1.372
31771W        W98312  44.740   1.611  13.559
31772W        W98313  41.047  18.140   0.978
31773W        W98314  42.858   9.465  10.240
31774W        W98315  43.802  21.195   3.121
31775W        W98316   4.871   6.440  11.463
31776W        W98317  21.257  16.673   4.138
31777W        W98318   7.761  26.975  10.073
31778W        W98319  40.275   4.388   2.413
31779W        W98320   7.891  31.068   4.058
31780W        W98321   8.690  23.718  14.068
31781W        W98322  26.986  27.695  14.274
31782W        W98323  41.424  27.981  12.858
31783W        W98324  19.041   9.340  14.395
31784W        W98325  13.842   9.932  11.564
31785W        W98326  18.342  25.609   1.339
31786W        W98327  33.118  19.355  14.820
31787W        W98328  21.273   5.809   0.492
31788W        W98329  18.616  41.101   3.947
31789W        W98330  25.555  41.607  14.989
31790W        W98331  28.857  29.725   2.919
31791W        W98332  31.154  41.088  11.127
31792W        W98333  21.224  42.393   4.279
31793W        W98334   7.214  30.898  14.833
31794W        W98335   7.817  25.702  10.869
31795W        W98336  22.664  34.565   2.227
31796W        W98337   1.893  22.452  11.551
31797W        W98338  17.614   8.896  10.823
31798W        W98339  28.972  28.034  14.646
31799W        W98340  40.866  35.018   0.753
31800W        W98341  36.549  11.735  10.820
31801W        W98342   9.235  26.873  13.407
31802W        W98343  42.946   1.756  10.592
31803W        W98344  33.987  43.716  13.459
31804W        W98345  43.864  32.867   2.707
31805W        W98346  10.370  18.605  14.286
31806W        W98347   4.694  10.665  12.684
31807W        W98348  28.413  37.435   1.649
31808W        W98349  29.028  34.381   4.043
31809W        W98350  29.558  43.952   4.783
31810W        W98351  23.662  26.958   3.697
31811W        W98352   2.429  36.631   2.120
31812W        W98353  19.700  41.236  12.407
31813W        W98354  32.095  16.767   4.124
31814W        W98355  32.387  16.130  14.216
31815W        W98356  40.998  13.260  14.867
31816W        W98357  42.500  22.141  10.794
31817W        W98358  18.242  12.470   5.019
31818W        W98359  28.456   9.689   2.806
31819W        W98360  22.120  11.710  13.900
31820W        W98361   0.249  14.764  11.683
31821W        W98362   7.406  22.291  11.003
31822W        W98363   2.059   7.034  13.093
31823W        W98364   3.019  32.904  11.955
31824W        W98365  13.883   7.674   2.322
31825W        W98366  37.579  31.018   2.761
31826W        W98367  32.391  23.888   1.357
31827W        W98368   4.740  27.136   4.141
31828W        W98369  29.373  19.707   1.121
31829W        W98370   8.315  34.204  13.915
31830W        W98371  19.500  16.189  12.562
31831W        W98372  15.311   7.837  10.669
31832W        W98373  15.374  24.124   3.681
31833W        W98374  20.455  42.965   4.137
31834W        W98375  15.640  31.677   9.886
31835W        W98376   8.654  13.460   0.898
31836W        W98377   0.006  23.655   3.320
31837W        W98378   0.387  10.361  12.441
31838W        W98379   7.813   6.104  12.864
31839W        W98380  30.743  29.246  13.801
31840W        W98381  33.859  30.998  14.349
31841W        W98382  21.932  17.832  11.860
31842W        W98383  30.091  39.679  14.998
31843W        W98384  25.230  33.014   0.802
31844W        W98385  33.053  43.200   3.264
31845W        W98386  10.629  39.067  12.407
31846W        W98387   4.205  24.272  12.487
31847W        W98388  24.229  28.921  14.518
31848W        W98389  25.194  33.296   1.599
31849W        W98390  33.147  25.580   3.265
31850W        W98391  33.856  44.497  12.989
31851W        W98392   8.596  40.828  14.925
31852W        W98393  31.569  10.548   2.581
31853W        W98394  18.200   4.991  12.024
31854W        W98395  40.019  41.817   4.741
31855W        W98396  40.306  31.235   4.068
31856W        W98397   6.701  20.671  14.078
31857W        W98398   3.305  41.098  13.903
31858W        W98399   5.547  36.021   1.335
31859W        W98400  24.437  31.289  12.680
31860W        W98401  38.604  35.357   1.354
31861W        W98402  38.353  10.427  12.881
31862W        W98403  23.240  39.266   3.621
31863W        W98404  15.138  15.689  10.068
31864W        W98405  32.473  21.510   2.687
31865W        W98406  38.536  36.248  14.365
31866W        W98407  31.028  15.853  11.221
31867W        W98408   3.016   8.456  10.738
31868W        W98409   8.184   0.770   1.808
31869W        W98410  19.113  25.485  11.039
31870W        W98411  35.147  37.661   5.135
31871W        W98412  37.415   7.193  13.094
31872W        W98413  11.825  28.040   4.731
31873W        W98414  20.278   3.331  11.155
31874W        W98415   1.353   7.361  14.575
31875W        W98416  15.631  21.118  10.739
31876W        W98417   9.199   7.472  13.773
31877W        W98418  15.543  43.550   2.780
31878W        W98419  35.452  44.764   0.733
31879W        W98420  22.449  28.414   2.411
31880W        W98421   6.466   2.235   2.731
31881W        W98422  38.965   1.398   1.743
31882W        W98423  16.031   6.646   2.189
31883W        W98424  29.685  38.075   3.626
31884W        W98425  42.715  31.218   2.243
31885W        W98426  28.887  10.772   3.777
31886W        W98427  42.622  40.067  14.974
31887W        W98428  17.094   4.916   4.651
31888W        W98429   1.814  43.479   2.369
31889W        W98430  43.358   2.361  10.701
31890W        W98431   5.521   3.791  11.185
31891W        W98432  28.617  17.680  13.976
31892W        W98433  25.045  40.810   2.798
31893W        W98434   8.756  32.468  12.557
31894W        W98435  44.445   9.831   2.122
31895W        W98436  17.898  26.970  13.598
31896W        W98437   9.315  44.806   0.907
31897W        W98438   0.667  44.494  12.879
31898W        W98439   9.287  29.498  10.779
31899W        W98440   8.647   8.698  14.334
31900W        W98441  40.493   9.440   4.275
31901W        W98442   7.707  17.405   4.261
31902W        W98443   2.870  36.450   1.893
31903W        W98444   8.239  21.099   3.616
31904W        W98445  30.836   9.727   1.679
31905W        W98446  25.021  26.191   3.092
31906W        W98447   0.011  23.250  10.730
31907W        W98448  25.195  16.091   1.744
31908W        W98449  38.769  13.299  11.529
31909W        W98450  11.135  32.171  10.272
31910W        W98451  26.930  31.858  10.548
31911W        W98452  21.171   4.939  11.688
31912W        W98453  29.818   9.781   2.791
31913W        W98454   3.306  33.212   0.894
31914W        W98455   9.680  20.778   4.066
31915W        W98456  10.161  20.893   4.126
31916W        W98457   0.691  38.641  12.980
31917W        W98458  38.136   3.687   2.360
31918W        W98459  21.090  38.343  11.249
31919W        W98460  25.679  29.682  13.538
31920W        W98461  25.447   8.738  13.060
31921W        W98462  17.670  16.170   0.024
31922W        W98463  33.978  32.366   0.907
31923W        W98464   0.307  35.861   0.656
31924W        W98465  23.139  28.611   1.759
31925W        W98466  14.580   9.878   0.850
31926W        W98467  31.948  31.698  12.129
31927W        W98468   7.037  13.720   4.251
31928W        W98469  10.665  40.337  10.498
31929W        W98470  40.929  25.694   4.174
31930W        W98471  44.062  19.476  10.399
31931W        W98472  18.091  28.011   1.486
31932W        W98473  12.324  12.780   1.466
31933W        W98474  42.311  37.271  11.045
31934W        W98475  39.456  40.517   2.337
31935W        W98476  29.331  19.432  11.703
31936W        W98477  39.606   6.412  14.226
31937W        W98478  32.679   8.422  11.201
31938W        W98479  15.548  43.168  10.154
31939W        W98480  33.393   0.430   0.676
31940W        W98481  15.798  18.194   1.631
31941W        W98482  42.150   3.622   4.828
31942W        W98483  36.867  11.835   1.012
31943W        W98484  22.497   3.220   1.266
31944W        W98485  30.852   9.194  13.481
31945W        W98486  16.230  38.834  11.723
31946W        W98487  43.211  36.284   3.202
31947W        W98488  31.623  25.248  11.083
31948W        W98489  14.158  20.745   4.769
31949W        W98490  15.982  16.875  13.313
31950W        W98491  11.696  34.482   1.677
31951W        W98492   7.426  42.301   4.596
31952W        W98493  40.104  30.215  11.098
31953W        W98494  24.102  41.987  11.485
31954W        W98495  28.207  11.584   1.563
31955W        W98496  19.528  30.952   4.510
31956W        W98497   8.312  17.041   3.143
31957W        W98498  25.384  36.987   1.787
31958W        W98499  31.631   5.906  10.368
31959W        W98500  33.888   6.269   2.232
31960W        W98501  36.578   8.352  12.820
31961W        W98502   5.723  30.926  14.881
31962W        W98503  14.889  19.646  10.607
31963W        W98504  16.644  33.648  11.065
31964W        W98505   0.203   4.787  11.629
31965W        W98506  10.060   7.380  14.364
31966W        W98507   5.447  20.365   0.019
31967W        W98508  44.447  25.248  12.423
31968W        W98509  27.790   2.061   2.721
31969W        W98510  38.356  20.295  11.622
31970W        W98511  15.608  33.554  12.199
31971W        W98512  26.427  22.182   0.543
31972W        W98513  37.974  34.037   2.168
31973W        W98514  35.998  40.444   0.831
31974W        W98515  15.766   0.981   4.358
31975W        W98516  25.059  17.334  14.828
31976W        W98517  35.193  28.131   4.997
31977W        W98518   6.602  19.097   1.702
31978W        W98519  15.776  19.997  11.677
31979W        W98520  13.644  16.148   4.316
31980W        W98521   0.052  36.845   0.476
31981W        W98522  22.231  40.062   3.051
31982W        W98523   3.377   4.261   0.898
31983W        W98524  25.274  35.048   4.250
31984W        W98525  43.661  15.516   4.951
31985W        W98526  21.712  25.001  11.209
31986W        W98527  23.452  27.425   1.333
31987W        W98528  43.450   2.923   3.726
31988W        W98529  42.535  20.246  13.986
31989W        W98530   9.133  10.508   4.249
31990W        W98531  34.867   6.837   3.844
31991W        W98532   7.855  34.034  11.493
31992W        W98533  28.368  36.093   0.336
31993W        W98534  21.605  24.752  14.329
31994W        W98535  32.411  29.939  13.151
31995W        W98536  13.690  17.682   3.798
31996W        W98537  19.555   1.974  10.712
31997W        W98538  33.287  14.726   1.762
31998W        W98539  42.985  43.901  14.359
31999W        W98540  24.545  30.389  10.244
32000W        W98541  38.630  20.015   1.970
32001W        W98542  27.854  40.243  13.540
32002W        W98543  30.059  17.740   1.992
32003W        W98544   8.265  35.828   1.392
32004W        W98545  18.701  30.987  13.555
32005W        W98546  27.962  10.093   3.213
32006W        W98547  43.046  29.395  10.700
32007W        W98548  17.166  13.161  12.666
32008W        W98549  15.986  30.481  14.841
32009W        W98550  29.555  43.369   3.626
32010W        W98551   0.989  43.986  13.840
32011W        W98552  12.465  43.493  11.598
32012W        W98553   5.383  36.874  14.446
32013W        W98554  35.851  31.349   1.183
32014W        W98555  26.678  37.091  14.585
32015W        W98556   3.724   9.171  11.342
32016W        W98557  32.352  15.075  10.869
32017W        W98558   8.156   3.797  11.994
32018W        W98559  14.227  19.977   3.128
32019W        W98560  37.034  39.687  12.102
32020W        W98561  39.490  27.709  14.372
32021W        W98562  35.404  26.673  11.608
32022W        W98563  13.525  28.086  12.876
32023W        W98564  29.664  16.201  11.098
32024W        W98565  22.395   6.191  11.632
32025W        W98566  35.346  27.752  11.599
32026W        W98567   0.901   1.475  13.404
32027W        W98568   5.988  25.527  10.005
32028W        W98569  44.205   0.625  13.488
32029W        W98570  24.408  10.733  14.913
32030W        W98571  32.997  19.524   3.940
32031W        W98572  31.975   3.227   1.050
32032W        W98573  11.034  30.438  10.718
32033W        W98574  20.153   6.199  11.549
32034W        W98575  32.016  21.977  12.564
32035W        W98576  25.956  25.764  11.698
32036W        W98577  27.609  35.381  11.527
32037W        W98578   5.711   0.339   4.150
32038W        W98579   6.942  39.934  12.431
32039W        W98580  13.122  41.872   1.776
32040W        W98581  22.590   0.006   0.767
32041W        W98582  20.434  40.897   2.158
32042W        W98583   5.865  30.907  10.652
32043W        W98584  21.339  41.016  11.663
32044W        W98585   3.656  38.684   4.962
32045W        W98586  20.239  11.291   1.131
32046W        W98587   3.304  23.723   3.761
32047W        W98588  21.902  11.195   3.530
32048W        W98589  24.438  23.254   2.392
32049W        W98590  27.311   4.227  14.689
32050W        W98591  29.203  21.670   0.064
32051W        W98592  24.114  29.359  12.149
32052W        W98593  43.269  11.181   3.171
32053W        W98594  37.146  26.459   3.267
32054W        W98595  23.041   8.275  13.790
32055W        W98596  19.187  28.579  13.911
32056W        W98597  16.365   9.788  10.678
32057W        W98598   8.115  18.193   4.565
32058W        W98599   0.505  15.417   2.766
32059W        W98600  28.078  39.532  12.571
32060W        W98601  20.070   9.647  11.201
32061W        W98602  31.160  21.247   4.349
32062W        W98603  32.401  44.976   1.749
32063W        W98604  20.215   5.897  14.670
32064W        W98605   8.924  17.302   3.008
32065W        W98606  26.966  32.960  14.321
32066W        W98607  36.873   9.830  14.660
32067W        W98608   9.979   6.681  14.608
32068W        W98609   6.796  11.379  11.595
32069W        W98610  42.112   1.184  14.473
32070W        W98611  32.919  39.490   3.603
32071W        W98612  43.296   9.375  14.544
32072W        W98613  44.707   7.308  14.882
32073W        W98614  30.370  34.664  12.959
32074W        W98615  28.360  44.914  11.440
32075W        W98616  43.876  29.130   0.755
32076W        W98617  40.339  15.166  12.088
32077W        W98618   7.901  32.981  11.487
32078W        W98619  35.482  44.761   4.821
32079W        W98620  43.680  43.698   3.209
32080W        W98621  25.941  27.103  13.022
32081W        W98622  14.595  27.113   1.942
32082W        W98623  23.741  34.916   0.534
32083W        W98624  30.155   3.634  12.408
32084W        W98625  28.082  14.221   0.814
32085W        W98626  23.192  36.999   0.073
32086W        W98627  40.067   4.880  11.489
32087W        W98628  37.310  22.679   0.414
32088W        W98629  33.493  41.727   3.801
32089W        W98630   3.312  29.903  13.593
32090W        W98631  44.379  25.666   1.443
32091W        W98632  41.545   1.434   0.415
32092W        W98633  16.848   0.056   0.340
32093W        W98634  41.049  10.579   0.427
32094W        W98635   3.378  13.981   2.339
32095W        W98636   6.271  14.573   2.364
32096W        W98637  26.708  40.947   0.895
32097W        W98638  27.140   5.997  12.032
32098W        W98639   0.838  23.060  13.987
32099W        W98640   0.969   1.562   0.418
32100W        W98641  42.137  12.654  12.743
32101W        W98642  28.032   4.408   0.259
32102W        W98643  34.738  17.822   4.518
32103W        W98644  33.654  12.323   9.709
32104W        W98645   0.839  12.380  13.358
32105W        W98646  21.964  31.377   1.351
32106W        W98647  34.578   6.972   4.663
32107W        W98648  24.412  37.099  14.096
32108W        W98649  21.684   9.008   5.256
32109W        W98650   6.760  32.409  10.610
32110W        W98651  20.134  22.862  13.012
32111W        W98652  17.335  27.768  13.731
32112W        W98653  42.995  25.217   3.896
32113W        W98654  19.930   8.003  14.982
32114W        W98655  43.008  10.692   4.078
32115W        W98656   0.245  41.287  14.543
32116W        W98657  32.503   5.920  11.040
32117W        W98658  33.352  27.398   1.703
32118W        W98659  10.207  29.358   2.777
32119W        W98660  17.517  33.398   4.642
32120W        W98661  36.391  15.517  14.953
32121W        W98662  23.087  19.138  12.468
32122W        W98663   3.831  14.098  10.820
32123W        W98664  16.359  17.565  10.971
32124W        W98665  42.522  20.770   5.110
32125W        W98666  32.055   2.395  11.632
32126W        W98667   1.118  11.227   0.362
32127W        W98668  19.509  40.950   1.012
32128W        W98669  15.434  21.330   2.235
32129W        W98670  20.075   1.429   4.582
32130W        W98671   9.321  29.559   3.556
32131W        W98672  39.509   3.451   2.239
32132W        W98673   9.456  18.287   0.338
32133W        W98674  41.779  43.233   4.998
32134W        W98675  11.814  18.954  11.689
32135W        W98676   6.742  12.347  12.398
32136W        W98677  21.522  40.622  11.120
32137W        W98678  41.523  22.608   3.609
32138W        W98679  26.113  41.251  10.667
32139W        W98680  34.047  19.659   4.095
32140W        W98681  39.926   8.280   4.075
32141W        W98682  11.549  10.661  14.970
32142W        W98683  20.674   2.432   3.705
32143W        W98684  24.005  32.833   0.666
32144W        W98685  21.781  25.629   2.571
32145W        W98686  31.882  23.693   1.352
32146W        W98687  15.126  20.663   1.219
32147W        W98688  44.245  12.131   0.753
32148W        W98689  43.635  34.459   0.313
32149W        W98690  17.738  28.998   4.103
32150W        W98691  34.354  33.067   2.339
32151W        W98692  29.321  15.057  14.351
32152W        W98693  29.488  39.538  12.894
32153W        W98694   8.115  28.673   3.316
32154W        W98695   4.707  28.855   0.663
32155W        W98696  15.526   1.278   3.063
32156W        W98697  16.410  29.714  12.001
32157W        W98698  32.483  31.473  14.335
32158W        W98699  43.947  20.578  14.525
32159W        W98700  44.799  19.589  12.823
32160W        W98701  23.688   0.497  12.971
32161W        W98702  25.145  36.551  14.932
32162W        W98703   4.258  11.259   2.534
32163W        W98704  32.876  28.184  13.439
32164W        W98705  28.092  32.396  11.792
32165W        W98706   3.179  41.860   5.371
32166W        W98707   5.126  34.372   1.342
32167W        W98708   6.741  19.684   3.296
32168W        W98709  31.188  34.560  10.928
32169W        W98710  22.811  18.323   4.084
32170W        W98711  43.357  44.847   4.615
32171W        W98712  33.034  24.900   0.532
32172W        W98713  30.209  28.645  14.019
32173W        W98714   7.377  15.854  11.237
32174W        W98715  37.997  37.638   4.779
32175W        W98716  41.507  24.284   2.789
32176W        W98717   6.200  27.699  13.833
32177W        W98718  23.195   0.619   3.940
32178W        W98719  26.661  32.590  11.385
32179W        W98720  28.698  13.389   2.836
32180W        W98721   0.958  38.316   4.107
32181W        W98722  34.031  18.590  12.023
32182W        W98723  18.564   7.294  11.679
32183W        W98724  34.242  13.384   4.251
32184W        W98725  37.027  20.846   2.297
32185W        W98726  35.511  29.248  10.847
32186W        W98727  29.601  37.121  13.387
32187W        W98728  36.316  31.079  10.739
32188W        W98729  33.491  24.756   2.255
32189W        W98730   1.893  27.804   3.325
32190W        W98731   1.826   1.352  13.832
32191W        W98732  15.371  11.393  12.758
32192W        W98733   0.829  35.391  14.305
32193W        W98734  29.179  34.859   0.442
32194W        W98735  40.161  41.390  13.451
32195W        W98736   3.442  38.146  13.329
32196W        W98737  25.171  24.121   1.819
32197W        W98738  36.861   8.905   2.459
32198W        W98739  16.233  43.480   0.929
32199W        W98740  12.695  31.391   2.350
32200W        W98741  37.411   5.285   2.077
32201W        W98742  24.668  13.315  13.405
32202W        W98743   2.762  30.468   1.825
32203W        W98744  23.659  11.340   0.127
32204W        W98745  30.610  41.022   4.558
32205W        W98746   1.268  30.599  13.197
32206W        W98747  23.348   7.760  13.407
32207W        W98748  33.059  36.050  13.401
32208W        W98749   0.100   3.293  12.945
32209W        W98750  20.745  39.806  12.105
32210W        W98751  28.093   1.085   0.120
32211W        W98752  16.913   6.737   1.142
32212W        W98753  24.511  13.058  11.457
32213W        W98754  18.983  11.055   3.032
32214W        W98755  30.008  35.671  11.078
32215W        W98756  35.100   7.529   1.464
32216W        W98757  26.751  37.487   3.675
32217W        W98758   1.624  12.211   0.786
32218W        W98759  29.185  10.874   4.168
32219W        W98760  36.039  11.314  10.790
32220W        W98761   1.310  43.461  14.882
32221W        W98762  18.843  15.523  13.336
32222W        W98763  10.909  44.514   0.821
32223W        W98764  28.869  14.146   0.170
32224W        W98765  12.375  11.624  11.478
32225W        W98766  20.140   5.631   0.503
32226W        W98767  10.558  31.816   4.146
32227W        W98768  27.040  26.263   4.619
32228W        W98769  18.538   3.374  10.734
32229W        W98770  31.021  37.232   4.586
32230W        W98771  18.634  35.655   5.061
32231W        W98772  33.095   6.812  13.611
32232W        W98773  15.089   8.454  14.699
32233W        W98774   5.197  13.874  14.233
32234W        W98775  37.550  33.127   1.146
32235W        W98776  17.132  11.873  14.469
32236W        W98777   2.614  21.176   0.757
32237W        W98778   3.176  42.378  12.973
32238W        W98779   1.431  25.411  12.623
32239W        W98780  22.752   8.313  12.200
32240W        W98781  12.584   8.696   0.385
32241W        W98782   9.128  16.708   0.832
32242W        W98783   4.938   1.949  14.395
32243W        W98784   1.995  18.206  10.647
32244W        W98785  22.290  35.642  11.197
32245W        W98786   4.011  38.601   0.524
32246W        W98787  24.294  27.962   4.534
32247W        W98788   7.643  28.574   4.278
32248W        W98789  14.074   2.941  14.843
32249W        W98790  13.713  23.928  11.575
32250W        W98791  12.089   8.250  12.523
32251W        W98792   4.901   4.991   2.151
32252W        W98793  41.796  11.774  12.552
32253W        W98794   3.411  16.830  10.756
32254W        W98795  40.869  11.730   5.327
32255W        W98796  33.180  22.385  11.917
32256W        W98797  14.551  20.127   2.682
32257W        W98798  44.520  36.890   2.253
32258W        W98799  35.421  23.561   4.559
32259W        W98800  12.194  42.202   4.196
32260W        W98801  15.848  27.997   3.082
32261W        W98802  24.100  32.543   4.199
32262W        W98803   4.768  15.865   4.771
32263W        W98804   8.479  42.355   4.550
32264W        W98805   9.925  24.195   3.184
32265W        W98806   0.892  18.464   1.614
32266W        W98807  18.303  11.048  13.772
32267W        W98808  12.574  28.447   2.433
32268W        W98809   2.806  43.806  10.584
32269W        W98810  24.637  39.005   1.649
32270W        W98811  26.174   2.427   3.233
32271W        W98812  32.767   4.193  11.160
32272W        W98813  30.979   1.486  14.882
32273W        W98814   2.002   8.843  13.399
32274W        W98815  31.887  26.539  13.344
32275W        W98816   8.869  27.587   1.879
32276W        W98817   7.548  36.087   4.189
32277W        W98818   4.264   8.572  12.866
32278W        W98819  17.271  21.766   3.267
32279W        W98820  17.823  35.025   3.527
32280W        W98821   2.884  25.978  13.137
32281W        W98822  15.830  44.040   0.375
32282W        W98823   8.898   6.200   3.758
32283W        W98824  20.712  38.775   2.223
32284W        W98825  17.058   5.468   4.572
32285W        W98826   6.599   2.689  10.272
32286W        W98827  36.378  36.482   2.812
32287W        W98828   2.762  16.424   0.831
32288W        W98829   0.857  15.886   4.919
32289W        W98830  40.036  27.532   3.652
32290W        W98831   4.991   7.868   4.775
32291W        W98832  36.801  23.703   3.386
32292W        W98833  33.409  28.197   1.158
32293W        W98834  27.238  39.325   3.998
32294W        W98835  11.737  18.559  14.293
32295W        W98836  24.665  27.020  14.039
32296W        W98837  23.096   9.688   2.600
32297W        W98838  31.632  28.084   1.877
32298W        W98839   2.963  27.509  11.614
32299W        W98840  23.717   7.102  14.300
32300W        W98841  12.910   1.222   2.625
32301W        W98842  20.188   5.407   3.658
32302W        W98843   1.548  28.111   1.275
32303W        W98844  34.877  15.644   1.846
32304W        W98845   0.166   5.698  10.421
32305W        W98846   4.130   5.363   0.012
32306W        W98847  13.673  23.872   0.053
32307W        W98848  33.632  40.960  14.218
32308W        W98849  36.442   3.589  10.215
32309W        W98850  23.102  13.973   3.859
32310W        W98851  13.755  18.688   4.756
32311W        W98852   4.622  40.292   4.101
32312W        W98853   0.689   0.876   4.247
32313W        W98854   8.687  36.594   3.823
32314W        W98855  33.072  18.291  11.973
32315W        W98856  37.199   1.237   2.999
32316W        W98857  23.525  27.442   1.868
32317W        W98858  15.223  33.824   4.127
32318W        W98859  34.545  37.688   4.154
32319W        W98860   5.590   5.498  11.940
32320W        W98861   6.270  18.159   0.812
32321W        W98862   4.517  15.767   2.344
32322W        W98863  23.969  11.961  12.141
32323W        W98864  26.804   2.388   2.833
32324W        W98865   2.761  23.208  11.971
32325W        W98866  41.442  10.009  12.483
32326W        W98867  41.233  10.587  11.719
32327W        W98868  15.772  13.916   0.620
32328W        W98869  43.466  40.835   1.764
32329W        W98870  18.078  10.799  14.298
32330W        W98871  43.738  27.411  11.087
32331W        W98872  44.456  37.788  11.442
32332W        W98873  13.859  41.758   0.610
32333W        W98874   4.347  39.243  14.097
32334W        W98875  42.344  33.517  10.755
32335W        W98876  30.719  20.423  11.203
32336W        W98877  13.688  44.722   4.718
32337W        W98878   4.582   8.047  11.557
32338W        W98879  28.259  18.121  11.513
32339W        W98880   2.957   9.674   0.213
32340W        W98881  43.868  22.139   2.066
32341W        W98882  36.780   7.783  11.987
32342W        W98883  10.360  24.242  13.877
32343W        W98884  14.897   8.430   4.652
32344W        W98885  18.200  30.107  14.327
32345W        W98886  13.907  42.155  11.616
32346W        W98887  31.132  10.266   2.662
32347W        W98888  34.094  32.107   1.387
32348W        W98889  44.204   0.369   2.311
32349W        W98890  11.779   8.629   3.225
32350W        W98891  19.298  21.657   4.528
32351W        W98892  28.656  23.861  11.949
32352W        W98893  42.051   0.851  12.113
32353W        W98894   3.986  34.603  12.353
32354W        W98895   4.114  42.467  14.878
32355W        W98896   5.379  23.157  10.395
32356W        W98897  22.037  27.368   0.810
32357W        W98898  18.549  34.186  14.945
32358W        W98899   5.474  29.802   2.612
32359W        W98900  40.545  15.999   9.633
32360W        W98901   8.253  12.634   3.616
32361W        W98902  20.797   4.351   3.628
32362W        W98903  17.400  13.803   3.097
32363W        W98904  12.791   3.885  10.729
32364W        W98905  14.948  11.934   1.422
32365W        W98906  31.587  37.529   4.437
32366W        W98907  36.357  32.158   1.763
32367W        W98908  20.360  34.699  13.876
32368W        W98909  28.601   7.815   3.707
32369W        W98910  23.481  44.879  10.711
32370W        W98911  41.883  18.661   1.324
32371W        W98912   6.197   8.764   0.396
32372W        W98913  38.809   6.736   1.152
32373W        W98914  38.031  32.549   3.823
32374W        W98915   9.333  30.359   2.093
32375W        W98916  14.220  22.655   3.147
32376W        W98917   7.652  43.923   0.837
32377W        W98918   5.616  38.532  12.916
32378W        W98919   5.214  31.472  12.676
32379W        W98920  35.930  19.255   1.211
32380W        W98921  27.062   4.295   2.314
32381W        W98922  13.401  23.528  12.100
32382W        W98923  36.619  20.709   0.671
32383W        W98924  32.534   2.703  12.489
32384W        W98925  19.547  24.420   1.776
32385W        W98926  17.061  15.717   4.392
32386W        W98927   7.622   1.630   1.974
32387W        W98928   8.143   1.815  11.666
32388W        W98929  28.311   4.952  13.759
32389W        W98930   5.387  13.295  14.661
32390W        W98931  22.175   3.156   1.693
32391W        W98932  14.325  38.804   2.086
32392W        W98933  41.545  13.908   2.690
32393W        W98934  15.864  38.436   2.365
32394W        W98935  36.480  44.409  10.763
32395W        W98936  31.443  25.663   3.686
32396W        W98937  22.146  23.634  11.911
32397W        W98938  34.337   0.624  10.144
32398W        W98939   8.106   2.381  13.070
32399W        W98940   7.443  17.151   0.534
32400W        W98941  32.879  43.191  10.887
32401W        W98942  21.584   8.915  11.987
32402W        W98943  29.854  38.876   2.363
32403W        W98944  42.604   9.156  14.886
32404W        W98945  41.554  43.903  13.106
32405W        W98946  12.156  34.717   4.500
32406W        W98947  16.676   2.782  13.859
32407W        W98948  43.413  31.984   3.521
32408W        W98949  12.178  21.604   3.133
32409W        W98950  34.448   6.309  11.530
32410W        W98951  33.201  11.631  12.653
32411W        W98952  29.732  44.415  11.547
32412W        W98953  21.601  37.691  10.375
32413W        W98954  36.485   9.765  12.926
32414W        W98955  40.892  27.108   2.698
32415W        W98956  26.401  14.818   3.273
32416W        W98957  38.467  28.469  14.914
32417W        W98958  31.893  15.272  10.694
32418W        W98959  11.642  42.819  10.675
32419W        W98960  39.555  44.816   1.607
32420W        W98961  41.606  15.837  14.896
32421W        W98962  40.064  17.429   4.482
32422W        W98963  11.613  26.375   3.850
32423W        W98964  14.423  26.226   3.330
32424W        W98965  19.530  38.707   1.340
32425W        W98966   5.794   7.250  12.586
32426W        W98967   7.669  11.299  12.458
32427W        W98968  14.819  11.285   0.844
32428W        W98969  32.870   5.397   3.515
32429W        W98970   6.545  12.279   2.147
32430W        W98971  38.692  11.854   2.885
32431W        W98972  29.054  36.967  11.488
32432W        W98973  42.325  38.409   1.120
32433W        W98974   5.795  12.392   0.354
32434W        W98975  26.112  17.054  12.503
32435W        W98976  39.775  22.979  13.803
32436W        W98977  28.567  24.049  14.591
32437W        W98978  12.531  31.957  12.568
32438W        W98979  12.978  42.087   0.841
32439W        W98980  35.482  22.545   4.432
32440W        W98981   9.314  10.875  13.853
32441W        W98982  33.109  29.936   4.412
32442W        W98983  31.594  22.629  14.859
32443W        W98984  17.865  10.599   0.246
32444W        W98985  39.480  16.846  14.731
32445W        W98986  15.954  17.615  11.380
32446W        W98987  17.319  18.072   2.635
32447W        W98988  20.955  35.559  12.305
32448W        W98989  39.410   6.794   4.786
32449W        W98990  41.040  39.868   1.454
32450W        W98991  28.431  33.838  13.186
32451W        W98992  28.437  16.560   0.407
32452W        W98993  11.244   6.661   1.981
32453W        W98994  34.943  40.880  14.973
32454W        W98995  32.318   1.842  10.291
32455W        W98996   4.436  17.269  12.473
32456W        W98997   9.409  32.907   0.406
32457W        W98998  18.771  25.564  10.599
32458W        W98999  12.043  32.031  10.226
32459W        W99000  26.329  14.699   4.438
32460W        W99001  30.534  37.867  13.922
32461W        W99002   7.058  33.502   1.120
32462W        W99003  26.910  30.593   4.477
32463W        W99004  28.945  16.097   2.948
32464W        W99005  23.626  41.753  13.031
32465W        W99006  25.778  12.322  13.067
32466W        W99007  44.900  43.707   4.542
32467W        W99008   4.001  10.650  13.305
32468W        W99009  14.326   3.320  13.066
32469W        W99010  30.913  44.790  12.491
32470W        W99011  26.707  44.958  13.413
32471W        W99012  20.086  10.082   4.576
32472W        W99013   7.990  33.529  11.463
32473W        W99014  10.264  10.103   3.345
32474W        W99015   3.959  36.430  10.753
32475W        W99016  40.141  11.659   4.510
32476W        W99017   1.915   4.915   3.301
32477W        W99018  34.934  32.427   3.719
32478W        W99019   0.404   2.017  14.666
32479W        W99020  41.409  23.112   3.531
32480W        W99021  40.454   3.699  12.591
32481W        W99022  22.125  44.037   3.285
32482W        W99023  23.545  25.729   0.884
32483W        W99024  25.980  24.215  11.554
32484W        W99025  24.832  15.282   4.456
32485W        W99026  17.113  16.972  12.625
32486W        W99027  11.895   3.517   1.651
32487W        W99028  38.624  43.026  11.678
32488W        W99029   8.686   6.634  14.830
32489W        W99030   0.330  29.442   2.340
32490W        W99031  26.141  35.626   0.295
32491W        W99032  35.096  40.242  11.628
32492W        W99033  18.025  33.232   3.909
32493W        W99034  40.071  34.103  12.940
32494W        W99035  10.197   4.316  12.476
32495W        W99036  24.163  23.719   2.200
32496W        W99037  10.681  25.038   1.650
32497W        W99038  36.065  31.131   4.601
32498W        W99039  16.821  22.969  13.001
32499W        W99040  24.989   7.878   1.240
32500W        W99041  23.274   9.066  12.080
32501W        W99042  26.794  21.476  14.839
32502W        W99043  34.344  19.540   0.488
32503W        W99044  34.624  11.346  12.325
32504W        W99045  26.948  26.673   4.313
32505W        W99046   9.177   4.742   3.427
32506W        W99047  33.054   1.317  10.265
32507W        W99048  41.886  42.310  14.739
32508W        W99049  18.886  11.692   5.059
32509W        W99050  32.646   4.457  12.855
32510W        W99051  43.904  31.507   3.882
32511W        W99052  21.217  34.380   1.351
32512W        W99053   6.976  43.887  13.431
32513W        W99054  27.678  10.902   1.983
32514W        W99055  43.366  30.195  12.021
32515W        W99056   3.905  10.198   2.104
32516W        W99057  36.631   9.809   2.469
32517W        W99058  34.429  25.150   2.642
32518W        W99059  41.129  19.490  12.542
32519W        W99060  43.942  21.727  14.280
32520W        W99061  12.606  42.345  12.077
32521W        W99062  13.681   0.167   0.853
32522W        W99063   9.703  21.130  12.344
32523W        W99064  25.765  31.952   0.072
32524W        W99065  27.661  38.918  14.375
32525W        W99066  13.699  26.541   3.276
32526W        W99067  24.031  12.668   2.185
32527W        W99068  30.440  35.572  14.743
32528W        W99069  39.089   8.935   5.025
32529W        W99070  29.636   7.147   1.773
32530W        W99071  19.523  11.153  12.841
32531W        W99072  19.600  40.561  13.027
32532W        W99073  27.169   0.295   1.433
32533W        W99074  38.319   8.822  11.223
32534W        W99075  34.694   4.244   2.541
32535W        W99076  37.767  39.759  14.805
32536W        W99077  11.655  24.630  11.813
32537W        W99078  25.432  33.510  12.413
32538W        W99079  30.451   5.674   2.311
32539W        W99080  17.078  41.910   0.334
32540W        W99081  15.656  15.709   3.836
32541W        W99082  37.117  17.901   2.670
32542W        W99083   6.940  38.805   1.901
32543W        W99084   2.948  13.166  13.450
32544W        W99085   8.888  43.307   3.059
32545W        W99086  12.268  31.863  13.484
32546W        W99087  21.856  25.351  10.798
32547W        W99088  34.537   9.519  12.658
32548W        W99089   8.227  38.609  14.856
32549W        W99090  23.710  25.937   4.540
32550W        W99091  29.759  22.572  12.425
32551W        W99092   3.192  15.740   3.757
32552W        W99093  43.529   9.265  10.466
32553W        W99094  33.609  24.976  13.369
32554W        W99095  17.669  23.120   3.292
32555W        W99096  19.447  43.078   4.266
32556W        W99097   9.966  41.958  13.279
32557W        W99098  14.347  32.760  14.427
32558W        W99099  34.620   3.847   0.818
32559W        W99100  36.189  34.553  14.392
32560W        W99101   6.548  11.648   0.287
32561W        W99102  16.593  21.729  11.613
32562W        W99103   6.358   8.811  13.919
32563W        W99104   6.596  17.688  13.778
32564W        W99105  34.543  39.337  13.872
32565W        W99106  28.337  31.072   2.813
32566W        W99107  30.116  38.836   1.052
32567W        W99108  24.419  42.485   0.746
32568W        W99109  24.159  38.096  13.105
32569W        W99110   4.871   5.816   4.539
32570W        W99111  26.526  42.009   3.623
32571W        W99112  11.245  34.190  14.448
32572W        W99113  25.136  28.216  12.472
32573W        W99114  43.278  24.365   0.293
32574W        W99115  39.622  29.986  12.558
32575W        W99116  23.642  11.217   0.620
32576W        W99117  10.692  18.132   1.968
32577W        W99118   7.696  29.420   4.186
32578W        W99119   1.432   4.798   4.559
32579W        W99120  31.422  19.270   4.688
32580W        W99121  27.420  34.480  14.662
32581W        W99122   4.982  40.439   2.629
32582W        W99123   4.937  30.322   5.048
32583W        W99124   2.957  30.331   4.134
32584W        W99125   9.516  40.584   4.363
32585W        W99126   5.405  36.617   0.751
32586W        W99127  33.350  13.750   4.503
32587W        W99128   4.369  41.925   2.430
32588W        W99129  33.462  24.168  13.894
32589W        W99130   1.038  43.850   3.787
32590W        W99131  30.206  11.204  10.697
32591W        W99132  27.283  23.067   2.677
32592W        W99133  41.645   7.947   1.950
32593W        W99134   9.363  17.113  11.099
32594W        W99135  35.469  22.751   1.590
32595W        W99136  27.149   4.314  14.191
32596W        W99137  44.660  11.395  13.929
32597W        W99138  36.953  15.864   1.248
32598W        W99139   0.631   5.315   4.616
32599W        W99140   4.448  35.559  10.774
32600W        W99141  33.769   2.754   3.955
32601W        W99142   1.529  23.927  14.845
32602W        W99143  13.745  21.683  13.310
32603W        W99144  40.854   3.499   5.090
32604W        W99145  27.692  40.905  10.657
32605W        W99146   7.734  30.821  14.805
32606W        W99147  31.879   2.109  12.617
32607W        W99148  11.973  34.997  14.484
32608W        W99149  32.309   9.480  12.783
32609W        W99150  23.047  13.616  12.898
32610W        W99151   0.906  24.527  10.470
32611W        W99152   5.800  26.203  14.071
32612W        W99153  37.525  16.129  12.576
32613W        W99154   8.187  40.257   1.374
32614W        W99155  14.515  32.136  13.506
32615W        W99156  43.857   9.863   1.861
32616W        W99157  23.613  20.711   3.099
32617W        W99158  33.099  38.848   4.403
32618W        W99159  16.083  36.875  14.712
32619W        W99160  20.045  41.987   4.374
32620W        W99161  42.547   1.346  14.709
32621W        W99162   5.257  37.488   3.610
32622W        W99163  16.216  23.771   2.663
32623W        W99164  19.946   6.940   0.763
32624W        W99165  25.760  36.233  14.361
32625W        W99166  33.970  22.968  12.230
32626W        W99167  39.254   4.825   0.801
32627W        W99168   4.387  10.722  10.702
32628W        W99169   0.565  34.090  13.946
32629W        W99170  10.667  36.165   0.978
32630W        W99171   1.431  35.751   0.936
32631W        W99172   9.224  19.168  13.034
32632W        W99173   8.419  34.471   1.368
32633W        W99174  31.596  40.491  12.052
32634W        W99175  19.534   9.603   1.725
32635W        W99176  26.096  25.623   3.925
32636W        W99177  12.122  39.495   4.664
32637W        W99178  23.107  35.972  13.544
32638W        W99179   3.882  23.138  11.414
32639W        W99180  22.024  19.072  12.486
32640W        W99181  14.563  20.883  13.385
32641W        W99182   3.660  18.804   2.757
32642W        W99183   4.947  32.126   5.196
32643W        W99184  25.425   0.749   0.820
32644W        W99185   2.267  40.546  13.947
32645W        W99186  33.279   4.695  12.010
32646W        W99187   6.437  20.754   2.216
32647W        W99188   5.148  23.655  12.903
32648W        W99189   6.186  19.730  13.289
32649W        W99190  35.969  35.503   2.942
32650W        W99191  20.481  14.375  12.122
32651W        W99192   6.757  43.163   2.204
32652W        W99193  38.840   4.458   2.283
32653W        W99194   9.707  22.915  12.018
32654W        W99195  32.345  26.162  13.417
32655W        W99196  28.512  19.073  12.580
32656W        W99197  17.690  29.273  11.041
32657W        W99198  15.015  21.969   4.880
32658W        W99199  29.463  10.844   4.588
32659W        W99200   4.775  18.270   1.335
32660W        W99201  28.877  34.914  11.610
32661W        W99202  18.634  40.390   4.142
32662W        W99203  43.398  44.724   2.877
32663W        W99204  24.581  40.600   1.673
32664W        W99205   5.074  26.460   3.999
32665W        W99206   9.541  30.375  13.468
32666W        W99207  39.952  35.649   4.427
32667W        W99208  22.706  12.673   3.696
32668W        W99209  41.513  33.615   2.386
32669W        W99210  43.870  29.985  10.556
32670W        W99211  35.004  28.552   0.119
32671W        W99212   9.006  42.292   5.446
32672W        W99213  26.065   0.882  10.891
32673W        W99214   6.682  36.131  11.491
32674W        W99215  33.973  24.345  12.614
32675W        W99216  35.587  13.881   4.161
32676W        W99217  39.447  18.225   4.702
32677W        W99218   3.047  21.343  12.000
32678W        W99219   0.924  13.194  11.073
32679W        W99220  32.877  31.997  12.824
32680W        W99221  41.982  15.730  13.225
32681W        W99222  14.247  21.791  11.597
32682W        W99223  15.299  16.506  11.500
32683W        W99224  43.893  24.746   3.353
32684W        W99225   1.693  16.116   4.082
32685W        W99226  17.047   4.304   2.265
32686W        W99227  41.712  32.522  11.618
32687W        W99228  34.196  36.740  14.334
32688W        W99229  44.469  13.309  11.574
32689W        W99230  41.793  23.041   4.726
32690W        W99231  40.578  11.362  12.083
32691W        W99232  40.280  23.214  11.521
32692W        W99233   2.555   7.098   2.580
32693W        W99234   7.022   8.814   0.891
32694W        W99235  19.741  16.269  11.714
32695W        W99236   1.327  21.372  13.836
32696W        W99237  24.205  44.464   3.794
32697W        W99238  31.275   6.803   2.670
32698W        W99239  30.549  29.135   4.563
32699W        W99240  35.024  36.996   1.099
32700W        W99241  26.704  15.036   4.570
32701W        W99242   5.036  39.812  13.557
32702W        W99243   3.464  21.649  14.919
32703W        W99244  15.132  18.801  12.830
32704W        W99245  26.016  21.380   4.792
32705W        W99246  42.442  28.047  14.513
32706W        W99247  19.343  37.514   1.258
32707W        W99248  29.989  26.559   3.327
32708W        W99249  22.784  32.841  11.022
32709W        W99250  39.463  26.624   3.073
32710W        W99251  22.055  37.120  13.082
32711W        W99252   4.428  13.832  12.929
32712W        W99253  41.188  44.852   3.235
32713W        W99254  22.624  30.602  12.079
32714W        W99255  19.238  13.869   4.633
32715W        W99256  37.884  41.379  12.943
32716W        W99257  40.648   0.991   2.579
32717W        W99258  26.570   8.950   4.089
32718W        W99259  28.170  29.456   1.250
32719W        W99260   1.810  33.907  12.072
32720W        W99261  31.835  34.026  11.941
32721W        W99262   3.168  27.494   0.680
32722W        W99263  14.724   7.587  14.939
32723W        W99264   3.039  42.268   2.006
32724W        W99265  24.008   0.958   4.264
32725W        W99266   7.711  24.755   3.105
32726W        W99267  19.570  20.519  14.927
32727W        W99268  28.938  33.393   2.290
32728W        W99269  20.235  17.437  12.929
32729W        W99270   6.454  17.712  14.278
32730W        W99271  24.140  29.651   4.532
32731W        W99272  27.092  35.313   3.170
32732W        W99273   3.046  13.826   2.709
32733W        W99274  15.786   5.244   3.658
32734W        W99275  12.333  20.186   0.777
32735W        W99276  12.841  19.282   2.831
32736W        W99277  42.574  21.292   0.010
32737W        W99278  30.071  30.095   3.309
32738W        W99279   2.513   9.400   0.242
32739W        W99280   3.328   6.113   0.394
32740W        W99281  43.781  33.355  14.792
32741W        W99282  28.522  41.013   3.570
32742W        W99283   6.178  15.329  10.700
32743W        W99284  12.679  13.524  10.713
32744W        W99285   6.847  32.157   1.325
32745W        W99286  39.020  15.786  11.245
32746W        W99287  29.304  16.923   3.392
32747W        W99288  10.481   8.934  13.008
32748W        W99289   8.734  44.734  12.622
32749W        W99290  34.581  41.048  10.989
32750W        W99291  26.974  36.570  12.129
32751W        W99292  16.599  21.640  13.778
32752W        W99293  20.305   4.917   5.031
32753W        W99294  31.288  36.604   0.913
32754W        W99295  12.271  34.194   0.165
32755W        W99296   0.938   0.512   5.015
32756W        W99297  35.445  44.372   2.682
32757W        W99298  23.089  37.383  10.622
32758W        W99299  35.680  41.001   0.110
32759W        W99300  13.584   4.185  10.926
32760W        W99301  29.039  35.905  12.209
32761W        W99302  25.740  42.237   1.385
32762W        W99303  16.999  25.734   1.348
32763W        W99304   4.403  19.745  11.151
32764W        W99305  28.695  23.777   3.295
32765W        W99306  16.362   3.747   4.232
32766W        W99307  22.632  38.463   3.329
32767W        W99308  24.586  24.567  12.329
32768W        W99309  29.377  14.277   3.629
32769W        W99310  12.772  15.296   2.863
32770W        W99311   1.928  31.089   3.993
32771W        W99312  22.171   8.953  13.161
32772W        W99313  38.328  30.391  12.419
32773W        W99314  21.769   0.175   2.701
32774W        W99315  38.845  20.906  10.355
32775W        W99316  30.784  34.420  11.725
32776W        W99317  39.326  35.997  14.987
32777W        W99318  21.838   7.134  11.591
32778W        W99319  26.757  11.583  10.119
32779W        W99320  20.449  28.118   1.391
32780W        W99321  18.614  18.760  10.899
32781W        W99322   2.400  12.494   2.386
32782W        W99323   9.396  15.162   4.703
32783W        W99324  22.124  35.677   0.432
32784W        W99325  41.498  27.711   4.195
32785W        W99326  17.665  11.189   3.723
32786W        W99327  40.619  40.226  13.026
32787W        W99328  41.613   2.735   1.760
32788W        W99329   2.805  19.627   2.264
32789W        W99330  25.659  29.051   3.382
32790W        W99331  14.879  25.619  11.134
32791W        W99332  33.554  13.924   3.199
32792W        W99333   2.855  40.509  14.469
32793W        W99334  15.081  12.405   2.313
32794W        W99335  11.088   3.296  10.538
32795W        W99336  38.269  42.967  14.924
32796W        W99337   2.620  16.224   4.190
32797W        W99338   6.103  22.011   0.349
32798W        W99339  21.351   3.823  13.393
32799W        W99340  13.238   9.480  13.339
32800W        W99341  16.565   4.355  12.299
32801W        W99342  22.927   8.786  14.957
32802W        W99343   4.855   2.655  11.126
32803W        W99344  23.603  16.078  12.030
32804W        W99345  10.644  41.992   9.570
32805W        W99346   2.946  39.694   4.902
32806W        W99347  18.758  33.602   4.998
32807W        W99348  24.029   8.138  11.368
32808W        W99349  12.907  15.397   1.491
32809W        W99350   6.789  25.611   3.763
32810W        W99351  24.067  39.189  12.041
32811W        W99352  26.871  23.616   1.450
32812W        W99353  27.419   9.229   4.731
32813W        W99354  31.795  24.299   3.358
32814W        W99355   0.209   2.739  14.455
32815W        W99356  37.594  35.382  13.840
32816W        W99357  43.966  38.592   2.371
32817W        W99358  41.639  14.298  12.592
32818W        W99359  34.943  22.963   0.319
32819W        W99360  44.424  20.015   0.272
32820W        W99361  32.911  32.397  12.313
32821W        W99362  17.587  10.822   3.170
32822W        W99363  28.331  13.278   5.319
32823W        W99364  36.991   2.363   1.812
32824W        W99365  15.017   9.288   1.803
32825W        W99366  38.137  27.990   1.796
32826W        W99367  27.402  27.533  13.351
32827W        W99368  39.361  36.200  11.729
32828W        W99369  18.236  39.504  13.403
32829W        W99370   9.656  25.486   4.648
32830W        W99371  16.590  10.171  14.487
32831W        W99372   6.485  10.226   2.274
32832W        W99373  40.854  36.423  11.631
32833W        W99374  40.920  12.666   4.902
32834W        W99375  17.899  21.255  11.472
32835W        W99376  16.680  14.191   9.656
32836W        W99377  41.085  17.029   1.202
32837W        W99378   1.900   3.697   1.070
32838W        W99379  29.440  30.241  12.449
32839W        W99380  12.119   4.373   1.239
32840W        W99381  19.854  19.235  13.013
32841W        W99382  12.254  17.275  11.161
32842W        W99383   1.833  11.441   1.798
32843W        W99384  30.534   7.916   2.445
32844W        W99385  33.420   3.077   2.739
32845W        W99386   5.218  30.906  14.924
32846W        W99387  38.012   2.399   0.440
32847W        W99388   9.436  10.479  11.440
32848W        W99389  34.865  44.364  11.681
32849W        W99390  30.598   0.457  10.523
32850W        W99391  22.340  40.027  11.157
32851W        W99392  39.910  27.597  12.480
32852W        W99393  19.823  12.642   1.693
32853W        W99394  44.537   6.818   0.191
32854W        W99395   6.782   8.521  13.955
32855W        W99396  44.008   5.275   4.080
32856W        W99397  25.889  34.451   4.631
32857W        W99398  35.560   8.664   3.728
32858W        W99399  39.031  35.461   2.286
32859W        W99400   8.714   5.949  11.156
32860W        W99401  28.012  25.398   4.386
32861W        W99402  20.629  18.080  11.580
32862W        W99403  44.968   7.877  13.903
32863W        W99404   0.786  26.051   0.774
32864W        W99405  10.833  19.417   4.918
32865W        W99406  22.537  32.112  12.956
32866W        W99407  42.497  11.717   2.425
32867W        W99408   4.872  36.881  14.280
32868W        W99409   8.902   1.427  14.099
32869W        W99410  43.722  36.699   1.828
32870W        W99411   6.792  32.722   2.030
32871W        W99412  12.097  37.029  10.811
32872W        W99413   0.367  21.596  14.510
32873W        W99414  31.995  10.444   3.481
32874W        W99415   6.426  27.116   4.171
32875W        W99416  35.421  35.362  12.350
32876W        W99417  16.143  12.153  13.500
32877W        W99418  20.038  42.211   1.252
32878W        W99419  43.420  43.765  10.964
32879W        W99420   9.853  36.959   4.634
32880W        W99421  17.010  24.096  13.752
32881W        W99422  20.664  43.932   1.870
32882W        W99423  32.982  41.758  14.409
32883W        W99424   3.939   8.840   5.163
32884W        W99425  36.818   0.414   0.886
32885W        W99426  36.961   1.851   2.800
32886W        W99427   8.731  35.437   4.629
32887W        W99428   9.955  41.289  11.998
32888W        W99429  33.513  17.440  13.386
32889W        W99430  39.829  26.745  13.054
32890W        W99431  27.909   3.772   0.898
32891W        W99432   5.923   6.663  13.407
32892W        W99433   5.759  19.904   1.375
32893W        W99434   9.233  18.015   2.697
32894W        W99435  27.080   4.483   3.653
32895W        W99436   6.953   2.315   2.607
32896W        W99437  11.376  30.163   4.732
32897W        W99438  26.571  43.266   0.466
32898W        W99439  25.940  24.544  13.962
32899W        W99440  25.568  14.392  13.551
32900W        W99441  38.980   5.403   4.537
32901W        W99442   3.840   5.003  10.142
32902W        W99443  16.269  39.195   3.174
32903W        W99444  15.756  35.984  11.566
32904W        W99445  12.005  26.135  13.437
32905W        W99446  15.378  31.865   0.966
32906W        W99447  34.870  28.148   2.777
32907W        W99448  29.064   2.112  14.476
32908W        W99449  15.138  43.686   3.311
32909W        W99450  17.522  23.560   0.267
32910W        W99451  37.962  10.638   1.936
32911W        W99452  20.780  13.253   1.778
32912W        W99453   4.483   6.332  13.376
32913W        W99454   8.766  35.570  10.816
32914W        W99455  19.619  42.362  10.661
32915W        W99456  25.387  35.574  11.875
32916W        W99457  35.844  36.404   2.870
32917W        W99458   7.324  33.904  14.876
32918W        W99459  33.661  36.905   0.750
32919W        W99460  43.719  22.129   4.144
32920W        W99461  32.821  42.370  11.629
32921W        W99462   4.010  31.346  11.679
32922W        W99463   2.818  21.645  12.510
32923W        W99464  12.670   8.250  13.440
32924W        W99465  21.480  11.599  12.472
32925W        W99466  43.330   0.513   2.415
32926W        W99467  43.804  30.818  12.398
32927W        W99468  33.726  34.159   4.172
32928W        W99469   9.906  10.190  10.497
32929W        W99470  43.590   3.287   4.488
32930W        W99471  26.697  21.435  10.751
32931W        W99472  25.598   1.938  12.024
32932W        W99473  24.967   1.712   4.775
32933W        W99474  41.472   5.832  12.909
32934W        W99475  21.098   7.653   1.795
32935W        W99476  42.802  34.341   3.979
32936W        W99477   4.155  23.509  12.936
32937W        W99478  27.682  42.888  14.000
32938W        W99479  43.560  10.624  12.443
32939W        W99480  15.333   9.409   1.211
32940W        W99481  23.781   8.872  10.349
32941W        W99482  17.224  19.778   4.110
32942W        W99483  39.273  42.818  13.055
32943W        W99484  34.071   1.033  12.997
32944W        W99485  32.927  33.696  10.550
32945W        W99486   7.432  32.347   3.794
32946W        W99487  18.759  28.042   0.733
32947W        W99488  13.740  16.931  14.788
32948W        W99489  26.490   6.803  11.555
32949W        W99490  13.332  30.431  13.930
32950W        W99491  25.841  23.760   0.497
32951W        W99492  24.998  41.529   3.707
32952W        W99493   6.868   5.877   3.264
32953W        W99494  24.779  12.164   1.347
32954W        W99495  36.996   0.373  12.120
32955W        W99496  18.663  44.283  13.589
32956W        W99497   7.250  16.358   3.636
32957W        W99498  25.956  33.259   3.891
32958W        W99499  42.517  22.170   0.849
32959W        W99500   5.791  19.732  13.679
32960W        W99501  34.006  29.496  12.021
32961W        W99502  42.008  41.900   0.463
32962W        W99503   0.005  21.054   4.151
32963W        W99504  44.339  27.952  11.483
32964W        W99505  17.608   6.897   2.190
32965W        W99506  13.290   9.190  12.903
32966W        W99507  11.025  35.591   3.212
32967W        W99508  33.122  32.623  11.875
32968W        W99509  30.514  39.333   4.348
32969W        W99510  28.587   4.783   3.039
32970W        W99511  32.192  21.259  14.720
32971W        W99512  37.009   6.669   3.650
32972W        W99513   3.267  21.166  14.825
32973W        W99514  37.490   0.394   4.919
32974W        W99515  17.381  20.203  13.827
32975W        W99516  32.633   3.231   1.369
32976W        W99517  38.131  18.177   2.783
32977W        W99518   5.055  35.364  12.583
32978W        W99519  25.268  31.006  13.830
32979W        W99520   3.010   6.193  11.034
32980W        W99521   5.829  16.405  12.025
32981W        W99522  39.380  22.712   0.444
32982W        W99523   4.328  29.977  12.558
32983W        W99524  23.770  41.357  10.234
32984W        W99525  44.414  31.968  14.616
32985W        W99526   7.745  10.808  14.998
32986W        W99527  32.115  33.663   4.840
32987W        W99528   7.832  37.145  14.477
32988W        W99529  32.192  13.821  11.645
32989W        W99530  13.313  27.151   1.193
32990W        W99531  24.125  15.770   0.977
32991W        W99532  38.036  36.870  13.641
32992W        W99533  20.994  37.588   1.717
32993W        W99534   5.754  19.614   2.691
32994W        W99535  14.262  42.949  13.109
32995W        W99536  41.464  44.395   2.648
32996W        W99537  27.269   6.432  13.491
32997W        W99538   9.466  24.939  14.129
32998W        W99539  38.492   4.351   2.708
32999W        W99540  43.465  17.298   4.485
33000W        W99541   4.039  30.078   1.826
33001W        W99542  11.281   7.665  12.506
33002W        W99543  17.170  42.771   3.668
33003W        W99544  41.811  21.410   1.215
33004W        W99545  26.929  22.147  12.434
33005W        W99546  33.430   9.733  13.564
33006W        W99547   5.246  40.507  11.458
33007W        W99548   2.204   4.957  12.573
33008W        W99549  41.635   5.426   4.600
33009W        W99550  22.187  21.771   0.584
33010W        W99551   9.242  28.146  12.916
33011W        W99552  40.028  12.058   4.146
33012W        W99553  26.951  39.372  13.515
33013W        W99554   4.433  12.910  12.155
33014W        W99555  19.116   8.587  12.440
33015W        W99556  38.504  11.316  13.776
33016W        W99557  36.779  19.209  10.775
33017W        W99558  28.622   8.479   2.224
33018W        W99559   6.495  35.357   3.424
33019W        W99560  26.650  12.768  12.370
33020W        W99561  41.545  44.963   1.716
33021W        W99562  20.555   2.349   4.692
33022W        W99563   0.570  31.122   1.386
33023W        W99564  40.560  14.024   4.576
33024W        W99565  44.728  38.844   0.565
33025W        W99566  17.354  29.127  12.007
33026W        W99567  44.650  44.057  11.304
33027W        W99568   0.491  31.504  13.483
33028W        W99569  38.042  19.447   2.529
33029W        W99570   1.001  26.528   1.625
33030W        W99571  35.691  35.966   2.608
33031W        W99572   6.279   4.814   2.212
33032W        W99573  25.480  19.324   3.162
33033W        W99574  27.856  20.045  13.376
33034W        W99575  18.326  41.357   4.649
33035W        W99576  31.835  31.884   4.898
33036W        W99577  10.484  33.603   4.438
33037W        W99578  34.865  32.156   4.571
33038W        W99579   4.527  28.123   3.251
33039W        W99580   1.463  12.385   4.811
33040W        W99581   5.438  42.934  10.694
33041W        W99582  22.263  20.674   2.810
33042W        W99583   2.178  40.766   0.306
33043W        W99584  38.502  38.470  12.041
33044W        W99585  17.589   3.616   1.570
33045W        W99586   1.040  14.357  11.449
33046W        W99587  21.338   1.519   1.557
33047W        W99588  22.594   9.196  10.250
33048W        W99589  17.528   7.306   4.146
33049W        W99590  27.521  19.510  11.185
33050W        W99591  21.305   0.284   4.590
33051W        W99592   4.389  10.128   0.376
33052W        W99593  28.068  12.134   2.329
33053W        W99594  33.442  37.339   2.719
33054W        W99595  13.999   7.298   2.689
33055W        W99596   4.455   0.857   9.749
33056W        W99597  14.568  22.523   3.682
33057W        W99598  37.051  34.997  10.726
33058W        W99599  22.131  23.079  12.061
33059W        W99600  28.685  10.881   0.300
33060W        W99601  43.198  36.533   4.941
33061W        W99602   2.019   9.388  12.937
33062W        W99603   8.668  44.358   2.775
33063W        W99604   8.531  34.631   0.051
33064W        W99605   3.187  13.260  13.930
33065W        W99606  10.142  35.847  10.033
33066W        W99607  11.286  12.953   4.099
33067W        W99608   2.241  18.956  12.881
33068W        W99609   5.683  39.442  13.114
33069W        W99610   5.802   1.835   1.278
33070W        W99611  41.495  26.647   4.213
33071W        W99612  38.899   9.671  13.103
33072W        W99613  43.120  37.543  11.439
33073W        W99614  41.980   8.158   4.705
33074W        W99615  19.360  22.623   0.376
33075W        W99616  29.685  39.371  12.452
33076W        W99617  27.081  41.406  13.621
33077W        W99618  32.032  17.690   4.176
33078W        W99619  19.314  13.682  14.932
33079W        W99620   0.355  17.055  14.205
33080W        W99621   1.318  37.602  14.844
33081W        W99622  16.473  28.520  13.903
33082W        W99623   7.772  33.846  13.340
33083W        W99624  21.942  10.723   1.491
33084W        W99625  23.291  31.012   1.252
33085W        W99626  13.902  10.696  10.926
33086W        W99627   2.474   9.899  14.351
33087W        W99628  18.548   4.358   4.766
33088W        W99629  28.106  30.751   3.213
33089W        W99630  13.129   8.527  10.305
33090W        W99631  22.128  26.685   2.211
33091W        W99632  25.001  21.683   3.752
33092W        W99633  33.812  11.582  10.777
33093W        W99634   2.748  11.702   4.538
33094W        W99635   9.655  16.675   0.838
33095W        W99636   7.661  34.763  11.208
33096W        W99637  36.575  35.334  14.027
33097W        W99638   6.346  42.011   0.876
33098W        W99639  21.981  11.302   2.182
33099W        W99640  15.162  21.054  14.076
33100W        W99641  35.078  37.338  11.672
33101W        W99642  12.763  44.830   4.318
33102W        W99643  34.412  14.498   2.851
33103W        W99644  22.545  38.518  14.521
33104W        W99645  18.026  31.728  13.566
33105W        W99646  12.413  17.656   4.277
33106W        W99647   2.874   6.831   1.739
33107W        W99648   0.519  23.518   0.847
33108W        W99649  28.267  38.338   2.677
33109W        W99650   9.886  13.196   4.633
33110W        W99651  34.371   8.681  14.263
33111W        W99652  19.482  11.312  11.469
33112W        W99653   2.491  42.791   0.272
33113W        W99654  25.949   0.913  14.940
33114W        W99655  18.076  30.153  14.853
33115W        W99656   5.505   3.970   4.512
33116W        W99657  44.737  18.566  14.112
33117W        W99658   5.730  34.069   0.298
33118W        W99659   6.969   6.763   3.283
33119W        W99660  25.251  31.553  12.962
33120W        W99661  16.293  18.146   1.715
33121W        W99662  33.090   5.992  12.059
33122W        W99663  43.068  19.554   4.618
33123W        W99664  16.722   8.900   2.259
33124W        W99665   4.405  10.049  11.280
33125W        W99666   8.968  24.758  14.930
33126W        W99667  25.981  26.169   4.113
33127W        W99668  11.835  28.617  11.935
33128W        W99669  23.434  15.455  13.787
33129W        W99670  27.165   2.159  14.959
33130W        W99671  41.404  41.322   4.615
33131W        W99672  42.303   3.332  10.769
33132W        W99673  44.430  13.710  10.546
33133W        W99674  19.001  33.557   2.426
33134W        W99675  27.019  17.308  11.664
33135W        W99676  32.743  10.254   3.998
33136W        W99677  20.399  27.965  13.851
33137W        W99678   3.903  43.263  11.660
33138W        W99679  40.118  11.902  13.243
33139W        W99680  24.802   8.326  13.997
33140W        W99681   6.437   1.794  10.219
33141W        W99682  22.753  15.071  11.709
33142W        W99683  21.217  27.582   1.913
33143W        W99684   8.611  29.313   2.812
33144W        W99685   0.868  35.661   3.686
33145W        W99686  23.794   4.287  11.203
33146W        W99687  23.663  20.451   4.504
33147W        W99688  29.500  10.360   3.252
33148W        W99689  17.906  40.469  13.170
33149W        W99690  17.605  37.459   0.987
33150W        W99691  14.901  37.572   2.842
33151W        W99692  35.292  22.592  12.604
33152W        W99693   1.483  26.446  12.109
33153W        W99694  40.214   3.369  13.340
33154W        W99695   5.647  33.663   9.898
33155W        W99696  43.879  23.996   3.764
33156W        W99697   7.341  34.319  11.498
33157W        W99698  11.127  41.354   0.300
33158W        W99699  15.149  39.624  12.384
33159W        W99700  10.971  17.743  13.625
33160W        W99701  17.088  40.957  12.503
33161W        W99702  28.891  40.650  12.624
33162W        W99703  29.674  26.437   2.867
33163W        W99704  21.043  32.876  13.452
33164W        W99705   1.271  42.497   2.455
33165W        W99706  29.644   5.242   0.264
33166W        W99707   2.347   3.506  12.212
33167W        W99708  22.743   1.172  13.397
33168W        W99709  22.052  27.653  11.492
33169W        W99710  12.213   5.437  13.360
33170W        W99711   4.563  42.834   1.467
33171W        W99712  11.813  19.758   1.874
33172W        W99713  17.402   1.672   1.459
33173W        W99714   1.958  19.100   4.470
33174W        W99715  11.632   9.805  12.001
33175W        W99716   4.637   6.932   0.943
33176W        W99717  18.690  30.731  14.018
33177W        W99718  40.935   4.878  12.409
33178W        W99719  29.053  44.388  13.388
33179W        W99720  27.957  17.860  10.167
33180W        W99721  10.870  27.441  13.555
33181W        W99722  22.036  32.657  10.592
33182W        W99723   6.259  43.296  13.082
33183W        W99724   7.640  29.253  12.118
33184W        W99725  33.919  40.345   2.611
33185W        W99726  39.878  25.468   2.985
33186W        W99727  31.851  33.115  11.401
33187W        W99728  30.212  22.698  14.730
33188W        W99729  33.619  42.395   1.700
33189W        W99730   1.228  36.013   2.353
33190W        W99731  12.777   2.096  14.379
33191W        W99732   0.313  13.989   4.401
33192W        W99733  36.206  22.992   1.852
33193W        W99734  32.068   7.235   2.850
33194W        W99735  28.511  27.709   1.369
33195W        W99736   3.097   1.547  12.294
33196W        W99737  35.989  33.608   0.342
33197W        W99738  43.209  44.487  13.530
33198W        W99739   5.997   2.369   0.995
33199W        W99740   8.878   2.850   1.377
33200W        W99741  26.686  28.442   3.770
33201W        W99742   3.781  12.250   4.639
33202W        W99743   7.761  33.799   4.074
33203W        W99744  19.246  35.697  13.801
33204W        W99745  13.353  33.606  13.878
33205W        W99746  33.587  21.510   3.600
33206W        W99747  44.016  37.371  14.538
33207W        W99748   8.314  27.756   1.857
33208W        W99749  25.084   7.937   1.888
33209W        W99750  25.123   7.536  12.426
33210W        W99751   9.791  22.653  14.783
33211W        W99752  22.804  40.406  12.397
33212W        W99753  23.728  32.406  10.909
33213W        W99754  16.105  13.321  11.654
33214W        W99755   0.926  11.409   4.132
33215W        W99756  40.638  37.811  13.435
33216W        W99757  37.442  23.583  13.243
33217W        W99758  30.643  44.425   4.113
33218W        W99759  10.868   3.209   4.756
33219W        W99760  40.437  17.044  11.026
33220W        W99761   6.483  10.267   1.399
33221W        W99762  25.109   6.879  11.260
33222W        W99763  21.831  40.361  14.574
33223W        W99764  38.379  40.391   3.708
33224W        W99765  29.771  23.673  11.131
33225W        W99766   8.381  28.422   2.913
33226W        W99767  26.703  22.712   3.583
33227W        W99768  36.028   5.955   1.823
33228W        W99769  20.824   4.143  12.030
33229W        W99770  25.094  38.898   1.882
33230W        W99771  26.191   9.253   3.286
33231W        W99772  32.146  21.918   1.512
33232W        W99773  19.181  11.375  13.992
33233W        W99774   4.007  16.380  12.944
33234W        W99775  25.146  35.505  13.840
33235W        W99776   0.445  22.197   0.282
33236W        W99777   1.745  33.073  11.068
33237W        W99778  26.142   5.402   4.052
33238W        W99779  12.828  11.517  11.234
33239W        W99780  43.460  18.748  13.961
33240W        W99781   2.982  40.465  11.414
33241W        W99782  32.153  13.129  13.029
33242W        W99783  37.416  33.745   3.741
33243W        W99784  11.635  16.749   0.325
33244W        W99785  33.618   1.794   3.830
33245W        W99786  36.999  39.469  14.319
33246W        W99787  26.785  16.481  10.672
33247W        W99788  12.357  43.991   1.296
33248W        W99789   4.963  44.792  10.528
33249W        W99790   7.308  28.073   3.817
33250W        W99791   6.751  38.222  14.922
33251W        W99792  20.060  23.126  10.958
33252W        W99793   6.931  20.021   1.850
33253W        W99794   0.019  27.163  13.310
33254W        W99795  41.558   8.422  11.684
33255W        W99796  16.228  10.159   4.374
33256W        W99797  29.511  40.011  14.711
33257W        W99798  35.960  29.623  13.375
33258W        W99799  29.502   1.800   0.585
33259W        W99800  32.058   3.993   2.688
33260W        W99801  16.770  26.877  10.613
33261W        W99802   6.717   9.838  10.637
33262W        W99803  31.800  14.096   4.604
33263W        W99804  18.205   7.927  14.827
33264W        W99805   4.863  42.487  12.772
33265W        W99806  10.095  13.772  12.150
33266W        W99807   4.217  30.388   3.923
33267W        W99808  37.555  29.133   4.113
33268W        W99809   7.401  40.269  11.148
33269W        W99810  29.885  39.760   2.570
33270W        W99811  19.288  30.917   2.671
33271W        W99812  10.525  24.971   4.465
33272W        W99813   8.385  38.313  11.203
33273W        W99814   8.623  36.694   1.446
33274W        W99815  10.599  20.758   4.358
33275W        W99816  13.986   5.323  12.966
33276W        W99817  22.945  16.208  10.631
33277W        W99818  11.648  26.567   1.785
33278W        W99819  33.072  43.389   1.395
33279W        W99820   3.833  13.077   1.252
33280W        W99821  14.994  22.456   0.319
33281W        W99822  28.128  28.721   3.173
33282W        W99823   3.278  32.869   3.176
33283W        W99824   0.393   0.804   3.593
33284W        W99825  40.555  40.012   3.685
33285W        W99826  21.552  36.419  12.510
33286W        W99827  24.708  17.656  11.685
33287W        W99828  33.963  37.559   1.976
33288W        W99829  12.129  16.909  10.780
33289W        W99830  15.568  21.160   0.316
33290W        W99831  41.635  32.222  12.057
33291W        W99832  17.521  33.584  11.049
33292W        W99833  11.207   5.655   0.286
33293W        W99834  32.042   7.781   1.398
33294W        W99835  29.189  27.886   2.361
33295W        W99836   2.382  42.791   4.346
33296W        W99837  10.461  28.539   1.874
33297W        W99838  38.542  19.321   1.393
33298W        W99839  17.101   4.715   4.169
33299W        W99840  16.000   7.957   3.126
33300W        W99841  16.755  22.073   2.623
33301W        W99842  32.115   1.700  11.879
33302W        W99843  28.965   6.704   1.240
33303W        W99844  10.485  39.874  10.594
33304W        W99845  17.871  24.941   4.262
33305W        W99846  24.588  41.094   1.293
33306W        W99847   5.773  14.774  13.147
33307W        W99848   7.868  20.038  12.973
33308W        W99849   5.265  21.145  11.523
33309W        W99850  37.978  36.988  12.625
33310W        W99851   1.769  15.024  12.079
33311W        W99852  32.888  37.123   2.711
33312W        W99853  44.310  15.775   4.208
33313W        W99854   3.065   3.001   3.629
33314W        W99855   1.424  23.746  13.327
33315W        W99856  40.300   9.285  12.797
33316W        W99857  39.405  15.621  10.967
33317W        W99858  12.373  32.160  13.073
33318W        W99859  44.480   4.196   1.350
33319W        W99860   5.799  15.644  10.898
33320W        W99861  12.994  17.167   5.009
33321W        W99862  21.197  35.557   2.301
33322W        W99863  29.020  38.025  11.435
33323W        W99864  42.359   5.290  13.830
33324W        W99865  23.262  10.172   3.745
33325W        W99866  14.651  23.187  13.681
33326W        W99867  42.451   5.085  11.560
33327W        W99868  25.627   5.173  11.486
33328W        W99869   1.435   3.341  11.649
33329W        W99870  39.527  44.200   2.962
33330W        W99871  35.412  36.877  14.507
33331W        W99872   7.152  19.246  13.799
33332W        W99873   2.064  41.417   0.885
33333W        W99874  23.065  29.145   4.914
33334W        W99875   9.165  11.376   3.599
33335W        W99876  30.945   6.174  12.405
33336W        W99877  36.843   8.078   0.202
33337W        W99878   3.752   5.036  11.063
33338W        W99879  32.972   7.942   2.140
33339W        W99880  18.077  38.988   3.266
33340W        W99881  41.411  20.282   4.059
33341W        W99882  41.225   9.397   2.719
33342W        W99883  16.796   7.739   4.499
33343W        W99884  32.596  30.239   0.115
33344W        W99885  25.475   0.218  13.586
33345W        W99886  22.115  32.023   4.808
33346W        W99887  27.218  18.192  12.011
33347W        W99888  20.920  24.723   2.704
33348W        W99889   8.715  25.648   0.131
33349W        W99890  10.066  15.871   3.885
33350W        W99891  25.191  37.930  13.472
33351W        W99892  37.695  21.515   2.675
33352W        W99893  38.603  13.865  12.854
33353W        W99894  30.182  44.954   3.214
33354W        W99895  26.519  36.078   0.740
33355W        W99896   3.059  44.548   3.294
33356W        W99897   5.859  18.323  14.564
33357W        W99898  11.152   1.184  13.888
33358W        W99899  22.290   5.273   3.263
33359W        W99900  30.365  11.976  10.302
33360W        W99901   3.261  10.761   0.849
33361W        W99902  29.649   3.472   2.286
33362W        W99903  42.829   1.015  13.475
33363W        W99904  37.991  43.954   0.436
33364W        W99905  21.648  36.489   1.460
33365W        W99906  17.248  34.171  13.897
33366W        W99907  23.517  14.120   4.670
33367W        W99908  40.510  41.357   1.167
33368W        W99909  18.673  28.395   2.814
33369W        W99910  38.573  37.964   1.376
33370W        W99911  14.788  38.315  14.935
33371W        W99912  21.671  29.422  13.056
33372W        W99913  14.619  20.775   1.869
33373W        W99914  35.477  40.536   3.886
33374W        W99915  21.229  24.294  12.989
33375W        W99916   0.231  25.442  14.388
33376W        W99917  41.066  26.124  13.354
33377W        W99918  44.799   2.426   2.383
33378W        W99919  21.485   6.588  12.551
33379W        W99920   7.807  27.174   1.409
33380W        W99921   7.535  24.783  11.118
33381W        W99922  30.723  35.891   3.834
33382W        W99923  40.249  19.751   0.750
33383W        W99924   0.969  23.045  10.744
33384W        W99925  34.672  43.440  14.590
33385W        W99926  21.241  40.570   0.865
33386W        W99927   5.011  31.546  13.143
33387W        W99928  42.879  23.483  11.084
33388W        W99929  10.308  42.777  13.333
33389W        W99930  41.264  31.843  12.093
33390W        W99931  14.736  29.010   2.389
33391W        W99932  15.382   9.786   3.360
33392W        W99933   5.104  29.222  12.993
33393W        W99934  40.484  15.210   3.187
33394W        W99935  44.498   5.146   4.167
33395W        W99936  24.167  31.601  10.502
33396W        W99937  42.673  23.680  12.621
33397W        W99938  28.178   0.728   0.878
33398W        W99939  11.078  27.262  14.001
33399W        W99940  20.988  32.366   3.477
33400W        W99941  42.742  19.194   3.176
33401W        W99942  41.824  40.758   2.131
33402W        W99943   0.156  36.554   1.932
33403W        W99944  30.672  36.927   1.218
33404W        W99945   2.443  20.818   2.137
33405W        W99946  32.956  20.431   2.411
33406W        W99947  24.722  11.386  12.132
33407W        W99948  25.192  14.122  13.310
33408W        W99949  42.949   7.500   3.300
33409W        W99950  19.460  11.037   3.272
33410W        W99951  28.423   3.873   0.958
33411W        W99952  21.116   2.014   4.180
33412W        W99953  15.872  42.781   3.214
33413W        W99954  12.073  28.170  12.033
33414W        W99955  38.394  17.453  14.887
33415W        W99956  20.670  42.558   2.691
33416W        W99957  36.826  44.060  12.497
33417W        W99958  14.478  12.502   3.305
33418W        W99959  27.549  37.396  10.777
33419W        W99960  11.055  13.079  14.077
33420W        W99961   4.482  43.436  12.874
33421W        W99962  24.512   1.654  13.175
33422W        W99963  14.392  23.208  14.292
33423W        W99964  31.077  12.122  12.874
33424W        W99965  23.112  41.949   2.794
33425W        W99966  30.642  19.575   0.338
33426W        W99967   2.323  13.309   1.318
33427W        W99968  24.110  17.970   4.494
33428W        W99969  39.201   5.935  12.408
33429W        W99970   9.024  27.644  13.354
33430W        W99971   6.794   6.155   3.896
33431W        W99972  29.943  21.845   3.728
33432W        W99973  24.214  34.672   0.486
33433W        W99974   6.204  13.282   4.003
33434W        W99975  19.026  28.793  11.589
33435W        W99976   8.284  27.033   0.730
33436W        W99977  35.430  27.199  14.545
33437W        W99978  16.741  38.267   0.428
33438W        W99979  35.891  27.120  11.150
33439W        W99980  41.761  32.529  14.737
33440W        W99981  36.206  17.816   2.130
33441W        W99982   9.773   8.165  13.305
33442W        W99983  20.833  18.065  12.093
33443W        W99984   1.130  16.035  10.108
33444W        W99985  43.901   9.361   1.845
33445W        W99986  36.649  19.999  14.455
33446W        W99987   6.366  18.669   0.893
33447W        W99988  36.034  13.330  14.464
33448W        W99989   8.463   1.248  13.800
33449W        W99990  29.678  21.569   0.318
33450W        W99991  34.847   4.444   4.405
33451W        W99992  44.398   0.675   0.895
33452W        W99993   0.184   7.340   0.723
33453W        W99994  25.289  11.714   4.992
33454W        W99995   6.155  22.369  12.489
33455W        W99996  19.248   8.779   2.933
33456W        W99997  20.105  24.641   4.984
33457W        W99998  41.879   2.926  13.442
33458W        W99999  27.567   7.640   2.273
33459W        W    0   3.872  44.674  12.554
33460W        W    1  39.762  14.257  13.444
33461W        W    2  21.365  38.442  14.783
33462W        W    3   1.012  42.639   5.065
33463W        W    4  13.783  30.125  12.210
33464W        W    5  23.256  31.666  10.658
33465W        W    6   2.612  17.404   4.513
33466W        W    7   6.092  39.552   4.235
33467W        W    8  31.691   3.806  13.410
33468W        W    9  16.029  17.118  11.131
33469W        W   10  10.822  33.279   4.206
33470W        W   11  22.270  14.552   0.634
33471W        W   12  16.714  28.531  11.202
33472W        W   13  24.673  18.935  13.790
33473W        W   14   3.092  36.303  11.216
33474W        W   15  25.524  26.007  11.569
33475W        W   16   9.860  10.168   2.725
33476W        W   17  14.451  15.293  14.796
33477W        W   18  10.362   0.772   4.126
33478W        W   19  10.936  27.490  14.423
33479W        W   20  42.828  40.366  13.626
33480W        W   21   0.342  15.068  13.140
33481W        W   22  27.322  39.487   2.472
33482W        W   23   5.507   9.875  11.870
33483W        W   24  15.709  22.232   1.705
33484W        W   25  31.938  40.616   1.956
33485W        W   26   7.433  35.567   3.636
33486W        W   27   9.451  24.589  12.438
33487W        W   28  26.987  42.755   0.867
33488W        W   29   6.388  13.367   5.415
33489W        W   30  43.896   5.622   3.663
33490W        W   31  17.359   6.631  10.434
33491W        W   32  15.747   3.203   5.306
33492W        W   33  43.753  43.697   2.373
33493W        W   34  39.203  37.830   5.042
33494W        W   35  33.773   9.204   0.800
33495W        W   36  21.698   3.767  12.107
33496W        W   37  30.571  44.257  12.162
33497W        W   38  15.248  30.479  11.071
33498W        W   39  23.559  14.266  12.573
33499W        W   40   7.704  18.056  10.302
33500W        W   41  20.713   1.706   3.957
33501W        W   42  16.483  33.622   1.959
33502W        W   43  33.595  19.578   1.696
33503W        W   44  36.272  42.220  14.261
33504W        W   45  44.874  22.000  14.769
33505W        W   46   5.728  16.389   4.586
33506W        W   47  35.482  24.029   4.307
33507W        W   48  33.460  17.103  14.731
33508W        W   49  28.684  13.383  14.402
33509W        W   50  22.120  12.957   2.307
33510W        W   51   4.625   7.597   1.523
33511W        W   52  12.805  24.027  12.445
33512W        W   53  24.159  14.063   0.411
33513W        W   54  18.137   5.639   2.647
33514W        W   55  11.596  18.317  10.671
33515W        W   56  13.426  34.751   4.006
33516W        W   57  23.326   2.915  10.934
33517W        W   58  15.975   6.291  13.784
33518W        W   59  16.060  31.678   0.899
33519W        W   60  15.358  38.644  11.493
33520W        W   61   2.301  34.495   5.256
33521W        W   62  11.128   4.916   4.223
33522W        W   63  30.441  16.674  13.629
33523W        W   64   0.537  22.258  11.510
33524W        W   65   9.906  36.083  13.398
33525W        W   66  25.217  24.966   3.758
33526W        W   67   1.320   9.767  10.731
33527W        W   68  18.790   1.207  13.422
33528W        W   69  30.693  42.897  10.736
33529W        W   70   5.111  22.442  13.800
33530W        W   71  18.390  11.803  12.476
33531W        W   72  32.048  26.495   1.773
33532W        W   73  29.149   0.619  14.172
33533W        W   74   8.186  31.714   0.411
33534W        W   75   9.119  29.540   1.747
33535W        W   76  24.673  24.188  11.201
33536W        W   77  42.837   9.304   4.591
33537W        W   78   1.232  33.328   3.108
33538W        W   79  15.263  15.788  14.694
33539W        W   80  15.281  39.602   1.196
33540W        W   81   4.238  21.257   0.325
33541W        W   82  13.845  17.770   0.251
33542W        W   83  11.091  27.530   3.715
33543W        W   84  16.627  36.097   2.712
33544W        W   85  26.406   7.429   2.615
33545W        W   86  23.747  42.399   2.263
33546W        W   87  35.399  33.962   2.968
33547W        W   88  37.086  26.603   2.780
33548W        W   89  23.594   8.331   0.430
33549W        W   90  12.702  18.570   2.396
33550W        W   91  12.301  20.646  10.516
33551W        W   92  23.467   9.691  11.178
33552W        W   93  34.507   5.458  11.482
33553W        W   94  11.120   9.601  12.886
33554W        W   95  21.191   6.616  12.083
33555W        W   96  36.636  44.433   1.056
33556W        W   97  33.510  31.195   4.583
33557W        W   98  17.156   9.184  10.798
33558W        W   99   2.494  20.750  14.514
33559W        W  100  21.246  40.506   2.358
33560W        W  101  38.047  37.352  13.443
33561W        W  102  32.550  22.692  13.483
33562W        W  103   0.334   8.813   4.088
33563W        W  104  17.116   6.210   1.274
33564W        W  105   8.808  28.491  13.428
33565W        W  106  18.722  18.260  13.863
33566W        W  107  34.059   2.367   2.560
33567W        W  108  11.965  39.062  12.073
33568W        W  109  32.798  15.889  14.938
33569W        W  110   0.440   3.004  13.706
33570W        W  111   8.988  39.658  12.286
33571W        W  112  35.006  31.310   3.299
33572W        W  113  42.315  28.404  13.571
33573W        W  114  16.709  16.653  10.632
33574W        W  115  20.946  11.140  13.968
33575W        W  116  35.778  43.395   0.459
33576W        W  117   7.352  17.106  13.531
33577W        W  118  38.450  12.267  12.250
33578W        W  119  28.901  32.892  14.934
33579W        W  120   9.394  34.032   4.121
33580W        W  121  41.404   3.035  14.689
33581W        W  122  24.648  37.902  14.311
33582W        W  123  10.429   6.496  10.995
33583W        W  124  11.704  29.422  10.635
33584W        W  125  33.919   4.085  10.687
33585W        W  126  22.681  18.644  14.356
33586W        W  127  11.902  31.946   4.544
33587W        W  128  44.135  33.285   3.768
33588W        W  129  25.776  15.131   0.132
33589W        W  130  34.348   7.683  11.129
33590W        W  131   1.555  43.324   1.944
33591W        W  132  24.704  23.217  12.570
33592W        W  133  27.392  31.182  11.547
33593W        W  134  28.947  32.671  14.459
33594W        W  135   1.352  11.192  13.001
33595W        W  136   9.327   3.817   4.939
33596W        W  137  17.286  21.197  10.406
33597W        W  138  12.358  33.138  13.301
33598W        W  139   7.991  42.929  10.494
33599W        W  140  24.269  36.829   4.627
33600W        W  141  36.484   1.848   4.871
33601W        W  142   3.445  13.119   3.336
33602W        W  143  14.719  35.257  12.019
33603W        W  144  40.234  15.772  13.480
33604W        W  145   0.307  29.816   4.057
33605W        W  146  27.616   2.180  11.953
33606W        W  147   7.741   7.883   2.888
33607W        W  148  30.124  44.341  11.902
33608W        W  149  30.111   5.869  11.303
33609W        W  150  32.715  39.959   2.811
33610W        W  151   8.456  33.400  14.410
33611W        W  152  43.995  26.956   1.766
33612W        W  153  13.222  29.519  12.872
33613W        W  154  14.205  34.240  13.944
33614W        W  155  44.799  26.016  12.573
33615W        W  156  40.488   7.515  12.073
33616W        W  157  44.808  40.246  11.481
33617W        W  158  26.510   7.987  12.713
33618W        W  159   2.154  35.266   3.765
33619W        W  160   4.715   4.745  14.081
33620W        W  161  36.618  39.781   4.633
33621W        W  162  17.020  42.927   4.140
33622W        W  163  41.242  35.513  10.852
33623W        W  164  40.835  13.418  13.779
33624W        W  165   3.801  37.298   3.190
33625W        W  166  22.214  37.143  12.583
33626W        W  167   0.782  39.507   2.587
33627W        W  168  17.662  27.403  10.634
33628W        W  169  40.326  25.343   3.621
33629W        W  170   6.857  36.494   0.433
33630W        W  171   2.425   2.768   1.324
33631W        W  172  44.628  22.739  14.176
33632W        W  173  15.704   5.388  12.200
33633W        W  174  31.642  34.297  11.083
33634W        W  175   1.941  37.577   3.692
33635W        W  176  27.515   7.281   0.338
33636W        W  177  34.518  42.039  13.549
33637W        W  178  23.283  31.994   1.467
33638W        W  179  17.113  38.857  14.487
33639W        W  180  24.306  35.951  10.845
33640W        W  181  33.034  10.115  10.796
33641W        W  182  37.509   6.006   4.871
33642W        W  183  16.175   2.734  13.917
33643W        W  184  11.064   9.104   2.199
33644W        W  185  24.385  10.256  11.384
33645W        W  186  37.589   3.897   2.401
33646W        W  187  43.478  20.580  11.570
33647W        W  188  18.459  39.392  12.518
33648W        W  189   2.260  30.596   0.902
33649W        W  190   5.679  22.209   1.180
33650W        W  191  27.381  29.173  13.896
33651W        W  192  12.648  14.276  14.050
33652W        W  193   3.722  22.650  13.396
33653W        W  194  11.663  43.610  11.227
33654W        W  195  14.523  37.314  12.880
33655W        W  196   1.306  13.750   0.576
33656W        W  197  17.435  23.139   2.057
33657W        W  198  35.648  25.876   1.989
33658W        W  199   2.448  34.632  14.015
33659W        W  200  25.723   0.320  12.923
33660W        W  201  21.494  24.526  11.196
33661W        W  202  28.578  27.587   4.260
33662W        W  203  11.720  39.445   1.410
33663W        W  204  17.581  43.685   0.817
33664W        W  205  10.494  34.402  10.915
33665W        W  206   2.941  38.109  13.459
33666W        W  207  22.170  35.108  11.714
33667W        W  208  37.338  19.968   2.146
33668W        W  209  38.902   2.132  13.108
33669W        W  210  21.193  15.357  14.397
33670W        W  211  25.292  30.269   3.627
33671W        W  212  34.505  12.538   2.923
33672W        W  213  44.327  17.292   3.223
33673W        W  214  18.834  13.423  14.899
33674W        W  215   2.045  24.061  12.550
33675W        W  216  18.593  37.032   4.741
33676W        W  217  18.340  10.177   3.330
33677W        W  218  23.769  29.602  12.825
33678W        W  219   9.131  41.857   1.230
33679W        W  220  16.402  29.069   3.640
33680W        W  221  17.842   7.547   1.857
33681W        W  222   8.098  33.010  14.235
33682W        W  223   7.505   8.053  14.506
33683W        W  224   3.477  10.359   9.818
33684W        W  225  19.484  21.228   2.272
33685W        W  226  33.531  35.047  11.185
33686W        W  227  23.895  22.351   1.702
33687W        W  228  22.517  17.558  13.021
33688W        W  229  29.989   3.164  12.214
33689W        W  230   8.071   0.894  13.664
33690W        W  231  24.270  12.260   4.179
33691W        W  232   8.778  26.240   4.279
33692W        W  233  22.289  16.351   5.022
33693W        W  234  41.120  12.599  12.618
33694W        W  235  38.782  23.207  11.175
33695W        W  236  31.994  15.866   3.070
33696W        W  237  28.195   7.396  10.849
33697W        W  238  21.747  20.239   1.171
33698W        W  239  25.140  27.572   0.042
33699W        W  240  12.860  33.463   1.108
33700W        W  241  19.082   0.212  10.743
33701W        W  242  42.042  30.557   1.856
33702W        W  243  39.246  34.912   4.905
33703W        W  244  34.317  41.792   0.717
33704W        W  245  39.857  10.633   4.490
33705W        W  246  16.840  27.546   0.894
33706W        W  247  32.468  16.857  12.486
33707W        W  248  19.648   3.858  12.639
33708W        W  249  22.602  41.024  14.046
33709W        W  250   1.276  39.158  10.309
33710W        W  251   3.730   9.056  13.475
33711W        W  252   6.400  25.467  11.526
33712W        W  253   0.786  10.349   5.073
33713W        W  254   3.958  43.265   0.267
33714W        W  255  19.822  31.471   1.273
33715W        W  256  31.870  17.008   2.035
33716W        W  257  18.664  44.732  13.343
33717W        W  258  36.200  43.442  13.022
33718W        W  259  16.705   0.685   4.666
33719W        W  260  20.716   6.455  12.401
33720W        W  261  31.945  42.225  11.601
33721W        W  262  22.549  39.132   9.869
33722W        W  263   9.321  39.931  11.483
33723W        W  264  16.703  31.876   3.493
33724W        W  265  30.964  44.758  11.574
33725W        W  266  23.888  10.047   2.645
33726W        W  267  37.379   2.944   3.108
33727W        W  268  15.332  12.622   3.595
33728W        W  269  25.104  41.827  12.508
33729W        W  270  37.008  22.580  10.597
33730W        W  271  39.812  35.412   0.818
33731W        W  272  31.050   7.390  13.908
33732W        W  273   9.168   9.935   2.345
33733W        W  274  10.257  25.269  11.960
33734W        W  275  10.923  11.075  13.703
33735W        W  276  19.042  22.943  14.458
33736W        W  277  41.907  12.623   1.340
33737W        W  278  40.793   4.923   0.863
33738W        W  279   6.145  15.149  11.855
33739W        W  280  13.581  27.031   2.028
33740W        W  281  26.124  28.438  13.004
33741W        W  282   1.362  39.296   1.382
33742W        W  283   2.893  37.069  10.896
33743W        W  284   7.425   6.079   3.176
33744W        W  285   4.287  44.316   2.409
33745W        W  286  36.606  42.097   2.132
33746W        W  287   9.674  19.430   2.599
33747W        W  288  13.336  31.960   4.418
33748W        W  289  17.670  41.945   4.479
33749W        W  290  13.843   1.882   3.202
33750W        W  291  13.142  29.822   4.142
33751W        W  292  26.137  13.641   0.781
33752W        W  293  41.934  29.372  11.238
33753W        W  294  29.895   5.008  13.831
33754W        W  295  34.459  16.962   2.236
33755W        W  296   4.206  19.186   3.114
33756W        W  297  35.024  18.742  11.012
33757W        W  298  41.271  34.553  11.637
33758W        W  299  38.075   0.370   3.161
33759W        W  300  30.644   0.421  14.477
33760W        W  301  19.590  34.399   3.236
33761W        W  302  22.676  34.792   1.330
33762W        W  303  23.765  11.028   2.805
33763W        W  304  14.331  40.976  11.044
33764W        W  305  17.271  20.391   2.356
33765W        W  306  26.470  31.909   4.521
33766W        W  307  44.518  33.137   1.301
33767W        W  308  31.407  29.043  14.662
33768W        W  309  23.494  15.818  14.811
33769W        W  310   7.795   7.540   2.389
33770W        W  311  36.927  43.266   0.402
33771W        W  312  27.527  19.737   2.440
33772W        W  313  38.608  41.264   1.891
33773W        W  314  42.585  17.211   0.390
33774W        W  315  33.859  20.242   0.782
33775W        W  316   4.214  44.682  13.365
33776W        W  317  26.603  12.558  10.495
33777W        W  318  20.795  31.054   3.735
33778W        W  319  37.472  19.149   4.115
33779W        W  320  11.819  35.828  11.208
33780W        W  321   5.968  43.708  13.273
33781W        W  322  18.610   1.465   4.020
33782W        W  323   8.817  30.848   0.708
33783W        W  324  15.000  25.655   0.836
33784W        W  325  34.037  20.977   0.484
33785W        W  326  15.175  39.375  14.312
33786W        W  327  22.476  16.537   2.258
33787W        W  328  43.325  42.569   1.521
33788W        W  329  37.079  23.202  14.918
33789W        W  330   0.985  10.788  11.377
33790W        W  331  13.629  42.057   1.622
33791W        W  332   6.281  42.936   0.340
33792W        W  333  32.031  34.366   4.353
33793W        W  334   7.394  29.802   4.454
33794W        W  335   6.964  31.349  13.948
33795W        W  336  26.696  10.758   2.207
33796W        W  337  12.824  18.677  14.945
33797W        W  338  31.180  35.083  11.089
33798W        W  339  34.151  29.599  14.333
33799W        W  340   9.906   9.863  13.479
33800W        W  341  34.316  30.629  11.602
33801W        W  342  27.572  29.365  13.094
33802W        W  343  43.259  11.084  10.785
33803W        W  344  10.513  10.723  12.324
33804W        W  345  14.146  38.033   0.263
33805W        W  346  22.715  14.705  12.360
33806W        W  347  21.708  39.306  14.708
33807W        W  348   4.896  35.073  14.636
33808W        W  349   4.060  20.501   1.382
33809W        W  350  26.927   3.070  13.129
33810W        W  351   0.901  30.894   0.778
33811W        W  352  15.337  23.224  12.822
33812W        W  353  31.372  15.633   1.943
33813W        W  354   8.828  39.200  14.349
33814W        W  355  22.534  41.900  13.298
33815W        W  356  14.627  20.527   1.373
33816W        W  357   2.824  13.363   2.617
33817W        W  358   7.916  24.208  14.571
33818W        W  359  25.729  35.357   0.182
33819W        W  360  13.020  28.982   4.581
33820W        W  361  33.071  13.372   0.734
33821W        W  362  19.397  43.011  11.226
33822W        W  363  37.567  35.692  12.380
33823W        W  364  28.493  44.063  12.106
33824W        W  365  18.837   1.815   3.706
33825W        W  366  22.630  13.122   2.233
33826W        W  367   1.359   5.415   0.441
33827W        W  368  33.462  34.037   1.416
33828W        W  369  36.970  13.102  13.487
33829W        W  370  32.882  25.953  13.019
33830W        W  371  21.541  42.238   2.737
33831W        W  372   1.520  29.398   4.563
33832W        W  373  18.326  26.552  12.894
33833W        W  374  27.990  23.682  13.738
33834W        W  375  15.081  18.609  14.292
33835W        W  376   1.361  33.143   1.214
33836W        W  377  18.151  30.888  10.861
33837W        W  378  20.598  14.714   1.865
33838W        W  379  44.292   3.343   4.846
33839W        W  380  22.801  41.161   3.693
33840W        W  381  16.074  33.676  13.485
33841W        W  382  32.889  27.985  13.943
33842W        W  383  13.068  42.028  12.227
33843W        W  384  43.292  21.154  12.393
33844W        W  385  37.851   0.963   0.331
33845W        W  386  36.562  34.903  14.323
33846W        W  387  20.514   0.836   1.922
33847W        W  388  43.805  37.952  14.438
33848W        W  389  30.675   0.024   3.081
33849W        W  390  11.857  41.015   0.691
33850W        W  391  34.147  33.134   3.244
33851W        W  392  38.025   1.461   2.588
33852W        W  393  44.408  18.793  12.822
33853W        W  394  33.542  42.071  10.624
33854W        W  395  22.211  11.292  10.929
33855W        W  396   8.846  10.843   0.771
33856W        W  397  28.200  30.741   1.877
33857W        W  398  33.445  13.845   0.374
33858W        W  399  21.246  22.344  11.083
33859W        W  400  35.339   5.673  13.074
33860W        W  401  18.032  25.053  14.238
33861W        W  402  29.932  16.654   1.535
33862W        W  403  39.075  20.062   0.042
33863W        W  404  18.980  39.605   4.586
33864W        W  405   2.432  44.900   4.756
33865W        W  406  44.427  36.015   0.899
33866W        W  407  22.474  33.768  11.021
33867W        W  408  17.104  26.001  13.021
33868W        W  409  22.691  33.300   0.837
33869W        W  410   6.707  25.635  14.955
33870W        W  411   1.333  39.291   2.833
33871W        W  412  15.622  15.568   1.352
33872W        W  413  13.628   7.242   2.183
33873W        W  414  25.989  17.787  12.929
33874W        W  415  20.680  31.017  14.367
33875W        W  416   9.681  36.423   3.720
33876W        W  417  25.247  23.819  12.898
33877W        W  418   0.501  15.535   4.766
33878W        W  419  25.311   6.493  11.015
33879W        W  420  34.375  33.573  12.601
33880W        W  421  34.131  27.642   0.779
33881W        W  422  18.843  18.770   3.696
33882W        W  423   5.114   9.413  11.098
33883W        W  424  14.172   2.100   4.187
33884W        W  425  23.387  44.204  12.044
33885W        W  426  25.247   9.823   0.925
33886W        W  427  18.676  43.106   3.259
33887W        W  428  24.286  17.308  12.428
33888W        W  429  34.628  27.624   3.700
33889W        W  430   0.217  29.356   2.848
33890W        W  431   5.883  32.973  11.757
33891W        W  432  28.571  44.197   3.944
33892W        W  433  30.962   2.041   0.995
33893W        W  434  28.639  11.784  12.707
33894W        W  435  41.100  43.963  14.349
33895W        W  436   0.734  24.016   1.911
33896W        W  437  13.244  21.656   0.198
33897W        W  438  18.240  12.320   0.848
33898W        W  439   3.769  40.656   0.269
33899W        W  440  10.231  32.424  13.244
33900W        W  441  33.363   5.839   2.515
33901W        W  442  29.368  44.458   0.800
33902W        W  443  24.601  24.266  13.635
33903W        W  444  35.654  34.009   1.499
33904W        W  445  36.822  35.077   0.956
33905W        W  446  18.338   3.927   4.537
33906W        W  447  17.844  37.468   3.017
33907W        W  448  21.147  22.742  14.452
33908W        W  449  44.630  36.773  10.755
33909W        W  450  21.588  11.087   4.515
33910W        W  451   6.309  37.490   2.773
33911W        W  452  37.587  37.108   3.109
33912W        W  453  42.843   4.900   1.473
33913W        W  454  39.760  44.793  12.786
33914W        W  455  25.775   0.283  11.674
33915W        W  456  28.243  41.840   3.196
33916W        W  457  15.289  29.635  10.681
33917W        W  458   5.287  44.819   2.793
33918W        W  459  17.671  25.400   0.877
33919W        W  460  44.499  37.824   3.655
33920W        W  461  11.373  23.646   0.433
33921W        W  462  23.387  39.467   4.311
33922W        W  463  43.910  27.170   3.146
33923W        W  464  31.635   4.975  11.350
33924W        W  465  19.393  37.492   4.585
33925W        W  466  38.901  35.558   5.396
33926W        W  467  18.805  13.884   2.076
33927W        W  468  41.500  34.394   0.261
33928W        W  469  32.549  43.634  12.159
33929W        W  470  26.972   6.013  13.367
33930W        W  471  35.451   9.716  12.387
33931W        W  472  39.848   1.435   0.898
33932W        W  473   2.859  38.821   0.090
33933W        W  474   6.922  10.895   4.185
33934W        W  475  37.422  21.419  14.256
33935W        W  476  42.013  43.748  14.827
33936W        W  477  24.798   7.594   0.790
33937W        W  478  43.513  23.071   4.201
33938W        W  479  15.178  15.168  12.353
33939W        W  480  11.585   4.644   4.159
33940W        W  481  15.686   7.339   4.590
33941W        W  482  24.465  35.389  11.671
33942W        W  483   8.147  10.227   0.307
33943W        W  484  25.703   6.960   5.005
33944W        W  485  40.052  21.353   3.803
33945W        W  486  10.828  29.931   2.253
33946W        W  487  20.983  25.863  13.827
33947W        W  488  36.544  12.595  10.186
33948W        W  489  38.082   5.327  11.151
33949W        W  490  23.771  29.334  13.750
33950W        W  491  43.548  34.407   1.671
33951W        W  492  32.923   7.272   0.386
33952W        W  493  41.069  41.163  13.105
33953W        W  494  18.316  38.270   2.899
33954W        W  495   4.676  19.590  14.711
33955W        W  496  14.363  34.665  11.536
33956W        W  497  37.933   9.169   0.298
33957W        W  498   7.696   8.045   2.369
33958W        W  499  16.819  13.166   1.202
33959W        W  500  29.025   6.898  13.882
33960W        W  501  35.604  20.637   0.243
33961W        W  502  34.037   1.296  11.950
33962W        W  503  23.607  14.330   0.478
33963W        W  504   7.137  23.538   3.893
33964W        W  505  15.536  12.671   2.292
33965W        W  506   7.408  18.804  14.499
33966W        W  507  13.768  32.219  11.288
33967W        W  508  25.408   9.825   2.297
33968W        W  509  24.236  39.291   0.892
33969W        W  510  25.199  21.481  12.364
33970W        W  511  39.977  31.049   2.908
33971W        W  512  24.670  42.441   2.628
33972W        W  513  37.645  37.910  13.752
33973W        W  514  41.892  12.607  14.030
33974W        W  515  11.576  35.354  11.148
33975W        W  516  22.112   7.115  11.135
33976W        W  517  41.343  30.018   3.238
33977W        W  518  19.675  34.533   4.298
33978W        W  519  10.268  30.460  14.285
33979W        W  520   4.373  43.304   1.637
33980W        W  521  33.214  44.639   3.741
33981W        W  522   5.828  37.241   4.378
33982W        W  523  23.960  17.127   4.111
33983W        W  524  33.529   6.747   0.513
33984W        W  525  15.130  13.159  11.297
33985W        W  526  12.359   1.800   0.060
33986W        W  527   4.604   4.395   9.762
33987W        W  528  44.420  21.059   2.617
33988W        W  529   8.677  29.871  13.867
33989W        W  530  11.103  17.576  14.499
33990W        W  531  42.647   5.950  14.363
33991W        W  532  11.689  36.130   1.711
33992W        W  533  22.311  10.663   2.409
33993W        W  534  28.999   5.914   3.250
33994W        W  535   2.984  16.276   3.634
33995W        W  536   6.167  33.402  12.638
33996W        W  537  38.380  12.461  10.275
33997W        W  538  30.189  40.789   3.681
33998W        W  539  25.618  15.155   2.524
33999W        W  540   5.477  29.590  12.069
34000W        W  541  31.159  33.607   4.231
34001W        W  542  18.728  35.650  14.707
34002W        W  543  26.595  17.225   0.945
34003W        W  544  39.904   8.775   4.717
34004W        W  545   3.537   2.337  12.101
34005W        W  546   4.765  35.947   2.375
34006W        W  547  30.032  43.371  13.152
34007W        W  548  17.106  34.918   4.121
34008W        W  549  20.065  12.802   1.223
34009W        W  550  40.685  20.953   1.396
34010W        W  551  21.476  30.844   1.600
34011W        W  552   1.839  28.274   2.290
34012W        W  553   8.261  15.254   4.114
34013W        W  554  38.503  44.296   3.164
34014W        W  555  36.154  30.451  12.990
34015W        W  556  31.362  19.548  12.658
34016W        W  557  41.628  37.001   3.593
34017W        W  558   8.590  22.097   2.210
34018W        W  559  32.357  13.863  14.393
34019W        W  560   9.705  33.072   1.856
34020W        W  561  23.032  19.815  13.395
34021W        W  562  21.151   4.228  10.979
34022W        W  563  23.307  28.366   1.328
34023W        W  564   4.188   6.330  10.158
34024W        W  565   7.801  37.180   4.430
34025W        W  566  19.257  35.563   0.364
34026W        W  567  12.023  43.825   2.547
34027W        W  568  20.872  42.435   0.904
34028W        W  569  29.156  30.663   0.018
34029W        W  570   1.142  10.608   4.124
34030W        W  571  43.451  19.221  14.515
34031W        W  572   2.516   6.353   2.377
34032W        W  573  38.163  29.352  13.949
34033W        W  574  40.450   7.967   1.258
34034W        W  575  28.576  38.317   4.473
34035W        W  576   9.420  40.359   1.399
34036W        W  577  20.198   2.033   0.819
34037W        W  578   5.921  21.429   0.990
34038W        W  579  22.323  18.476   4.067
34039W        W  580  40.554  22.554   2.761
34040W        W  581  20.460  23.006  10.666
34041W        W  582  18.950  39.806   4.102
34042W        W  583   3.340  44.055   2.169
34043W        W  584  42.405  36.933  14.342
34044W        W  585  12.272  37.482  13.379
34045W        W  586  18.798  33.956   3.307
34046W        W  587  40.491  43.079   4.719
34047W        W  588   8.844  24.244   3.568
34048W        W  589  25.554  17.086   0.902
34049W        W  590  23.479  17.243  10.748
34050W        W  591  27.334  42.518  13.298
34051W        W  592   0.524  37.863   2.439
34052W        W  593  38.263  39.855  14.723
34053W        W  594   3.623  20.192  11.908
34054W        W  595  23.212  41.454   0.440
34055W        W  596  11.863   6.143   2.297
34056W        W  597  14.248  29.948  12.085
34057W        W  598   6.400   7.276  13.972
34058W        W  599  31.626  31.338   2.873
34059W        W  600  37.023  34.508   4.146
34060W        W  601   7.123  31.826  11.633
34061W        W  602   3.978  14.825   4.139
34062W        W  603  36.654  21.497   4.912
34063W        W  604  27.825  20.039   3.603
34064W        W  605  17.268  20.249  12.063
34065W        W  606  14.397  13.543  12.459
34066W        W  607  43.732  33.724   2.910
34067W        W  608  20.848  36.910  13.059
34068W        W  609  31.219   9.674  10.702
34069W        W  610  24.971  14.338   4.143
34070W        W  611  37.725   5.683  14.510
34071W        W  612  33.492  33.596   3.223
34072W        W  613  35.569  27.160   3.724
34073W        W  614  25.943  29.513  11.633
34074W        W  615  32.654  24.650   1.755
34075W        W  616  25.444  26.421   0.022
34076W        W  617  44.285  17.875   1.422
34077W        W  618  27.739   3.572   5.036
34078W        W  619  43.063  11.185  14.857
34079W        W  620  24.011  26.172   4.156
34080W        W  621   3.324   9.427   2.143
34081W        W  622  27.606   4.213  12.949
34082W        W  623   0.149  26.889   0.252
34083W        W  624  16.083  25.133  12.100
34084W        W  625  19.119  35.912  14.930
34085W        W  626   5.904  19.379   1.199
34086W        W  627  28.427  36.986   3.922
34087W        W  628  39.818  15.813   4.533
34088W        W  629   3.858  38.024  12.351
34089W        W  630  24.587  20.738  10.692
34090W        W  631  38.085   2.161   3.588
34091W        W  632  40.238  31.091   1.704
34092W        W  633  42.571  37.442  12.527
34093W        W  634  10.126  40.945   3.262
34094W        W  635  18.671  27.184  12.096
34095W        W  636  18.789  26.807  12.973
34096W        W  637  11.169  25.553   1.767
34097W        W  638  18.144  21.785  12.660
34098W        W  639  33.814   8.885  13.504
34099W        W  640  17.715   3.726  14.783
34100W        W  641  11.099  18.279  14.756
34101W        W  642  41.917  40.355  14.442
34102W        W  643   6.684  25.990  13.806
34103W        W  644  29.179  11.106   0.950
34104W        W  645  43.759  39.531  11.733
34105W        W  646  21.644  31.749  10.764
34106W        W  647  30.466  18.167   1.297
34107W        W  648  16.992  33.552   1.963
34108W        W  649  22.735  24.776   5.047
34109W        W  650   1.707  34.994   1.318
34110W        W  651   3.580   3.273   1.535
34111W        W  652  26.474  11.689  13.068
34112W        W  653  28.119  44.704  11.018
34113W        W  654  40.388  39.070  13.990
34114W        W  655   2.216  20.710   0.828
34115W        W  656  42.955  32.612   1.869
34116W        W  657   5.925  11.246  14.603
34117W        W  658   0.095   7.203  10.594
34118W        W  659  42.231  32.566   4.641
34119W        W  660  29.444  42.369  10.737
34120W        W  661  20.125  29.178   4.514
34121W        W  662  38.355   8.149  10.741
34122W        W  663  10.136   4.181   0.042
34123W        W  664  44.373  23.497  14.760
34124W        W  665  11.734  39.741  10.704
34125W        W  666  14.092  36.472   3.397
34126W        W  667  38.364  19.021  13.440
34127W        W  668  14.642  26.488  11.135
34128W        W  669   1.060   5.682   2.375
34129W        W  670  40.469  25.665  14.297
34130W        W  671  25.660  27.515  12.877
34131W        W  672   8.771  24.924   1.767
34132W        W  673  35.988   2.013  14.897
34133W        W  674   7.157  12.323   0.276
34134W        W  675  30.883  17.282  12.916
34135W        W  676  32.825   7.741   3.302
34136W        W  677   4.371  28.884   4.266
34137W        W  678  33.494  25.699   1.238
34138W        W  679  11.726  38.452  10.222
34139W        W  680  21.090  14.752   2.615
34140W        W  681   3.337  16.527  13.354
34141W        W  682  12.233  10.112   3.785
34142W        W  683  14.362  15.537  13.525
34143W        W  684   6.793  14.886  10.471
34144W        W  685  44.713  35.635  11.140
34145W        W  686   2.697  28.590  13.364
34146W        W  687  22.292  32.090   2.591
34147W        W  688  28.735  30.861   2.055
34148W        W  689   5.953  32.142   3.838
34149W        W  690  21.989   5.712  13.762
34150W        W  691  23.564  32.676   1.976
34151W        W  692  18.706   5.218   2.274
34152W        W  693  22.023  36.927   0.698
34153W        W  694  33.542  28.607  13.458
34154W        W  695  40.889  31.082   0.890
34155W        W  696   1.330  35.836   3.402
34156W        W  697  20.500  30.738  13.851
34157W        W  698  43.429  26.079  10.628
34158W        W  699  39.953  20.667   4.400
34159W        W  700  24.454   8.399  13.127
34160W        W  701  37.046  15.820   3.597
34161W        W  702  12.612  12.729   2.378
34162W        W  703  16.890  21.652   4.542
34163W        W  704  17.519  11.869   3.008
34164W        W  705  32.054  32.575  13.382
34165W        W  706   2.655  17.169  14.436
34166W        W  707  15.265  11.539   0.719
34167W        W  708   1.288  34.815   2.770
34168W        W  709  38.867  40.522   0.466
34169W        W  710  35.015   2.867  10.280
34170W        W  711  34.361   3.057  13.342
34171W        W  712  38.805  44.989   4.783
34172W        W  713  10.298  32.547  10.425
34173W        W  714  22.532  40.606   2.878
34174W        W  715   6.957  28.880  12.520
34175W        W  716   4.871  26.424  11.582
34176W        W  717  33.108  30.981  10.360
34177W        W  718  40.623  10.175  12.279
34178W        W  719  35.013  39.254  12.446
34179W        W  720  11.192  27.592  11.247
34180W        W  721   4.320  19.505   1.328
34181W        W  722  14.611  39.426  13.847
34182W        W  723  16.090  39.633  14.836
34183W        W  724  42.814  21.198  14.094
34184W        W  725   2.820  15.397  11.133
34185W        W  726  17.266  28.362   1.797
34186W        W  727  16.068  17.740   1.161
34187W        W  728   7.476  16.989  12.557
34188W        W  729  22.761  37.520  10.230
34189W        W  730  37.105   3.409   1.676
34190W        W  731  13.100  37.524   0.968
34191W        W  732  20.536  36.680  12.582
34192W        W  733   7.479   1.165  14.892
34193W        W  734  14.504  37.916  14.855
34194W        W  735  43.418  26.776  14.435
34195W        W  736   4.841  28.654   4.386
34196W        W  737  12.916  37.035  11.305
34197W        W  738   2.723  35.958   1.932
34198W        W  739  43.928  26.108  10.758
34199W        W  740  12.519  17.658  14.918
34200W        W  741  10.018  43.751  12.876
34201W        W  742  12.247  11.166  11.683
34202W        W  743  43.999  32.835  14.810
34203W        W  744  17.654  44.468   2.354
34204W        W  745  24.451  14.065   0.862
34205W        W  746   3.524   5.402  14.360
34206W        W  747  11.269  27.409   2.173
34207W        W  748   0.792  26.548  13.527
34208W        W  749   0.654  25.264   3.514
34209W        W  750   4.122   8.283   3.136
34210W        W  751  19.030  13.270  13.365
34211W        W  752   7.403   6.678   4.806
34212W        W  753   0.218  15.319   4.256
34213W        W  754   8.283  34.734   0.501
34214W        W  755  22.509   7.133  12.877
34215W        W  756   8.835  24.611  11.171
34216W        W  757  12.886  37.456   2.769
34217W        W  758  39.088  42.868   4.560
34218W        W  759  35.450  15.896  14.935
34219W        W  760  44.876  31.962  11.475
34220W        W  761  26.418  10.959   3.301
34221W        W  762  22.784  16.186   4.981
34222W        W  763  31.330   5.189   0.895
34223W        W  764   6.740  20.217  13.788
34224W        W  765  26.729  18.652  12.814
34225W        W  766  36.361  15.004   1.453
34226W        W  767  15.146   7.411   4.593
34227W        W  768  24.611  33.885  10.484
34228W        W  769  21.858  34.083  11.450
34229W        W  770   4.485  31.592  13.058
34230W        W  771   6.275  35.098   0.887
34231W        W  772  35.599  33.316  12.362
34232W        W  773  25.839  24.733   4.089
34233W        W  774  22.511  38.043   3.684
34234W        W  775  28.864  32.160  11.582
34235W        W  776  27.571  28.705  12.470
34236W        W  777  37.646  19.788  10.782
34237W        W  778  40.414  33.419  14.529
34238W        W  779  38.964  23.457   2.753
34239W        W  780  17.729  29.922  12.191
34240W        W  781   4.184  19.034  11.618
34241W        W  782  40.226   3.994  14.953
34242W        W  783  19.006   3.511   1.883
34243W        W  784  40.776  19.947  12.044
34244W        W  785  11.565  39.407  14.479
34245W        W  786  16.447  18.579   0.205
34246W        W  787  44.471  24.673   1.206
34247W        W  788   7.170  38.835  14.308
34248W        W  789  28.435  28.229   1.292
34249W        W  790  43.407  14.277  10.199
34250W        W  791   2.622  44.272  10.657
34251W        W  792  37.483  20.020  14.924
34252W        W  793  10.177  23.247  13.985
34253W        W  794  19.684  23.047   2.159
34254W        W  795  39.321  14.419   1.881
34255W        W  796  43.954  14.631  14.321
34256W        W  797  15.215  26.655   3.102
34257W        W  798  21.393   3.401  13.670
34258W        W  799   2.431  36.482   4.149
34259W        W  800  37.790  29.964  13.133
34260W        W  801  18.122  44.960  14.933
34261W        W  802  18.510  44.983   4.043
34262W        W  803  15.661   9.845   2.484
34263W        W  804  44.969  12.264   4.317
34264W        W  805  33.081  13.109   2.261
34265W        W  806  12.396  38.137   3.803
34266W        W  807   6.370   9.644  12.438
34267W        W  808   7.762  39.980   1.272
34268W        W  809  32.546   9.191   0.307
34269W        W  810  19.587  20.622   3.764
34270W        W  811  20.590  15.664   3.548
34271W        W  812  30.168  39.896   1.507
34272W        W  813  40.496   0.509   4.836
34273W        W  814  33.831  44.525   0.004
34274W        W  815  31.399  20.493   3.885
34275W        W  816   7.914  33.425  13.916
34276W        W  817  25.823   2.902  11.053
34277W        W  818  29.156   3.205   3.178
34278W        W  819  34.055  14.287   3.311
34279W        W  820  29.418   5.192   3.038
34280W        W  821  33.193   6.122  14.774
34281W        W  822  32.674  33.559  12.159
34282W        W  823  34.949  34.312   2.223
34283W        W  824  36.068  40.336  10.384
34284W        W  825  32.856  35.883  11.458
34285W        W  826  20.862  43.746  14.921
34286W        W  827  25.623  26.589   5.040
34287W        W  828   4.732   6.155  13.887
34288W        W  829  14.843  24.717  12.054
34289W        W  830  33.593  23.005  11.621
34290W        W  831  41.160   5.749  11.889
34291W        W  832   0.278  30.299  13.579
34292W        W  833  20.030  31.762  10.381
34293W        W  834  33.893  27.518  14.825
34294W        W  835  40.820  44.382  11.635
34295W        W  836  28.047  20.077  11.949
34296W        W  837  19.510  24.585   0.415
34297W        W  838  39.502  42.262  13.468
34298W        W  839  27.587  29.167  14.367
34299W        W  840  42.018   7.024   1.021
34300W        W  841  43.185  10.221   2.658
34301W        W  842  17.813   3.309   1.195
34302W        W  843  15.730  28.459   1.306
34303W        W  844  41.363  20.238   0.021
34304W        W  845  35.006   6.335  11.423
34305W        W  846  25.511  35.688  13.510
34306W        W  847  38.915  33.195   0.896
34307W        W  848  23.847   2.623   2.746
34308W        W  849  31.569  18.101   0.084
34309W        W  850  40.017  15.115  12.469
34310W        W  851  34.586  19.810   2.559
34311W        W  852  42.970  13.646  11.549
34312W        W  853  41.612  36.446  12.946
34313W        W  854   5.755  36.001   1.823
34314W        W  855  28.382   2.677  14.378
34315W        W  856  10.833  39.109   0.120
34316W        W  857  13.513  43.809  12.016
34317W        W  858  15.014  24.931   3.478
34318W        W  859  37.887  44.550   2.405
34319W        W  860  27.731  44.940   3.176
34320W        W  861  30.737  39.811  11.171
34321W        W  862   4.643  15.027   3.913
34322W        W  863   0.417  15.764  14.837
34323W        W  864  39.828  33.198  12.445
34324W        W  865  17.504  43.751  14.358
34325W        W  866   6.688  11.166  12.446
34326W        W  867   5.349  22.202   0.787
34327W        W  868   3.042  13.417   3.487
34328W        W  869  30.436  37.155  10.975
34329W        W  870  20.606  15.986   2.274
34330W        W  871  39.563  25.956   1.369
34331W        W  872  40.082  39.757   3.691
34332W        W  873  10.873  27.659   1.428
34333W        W  874  31.380   3.389  12.923
34334W        W  875  37.567   0.280  11.389
34335W        W  876  13.716  35.820  12.047
34336W        W  877   7.170   8.775  14.226
34337W        W  878  18.099  22.720   2.491
34338W        W  879  17.549   2.100   1.821
34339W        W  880  10.168  11.627  11.485
34340W        W  881  22.651  12.125  12.964
34341W        W  882  26.790   9.702   3.163
34342W        W  883  41.017  15.059   4.705
34343W        W  884  39.852  36.748  12.464
34344W        W  885  37.957  10.376   1.467
34345W        W  886  17.350  26.514   1.323
34346W        W  887  44.612  17.241  11.806
34347W        W  888  39.837  40.594   0.323
34348W        W  889   8.744   2.987  14.252
34349W        W  890  38.466  16.654   4.066
34350W        W  891   3.130  27.271   1.394
34351W        W  892  35.346  39.977  12.611
34352W        W  893  25.923  16.367  14.138
34353W        W  894  37.426  16.312   0.425
34354W        W  895   2.758  42.062   3.257
34355W        W  896  23.862  41.796   4.384
34356W        W  897   7.667   9.968  12.077
34357W        W  898  12.364  41.602  13.590
34358W        W  899  39.642  24.342   0.911
34359W        W  900  16.568   2.280  10.472
34360W        W  901  29.169   3.279  12.482
34361W        W  902  17.955   2.234  12.382
34362W        W  903  44.955  29.576  13.316
34363W        W  904   5.604  31.571  12.368
34364W        W  905   3.482  11.168   3.074
34365W        W  906  30.613  20.172   4.834
34366W        W  907  40.277  10.890   4.655
34367W        W  908  18.106  32.337   1.160
34368W        W  909  23.442  34.075  11.126
34369W        W  910  34.874  35.890  11.585
34370W        W  911  30.125  39.293   4.680
34371W        W  912  41.954   3.260   1.287
34372W        W  913   2.261  39.506  12.565
34373W        W  914  39.354  34.080   2.631
34374W        W  915  31.196  41.510   3.540
34375W        W  916  25.545  15.745   4.081
34376W        W  917   0.384   4.883  14.414
34377W        W  918  22.738  19.119   4.736
34378W        W  919   3.838  43.996  13.949
34379W        W  920  32.607  22.582   1.481
34380W        W  921   5.137   2.789  11.885
34381W        W  922   8.542  34.178   1.801
34382W        W  923  22.433   2.860  11.400
34383W        W  924  28.874  38.280  12.125
34384W        W  925   4.164  39.417  12.512
34385W        W  926  23.289  31.082  14.360
34386W        W  927  29.696  30.858   4.710
34387W        W  928   0.741  11.249  14.619
34388W        W  929  33.555  36.069   0.269
34389W        W  930  33.770  10.380  11.193
34390W        W  931  39.126  39.760  12.007
34391W        W  932  24.228  25.752   4.376
34392W        W  933   0.661  27.855   2.848
34393W        W  934  21.090  18.807   3.180
34394W        W  935  38.314  43.339   2.923
34395W        W  936  30.199  32.442   3.869
34396W        W  937  20.088  42.439  13.023
34397W        W  938  31.882  30.129  11.137
34398W        W  939  42.573  24.781   0.784
34399W        W  940  12.415  26.092  13.850
34400W        W  941  13.772  11.782   1.426
34401W        W  942  41.587  35.930   1.944
34402W        W  943   0.337  28.757  14.437
34403W        W  944  24.113  10.468  12.076
34404W        W  945   5.356   9.541  13.345
34405W        W  946   0.561   3.331   2.100
34406W        W  947  33.321  16.064  10.568
34407W        W  948  10.579  19.269  12.103
34408W        W  949  30.201  17.986  11.813
34409W        W  950  26.017  17.830  11.494
34410W        W  951   5.083  21.407   3.661
34411W        W  952  34.882  17.549   0.376
34412W        W  953  11.596  36.140  10.790
34413W        W  954  17.885  16.742  11.901
34414W        W  955  14.263  24.490   1.769
34415W        W  956  11.655  35.834  12.544
34416W        W  957  17.558  18.243   1.366
34417W        W  958  15.377  25.172   0.141
34418W        W  959  18.743  13.314  12.810
34419W        W  960  12.872  15.560  11.224
34420W        W  961   5.136  14.177   4.032
34421W        W  962  33.633  12.887  14.452
34422W        W  963  42.559  36.012   2.818
34423W        W  964   7.362  40.728   2.844
34424W        W  965  18.843  19.351   4.547
34425W        W  966  11.356  28.469  14.500
34426W        W  967  44.776  31.883  13.863
34427W        W  968  10.742  42.084   0.803
34428W        W  969  11.616  18.930   3.246
34429W        W  970  18.722  31.569   0.690
34430W        W  971   7.475  24.370  12.471
34431W        W  972  31.571  37.247   0.385
34432W        W  973  25.343  35.571   1.359
34433W        W  974  10.597  28.052   1.646
34434W        W  975  29.124   8.412  10.900
34435W        W  976  35.389  44.507  10.888
34436W        W  977   7.752  18.598   4.419
34437W        W  978  24.264  41.986  10.986
34438W        W  979  42.300  24.060   4.663
34439W        W  980   6.959  12.719  10.734
34440W        W  981  31.076   7.897  13.871
34441W        W  982  22.015  39.510   0.895
34442W        W  983   2.734  39.837  12.592
34443W        W  984  12.047   7.604   3.134
34444W        W  985  44.384  27.937  13.295
34445W        W  986  20.165  30.556   2.480
34446W        W  987  34.500  36.129   1.285
34447W        W  988  10.846  18.812  14.410
34448W        W  989  43.479  43.356   4.421
34449W        W  990  19.725  11.825   3.693
34450W        W  991  17.705  34.541  12.078
34451W        W  992  17.374   6.316   1.729
34452W        W  993  41.531  20.910  10.488
34453W        W  994  12.163  34.644   0.817
34454W        W  995   8.830   9.629   1.864
34455W        W  996  44.270  28.950  14.443
34456W        W  997  41.308  42.733  12.068
34457W        W  998  31.689  17.631  14.835
34458W        W  999  23.796   7.829   2.701
34459W        W 1000   0.408  20.062  13.362
34460W        W 1001  39.351  16.979  11.530
34461W        W 1002  21.990  44.478   0.314
34462W        W 1003  41.022  22.530  11.068
34463W        W 1004  10.803   8.724   2.445
34464W        W 1005  32.835  32.635   3.770
34465W        W 1006  44.160  24.230  12.486
34466W        W 1007  15.857  26.887  14.478
34467W        W 1008  20.553   6.194   5.388
34468W        W 1009   5.213  11.699  12.630
34469W        W 1010  15.310  37.760   3.720
34470W        W 1011  19.606   6.674  11.099
34471W        W 1012  34.098  24.094   4.659
34472W        W 1013   0.094  40.985   1.817
34473W        W 1014  11.349  16.492   1.790
34474W        W 1015  36.499  34.806   4.807
34475W        W 1016  19.728   5.960   0.664
34476W        W 1017  38.872  28.401  13.086
34477W        W 1018  14.614  41.170  12.869
34478W        W 1019   1.067  43.986   2.869
34479W        W 1020   0.162   5.258  13.428
34480W        W 1021  20.073  33.467  11.425
34481W        W 1022   6.950   3.657   0.521
34482W        W 1023  39.797   0.609   2.698
34483W        W 1024  35.274  32.771   2.794
34484W        W 1025  24.814  35.888   4.258
34485W        W 1026  40.546   4.594   1.173
34486W        W 1027  23.992  36.675  11.552
34487W        W 1028  37.843   6.080  12.655
34488W        W 1029   8.206  36.065  13.986
34489W        W 1030  38.548   4.527  14.025
34490W        W 1031  39.230  39.818  12.575
34491W        W 1032   7.584  15.826   1.442
34492W        W 1033  25.213  30.990  14.799
34493W        W 1034   2.373  42.841  13.798
34494W        W 1035  30.859  41.377  11.559
34495W        W 1036  43.923  17.737  14.808
34496W        W 1037  12.793  18.197   1.690
34497W        W 1038   1.818  27.201  14.916
34498W        W 1039  17.589  41.516  10.238
34499W        W 1040  40.507  24.928   3.310
34500W        W 1041  40.933  41.290   2.340
34501W        W 1042  38.096  19.982   2.599
34502W        W 1043  43.460  31.028  11.221
34503W        W 1044  11.585  22.814  11.722
34504W        W 1045  10.793  29.577  12.904
34505W        W 1046  15.951   0.324  13.296
34506W        W 1047  14.682   6.862  12.543
34507W        W 1048   4.335  20.015   1.434
34508W        W 1049  34.629   1.903   0.818
34509W        W 1050   8.814  44.673   2.362
34510W        W 1051  17.173  43.417   1.654
34511W        W 1052  25.766  28.854  11.743
34512W        W 1053  39.236  44.738  12.862
34513W        W 1054   5.956  11.239  11.856
34514W        W 1055  28.590  37.747  11.527
34515W        W 1056  30.291  44.768  14.486
34516W        W 1057  38.306  31.056   0.225
34517W        W 1058  35.695  35.544  10.715
34518W        W 1059  35.997  10.859   2.160
34519W        W 1060  26.511   4.242  13.555
34520W        W 1061  14.641   9.961   0.310
34521W        W 1062  27.731  12.811   2.509
34522W        W 1063  22.752   0.300  14.490
34523W        W 1064   7.474   6.709   1.452
34524W        W 1065  32.155  35.950   3.275
34525W        W 1066  43.712   5.232   0.014
34526W        W 1067  36.346   2.573   3.975
34527W        W 1068  18.029  44.244   1.307
34528W        W 1069   1.874  40.282   4.140
34529W        W 1070  14.942   4.196  12.523
34530W        W 1071  14.303  23.115   0.706
34531W        W 1072  33.537  37.177   3.244
34532W        W 1073  10.132   9.891  10.020
34533W        W 1074  42.311  28.505  12.025
34534W        W 1075   7.428  11.235  14.382
34535W        W 1076   4.993   4.344   0.759
34536W        W 1077  38.996   4.843  14.015
34537W        W 1078  36.376   7.178   0.736
34538W        W 1079  21.756  17.088  13.322
34539W        W 1080   3.344  17.351   1.649
34540W        W 1081  42.002  42.818  12.536
34541W        W 1082  17.018   2.936   4.348
34542W        W 1083  12.939  21.293  12.883
34543W        W 1084  14.219  14.288  12.175
34544W        W 1085  10.918  11.661   2.825
34545W        W 1086  43.789  18.055   4.690
34546W        W 1087  39.839  33.862   1.752
34547W        W 1088  43.959   1.206   1.314
34548W        W 1089  31.562  28.056  14.525
34549W        W 1090  25.439  19.619   0.858
34550W        W 1091  28.504  20.388  12.975
34551W        W 1092  40.489  41.839  12.499
34552W        W 1093  29.627   4.437  14.310
34553W        W 1094  13.093  10.885  11.724
34554W        W 1095  31.964  10.343  12.647
34555W        W 1096  31.134  38.108   2.822
34556W        W 1097  29.144  15.358   1.221
34557W        W 1098   1.371  17.829  11.555
34558W        W 1099  23.267  36.432  12.267
34559W        W 1100  36.171  26.715  10.967
34560W        W 1101  29.496  21.417  13.958
34561W        W 1102  41.801  16.984   2.807
34562W        W 1103   6.948  27.009   4.199
34563W        W 1104  16.120  17.446  10.053
34564W        W 1105  38.212  43.790  14.963
34565W        W 1106  18.046  41.833   2.305
34566W        W 1107  17.048  38.183  10.702
34567W        W 1108  33.007   3.544  12.597
34568W        W 1109  41.008  34.651   0.403
34569W        W 1110   6.253  15.802   1.921
34570W        W 1111  13.558   6.964  11.548
34571W        W 1112  24.562  25.109  10.990
34572W        W 1113   3.392  13.099   4.303
34573W        W 1114  27.186   9.670   2.260
34574W        W 1115   9.229  29.280  10.316
34575W        W 1116  40.004  43.833  13.022
34576W        W 1117  28.448  37.932  11.994
34577W        W 1118  30.858  25.765  14.281
34578W        W 1119  38.074  33.694   0.512
34579W        W 1120  14.861   5.244  11.481
34580W        W 1121  21.827   6.625   0.702
34581W        W 1122  12.433  39.972  12.588
34582W        W 1123   4.902  22.770   3.573
34583W        W 1124  21.585  25.822   1.332
34584W        W 1125  25.295  26.091  13.799
34585W        W 1126   6.722  14.902   1.322
34586W        W 1127   2.379  20.452  11.649
34587W        W 1128   6.799   3.202  12.502
34588W        W 1129  39.353  35.622   0.935
34589W        W 1130  33.902   6.130  10.044
34590W        W 1131  32.932  43.506  13.809
34591W        W 1132  29.178   6.072  14.865
34592W        W 1133  37.982   0.806   2.885
34593W        W 1134  30.355  18.483   3.195
34594W        W 1135  44.379  20.811  10.632
34595W        W 1136   1.442  19.832  13.494
34596W        W 1137  30.216  34.468   2.827
34597W        W 1138   6.218   2.724  12.768
34598W        W 1139  24.192  16.145  14.739
34599W        W 1140  43.172   2.566  13.313
34600W        W 1141  17.278  28.027  11.017
34601W        W 1142  23.710  21.832   2.686
34602W        W 1143  39.400   7.940   1.373
34603W        W 1144  41.901  31.533   3.600
34604W        W 1145   7.835   9.865   2.227
34605W        W 1146  21.830  23.700  12.662
34606W        W 1147  29.964  42.284   4.149
34607W        W 1148  36.996  14.990   0.903
34608W        W 1149  27.802   6.221   3.741
34609W        W 1150  30.814  14.081   0.389
34610W        W 1151  34.851  13.871  10.297
34611W        W 1152   3.548  30.013   1.716
34612W        W 1153  42.957  24.692   3.302
34613W        W 1154  19.382  28.092  13.991
34614W        W 1155  29.663  29.105   4.287
34615W        W 1156   9.306  17.769   0.462
34616W        W 1157  39.270  18.602  13.291
34617W        W 1158   2.435   7.185   3.084
34618W        W 1159  14.512  17.613   4.064
34619W        W 1160  42.367   7.210   4.521
34620W        W 1161  33.459  36.872  10.807
34621W        W 1162   7.208  23.676   1.837
34622W        W 1163  25.059   3.715   3.833
34623W        W 1164  27.399  24.034   2.157
34624W        W 1165  26.017  30.991  14.158
34625W        W 1166   8.768  12.740   1.230
34626W        W 1167  11.795  44.892  12.921
34627W        W 1168  43.399  40.599   2.219
34628W        W 1169  24.379  38.410  11.504
34629W        W 1170  40.436  25.090   2.612
34630W        W 1171   1.833  14.225   2.622
34631W        W 1172  25.751  14.262   2.122
34632W        W 1173  32.628  18.046  11.860
34633W        W 1174  34.253  40.009   2.800
34634W        W 1175  26.065  25.753  10.679
34635W        W 1176   6.745   5.209   3.911
34636W        W 1177  18.590  32.684   3.358
34637W        W 1178   0.668  25.932  12.010
34638W        W 1179  15.354   2.912  10.813
34639W        W 1180   7.153  28.529   4.020
34640W        W 1181  13.138  41.849   3.627
34641W        W 1182  27.452  16.124   4.833
34642W        W 1183  36.973  21.776   1.890
34643W        W 1184  25.482  14.240   4.145
34644W        W 1185   1.807  15.294  10.755
34645W        W 1186  41.290  12.335  13.047
34646W        W 1187  24.583   5.926  12.772
34647W        W 1188  26.482  29.374  12.908
34648W        W 1189  19.421  40.085  11.984
34649W        W 1190  22.988  37.924   2.889
34650W        W 1191  27.652  13.155   3.641
34651W        W 1192  38.020  43.314   3.844
34652W        W 1193   4.642  23.655  12.861
34653W        W 1194  11.078   7.312   0.930
34654W        W 1195  23.571  44.072  14.149
34655W        W 1196  36.384  27.541  14.912
34656W        W 1197  19.586  14.759  13.391
34657W        W 1198  33.946  43.486   2.651
34658W        W 1199  37.635  17.674  14.450
34659W        W 1200   1.438  15.061   4.005
34660W        W 1201  14.734  39.407   3.711
34661W        W 1202  21.985   8.875   2.500
34662W        W 1203  20.538  21.643   3.910
34663W        W 1204  36.615  40.349  11.013
34664W        W 1205   1.976  43.375   3.923
34665W        W 1206  35.829  31.630  14.317
34666W        W 1207  43.907  15.713  10.550
34667W        W 1208  34.356   2.859   1.835
34668W        W 1209  25.145  25.072   0.305
34669W        W 1210   8.854   5.959   4.631
34670W        W 1211  16.080  13.166   0.122
34671W        W 1212   5.418  40.985   3.679
34672W        W 1213   7.331   4.428   3.798
34673W        W 1214  23.090  34.526   3.415
34674W        W 1215  36.488   2.280  14.878
34675W        W 1216  20.770  20.771   2.880
34676W        W 1217  22.039  30.348  13.409
34677W        W 1218  38.927  15.803   3.653
34678W        W 1219  30.784   9.175   4.084
34679W        W 1220  31.830  16.854  13.071
34680W        W 1221  35.498   3.026  14.339
34681W        W 1222  14.608  12.313   0.764
34682W        W 1223  15.914  36.542  11.537
34683W        W 1224   3.701  20.369  14.173
34684W        W 1225   4.587  20.730  13.952
34685W        W 1226  23.473   6.268  11.599
34686W        W 1227  19.823  39.493  14.902
34687W        W 1228  15.301  31.100   1.376
34688W        W 1229  26.902  38.830  12.423
34689W        W 1230   3.275  36.455   1.406
34690W        W 1231  12.720  27.661  13.040
34691W        W 1232  18.838  27.500   1.257
34692W        W 1233  31.082   4.993  10.865
34693W        W 1234   5.396  42.296   3.758
34694W        W 1235  39.710  16.161   4.116
34695W        W 1236  21.298   4.381   3.547
34696W        W 1237   6.733  31.600   2.854
34697W        W 1238   1.494  12.247   4.302
34698W        W 1239   4.079  42.710  10.702
34699W        W 1240   4.463  29.342  13.370
34700W        W 1241  44.440  24.312   4.295
34701W        W 1242   3.295  31.194  14.444
34702W        W 1243   1.517  44.773   0.283
34703W        W 1244  24.676   3.179   0.948
34704W        W 1245   5.395  43.419   4.407
34705W        W 1246   2.699   0.377   0.436
34706W        W 1247  33.832  19.569   3.627
34707W        W 1248  18.299  38.350  11.646
34708W        W 1249  20.804  14.116  14.555
34709W        W 1250  44.694  13.266  11.117
34710W        W 1251  23.799  19.113  13.985
34711W        W 1252  17.283  42.684   9.786
34712W        W 1253  14.525  31.105  12.016
34713W        W 1254  30.681  23.649   4.552
34714W        W 1255  42.355  23.294  12.444
34715W        W 1256  18.538  12.291  10.587
34716W        W 1257  26.072  21.954  12.084
34717W        W 1258  28.448  19.220  13.532
34718W        W 1259  38.809   9.029   1.897
34719W        W 1260  36.865  43.895  12.007
34720W        W 1261   5.795  17.674   4.425
34721W        W 1262   1.887  13.284   1.677
34722W        W 1263  32.969  23.206   4.828
34723W        W 1264  29.389   2.917  11.634
34724W        W 1265  31.700  20.179   3.098
34725W        W 1266  43.432  23.607   2.848
34726W        W 1267  15.520  38.073  13.216
34727W        W 1268  24.030  29.154   1.722
34728W        W 1269  25.463  28.012  14.965
34729W        W 1270   2.377  43.436   3.616
34730W        W 1271  26.030  44.687   3.599
34731W        W 1272   7.751  36.796   2.514
34732W        W 1273  12.088  10.217  11.172
34733W        W 1274  11.266  41.997  14.548
34734W        W 1275  28.017  41.402   4.528
34735W        W 1276  36.543   4.222   0.690
34736W        W 1277  30.219  28.464  14.531
34737W        W 1278  26.104  29.375   1.312
34738W        W 1279  34.958   1.082   2.781
34739W        W 1280   6.896  32.621  11.459
34740W        W 1281  39.443   0.535   1.388
34741W        W 1282  18.285  32.952   4.500
34742W        W 1283  29.096  43.363   2.873
34743W        W 1284   1.524  34.807   3.236
34744W        W 1285   8.192  12.235  10.714
34745W        W 1286  21.577  12.201   2.155
34746W        W 1287  29.103  18.600   4.407
34747W        W 1288  44.759   6.263  12.966
34748W        W 1289  21.689  26.984   3.139
34749W        W 1290  35.440  25.062  12.704
34750W        W 1291   2.999  18.197   3.213
34751W        W 1292   2.303  38.401   1.143
34752W        W 1293  44.449  36.344   4.252
34753W        W 1294  23.955  30.158  14.122
34754W        W 1295  40.598  17.206   1.417
34755W        W 1296  21.970  23.935   0.866
34756W        W 1297  11.243  36.310   3.712
34757W        W 1298   3.766  13.298   4.694
34758W        W 1299   5.411  43.916   2.851
34759W        W 1300  36.639  30.051  13.879
34760W        W 1301  14.864  30.656   3.618
34761W        W 1302  16.077  26.339   2.719
34762W        W 1303  10.933  19.105   0.565
34763W        W 1304   6.220  29.441  11.579
34764W        W 1305  25.556   5.380   2.319
34765W        W 1306  34.457  19.552  12.552
34766W        W 1307   9.804  33.136   0.691
34767W        W 1308  11.665   8.617   0.493
34768W        W 1309   8.737  41.904   4.677
34769W        W 1310  40.817  35.472  11.692
34770W        W 1311  37.643  20.380   4.084
34771W        W 1312  15.513  28.433  13.963
34772W        W 1313  29.026  37.872   1.150
34773W        W 1314  31.165  12.990   4.081
34774W        W 1315  27.597  19.024  11.667
34775W        W 1316  41.781  32.089  14.425
34776W        W 1317  40.935  40.479  13.811
34777W        W 1318  28.972  24.005   1.387
34778W        W 1319  37.478  18.675  14.690
34779W        W 1320  39.462  23.807   3.240
34780W        W 1321  23.486   3.684   3.154
34781W        W 1322  35.870  38.018   2.204
34782W        W 1323  41.507  21.095  12.428
34783W        W 1324  31.563  28.911   4.112
34784W        W 1325  32.068  39.987  12.528
34785W        W 1326  24.024  19.641  14.217
34786W        W 1327  35.005  14.384  14.357
34787W        W 1328  12.839  38.929  10.393
34788W        W 1329  40.818  44.746   4.412
34789W        W 1330  38.416  14.166   1.921
34790W        W 1331  19.096   5.848  13.052
34791W        W 1332  10.842   9.953   2.390
34792W        W 1333   8.378  12.104  11.179
34793W        W 1334  23.609  28.187   2.879
34794W        W 1335   3.305  27.690   1.146
34795W        W 1336   7.765  26.017   9.779
34796W        W 1337  37.025   0.195  11.635
34797W        W 1338  23.113   2.736   1.933
34798W        W 1339   8.615  14.318   3.073
34799W        W 1340   8.352  33.664  12.983
34800W        W 1341   8.363  31.210   0.344
34801W        W 1342   3.345  17.538   2.368
34802W        W 1343   9.602  44.468  14.980
34803W        W 1344  30.513  34.572  14.282
34804W        W 1345  10.399  22.593   1.314
34805W        W 1346  28.401   2.980  14.843
34806W        W 1347  16.874  34.058  13.161
34807W        W 1348  42.560   9.774  11.164
34808W        W 1349  42.367  33.301  11.670
34809W        W 1350  37.053  37.485   0.923
34810W        W 1351   4.420   1.360   3.564
34811W        W 1352  19.043  30.429  13.352
34812W        W 1353  25.079  26.742   2.338
34813W        W 1354   4.119  25.308   4.107
34814W        W 1355  32.927  31.865   1.818
34815W        W 1356  40.904  35.593   4.882
34816W        W 1357  18.982  15.902  11.962
34817W        W 1358   9.896   9.792  12.599
34818W        W 1359  32.019  22.304   0.510
34819W        W 1360  12.913  20.068  12.441
34820W        W 1361  44.140  18.678   4.319
34821W        W 1362  23.121  40.101  13.371
34822W        W 1363  39.882  16.791   0.955
34823W        W 1364   0.241  37.550  13.265
34824W        W 1365  11.698  26.664   2.303
34825W        W 1366  20.670  38.378   1.894
34826W        W 1367   1.389   5.727  12.725
34827W        W 1368  39.428  24.001   0.579
34828W        W 1369  32.227   5.032   4.160
34829W        W 1370  13.290  43.170  10.436
34830W        W 1371  13.115  26.730  13.094
34831W        W 1372  37.856   2.813   2.925
34832W        W 1373  32.110  20.967   2.288
34833W        W 1374  43.150  13.835   2.906
34834W        W 1375  20.092   9.675  12.025
34835W        W 1376  32.943  29.498   0.542
34836W        W 1377  17.730   5.686  12.959
34837W        W 1378  11.112   4.521   2.910
34838W        W 1379   0.618  23.320  12.907
34839W        W 1380  10.717  26.435   1.766
34840W        W 1381  34.008  35.985   1.178
34841W        W 1382  27.007   4.201  13.705
34842W        W 1383  28.891  12.989  12.449
34843W        W 1384  35.052  37.439   4.679
34844W        W 1385  23.195  10.278   1.460
34845W        W 1386  23.130   4.100   2.337
34846W        W 1387  20.058  26.187   1.853
34847W        W 1388  15.950   7.471   0.168
34848W        W 1389  24.192  17.786  11.636
34849W        W 1390  27.494   8.898   1.650
34850W        W 1391  20.654  36.102   0.321
34851W        W 1392  39.902   9.760   3.133
34852W        W 1393   2.961  40.602   1.474
34853W        W 1394   4.432  20.583   3.400
34854W        W 1395  18.157  15.664   0.933
34855W        W 1396   5.539  43.917  12.519
34856W        W 1397  38.832  12.605   0.790
34857W        W 1398   9.185  31.104  13.916
34858W        W 1399  29.590  27.091  11.442
34859W        W 1400  39.013   5.648  13.443
34860W        W 1401  23.432   2.943  10.438
34861W        W 1402  34.432  34.186  14.034
34862W        W 1403  26.569  26.941   0.739
34863W        W 1404  10.250  27.396  12.973
34864W        W 1405  32.956  38.303   0.464
34865W        W 1406  33.326  22.627  14.827
34866W        W 1407   7.842  43.209  14.929
34867W        W 1408  40.050  27.402   4.166
34868W        W 1409  14.545  29.697   3.845
34869W        W 1410  36.800  16.756   1.607
34870W        W 1411  36.528   2.425  12.504
34871W        W 1412  24.469  19.577   4.121
34872W        W 1413  42.453  39.582  13.007
34873W        W 1414  19.783  40.485   0.891
34874W        W 1415  25.995  14.827  14.784
34875W        W 1416  17.640  19.655   0.737
34876W        W 1417   7.225   7.709  13.083
34877W        W 1418  14.897  27.087  11.845
34878W        W 1419  14.857  41.581  13.057
34879W        W 1420   4.702  14.866   0.459
34880W        W 1421  42.831  27.706   3.218
34881W        W 1422  23.221   0.955   3.537
34882W        W 1423  17.867  40.997   3.507
34883W        W 1424  13.339  10.104  11.494
34884W        W 1425  44.006  34.877   2.335
34885W        W 1426  20.075  40.408  12.861
34886W        W 1427  39.038  37.118   1.474
34887W        W 1428  35.892   1.712  14.463
34888W        W 1429  42.938  42.806  10.734
34889W        W 1430  27.611  11.862  11.874
34890W        W 1431  39.443  32.653  12.896
34891W        W 1432   6.804  41.417   1.007
34892W        W 1433  34.772  29.612   1.199
34893W        W 1434   6.398  19.218  13.298
34894W        W 1435  31.908  38.968  11.678
34895W        W 1436  17.889  44.009  12.007
34896W        W 1437  19.181  23.166  11.607
34897W        W 1438  25.212  40.389   4.510
34898W        W 1439   8.858  33.865  14.044
34899W        W 1440  35.536  20.261  14.073
34900W        W 1441  21.609   8.253  14.391
34901W        W 1442   6.698   3.500  13.026
34902W        W 1443   3.141  29.667  14.758
34903W        W 1444  23.781  22.057   3.591
34904W        W 1445  43.906  40.491  11.613
34905W        W 1446   0.578   1.095  14.551
34906W        W 1447  44.251  21.689   4.054
34907W        W 1448  38.797   7.872   0.777
34908W        W 1449   0.352  29.891   1.856
34909W        W 1450  28.206  27.420  11.199
34910W        W 1451  22.440  11.567   1.280
34911W        W 1452  44.581  11.627  12.039
34912W        W 1453   5.811  28.970   0.338
34913W        W 1454   8.499   7.819   4.523
34914W        W 1455  16.347  30.153   2.364
34915W        W 1456  19.801   5.289  13.009
34916W        W 1457  31.383  34.453   2.401
34917W        W 1458  34.327  17.354   2.545
34918W        W 1459  24.973  21.571  11.470
34919W        W 1460  29.390  30.410  12.933
34920W        W 1461  39.592  13.953  12.141
34921W        W 1462  22.593  29.528   0.434
34922W        W 1463  31.375  42.816   0.476
34923W        W 1464  38.313  12.419  13.262
34924W        W 1465   3.447  37.287   4.497
34925W        W 1466  23.224  22.749   2.293
34926W        W 1467  32.884  10.013   2.700
34927W        W 1468  24.263  35.757  12.706
34928W        W 1469  15.392   7.432  11.928
34929W        W 1470   8.413   7.808   3.607
34930W        W 1471  23.981   7.660  14.226
34931W        W 1472  34.349  37.423   0.791
34932W        W 1473  24.262   5.200   0.284
34933W        W 1474  33.608   6.258   1.791
34934W        W 1475   1.483  32.891   4.268
34935W        W 1476   0.436  17.053  12.833
34936W        W 1477   1.763   7.411  12.873
34937W        W 1478  27.186  38.925  13.412
34938W        W 1479  36.105  24.533   0.250
34939W        W 1480  23.627   6.688   0.225
34940W        W 1481  16.715  37.369   0.466
34941W        W 1482   0.938  14.788  12.672
34942W        W 1483   3.365  11.606   4.256
34943W        W 1484   8.476   3.148  14.671
34944W        W 1485  23.719  22.483  13.020
34945W        W 1486  12.156  27.420   2.411
34946W        W 1487  13.006  30.809   5.538
34947W        W 1488  32.530  31.083   3.155
34948W        W 1489  15.780  24.715  12.083
34949W        W 1490  37.480  29.729   2.586
34950W        W 1491  22.084  29.277   0.314
34951W        W 1492   3.330  43.841  14.965
34952W        W 1493  23.434  33.474  13.493
34953W        W 1494  41.427  18.253   2.713
34954W        W 1495  11.778  36.602  14.240
34955W        W 1496   9.164  24.682   2.009
34956W        W 1497  18.279  36.796   3.639
34957W        W 1498   2.178  23.775  13.101
34958W        W 1499  32.549  34.034   0.355
34959W        W 1500  10.375  14.109   0.075
34960W        W 1501  26.166  33.785   2.630
34961W        W 1502  24.503   3.340   4.595
34962W        W 1503  28.487   2.889  10.675
34963W        W 1504   4.913  40.845  12.055
34964W        W 1505  19.439  33.651  14.924
34965W        W 1506  43.022  11.789  11.979
34966W        W 1507  43.268  35.202  12.109
34967W        W 1508   2.913  26.993   1.846
34968W        W 1509   3.587   2.236   3.220
34969W        W 1510   2.969   4.472   3.730
34970W        W 1511  42.316   3.786   3.942
34971W        W 1512  38.322  44.447  10.621
34972W        W 1513  10.144  15.183  11.197
34973W        W 1514  44.837  12.083  12.075
34974W        W 1515   3.477  29.887  11.159
34975W        W 1516  26.826  10.797   3.635
34976W        W 1517  37.010  42.985  11.994
34977W        W 1518  43.027  21.026   1.894
34978W        W 1519  15.090  22.986   3.250
34979W        W 1520   1.407  16.920  11.964
34980W        W 1521   6.438  14.223   3.575
34981W        W 1522  14.212  28.903  11.156
34982W        W 1523  42.969  40.916   0.388
34983W        W 1524  11.849   2.882   4.002
34984W        W 1525  26.347  37.957   0.646
34985W        W 1526  12.075  41.308   4.843
34986W        W 1527  44.153   5.388  13.317
34987W        W 1528   5.279  28.234   3.717
34988W        W 1529  41.486  19.277   0.249
34989W        W 1530   1.511  31.623  13.611
34990W        W 1531  22.835  42.411  14.836
34991W        W 1532   8.100  34.983  11.449
34992W        W 1533  14.259  27.401   4.582
34993W        W 1534  19.300  17.747   1.738
34994W        W 1535  24.064  26.583   0.709
34995W        W 1536   1.145   1.930  13.977
34996W        W 1537  19.095  14.320   1.148
34997W        W 1538  23.433  34.520   2.675
34998W        W 1539  13.593  39.321   3.939
34999W        W 1540  41.969  16.440  12.002
35000W        W 1541  42.621  32.193   1.792
35001W        W 1542   8.288  37.067   4.564
35002W        W 1543  29.547   9.876   1.900
35003W        W 1544  24.001   2.286  14.594
35004W        W 1545  26.698  35.089   0.783
35005W        W 1546  29.962  32.124  13.827
35006W        W 1547   8.335   4.988  14.816
35007W        W 1548   8.830  29.218  10.673
35008W        W 1549  34.948   7.773  13.522
35009W        W 1550  14.074  41.099   2.409
35010W        W 1551  41.124   8.847   4.236
35011W        W 1552  26.960  41.335   2.966
35012W        W 1553  16.065  14.377  10.585
35013W        W 1554  43.452   2.839  12.422
35014W        W 1555   3.725  20.646   1.742
35015W        W 1556  42.162  33.076   2.844
35016W        W 1557  31.450  27.774  11.579
35017W        W 1558  32.071  16.875  12.195
35018W        W 1559  32.171  43.245  11.646
35019W        W 1560  25.185  29.946   3.194
35020W        W 1561  25.657  29.504  12.555
35021W        W 1562  28.797  18.920   0.758
35022W        W 1563  36.513  26.583   1.582
35023W        W 1564  21.505  13.066   3.110
35024W        W 1565  43.086  32.915  11.019
35025W        W 1566  41.305  15.753   3.884
35026W        W 1567  41.935  21.325   2.225
35027W        W 1568  29.010  43.473  11.601
35028W        W 1569  13.785  14.253   3.317
35029W        W 1570   4.008   8.491  14.544
35030W        W 1571  18.617  42.306  10.540
35031W        W 1572  18.033  14.067  11.622
35032W        W 1573  24.522  14.092   4.131
35033W        W 1574  43.732  10.292   2.656
35034W        W 1575  26.244  14.585  12.367
35035W        W 1576  30.654  28.103  14.953
35036W        W 1577  24.472  13.774  11.847
35037W        W 1578  20.473  30.199  13.668
35038W        W 1579  44.545  34.077  14.832
35039W        W 1580   8.628   4.755  11.990
35040W        W 1581  36.412   3.425   2.820
35041W        W 1582  12.884  44.962   3.383
35042W        W 1583   3.314  36.007  10.856
35043W        W 1584  39.557  38.937  12.662
35044W        W 1585  23.202  15.820  13.453
35045W        W 1586  26.514  31.168  14.295
35046W        W 1587   1.402  40.556  10.537
35047W        W 1588  20.169  41.228  12.582
35048W        W 1589  12.189  14.664   0.762
35049W        W 1590  11.562  37.456  11.149
35050W        W 1591  37.153  42.965   4.271
35051W        W 1592   7.326  19.724   2.336
35052W        W 1593  26.645  36.587  14.727
35053W        W 1594  32.543  30.568   1.231
35054W        W 1595  22.733  24.965  14.926
35055W        W 1596  33.496  13.843   3.765
35056W        W 1597   9.646  23.154  14.765
35057W        W 1598   6.785  28.937   4.525
35058W        W 1599  11.785  29.485  12.474
35059W        W 1600  10.679  32.093  13.127
35060W        W 1601  38.749  28.808  12.116
35061W        W 1602  26.857  10.849   1.709
35062W        W 1603   4.222  43.833   5.537
35063W        W 1604  44.797   9.228  13.138
35064W        W 1605   5.924  24.217  14.462
35065W        W 1606  32.594  12.062  11.549
35066W        W 1607  15.544  32.552   5.332
35067W        W 1608  11.740   8.118  14.153
35068W        W 1609  13.137  23.818  13.871
35069W        W 1610   7.763   1.929  13.815
35070W        W 1611   0.983   8.390   0.430
35071W        W 1612  29.742   3.756   0.440
35072W        W 1613   0.231  15.623   2.181
35073W        W 1614  26.764   3.805  13.435
35074W        W 1615  31.623  14.606  13.456
35075W        W 1616   6.791  34.155  14.984
35076W        W 1617  11.363   9.546   0.247
35077W        W 1618   3.678  10.671  12.883
35078W        W 1619  19.182  20.315   2.915
35079W        W 1620  15.353   6.292   3.763
35080W        W 1621   5.099  27.724   2.355
35081W        W 1622  17.185  18.979  11.655
35082W        W 1623  20.016  20.389  13.565
35083W        W 1624  34.006  22.569  13.066
35084W        W 1625   6.891  24.226   5.104
35085W        W 1626  10.193  21.739  12.943
35086W        W 1627   1.286  13.261   2.883
35087W        W 1628   2.754  36.880   2.422
35088W        W 1629   8.202  24.515   0.945
35089W        W 1630  41.347  11.059  11.517
35090W        W 1631  27.719   6.331   3.238
35091W        W 1632  24.295  36.583   0.885
35092W        W 1633  38.391  33.049   2.162
35093W        W 1634   0.640   9.712  12.505
35094W        W 1635   8.369  43.504  13.837
35095W        W 1636  26.216  35.325  13.879
35096W        W 1637  37.846  31.852   2.638
35097W        W 1638  23.800  35.865   1.390
35098W        W 1639  14.022   1.126  12.705
35099W        W 1640  15.587  30.938  11.105
35100W        W 1641  15.842  24.805  11.565
35101W        W 1642  26.717  13.552  11.342
35102W        W 1643  16.646  13.020   4.940
35103W        W 1644  34.355   5.396   0.461
35104W        W 1645  11.088  44.704  12.401
35105W        W 1646  21.111  44.753   3.075
35106W        W 1647  40.473  41.765  14.374
35107W        W 1648   0.462  20.476   1.705
35108W        W 1649   5.516   4.911   3.643
35109W        W 1650  17.239  18.742  13.440
35110W        W 1651  23.042  38.897  14.892
35111W        W 1652  12.807   3.704  14.742
35112W        W 1653   4.270   9.644   0.197
35113W        W 1654  31.894  33.649   2.284
35114W        W 1655  36.935  41.948  13.927
35115W        W 1656  19.502  10.626  12.008
35116W        W 1657  20.732  39.835  12.765
35117W        W 1658   6.460  23.434  13.345
35118W        W 1659  30.899  11.816  13.415
35119W        W 1660  22.184  29.718  10.326
35120W        W 1661  25.066  22.827  12.182
35121W        W 1662  21.822  34.867   3.525
35122W        W 1663   4.258  19.739  14.387
35123W        W 1664  36.760  38.931   3.550
35124W        W 1665  19.959   6.396   5.387
35125W        W 1666  16.225  33.443   4.154
35126W        W 1667   2.256   9.435  14.437
35127W        W 1668  22.076  17.051   1.895
35128W        W 1669   1.242  23.970  11.032
35129W        W 1670  35.440   5.191  13.912
35130W        W 1671  13.581   0.926   2.047
35131W        W 1672   0.424  42.042  12.941
35132W        W 1673  41.276  30.448  11.667
35133W        W 1674  24.834  39.170  11.186
35134W        W 1675  26.194  41.313   2.255
35135W        W 1676  32.994  34.581  13.718
35136W        W 1677  31.911   9.248   4.218
35137W        W 1678  34.002  33.657   3.125
35138W        W 1679  41.985  33.493  13.023
35139W        W 1680  29.420  22.738  11.347
35140W        W 1681  14.309   4.910   4.956
35141W        W 1682  38.401  29.513   1.456
35142W        W 1683  29.212  44.811   1.816
35143W        W 1684  23.308  30.883   4.160
35144W        W 1685  23.937  38.285   3.799
35145W        W 1686  42.649  19.887   4.631
35146W        W 1687  32.919  21.729   2.837
35147W        W 1688  41.933  43.593   4.075
35148W        W 1689  16.710  19.861   3.212
35149W        W 1690   0.847   7.374  11.587
35150W        W 1691  42.497  44.055   1.406
35151W        W 1692  29.190  33.953   1.480
35152W        W 1693  24.855   6.330   4.976
35153W        W 1694  32.339  24.293   4.354
35154W        W 1695   5.933  35.372   1.911
35155W        W 1696  29.955  17.391  12.777
35156W        W 1697   3.848  18.484   3.674
35157W        W 1698  21.673  21.168   0.650
35158W        W 1699  16.196  40.052  13.456
35159W        W 1700  31.695  44.439   0.873
35160W        W 1701  15.167   6.028  11.799
35161W        W 1702   7.171   7.665  14.612
35162W        W 1703   1.508  40.528  12.537
35163W        W 1704   9.951   3.112   4.773
35164W        W 1705  39.807   3.817   2.916
35165W        W 1706  38.194  19.766  12.348
35166W        W 1707  16.922  21.914   0.306
35167W        W 1708  11.726  13.148  10.809
35168W        W 1709  41.039  11.540   2.722
35169W        W 1710  32.978   3.332   2.787
35170W        W 1711  31.463   9.449  10.324
35171W        W 1712  39.546  22.918   2.840
35172W        W 1713  11.357  22.387   3.215
35173W        W 1714   0.968  10.740   1.433
35174W        W 1715   2.487  21.516  13.958
35175W        W 1716  24.230   1.288  13.433
35176W        W 1717  15.605  28.166  13.497
35177W        W 1718  11.306  25.641   3.203
35178W        W 1719  11.159  33.862  13.429
35179W        W 1720  43.355  23.766  11.862
35180W        W 1721  11.831  22.041  12.835
35181W        W 1722   7.404  14.786  12.933
35182W        W 1723  41.091   7.271   2.345
35183W        W 1724  17.644   9.937  11.906
35184W        W 1725   4.299  36.883  12.957
35185W        W 1726  42.191  20.071  13.004
35186W        W 1727  25.970  20.795   3.317
35187W        W 1728  23.230  37.927  12.951
35188W        W 1729   7.231  34.098  10.792
35189W        W 1730  29.576  35.925  12.742
35190W        W 1731  39.916   9.089   1.422
35191W        W 1732  39.077   0.523  11.159
35192W        W 1733   0.298  33.322  11.980
35193W        W 1734  42.985   5.913  11.471
35194W        W 1735  27.502  39.029  10.394
35195W        W 1736   1.048   4.212  11.875
35196W        W 1737   5.462   5.716  12.381
35197W        W 1738  25.034  17.838  14.848
35198W        W 1739  27.559  27.497  12.044
35199W        W 1740  26.421   4.488  12.461
35200W        W 1741  23.616  40.617   2.722
35201W        W 1742  26.474  17.574   0.477
35202W        W 1743   9.143  21.298   2.403
35203W        W 1744  31.707  16.604  14.758
35204W        W 1745  18.180  10.602   4.849
35205W        W 1746  38.471  43.406   4.195
35206W        W 1747   8.613  19.155   0.926
35207W        W 1748  10.833   4.969   2.747
35208W        W 1749   5.391  31.609   3.233
35209W        W 1750  13.232  10.961  13.065
35210W        W 1751   1.815  19.593  14.787
35211W        W 1752  42.765  43.191  13.293
35212W        W 1753  36.538  39.233  14.325
35213W        W 1754   5.924  34.260   1.081
35214W        W 1755  10.659   0.672  10.960
35215W        W 1756  31.480  17.660   2.352
35216W        W 1757  20.721   3.784   2.813
35217W        W 1758  31.668  18.591   1.276
35218W        W 1759  34.921  13.306   3.157
35219W        W 1760  36.910  25.041   0.730
35220W        W 1761  29.696  28.073   1.304
35221W        W 1762  10.123  12.793   2.422
35222W        W 1763  10.369   0.823   1.386
35223W        W 1764   0.539  41.132  11.636
35224W        W 1765  34.628  20.567   3.675
35225W        W 1766  28.666  20.261   0.792
35226W        W 1767  39.735   3.806   4.372
35227W        W 1768   4.102   8.858   2.468
35228W        W 1769   2.930  44.894  13.300
35229W        W 1770  11.195  27.425  14.857
35230W        W 1771  10.349  14.333  12.429
35231W        W 1772  39.881  31.500  13.164
35232W        W 1773   7.458  23.979  14.462
35233W        W 1774  42.454  42.544   0.508
35234W        W 1775  33.148  36.186  12.429
35235W        W 1776  37.531   2.026  10.806
35236W        W 1777   6.573   7.053   1.176
35237W        W 1778   1.753  36.052   0.617
35238W        W 1779  18.690  19.823   4.411
35239W        W 1780   2.865   4.545   0.737
35240W        W 1781  16.905  17.873  11.684
35241W        W 1782  10.955  14.830   2.460
35242W        W 1783   8.176  10.564   4.702
35243W        W 1784  43.880  27.965  13.459
35244W        W 1785  37.521  30.593  10.988
35245W        W 1786   3.745  20.566  10.666
35246W        W 1787  38.107  29.157  13.058
35247W        W 1788  29.792  14.537   0.938
35248W        W 1789  30.533  24.178   4.290
35249W        W 1790  24.491  42.873  14.346
35250W        W 1791  44.740  24.722   2.912
35251W        W 1792  21.985  10.645   4.163
35252W        W 1793  36.402   7.745   3.728
35253W        W 1794  28.181   7.703   1.864
35254W        W 1795   6.931   8.286   4.877
35255W        W 1796  10.430  26.716   1.327
35256W        W 1797  22.289  27.970  12.117
35257W        W 1798   4.983  21.550  11.362
35258W        W 1799  15.724  33.022  13.023
35259W        W 1800   7.714  40.531  13.816
35260W        W 1801  31.064  32.856   3.812
35261W        W 1802   9.231  12.752  13.976
35262W        W 1803  31.449  43.368   5.140
35263W        W 1804  21.985   5.660   2.578
35264W        W 1805  19.310  38.341  13.667
35265W        W 1806  16.796  31.194  14.373
35266W        W 1807  44.031  12.559   1.510
35267W        W 1808  17.944   3.477  10.899
35268W        W 1809  41.282  27.919   2.385
35269W        W 1810  29.551  27.148  13.021
35270W        W 1811   1.526  32.072   0.345
35271W        W 1812   4.358  29.180   3.276
35272W        W 1813  41.039   8.317  11.931
35273W        W 1814  33.664  20.788  13.041
35274W        W 1815  21.624   3.825   1.975
35275W        W 1816  17.198  44.286   2.113
35276W        W 1817  24.143  22.133  11.450
35277W        W 1818   9.582   6.960  11.632
35278W        W 1819  27.924  40.575  14.941
35279W        W 1820  28.184  23.710  11.915
35280W        W 1821  27.531  26.724  11.465
35281W        W 1822  12.438  31.399   4.129
35282W        W 1823  13.479  29.948  14.120
35283W        W 1824  36.413  24.882  13.597
35284W        W 1825  25.936  20.554  12.230
35285W        W 1826  42.738   6.097   3.725
35286W        W 1827  31.085   1.272   4.120
35287W        W 1828  12.303  32.576   4.935
35288W        W 1829  28.213   8.716  11.322
35289W        W 1830  29.906  44.412  14.815
35290W        W 1831  20.447   9.368  10.700
35291W        W 1832  23.659   1.471  14.387
35292W        W 1833  32.066  13.654  14.772
35293W        W 1834  38.224  36.142  13.416
35294W        W 1835   3.692  30.477   5.110
35295W        W 1836   7.190  21.187   3.981
35296W        W 1837   1.255   6.374   0.355
35297W        W 1838  39.540  12.071   2.403
35298W        W 1839  11.242  11.130   4.226
35299W        W 1840  17.279  34.761  10.354
35300W        W 1841  35.857  39.923  14.707
35301W        W 1842  13.692  41.263  12.458
35302W        W 1843  21.757  41.535   0.227
35303W        W 1844  36.091  17.385  13.965
35304W        W 1845  13.702  44.254  14.784
35305W        W 1846  19.644  13.851   0.356
35306W        W 1847  30.885  24.538   0.803
35307W        W 1848  18.094  34.894   0.695
35308W        W 1849  35.446   8.826   1.340
35309W        W 1850  25.797  44.292   2.479
35310W        W 1851  22.552  20.695  10.970
35311W        W 1852   6.635   5.005   4.806
35312W        W 1853  16.150   1.678   1.569
35313W        W 1854  39.656   8.430  13.504
35314W        W 1855  21.087  27.184  13.552
35315W        W 1856   7.809   3.771  10.684
35316W        W 1857  24.521  17.805  11.228
35317W        W 1858  17.309  36.816   2.664
35318W        W 1859  39.810   5.255   4.162
35319W        W 1860   4.857  33.974  10.268
35320W        W 1861  34.477  15.063  13.109
35321W        W 1862  16.857  29.018  11.092
35322W        W 1863   1.961  28.961  13.503
35323W        W 1864  14.693  36.036  10.897
35324W        W 1865  37.970  33.070  10.653
35325W        W 1866  17.231  11.011   3.499
35326W        W 1867   7.874   5.404   0.872
35327W        W 1868   9.543  33.524   2.107
35328W        W 1869   7.168  34.835   3.608
35329W        W 1870  29.086  24.748   0.946
35330W        W 1871  17.982  40.476   3.395
35331W        W 1872  15.382  42.239  11.534
35332W        W 1873  38.497  30.423  11.949
35333W        W 1874  28.198   1.748   2.535
35334W        W 1875  42.584  11.138  13.950
35335W        W 1876  43.072  33.411  11.149
35336W        W 1877  21.468  27.955   4.105
35337W        W 1878   4.455   9.257   4.074
35338W        W 1879  12.682  20.071  14.429
35339W        W 1880  14.582  25.663  11.583
35340W        W 1881   4.602  43.772   4.619
35341W        W 1882  12.607  16.109  11.979
35342W        W 1883  35.987  15.119   4.557
35343W        W 1884  26.244  29.167   0.084
35344W        W 1885  29.069   2.961   1.758
35345W        W 1886  19.102  30.695  11.954
35346W        W 1887  25.177  32.360   3.302
35347W        W 1888  27.029  29.671   1.868
35348W        W 1889  28.460  29.535  10.476
35349W        W 1890   9.341  25.019  13.177
35350W        W 1891  22.845  34.146  12.571
35351W        W 1892  31.941   4.714  13.964
35352W        W 1893  43.832  43.735  13.040
35353W        W 1894   3.838  18.128   2.239
35354W        W 1895  25.423  44.993  14.740
35355W        W 1896  20.617  40.358  12.904
35356W        W 1897   1.424  38.819   2.465
35357W        W 1898  39.265  28.560  14.576
35358W        W 1899   2.400  33.345   2.796
35359W        W 1900  42.799  11.353  10.837
35360W        W 1901   4.433  37.293   2.964
35361W        W 1902   2.426   4.373   2.821
35362W        W 1903   1.344  36.761  11.465
35363W        W 1904   8.325  23.475   5.015
35364W        W 1905  14.581   2.857   0.794
35365W        W 1906  22.521  38.552   3.842
35366W        W 1907  44.047   8.566  11.543
35367W        W 1908  37.788   9.313  13.005
35368W        W 1909  15.851   3.974  13.591
35369W        W 1910  40.829  31.897  12.885
35370W        W 1911  21.510  32.704  12.077
35371W        W 1912  39.429  17.375   4.452
35372W        W 1913   2.643  38.973  13.566
35373W        W 1914   2.114  34.938   0.960
35374W        W 1915   2.070  41.314  10.668
35375W        W 1916   4.846  19.583   0.403
35376W        W 1917  32.388  26.586  13.962
35377W        W 1918   3.489  17.722  10.704
35378W        W 1919  11.906  14.190   3.241
35379W        W 1920  29.116  21.805   2.743
35380W        W 1921   6.747   6.419  12.926
35381W        W 1922  22.749   2.454  13.470
35382W        W 1923  14.711  22.360  13.039
35383W        W 1924   0.944  21.101   2.712
35384W        W 1925  12.079  17.406  12.151
35385W        W 1926   5.322   9.108   2.688
35386W        W 1927  35.064  27.284  12.321
35387W        W 1928  34.155  38.399   3.396
35388W        W 1929  31.005  26.919   0.411
35389W        W 1930  38.908  43.241   0.620
35390W        W 1931  38.868  39.466  10.684
35391W        W 1932  12.505  31.351   0.175
35392W        W 1933  16.207  28.073   0.793
35393W        W 1934   0.906  37.006  11.421
35394W        W 1935  42.498   8.406   3.427
35395W        W 1936  41.315  36.818  12.704
35396W        W 1937  18.372  33.455   4.227
35397W        W 1938   6.143  21.102  14.135
35398W        W 1939  14.598  29.857  12.483
35399W        W 1940   0.391  25.306  13.029
35400W        W 1941  13.430  21.507  13.820
35401W        W 1942  40.009  11.657  13.696
35402W        W 1943  25.733  19.618  11.229
35403W        W 1944  10.925   1.175   4.632
35404W        W 1945  34.558  40.425  11.647
35405W        W 1946  27.976  23.040   5.181
35406W        W 1947  31.270  13.215  13.470
35407W        W 1948  12.163   4.250   2.394
35408W        W 1949   6.653   0.319  14.397
35409W        W 1950   5.667  36.461   2.157
35410W        W 1951  29.961  41.246  10.165
35411W        W 1952  41.953  43.383   4.543
35412W        W 1953  38.705  17.445   5.003
35413W        W 1954  29.953  32.930   3.829
35414W        W 1955  17.430  24.971  10.398
35415W        W 1956  26.196  28.485   3.155
35416W        W 1957  29.085   7.418  10.948
35417W        W 1958  36.755  28.616  12.486
35418W        W 1959  43.230  11.608  10.681
35419W        W 1960  31.069  20.815   3.608
35420W        W 1961  25.001  31.127  11.129
35421W        W 1962   0.499  22.065  11.023
35422W        W 1963  34.607  43.530   0.492
35423W        W 1964   1.664  32.595   0.361
35424W        W 1965   0.427  39.005   3.997
35425W        W 1966   7.116  23.169   3.136
35426W        W 1967  14.085   8.524  13.342
35427W        W 1968  19.146  31.741   3.944
35428W        W 1969  29.915  16.697   0.984
35429W        W 1970  26.752  37.985  13.302
35430W        W 1971  25.503   9.246   1.796
35431W        W 1972   4.614  20.329  12.095
35432W        W 1973  15.538   9.398   3.688
35433W        W 1974   2.486  16.314   3.710
35434W        W 1975  39.403  15.262  13.216
35435W        W 1976  29.223  39.031  10.884
35436W        W 1977  37.989  43.843  10.689
35437W        W 1978  27.553  27.110   3.364
35438W        W 1979   9.651  34.399  13.664
35439W        W 1980  27.990  44.332  13.324
35440W        W 1981  15.165   8.197  11.455
35441W        W 1982  30.939  43.414  13.733
35442W        W 1983   3.258  12.741  13.378
35443W        W 1984   0.401  17.125  10.931
35444W        W 1985  39.500  15.182  13.734
35445W        W 1986  14.092  11.234  12.527
35446W        W 1987  31.987  40.158   1.025
35447W        W 1988  21.035   2.774   1.312
35448W        W 1989   2.593   0.094  10.242
35449W        W 1990  12.335  24.381  14.316
35450W        W 1991   8.946  30.615   3.573
35451W        W 1992  12.354  14.784   2.116
35452W        W 1993  23.780  42.119  10.716
35453W        W 1994   6.301   3.850  13.053
35454W        W 1995  20.181  43.302  13.492
35455W        W 1996  39.016  35.332   3.280
35456W        W 1997  33.193  26.818   1.198
35457W        W 1998  21.722  28.733  11.219
35458W        W 1999  21.788   5.439   3.190
35459W        W 2000  41.252   6.207  11.124
35460W        W 2001  39.720   2.841   0.707
35461W        W 2002   4.431  14.654  10.969
35462W        W 2003  31.992  21.171  12.015
35463W        W 2004   0.554  31.076  13.199
35464W        W 2005  44.240  33.968  14.427
35465W        W 2006  15.913  40.761   0.801
35466W        W 2007   4.331   4.329  10.200
35467W        W 2008  15.618  37.353  12.591
35468W        W 2009   1.186   4.412   4.781
35469W        W 2010  34.765  12.401  11.171
35470W        W 2011  43.284   4.934  13.473
35471W        W 2012   0.377  15.600   3.804
35472W        W 2013  14.044   1.922   3.727
35473W        W 2014  15.231  17.327  12.970
35474W        W 2015  21.277  10.522   3.764
35475W        W 2016  26.383  11.356   2.967
35476W        W 2017  13.920  36.969   2.243
35477W        W 2018  31.515  22.910  13.553
35478W        W 2019   9.603  31.483  11.671
35479W        W 2020  30.251   1.860   4.974
35480W        W 2021  23.171   1.194  14.282
35481W        W 2022  38.867  35.900   1.782
35482W        W 2023  22.602  42.079   2.801
35483W        W 2024  15.660  15.221  11.561
35484W        W 2025  41.952   0.460   4.887
35485W        W 2026   3.508   6.616  12.746
35486W        W 2027  21.325   0.366   1.684
35487W        W 2028  21.492  16.332  10.950
35488W        W 2029  20.864  41.529  11.365
35489W        W 2030  19.087   6.123   1.287
35490W        W 2031  33.004  13.584   0.283
35491W        W 2032  41.666  19.560   2.778
35492W        W 2033   1.177  34.447  11.715
35493W        W 2034  29.669  38.789   1.703
35494W        W 2035  27.355  39.254   1.053
35495W        W 2036  12.692  27.959  12.562
35496W        W 2037  34.573  24.186   3.762
35497W        W 2038  16.030  43.529  10.629
35498W        W 2039  42.495  12.689  11.073
35499W        W 2040  18.823  33.183   1.482
35500W        W 2041  10.475  16.271   4.533
35501W        W 2042  41.363   5.901  13.894
35502W        W 2043  10.545  15.103  11.489
35503W        W 2044  43.703   4.491   2.227
35504W        W 2045   5.698  19.578  13.191
35505W        W 2046  41.892   1.732   4.040
35506W        W 2047  31.134   5.756   4.352
35507W        W 2048  20.142  42.978   1.906
35508W        W 2049  17.121  33.478   1.461
35509W        W 2050   9.017   0.357  10.368
35510W        W 2051  18.027  39.817  13.772
35511W        W 2052  32.004   7.425  12.879
35512W        W 2053  39.980  14.338  11.457
35513W        W 2054   7.797  13.094   1.920
35514W        W 2055  34.007  19.181   4.784
35515W        W 2056  12.343   8.711  12.469
35516W        W 2057  21.708  16.325  13.748
35517W        W 2058   3.783  23.774   4.638
35518W        W 2059  29.943  36.743   1.830
35519W        W 2060  41.595  43.412   0.268
35520W        W 2061  15.072  31.806  13.452
35521W        W 2062  42.527   5.662   3.470
35522W        W 2063  35.075  25.752  12.962
35523W        W 2064  17.455  12.713  11.997
35524W        W 2065   0.986   7.801  12.037
35525W        W 2066  42.506  24.015   3.732
35526W        W 2067   0.922  18.591  13.468
35527W        W 2068  36.147  43.899   1.411
35528W        W 2069  19.475   8.265   3.678
35529W        W 2070  27.396   8.345   4.859
35530W        W 2071  42.496  12.398   3.155
35531W        W 2072  17.641  34.350   4.568
35532W        W 2073  22.032  41.970  13.883
35533W        W 2074  17.336  16.799   4.501
35534W        W 2075  34.848   3.544   4.069
35535W        W 2076  36.386  21.761   0.261
35536W        W 2077  25.518   8.221   1.953
35537W        W 2078  43.777  41.782   1.663
35538W        W 2079  37.467  38.720  12.088
35539W        W 2080  42.020  15.528  14.721
35540W        W 2081  15.185   8.126  12.362
35541W        W 2082   6.797   2.533   0.087
35542W        W 2083  34.121  23.135   3.189
35543W        W 2084  14.556   1.228   1.329
35544W        W 2085  12.590  16.625  10.701
35545W        W 2086   9.834  28.427  14.542
35546W        W 2087  16.568  32.892  11.552
35547W        W 2088  15.719  41.797   3.146
35548W        W 2089  20.092  28.730   2.353
35549W        W 2090  18.707  21.024   2.820
35550W        W 2091  22.540   9.369  10.737
35551W        W 2092  22.016   9.433  13.275
35552W        W 2093  29.206  37.418   1.383
35553W        W 2094   9.178  23.964  14.290
35554W        W 2095  40.891  26.689   0.247
35555W        W 2096  38.711  42.853   4.183
35556W        W 2097  12.616  21.776  11.108
35557W        W 2098   3.928   7.242  14.449
35558W        W 2099  11.625  32.318  11.152
35559W        W 2100  25.519  40.766   1.398
35560W        W 2101   3.382   7.101   2.831
35561W        W 2102  38.790  15.217  14.449
35562W        W 2103  33.569  25.956  14.713
35563W        W 2104  25.124  27.707   2.786
35564W        W 2105  18.340  32.395  12.089
35565W        W 2106  28.172  28.047  14.096
35566W        W 2107  34.818  43.566  12.134
35567W        W 2108  34.660  39.578  12.982
35568W        W 2109  11.196  30.080   3.706
35569W        W 2110  22.783  10.810  13.424
35570W        W 2111  43.050  12.497   3.817
35571W        W 2112  17.706  33.079   3.373
35572W        W 2113  33.591  18.795   0.422
35573W        W 2114  12.054  15.007   4.277
35574W        W 2115  32.697  19.278   2.889
35575W        W 2116  38.407  10.307   3.545
35576W        W 2117  10.291  42.542   3.366
35577W        W 2118   5.247  17.080  10.902
35578W        W 2119  31.995  28.961  14.031
35579W        W 2120  35.414  36.072   3.620
35580W        W 2121   5.867  41.727  13.464
35581W        W 2122   3.059   0.950   3.586
35582W        W 2123   6.917  26.577  10.399
35583W        W 2124  35.473  39.472  12.622
35584W        W 2125  23.035  43.132   1.442
35585W        W 2126  42.489  44.529  11.562
35586W        W 2127   9.150  28.259  11.413
35587W        W 2128  38.329  43.415  11.814
35588W        W 2129  40.745   4.301  14.700
35589W        W 2130  38.689  35.871   2.274
35590W        W 2131  11.818  32.167  13.515
35591W        W 2132  32.993  13.906   3.651
35592W        W 2133  19.051  29.705  11.783
35593W        W 2134  29.462   4.241  13.856
35594W        W 2135   1.046  44.410  10.845
35595W        W 2136  16.587  43.512   1.333
35596W        W 2137  27.970  36.851  10.711
35597W        W 2138  44.356  42.024   0.777
35598W        W 2139  12.661  14.575  14.487
35599W        W 2140  21.040  30.853  11.459
35600W        W 2141  18.239  24.218   3.698
35601W        W 2142  27.121  38.071  13.673
35602W        W 2143  18.158  13.556   0.465
35603W        W 2144  10.802  21.498  12.906
35604W        W 2145  15.849  26.099  10.652
35605W        W 2146  14.790  36.305  14.531
35606W        W 2147  22.486  27.202   1.021
35607W        W 2148  22.176  20.619   3.954
35608W        W 2149  33.394  17.158   1.262
35609W        W 2150   6.365  36.071  14.952
35610W        W 2151  14.102  12.843   1.463
35611W        W 2152  44.650  24.222   2.837
35612W        W 2153  27.004  31.952  11.149
35613W        W 2154  11.664   7.178   3.205
35614W        W 2155  22.885   0.979  12.920
35615W        W 2156  25.601  12.537   0.331
35616W        W 2157  41.800  26.428   1.206
35617W        W 2158  33.718  35.155   2.253
35618W        W 2159  20.285   8.285   2.391
35619W        W 2160  17.895  27.064   4.378
35620W        W 2161  44.054  34.164  11.886
35621W        W 2162  28.985  16.044   3.463
35622W        W 2163  34.559  16.461  14.766
35623W        W 2164  23.919  28.492   2.383
35624W        W 2165  30.953  31.591   3.386
35625W        W 2166  29.931  21.297   3.772
35626W        W 2167  39.818  21.538   3.337
35627W        W 2168  40.021  39.253  14.841
35628W        W 2169  10.810  31.432  10.726
35629W        W 2170  15.035   3.141   1.730
35630W        W 2171  25.265  43.419   1.210
35631W        W 2172  11.652  23.611  13.419
35632W        W 2173  44.778  33.888  14.401
35633W        W 2174  19.136   4.358   1.715
35634W        W 2175  40.328  11.743   5.389
35635W        W 2176  15.702  27.873  10.691
35636W        W 2177  39.293  25.073   1.777
35637W        W 2178   5.599  32.884   0.321
35638W        W 2179  43.365   3.050   2.341
35639W        W 2180  21.726   9.888   1.434
35640W        W 2181  42.749   1.487   1.860
35641W        W 2182  21.643   1.911  12.249
35642W        W 2183  29.445  20.147   1.414
35643W        W 2184  31.042  33.349   1.285
35644W        W 2185  12.350  41.522  12.537
35645W        W 2186   2.484  35.653   0.550
35646W        W 2187  24.223  28.394   1.196
35647W        W 2188   8.916  41.306   2.544
35648W        W 2189  26.336  26.722  10.462
35649W        W 2190  34.016  36.142  12.423
35650W        W 2191  17.352  16.142   0.423
35651W        W 2192  27.822  21.517   3.648
35652W        W 2193  13.150  14.539  11.214
35653W        W 2194  40.439  43.113  12.149
35654W        W 2195   0.630  17.212   1.945
35655W        W 2196  33.863  12.598   4.224
35656W        W 2197  17.241  29.984   2.878
35657W        W 2198   2.292  11.796  13.985
35658W        W 2199  41.934  41.303  12.939
35659W        W 2200   3.883  41.998  14.786
35660W        W 2201  13.670  28.046   2.136
35661W        W 2202  22.098  27.723  10.427
35662W        W 2203   3.950  44.828   4.284
35663W        W 2204  30.312  44.623  13.971
35664W        W 2205   9.898  17.555   4.147
35665W        W 2206  16.251   7.731   4.511
35666W        W 2207  39.850  20.002  12.703
35667W        W 2208  42.425  28.033   1.399
35668W        W 2209  12.919  33.054   2.778
35669W        W 2210   8.828  28.189   4.193
35670W        W 2211  19.097  10.107  13.903
35671W        W 2212  11.248  25.500   4.701
35672W        W 2213   3.081  18.487   3.866
35673W        W 2214   8.311   7.947  14.911
35674W        W 2215  11.064  12.385  10.727
35675W        W 2216  31.374  14.674  11.480
35676W        W 2217  26.017   5.798  14.900
35677W        W 2218  44.960  12.845  10.961
35678W        W 2219  35.422  40.047   1.164
35679W        W 2220  41.205  23.541   0.251
35680W        W 2221  31.927  20.910   0.007
35681W        W 2222  28.202  37.368  13.918
35682W        W 2223  33.823  24.660  12.993
35683W        W 2224  19.161  12.678   2.733
35684W        W 2225  21.167  38.555   2.003
35685W        W 2226  25.080  22.543  11.227
35686W        W 2227  18.867  11.359   1.332
35687W        W 2228  37.042  40.015   4.805
35688W        W 2229  15.118  42.319  13.064
35689W        W 2230  29.556  37.524  14.527
35690W        W 2231  13.346  27.970  13.339
35691W        W 2232  21.737  11.125  13.347
35692W        W 2233  21.239  38.570   2.516
35693W        W 2234  28.940  31.895   1.712
35694W        W 2235  16.806  30.973   0.416
35695W        W 2236  36.334   8.120  11.059
35696W        W 2237  31.945   8.919   0.573
35697W        W 2238   6.875  21.529   2.855
35698W        W 2239  23.150   6.031   1.218
35699W        W 2240  37.441   2.526  10.046
35700W        W 2241  14.287  13.753   4.104
35701W        W 2242  18.642  26.384  12.503
35702W        W 2243  20.720  23.458   4.167
35703W        W 2244  42.435  24.907   2.637
35704W        W 2245  42.776  38.781   3.700
35705W        W 2246  34.442  20.924   0.137
35706W        W 2247  37.308  18.615  13.290
35707W        W 2248  28.622   7.125  10.965
35708W        W 2249  21.708   1.363  14.512
35709W        W 2250  40.880  41.457  14.356
35710W        W 2251  11.852   5.862   0.089
35711W        W 2252   0.037  44.076  12.735
35712W        W 2253  38.507  10.371  14.228
35713W        W 2254  15.532   6.445   4.254
35714W        W 2255   9.205  23.745  11.168
35715W        W 2256   7.276   3.657   9.791
35716W        W 2257  32.032  34.009  11.439
35717W        W 2258  13.846  12.502   1.784
35718W        W 2259  35.670  24.148  11.300
35719W        W 2260  17.690  41.338  14.235
35720W        W 2261  11.385  10.402  13.134
35721W        W 2262  32.832  22.037  10.647
35722W        W 2263   7.328  28.241   0.970
35723W        W 2264  36.552  42.735  12.545
35724W        W 2265  27.521  11.994   1.847
35725W        W 2266  37.862  37.631   3.312
35726W        W 2267  28.430  15.656  11.100
35727W        W 2268   4.881   5.118   0.457
35728W        W 2269   2.085   5.848   2.377
35729W        W 2270  40.857  24.066  12.410
35730W        W 2271   8.861   9.453   1.335
35731W        W 2272  40.264  21.584  12.474
35732W        W 2273   7.664  14.729   1.703
35733W        W 2274  39.280  16.207  12.984
35734W        W 2275  44.686  18.785  12.408
35735W        W 2276  44.050  17.260  11.151
35736W        W 2277  23.241  29.082   4.361
35737W        W 2278  21.933  31.398  12.994
35738W        W 2279  20.005  40.495   4.525
35739W        W 2280  34.048  16.946  13.022
35740W        W 2281  34.011   9.893  10.652
35741W        W 2282  27.635  13.151  14.424
35742W        W 2283  38.257  32.557  11.165
35743W        W 2284  38.120  16.839  13.360
35744W        W 2285  37.434  25.982  11.891
35745W        W 2286   1.730  39.352  10.721
35746W        W 2287  24.339  29.958  13.859
35747W        W 2288   1.291  12.892  14.960
35748W        W 2289  16.105  20.073  13.958
35749W        W 2290  13.404   3.764   3.187
35750W        W 2291  21.457  26.026   4.738
35751W        W 2292  23.817   0.514  13.850
35752W        W 2293  12.231   5.425  14.349
35753W        W 2294  13.880  19.642  10.705
35754W        W 2295   5.071   7.359  11.984
35755W        W 2296   6.234   2.339   2.284
35756W        W 2297  29.985  30.153   2.791
35757W        W 2298  23.232  37.608   1.571
35758W        W 2299  12.630  33.514  10.440
35759W        W 2300  26.720  29.002  14.721
35760W        W 2301  16.840  14.305  12.475
35761W        W 2302  28.464  27.098   3.485
35762W        W 2303  21.771  28.948  14.493
35763W        W 2304  38.030  42.191   1.126
35764W        W 2305  34.148  13.301  11.338
35765W        W 2306  22.523  44.466   4.626
35766W        W 2307  13.535  16.676   1.270
35767W        W 2308   6.118  36.452  14.142
35768W        W 2309  19.187  16.889  10.361
35769W        W 2310  37.878  17.203   1.292
35770W        W 2311  39.234  31.053  11.132
35771W        W 2312  20.279  11.140   1.653
35772W        W 2313  11.674  41.116  12.444
35773W        W 2314  16.746  42.490   4.132
35774W        W 2315   3.929  23.428  13.789
35775W        W 2316  19.555  19.504   2.924
35776W        W 2317   1.697  36.433  14.307
35777W        W 2318  35.513  42.908   2.902
35778W        W 2319  15.051  19.617  13.447
35779W        W 2320  34.438   3.529  13.479
35780W        W 2321  33.276  14.951  10.993
35781W        W 2322  24.061  24.146   2.629
35782W        W 2323  26.646  35.939   2.564
35783W        W 2324  18.807  21.752   0.344
35784W        W 2325  21.221  40.310   4.422
35785W        W 2326  23.099   8.228  13.274
35786W        W 2327  39.250  41.020  11.652
35787W        W 2328  33.097  34.563   4.649
35788W        W 2329   3.771   9.612  11.591
35789W        W 2330   2.985  19.036   3.774
35790W        W 2331   4.176  15.160  11.661
35791W        W 2332   2.226   4.090  14.341
35792W        W 2333  44.538   5.673   4.177
35793W        W 2334  30.189  44.692   4.133
35794W        W 2335  28.117  22.979  11.039
35795W        W 2336  27.168  30.364   0.891
35796W        W 2337  14.060  24.774  10.765
35797W        W 2338  20.894  18.683   0.679
35798W        W 2339   3.043  39.748   4.075
35799W        W 2340  31.466  27.194   1.805
35800W        W 2341  29.638  21.384   1.971
35801W        W 2342  12.764  39.513  14.740
35802W        W 2343  27.104  10.419  11.020
35803W        W 2344  22.101  37.871   1.171
35804W        W 2345  26.398  19.723  14.882
35805W        W 2346  28.931  14.168  10.727
35806W        W 2347  39.806  20.580   1.296
35807W        W 2348  44.182  22.969   3.391
35808W        W 2349  17.336  31.287   1.495
35809W        W 2350  33.853  14.183  11.026
35810W        W 2351  13.648   4.759  14.899
35811W        W 2352  43.353  16.599   2.763
35812W        W 2353  19.503  34.954   2.666
35813W        W 2354   3.247  42.876  12.251
35814W        W 2355   1.926  35.115  14.542
35815W        W 2356   4.661  43.228   2.268
35816W        W 2357  20.828  33.130   3.200
35817W        W 2358  15.765  17.429   4.277
35818W        W 2359  39.618  44.299  12.963
35819W        W 2360  24.021  31.609   1.249
35820W        W 2361   5.399  16.566   4.231
35821W        W 2362  39.020  21.184   1.311
35822W        W 2363   2.080  33.175   3.685
35823W        W 2364  29.352   6.296  14.430
35824W        W 2365   9.027  21.600   2.830
35825W        W 2366   6.076  17.559   3.703
35826W        W 2367   3.709   6.349  14.395
35827W        W 2368  32.158  38.154  12.937
35828W        W 2369  17.197  25.943   4.027
35829W        W 2370  24.435  25.290   4.129
35830W        W 2371  42.270  37.347  11.558
35831W        W 2372  43.486   6.820   0.418
35832W        W 2373  28.472  34.822  12.154
35833W        W 2374  42.659  37.608   4.154
35834W        W 2375  16.644   9.576   1.493
35835W        W 2376   2.113  14.294  14.734
35836W        W 2377  14.626  12.870   1.500
35837W        W 2378  26.516  25.134   5.166
35838W        W 2379  20.738  35.095  13.398
35839W        W 2380  30.168  31.627  14.004
35840W        W 2381  29.953  22.723   1.720
35841W        W 2382   7.680  29.511  13.814
35842W        W 2383  13.903  38.012   1.547
35843W        W 2384  26.642  34.392   4.020
35844W        W 2385  44.702   6.410   3.638
35845W        W 2386  10.312  13.118  13.537
35846W        W 2387  21.637  33.382   0.848
35847W        W 2388  42.777  29.176   0.268
35848W        W 2389  12.750  33.728   9.986
35849W        W 2390   4.869   7.967  10.756
35850W        W 2391  35.066   8.425   3.664
35851W        W 2392  26.909  12.849  10.091
35852W        W 2393  26.248  43.000  12.924
35853W        W 2394  13.568  20.447   2.644
35854W        W 2395  44.739  37.046  12.641
35855W        W 2396  22.683  14.784  14.385
35856W        W 2397  21.178  13.743   1.350
35857W        W 2398  40.138  30.309   4.704
35858W        W 2399  22.506  37.385   3.811
35859W        W 2400   6.423   7.439   3.148
35860W        W 2401  13.357  30.045   1.329
35861W        W 2402  44.787  41.061  11.992
35862W        W 2403   8.599  23.907   1.534
35863W        W 2404  25.419  13.806  12.789
35864W        W 2405  37.042  15.570   1.686
35865W        W 2406  38.983   7.170  13.067
35866W        W 2407   7.058  24.774  14.678
35867W        W 2408  16.001  21.260   3.177
35868W        W 2409   0.844  40.299  13.495
35869W        W 2410  21.967  39.359   4.863
35870W        W 2411  13.604   8.192  11.572
35871W        W 2412  29.646  25.923   3.683
35872W        W 2413  19.788   5.640  12.497
35873W        W 2414  33.868  12.606   1.298
35874W        W 2415  21.232  14.562  13.989
35875W        W 2416  24.499  25.206  13.597
35876W        W 2417  37.934  37.954   2.178
35877W        W 2418  26.950  38.891   4.188
35878W        W 2419  32.686  23.059   1.274
35879W        W 2420  23.776  44.344   3.535
35880W        W 2421  36.368  44.912   1.795
35881W        W 2422  17.422   8.239   3.742
35882W        W 2423  37.042   9.596   4.716
35883W        W 2424  41.983  35.889  13.396
35884W        W 2425  35.105  41.994   4.484
35885W        W 2426  44.972  44.037   0.531
35886W        W 2427  35.080   6.362  13.854
35887W        W 2428   7.352  26.520  10.676
35888W        W 2429  40.899  17.623  12.465
35889W        W 2430  15.244  28.923   3.688
35890W        W 2431   7.208  27.738   0.828
35891W        W 2432  29.349  38.091  12.834
35892W        W 2433  14.271  33.873   2.936
35893W        W 2434   8.349  31.455  10.415
35894W        W 2435   0.729  20.693  14.969
35895W        W 2436  10.673  43.996  10.650
35896W        W 2437  16.650  37.420   2.019
35897W        W 2438  12.503   1.018  13.546
35898W        W 2439  26.641   1.035   2.736
35899W        W 2440  30.926   9.231   1.622
35900W        W 2441  29.505   5.260  12.891
35901W        W 2442  18.232  15.483  14.948
35902W        W 2443  31.872   9.664   4.566
35903W        W 2444  17.783  18.265   3.234
35904W        W 2445  13.130  15.368  10.788
35905W        W 2446  40.735   1.865  11.111
35906W        W 2447  44.929  22.023   1.386
35907W        W 2448   7.736  10.422  11.872
35908W        W 2449   9.916  39.861   2.788
35909W        W 2450   0.349  13.784   3.935
35910W        W 2451   9.881  35.909  11.150
35911W        W 2452  33.360  39.757  11.184
35912W        W 2453   6.310  43.422  13.592
35913W        W 2454  20.075   2.549  11.556
35914W        W 2455  33.750  20.187  12.713
35915W        W 2456   1.879  22.927  13.117
35916W        W 2457  13.134   3.277   3.145
35917W        W 2458   3.282  40.454   2.187
35918W        W 2459  34.163  44.436  12.562
35919W        W 2460   6.683   3.461   0.918
35920W        W 2461  10.133  33.200  12.090
35921W        W 2462  30.310  33.173  11.247
35922W        W 2463  26.912  21.504   3.842
35923W        W 2464  11.405  20.508  11.623
35924W        W 2465  24.455  14.433  11.135
35925W        W 2466  39.595   3.747  11.746
35926W        W 2467  12.129   5.803   1.941
35927W        W 2468   9.137  21.476  14.610
35928W        W 2469  27.143  24.337  14.909
35929W        W 2470  14.359   2.438   0.502
35930W        W 2471  30.513  24.762   2.095
35931W        W 2472   3.192  37.954  14.713
35932W        W 2473  18.845  29.202   0.541
35933W        W 2474  19.983  35.315  12.579
35934W        W 2475   2.915   1.216   5.280
35935W        W 2476  33.042  41.075   1.606
35936W        W 2477   1.391   4.853  12.312
35937W        W 2478   0.188   4.894   3.964
35938W        W 2479  25.070  24.577  12.522
35939W        W 2480  40.028  43.023  11.430
35940W        W 2481  21.254  36.654   0.661
35941W        W 2482  26.990   0.971   2.126
35942W        W 2483  31.466   7.712   3.706
35943W        W 2484  42.296  31.957  14.476
35944W        W 2485  21.180  28.360  12.607
35945W        W 2486  29.979  26.231  13.463
35946W        W 2487  36.356  39.271  13.532
35947W        W 2488  40.501  43.916  10.634
35948W        W 2489  38.417  19.043   3.195
35949W        W 2490  42.393  23.494  14.965
35950W        W 2491  42.274   5.798  14.987
35951W        W 2492   4.560  42.486  13.664
35952W        W 2493  22.785  22.592   0.969
35953W        W 2494  13.049   0.324  13.678
35954W        W 2495  11.572  30.128   0.265
35955W        W 2496   1.816   8.704  11.504
35956W        W 2497  11.378  24.129   0.704
35957W        W 2498   5.992  33.301  13.115
35958W        W 2499  31.940  31.887  10.704
35959W        W 2500  26.724  27.609   3.878
35960W        W 2501  15.080   2.390   3.104
35961W        W 2502   1.707  14.613   1.816
35962W        W 2503  13.234  18.281  10.388
35963W        W 2504   0.390  12.368  12.345
35964W        W 2505  35.462  40.977  11.886
35965W        W 2506  26.515  36.350   3.315
35966W        W 2507  39.367  34.160   0.007
35967W        W 2508  14.215   6.403   4.084
35968W        W 2509  41.490  30.703  13.034
35969W        W 2510   7.244  37.820  12.052
35970W        W 2511   0.021  35.463   0.437
35971W        W 2512  23.779  23.785  11.114
35972W        W 2513  14.199  33.419   0.259
35973W        W 2514  25.036  35.133  13.075
35974W        W 2515  24.784   9.148  14.793
35975W        W 2516  14.716  24.289  10.938
35976W        W 2517   4.430  13.290  13.786
35977W        W 2518  14.795  22.999   3.680
35978W        W 2519   7.879  11.342  11.971
35979W        W 2520  33.256   6.872  12.554
35980W        W 2521  10.385  15.234   1.331
35981W        W 2522  39.707  41.766  14.985
35982W        W 2523  35.564  11.773  12.285
35983W        W 2524  16.947  37.936  14.747
35984W        W 2525   9.446   4.933   0.837
35985W        W 2526  41.241  10.204   2.347
35986W        W 2527  19.650  16.562  13.554
35987W        W 2528  30.125  38.826   0.534
35988W        W 2529  32.123  44.461  13.536
35989W        W 2530  35.827   7.954  11.090
35990W        W 2531  26.742  31.604  11.988
35991W        W 2532  37.170  10.157  11.250
35992W        W 2533  34.052  42.157  14.881
35993W        W 2534   6.382  14.360  11.545
35994W        W 2535   5.387   3.712   2.163
35995W        W 2536  29.880  20.059   3.873
35996W        W 2537   0.410  14.682   1.259
35997W        W 2538  24.003  12.598  13.832
35998W        W 2539  39.085  16.280   0.676
35999W        W 2540  41.046  35.891   2.840
36000W        W 2541   3.767  23.489  14.651
36001W        W 2542  41.483   5.747   4.201
36002W        W 2543  24.714  11.883  12.015
36003W        W 2544  20.529  35.969   3.973
36004W        W 2545  12.336   8.854   1.692
36005W        W 2546  22.148  44.931   4.695
36006W        W 2547   7.259  23.169  11.096
36007W        W 2548  15.005  14.628   2.137
36008W        W 2549  42.005   5.732   1.332
36009W        W 2550  20.696  13.698  12.856
36010W        W 2551  24.312  16.447  13.610
36011W        W 2552   5.393  23.207  12.987
36012W        W 2553   6.389  14.700  11.950
36013W        W 2554  32.619  30.305  12.854
36014W        W 2555  17.676  32.639   1.304
36015W        W 2556  13.224   2.967  13.509
36016W        W 2557   6.444  20.810  14.976
36017W        W 2558   5.154   5.008   3.219
36018W        W 2559  25.978  33.639  11.149
36019W        W 2560   4.950  16.057   1.658
36020W        W 2561   8.171  36.719   5.398
36021W        W 2562  40.103  35.964  11.811
36022W        W 2563   5.338  22.051  14.898
36023W        W 2564  12.408  23.196  13.134
36024W        W 2565  17.207   0.007  14.853
36025W        W 2566  28.580  37.810   0.840
36026W        W 2567  31.067  24.447  13.027
36027W        W 2568  33.105  44.151   3.610
36028W        W 2569  22.993  15.706   2.094
36029W        W 2570  14.176  24.727   3.803
36030W        W 2571  12.755   9.919   0.649
36031W        W 2572  11.161  18.077   0.264
36032W        W 2573  16.027  38.165  13.342
36033W        W 2574  32.850  22.159   0.382
36034W        W 2575  36.984  24.527  10.651
36035W        W 2576  36.442  31.870   4.554
36036W        W 2577  18.195  26.375   2.604
36037W        W 2578  34.904  35.425  13.900
36038W        W 2579  24.192  19.502   2.378
36039W        W 2580  24.637  33.762  11.816
36040W        W 2581  40.049  26.614  11.286
36041W        W 2582   5.827  38.940   5.586
36042W        W 2583  41.188  24.525   1.419
36043W        W 2584   6.679  12.612   1.040
36044W        W 2585  10.816  22.108  10.044
36045W        W 2586  31.643   0.865   1.548
36046W        W 2587  35.852  14.478  14.955
36047W        W 2588  28.601  38.360  13.875
36048W        W 2589   2.511  13.129  14.741
36049W        W 2590   2.637  32.168  11.685
36050W        W 2591  33.391   5.335  14.284
36051W        W 2592  24.188  41.937  14.852
36052W        W 2593  39.421   3.148   2.836
36053W        W 2594  12.611  12.099  10.562
36054W        W 2595  21.136  16.612  14.834
36055W        W 2596   9.290  42.459   3.255
36056W        W 2597  36.250   2.982  14.698
36057W        W 2598  13.307   6.799  14.027
36058W        W 2599  26.475   2.830   3.594
36059W        W 2600  12.326  33.380  13.837
36060W        W 2601   9.765  37.292   1.961
36061W        W 2602  14.305  39.285   3.435
36062W        W 2603   1.972   7.692   2.839
36063W        W 2604  26.250  14.723   1.914
36064W        W 2605   2.358  18.513  14.252
36065W        W 2606  21.210   6.595   1.168
36066W        W 2607   1.687  13.907   1.036
36067W        W 2608  30.635  17.104  11.223
36068W        W 2609  32.155  11.171   4.748
36069W        W 2610   5.501  37.882   0.927
36070W        W 2611   6.382  15.344  13.630
36071W        W 2612  42.923  25.000   4.884
36072W        W 2613  23.015  39.352   0.955
36073W        W 2614  29.350  12.731  14.235
36074W        W 2615  29.861   6.798  13.901
36075W        W 2616  10.872  41.084  14.843
36076W        W 2617  26.241  30.589   2.717
36077W        W 2618   4.916  28.705  12.982
36078W        W 2619  44.302  16.610  11.125
36079W        W 2620  33.656  14.917   0.434
36080W        W 2621  41.855  33.366  12.525
36081W        W 2622   0.107   1.352   0.518
36082W        W 2623  22.262  37.408   0.510
36083W        W 2624  21.761  31.007   0.359
36084W        W 2625  18.995  31.948  12.578
36085W        W 2626  10.790  32.477   0.381
36086W        W 2627  19.667  28.270  12.031
36087W        W 2628  39.306   7.588  13.022
36088W        W 2629  36.143  24.335   4.876
36089W        W 2630   7.452  37.855   1.393
36090W        W 2631  43.083  44.058   1.775
36091W        W 2632  11.410  26.822  13.125
36092W        W 2633   0.497   2.485  11.997
36093W        W 2634  36.278   8.694  11.042
36094W        W 2635  20.145  42.348   0.381
36095W        W 2636   4.662  21.916   4.143
36096W        W 2637  33.202  11.933  13.919
36097W        W 2638  15.877  29.970   3.515
36098W        W 2639  10.210  13.622  13.829
36099W        W 2640  22.218  32.113  10.599
36100W        W 2641  31.754  15.911   4.054
36101W        W 2642  37.637  11.258   3.454
36102W        W 2643  32.066  10.726   0.716
36103W        W 2644  23.577  42.710  11.081
36104W        W 2645  24.928   8.037  12.494
36105W        W 2646   2.997  23.114   0.150
36106W        W 2647  27.109  12.168   4.579
36107W        W 2648  29.622  28.698  11.534
36108W        W 2649  23.925  22.953   3.324
36109W        W 2650   2.898  38.342  12.462
36110W        W 2651  13.203  23.764   2.340
36111W        W 2652  18.893   2.700   4.034
36112W        W 2653  15.849  31.400   3.157
36113W        W 2654   2.768  29.463  13.536
36114W        W 2655  44.839  32.029   3.902
36115W        W 2656  34.155  18.783   4.196
36116W        W 2657  35.526   5.924   0.031
36117W        W 2658  11.200   6.974  13.708
36118W        W 2659   5.210  17.792  13.569
36119W        W 2660  17.240  40.016  14.839
36120W        W 2661  43.532   0.714   3.599
36121W        W 2662  33.300  18.406  14.018
36122W        W 2663  39.526  34.066   3.571
36123W        W 2664  20.653  32.174   0.563
36124W        W 2665  15.827  35.575   1.768
36125W        W 2666  16.465  27.077   1.654
36126W        W 2667   0.321  14.582  14.187
36127W        W 2668  10.142  10.317  12.166
36128W        W 2669  27.033  23.977  11.200
36129W        W 2670  34.619   5.947   9.803
36130W        W 2671   2.939  23.642  13.508
36131W        W 2672   2.973   0.446  13.380
36132W        W 2673  19.467   9.163  14.604
36133W        W 2674  14.537  20.017   1.398
36134W        W 2675  30.429  12.330   4.376
36135W        W 2676   7.706  12.097  13.333
36136W        W 2677  11.469  34.958   1.796
36137W        W 2678  30.536  24.503  13.195
36138W        W 2679  42.219  22.230  14.785
36139W        W 2680  25.721  42.342   0.478
36140W        W 2681  15.354  33.011   1.166
36141W        W 2682   9.696  30.841   2.874
36142W        W 2683  13.571  22.425  13.750
36143W        W 2684  37.327  10.486   3.676
36144W        W 2685  22.091   3.741  10.264
36145W        W 2686  11.780   1.064   3.710
36146W        W 2687  37.475  40.512  14.088
36147W        W 2688  31.955  40.135   1.753
36148W        W 2689  43.876  40.597   2.665
36149W        W 2690  16.166  39.565   3.849
36150W        W 2691   7.089  11.201   2.928
36151W        W 2692  40.414  29.527   0.938
36152W        W 2693  19.695  21.939   3.875
36153W        W 2694   0.700  21.068  12.647
36154W        W 2695   2.259  20.736   1.663
36155W        W 2696   0.270  14.214   3.174
36156W        W 2697  37.866  19.312  10.707
36157W        W 2698   8.642  40.388   1.579
36158W        W 2699  34.726  35.929   4.273
36159W        W 2700  31.530  42.264  13.463
36160W        W 2701  27.762  24.686   3.713
36161W        W 2702  42.105  38.561  12.675
36162W        W 2703  29.101  15.235  13.040
36163W        W 2704   5.196  17.448  11.269
36164W        W 2705  38.402  14.821  12.592
36165W        W 2706   1.049  15.252   2.751
36166W        W 2707  18.972  18.127  10.392
36167W        W 2708   9.214  32.769  12.083
36168W        W 2709   8.954   3.181  11.889
36169W        W 2710   2.141  30.470   3.656
36170W        W 2711  15.755  36.294   2.830
36171W        W 2712  25.766  17.019  10.070
36172W        W 2713  28.609  20.785  14.873
36173W        W 2714  18.663   2.870  13.718
36174W        W 2715  24.362  12.641  12.957
36175W        W 2716  31.881  24.131  12.966
36176W        W 2717   3.079  19.239   1.410
36177W        W 2718  23.436  28.390  10.609
36178W        W 2719  15.096  13.133  12.478
36179W        W 2720  12.781  42.851  14.818
36180W        W 2721  30.154  21.177   0.756
36181W        W 2722  32.175  12.322   3.428
36182W        W 2723  39.416  32.979   1.763
36183W        W 2724  32.696  21.281   3.649
36184W        W 2725  18.295   8.701  14.439
36185W        W 2726  40.187   0.904   4.628
36186W        W 2727  20.089  38.870  11.455
36187W        W 2728  43.459  24.936   2.141
36188W        W 2729  35.898  30.216   4.696
36189W        W 2730  38.709  31.037  11.180
36190W        W 2731  22.541  19.589  14.582
36191W        W 2732  16.614  24.858   2.270
36192W        W 2733  31.734  32.407   1.856
36193W        W 2734  40.551  35.365  14.243
36194W        W 2735  43.490  20.547   2.919
36195W        W 2736  14.742  21.357  13.203
36196W        W 2737  12.403  17.727  10.957
36197W        W 2738  35.003  38.876   2.246
36198W        W 2739   8.172  12.226  12.493
36199W        W 2740  42.425  41.005  14.999
36200W        W 2741  24.991  22.635  11.709
36201W        W 2742  23.321  13.632   0.808
36202W        W 2743  20.003   8.499  13.851
36203W        W 2744  34.173  44.515   0.405
36204W        W 2745  28.968  24.847  12.808
36205W        W 2746  32.614  36.678   3.211
36206W        W 2747  32.501  26.733   2.628
36207W        W 2748  40.516  22.088   0.851
36208W        W 2749  42.372  19.288  12.349
36209W        W 2750  24.428   2.793   1.169
36210W        W 2751   5.874  13.675  13.927
36211W        W 2752  19.068  40.642   3.304
36212W        W 2753   4.734  35.029  11.881
36213W        W 2754  19.817  17.742  12.824
36214W        W 2755  15.580  40.062  11.640
36215W        W 2756  23.301  23.982  11.226
36216W        W 2757  39.946  30.081   0.482
36217W        W 2758  32.348  17.513  13.525
36218W        W 2759  31.450   3.481   1.001
36219W        W 2760  19.768   6.003  11.860
36220W        W 2761   8.070   0.936   0.017
36221W        W 2762  17.038  17.226  14.836
36222W        W 2763   1.860  43.223   0.807
36223W        W 2764   2.039   6.318   2.169
36224W        W 2765   6.127  40.041   2.132
36225W        W 2766  39.552  43.546   3.698
36226W        W 2767  17.026  11.632  10.698
36227W        W 2768  32.929   9.192   3.236
36228W        W 2769   4.174  11.128  13.274
36229W        W 2770  43.349  32.302   2.595
36230W        W 2771  26.588  15.851   2.203
36231W        W 2772  32.957  29.922  12.934
36232W        W 2773  14.800  11.689   0.471
36233W        W 2774  11.602   4.533  13.988
36234W        W 2775   2.445   7.891  13.262
36235W        W 2776  18.722  36.302  12.127
36236W        W 2777  27.442   7.827  14.553
36237W        W 2778  43.074  12.344   2.140
36238W        W 2779   9.656  15.852   0.495
36239W        W 2780  35.399  18.698   5.118
36240W        W 2781  41.985  22.962   2.864
36241W        W 2782  27.255  41.648   3.939
36242W        W 2783  38.644  27.664  14.695
36243W        W 2784  26.027  36.020  11.179
36244W        W 2785  17.577  11.629   1.323
36245W        W 2786  28.655  13.605  11.207
36246W        W 2787  29.187  25.030   1.402
36247W        W 2788  29.938  13.161   1.291
36248W        W 2789  37.909   7.882   0.815
36249W        W 2790   4.187   1.656  13.073
36250W        W 2791   1.033   4.705  11.979
36251W        W 2792   8.699  33.142  11.074
36252W        W 2793  28.517  39.468   1.380
36253W        W 2794  24.161   3.835   3.846
36254W        W 2795   6.392  26.050  14.551
36255W        W 2796  36.549  28.913   0.473
36256W        W 2797  20.121   4.552   4.172
36257W        W 2798  13.807  21.296  11.157
36258W        W 2799  21.044  17.609   4.595
36259W        W 2800  36.501   3.343  13.428
36260W        W 2801   5.831  38.407   1.936
36261W        W 2802  25.378  29.911  11.215
36262W        W 2803   7.880  26.116  12.718
36263W        W 2804   4.969  31.149  10.752
36264W        W 2805  25.674   9.748   1.877
36265W        W 2806  14.345  17.236  12.907
36266W        W 2807  43.468  10.595  10.770
36267W        W 2808  43.898   2.809  11.654
36268W        W 2809  31.608  33.156   3.659
36269W        W 2810  29.504  36.959  11.213
36270W        W 2811  16.120  33.680   5.041
36271W        W 2812   2.896   7.357   2.896
36272W        W 2813  24.210  16.361   3.294
36273W        W 2814  34.455  11.920  13.065
36274W        W 2815  27.627  10.412  11.394
36275W        W 2816  10.683  28.680   4.018
36276W        W 2817   4.925  25.719   0.429
36277W        W 2818   2.537   3.529  10.915
36278W        W 2819  31.360  39.839   4.652
36279W        W 2820  11.296  39.847   0.391
36280W        W 2821  12.710  15.088   4.807
36281W        W 2822  43.929  12.207   3.140
36282W        W 2823  25.593  29.956  12.804
36283W        W 2824   8.843  41.982  12.703
36284W        W 2825  15.133  16.562   2.847
36285W        W 2826   0.866  33.183  13.990
36286W        W 2827  43.876  42.834   1.227
36287W        W 2828   3.380  21.603   1.720
36288W        W 2829  14.853  31.450   3.163
36289W        W 2830   1.684  29.012  13.078
36290W        W 2831  11.821  24.979   4.126
36291W        W 2832  39.661  10.798   2.207
36292W        W 2833  40.620  17.822   0.290
36293W        W 2834  35.383  18.055   1.578
36294W        W 2835  36.500  25.561   1.924
36295W        W 2836  22.442  16.708   3.262
36296W        W 2837   1.451  24.793  12.550
36297W        W 2838  28.284  17.723  10.579
36298W        W 2839   6.885  21.082  14.838
36299W        W 2840  21.627  35.129  12.875
36300W        W 2841   4.294  19.119  13.522
36301W        W 2842  26.835   9.047   0.373
36302W        W 2843   5.869  18.464   0.869
36303W        W 2844  16.093  21.651  11.481
36304W        W 2845  24.949  26.456  10.413
36305W        W 2846  33.971  35.014   4.613
36306W        W 2847  42.439  11.763   0.837
36307W        W 2848  22.266   4.978  11.602
36308W        W 2849  11.932  10.232   4.452
36309W        W 2850   3.332  26.036   1.912
36310W        W 2851  32.604  19.789   3.691
36311W        W 2852  15.383   2.086  11.243
36312W        W 2853  28.950  14.612   1.793
36313W        W 2854  23.747  26.600  14.307
36314W        W 2855  15.855   2.011   4.081
36315W        W 2856  40.966  20.723   3.215
36316W        W 2857  29.386  36.911  10.697
36317W        W 2858   0.717  37.514  10.561
36318W        W 2859  41.986  23.991  13.895
36319W        W 2860  28.684   8.958   1.304
36320W        W 2861  13.904  42.406  12.434
36321W        W 2862  38.813  32.381  12.412
36322W        W 2863  10.720  24.177   4.084
36323W        W 2864  24.601  32.670  13.554
36324W        W 2865  32.396  42.600   0.469
36325W        W 2866   4.729  26.984  14.437
36326W        W 2867   4.443  24.952  11.587
36327W        W 2868  17.703  19.011   1.314
36328W        W 2869  12.711  30.699   1.586
36329W        W 2870  15.709  38.903   1.363
36330W        W 2871  35.070  17.777   3.335
36331W        W 2872  37.496  31.138  11.588
36332W        W 2873  12.766  12.587  10.507
36333W        W 2874   3.555  26.597  12.087
36334W        W 2875   9.423  11.398   4.041
36335W        W 2876  22.135   0.370   3.000
36336W        W 2877  11.373   0.213  13.600
36337W        W 2878   1.633  29.455  10.767
36338W        W 2879  17.914  30.160   3.748
36339W        W 2880  30.872  21.489  10.588
36340W        W 2881   7.707  38.800   2.769
36341W        W 2882  33.796  11.707   2.178
36342W        W 2883  32.574  43.288  11.289
36343W        W 2884  35.977   3.480  11.874
36344W        W 2885  20.600  35.286   1.367
36345W        W 2886  27.845  25.510   3.335
36346W        W 2887   5.788   5.634  11.155
36347W        W 2888  41.917  44.475   2.899
36348W        W 2889  38.461  44.075   1.230
36349W        W 2890  13.858  20.311  11.210
36350W        W 2891  41.724  14.270  13.430
36351W        W 2892  22.026  26.150  13.837
36352W        W 2893   4.940  35.696   2.827
36353W        W 2894  10.326  21.705   2.401
36354W        W 2895  24.961  30.207   1.805
36355W        W 2896  21.395  18.834   0.701
36356W        W 2897   0.828  39.371  11.873
36357W        W 2898  16.073  20.339  12.569
36358W        W 2899  17.285  35.879  12.869
36359W        W 2900  22.491  10.403  11.256
36360W        W 2901  44.085  14.770  10.859
36361W        W 2902  36.921  17.629  13.896
36362W        W 2903  16.348   2.791   0.183
36363W        W 2904  38.929  24.231   1.864
36364W        W 2905  23.499  20.685  12.414
36365W        W 2906   4.841  13.360   1.806
36366W        W 2907  34.420  22.986  14.533
36367W        W 2908  19.683  20.026  14.838
36368W        W 2909  21.072  15.799   1.244
36369W        W 2910   1.188   8.628  12.494
36370W        W 2911  16.026   5.648  12.500
36371W        W 2912   5.474  28.746   4.603
36372W        W 2913   9.842  36.948   1.180
36373W        W 2914  12.615   2.193  11.056
36374W        W 2915   9.768  11.712  14.112
36375W        W 2916   9.077  30.585   1.076
36376W        W 2917   3.866  19.134  14.911
36377W        W 2918  20.394   5.667  14.250
36378W        W 2919  12.640  33.101  10.112
36379W        W 2920  13.891  24.255  12.480
36380W        W 2921  29.353  44.707  11.290
36381W        W 2922  38.863   0.406  12.661
36382W        W 2923  18.299   7.234  12.090
36383W        W 2924  19.142   4.469  13.066
36384W        W 2925  14.672  37.356   0.966
36385W        W 2926  25.146  17.134  12.354
36386W        W 2927  37.153  11.223   3.246
36387W        W 2928   9.537  40.424  12.021
36388W        W 2929  36.323  14.770   0.960
36389W        W 2930  22.850   2.326   1.088
36390W        W 2931   6.551  34.589  12.036
36391W        W 2932  37.817  41.829   3.667
36392W        W 2933  43.768   6.569  14.881
36393W        W 2934  23.328  38.847  13.127
36394W        W 2935   8.452  39.458   1.329
36395W        W 2936  14.182  21.040   1.699
36396W        W 2937   4.838  41.866   2.658
36397W        W 2938  27.229  17.670   4.265
36398W        W 2939  35.638  33.113   4.940
36399W        W 2940  31.595  12.165   1.787
36400W        W 2941  42.457  12.720   3.668
36401W        W 2942  13.134  24.180   4.156
36402W        W 2943   2.740  39.546   4.441
36403W        W 2944  24.696  44.190  14.546
36404W        W 2945   3.403   3.867   2.261
36405W        W 2946  39.441  35.562  12.031
36406W        W 2947  29.219   4.941   1.839
36407W        W 2948  23.287  34.465  14.930
36408W        W 2949  29.467  25.967   4.798
36409W        W 2950  15.963  22.939   2.860
36410W        W 2951  16.733  20.520  14.264
36411W        W 2952  18.079  23.235  14.374
36412W        W 2953   6.367  11.822   2.644
36413W        W 2954  14.709   9.228  13.785
36414W        W 2955   3.477   9.401  13.763
36415W        W 2956   6.350   9.756   2.431
36416W        W 2957  28.124  24.465   0.271
36417W        W 2958  30.930   9.169   1.104
36418W        W 2959  40.708  40.512   2.885
36419W        W 2960  23.456  13.819   0.303
36420W        W 2961  32.049  28.687   2.243
36421W        W 2962  24.485   0.923  13.144
36422W        W 2963  44.174  43.117  10.268
36423W        W 2964  29.070  26.208  12.468
36424W        W 2965  14.408  35.200  12.811
36425W        W 2966   0.474   7.263   3.932
36426W        W 2967  37.585  15.680  14.052
36427W        W 2968  14.873  30.427   3.140
36428W        W 2969  28.593  16.405   3.271
36429W        W 2970  40.348   1.928   3.232
36430W        W 2971  24.015  40.368  14.879
36431W        W 2972   8.321  34.455   3.791
36432W        W 2973  20.302  14.410   0.009
36433W        W 2974  29.918   4.403   1.212
36434W        W 2975  31.073  12.719   4.508
36435W        W 2976  15.272  21.180  12.656
36436W        W 2977  25.650  26.121  14.222
36437W        W 2978  37.210   9.971  14.237
36438W        W 2979  26.048  25.960  13.384
36439W        W 2980   9.321  15.332  11.099
36440W        W 2981  10.671  26.206  13.919
36441W        W 2982  32.981   0.334   1.348
36442W        W 2983  37.953  35.875   3.423
36443W        W 2984  27.711  29.185   1.479
36444W        W 2985  23.933   6.109  14.534
36445W        W 2986   0.734  35.891  14.408
36446W        W 2987  14.036   4.304  13.660
36447W        W 2988  15.549  29.560  11.106
36448W        W 2989   5.150  28.018   1.948
36449W        W 2990   5.271  30.086  12.546
36450W        W 2991  16.943  11.570   5.065
36451W        W 2992  10.148   7.349   1.698
36452W        W 2993  21.122  22.549   0.901
36453W        W 2994  29.794  36.095   4.793
36454W        W 2995  25.253  43.956   4.143
36455W        W 2996  29.492  37.695   0.009
36456W        W 2997   1.790   9.818   3.124
36457W        W 2998  35.856  42.927  13.102
36458W        W 2999  39.927   5.179  13.108
36459W        W 3000  15.315  39.925   2.767
36460W        W 3001   1.326  37.795  14.366
36461W        W 3002   1.983  19.237  13.691
36462W        W 3003   3.818   7.056   1.239
36463W        W 3004  36.907  31.988   2.950
36464W        W 3005  22.536  15.141  12.579
36465W        W 3006   6.798  32.211   0.195
36466W        W 3007  36.192  11.626  10.424
36467W        W 3008  13.988  28.151  12.712
36468W        W 3009  38.554   9.080   1.381
36469W        W 3010   7.402  39.915  12.621
36470W        W 3011  20.142  18.596  10.190
36471W        W 3012  12.095  37.949  11.507
36472W        W 3013  44.526  13.718  12.669
36473W        W 3014  21.967  19.884  13.411
36474W        W 3015  19.315  32.553  11.531
36475W        W 3016  42.337   9.749   0.921
36476W        W 3017   0.436  21.989   0.774
36477W        W 3018  36.816   7.834   2.280
36478W        W 3019   9.267  12.624  10.640
36479W        W 3020  13.847  40.828   3.111
36480W        W 3021  30.817  20.118  11.614
36481W        W 3022  33.532  39.405  14.910
36482W        W 3023  10.866  38.547  12.941
36483W        W 3024  39.868  32.066  11.580
36484W        W 3025  14.121  22.228  14.554
36485W        W 3026  34.958  14.268   0.405
36486W        W 3027  25.998  12.185  14.441
36487W        W 3028  12.638  41.206   1.661
36488W        W 3029  34.210  19.089   0.920
36489W        W 3030  16.834  33.096   1.693
36490W        W 3031  29.772  26.622   1.738
36491W        W 3032  24.725  17.153   3.182
36492W        W 3033   2.317   1.056  12.408
36493W        W 3034  17.131   0.784  14.370
36494W        W 3035  30.144  10.304  10.336
36495W        W 3036  12.097   1.854  11.548
36496W        W 3037  29.854  36.496  11.685
36497W        W 3038  20.802   1.771   3.059
36498W        W 3039  38.707  31.306  14.943
36499W        W 3040  25.879  36.992  14.883
36500W        W 3041  42.975   3.697  13.562
36501W        W 3042  36.676   8.893  13.550
36502W        W 3043  40.829  21.755  14.936
36503W        W 3044  10.788  12.435   0.277
36504W        W 3045   9.210  35.853  10.800
36505W        W 3046  39.273  19.158   2.302
36506W        W 3047  32.547  19.441  13.374
36507W        W 3048  41.952  19.560   2.339
36508W        W 3049  44.929   5.344  13.919
36509W        W 3050  11.933  26.524  12.050
36510W        W 3051  14.790  31.699   2.707
36511W        W 3052  13.056  27.928  12.004
36512W        W 3053  21.530  37.105   0.777
36513W        W 3054   1.971  35.872  12.990
36514W        W 3055  22.629  30.730  10.134
36515W        W 3056  13.218   1.848   2.223
36516W        W 3057  38.140  17.707  14.503
36517W        W 3058   5.846  33.203  14.404
36518W        W 3059  17.093   5.344   1.934
36519W        W 3060  18.807  15.227   2.746
36520W        W 3061  38.350  32.896   0.734
36521W        W 3062  34.372   3.574   4.985
36522W        W 3063  26.650   5.487  12.396
36523W        W 3064  29.392  35.081  12.482
36524W        W 3065   1.996  20.085  14.847
36525W        W 3066   1.258  21.475   3.378
36526W        W 3067   6.573  29.419   4.462
36527W        W 3068  42.955  19.673   3.264
36528W        W 3069  38.989  12.924  12.900
36529W        W 3070  25.637  39.230   0.283
36530W        W 3071  32.091   1.250  13.145
36531W        W 3072  13.117  17.214   4.501
36532W        W 3073  33.502  35.272  14.990
36533W        W 3074  42.539   7.325  12.924
36534W        W 3075   3.901  18.190  11.232
36535W        W 3076  10.429  10.471   1.968
36536W        W 3077  36.212  44.821  13.047
36537W        W 3078  15.065  43.063   9.992
36538W        W 3079  22.982   5.841  12.655
36539W        W 3080  23.095  36.608   2.342
36540W        W 3081  11.826  34.479   3.585
36541W        W 3082   8.958  13.086   0.646
36542W        W 3083  40.361   5.896  14.777
36543W        W 3084  26.491  13.277   4.285
36544W        W 3085  13.637   6.686   3.287
36545W        W 3086  34.553  19.050   1.294
36546W        W 3087   0.724  35.644   1.934
36547W        W 3088  18.073  25.908  14.553
36548W        W 3089   4.712   9.909   2.806
36549W        W 3090  26.240  32.857  11.553
36550W        W 3091   0.709   9.190  13.071
36551W        W 3092   5.229  13.747   1.277
36552W        W 3093  25.518  34.556  10.353
36553W        W 3094  38.550   0.708   3.233
36554W        W 3095  14.929  38.921   2.816
36555W        W 3096   7.762  35.363   4.875
36556W        W 3097  33.449  20.616  14.915
36557W        W 3098  16.055  16.236  14.394
36558W        W 3099  36.103  15.553   0.653
36559W        W 3100   7.366   4.262  10.695
36560W        W 3101   1.009  12.637  13.776
36561W        W 3102  29.082  19.292   0.960
36562W        W 3103  28.173   5.056   0.449
36563W        W 3104  31.957  14.312   1.435
36564W        W 3105  35.185  25.017  11.144
36565W        W 3106  35.452  27.997  13.990
36566W        W 3107  14.816  28.536   3.211
36567W        W 3108  41.644  42.728   3.971
36568W        W 3109  16.832  41.792  13.825
36569W        W 3110  12.684  33.104  12.905
36570W        W 3111  10.958  40.407   2.289
36571W        W 3112  26.502  13.335  11.760
36572W        W 3113  31.365  23.232  10.738
36573W        W 3114  10.160   8.405  14.583
36574W        W 3115  38.450  27.630   2.018
36575W        W 3116   2.922  44.951   1.334
36576W        W 3117  32.961  23.629   4.526
36577W        W 3118   8.649   1.814  12.020
36578W        W 3119  32.349   4.733  14.350
36579W        W 3120  20.482  31.119   4.578
36580W        W 3121  10.453  32.691   2.098
36581W        W 3122  31.575  41.277  10.476
36582W        W 3123  40.477  29.373   1.715
36583W        W 3124  25.427  20.182  12.149
36584W        W 3125  16.435  19.674  13.872
36585W        W 3126  39.657  41.242  13.445
36586W        W 3127  42.447  22.694   2.845
36587W        W 3128  15.261  22.057   2.820
36588W        W 3129   6.593  40.114   2.411
36589W        W 3130  11.449  30.929   4.083
36590W        W 3131   4.831  38.077   1.696
36591W        W 3132  20.755   5.172   0.577
36592W        W 3133   4.710   3.732   1.719
36593W        W 3134  25.468  20.729  12.080
36594W        W 3135  13.810  16.248   0.473
36595W        W 3136  21.542   9.133   2.316
36596W        W 3137  25.296  42.106  13.800
36597W        W 3138  10.731  25.965   4.685
36598W        W 3139  35.881  19.645  11.239
36599W        W 3140  13.633   5.500  11.949
36600W        W 3141  20.692   2.767   0.916
36601W        W 3142  30.553   4.408  12.405
36602W        W 3143  17.657  22.168  13.537
36603W        W 3144  13.567  28.922   4.076
36604W        W 3145  35.233  32.199  12.062
36605W        W 3146  12.745  25.109  13.756
36606W        W 3147  17.009   3.494  10.618
36607W        W 3148  27.552  14.273  10.795
36608W        W 3149  24.548  24.023   2.811
36609W        W 3150  43.701  36.924  11.086
36610W        W 3151  34.406  18.383   4.448
36611W        W 3152  11.692  16.537  10.625
36612W        W 3153  20.870  38.494  14.932
36613W        W 3154  44.326  24.421   3.196
36614W        W 3155  27.098   8.415  13.847
36615W        W 3156  42.515  26.142   2.843
36616W        W 3157  16.655  12.293  13.477
36617W        W 3158  37.548  28.022  14.928
36618W        W 3159  13.132  36.456  12.999
36619W        W 3160   5.188  41.223   4.908
36620W        W 3161   4.898  23.989   0.813
36621W        W 3162  25.519  30.748   2.352
36622W        W 3163  11.283  36.767  13.939
36623W        W 3164   3.636   8.787  14.367
36624W        W 3165  25.156  15.933  12.135
36625W        W 3166  24.594   5.954  14.216
36626W        W 3167  13.072  12.256  11.931
36627W        W 3168  26.574  43.613  11.012
36628W        W 3169  10.137  36.040   1.920
36629W        W 3170  15.127   0.089   1.960
36630W        W 3171  12.759   6.320   2.005
36631W        W 3172  39.490  11.789   0.169
36632W        W 3173  10.472   0.688  14.395
36633W        W 3174   9.760   2.209   0.663
36634W        W 3175  12.903  37.635  10.949
36635W        W 3176  30.667  30.294   3.822
36636W        W 3177   5.681   8.254  11.326
36637W        W 3178  16.249  29.157   4.117
36638W        W 3179  19.807   1.868   4.524
36639W        W 3180  40.383  21.483  14.979
36640W        W 3181   3.695   0.024   2.523
36641W        W 3182  42.760   5.186   0.000
36642W        W 3183  20.648  43.250  13.739
36643W        W 3184  24.689   6.715  11.497
36644W        W 3185  17.679  22.696   0.860
36645W        W 3186  36.469   3.414  11.051
36646W        W 3187  36.053  27.241   4.643
36647W        W 3188  43.975  13.257   0.736
36648W        W 3189  42.940  32.161   3.395
36649W        W 3190   4.016   7.356  12.891
36650W        W 3191  22.454  43.247   4.538
36651W        W 3192   4.087  22.143   9.898
36652W        W 3193  27.711  34.924   4.780
36653W        W 3194  22.155  36.316  13.542
36654W        W 3195   1.235  40.978  13.099
36655W        W 3196  28.184  28.168  10.822
36656W        W 3197  40.048  25.957  10.607
36657W        W 3198  31.443  42.870   2.714
36658W        W 3199   9.497  36.374  12.444
36659W        W 3200  38.013   4.928   3.164
36660W        W 3201  13.293  43.139   4.365
36661W        W 3202   2.445  10.344   3.048
36662W        W 3203  16.866   8.829   3.115
36663W        W 3204  35.395  29.458   4.491
36664W        W 3205  19.471  40.149   0.428
36665W        W 3206  34.489  31.147   0.091
36666W        W 3207  41.326  34.082   1.670
36667W        W 3208   4.609  38.893   4.959
36668W        W 3209  38.600  33.931  11.954
36669W        W 3210  29.368  40.413   1.480
36670W        W 3211  39.388  26.724  10.661
36671W        W 3212  23.060  14.063   4.864
36672W        W 3213  37.050  35.589  11.704
36673W        W 3214  39.551  32.365   2.736
36674W        W 3215  19.098  23.086   0.419
36675W        W 3216  21.920  41.463  13.927
36676W        W 3217   0.808  24.695  11.408
36677W        W 3218  19.523  28.626   4.564
36678W        W 3219   5.658  21.552   3.249
36679W        W 3220  10.467  32.901  13.439
36680W        W 3221  42.260  20.496   2.336
36681W        W 3222  35.371  14.534  12.025
36682W        W 3223  38.023  26.073   1.274
36683W        W 3224  38.379  13.351  14.234
36684W        W 3225  40.421  12.138  11.590
36685W        W 3226  10.340  11.628  10.601
36686W        W 3227  44.959   8.301  14.682
36687W        W 3228  34.021   6.831  14.771
36688W        W 3229  23.540  35.015  13.442
36689W        W 3230  14.387  11.050  11.585
36690W        W 3231  41.920  42.887  10.724
36691W        W 3232   1.095  43.116  14.093
36692W        W 3233  33.904  43.911  11.957
36693W        W 3234  12.182   9.735   4.576
36694W        W 3235  23.439  42.860  13.512
36695W        W 3236  17.525  35.407  10.702
36696W        W 3237   5.150  36.771   2.749
36697W        W 3238  36.282  20.126   2.340
36698W        W 3239  31.942   5.053  14.369
36699W        W 3240  38.593   2.738  12.516
36700W        W 3241   1.776  36.798   4.276
36701W        W 3242  32.337  13.813   1.223
36702W        W 3243   4.630  28.925  14.713
36703W        W 3244  12.338  11.629   0.226
36704W        W 3245   1.577  34.771  13.426
36705W        W 3246  24.491  21.741   3.727
36706W        W 3247  38.076  33.189   0.379
36707W        W 3248  43.576  34.913  10.816
36708W        W 3249  31.162   4.436  13.670
36709W        W 3250   6.350  14.117   4.547
36710W        W 3251   7.596  16.717   2.835
36711W        W 3252  36.261  43.522  10.639
36712W        W 3253  31.977   5.930   1.899
36713W        W 3254  13.296   8.517   0.945
36714W        W 3255  25.655   2.492  11.284
36715W        W 3256  39.927  24.523  13.625
36716W        W 3257  15.262  13.997  12.084
36717W        W 3258  10.847  39.312  14.041
36718W        W 3259  41.406  30.689   2.412
36719W        W 3260  38.485  32.578   1.915
36720W        W 3261  22.052  37.235  12.070
36721W        W 3262  22.529  44.202   2.400
36722W        W 3263   2.838  42.881   0.984
36723W        W 3264  17.516   0.894  14.032
36724W        W 3265   5.849  35.997  13.621
36725W        W 3266  25.206  12.454   1.927
36726W        W 3267  16.007  36.079  12.408
36727W        W 3268  25.446  24.081   1.377
36728W        W 3269   6.719  35.340  11.032
36729W        W 3270  24.314   0.752  13.955
36730W        W 3271  44.759   0.013   4.391
36731W        W 3272  23.468  43.880   3.723
36732W        W 3273  44.916  13.097   4.194
36733W        W 3274  17.514  31.932  14.934
36734W        W 3275  19.002  32.983  11.553
36735W        W 3276  22.811   8.233  14.880
36736W        W 3277  31.470  26.211  12.455
36737W        W 3278   0.489  29.521  11.563
36738W        W 3279  10.287   9.553   1.769
36739W        W 3280  20.597  16.533   1.368
36740W        W 3281  31.630  30.935  11.052
36741W        W 3282   3.084  12.307   3.957
36742W        W 3283   5.907  24.125  12.824
36743W        W 3284   2.704  27.711   3.753
36744W        W 3285  40.456  29.037  12.198
36745W        W 3286  43.369  25.262   4.225
36746W        W 3287  37.554  33.242  12.540
36747W        W 3288   4.959  26.802   5.475
36748W        W 3289  43.018  11.166  11.250
36749W        W 3290  42.309  26.906  13.109
36750W        W 3291  42.600  31.553  14.460
36751W        W 3292  38.500  33.943  10.751
36752W        W 3293   6.834  21.631  11.505
36753W        W 3294  17.703  21.694  14.289
36754W        W 3295  40.639   9.227   3.287
36755W        W 3296  26.914   7.410   2.668
36756W        W 3297  20.738  24.987  13.900
36757W        W 3298  28.817  43.943   0.477
36758W        W 3299  41.096  42.302   1.202
36759W        W 3300  34.080   2.072  14.883
36760W        W 3301   7.209  40.040  14.510
36761W        W 3302  23.044  14.233  11.682
36762W        W 3303  44.880  33.087   3.682
36763W        W 3304  39.899  21.244  14.230
36764W        W 3305  16.097  22.309  13.771
36765W        W 3306  29.485  33.078   4.068
36766W        W 3307  35.055   0.204   2.224
36767W        W 3308  21.222   7.632  12.157
36768W        W 3309  44.562  30.315  10.275
36769W        W 3310   6.873  17.602  12.631
36770W        W 3311  12.858  20.115  13.470
36771W        W 3312  31.379  38.232  11.090
36772W        W 3313  38.910  40.981   0.702
36773W        W 3314  20.179  27.434   3.195
36774W        W 3315  32.306  23.509  11.168
36775W        W 3316  36.082  42.015  11.563
36776W        W 3317   2.783  27.136   1.014
36777W        W 3318  22.177  14.162   3.893
36778W        W 3319  22.707  20.586  13.105
36779W        W 3320  13.816  21.590  14.927
36780W        W 3321   7.352   7.196   4.714
36781W        W 3322  33.764  22.740   3.241
36782W        W 3323  25.981  29.167  12.903
36783W        W 3324  29.982  16.722  13.883
36784W        W 3325  34.004  31.013  13.846
36785W        W 3326  33.556  14.198  11.903
36786W        W 3327  30.487  30.016   2.968
36787W        W 3328  18.286  10.670  12.477
36788W        W 3329   5.551  31.875  11.551
36789W        W 3330   7.346  34.659   2.355
36790W        W 3331   0.187  21.451   3.163
36791W        W 3332  39.928  32.114  14.731
36792W        W 3333   5.154   6.063   0.924
36793W        W 3334  40.900  28.015  13.191
36794W        W 3335  18.350  12.053   2.218
36795W        W 3336  34.997  19.299   1.227
36796W        W 3337  16.168  42.289  11.178
36797W        W 3338   0.894  43.020   3.278
36798W        W 3339  12.273  38.729  14.855
36799W        W 3340  28.683  37.296  14.963
36800W        W 3341  26.178  19.598  10.972
36801W        W 3342  42.975  33.107   2.256
36802W        W 3343  21.616  17.032   4.063
36803W        W 3344  22.093  26.149  11.562
36804W        W 3345  39.733  34.537  14.941
36805W        W 3346  44.470   6.202  13.385
36806W        W 3347   7.734  11.110   1.705
36807W        W 3348   8.869  17.618  11.085
36808W        W 3349   7.814  14.373   0.792
36809W        W 3350  34.919  42.050   1.209
36810W        W 3351   6.220  42.800  11.192
36811W        W 3352  43.922  11.229  11.138
36812W        W 3353  25.023  36.059   4.699
36813W        W 3354  23.224  25.116   1.146
36814W        W 3355  14.303  35.112  11.761
36815W        W 3356  10.833  38.660   2.598
36816W        W 3357  34.501  44.980  13.552
36817W        W 3358  42.895  16.830  10.690
36818W        W 3359  14.647  41.206   4.078
36819W        W 3360  24.591  17.935   4.313
36820W        W 3361  13.224   7.774  10.930
36821W        W 3362  25.099   9.261  11.583
36822W        W 3363  26.979  24.771   1.831
36823W        W 3364   2.945  39.735  14.866
36824W        W 3365  16.058  22.658   4.838
36825W        W 3366  15.135   6.868   0.932
36826W        W 3367   9.604   8.349   3.568
36827W        W 3368   0.164   5.156  14.807
36828W        W 3369  33.803  20.598   4.029
36829W        W 3370  24.494  34.315  11.810
36830W        W 3371  36.513  10.557   3.937
36831W        W 3372  19.696  33.207  14.402
36832W        W 3373   1.696  27.543   3.746
36833W        W 3374  11.584  15.649  10.706
36834W        W 3375  31.399  33.449   2.143
36835W        W 3376   2.400  26.739   0.371
36836W        W 3377  16.155  25.287   0.282
36837W        W 3378  18.540   5.313   2.755
36838W        W 3379   1.027  42.237   2.840
36839W        W 3380  36.408  12.471  14.430
36840W        W 3381  42.257  19.161   3.345
36841W        W 3382  25.958  36.897   2.407
36842W        W 3383   4.505  40.523   2.790
36843W        W 3384  37.093  41.502   0.854
36844W        W 3385  29.763  25.138   2.688
36845W        W 3386   0.243  42.341   4.045
36846W        W 3387  30.312  43.868  11.959
36847W        W 3388  17.770  32.623  12.356
36848W        W 3389   8.257  37.361   4.984
36849W        W 3390   5.818  23.504  14.071
36850W        W 3391  29.252  18.782  12.957
36851W        W 3392  17.928  39.461   4.563
36852W        W 3393  26.193  40.587  12.506
36853W        W 3394  12.093  36.261  11.284
36854W        W 3395  24.059  34.968  13.307
36855W        W 3396  39.916  32.818   1.846
36856W        W 3397   7.384  17.291  11.785
36857W        W 3398  40.401  44.360  11.949
36858W        W 3399   0.790  24.145  13.668
36859W        W 3400   0.872   8.946  11.716
36860W        W 3401  15.561  14.042  14.926
36861W        W 3402   0.734  37.174  13.767
36862W        W 3403  39.011  18.480   4.547
36863W        W 3404   3.320   6.236   4.572
36864W        W 3405  17.712   0.996  12.710
36865W        W 3406  38.644  14.803   2.738
36866W        W 3407  44.662  23.217   2.319
36867W        W 3408   7.761   5.701   2.867
36868W        W 3409  32.608  29.057  13.216
36869W        W 3410  29.112  19.788   0.189
36870W        W 3411   4.475  38.552   0.741
36871W        W 3412  25.476  38.469  13.999
36872W        W 3413  22.150  40.931  14.790
36873W        W 3414  16.130  39.968  13.962
36874W        W 3415   4.441  12.855  11.126
36875W        W 3416  34.547  22.493  13.124
36876W        W 3417   4.953  18.107   0.377
36877W        W 3418  13.595  29.582   1.226
36878W        W 3419   2.468  41.966  14.839
36879W        W 3420  23.992  20.681   4.834
36880W        W 3421   0.160  41.484   1.764
36881W        W 3422  24.107   7.163   2.705
36882W        W 3423  19.729  33.373   4.042
36883W        W 3424  19.117  24.264   0.906
36884W        W 3425  24.667  38.298  14.925
36885W        W 3426  15.703  21.129  12.965
36886W        W 3427  38.296  27.002   0.870
36887W        W 3428  13.853   5.366  11.499
36888W        W 3429  18.804  21.636   3.170
36889W        W 3430  26.009  15.690   3.792
36890W        W 3431  13.308   9.830  14.107
36891W        W 3432  10.686  42.508  10.139
36892W        W 3433  21.189  19.201  10.785
36893W        W 3434   6.192  35.215   1.385
36894W        W 3435  39.804   4.327  11.187
36895W        W 3436  35.690  19.053   4.692
36896W        W 3437  18.608  28.460  14.765
36897W        W 3438  29.181  34.493   2.741
36898W        W 3439  31.511  35.491   0.679
36899W        W 3440   9.280  28.239  13.974
36900W        W 3441  25.209  29.171  11.264
36901W        W 3442  11.727  14.194   3.705
36902W        W 3443  36.793  14.236   4.251
36903W        W 3444  13.928  35.748  14.430
36904W        W 3445   1.848   5.834   2.830
36905W        W 3446  39.213  32.815  12.310
36906W        W 3447  36.786   3.250  14.888
36907W        W 3448  35.586  10.489  14.943
36908W        W 3449  42.229   3.332  14.094
36909W        W 3450   4.912  29.791   5.079
36910W        W 3451   1.523  22.331  13.609
36911W        W 3452  40.783  18.945   4.582
36912W        W 3453  37.051  32.770   1.686
36913W        W 3454  38.557  34.550   2.747
36914W        W 3455  26.950  34.827   2.304
36915W        W 3456   9.155  29.450  13.267
36916W        W 3457  11.645  30.540   0.720
36917W        W 3458  44.784  17.088   4.168
36918W        W 3459  23.648   8.873  11.738
36919W        W 3460  38.393  26.676  14.925
36920W        W 3461  16.280  41.001   1.140
36921W        W 3462  23.670  12.812   0.452
36922W        W 3463  25.320  37.599  12.338
36923W        W 3464  12.562  40.915  13.342
36924W        W 3465   3.494  17.571   1.205
36925W        W 3466  32.393   9.790   1.803
36926W        W 3467  19.852  44.713  11.648
36927W        W 3468   9.404  44.412  13.749
36928W        W 3469   7.313  18.972   4.548
36929W        W 3470  32.492  33.688   0.785
36930W        W 3471   2.673  38.121   0.442
36931W        W 3472  11.795  20.691  10.288
36932W        W 3473  42.688  23.985   1.647
36933W        W 3474   8.754   6.698  10.626
36934W        W 3475  14.731   1.714  11.656
36935W        W 3476  31.396  18.093  13.431
36936W        W 3477  25.546  15.234  14.120
36937W        W 3478   6.840  19.810   2.414
36938W        W 3479  19.779  21.318   0.059
36939W        W 3480  30.987   0.777  11.613
36940W        W 3481  17.829  38.402  11.891
36941W        W 3482  29.328  38.983   4.560
36942W        W 3483   9.612   2.938  11.560
36943W        W 3484  13.775  29.633  12.959
36944W        W 3485  41.361  33.893   0.387
36945W        W 3486  15.049  26.385   5.019
36946W        W 3487   2.155  39.954   2.368
36947W        W 3488   7.832  13.233  14.355
36948W        W 3489  15.128   8.862  11.999
36949W        W 3490   6.655  30.815   3.336
36950W        W 3491  22.726  14.816   0.767
36951W        W 3492  34.096  31.374   3.766
36952W        W 3493   1.831  26.995  13.066
36953W        W 3494   1.230   6.238   3.307
36954W        W 3495  27.224   1.849   0.373
36955W        W 3496  25.173  32.901   1.956
36956W        W 3497   3.603  12.674   1.482
36957W        W 3498  32.823  24.054   4.235
36958W        W 3499  13.453   7.151   1.061
36959W        W 3500  18.258  38.552  14.441
36960W        W 3501  11.576  12.783  13.917
36961W        W 3502  40.233  38.036  13.055
36962W        W 3503  17.814  35.427   1.996
36963W        W 3504  30.910  41.969   3.579
36964W        W 3505   5.015  17.345  13.381
36965W        W 3506   8.212  30.132  11.079
36966W        W 3507  39.834  42.098  13.076
36967W        W 3508  37.885  29.650   2.300
36968W        W 3509  35.371  12.191   2.639
36969W        W 3510  18.840  36.007  10.389
36970W        W 3511  40.020  25.133  10.871
36971W        W 3512  26.551   9.138  10.825
36972W        W 3513  14.313  15.026  13.545
36973W        W 3514  12.686  26.439  12.933
36974W        W 3515  10.886  15.620   4.224
36975W        W 3516  19.220   9.147  11.837
36976W        W 3517   3.479   2.424   3.688
36977W        W 3518  38.272  18.468   4.097
36978W        W 3519  27.775  40.139   2.108
36979W        W 3520   1.178  22.959   3.279
36980W        W 3521  23.474  40.323   4.365
36981W        W 3522   8.385  43.209   3.202
36982W        W 3523   1.977  14.281  10.766
36983W        W 3524   7.437  41.934   4.050
36984W        W 3525  13.198  29.749   2.584
36985W        W 3526  28.138   2.126   3.113
36986W        W 3527  13.064  36.980  13.024
36987W        W 3528  39.344   0.270  10.360
36988W        W 3529  11.309  10.057  12.791
36989W        W 3530  28.209  15.720   2.799
36990W        W 3531   8.684  40.551  13.017
36991W        W 3532  18.855  29.449   2.742
36992W        W 3533  14.199  34.884   4.557
36993W        W 3534  25.112   8.315   4.163
36994W        W 3535  32.515  29.229  11.039
36995W        W 3536  42.066   0.709   1.316
36996W        W 3537   3.808  16.299   2.240
36997W        W 3538  26.855  31.002  12.097
36998W        W 3539   6.691  21.044  11.254
36999W        W 3540  33.937  44.289   3.268
37000W        W 3541  25.022   2.921  10.647
37001W        W 3542   8.660  44.124  14.769
37002W        W 3543  27.969  39.629  14.876
37003W        W 3544  44.563   9.669   3.650
37004W        W 3545  11.631   0.953  12.933
37005W        W 3546  11.648  42.041  13.810
37006W        W 3547  35.328  38.047   2.218
37007W        W 3548  44.483  11.250   2.430
37008W        W 3549  28.009  10.801  13.753
37009W        W 3550  16.652  20.788  14.730
37010W        W 3551  21.606  10.337   3.410
37011W        W 3552  15.072  29.551  14.500
37012W        W 3553  17.815  36.312  11.634
37013W        W 3554   0.482  36.474   1.520
37014W        W 3555  40.136  35.185   4.549
37015W        W 3556  22.099  10.388   3.195
37016W        W 3557   3.955  25.531  12.170
37017W        W 3558   6.777  13.828   4.671
37018W        W 3559  42.149  38.879  11.717
37019W        W 3560  12.640  18.754  13.464
37020W        W 3561   6.290  44.515   2.400
37021W        W 3562  17.397  27.447  11.614
37022W        W 3563   3.317  17.553  13.416
37023W        W 3564   6.112  23.123  11.588
37024W        W 3565  34.657   0.554   2.143
37025W        W 3566  16.118  25.083  11.239
37026W        W 3567  24.989   9.665  11.283
37027W        W 3568  13.192   5.400   0.427
37028W        W 3569  14.301  36.564  14.483
37029W        W 3570   9.050  27.308  10.481
37030W        W 3571  41.206  20.726  12.635
37031W        W 3572  16.727  28.326   4.096
37032W        W 3573  18.269  43.241   2.432
37033W        W 3574   7.663  14.340   4.106
37034W        W 3575   7.475  27.059  14.242
37035W        W 3576   5.637  39.839   2.261
37036W        W 3577  10.181   4.880   1.351
37037W        W 3578   6.344  32.811  11.468
37038W        W 3579  34.973   4.686  14.897
37039W        W 3580  12.376  29.999  13.344
37040W        W 3581   5.237  33.000  14.845
37041W        W 3582  42.258  11.392   0.304
37042W        W 3583  12.159  12.392  12.035
37043W        W 3584   4.924  18.059   3.237
37044W        W 3585  41.267  27.295  11.223
37045W        W 3586   1.949  15.656   2.848
37046W        W 3587  43.452  15.062   5.073
37047W        W 3588  43.719  11.056  13.746
37048W        W 3589   6.675  39.519   0.312
37049W        W 3590  27.577  34.398  11.656
37050W        W 3591   5.050  39.891  12.133
37051W        W 3592   4.842  39.066   2.777
37052W        W 3593  23.040  31.989  14.192
37053W        W 3594  33.361   0.339   1.960
37054W        W 3595  23.983  18.020  13.003
37055W        W 3596  21.119   7.218  14.116
37056W        W 3597   1.647   4.707  11.473
37057W        W 3598  33.996   0.251  14.397
37058W        W 3599  14.890  36.952   2.308
37059W        W 3600  14.887  34.547  14.409
37060W        W 3601  41.467  13.727  13.453
37061W        W 3602  40.770  44.342  14.161
37062W        W 3603  29.661  12.332   1.895
37063W        W 3604  15.782  18.076  12.177
37064W        W 3605  20.019  30.680   0.009
37065W        W 3606  35.134  13.647  14.816
37066W        W 3607   0.805  13.780  14.873
37067W        W 3608  18.875  27.527   0.739
37068W        W 3609  22.626  40.426  11.894
37069W        W 3610  34.970  13.590  13.356
37070W        W 3611  44.490  11.193   3.919
37071W        W 3612  27.355  38.600  13.050
37072W        W 3613   2.262   3.681   4.424
37073W        W 3614   5.147   8.438   0.462
37074W        W 3615  32.693  20.968   0.237
37075W        W 3616  35.671   8.303   1.467
37076W        W 3617  14.121  19.538   0.695
37077W        W 3618   3.671  33.896  11.047
37078W        W 3619  17.782  31.347   4.643
37079W        W 3620   6.281  30.493   1.616
37080W        W 3621  15.041   5.668  10.897
37081W        W 3622  44.883   6.590   0.583
37082W        W 3623   1.531  28.584   1.516
37083W        W 3624  13.710  38.839   1.381
37084W        W 3625  21.988  10.801   2.022
37085W        W 3626  40.633  12.813  11.614
37086W        W 3627  28.710  28.218   0.473
37087W        W 3628  23.987   4.974  12.935
37088W        W 3629   9.788  30.350  14.016
37089W        W 3630  39.645  18.806  11.458
37090W        W 3631  38.712  37.606   3.612
37091W        W 3632  25.037  39.866  11.954
37092W        W 3633  25.607  16.604  13.435
37093W        W 3634  29.366  25.098  13.060
37094W        W 3635   7.787  37.214  10.638
37095W        W 3636  41.772   1.280  12.867
37096W        W 3637  43.418   8.749  10.362
37097W        W 3638   0.483  39.777   0.796
37098W        W 3639  42.241  11.535  11.543
37099W        W 3640  18.877  23.698  10.426
37100W        W 3641  30.926  30.521   5.269
37101W        W 3642  28.624   8.845  14.788
37102W        W 3643  29.066   9.898  13.910
37103W        W 3644  14.788  39.903  13.633
37104W        W 3645  41.968   4.768   0.156
37105W        W 3646  31.864  37.433   3.540
37106W        W 3647   9.575   0.850   3.682
37107W        W 3648  26.772  14.069   1.381
37108W        W 3649  41.260  28.454  14.435
37109W        W 3650  20.105   6.064   0.202
37110W        W 3651  35.015  15.115  14.910
37111W        W 3652   3.628   1.837   0.778
37112W        W 3653  13.026   0.706  11.107
37113W        W 3654  11.227  42.934  11.248
37114W        W 3655  28.165  39.540   4.175
37115W        W 3656  12.063  39.415  14.326
37116W        W 3657  29.245  32.840  13.144
37117W        W 3658   2.016  37.300   0.309
37118W        W 3659  28.451  26.213   4.433
37119W        W 3660   8.682  37.864  14.772
37120W        W 3661   6.216  24.604  14.102
37121W        W 3662  11.284  27.488   4.210
37122W        W 3663  43.239  31.898  12.925
37123W        W 3664  30.197   9.278   2.264
37124W        W 3665   3.406  17.762   3.390
37125W        W 3666  28.644  19.961   4.536
37126W        W 3667  21.878  37.328  14.442
37127W        W 3668   2.701  13.086  12.985
37128W        W 3669   7.702  22.671  13.851
37129W        W 3670  34.172  36.027   3.219
37130W        W 3671  23.645  41.559   2.817
37131W        W 3672   7.632  37.344   2.383
37132W        W 3673  13.102  12.034   1.221
37133W        W 3674  43.086  40.330  14.087
37134W        W 3675   1.540  40.511   0.349
37135W        W 3676  19.379  10.212   4.246
37136W        W 3677  23.662  40.803  11.085
37137W        W 3678  29.591  32.356  12.110
37138W        W 3679  28.172  19.759   3.119
37139W        W 3680  23.809  34.457  11.239
37140W        W 3681  40.664  30.041  12.938
37141W        W 3682   9.071  18.284  12.006
37142W        W 3683  33.558  38.912   1.679
37143W        W 3684  14.091  27.609   0.221
37144W        W 3685  11.246  14.609   1.719
37145W        W 3686  19.059   1.279   2.759
37146W        W 3687  37.802  30.695  12.174
37147W        W 3688  28.998  19.242  13.454
37148W        W 3689   3.488  25.741   2.749
37149W        W 3690  43.917  41.491   2.296
37150W        W 3691  43.419   7.213   4.689
37151W        W 3692   0.505  35.540   3.303
37152W        W 3693  41.387   8.808   1.838
37153W        W 3694  14.678  19.938  14.339
37154W        W 3695   1.912  39.605   0.472
37155W        W 3696  16.708   1.166  13.031
37156W        W 3697  18.754  36.080  11.672
37157W        W 3698   0.604   3.176   4.608
37158W        W 3699  38.846  38.114  14.443
37159W        W 3700  11.035  10.492  11.932
37160W        W 3701  40.723  36.757   4.236
37161W        W 3702  12.360  27.069  12.369
37162W        W 3703   8.968  19.257  14.995
37163W        W 3704  22.598  39.400  13.003
37164W        W 3705  26.688  44.032  13.392
37165W        W 3706  34.129  18.274   1.370
37166W        W 3707  32.815  22.468  14.094
37167W        W 3708   3.659  22.974  13.785
37168W        W 3709  16.767  11.363  11.081
37169W        W 3710  11.399  21.617   0.369
37170W        W 3711  25.721   7.413  11.926
37171W        W 3712  10.356  39.336   1.666
37172W        W 3713   1.798  22.206   2.319
37173W        W 3714  18.048   7.307  12.532
37174W        W 3715  31.558  37.112  11.681
37175W        W 3716  38.754   5.890  11.133
37176W        W 3717  41.663   0.859  10.756
37177W        W 3718  15.644  19.473  14.446
37178W        W 3719  30.047  40.291  12.927
37179W        W 3720  41.611  36.883   2.227
37180W        W 3721   5.142  21.707   4.309
37181W        W 3722   9.053   6.390   5.094
37182W        W 3723  14.353  16.748   0.735
37183W        W 3724  17.759  43.792   2.152
37184W        W 3725   5.267  27.204  10.172
37185W        W 3726  12.146  42.783  11.242
37186W        W 3727  44.016  35.920   1.200
37187W        W 3728  28.421  43.970   1.784
37188W        W 3729  32.722  42.041   2.625
37189W        W 3730  12.542  40.964  14.363
37190W        W 3731  12.882  30.352   2.403
37191W        W 3732  29.921   0.293  11.991
37192W        W 3733  36.389  32.072  14.885
37193W        W 3734   7.445  44.540  13.067
37194W        W 3735  23.567   6.888   4.460
37195W        W 3736  15.501  38.854   0.895
37196W        W 3737   4.836  13.804  13.511
37197W        W 3738  26.707  21.633   2.836
37198W        W 3739  40.961   6.997   4.529
37199W        W 3740  37.359  17.921  12.824
37200W        W 3741   1.448  29.127  10.429
37201W        W 3742   0.255   2.889   4.876
37202W        W 3743  24.144   8.930   1.814
37203W        W 3744  39.041  12.706  13.567
37204W        W 3745   8.411  20.564  11.122
37205W        W 3746  15.000  34.466   2.059
37206W        W 3747  15.068  41.443  11.614
37207W        W 3748   8.862  14.667  11.503
37208W        W 3749  44.820   0.738  11.981
37209W        W 3750  11.660  41.787  14.259
37210W        W 3751  16.862  42.318   0.593
37211W        W 3752  15.583  26.633  13.414
37212W        W 3753  42.258  22.664  13.067
37213W        W 3754  13.218  33.562  11.143
37214W        W 3755  18.074  23.510   1.145
37215W        W 3756  40.592  33.682   2.396
37216W        W 3757  23.619  25.643  10.680
37217W        W 3758  24.612  40.837   0.421
37218W        W 3759  44.280   7.291  14.546
37219W        W 3760   1.070  38.610   3.395
37220W        W 3761  41.311  17.302  12.408
37221W        W 3762  21.233  42.379  13.578
37222W        W 3763  40.079  21.468  13.792
37223W        W 3764   1.996  42.273  12.358
37224W        W 3765  41.559  37.101   2.702
37225W        W 3766  30.554  30.574  11.450
37226W        W 3767  42.597   4.677   3.313
37227W        W 3768  44.338  40.370  12.902
37228W        W 3769   4.836   8.923   2.793
37229W        W 3770  26.377  15.328  12.323
37230W        W 3771  12.301  27.211   4.612
37231W        W 3772  37.099   8.594   2.883
37232W        W 3773  28.308  20.651  13.878
37233W        W 3774  41.881   6.332  13.289
37234W        W 3775  43.302  28.138   3.835
37235W        W 3776  31.192  41.435  13.523
37236W        W 3777   8.183  36.942   0.757
37237W        W 3778  38.097  40.092   2.181
37238W        W 3779  15.133  12.915   4.478
37239W        W 3780   0.204  15.750   0.351
37240W        W 3781  23.282  27.030   2.234
37241W        W 3782   7.410   9.082  12.916
37242W        W 3783  10.651  44.519  14.942
37243W        W 3784  21.704  38.489   2.788
37244W        W 3785  28.413  31.077  10.718
37245W        W 3786  30.525  24.995  10.628
37246W        W 3787  37.430  14.093  10.954
37247W        W 3788  22.147  40.094   1.834
37248W        W 3789  41.029  23.044  11.027
37249W        W 3790  32.351   7.268   4.527
37250W        W 3791  18.720  38.253   1.619
37251W        W 3792  17.784  21.256   4.452
37252W        W 3793   5.006  41.416   0.738
37253W        W 3794  43.365  43.513  11.421
37254W        W 3795  43.831  18.150  11.268
37255W        W 3796   8.875  19.156  13.621
37256W        W 3797  21.046  25.637   1.786
37257W        W 3798  27.625  33.915   3.477
37258W        W 3799  33.396   6.970  14.509
37259W        W 3800  28.599  27.939   0.900
37260W        W 3801  22.965  31.635  11.596
37261W        W 3802  42.618  29.742  10.855
37262W        W 3803  44.553  21.459  13.512
37263W        W 3804  16.683  31.835  12.577
37264W        W 3805   8.855  33.358   3.610
37265W        W 3806  27.678  26.226   2.785
37266W        W 3807  32.956  39.950   3.303
37267W        W 3808  25.528  27.639   1.265
37268W        W 3809  39.112  18.739   1.346
37269W        W 3810  35.821  26.165   1.555
37270W        W 3811  40.460  40.287   0.870
37271W        W 3812  17.484  26.683   9.928
37272W        W 3813  15.137  29.600   1.217
37273W        W 3814  42.763   7.904   0.483
37274W        W 3815  25.690   9.375   2.267
37275W        W 3816  15.102   9.376  12.857
37276W        W 3817  39.927  15.336  13.344
37277W        W 3818  44.992  39.889  12.913
37278W        W 3819   5.448  35.965  14.502
37279W        W 3820  18.260  23.453   4.141
37280W        W 3821  31.030  36.302  13.108
37281W        W 3822  34.125   2.637  12.596
37282W        W 3823  15.760  34.699   1.257
37283W        W 3824  35.462  36.082  11.785
37284W        W 3825   0.480  14.689   0.733
37285W        W 3826  31.817  36.729  13.987
37286W        W 3827  38.626  43.499  10.354
37287W        W 3828  22.239  40.494   3.791
37288W        W 3829  15.653  16.634   0.451
37289W        W 3830  32.645  31.413   1.780
37290W        W 3831   4.810  31.712  13.923
37291W        W 3832  24.673   7.824   4.491
37292W        W 3833  24.714  16.680  10.314
37293W        W 3834  25.112  11.057  14.780
37294W        W 3835  14.319  15.934  12.674
37295W        W 3836  11.764   8.610  13.975
37296W        W 3837  38.493  33.075  11.328
37297W        W 3838  26.294  10.151  12.519
37298W        W 3839  15.291  32.132   3.663
37299W        W 3840  20.957  43.854   2.587
37300W        W 3841  17.766  28.124   0.832
37301W        W 3842  16.812  10.758  14.368
37302W        W 3843  30.758  22.177  12.929
37303W        W 3844  19.660  14.626   3.565
37304W        W 3845  12.649  21.551   4.149
37305W        W 3846  33.863  40.685  13.860
37306W        W 3847   2.776  35.363   2.143
37307W        W 3848  12.510  15.259  11.476
37308W        W 3849  39.364   0.039   1.180
37309W        W 3850  28.605  31.044  13.203
37310W        W 3851   1.666   6.143   3.599
37311W        W 3852   2.843   8.682   4.197
37312W        W 3853  22.220  17.369  13.422
37313W        W 3854  21.077  20.143   1.117
37314W        W 3855  31.521   9.574   0.895
37315W        W 3856  36.885  12.678  14.883
37316W        W 3857  10.461  20.159   2.316
37317W        W 3858  22.302  40.422  12.368
37318W        W 3859  32.953  20.472   4.194
37319W        W 3860  24.193   3.555  12.478
37320W        W 3861  39.460  23.102   0.126
37321W        W 3862   6.346  34.297   0.382
37322W        W 3863  36.417  15.797   4.570
37323W        W 3864  14.729  44.779  13.804
37324W        W 3865  41.207  11.402   9.916
37325W        W 3866  35.942  28.135  14.282
37326W        W 3867  43.734  31.015   3.239
37327W        W 3868  40.028  15.576  12.190
37328W        W 3869  31.546  13.722  14.808
37329W        W 3870  34.796  31.860  10.352
37330W        W 3871  33.112  14.661   3.100
37331W        W 3872  35.876   4.038   3.304
37332W        W 3873   1.766  31.628  12.547
37333W        W 3874  42.090  36.828  10.911
37334W        W 3875  43.040   1.399  14.277
37335W        W 3876  14.309  22.999  12.001
37336W        W 3877  24.712  19.492  11.889
37337W        W 3878  26.015  15.061   0.599
37338W        W 3879  17.022  38.039   4.628
37339W        W 3880   4.783  29.146   4.055
37340W        W 3881  14.055  43.406   0.393
37341W        W 3882  33.989  26.457   0.286
37342W        W 3883   0.957  26.082   4.454
37343W        W 3884  29.422  43.375  12.426
37344W        W 3885  16.379  33.259  13.559
37345W        W 3886  19.018  22.276  11.922
37346W        W 3887  25.208  28.327   0.322
37347W        W 3888  40.428  12.193   5.152
37348W        W 3889  42.833  38.765   0.303
37349W        W 3890  34.963  23.233   0.943
37350W        W 3891  29.285   8.728   1.938
37351W        W 3892   6.438   0.811   4.736
37352W        W 3893  10.890  33.938  10.467
37353W        W 3894  37.953   7.269  11.610
37354W        W 3895  11.335  11.459  10.881
37355W        W 3896  11.051   6.236   2.654
37356W        W 3897  14.595  19.846  13.438
37357W        W 3898  34.343  24.716  12.498
37358W        W 3899   8.432  43.321   0.716
37359W        W 3900   6.588   5.311  10.613
37360W        W 3901   2.187  35.048  12.077
37361W        W 3902   1.925  34.683  11.107
37362W        W 3903  24.952  31.651  11.196
37363W        W 3904  33.620   2.066   2.609
37364W        W 3905   7.712  31.102  12.567
37365W        W 3906  26.117  23.919   2.683
37366W        W 3907  11.418  33.546  12.477
37367W        W 3908  22.584  16.479   4.588
37368W        W 3909  43.733  12.825   1.863
37369W        W 3910  10.867  41.990   1.753
37370W        W 3911  14.628  26.743   2.312
37371W        W 3912  31.166  38.533   3.279
37372W        W 3913  38.203  36.021  11.432
37373W        W 3914  12.146  12.360   3.213
37374W        W 3915  40.385  21.294   4.648
37375W        W 3916  21.526  26.225   1.034
37376W        W 3917  24.520  19.803   2.112
37377W        W 3918  24.769   5.074   5.258
37378W        W 3919  18.086  31.659  11.168
37379W        W 3920  33.118  16.792   2.879
37380W        W 3921   8.279  26.468  11.092
37381W        W 3922  33.281  20.971  13.344
37382W        W 3923  15.672  43.438  12.123
37383W        W 3924   1.820  34.590  12.504
37384W        W 3925  10.652   7.505   3.382
37385W        W 3926  15.001   0.111  12.439
37386W        W 3927  43.047  12.219   4.288
37387W        W 3928  38.059  40.685  13.735
37388W        W 3929  30.343   9.776   1.558
37389W        W 3930   9.824   7.919   3.754
37390W        W 3931  11.537  16.124   4.732
37391W        W 3932  31.334  33.951  12.974
37392W        W 3933  33.115  23.617  10.790
37393W        W 3934  28.968   1.472  13.797
37394W        W 3935  19.462   4.732   0.012
37395W        W 3936  16.846   9.266  11.206
37396W        W 3937  42.864  40.480   1.435
37397W        W 3938  35.088   2.235   2.185
37398W        W 3939  29.161  18.018  11.104
37399W        W 3940  44.530   9.416   1.227
37400W        W 3941  42.825  17.597   3.246
37401W        W 3942  14.797  36.070   0.030
37402W        W 3943   5.701  40.579  10.735
37403W        W 3944  14.130  19.148  11.684
37404W        W 3945   6.682  39.611  13.467
37405W        W 3946  36.034  16.849   0.954
37406W        W 3947  30.027  28.956  14.590
37407W        W 3948  14.717   5.258   0.266
37408W        W 3949  41.313  18.285  10.854
37409W        W 3950   6.609  42.208  11.492
37410W        W 3951  16.007  12.771   4.720
37411W        W 3952   0.260  41.972   1.778
37412W        W 3953  20.961  26.357   4.904
37413W        W 3954   5.352   9.081  11.472
37414W        W 3955  39.758  14.643  12.480
37415W        W 3956  16.183  27.729  12.963
37416W        W 3957   3.942  35.475  14.845
37417W        W 3958   7.907   1.849   3.377
37418W        W 3959  13.388  35.085   1.932
37419W        W 3960  38.805  22.973   4.073
37420W        W 3961  14.407  44.545  11.728
37421W        W 3962  30.720  30.939   0.300
37422W        W 3963   6.935  44.354  14.079
37423W        W 3964  32.866   4.974  14.524
37424W        W 3965  17.272   5.877  13.207
37425W        W 3966  23.081  29.907   3.293
37426W        W 3967  20.098  35.625  14.871
37427W        W 3968  42.900  37.740   4.576
37428W        W 3969  14.884  41.502  10.025
37429W        W 3970  32.817  26.810   3.981
37430W        W 3971  40.259  13.046  14.347
37431W        W 3972  38.926  41.840   0.244
37432W        W 3973   8.330  13.634   4.118
37433W        W 3974  15.393  30.087   1.216
37434W        W 3975  27.806  19.932   2.075
37435W        W 3976  24.522  39.933   2.058
37436W        W 3977  11.874  43.080  12.900
37437W        W 3978  41.648  42.963   4.469
37438W        W 3979  36.040  31.799   1.360
37439W        W 3980  35.010  25.134   0.421
37440W        W 3981  36.147  23.260   4.467
37441W        W 3982  15.619  26.083  12.046
37442W        W 3983  23.172  16.987  14.946
37443W        W 3984  36.359  13.165  11.920
37444W        W 3985  42.338  16.134   3.036
37445W        W 3986  33.070  37.954  13.130
37446W        W 3987  17.577  41.101   4.780
37447W        W 3988  42.329  20.337   3.709
37448W        W 3989  43.442  12.082  10.700
37449W        W 3990  31.936  21.970   2.375
37450W        W 3991  12.583  38.921   3.670
37451W        W 3992   8.184  11.305  12.457
37452W        W 3993  26.946  30.159   1.727
37453W        W 3994  26.793  14.249  14.719
37454W        W 3995  12.999  15.189  12.915
37455W        W 3996  43.690  24.217  10.022
37456W        W 3997  24.051   4.795   1.844
37457W        W 3998  30.013   2.980  13.873
37458W        W 3999  42.830   0.835   4.227
37459W        W 4000   5.895   0.724   3.139
37460W        W 4001  24.288  11.526  11.281
37461W        W 4002  23.661  17.560   0.169
37462W        W 4003   8.943   9.736   2.875
37463W        W 4004  44.760  29.196  11.172
37464W        W 4005  34.544  26.464   3.335
37465W        W 4006  24.264  32.516  14.044
37466W        W 4007  15.377  42.193   3.235
37467W        W 4008  41.769  24.851   3.633
37468W        W 4009  14.523   4.681   2.306
37469W        W 4010   1.142   9.642   1.990
37470W        W 4011   6.558  24.237   1.438
37471W        W 4012   4.905  20.707  14.376
37472W        W 4013  15.880   6.676  14.806
37473W        W 4014   3.219   2.707  14.413
37474W        W 4015  10.547  21.192  10.589
37475W        W 4016  27.046  31.360  10.659
37476W        W 4017  40.081   7.832  12.174
37477W        W 4018  20.601  21.613  12.540
37478W        W 4019   5.143  20.658  12.535
37479W        W 4020   6.955  27.536   1.662
37480W        W 4021   2.020  30.740  13.964
37481W        W 4022  32.056  35.265   4.472
37482W        W 4023  41.082  23.030   0.054
37483W        W 4024  33.184   0.445   2.443
37484W        W 4025  12.812  40.632  12.169
37485W        W 4026  25.902   6.927  13.422
37486W        W 4027   0.468  17.141  12.307
37487W        W 4028  17.482   4.726  11.529
37488W        W 4029   6.745   1.397  12.030
37489W        W 4030   7.678  22.729   1.383
37490W        W 4031  30.408  14.117  13.274
37491W        W 4032  30.861  18.913  10.932
37492W        W 4033  44.357  28.129   1.928
37493W        W 4034  12.120  21.757  11.697
37494W        W 4035  40.594  11.281  14.859
37495W        W 4036   6.112  41.955  13.072
37496W        W 4037  41.518  19.274  12.273
37497W        W 4038  42.985   0.078   2.922
37498W        W 4039  18.345  24.323  12.050
37499W        W 4040  35.173  25.565   2.109
37500W        W 4041  16.486  17.491   0.945
37501W        W 4042  25.091  18.887  11.172
37502W        W 4043  41.367  39.271  13.817
37503W        W 4044   6.406  15.134   3.555
37504W        W 4045  18.754  11.218   4.891
37505W        W 4046  41.960  28.017   4.204
37506W        W 4047   7.931  24.488  11.221
37507W        W 4048  42.397  10.745   1.127
37508W        W 4049   1.026  26.625  14.869
37509W        W 4050  13.021   6.242   4.728
37510W        W 4051  35.931  19.273   4.164
37511W        W 4052   5.699  20.884  14.293
37512W        W 4053  43.056  27.599  12.459
37513W        W 4054  30.860  38.947   3.169
37514W        W 4055  36.865  33.597   3.644
37515W        W 4056  26.157  11.547   3.866
37516W        W 4057  28.220  31.269  13.476
37517W        W 4058  38.240  17.171   1.756
37518W        W 4059   9.342  30.355   0.668
37519W        W 4060  29.574  39.045   1.262
37520W        W 4061  37.398  21.350   3.999
37521W        W 4062  42.561  24.559  14.286
37522W        W 4063  36.906  36.129  13.386
37523W        W 4064   4.201  14.329  12.099
37524W        W 4065  24.670  22.256   2.613
37525W        W 4066   6.362  13.205  14.570
37526W        W 4067  38.887  40.413  14.960
37527W        W 4068  36.327  18.848  11.795
37528W        W 4069   4.119  11.681  14.450
37529W        W 4070  19.047  39.864   0.116
37530W        W 4071  34.050  42.496  11.941
37531W        W 4072  17.820  12.850   1.992
37532W        W 4073  37.061  31.077  12.392
37533W        W 4074  39.857  15.383  10.490
37534W        W 4075  35.347  23.581   1.745
37535W        W 4076  17.663  43.620  11.130
37536W        W 4077   1.947  21.117  12.596
37537W        W 4078   3.970  10.776  14.932
37538W        W 4079   3.443  20.213   4.222
37539W        W 4080  32.959  29.046   2.311
37540W        W 4081  14.255  40.784   2.782
37541W        W 4082  30.029  14.771  14.436
37542W        W 4083  22.285  24.489   1.778
37543W        W 4084  17.954  39.577  12.475
37544W        W 4085  18.238  36.369  13.576
37545W        W 4086  21.946  41.902   1.463
37546W        W 4087  16.673  33.054  13.934
37547W        W 4088  34.859  34.014  12.144
37548W        W 4089  27.216  20.841  12.580
37549W        W 4090  43.752   1.013   3.236
37550W        W 4091  28.681   0.594   3.886
37551W        W 4092  25.242  17.505  10.759
37552W        W 4093  42.761  40.437   0.461
37553W        W 4094  29.632  15.519  13.928
37554W        W 4095   2.357  43.654   1.564
37555W        W 4096   8.282  11.493  12.962
37556W        W 4097  40.984  18.545   3.795
37557W        W 4098  25.366  19.479  10.273
37558W        W 4099  37.994  40.328  10.662
37559W        W 4100  11.108   1.844  10.658
37560W        W 4101  24.134  21.722   1.000
37561W        W 4102  29.212  33.452   0.715
37562W        W 4103  39.056  35.563   0.053
37563W        W 4104  11.308  43.400  13.801
37564W        W 4105  25.044  29.606  14.754
37565W        W 4106   8.156  38.836   2.527
37566W        W 4107  44.518  24.888  14.346
37567W        W 4108  38.760   6.259   3.146
37568W        W 4109  42.491  13.013   4.675
37569W        W 4110   5.397  23.071   2.673
37570W        W 4111  25.251   5.495  11.157
37571W        W 4112   8.094  18.717  10.796
37572W        W 4113  38.389  25.178  11.110
37573W        W 4114  27.444  15.993  11.852
37574W        W 4115  43.827  28.010  10.704
37575W        W 4116  25.876  19.280   3.864
37576W        W 4117  44.998  39.879  10.535
37577W        W 4118  42.913  36.940  14.945
37578W        W 4119  23.919   6.283   9.914
37579W        W 4120  31.964   5.673   1.439
37580W        W 4121  36.252  13.492  12.374
37581W        W 4122   4.455   9.620   3.713
37582W        W 4123  28.999   5.013  13.885
37583W        W 4124  26.057   9.653  11.856
37584W        W 4125  13.900  35.015  10.809
37585W        W 4126  24.295   5.354  13.161
37586W        W 4127   3.082  16.827   3.378
37587W        W 4128   1.013   3.406   2.344
37588W        W 4129  44.311   9.880   3.229
37589W        W 4130   0.692  32.474   3.536
37590W        W 4131  20.310  39.745  14.333
37591W        W 4132   8.634  43.637   2.266
37592W        W 4133  25.691  37.151  11.082
37593W        W 4134  40.524  12.175   4.113
37594W        W 4135  17.535  12.379  14.866
37595W        W 4136  18.473  16.282  12.336
37596W        W 4137  37.403  44.679   1.646
37597W        W 4138   5.427  21.329  10.534
37598W        W 4139  37.247   1.886  10.060
37599W        W 4140  44.469  43.279  12.633
37600W        W 4141   4.710  14.711   2.811
37601W        W 4142   5.826   4.037  12.964
37602W        W 4143  32.999  40.400  11.589
37603W        W 4144  14.218  25.558   0.138
37604W        W 4145  19.780  31.004   3.547
37605W        W 4146  34.903  28.099  14.843
37606W        W 4147  27.774  12.120  12.869
37607W        W 4148  38.902   9.145  12.095
37608W        W 4149  19.689  26.584   2.969
37609W        W 4150   9.571  30.794  10.474
37610W        W 4151  13.609   3.801  14.265
37611W        W 4152  37.672  11.238  11.576
37612W        W 4153   4.426  43.374  12.350
37613W        W 4154  28.666  36.034   1.699
37614W        W 4155   8.179   8.504   4.085
37615W        W 4156  15.822   5.183  11.208
37616W        W 4157  22.699  24.936   0.446
37617W        W 4158  40.959  44.525  14.983
37618W        W 4159  39.316  18.057  14.032
37619W        W 4160  41.076  42.511  10.683
37620W        W 4161  16.653  30.495  13.953
37621W        W 4162   9.285  37.100  12.980
37622W        W 4163  30.024   2.256  14.339
37623W        W 4164  39.451   0.789  14.265
37624W        W 4165  38.770  23.783  14.898
37625W        W 4166  29.693  28.005   4.885
37626W        W 4167  17.883  44.963  10.748
37627W        W 4168  23.356  21.611   0.260
37628W        W 4169   5.449   3.812   3.147
37629W        W 4170  32.816  11.152  14.369
37630W        W 4171   6.730   8.161   3.868
37631W        W 4172   5.960  15.189  13.370
37632W        W 4173  26.663  16.341   2.306
37633W        W 4174  21.969  38.918   2.892
37634W        W 4175  43.525  25.452   3.773
37635W        W 4176  35.361   5.220  13.347
37636W        W 4177  22.545  28.902  11.614
37637W        W 4178   1.479  43.734   4.621
37638W        W 4179   1.405  12.902  11.614
37639W        W 4180  17.098  16.597   0.478
37640W        W 4181   8.671   4.196   0.801
37641W        W 4182  27.952  26.090   4.233
37642W        W 4183  10.113  29.507  13.625
37643W        W 4184  20.916  15.018   2.177
37644W        W 4185   4.816  24.021   4.038
37645W        W 4186   6.379  29.993   1.684
37646W        W 4187  16.271   3.317  11.166
37647W        W 4188  32.171   7.281   3.650
37648W        W 4189  29.450  18.194   4.339
37649W        W 4190  17.287   8.749  14.245
37650W        W 4191  12.068  38.281  13.780
37651W        W 4192   2.427  39.985  13.899
37652W        W 4193  25.638  37.187  12.381
37653W        W 4194  20.894   5.531  14.265
37654W        W 4195  17.677   5.712   3.658
37655W        W 4196  22.469   1.934   0.455
37656W        W 4197  17.038  34.592   3.727
37657W        W 4198  12.198   0.328  11.735
37658W        W 4199   8.679  22.530   1.417
37659W        W 4200  21.895  35.483   3.849
37660W        W 4201  32.792  14.894   1.841
37661W        W 4202  38.865  23.116  11.999
37662W        W 4203  21.664  26.438   1.899
37663W        W 4204  37.915  11.241   0.195
37664W        W 4205   5.351  24.266   0.795
37665W        W 4206  37.783  28.295  11.156
37666W        W 4207  42.711   7.360   0.479
37667W        W 4208  20.258  12.629  14.366
37668W        W 4209  19.767   7.626   3.300
37669W        W 4210  29.446   3.808   3.350
37670W        W 4211  11.699   3.749   4.355
37671W        W 4212  22.038  17.251   0.916
37672W        W 4213   2.744  39.330  11.420
37673W        W 4214  38.119  25.139  13.722
37674W        W 4215  26.747  13.878   0.512
37675W        W 4216  38.457  27.878   0.536
37676W        W 4217  30.665  12.039  11.643
37677W        W 4218   5.858  43.531  12.768
37678W        W 4219  32.996  26.305   3.815
37679W        W 4220  31.376  44.401  14.969
37680W        W 4221  32.976  33.351  14.453
37681W        W 4222  41.831  18.297  10.735
37682W        W 4223  39.946  12.112  11.138
37683W        W 4224  19.469  35.799  12.534
37684W        W 4225  25.594   0.325   2.399
37685W        W 4226  39.106  19.531   3.151
37686W        W 4227   9.989   8.714   5.381
37687W        W 4228  17.707   5.204  14.905
37688W        W 4229   4.812  33.850  12.404
37689W        W 4230  12.834   5.243   0.847
37690W        W 4231  37.516  31.848   3.769
37691W        W 4232  24.946  13.742  13.548
37692W        W 4233  17.107  32.019  14.339
37693W        W 4234   3.246   1.836   3.105
37694W        W 4235  30.397  30.044  13.376
37695W        W 4236  10.172   6.358  11.950
37696W        W 4237  33.883  43.557  14.848
37697W        W 4238  24.458  38.569  14.453
37698W        W 4239   1.477   0.229  14.288
37699W        W 4240  17.202   5.823  10.554
37700W        W 4241   6.154  21.394   3.199
37701W        W 4242  42.830  32.086  14.355
37702W        W 4243  12.649  10.698   3.507
37703W        W 4244  18.746  29.013   4.576
37704W        W 4245  25.763   1.331  14.500
37705W        W 4246  44.165  14.732   1.882
37706W        W 4247  39.293   9.212   2.752
37707W        W 4248  42.873  43.473   0.774
37708W        W 4249   7.372  17.568  12.821
37709W        W 4250  25.821  42.339  12.462
37710W        W 4251  40.307   3.325   1.077
37711W        W 4252  28.000  31.825   1.307
37712W        W 4253  33.346  18.546  11.132
37713W        W 4254  11.805  26.757  14.355
37714W        W 4255  19.023  44.673   2.673
37715W        W 4256  14.216  16.634   1.238
37716W        W 4257  23.518  33.114   2.281
37717W        W 4258  11.803  40.312  11.975
37718W        W 4259  11.739  12.110  12.018
37719W        W 4260  29.203  28.350  11.564
37720W        W 4261  36.147  13.439  14.980
37721W        W 4262  41.125   1.925  13.923
37722W        W 4263  30.601  37.667  13.394
37723W        W 4264  33.133  42.845   2.078
37724W        W 4265  33.874  41.927   0.959
37725W        W 4266  30.064  25.000   1.387
37726W        W 4267  44.215  10.396  14.849
37727W        W 4268   6.626   4.258  13.310
37728W        W 4269   2.358  34.371   2.854
37729W        W 4270  39.310   3.496   1.259
37730W        W 4271  10.237   0.973  13.522
37731W        W 4272  21.026   7.069   1.251
37732W        W 4273  31.755  42.206  13.930
37733W        W 4274  35.660  41.524   3.214
37734W        W 4275  36.921  38.257   2.658
37735W        W 4276  36.181  24.965   2.772
37736W        W 4277  37.862  19.039  14.257
37737W        W 4278  20.719  13.437  11.902
37738W        W 4279  37.181   1.561   3.618
37739W        W 4280  32.977  13.765   2.630
37740W        W 4281  25.672   4.833   9.861
37741W        W 4282  19.740   2.431   2.769
37742W        W 4283   6.840  30.186  11.078
37743W        W 4284  26.523  27.179   3.627
37744W        W 4285  21.334   3.431   0.021
37745W        W 4286  10.888   4.216  11.572
37746W        W 4287   8.303  37.934  13.755
37747W        W 4288   8.824   3.960   1.647
37748W        W 4289  35.032  10.294  12.620
37749W        W 4290  32.632  38.855  10.984
37750W        W 4291  37.102  44.928  13.877
37751W        W 4292  19.795  24.956   0.194
37752W        W 4293   3.700   3.857   2.691
37753W        W 4294  23.987  16.114   4.584
37754W        W 4295  12.215  33.405   1.807
37755W        W 4296  30.590  21.197  12.577
37756W        W 4297  41.126   8.762  14.300
37757W        W 4298  28.224  44.761  12.655
37758W        W 4299  14.697  12.478  13.874
37759W        W 4300  19.558  37.392   1.777
37760W        W 4301   8.954  20.069   4.445
37761W        W 4302  34.959  22.963  11.459
37762W        W 4303  11.854  22.517   2.832
37763W        W 4304  36.139  44.256   0.972
37764W        W 4305   0.327   8.866   1.291
37765W        W 4306   7.659  12.237  14.526
37766W        W 4307  38.757   8.844  10.971
37767W        W 4308  39.968  32.914  11.613
37768W        W 4309  14.020  31.689   3.521
37769W        W 4310  22.695  11.219  14.265
37770W        W 4311   9.300  19.865  11.930
37771W        W 4312  42.272  18.808  12.541
37772W        W 4313  16.557   8.712   1.821
37773W        W 4314  21.186  30.355  11.329
37774W        W 4315  33.427  35.918  14.362
37775W        W 4316  19.591   4.183   5.007
37776W        W 4317  37.864  14.290  13.951
37777W        W 4318   0.339   6.982   1.058
37778W        W 4319  14.594  11.039  14.533
37779W        W 4320  44.100  11.711  11.176
37780W        W 4321  26.591  35.859   0.281
37781W        W 4322  35.147  34.488   0.778
37782W        W 4323  15.067  38.044   2.730
37783W        W 4324  10.589  35.341   4.162
37784W        W 4325  42.590  36.992  11.751
37785W        W 4326  28.153  43.882  12.520
37786W        W 4327  19.767   5.257  13.904
37787W        W 4328  33.618  38.865  11.470
37788W        W 4329  20.013  33.076   3.566
37789W        W 4330   1.335   1.502   1.862
37790W        W 4331  33.518   6.228  12.161
37791W        W 4332  22.461  33.642   2.393
37792W        W 4333  44.144  33.934   1.630
37793W        W 4334  12.391  26.039   3.369
37794W        W 4335  40.814  25.472  12.510
37795W        W 4336   4.336  21.821  14.797
37796W        W 4337   0.999  33.358  12.487
37797W        W 4338  36.003  38.154  13.502
37798W        W 4339  13.359   0.738   3.239
37799W        W 4340  42.067   1.714  12.071
37800W        W 4341   9.840  39.003  11.992
37801W        W 4342  40.433  21.200  10.642
37802W        W 4343  14.234  33.300  14.335
37803W        W 4344  23.229  40.057   1.389
37804W        W 4345  15.358  28.957  11.175
37805W        W 4346  13.135   4.571  11.098
37806W        W 4347  29.685  15.566   2.588
37807W        W 4348  27.826  22.960  13.199
37808W        W 4349  18.059   7.543   2.745
37809W        W 4350  26.630  18.718  14.386
37810W        W 4351  33.483  29.859  12.847
37811W        W 4352  36.564  28.672  10.537
37812W        W 4353  27.576  35.130  10.637
37813W        W 4354  41.521  22.767   3.072
37814W        W 4355  17.232  42.308   0.991
37815W        W 4356   5.438  34.467   4.327
37816W        W 4357  10.076  24.312   0.742
37817W        W 4358  36.626  36.868   0.271
37818W        W 4359  17.539  28.987  12.513
37819W        W 4360  35.879  32.364  13.925
37820W        W 4361   9.723  33.357   1.201
37821W        W 4362  33.004  31.124  11.838
37822W        W 4363  27.722   4.256  11.182
37823W        W 4364  14.362  26.120  11.387
37824W        W 4365  14.881  25.361   3.759
37825W        W 4366   2.849  28.618   0.271
37826W        W 4367  23.552  42.734  12.966
37827W        W 4368  21.142  43.819   0.724
37828W        W 4369   3.642  13.172  11.684
37829W        W 4370   0.803  28.669  13.852
37830W        W 4371  19.793  33.869   3.192
37831W        W 4372  43.320  27.005  13.173
37832W        W 4373  29.154  17.795   1.212
37833W        W 4374  26.493  27.858  11.116
37834W        W 4375   5.448  33.696   2.783
37835W        W 4376   5.011  40.286  12.796
37836W        W 4377  33.692  29.231  11.725
37837W        W 4378  14.460  12.413   1.271
37838W        W 4379   2.801  16.213  11.705
37839W        W 4380   3.383  41.604   0.660
37840W        W 4381  22.617  30.461  10.598
37841W        W 4382  22.627  19.760   0.955
37842W        W 4383  12.397  30.334   0.395
37843W        W 4384  12.862  35.545  11.943
37844W        W 4385   5.846  21.068  12.189
37845W        W 4386  28.705  18.038   1.180
37846W        W 4387  20.012  24.931  11.198
37847W        W 4388  29.719  35.488  12.516
37848W        W 4389  37.440  24.816  10.725
37849W        W 4390  42.436  12.344  10.703
37850W        W 4391  40.097  38.344  11.127
37851W        W 4392  28.025  33.927  14.209
37852W        W 4393  35.630   5.081  10.746
37853W        W 4394  24.480  13.744   2.278
37854W        W 4395   0.242  34.281   4.606
37855W        W 4396  32.504  43.791   1.333
37856W        W 4397   9.345  14.164   2.190
37857W        W 4398   9.734   8.695  10.728
37858W        W 4399   4.742  11.115   0.497
37859W        W 4400  35.408  43.371  11.074
37860W        W 4401  28.396  37.880  12.503
37861W        W 4402  32.509   5.869   0.325
37862W        W 4403  32.367  19.782   1.061
37863W        W 4404  37.752  34.496   3.023
37864W        W 4405  30.700   8.987  11.163
37865W        W 4406  33.927  15.699   3.076
37866W        W 4407  18.473  29.833   2.648
37867W        W 4408  32.582  31.337   0.904
37868W        W 4409   7.301  28.065   2.774
37869W        W 4410  43.349  29.420   4.613
37870W        W 4411  24.044  27.346   0.422
37871W        W 4412  37.637  20.869   1.454
37872W        W 4413  33.467   7.809  13.836
37873W        W 4414  28.622  20.236   3.180
37874W        W 4415  12.837  28.354   4.830
37875W        W 4416   1.525  30.980  12.934
37876W        W 4417  33.955  21.659   3.254
37877W        W 4418  13.883  23.617  13.420
37878W        W 4419  24.090  10.347   2.260
37879W        W 4420  19.818   3.602   2.328
37880W        W 4421  15.696  14.270  11.979
37881W        W 4422  19.093  43.004   1.824
37882W        W 4423   7.191   4.774   4.755
37883W        W 4424  18.426   2.785   3.796
37884W        W 4425  14.623   4.585  12.552
37885W        W 4426  16.356   4.192   4.544
37886W        W 4427  23.509  23.653   3.250
37887W        W 4428  43.208  41.073   2.194
37888W        W 4429   2.389  20.967   1.226
37889W        W 4430  30.024  10.286   3.260
37890W        W 4431  31.121  10.671   5.045
37891W        W 4432   4.462  28.235   3.739
37892W        W 4433  14.564  36.027  12.413
37893W        W 4434  42.190  27.464  11.172
37894W        W 4435   8.718  29.886   3.115
37895W        W 4436  26.500  35.971   4.685
37896W        W 4437  29.277   2.814  12.936
37897W        W 4438   6.709  17.018   0.779
37898W        W 4439  27.075  41.162   3.973
37899W        W 4440  30.932  10.007   4.227
37900W        W 4441  28.485  15.393  11.569
37901W        W 4442  44.413  25.214   4.675
37902W        W 4443  26.621  14.617   4.910
37903W        W 4444  32.678  11.605   4.155
37904W        W 4445  20.013  15.609   2.849
37905W        W 4446  44.736   4.673   1.273
37906W        W 4447  18.818  17.779  10.788
37907W        W 4448  21.340   7.662  13.410
37908W        W 4449  11.167  20.338  12.921
37909W        W 4450  27.914   3.922  11.666
37910W        W 4451  37.020  24.925  10.970
37911W        W 4452  36.057  35.099  14.311
37912W        W 4453  17.991  28.952   1.781
37913W        W 4454  26.533   2.175  14.205
37914W        W 4455  22.084  31.086   4.898
37915W        W 4456   9.593  30.704  10.994
37916W        W 4457  14.263  21.035   5.181
37917W        W 4458  16.080  31.042   1.027
37918W        W 4459  14.826  42.577   1.441
37919W        W 4460  10.258  37.607  11.341
37920W        W 4461   2.420  44.739  13.351
37921W        W 4462   4.781  23.128  11.676
37922W        W 4463  39.474  23.623   4.916
37923W        W 4464  39.367  10.269  11.950
37924W        W 4465  21.215  15.885  14.347
37925W        W 4466  16.282  10.450   4.984
37926W        W 4467  18.229  23.507  11.620
37927W        W 4468  39.704  39.043   0.271
37928W        W 4469  40.820  11.138   1.190
37929W        W 4470  22.339   0.608  11.466
37930W        W 4471   2.045  23.607   3.777
37931W        W 4472  38.237   5.728   2.215
37932W        W 4473  22.766  18.578  11.740
37933W        W 4474   5.292  29.149  10.739
37934W        W 4475  22.121  38.550  12.865
37935W        W 4476  32.053   4.198  12.202
37936W        W 4477  41.427  11.609  11.381
37937W        W 4478  13.186  30.569  14.431
37938W        W 4479  14.096  23.607   4.857
37939W        W 4480  29.049  35.852  14.952
37940W        W 4481  43.974  38.351  12.441
37941W        W 4482  21.602  11.114  14.737
37942W        W 4483  15.525  29.498   3.707
37943W        W 4484  23.017   4.832   1.830
37944W        W 4485  43.584  10.322  12.021
37945W        W 4486  36.932  28.889   2.369
37946W        W 4487  25.762  39.812   1.248
37947W        W 4488  24.221  37.877   3.314
37948W        W 4489  32.985  34.394   4.163
37949W        W 4490   2.144  17.273  14.928
37950W        W 4491  10.048   8.554  13.456
37951W        W 4492   0.953  18.320   4.224
37952W        W 4493  12.364   4.944   4.317
37953W        W 4494  33.875  24.064   4.178
37954W        W 4495  29.465   0.783  11.573
37955W        W 4496  35.934  27.055   4.180
37956W        W 4497  36.402  43.822   0.789
37957W        W 4498  43.740  17.952   0.243
37958W        W 4499  44.653   7.634  14.382
37959W        W 4500   2.926  33.918  14.488
37960W        W 4501  20.167  41.515   1.769
37961W        W 4502  22.665  17.841   2.816
37962W        W 4503  35.012  38.702   4.695
37963W        W 4504  34.979  23.405   3.672
37964W        W 4505  22.235   7.907   0.965
37965W        W 4506  39.556  38.679  14.473
37966W        W 4507  35.406  18.783  11.765
37967W        W 4508  41.434  25.535   4.125
37968W        W 4509  10.128  38.656   2.386
37969W        W 4510  18.729  19.105   3.093
37970W        W 4511  32.378   6.796   3.838
37971W        W 4512  33.193   5.339   2.665
37972W        W 4513  37.390  44.837  11.606
37973W        W 4514  17.157  28.639   9.938
37974W        W 4515  26.589  36.750  11.458
37975W        W 4516   0.603  41.169   1.750
37976W        W 4517  25.405   6.446  11.982
37977W        W 4518  38.406  34.308   2.274
37978W        W 4519   6.631  15.665   3.595
37979W        W 4520  21.488   4.856  12.099
37980W        W 4521   9.830  25.972   4.724
37981W        W 4522  16.216   9.909  13.089
37982W        W 4523  18.968  33.500   3.463
37983W        W 4524  29.973  11.185  10.257
37984W        W 4525  26.993  19.628   2.434
37985W        W 4526  35.709  33.734   2.088
37986W        W 4527  20.322  35.265   3.697
37987W        W 4528  26.031  14.288   1.693
37988W        W 4529  44.919  26.562  12.551
37989W        W 4530  35.382   0.987  14.402
37990W        W 4531  42.076  36.582   0.280
37991W        W 4532  39.716  27.961  11.112
37992W        W 4533  38.836  30.183   1.985
37993W        W 4534  11.791  39.050   2.392
37994W        W 4535  22.590   7.327  12.018
37995W        W 4536  33.838  14.699  11.645
37996W        W 4537  38.607   1.344  13.030
37997W        W 4538  34.356  20.076   1.964
37998W        W 4539   2.821  34.089  14.951
37999W        W 4540   3.311  42.547   4.250
38000W        W 4541  31.902   9.379  14.109
38001W        W 4542  10.085  27.329  11.604
38002W        W 4543  44.760  22.791  13.128
38003W        W 4544   5.179  25.505   0.016
38004W        W 4545  41.895  10.247   4.671
38005W        W 4546   5.502  14.200  14.493
38006W        W 4547  13.559  38.818   1.899
38007W        W 4548  18.525  22.054  13.441
38008W        W 4549  10.876  25.728   4.206
38009W        W 4550  34.517  18.890  11.186
38010W        W 4551   5.527  20.681  11.602
38011W        W 4552  33.355  44.715  12.144
38012W        W 4553   4.678  28.819   1.633
38013W        W 4554  26.461  28.101   1.335
38014W        W 4555   4.228  20.394   4.804
38015W        W 4556  23.656   9.611   1.803
38016W        W 4557   4.770  20.917   1.771
38017W        W 4558  43.515  43.911  14.334
38018W        W 4559  14.409  38.471   0.390
38019W        W 4560   2.504  31.972  12.925
38020W        W 4561   9.722   8.626  11.674
38021W        W 4562  18.109  43.080  11.561
38022W        W 4563  16.228   7.130  11.158
38023W        W 4564  24.407   7.368  14.067
38024W        W 4565  17.971   0.908  10.935
38025W        W 4566  14.225  33.477  11.933
38026W        W 4567  10.891  27.453   2.853
38027W        W 4568  12.397  12.617   2.817
38028W        W 4569   9.964  27.624   2.215
38029W        W 4570  14.656   4.499   1.792
38030W        W 4571  15.059  20.688  13.354
38031W        W 4572  28.030  20.644  12.948
38032W        W 4573   8.894  15.576  11.573
38033W        W 4574  23.612  30.864   3.726
38034W        W 4575  24.919  36.146  13.909
38035W        W 4576  36.743   4.574   3.342
38036W        W 4577  25.326  14.167   4.979
38037W        W 4578  11.111  21.006  13.841
38038W        W 4579   9.943  40.783  11.519
38039W        W 4580   3.411  30.104   3.993
38040W        W 4581  24.000  16.701  13.935
38041W        W 4582  18.802   7.373  12.119
38042W        W 4583  35.506  17.693   0.795
38043W        W 4584  39.745  44.009   3.548
38044W        W 4585  24.586   9.165  13.439
38045W        W 4586  40.942  36.497  14.666
38046W        W 4587  30.635  33.437  12.187
38047W        W 4588  12.825  24.193   3.199
38048W        W 4589  14.441  29.995  14.465
38049W        W 4590  13.725  34.476   4.310
38050W        W 4591  13.224  39.346  11.770
38051W        W 4592  10.334  10.104  11.732
38052W        W 4593  27.083  16.441  13.315
38053W        W 4594   8.121  40.911   3.146
38054W        W 4595  35.447  33.080   1.001
38055W        W 4596  40.337  18.246   2.310
38056W        W 4597   1.367  18.731   1.033
38057W        W 4598   1.600  13.600   4.513
38058W        W 4599  27.915  21.824   2.966
38059W        W 4600  11.918  30.929  14.888
38060W        W 4601  28.140  29.738   3.242
38061W        W 4602  31.569  41.900  11.472
38062W        W 4603   5.235  31.454   2.714
38063W        W 4604  40.604  32.743  11.490
38064W        W 4605  33.203   3.559   3.264
38065W        W 4606  37.519  29.068  11.565
38066W        W 4607  33.371   0.712   4.030
38067W        W 4608   6.776  22.466   0.947
38068W        W 4609  30.597  30.557   1.094
38069W        W 4610  23.601   8.982  13.108
38070W        W 4611  23.669  23.353  12.438
38071W        W 4612  32.551  36.195   3.016
38072W        W 4613  11.545  24.725   2.355
38073W        W 4614   8.587   3.834  12.280
38074W        W 4615  23.490  42.822   0.233
38075W        W 4616  43.931  37.355  10.915
38076W        W 4617   7.766  28.715   2.184
38077W        W 4618  32.183  24.982  13.438
38078W        W 4619  22.497  25.758   3.575
38079W        W 4620  19.368  18.134  10.734
38080W        W 4621  18.760  38.459   4.864
38081W        W 4622  10.793  15.803  11.070
38082W        W 4623  28.078   3.032  13.442
38083W        W 4624   8.432  32.131  11.188
38084W        W 4625  10.623  10.743  13.388
38085W        W 4626  40.997  11.320  14.338
38086W        W 4627  13.344  13.996   3.822
38087W        W 4628  29.731   7.127  11.110
38088W        W 4629   3.381   1.059  14.239
38089W        W 4630   7.299  26.499   1.442
38090W        W 4631  36.603  23.701  14.356
38091W        W 4632  16.201  40.929   2.166
38092W        W 4633  15.707   4.536   1.868
38093W        W 4634  12.257  39.772  11.532
38094W        W 4635   8.965  19.184  11.136
38095W        W 4636  15.963  33.433  11.824
38096W        W 4637  11.330  34.434   3.860
38097W        W 4638  29.404  25.726   1.272
38098W        W 4639  34.624  40.610  14.422
38099W        W 4640   9.957  34.386   1.249
38100W        W 4641  33.527  35.304  12.515
38101W        W 4642  27.067  21.113   2.237
38102W        W 4643  25.209  33.612   4.544
38103W        W 4644  33.021   7.973  12.091
38104W        W 4645  38.959  16.779   0.857
38105W        W 4646  20.652  37.387   9.896
38106W        W 4647  19.094  20.062  14.424
38107W        W 4648  12.851  12.136  13.408
38108W        W 4649   1.467   9.368  13.764
38109W        W 4650   6.209  10.647   2.121
38110W        W 4651   8.440   6.780  13.473
38111W        W 4652   6.721  34.949  13.751
38112W        W 4653  23.855  12.760  11.686
38113W        W 4654   2.240   8.763   1.870
38114W        W 4655  16.148  44.337   3.827
38115W        W 4656  32.504  40.732  12.920
38116W        W 4657  28.340  12.390  11.196
38117W        W 4658  41.017   2.845  13.578
38118W        W 4659  38.956  43.852  10.616
38119W        W 4660  28.454  13.573  10.312
38120W        W 4661  19.818  25.046   4.241
38121W        W 4662  40.556  41.271   0.679
38122W        W 4663  22.183  27.470  11.998
38123W        W 4664  13.839  22.058   1.369
38124W        W 4665  34.571  10.209  14.246
38125W        W 4666   5.093  10.416  13.033
38126W        W 4667  41.729  41.886   0.027
38127W        W 4668  31.979  21.358  10.650
38128W        W 4669  28.681  32.122   0.768
38129W        W 4670  35.376  35.902  10.919
38130W        W 4671  42.970  13.393   9.969
38131W        W 4672   1.021  19.782   1.737
38132W        W 4673  16.191  15.635   0.767
38133W        W 4674  24.512  19.183   3.215
38134W        W 4675  37.231  10.875  13.993
38135W        W 4676  27.189   1.327   0.305
38136W        W 4677  44.040  27.028   4.112
38137W        W 4678  40.863  17.554   4.564
38138W        W 4679   5.685   6.720   0.011
38139W        W 4680  12.162  25.689   3.711
38140W        W 4681  43.222   1.187   4.646
38141W        W 4682  28.470  17.673   2.985
38142W        W 4683  22.273   2.082  13.592
38143W        W 4684  17.232  31.195  12.848
38144W        W 4685  38.026  42.247   2.642
38145W        W 4686  19.766  39.430  12.288
38146W        W 4687  28.352  40.849   1.815
38147W        W 4688  13.320   5.233  11.589
38148W        W 4689   8.848  20.688   0.769
38149W        W 4690  29.029   6.993  12.857
38150W        W 4691  34.493  18.558   1.130
38151W        W 4692  28.243   5.824   2.851
38152W        W 4693  17.722   7.386   2.366
38153W        W 4694  43.857   7.831   1.887
38154W        W 4695  36.928  38.996   4.573
38155W        W 4696  14.673  31.009  13.877
38156W        W 4697  19.749  11.172   5.002
38157W        W 4698  43.975   6.327  13.632
38158W        W 4699  15.597  18.945  14.370
38159W        W 4700  34.313  24.778   4.901
38160W        W 4701   0.367  39.477   3.729
38161W        W 4702   9.744  23.125   4.189
38162W        W 4703  39.185   8.398  14.279
38163W        W 4704   8.212   3.770   4.582
38164W        W 4705   2.764  10.679  11.849
38165W        W 4706  29.960  12.372   0.504
38166W        W 4707  31.162  42.448   2.867
38167W        W 4708  23.996   2.036  12.538
38168W        W 4709  21.251  14.169  13.146
38169W        W 4710  44.432  41.739  10.547
38170W        W 4711   7.929  37.215   2.779
38171W        W 4712  32.843  41.510   1.822
38172W        W 4713  10.264  32.628   1.286
38173W        W 4714   9.586  15.529   1.432
38174W        W 4715  14.079  14.794  11.082
38175W        W 4716  13.562   3.399  13.527
38176W        W 4717  29.739   1.827   4.118
38177W        W 4718  22.606   5.712  14.437
38178W        W 4719  33.126  38.622  13.954
38179W        W 4720   5.781   1.470   1.766
38180W        W 4721  35.568  19.251   0.821
38181W        W 4722  33.148  20.663  14.285
38182W        W 4723  29.876   8.789   0.173
38183W        W 4724  14.340  38.779  12.876
38184W        W 4725  33.969   1.081  11.044
38185W        W 4726  39.415  24.796   0.793
38186W        W 4727  12.023  13.588   0.824
38187W        W 4728   0.209   0.570   2.322
38188W        W 4729  38.205  23.556  12.490
38189W        W 4730  42.855  43.436   3.678
38190W        W 4731  29.474  25.579   2.579
38191W        W 4732  19.152  38.416   0.464
38192W        W 4733  15.801  14.000   1.609
38193W        W 4734  15.612  42.702   4.082
38194W        W 4735   3.025  14.031  13.047
38195W        W 4736  35.593  33.094  11.909
38196W        W 4737  16.065  44.294   1.303
38197W        W 4738   7.765  15.527  10.543
38198W        W 4739  11.854  22.625  14.484
38199W        W 4740  15.685  26.532  12.402
38200W        W 4741  33.472   7.299  14.080
38201W        W 4742  41.005  27.991  13.745
38202W        W 4743  21.515  36.889  11.037
38203W        W 4744  32.588  30.692   2.217
38204W        W 4745  29.613  19.703   4.608
38205W        W 4746  14.157  23.349  13.829
38206W        W 4747  10.314  13.818  11.165
38207W        W 4748  41.567   4.758  11.346
38208W        W 4749   5.454   5.423   3.345
38209W        W 4750  36.527  16.147  12.782
38210W        W 4751   8.235  42.590  13.592
38211W        W 4752  14.166  34.950  10.252
38212W        W 4753  16.176  10.927   3.150
38213W        W 4754  18.832  21.003   0.881
38214W        W 4755  13.986   6.624  13.353
38215W        W 4756  26.715  32.593  13.867
38216W        W 4757  29.208   4.733  12.537
38217W        W 4758  30.590  22.717   1.192
38218W        W 4759   2.943  41.716  12.344
38219W        W 4760  23.991  17.616  12.128
38220W        W 4761   7.332  27.486  11.126
38221W        W 4762  29.331  43.832   0.406
38222W        W 4763  12.094  43.086  11.653
38223W        W 4764   7.166  41.015   4.321
38224W        W 4765  17.730  11.225   2.244
38225W        W 4766  11.165   1.373  11.899
38226W        W 4767   6.716  29.184  10.941
38227W        W 4768  10.726  40.164  14.870
38228W        W 4769  31.946  43.398  12.650
38229W        W 4770  32.039  20.457   2.261
38230W        W 4771  23.267  38.987  12.630
38231W        W 4772   2.194  20.686  14.063
38232W        W 4773   7.287  19.686  14.956
38233W        W 4774  37.643  28.182   0.425
38234W        W 4775  17.004  19.487   2.236
38235W        W 4776   5.217   8.959   0.341
38236W        W 4777   6.959  44.303   4.523
38237W        W 4778  22.550  12.372  12.513
38238W        W 4779  44.697   5.518  14.347
38239W        W 4780  42.047  19.600  10.262
38240W        W 4781  26.933  22.776  14.375
38241W        W 4782   6.305  38.469  14.900
38242W        W 4783  22.998  25.499  14.735
38243W        W 4784  16.809   2.054  14.241
38244W        W 4785   0.380   2.226  13.394
38245W        W 4786  41.785  29.479   1.421
38246W        W 4787   9.369   5.631  10.390
38247W        W 4788   4.930  28.006  13.533
38248W        W 4789  33.114   1.549   3.839
38249W        W 4790  15.373  11.223  14.176
38250W        W 4791  28.220  37.366  11.544
38251W        W 4792  26.721   0.690  12.109
38252W        W 4793  19.900  19.403  10.586
38253W        W 4794  44.065  31.477  10.804
38254W        W 4795  24.165  21.673  12.957
38255W        W 4796   8.285  31.361   2.695
38256W        W 4797  27.494   3.226   0.464
38257W        W 4798  23.097  14.662  12.017
38258W        W 4799   2.237  21.911   3.970
38259W        W 4800  22.486  34.966  13.384
38260W        W 4801   6.344   5.412   2.686
38261W        W 4802  40.884   8.432  10.955
38262W        W 4803  22.231   1.595   1.783
38263W        W 4804   1.829  44.317   1.406
38264W        W 4805   4.708  44.456  11.564
38265W        W 4806  35.005   5.849  13.889
38266W        W 4807  23.144  19.069   1.086
38267W        W 4808  28.732  42.993  11.577
38268W        W 4809  40.856  40.962  14.046
38269W        W 4810   1.859  15.737   4.418
38270W        W 4811  30.459   2.248  14.957
38271W        W 4812  21.218  34.607  10.430
38272W        W 4813  21.212  26.257  13.538
38273W        W 4814  34.467   4.315   3.562
38274W        W 4815  41.235  16.221  14.853
38275W        W 4816   2.232  22.174   0.707
38276W        W 4817  22.172  15.852  11.979
38277W        W 4818  27.518  24.187   1.172
38278W        W 4819   6.288  23.236   0.863
38279W        W 4820   8.901  12.261  13.006
38280W        W 4821   7.232   8.691  13.714
38281W        W 4822  34.109  12.609   3.746
38282W        W 4823  39.336  12.847  10.271
38283W        W 4824   4.433  23.693   1.903
38284W        W 4825  23.920  35.146  14.747
38285W        W 4826   2.997  21.155   0.329
38286W        W 4827  33.683   4.170  13.748
38287W        W 4828  22.295  12.213  13.969
38288W        W 4829  39.831  19.133   3.064
38289W        W 4830   8.222  35.966   3.551
38290W        W 4831  41.567  20.484  10.838
38291W        W 4832   0.954  34.674   1.818
38292W        W 4833  31.410  36.906   0.029
38293W        W 4834  10.175   8.917   3.320
38294W        W 4835  29.698  44.075   1.729
38295W        W 4836  40.889  25.221  10.935
38296W        W 4837  29.075  18.806   0.327
38297W        W 4838  32.629  15.325  12.534
38298W        W 4839   9.180  40.941   1.206
38299W        W 4840   1.764   0.383   3.663
38300W        W 4841  25.436   1.593   4.496
38301W        W 4842  25.248   2.312  12.094
38302W        W 4843  18.336  36.373  11.643
38303W        W 4844  34.074  19.981   2.405
38304W        W 4845  22.538   8.767   4.680
38305W        W 4846  40.407   6.216  13.495
38306W        W 4847  31.215  30.380   1.883
38307W        W 4848  37.386  23.115   3.664
38308W        W 4849   6.207  12.866  10.214
38309W        W 4850  39.561  24.213  12.900
38310W        W 4851   5.693  37.361   1.639
38311W        W 4852  20.721  25.363  12.438
38312W        W 4853  33.906   3.312   0.306
38313W        W 4854   5.193  30.160  13.054
38314W        W 4855  21.239   1.197   3.772
38315W        W 4856  10.994   5.850  14.834
38316W        W 4857   9.799  10.662  13.892
38317W        W 4858  35.802  23.440  13.581
38318W        W 4859   9.199   3.022  12.535
38319W        W 4860  41.974  12.067   0.353
38320W        W 4861   1.546   8.345   1.416
38321W        W 4862  16.037  11.434   3.266
38322W        W 4863  38.857  10.364  11.706
38323W        W 4864  29.946  18.116   1.283
38324W        W 4865  19.937  30.163  14.976
38325W        W 4866   7.101  30.316   4.494
38326W        W 4867  17.785  35.906  11.957
38327W        W 4868   9.756  34.568  11.651
38328W        W 4869  44.585  40.595  14.373
38329W        W 4870  25.714   3.897   1.346
38330W        W 4871  18.225   7.235  13.627
38331W        W 4872  26.313   2.855  13.381
38332W        W 4873  33.120  34.996  10.888
38333W        W 4874  42.806  33.177  11.899
38334W        W 4875  29.743  15.022  14.059
38335W        W 4876  16.173  15.961  12.337
38336W        W 4877  24.048  36.366  14.949
38337W        W 4878  34.665  18.738   4.178
38338W        W 4879  19.612  20.591   0.926
38339W        W 4880   9.203  26.589   0.712
38340W        W 4881  25.488  32.608  14.570
38341W        W 4882  16.792  23.721   0.900
38342W        W 4883   3.850   4.044   1.385
38343W        W 4884  37.665  31.870  11.044
38344W        W 4885  26.640  29.010   2.931
38345W        W 4886  42.362  40.433   4.632
38346W        W 4887   4.282  37.343  13.893
38347W        W 4888  27.993   0.419   4.254
38348W        W 4889  20.621  38.221  11.088
38349W        W 4890  13.470  44.761   0.556
38350W        W 4891  39.972  27.910   4.258
38351W        W 4892   8.821  12.560   0.744
38352W        W 4893   1.370  41.581   2.393
38353W        W 4894   9.714   9.115   1.265
38354W        W 4895   6.187  16.268   0.714
38355W        W 4896   6.840   0.490   4.654
38356W        W 4897  13.695  11.193   2.322
38357W        W 4898  37.468  22.205   0.298
38358W        W 4899  23.264   7.083   0.210
38359W        W 4900  41.280  14.232  14.439
38360W        W 4901  26.406  37.592   1.014
38361W        W 4902   1.967  24.084  13.474
38362W        W 4903  18.210  18.711   0.298
38363W        W 4904   0.868  12.882   1.191
38364W        W 4905  25.489  12.116  14.352
38365W        W 4906  34.023  18.043   0.415
38366W        W 4907  25.357  23.240   1.396
38367W        W 4908  39.160  37.104  10.157
38368W        W 4909  12.139  24.595  12.012
38369W        W 4910  32.875  19.443   2.438
38370W        W 4911  38.173  29.220   0.204
38371W        W 4912  16.569  11.130   0.278
38372W        W 4913  14.352  37.862   2.150
38373W        W 4914  42.554  30.947  11.350
38374W        W 4915  20.035  33.937  13.623
38375W        W 4916   4.075  32.564   3.812
38376W        W 4917  39.002   6.872   1.632
38377W        W 4918  31.341  21.246  10.452
38378W        W 4919  19.674  41.581  11.989
38379W        W 4920  42.922  28.221   1.393
38380W        W 4921   1.204  37.011  13.915
38381W        W 4922  36.214   0.768  11.952
38382W        W 4923   1.321  37.127  11.114
38383W        W 4924  42.301   1.748  12.529
38384W        W 4925  44.794  20.571  11.167
38385W        W 4926  41.947  21.049   2.687
38386W        W 4927  26.169   7.722  13.032
38387W        W 4928  32.501  27.206   4.764
38388W        W 4929   2.036  44.523   3.143
38389W        W 4930  19.525  15.053   3.269
38390W        W 4931  23.456  26.271   4.204
38391W        W 4932   9.203  43.587   4.253
38392W        W 4933   5.172  42.367   4.220
38393W        W 4934   0.448   9.458  12.018
38394W        W 4935  22.104   8.523  13.448
38395W        W 4936  43.744  28.866  12.097
38396W        W 4937  25.387   6.762   4.135
38397W        W 4938  22.208  19.134   0.656
38398W        W 4939  24.173  36.350  10.556
38399W        W 4940  44.999  35.151   3.703
38400W        W 4941  36.094  10.797  12.026
38401W        W 4942   1.456   9.649   0.560
38402W        W 4943  32.891  41.041   1.098
38403W        W 4944  28.169   2.360   4.556
38404W        W 4945  30.500  32.827   2.305
38405W        W 4946  44.181  39.077   2.370
38406W        W 4947   7.509   2.054  14.243
38407W        W 4948   5.388  30.347   1.769
38408W        W 4949  20.587   8.861   3.357
38409W        W 4950   3.713  16.172  12.460
38410W        W 4951  32.219   0.298  14.008
38411W        W 4952  33.703  26.005  10.737
38412W        W 4953  24.357  26.957  12.836
38413W        W 4954   3.101  39.482   3.613
38414W        W 4955  24.793   3.497   3.012
38415W        W 4956  43.547   6.204  10.627
38416W        W 4957  17.020  10.222   1.884
38417W        W 4958   3.025  35.360   3.282
38418W        W 4959   4.304  36.160  12.488
38419W        W 4960   1.272  42.378   0.313
38420W        W 4961  29.525  13.712   4.362
38421W        W 4962  42.935  12.361  14.391
38422W        W 4963   9.437  33.138  14.890
38423W        W 4964  35.627   7.642  14.476
38424W        W 4965   3.269  23.882  13.070
38425W        W 4966   9.233   2.531  13.916
38426W        W 4967  19.507  29.553   4.124
38427W        W 4968  10.858   6.905   3.758
38428W        W 4969  17.578  35.136  13.429
38429W        W 4970  21.637  12.051   1.656
38430W        W 4971  27.104  39.493  13.994
38431W        W 4972  12.765  30.886  12.015
38432W        W 4973  41.331  22.615   4.611
38433W        W 4974  23.132   1.282   2.921
38434W        W 4975  18.657  13.544  14.130
38435W        W 4976  34.062  23.415   1.222
38436W        W 4977  21.665  11.568   4.718
38437W        W 4978  10.767  17.270   2.884
38438W        W 4979  11.395  40.632   9.835
38439W        W 4980  40.074  22.274   4.574
38440W        W 4981  12.780   1.259   0.822
38441W        W 4982   3.275   5.990  10.373
38442W        W 4983  35.814  17.996  11.953
38443W        W 4984  40.869   3.905   4.769
38444W        W 4985  13.605  29.869   5.224
38445W        W 4986   9.630  32.106  10.921
38446W        W 4987   7.599   4.938  12.346
38447W        W 4988  43.807  37.244   1.020
38448W        W 4989  13.628  40.068  13.848
38449W        W 4990   6.769  16.638   1.700
38450W        W 4991  30.824  34.845   1.168
38451W        W 4992  24.567  25.461   1.815
38452W        W 4993  20.323  30.881  13.363
38453W        W 4994  28.200  10.307   1.012
38454W        W 4995  27.047   5.197  13.165
38455W        W 4996   7.764  44.353  12.708
38456W        W 4997  13.122  30.352   4.073
38457W        W 4998  35.454  17.072   1.576
38458W        W 4999   4.812   0.261  10.712
38459W        W 5000  29.711   7.662   1.781
38460W        W 5001  36.431   1.800   0.057
38461W        W 5002   1.842  31.636   3.955
38462W        W 5003  36.086  10.752  14.304
38463W        W 5004  17.779   6.715   4.568
38464W        W 5005  26.761   0.771  13.400
38465W        W 5006  35.491  35.077   0.054
38466W        W 5007  20.790  20.825  13.303
38467W        W 5008  35.408  29.665   1.814
38468W        W 5009  32.916   3.863  10.788
38469W        W 5010  32.069  17.992   2.301
38470W        W 5011   7.670  29.296   0.483
38471W        W 5012  20.899  44.071  14.030
38472W        W 5013   9.653  27.181   1.221
38473W        W 5014  31.071  26.715   3.174
38474W        W 5015  15.715  40.660  12.210
38475W        W 5016  13.724  28.670   3.655
38476W        W 5017  22.072  28.662  10.631
38477W        W 5018  21.219  27.001  12.041
38478W        W 5019  43.237  21.267  13.340
38479W        W 5020  30.996  14.078   1.264
38480W        W 5021  40.842   9.117   4.573
38481W        W 5022   3.238  19.695  13.196
38482W        W 5023   2.628  36.690  14.527
38483W        W 5024   2.677  40.746  12.627
38484W        W 5025   2.302  24.195   4.660
38485W        W 5026  20.196  14.657   2.367
38486W        W 5027  41.911  25.145  10.611
38487W        W 5028  42.859  32.585   4.696
38488W        W 5029   5.205   3.277  13.501
38489W        W 5030  44.956   5.053   2.734
38490W        W 5031   5.663  16.665  11.562
38491W        W 5032  36.333  39.173   1.842
38492W        W 5033  16.697  16.170  13.580
38493W        W 5034  22.043  36.935  10.457
38494W        W 5035  24.183  41.973  12.889
38495W        W 5036  40.592  39.841   2.244
38496W        W 5037   0.958   6.670   3.222
38497W        W 5038  41.733  32.760   2.801
38498W        W 5039   2.961  25.979  14.595
38499W        W 5040  14.434  26.688   1.214
38500W        W 5041  38.287  39.042   1.609
38501W        W 5042   4.669  16.933   3.900
38502W        W 5043  16.374  11.162   3.574
38503W        W 5044  37.003   0.236  10.711
38504W        W 5045  40.480  13.564   2.210
38505W        W 5046   6.743  15.246   3.904
38506W        W 5047   0.404  34.857   3.580
38507W        W 5048  35.076  37.203  14.785
38508W        W 5049  18.155  31.281   1.417
38509W        W 5050  32.287   4.093  11.039
38510W        W 5051  32.927  14.385   1.890
38511W        W 5052  42.957  32.227   2.199
38512W        W 5053  19.269  38.343   4.700
38513W        W 5054  35.391  36.407  10.841
38514W        W 5055  29.211  12.450   2.150
38515W        W 5056  37.085  24.245  11.698
38516W        W 5057  32.430  18.782   4.581
38517W        W 5058  36.081  39.534   3.292
38518W        W 5059  23.872   0.344  12.505
38519W        W 5060  44.858  14.737  12.475
38520W        W 5061  21.546  39.253   1.217
38521W        W 5062  23.403   0.927  13.010
38522W        W 5063  25.377   0.987   1.676
38523W        W 5064  29.662  41.887   3.619
38524W        W 5065   8.542  39.349   3.124
38525W        W 5066  20.828  34.947   3.334
38526W        W 5067  14.014  33.447   3.653
38527W        W 5068  17.578  44.547  10.887
38528W        W 5069   8.215  38.009  13.257
38529W        W 5070   2.452  37.988   0.888
38530W        W 5071   9.332  42.335  11.172
38531W        W 5072  30.701  38.717  12.039
38532W        W 5073  39.107  24.675  11.125
38533W        W 5074  36.886  16.600   3.998
38534W        W 5075  21.652   4.981   1.386
38535W        W 5076  27.423  24.088   0.283
38536W        W 5077  32.488  10.378   2.675
38537W        W 5078  27.574   0.670  12.609
38538W        W 5079  42.583   0.840  12.122
38539W        W 5080  19.739  33.438  10.483
38540W        W 5081  24.382  32.769   2.754
38541W        W 5082  40.954  11.649   1.212
38542W        W 5083  37.160  10.435  10.418
38543W        W 5084  17.208  43.589  11.692
38544W        W 5085  24.563  25.963   1.800
38545W        W 5086  35.881  34.922   3.832
38546W        W 5087  27.377  13.977  11.782
38547W        W 5088  13.025  14.646   0.345
38548W        W 5089  33.365  41.044  13.235
38549W        W 5090  31.408  36.038  14.761
38550W        W 5091  41.210   5.229   3.385
38551W        W 5092   1.832  24.554  11.379
38552W        W 5093   6.010  29.564  10.653
38553W        W 5094  33.140  13.375  13.494
38554W        W 5095  16.953   8.873  11.511
38555W        W 5096  24.546   6.501   5.381
38556W        W 5097  12.138  44.257  14.526
38557W        W 5098  24.321  14.060   3.672
38558W        W 5099  36.314   0.301  14.133
38559W        W 5100  19.167  32.080   0.382
38560W        W 5101   8.662  27.148  11.685
38561W        W 5102  36.350  41.335  12.530
38562W        W 5103  13.575  36.808   4.489
38563W        W 5104  31.358  13.555   2.768
38564W        W 5105  22.245  16.857  13.406
38565W        W 5106   2.279  37.180  11.675
38566W        W 5107  11.669  18.424   3.128
38567W        W 5108  23.952  34.140  13.826
38568W        W 5109  39.557  19.049  12.070
38569W        W 5110  41.353  10.176   0.315
38570W        W 5111  22.619  44.340   0.109
38571W        W 5112  11.060  38.409   4.206
38572W        W 5113  32.937  16.583   2.440
38573W        W 5114  34.283  35.012  12.868
38574W        W 5115  11.200  26.251  13.968
38575W        W 5116  24.113   9.917   1.705
38576W        W 5117  31.383  12.726  13.367
38577W        W 5118  25.874  10.702   1.797
38578W        W 5119   5.870   9.114  11.429
38579W        W 5120   9.702   3.282   2.795
38580W        W 5121  16.197  12.876  10.591
38581W        W 5122  19.092  24.993  11.138
38582W        W 5123  29.869  10.276  11.304
38583W        W 5124  11.867  20.012   4.586
38584W        W 5125  41.475   4.888  12.357
38585W        W 5126  26.246   1.226  14.327
38586W        W 5127  40.228  42.485  12.958
38587W        W 5128   9.598  38.013  14.278
38588W        W 5129  37.136  14.373   3.874
38589W        W 5130  44.486  17.112  12.895
38590W        W 5131  15.248  16.755   0.744
38591W        W 5132  15.127  29.920  11.078
38592W        W 5133   5.806  33.127  14.915
38593W        W 5134  24.075  19.096  11.160
38594W        W 5135  32.407  10.941   2.863
38595W        W 5136  17.255  28.003   0.899
38596W        W 5137  24.732  35.835  13.518
38597W        W 5138  33.497  25.194  13.827
38598W        W 5139  12.054  10.768  12.495
38599W        W 5140   1.983  42.105   3.673
38600W        W 5141  18.150  10.076  11.995
38601W        W 5142  32.231  17.632  11.569
38602W        W 5143  26.999  43.473   3.247
38603W        W 5144  21.723  22.245  11.275
38604W        W 5145  41.785   7.274  12.548
38605W        W 5146  38.894  28.352  10.998
38606W        W 5147  27.711  21.531   1.126
38607W        W 5148  17.660  32.286   5.122
38608W        W 5149   8.740   6.073  12.964
38609W        W 5150  10.307  32.281   0.484
38610W        W 5151  42.653  17.700   4.241
38611W        W 5152  35.583  43.744   4.513
38612W        W 5153   9.343  20.105  13.028
38613W        W 5154   3.504   9.215  11.798
38614W        W 5155  15.278  34.891   1.540
38615W        W 5156  26.982  38.309   4.786
38616W        W 5157  14.004  20.837  11.267
38617W        W 5158  26.399  34.355  12.333
38618W        W 5159  27.424   6.788   0.545
38619W        W 5160  13.157   9.171   4.637
38620W        W 5161  42.529  23.074  12.896
38621W        W 5162  19.197   6.365  11.167
38622W        W 5163  18.788  21.034  13.568
38623W        W 5164  40.589  15.628   2.831
38624W        W 5165  15.168  13.780   2.928
38625W        W 5166   2.716  21.130  11.161
38626W        W 5167  34.855  33.874  14.067
38627W        W 5168  31.234  33.707   0.426
38628W        W 5169  41.192  32.761  12.976
38629W        W 5170  43.563   6.024  13.550
38630W        W 5171   4.277  35.531   4.695
38631W        W 5172  30.665  27.522  13.093
38632W        W 5173  16.698  30.943  12.844
38633W        W 5174   3.924   2.726   0.182
38634W        W 5175  25.815  21.994  11.377
38635W        W 5176   8.293  20.250   1.817
38636W        W 5177  32.183  20.983   3.229
38637W        W 5178  43.214   3.290  12.623
38638W        W 5179  13.139  37.554  13.811
38639W        W 5180  38.458  40.885  11.867
38640W        W 5181  40.539  32.000   2.713
38641W        W 5182  30.262  26.191  14.754
38642W        W 5183  24.065  13.829  13.892
38643W        W 5184   2.278  38.008  13.782
38644W        W 5185  33.783  10.803   1.261
38645W        W 5186  43.361   9.654   1.887
38646W        W 5187  43.291  35.354  13.371
38647W        W 5188  40.362   8.517   3.875
38648W        W 5189  14.344  15.695  11.084
38649W        W 5190  19.717   2.448   3.667
38650W        W 5191  11.538  38.841  11.104
38651W        W 5192  24.061  36.422   2.208
38652W        W 5193  44.985  19.582  13.329
38653W        W 5194  12.449  32.478  12.619
38654W        W 5195  21.750  32.379   2.111
38655W        W 5196   4.949  27.138   1.016
38656W        W 5197  43.446  38.292  12.961
38657W        W 5198   6.686   6.272  13.684
38658W        W 5199  42.988   6.605   0.841
38659W        W 5200  24.461  12.378   2.339
38660W        W 5201  20.503  11.271  11.575
38661W        W 5202  21.089   7.110   3.963
38662W        W 5203   2.153  37.581   0.916
38663W        W 5204  33.399  22.318   3.672
38664W        W 5205  29.475  37.787  14.058
38665W        W 5206  19.586  21.970   0.674
38666W        W 5207  25.722  40.800  12.543
38667W        W 5208  14.650  11.807   0.964
38668W        W 5209  43.143  23.793   0.402
38669W        W 5210  37.601   5.065   5.006
38670W        W 5211  39.779  40.455  11.549
38671W        W 5212  28.878  34.805   1.218
38672W        W 5213  41.188  30.527   2.844
38673W        W 5214   1.838  34.187  11.201
38674W        W 5215  26.270  29.163  10.387
38675W        W 5216  12.746   3.718  11.615
38676W        W 5217  41.288   0.063   0.038
38677W        W 5218  41.567   9.182  14.229
38678W        W 5219  33.566  33.583  14.485
38679W        W 5220  23.097  40.280   3.532
38680W        W 5221  26.210  15.421  10.712
38681W        W 5222  20.579   3.853   0.439
38682W        W 5223  23.468   9.184  13.575
38683W        W 5224  28.496  36.393   4.507
38684W        W 5225  43.928   1.215   0.402
38685W        W 5226  33.017  38.026  12.220
38686W        W 5227   9.833  13.245   2.419
38687W        W 5228  21.728   9.816  13.443
38688W        W 5229  14.544  21.633  14.220
38689W        W 5230   7.339  10.354   3.158
38690W        W 5231   8.364  16.502  12.700
38691W        W 5232  37.362  20.083  11.736
38692W        W 5233  14.712  41.803   0.854
38693W        W 5234  22.678  21.614   4.218
38694W        W 5235   6.490  10.305  13.877
38695W        W 5236  43.834   9.241  11.293
38696W        W 5237  12.469   8.571  12.967
38697W        W 5238  23.672  14.585  12.017
38698W        W 5239  25.587  21.082   3.831
38699W        W 5240   8.827  17.155   5.098
38700W        W 5241  21.979  40.567   1.748
38701W        W 5242   7.102  42.425  12.414
38702W        W 5243  26.557  41.420  12.308
38703W        W 5244  35.455  15.049  14.560
38704W        W 5245  24.758  44.674   2.396
38705W        W 5246  38.389   8.756   3.653
38706W        W 5247  22.679   0.322  10.737
38707W        W 5248  26.998   8.327  13.300
38708W        W 5249   1.497  27.467   0.230
38709W        W 5250   7.869  13.653  13.380
38710W        W 5251  12.360  19.505  12.875
38711W        W 5252   6.233  33.650  14.074
38712W        W 5253   4.902  28.795   2.127
38713W        W 5254  26.662   8.436  14.356
38714W        W 5255   3.135  18.938  12.012
38715W        W 5256  12.127  29.923   2.666
38716W        W 5257  12.736   5.794   4.632
38717W        W 5258  23.216  39.462  10.378
38718W        W 5259   6.330   2.384  12.382
38719W        W 5260   1.336  21.501  11.729
38720W        W 5261  29.903  18.655  13.468
38721W        W 5262  21.401   5.406  14.366
38722W        W 5263  23.209  31.307  13.086
38723W        W 5264  41.539  30.078   0.432
38724W        W 5265  27.803  24.085   4.835
38725W        W 5266  15.602  22.275  10.939
38726W        W 5267  33.616  23.273   1.015
38727W        W 5268   2.833  20.699   4.655
38728W        W 5269  37.000  42.036  14.934
38729W        W 5270   4.186   6.662   0.104
38730W        W 5271  39.832  22.906  10.617
38731W        W 5272   6.664  22.137  13.488
38732W        W 5273  42.321  17.531   4.568
38733W        W 5274   7.720  17.275  12.195
38734W        W 5275   8.833   9.296   5.047
38735W        W 5276  25.675  42.425  14.550
38736W        W 5277  13.457  13.944   4.974
38737W        W 5278  14.654   9.745  12.020
38738W        W 5279  10.337  10.810   2.702
38739W        W 5280  34.571  11.278   1.608
38740W        W 5281  23.966  44.821   0.700
38741W        W 5282  20.038   5.343  14.421
38742W        W 5283  14.202   4.688  10.984
38743W        W 5284   4.199  37.090  14.967
38744W        W 5285  34.538  19.420  11.267
38745W        W 5286   6.805  20.548  14.595
38746W        W 5287   9.188   0.936   4.592
38747W        W 5288  33.092  27.505  14.444
38748W        W 5289  20.289  37.668   4.520
38749W        W 5290  15.449   6.551   4.794
38750W        W 5291  35.451   0.972  13.545
38751W        W 5292  28.242   6.494   4.020
38752W        W 5293   3.391  43.970  13.149
38753W        W 5294  27.476   0.435  14.140
38754W        W 5295  22.198  14.138   4.943
38755W        W 5296  23.685  28.834   3.514
38756W        W 5297  42.816  10.600   2.710
38757W        W 5298  26.725  21.900  13.256
38758W        W 5299  21.451   9.168  10.531
38759W        W 5300  30.670  39.979   2.829
38760W        W 5301  41.857   8.808  13.998
38761W        W 5302  34.930  34.113   4.944
38762W        W 5303  26.910  10.797  12.814
38763W        W 5304  40.384  38.461   2.637
38764W        W 5305  12.841  37.943   4.595
38765W        W 5306  43.793  28.315  13.855
38766W        W 5307  12.153  25.312  11.312
38767W        W 5308  34.036  24.164  13.092
38768W        W 5309   1.510  39.840  11.459
38769W        W 5310  16.826  32.599  14.490
38770W        W 5311   2.834  17.250   0.497
38771W        W 5312   0.541  19.968   1.687
38772W        W 5313   3.765  28.206  12.599
38773W        W 5314  15.094  28.048   2.347
38774W        W 5315  34.050  26.340  11.621
38775W        W 5316   5.850  31.658   4.015
38776W        W 5317   5.258  19.769   2.603
38777W        W 5318  31.618  27.344   2.535
38778W        W 5319  38.398  34.878  11.040
38779W        W 5320  22.133  42.941  13.006
38780W        W 5321  15.661  27.140  13.554
38781W        W 5322  38.065  40.092  12.075
38782W        W 5323  11.735  44.438  13.160
38783W        W 5324  15.150  42.930   4.393
38784W        W 5325  28.557   4.347  13.044
38785W        W 5326   7.933   8.135  12.977
38786W        W 5327  34.979  12.295  11.612
38787W        W 5328   8.198  37.631  12.910
38788W        W 5329   9.680   5.629   4.157
38789W        W 5330  19.657  41.876   3.166
38790W        W 5331  31.156  18.563  13.393
38791W        W 5332  26.535  14.225  11.176
38792W        W 5333  34.053   5.173  11.537
38793W        W 5334   3.630  43.525  13.076
38794W        W 5335   3.938  38.858  10.583
38795W        W 5336   9.335   0.035  13.106
38796W        W 5337  16.519  21.634   1.892
38797W        W 5338  38.039  22.149  10.716
38798W        W 5339  28.076  14.734  10.848
38799W        W 5340  16.633  39.831   4.671
38800W        W 5341  13.292   7.722   4.512
38801W        W 5342  37.559   5.418   4.597
38802W        W 5343  25.603  17.135   3.957
38803W        W 5344  36.419  40.024  10.638
38804W        W 5345  34.981  23.060   2.382
38805W        W 5346  34.716   4.240   0.481
38806W        W 5347  32.306  41.534  14.219
38807W        W 5348  25.184  40.734   4.118
38808W        W 5349  42.572  35.052  11.611
38809W        W 5350  44.770  19.043  10.915
38810W        W 5351  20.762  20.977  12.110
38811W        W 5352  25.445  43.905  13.235
38812W        W 5353  15.674   4.725  12.504
38813W        W 5354  33.193  16.269   3.215
38814W        W 5355   9.860   7.485  14.851
38815W        W 5356   9.883   5.248  13.706
38816W        W 5357  33.587  39.149  12.966
38817W        W 5358  38.029   9.780  11.760
38818W        W 5359  22.119  29.648   0.667
38819W        W 5360  41.473  11.824  13.595
38820W        W 5361   2.371   8.611  10.255
38821W        W 5362  27.940  12.856  13.249
38822W        W 5363  42.505  29.418  13.449
38823W        W 5364  39.923  41.802  10.516
38824W        W 5365  43.568  20.114  13.879
38825W        W 5366  37.070  28.193  13.049
38826W        W 5367  14.029  25.491   1.849
38827W        W 5368  36.422  15.444  13.345
38828W        W 5369  12.623   4.897   2.649
38829W        W 5370   7.876   7.500  12.051
38830W        W 5371  31.583  20.600  12.464
38831W        W 5372  29.693  41.585  12.829
38832W        W 5373  39.908   0.780  14.539
38833W        W 5374  18.706  39.341   4.249
38834W        W 5375  17.903  16.579  13.783
38835W        W 5376  39.932   7.331  13.920
38836W        W 5377  13.457   7.201  12.897
38837W        W 5378  26.175  17.046   2.163
38838W        W 5379  19.208   1.764   1.411
38839W        W 5380  34.874   3.516   2.837
38840W        W 5381  38.254  19.079  12.528
38841W        W 5382  13.672  32.217  13.128
38842W        W 5383  44.757  33.383  12.845
38843W        W 5384  32.979  28.838   3.198
38844W        W 5385  22.045   9.702  11.127
38845W        W 5386   0.491   9.409   0.771
38846W        W 5387  14.630  24.228   1.500
38847W        W 5388   2.272  39.915  12.872
38848W        W 5389  42.269  35.919   3.230
38849W        W 5390  35.302  15.749  13.422
38850W        W 5391   0.362  38.500  13.582
38851W        W 5392  26.588  15.202  14.737
38852W        W 5393  33.026  15.710  14.093
38853W        W 5394  43.788   7.255  13.228
38854W        W 5395   9.689  13.724  13.094
38855W        W 5396  29.455  14.943  13.258
38856W        W 5397  23.343  11.232   1.393
38857W        W 5398   6.474   1.853  12.587
38858W        W 5399  42.428  12.195  13.432
38859W        W 5400  34.045  13.901  13.366
38860W        W 5401  29.967  20.771   2.217
38861W        W 5402  16.952  14.666   9.710
38862W        W 5403  30.408  39.100  12.887
38863W        W 5404  18.686  35.815   3.283
38864W        W 5405  40.808  23.453  10.699
38865W        W 5406   9.101  28.423   0.874
38866W        W 5407  19.587  25.223  11.233
38867W        W 5408   3.739  16.696  14.492
38868W        W 5409  19.081   7.291  11.628
38869W        W 5410  22.499  14.899   4.477
38870W        W 5411  20.004  36.285  11.017
38871W        W 5412  33.940  12.049  13.259
38872W        W 5413  22.877   7.131  11.614
38873W        W 5414  34.558  16.117   4.261
38874W        W 5415  30.947  42.877   3.651
38875W        W 5416  15.329  21.184   4.293
38876W        W 5417   1.724  10.443   2.050
38877W        W 5418  28.960  24.287   2.702
38878W        W 5419  21.038  42.377   4.784
38879W        W 5420   1.930  33.151   4.179
38880W        W 5421  39.917  23.748  12.050
38881W        W 5422  41.275  22.551  10.617
38882W        W 5423  26.529  22.542   1.292
38883W        W 5424  11.406  42.773   0.581
38884W        W 5425   8.978   5.548   1.931
38885W        W 5426   7.825  32.538  13.916
38886W        W 5427  42.451  43.733  10.431
38887W        W 5428   5.880  44.982   3.814
38888W        W 5429  26.486  35.404  14.341
38889W        W 5430  14.838  30.546   1.717
38890W        W 5431   6.854  15.942  12.063
38891W        W 5432  24.630  23.563   2.020
38892W        W 5433   5.041   6.142  14.986
38893W        W 5434  35.449  24.999  11.723
38894W        W 5435  34.458   4.331   4.092
38895W        W 5436  37.553  23.063  13.931
38896W        W 5437  25.924  17.414  14.821
38897W        W 5438  32.550  35.587   1.024
38898W        W 5439  25.439  25.879   4.708
38899W        W 5440  29.487  35.403  12.970
38900W        W 5441  23.910  43.091  13.507
38901W        W 5442  14.564   7.483   3.892
38902W        W 5443  19.079  24.772  11.622
38903W        W 5444  13.198  33.916   4.638
38904W        W 5445   3.857  23.632  10.621
38905W        W 5446  31.559  27.022  14.717
38906W        W 5447   1.358  11.406  13.492
38907W        W 5448  23.305   3.849  14.391
38908W        W 5449  34.195   3.468  14.444
38909W        W 5450  30.905  15.009  13.466
38910W        W 5451  28.979  43.562  10.568
38911W        W 5452  41.121   5.314  14.972
38912W        W 5453  12.805  44.341   0.639
38913W        W 5454  35.184   3.299  14.712
38914W        W 5455  31.070  11.293   3.592
38915W        W 5456  29.286  23.785   3.310
38916W        W 5457   7.896  15.532  11.073
38917W        W 5458  43.815  38.330   1.243
38918W        W 5459  44.903  17.622  11.995
38919W        W 5460  39.356  33.537   0.831
38920W        W 5461  35.631   4.793   0.373
38921W        W 5462  32.437  38.846   1.771
38922W        W 5463  42.908  35.231  12.554
38923W        W 5464  18.037  33.470  11.089
38924W        W 5465  17.082  22.786  13.629
38925W        W 5466  33.556  42.999  13.276
38926W        W 5467  22.471  29.691   1.354
38927W        W 5468  41.291  19.569   0.683
38928W        W 5469  25.909  39.009   4.063
38929W        W 5470   7.906  34.132   2.794
38930W        W 5471  12.484  13.293   4.314
38931W        W 5472   4.932  14.297  14.449
38932W        W 5473   5.644   3.952  12.056
38933W        W 5474  38.597  30.437   0.858
38934W        W 5475   9.328  44.524  10.993
38935W        W 5476   9.740  32.419  13.917
38936W        W 5477  28.672  11.347  14.475
38937W        W 5478  12.954  33.966   1.833
38938W        W 5479   0.857   8.012  14.246
38939W        W 5480  18.344  18.503   2.337
38940W        W 5481  23.148  44.233  14.388
38941W        W 5482   3.425   8.619   1.726
38942W        W 5483  33.992  42.453   4.019
38943W        W 5484   8.416  42.472  11.116
38944W        W 5485  25.079  13.740   4.105
38945W        W 5486  20.792  15.197  11.385
38946W        W 5487  22.187  14.879   2.083
38947W        W 5488  11.910  41.460  11.839
38948W        W 5489  25.030  15.729   4.206
38949W        W 5490  27.930  35.114  13.322
38950W        W 5491  34.972   5.261  11.375
38951W        W 5492   0.276  37.388  11.181
38952W        W 5493  11.254  10.287  13.748
38953W        W 5494  41.743   9.156   4.977
38954W        W 5495  19.092  32.481  13.421
38955W        W 5496  32.529  11.691   1.400
38956W        W 5497  36.968  20.271   3.584
38957W        W 5498  40.104  12.675  13.943
38958W        W 5499  38.542  27.448  11.242
38959W        W 5500  40.487  19.129   3.334
38960W        W 5501  23.120   1.072  11.041
38961W        W 5502  40.375  16.776   0.238
38962W        W 5503  42.500  18.349   0.747
38963W        W 5504  23.429  13.522  11.086
38964W        W 5505  19.473  21.241  13.602
38965W        W 5506   7.740  23.022  11.662
38966W        W 5507  40.785  20.483  12.449
38967W        W 5508  15.086   0.440   4.653
38968W        W 5509  24.632  33.518   3.905
38969W        W 5510  41.899  26.145   4.847
38970W        W 5511  21.165  21.335   4.556
38971W        W 5512  38.093  27.543   4.554
38972W        W 5513  13.941  42.830   2.765
38973W        W 5514  30.964  29.636  10.599
38974W        W 5515  31.465  27.624   2.126
38975W        W 5516  34.121  36.933  11.193
38976W        W 5517  13.186  32.609  10.694
38977W        W 5518  22.420  12.025   1.522
38978W        W 5519  14.894  17.125  12.543
38979W        W 5520   5.223  20.493   0.472
38980W        W 5521  19.432   9.891  11.993
38981W        W 5522  21.575  34.641   4.034
38982W        W 5523  37.175  34.604  13.365
38983W        W 5524  18.398  26.929  13.721
38984W        W 5525   4.790  17.073  12.098
38985W        W 5526   3.850  18.257   1.215
38986W        W 5527  34.128  18.279  13.457
38987W        W 5528  25.260  27.541   3.707
38988W        W 5529  30.549   9.731   3.546
38989W        W 5530   5.656  20.591  10.964
38990W        W 5531   9.937  14.353  13.879
38991W        W 5532   5.327  12.796  11.197
38992W        W 5533  12.112  19.784   3.293
38993W        W 5534  40.838  33.067   1.861
38994W        W 5535  42.383  26.583   1.294
38995W        W 5536   3.137  23.480  12.750
38996W        W 5537  36.159  31.583  12.443
38997W        W 5538  21.147   8.662   2.707
38998W        W 5539  28.018  12.656   0.297
38999W        W 5540  28.407  38.237   1.781
39000W        W 5541  18.503  25.577   0.383
39001W        W 5542  43.644  37.615  14.802
39002W        W 5543   9.357  30.627  13.881
39003W        W 5544  41.544  25.564  14.875
39004W        W 5545  13.160  23.574   1.835
39005W        W 5546   4.885  11.417  12.894
39006W        W 5547  35.392  28.124   2.739
39007W        W 5548   1.896  28.734   5.062
39008W        W 5549  33.824  39.974   1.871
39009W        W 5550  39.371   7.218  13.949
39010W        W 5551   1.948  22.687   2.763
39011W        W 5552  41.306  29.053   3.132
39012W        W 5553   1.435  31.932   2.804
39013W        W 5554   1.320  37.880   4.011
39014W        W 5555  15.272  10.581   1.817
39015W        W 5556  35.570  16.776  10.357
39016W        W 5557   3.171  14.797   2.758
39017W        W 5558  31.400  33.077  12.122
39018W        W 5559  36.473  38.904   0.892
39019W        W 5560  35.052  31.553   4.617
39020W        W 5561  26.251   8.396  13.535
39021W        W 5562  44.848  40.771  10.696
39022W        W 5563  23.736  28.690  12.929
39023W        W 5564  11.291  16.362   3.786
39024W        W 5565  17.460  25.122   2.149
39025W        W 5566  39.799  40.441  13.890
39026W        W 5567  36.851   3.313   2.103
39027W        W 5568  30.935  39.317  11.178
39028W        W 5569  10.213  36.486   3.707
39029W        W 5570   8.229  27.188   2.176
39030W        W 5571   2.524   2.242   3.298
39031W        W 5572  20.381   0.443  11.914
39032W        W 5573  37.454   1.910  11.710
39033W        W 5574   8.444  30.555   2.327
39034W        W 5575  42.204  17.472   0.991
39035W        W 5576  43.199  26.989   2.795
39036W        W 5577  17.462  24.001  12.180
39037W        W 5578  25.252  15.345  10.693
39038W        W 5579  11.105  31.877  11.947
39039W        W 5580  18.198  39.317  12.087
39040W        W 5581  27.499  41.980   2.671
39041W        W 5582  14.816  34.558   0.397
39042W        W 5583  24.531   6.296   1.366
39043W        W 5584  29.134  29.533  13.885
39044W        W 5585  32.584   4.331   2.215
39045W        W 5586  43.455  36.898  10.635
39046W        W 5587  18.236  37.202  13.796
39047W        W 5588  36.144  42.282   3.721
39048W        W 5589  42.930  36.677  10.538
39049W        W 5590   8.876  19.226   4.689
39050W        W 5591  27.269   3.833  13.446
39051W        W 5592  15.311  35.031   5.533
39052W        W 5593  39.952  35.089   1.242
39053W        W 5594  38.571  28.267   4.194
39054W        W 5595  40.236  34.397  14.969
39055W        W 5596  18.030  24.464  12.424
39056W        W 5597  10.160  23.817  11.170
39057W        W 5598  19.551   0.051  14.062
39058W        W 5599  20.528  14.408   2.722
39059W        W 5600  43.868  13.552  13.544
39060W        W 5601  37.558   0.929   1.433
39061W        W 5602  24.319  36.951   3.253
39062W        W 5603  41.893  10.257  12.612
39063W        W 5604   2.752  18.246  12.600
39064W        W 5605   3.217   2.684   2.715
39065W        W 5606  33.379  43.511   0.775
39066W        W 5607   0.582  38.429   3.293
39067W        W 5608  21.133  31.612   0.102
39068W        W 5609  29.135  30.014   3.220
39069W        W 5610   7.357   8.336   2.671
39070W        W 5611   1.784  24.942   3.661
39071W        W 5612  43.439  36.389   2.754
39072W        W 5613   8.367  24.164   3.752
39073W        W 5614  27.443  43.024  10.552
39074W        W 5615   6.814  12.887   1.463
39075W        W 5616  22.210  41.390  12.366
39076W        W 5617   8.690   2.515   3.612
39077W        W 5618  39.043   4.265   0.740
39078W        W 5619  24.298  40.878  13.067
39079W        W 5620  12.296  44.765  11.104
39080W        W 5621  26.558  44.082   0.914
39081W        W 5622  12.399   4.496  14.973
39082W        W 5623   5.710   8.628   2.408
39083W        W 5624  13.616  10.798   1.312
39084W        W 5625  13.933  18.302   0.021
39085W        W 5626  20.013  14.773  13.668
39086W        W 5627  33.021   3.766  14.656
39087W        W 5628  38.380  18.238  12.098
39088W        W 5629  12.678  21.495   1.215
39089W        W 5630   0.192  17.816  13.015
39090W        W 5631   0.031  17.018   3.185
39091W        W 5632  29.873  44.789   1.246
39092W        W 5633  28.986   2.027  11.039
39093W        W 5634  16.745  32.281   4.600
39094W        W 5635   5.089  35.377   3.732
39095W        W 5636  14.723  12.379  13.343
39096W        W 5637  34.969  30.891  12.343
39097W        W 5638   9.720   2.139  12.799
39098W        W 5639  41.915   2.233   1.268
39099W        W 5640  13.227  17.201  12.399
39100W        W 5641   0.969  36.456   1.340
39101W        W 5642  14.626   0.258   1.462
39102W        W 5643  25.572   3.586   2.657
39103W        W 5644  15.255  11.681   0.215
39104W        W 5645   9.478  23.721   3.352
39105W        W 5646  43.008  13.131  11.515
39106W        W 5647  17.050  10.995  10.258
39107W        W 5648  30.155  43.888   9.985
39108W        W 5649  22.014  17.342  12.946
39109W        W 5650  44.024  10.619   2.355
39110W        W 5651   7.983  23.663   4.514
39111W        W 5652  44.439  44.001  14.511
39112W        W 5653   9.831  20.009   1.790
39113W        W 5654  21.832   5.377  13.063
39114W        W 5655   6.907  11.162   0.784
39115W        W 5656  14.096  15.083   2.819
39116W        W 5657   5.297  17.949  11.152
39117W        W 5658  37.715  13.844   4.920
39118W        W 5659  41.518  33.153   1.396
39119W        W 5660  19.689  34.362   9.989
39120W        W 5661  17.825  42.250  10.826
39121W        W 5662  38.975  20.631   0.255
39122W        W 5663  24.080  43.328   0.732
39123W        W 5664   2.952  34.000  13.035
39124W        W 5665  24.817  41.577   1.271
39125W        W 5666   3.956  17.524  12.517
39126W        W 5667  24.749  27.183   1.508
39127W        W 5668  14.862  38.311  11.472
39128W        W 5669   3.682  25.960   2.288
39129W        W 5670  30.478  44.103  13.627
39130W        W 5671   3.701   0.776   4.611
39131W        W 5672   2.117  13.120  13.848
39132W        W 5673  15.812  31.658  14.290
39133W        W 5674   0.207  23.229  12.097
39134W        W 5675  28.608  19.549  14.404
39135W        W 5676  15.695   1.343  11.613
39136W        W 5677  14.293   7.516   0.863
39137W        W 5678  11.853   8.369  12.061
39138W        W 5679   7.400  11.841   3.653
39139W        W 5680   9.378   6.019   4.640
39140W        W 5681  27.838  34.954  11.911
39141W        W 5682  25.485   8.716   1.718
39142W        W 5683  40.775  20.952   4.189
39143W        W 5684  39.438  16.638   0.732
39144W        W 5685  18.522  23.027   5.403
39145W        W 5686  17.684  25.584  14.808
39146W        W 5687   1.194  10.277  14.462
39147W        W 5688  32.983  33.583   3.300
39148W        W 5689   8.165  28.062  11.585
39149W        W 5690  26.593   9.723  12.593
39150W        W 5691  36.502  32.106   2.637
39151W        W 5692  32.375  16.163   2.711
39152W        W 5693   0.775  30.427  13.365
39153W        W 5694  33.550   4.674   0.955
39154W        W 5695  17.979   2.707  12.087
39155W        W 5696  18.632  38.103   3.577
39156W        W 5697  26.579   0.959   4.533
39157W        W 5698  42.514  15.192   5.003
39158W        W 5699  30.922  18.126   3.923
39159W        W 5700  11.651   8.919  11.368
39160W        W 5701  33.972  14.845  14.306
39161W        W 5702  31.162   4.749  14.947
39162W        W 5703   0.924  34.392  11.252
39163W        W 5704  33.946  36.545  14.919
39164W        W 5705   4.229   2.300   0.284
39165W        W 5706  28.068  28.017   2.078
39166W        W 5707   2.223   2.545  13.492
39167W        W 5708  17.808  37.871   1.960
39168W        W 5709  35.551  14.473  14.410
39169W        W 5710  38.459   3.908  13.088
39170W        W 5711  22.667  32.056  11.546
39171W        W 5712  10.803  40.968   3.799
39172W        W 5713  13.338  31.547   1.593
39173W        W 5714   7.477  39.562  12.207
39174W        W 5715   0.990  23.616  11.993
39175W        W 5716   0.002  14.404   0.821
39176W        W 5717  20.461   1.889   2.684
39177W        W 5718   5.155  30.156   0.256
39178W        W 5719  25.326   5.839  10.731
39179W        W 5720  43.474  35.909  12.535
39180W        W 5721  17.608  20.450   2.761
39181W        W 5722  36.549  31.913  10.387
39182W        W 5723  26.608  13.838   0.003
39183W        W 5724  21.619   8.450   9.520
39184W        W 5725   0.018  11.680  11.208
39185W        W 5726  26.365  44.863   2.709
39186W        W 5727   6.587  22.688  12.500
39187W        W 5728  18.131   4.240   2.380
39188W        W 5729  23.897  33.992   0.936
39189W        W 5730  22.572  12.316   1.915
39190W        W 5731  39.799  17.508   0.307
39191W        W 5732  15.295  32.356   0.907
39192W        W 5733  36.522  36.763   3.725
39193W        W 5734  26.290  25.903   1.342
39194W        W 5735  14.662  20.427  12.595
39195W        W 5736   1.942  33.066  12.508
39196W        W 5737   8.170  38.890  12.869
39197W        W 5738  41.454  42.826  12.570
39198W        W 5739  38.690  27.602  13.745
39199W        W 5740  35.731   0.485   3.655
39200W        W 5741  41.138   4.165   1.811
39201W        W 5742  22.011  12.322   1.423
39202W        W 5743  17.804   6.192  12.949
39203W        W 5744   9.980   2.422   1.439
39204W        W 5745  37.960  14.834   1.227
39205W        W 5746  42.340   2.872   4.413
39206W        W 5747  20.134  35.623  13.034
39207W        W 5748   8.818  26.971   0.821
39208W        W 5749  27.154  15.287   2.782
39209W        W 5750  20.732  23.614  13.153
39210W        W 5751  36.492  41.329  13.023
39211W        W 5752   8.348  14.242   1.268
39212W        W 5753  10.697  30.188  14.872
39213W        W 5754  32.624   5.196   1.002
39214W        W 5755  15.108  15.121   2.779
39215W        W 5756  34.837  33.376  14.861
39216W        W 5757  13.684  23.783  12.453
39217W        W 5758  26.585   4.270   2.495
39218W        W 5759  15.517  35.758  11.172
39219W        W 5760  41.001   2.230   2.177
39220W        W 5761   9.519   8.597  13.178
39221W        W 5762   5.494  16.286   2.879
39222W        W 5763  41.919  11.706  11.183
39223W        W 5764  18.572  44.720  13.856
39224W        W 5765  19.619   3.014  13.993
39225W        W 5766  14.427  21.969  11.130
39226W        W 5767  28.528  21.666  14.343
39227W        W 5768  17.298  39.695  12.062
39228W        W 5769  42.694  35.394  13.657
39229W        W 5770   2.672  21.605   0.389
39230W        W 5771  20.587   2.000   1.275
39231W        W 5772  15.135  29.211  11.572
39232W        W 5773  19.734  13.841  11.246
39233W        W 5774  22.565  29.908   0.807
39234W        W 5775  26.635  41.872   2.742
39235W        W 5776  32.528  16.229   1.221
39236W        W 5777   1.494   1.661   3.596
39237W        W 5778  17.560   6.427  12.569
39238W        W 5779  21.414   6.239   3.390
39239W        W 5780  39.780  20.664   2.153
39240W        W 5781  11.608   9.647  13.090
39241W        W 5782   9.086  13.487  13.507
39242W        W 5783  18.361  16.201   3.582
39243W        W 5784  16.984  37.679  12.942
39244W        W 5785  20.829   8.307   0.778
39245W        W 5786  14.356   8.588  12.468
39246W        W 5787  35.340   5.310  12.099
39247W        W 5788  35.503  19.499  12.894
39248W        W 5789  33.361   9.120  11.553
39249W        W 5790  24.679   1.291   0.670
39250W        W 5791   3.657  26.427  12.599
39251W        W 5792  42.550  28.007  12.038
39252W        W 5793   7.191  14.591  12.494
39253W        W 5794  34.229  25.660   0.698
39254W        W 5795  16.117  13.814   4.835
39255W        W 5796  32.205   4.532  13.567
39256W        W 5797  41.472  12.935  12.346
39257W        W 5798   4.349  39.226  10.788
39258W        W 5799  37.170  15.375   1.193
39259W        W 5800   3.919   2.325  13.867
39260W        W 5801   5.203  11.283   2.240
39261W        W 5802  33.969  10.623   4.635
39262W        W 5803  32.105   4.790   3.275
39263W        W 5804  40.583  16.085  11.742
39264W        W 5805  10.176  32.900  11.179
39265W        W 5806  24.993  39.594  13.346
39266W        W 5807  42.024  21.826   2.151
39267W        W 5808   9.700  28.185   4.056
39268W        W 5809  24.644   4.077   0.791
39269W        W 5810  35.804  33.090   1.405
39270W        W 5811  31.390  43.855   1.666
39271W        W 5812  11.053  19.028   1.193
39272W        W 5813  21.216  43.098  14.033
39273W        W 5814  22.096   2.348  14.609
39274W        W 5815  21.685  23.957   4.646
39275W        W 5816  25.192   4.454  12.058
39276W        W 5817  25.662   6.685   4.558
39277W        W 5818  38.755  44.013   3.637
39278W        W 5819  37.106  25.563   4.754
39279W        W 5820  34.060   3.081   4.265
39280W        W 5821   5.842   7.137   3.799
39281W        W 5822  11.872  25.735  11.181
39282W        W 5823  15.073   1.299   1.300
39283W        W 5824  15.036  41.545  14.881
39284W        W 5825  32.451  38.317   0.817
39285W        W 5826  30.590  25.778   2.311
39286W        W 5827  15.658  20.495   4.291
39287W        W 5828   4.708   4.398  11.913
39288W        W 5829  35.996   7.790  14.813
39289W        W 5830   7.388  14.628   0.784
39290W        W 5831   8.059  35.300   1.286
39291W        W 5832  16.918  41.275  10.879
39292W        W 5833  38.970   0.892  14.529
39293W        W 5834  28.240  32.794   4.588
39294W        W 5835  20.201  31.393  13.407
39295W        W 5836  13.135  16.300  11.893
39296W        W 5837  22.181  29.001  13.611
39297W        W 5838   9.838   9.620   2.717
39298W        W 5839  36.417   4.903   1.303
39299W        W 5840  42.459  18.384   3.457
39300W        W 5841  24.051  28.658   4.186
39301W        W 5842  16.806  32.428   5.116
39302W        W 5843  20.985  36.935  12.438
39303W        W 5844  35.585  41.576   3.724
39304W        W 5845  12.879  25.240   3.249
39305W        W 5846  12.209  39.384   4.124
39306W        W 5847  15.614  20.598  10.700
39307W        W 5848  22.528  41.774  12.406
39308W        W 5849   5.441  38.539   2.257
39309W        W 5850  42.886  29.998  12.091
39310W        W 5851  11.736   9.346  14.707
39311W        W 5852   4.395  14.473  14.337
39312W        W 5853  13.178  40.177  12.442
39313W        W 5854   3.500  43.341  10.454
39314W        W 5855  42.159  21.176   5.158
39315W        W 5856  21.595   0.278   3.159
39316W        W 5857  16.550  15.791   3.792
39317W        W 5858  23.965  25.356   0.387
39318W        W 5859  19.606  24.996  13.921
39319W        W 5860  13.741  18.611   2.303
39320W        W 5861  16.708  12.559  12.518
39321W        W 5862   1.783  32.083  13.539
39322W        W 5863  15.903  28.051   0.223
39323W        W 5864  41.761  19.725   0.360
39324W        W 5865  23.864  20.462   1.156
39325W        W 5866  41.525  21.698   3.360
39326W        W 5867   7.346  13.087   2.745
39327W        W 5868  35.814  14.100   2.202
39328W        W 5869  34.498   7.851   2.647
39329W        W 5870   3.231  20.520   0.912
39330W        W 5871   4.407  44.395  10.240
39331W        W 5872  17.386  32.084  11.507
39332W        W 5873  33.197   9.679   0.864
39333W        W 5874  30.413  44.334   0.955
39334W        W 5875  33.641  12.875   3.360
39335W        W 5876   1.233  34.580   2.313
39336W        W 5877   4.753  38.147  12.915
39337W        W 5878  20.142   6.860   3.557
39338W        W 5879   2.828  41.560  11.099
39339W        W 5880  11.827  29.036   3.688
39340W        W 5881   5.933   6.642  14.263
39341W        W 5882  35.977   8.381  11.314
39342W        W 5883  14.834  36.065  13.657
39343W        W 5884  42.734  21.618   1.353
39344W        W 5885   8.687  40.337   3.087
39345W        W 5886   5.196  37.223   1.861
39346W        W 5887  20.700   9.341   1.174
39347W        W 5888  18.521   4.974  12.857
39348W        W 5889   5.434  17.971   3.314
39349W        W 5890  31.957  44.863  11.556
39350W        W 5891  26.562   8.894   3.523
39351W        W 5892   8.834  32.462  13.079
39352W        W 5893  22.645  24.568  12.057
39353W        W 5894  34.339  33.001  14.598
39354W        W 5895   9.154   5.261  10.735
39355W        W 5896   5.455   7.594  11.723
39356W        W 5897   4.518   9.341  13.462
39357W        W 5898  33.933  24.929   0.403
39358W        W 5899  19.581  15.278   2.157
39359W        W 5900  43.024  19.993  12.718
39360W        W 5901  30.688  40.509   4.746
39361W        W 5902  38.450  35.152   2.689
39362W        W 5903   8.812  36.674  10.741
39363W        W 5904  36.282  37.912   4.577
39364W        W 5905  14.551  39.924  11.666
39365W        W 5906  35.931   2.699   3.655
39366W        W 5907  29.440  42.055  12.075
39367W        W 5908  25.428  40.333   3.314
39368W        W 5909  34.410  32.376  13.360
39369W        W 5910  32.894  36.544  13.296
39370W        W 5911  30.592  10.685   4.165
39371W        W 5912  19.634   9.703   3.777
39372W        W 5913  10.172  39.847   0.957
39373W        W 5914  28.190  13.396  11.104
39374W        W 5915  23.704  13.509   2.700
39375W        W 5916  42.455  18.552   2.105
39376W        W 5917  23.490  15.825  10.654
39377W        W 5918  20.893  10.097   4.971
39378W        W 5919  40.829  33.987  11.483
39379W        W 5920  21.037   3.642   2.309
39380W        W 5921  11.273  12.352  12.107
39381W        W 5922   2.479   6.304   4.199
39382W        W 5923  27.421  26.094   4.267
39383W        W 5924  19.502  17.255   1.704
39384W        W 5925  23.269   4.171  11.213
39385W        W 5926  18.330  23.493   0.673
39386W        W 5927   5.213   7.098   0.881
39387W        W 5928  15.112  22.044  13.175
39388W        W 5929  39.903   8.360   2.785
39389W        W 5930  36.576  38.635  11.518
39390W        W 5931  18.725  40.331  10.768
39391W        W 5932  32.846  20.677  11.173
39392W        W 5933  34.000  27.387  14.343
39393W        W 5934  33.411  16.026  12.357
39394W        W 5935  10.059  22.164   3.846
39395W        W 5936  10.242   5.414  11.634
39396W        W 5937  32.382  37.417  13.323
39397W        W 5938  26.646  14.311   0.241
39398W        W 5939  10.286  12.792   1.051
39399W        W 5940  26.948  26.477   3.318
39400W        W 5941  17.000  11.682  13.991
39401W        W 5942  36.484  35.320   2.233
39402W        W 5943  35.822  10.681  11.590
39403W        W 5944  24.762  32.412  13.990
39404W        W 5945  41.555  14.672  14.521
39405W        W 5946  37.243  38.967   3.738
39406W        W 5947  24.402   2.647   2.752
39407W        W 5948  37.119  17.666   1.193
39408W        W 5949  13.147   6.182  12.427
39409W        W 5950  21.490   0.912  11.104
39410W        W 5951   2.827  40.326   1.904
39411W        W 5952   6.808  22.944  11.208
39412W        W 5953  33.496  26.234   2.235
39413W        W 5954  14.628   8.071   0.096
39414W        W 5955  31.306  34.709   1.385
39415W        W 5956  12.179  42.397  12.989
39416W        W 5957  14.129  12.127   1.562
39417W        W 5958  25.536   2.158   2.249
39418W        W 5959  16.750  23.505  12.091
39419W        W 5960   0.080   8.374  13.815
39420W        W 5961  40.511  15.885   3.779
39421W        W 5962  28.238  44.947   3.136
39422W        W 5963  34.003  12.210   0.991
39423W        W 5964   5.822  22.917  10.931
39424W        W 5965  40.151  44.262  10.460
39425W        W 5966  36.843  22.618  11.983
39426W        W 5967  35.114  17.992   3.816
39427W        W 5968  30.880   6.894  13.922
39428W        W 5969  12.620  32.506  10.671
39429W        W 5970   6.827   4.501   0.950
39430W        W 5971  41.471  19.331   1.120
39431W        W 5972   7.058   7.228  11.941
39432W        W 5973  24.760  36.537   0.266
39433W        W 5974  14.681  31.482  13.469
39434W        W 5975  23.740  30.384   3.586
39435W        W 5976  10.705  22.457  10.875
39436W        W 5977  17.529  21.223  12.703
39437W        W 5978  32.358   0.996   0.478
39438W        W 5979  31.030  34.432  14.310
39439W        W 5980   4.491  27.525   9.789
39440W        W 5981  26.675   2.414   1.790
39441W        W 5982   7.094  19.177   1.894
39442W        W 5983  44.708  18.142  10.954
39443W        W 5984  13.828  43.596  11.663
39444W        W 5985  25.064  29.484   4.577
39445W        W 5986  40.206  10.856  13.965
39446W        W 5987   2.888   5.708   2.874
39447W        W 5988   1.221   2.190   9.830
39448W        W 5989  12.951  44.329   4.444
39449W        W 5990  17.075  36.372  13.419
39450W        W 5991  23.579  10.513  14.837
39451W        W 5992  38.007  15.580  13.711
39452W        W 5993   3.100  16.866  11.164
39453W        W 5994  41.954  24.668   2.727
39454W        W 5995  28.696   6.251  10.923
39455W        W 5996   9.819   9.133  11.565
39456W        W 5997  14.272   3.278   2.393
39457W        W 5998   6.471  19.369   2.483
39458W        W 5999  25.068   5.900   2.602
39459W        W 6000   5.395  41.909   4.116
39460W        W 6001  29.057   8.193   1.257
39461W        W 6002   1.775   8.933  11.956
39462W        W 6003  21.719  36.501  14.576
39463W        W 6004  21.735  15.582   3.053
39464W        W 6005  31.411  34.451  12.954
39465W        W 6006  30.065  14.295   1.980
39466W        W 6007  21.694  31.732   4.782
39467W        W 6008  40.604  36.833   2.945
39468W        W 6009  34.328   2.498  14.719
39469W        W 6010  35.422  42.036  11.258
39470W        W 6011  12.540  13.618   0.904
39471W        W 6012  15.715  39.010  13.529
39472W        W 6013  17.875  21.759  11.596
39473W        W 6014  39.263  11.314   4.549
39474W        W 6015   7.304   1.857  11.754
39475W        W 6016  25.903  20.546  14.988
39476W        W 6017  19.562   7.158  12.478
39477W        W 6018  20.652   5.385   1.981
39478W        W 6019  14.682  33.920   4.334
39479W        W 6020  24.038  19.550   3.360
39480W        W 6021   8.549   3.574   1.897
39481W        W 6022  38.827   5.190   1.735
39482W        W 6023  30.067   5.961  13.757
39483W        W 6024   3.254  29.158  14.814
39484W        W 6025   6.930  17.181   1.327
39485W        W 6026  43.518  32.225   1.652
39486W        W 6027  44.758  24.738  13.460
39487W        W 6028   4.348  14.226   1.385
39488W        W 6029   3.226  27.620  13.052
39489W        W 6030  24.943   9.337   2.949
39490W        W 6031  29.395  20.271  12.114
39491W        W 6032  29.515  32.397  13.891
39492W        W 6033  23.463  33.097   4.656
39493W        W 6034  24.596  26.543  13.055
39494W        W 6035  14.812  39.880   2.758
39495W        W 6036  41.826  41.975   4.563
39496W        W 6037  14.919  27.378  10.567
39497W        W 6038  31.071   7.948  11.639
39498W        W 6039   7.178  27.152   2.370
39499W        W 6040   9.342  29.906  10.463
39500W        W 6041   2.412  17.585   3.199
39501W        W 6042  42.930   2.583   3.555
39502W        W 6043  23.647   5.975  13.499
39503W        W 6044   4.418  35.994   3.289
39504W        W 6045  24.986   8.871   3.737
39505W        W 6046   0.895  17.328   3.885
39506W        W 6047   9.398  42.328  14.344
39507W        W 6048   0.447  29.039  13.997
39508W        W 6049  26.688  15.210   1.831
39509W        W 6050  15.952  11.640   0.441
39510W        W 6051  15.802   7.263   0.624
39511W        W 6052   3.833  40.011  12.427
39512W        W 6053  44.320  28.440  14.443
39513W        W 6054  30.223  11.236   9.817
39514W        W 6055  41.003  12.228   4.297
39515W        W 6056  35.468  23.012  11.003
39516W        W 6057  26.185   1.616   0.396
39517W        W 6058  11.273  27.934  14.799
39518W        W 6059  11.152  39.246   3.690
39519W        W 6060  32.006  42.051   2.594
39520W        W 6061  43.270  18.345  10.922
39521W        W 6062  39.036   0.720   0.018
39522W        W 6063  21.260  43.010  12.598
39523W        W 6064  21.198  24.949  11.147
39524W        W 6065  29.916  33.628   1.694
39525W        W 6066  43.505  38.498   2.110
39526W        W 6067  19.312  39.391   0.141
39527W        W 6068  21.562  13.761  11.356
39528W        W 6069  17.271  26.084   4.532
39529W        W 6070  41.294   2.490  12.033
39530W        W 6071  34.004  42.111  13.618
39531W        W 6072  18.354  30.683  11.284
39532W        W 6073  12.614  28.971   2.278
39533W        W 6074  16.344   5.681   2.360
39534W        W 6075  21.937  37.918   0.348
39535W        W 6076  38.817  32.050   3.638
39536W        W 6077  15.595   2.976  11.802
39537W        W 6078  42.975  37.057   0.833
39538W        W 6079  38.337   2.488   1.334
39539W        W 6080  15.827  18.724   0.809
39540W        W 6081  36.222  12.728   4.589
39541W        W 6082  23.033  10.419  11.937
39542W        W 6083  40.036  17.148  12.982
39543W        W 6084  22.392  32.467   3.775
39544W        W 6085   9.159  15.021  12.571
39545W        W 6086  31.356  41.403  12.613
39546W        W 6087  10.344  13.318   2.324
39547W        W 6088  35.586  20.162   0.035
39548W        W 6089  25.570  20.053  13.091
39549W        W 6090  20.780  19.788  12.412
39550W        W 6091  44.529  18.237  11.438
39551W        W 6092  33.910  25.120  14.916
39552W        W 6093   4.685   8.811   4.002
39553W        W 6094  43.063  35.276  14.016
39554W        W 6095  38.258  38.384  12.499
39555W        W 6096  16.259  36.463  11.164
39556W        W 6097  24.084  38.985   2.393
39557W        W 6098  25.524  38.216   2.302
39558W        W 6099  20.139  24.459   3.757
39559W        W 6100  38.577  34.534  11.683
39560W        W 6101  22.035  28.079   1.768
39561W        W 6102  27.078   5.450   1.770
39562W        W 6103  10.801  20.723  10.729
39563W        W 6104  42.170  10.833   3.673
39564W        W 6105  41.659  20.997   3.816
39565W        W 6106  36.580  43.241   3.668
39566W        W 6107   3.967  18.675  11.329
39567W        W 6108  33.246   4.875   4.049
39568W        W 6109  10.444  33.908  10.725
39569W        W 6110   1.164  28.411   5.490
39570W        W 6111  27.216  43.450   3.754
39571W        W 6112  37.355   4.340  13.579
39572W        W 6113  41.871  43.459   0.784
39573W        W 6114  43.575  18.226   1.965
39574W        W 6115   8.398  19.714  10.579
39575W        W 6116  36.561   7.384  12.769
39576W        W 6117   1.213   7.159   0.877
39577W        W 6118   0.744  17.051   0.985
39578W        W 6119  32.112  27.590  14.466
39579W        W 6120  25.533  24.526   0.864
39580W        W 6121  42.257  16.656  14.053
39581W        W 6122   3.203   7.938   3.182
39582W        W 6123  33.828  22.023   3.595
39583W        W 6124  44.700   1.339  10.760
39584W        W 6125  17.810  16.229   1.394
39585W        W 6126  28.372   7.362   3.755
39586W        W 6127  26.818  11.859   1.348
39587W        W 6128   1.176  44.198  12.055
39588W        W 6129  34.947  29.438   1.673
39589W        W 6130  40.236  11.213   4.240
39590W        W 6131  32.750  37.918   2.402
39591W        W 6132  35.137   4.383  13.707
39592W        W 6133  42.407  39.000   3.407
39593W        W 6134  30.558  11.148   5.540
39594W        W 6135  13.700   8.756   2.430
39595W        W 6136  15.567  16.158  14.478
39596W        W 6137  10.683  21.193  12.095
39597W        W 6138  14.192  30.170   3.454
39598W        W 6139  27.091  41.749  10.579
39599W        W 6140   3.690  15.678   1.892
39600W        W 6141  40.040  25.538   4.527
39601W        W 6142   6.368  40.729   1.376
39602W        W 6143   8.778   5.366  14.075
39603W        W 6144   5.424  24.462   2.549
39604W        W 6145  20.726  27.799   1.023
39605W        W 6146   0.390   5.721  13.488
39606W        W 6147  19.053   1.270  12.969
39607W        W 6148  15.375  28.465  14.790
39608W        W 6149  33.027   1.877  11.567
39609W        W 6150  16.477  30.011   1.610
39610W        W 6151   2.833  33.779   9.853
39611W        W 6152  19.692   2.231  12.051
39612W        W 6153  37.520  39.409   3.788
39613W        W 6154  16.846  10.628  10.590
39614W        W 6155  30.196  20.601   1.289
39615W        W 6156  17.455  29.742  10.933
39616W        W 6157  31.555  19.168   1.658
39617W        W 6158  14.889  28.085  11.164
39618W        W 6159   4.621  44.304  13.351
39619W        W 6160  43.894  31.991  14.509
39620W        W 6161  11.125  10.684   4.477
39621W        W 6162  15.250   9.707  13.711
39622W        W 6163  21.203  35.583   3.870
39623W        W 6164  44.965  20.609  12.505
39624W        W 6165  23.393  38.438  11.675
39625W        W 6166  13.771  40.270  14.720
39626W        W 6167  29.227  13.677  13.072
39627W        W 6168  34.711  22.718   4.919
39628W        W 6169   4.726   1.275   3.979
39629W        W 6170  35.693  33.700   5.130
39630W        W 6171  14.581  40.674   4.061
39631W        W 6172  16.726  15.616  14.500
39632W        W 6173  17.798   9.093   0.376
39633W        W 6174  17.185   7.824  13.510
39634W        W 6175  44.251  27.949  10.425
39635W        W 6176  20.191   1.140  12.533
39636W        W 6177   1.958   2.861   2.002
39637W        W 6178  15.796  15.699  10.394
39638W        W 6179  27.769   3.836   2.389
39639W        W 6180  15.778  22.910   0.297
39640W        W 6181  40.550  42.761  14.588
39641W        W 6182  41.334  20.033  11.138
39642W        W 6183  29.772  10.697   5.333
39643W        W 6184  13.186  36.135   0.777
39644W        W 6185  37.473  12.455   1.767
39645W        W 6186  29.170  43.249  13.090
39646W        W 6187  27.476  44.915   0.873
39647W        W 6188  31.086  19.120  12.002
39648W        W 6189  38.524  17.205   0.457
39649W        W 6190  20.536  41.882   4.533
39650W        W 6191  20.246  35.010   2.132
39651W        W 6192  39.001  22.973   2.575
39652W        W 6193  23.704  38.896  12.364
39653W        W 6194  15.700   8.188   4.037
39654W        W 6195  43.331  12.675  11.707
39655W        W 6196  21.534  25.300   2.903
39656W        W 6197  11.026  25.877  14.787
39657W        W 6198   7.285   5.721   1.945
39658W        W 6199   6.744  27.972   2.723
39659W        W 6200  24.238   1.307  12.899
39660W        W 6201  21.988  10.964   0.062
39661W        W 6202  42.201  20.460  11.054
39662W        W 6203  26.065  41.698  14.871
39663W        W 6204  31.457  17.678   0.781
39664W        W 6205  32.171  11.732  11.493
39665W        W 6206  19.677  15.761   0.742
39666W        W 6207   4.343   5.710  14.570
39667W        W 6208  26.588  10.826   4.732
39668W        W 6209  29.739   5.026  11.584
39669W        W 6210  15.845  13.793  11.628
39670W        W 6211   1.792  13.775   4.054
39671W        W 6212   6.981  18.878  14.161
39672W        W 6213  31.576   7.775   1.758
39673W        W 6214   1.845  18.571  14.859
39674W        W 6215  31.987  29.727   2.724
39675W        W 6216  28.169   0.219  11.055
39676W        W 6217  22.174  27.322  12.924
39677W        W 6218  15.609  43.605  13.036
39678W        W 6219  36.297  21.079   0.579
39679W        W 6220  33.053  44.752  13.531
39680W        W 6221  19.375   9.556  11.601
39681W        W 6222  44.241  33.532  11.921
39682W        W 6223   7.214  20.716   1.967
39683W        W 6224  19.183  12.137  12.595
39684W        W 6225  13.167  28.721  12.349
39685W        W 6226  18.453  24.775  12.342
39686W        W 6227   2.784  38.833  14.558
39687W        W 6228  37.350  10.517  10.895
39688W        W 6229   6.198  18.002  11.971
39689W        W 6230  36.445  29.266  12.545
39690W        W 6231  32.665  25.133  13.157
39691W        W 6232  24.558  17.743   0.406
39692W        W 6233  35.503  11.707   0.626
39693W        W 6234  18.295  16.275  13.610
39694W        W 6235  30.979  25.148   1.248
39695W        W 6236  20.647  22.795   1.746
39696W        W 6237  24.902   5.996   5.403
39697W        W 6238  29.749  17.583  10.666
39698W        W 6239   9.918  27.151   3.274
39699W        W 6240   6.300  11.818   0.737
39700W        W 6241  10.901   0.924  11.913
39701W        W 6242   8.234  24.589  13.427
39702W        W 6243  28.081  41.814   0.157
39703W        W 6244  19.689  11.633  12.865
39704W        W 6245   6.673  29.333  12.513
39705W        W 6246  29.680  44.936   3.333
39706W        W 6247  41.412  17.081  14.855
39707W        W 6248  33.607  35.767  10.000
39708W        W 6249   8.189  44.041   1.270
39709W        W 6250  36.946  17.657  10.990
39710W        W 6251  41.564  35.951  12.204
39711W        W 6252  28.607  21.762   3.281
39712W        W 6253  37.070  31.547   4.183
39713W        W 6254  43.977   6.772  12.920
39714W        W 6255  26.407  20.700   0.916
39715W        W 6256  17.701  17.126   4.292
39716W        W 6257   7.243   0.395   0.797
39717W        W 6258  19.358  22.118   0.077
39718W        W 6259  34.776  33.380   0.740
39719W        W 6260  31.442  35.966  11.074
39720W        W 6261  14.091  33.364  12.774
39721W        W 6262  28.976  27.129   3.655
39722W        W 6263  10.944  43.551   0.974
39723W        W 6264   0.417  17.652  12.171
39724W        W 6265  37.982   8.446  13.942
39725W        W 6266  30.084  28.157  14.122
39726W        W 6267   5.763   7.488  13.827
39727W        W 6268   9.440  13.212  13.791
39728W        W 6269   8.773  14.213  13.049
39729W        W 6270  32.509  17.076  12.006
39730W        W 6271   0.295  40.538   2.710
39731W        W 6272  14.370   1.339   4.499
39732W        W 6273   0.446  26.363   3.168
39733W        W 6274  27.693  34.629  13.341
39734W        W 6275  39.103   9.604   4.869
39735W        W 6276  30.449  43.259   4.707
39736W        W 6277  16.124  22.321   2.452
39737W        W 6278  28.278  12.950   4.921
39738W        W 6279  42.513  13.505  10.189
39739W        W 6280  42.240  23.961   3.284
39740W        W 6281  33.858  21.981  11.560
39741W        W 6282  33.393  37.116   2.219
39742W        W 6283  14.190  33.541  10.945
39743W        W 6284   4.230  36.483   3.440
39744W        W 6285  17.222  36.643   4.608
39745W        W 6286  21.247  24.595   1.754
39746W        W 6287  13.691  24.767   0.364
39747W        W 6288   4.820   2.535   3.977
39748W        W 6289  32.534  10.624  13.863
39749W        W 6290  19.041  11.231   3.559
39750W        W 6291  12.441   0.033   2.416
39751W        W 6292   1.198  36.881   3.354
39752W        W 6293  27.128   6.468   2.688
39753W        W 6294  38.470  24.475  11.883
39754W        W 6295  18.584  43.465  12.546
39755W        W 6296  23.627   7.384   2.419
39756W        W 6297  12.933  12.127   1.702
39757W        W 6298  13.367   8.355  11.123
39758W        W 6299   6.924  30.009  13.895
39759W        W 6300  42.121  42.852   4.632
39760W        W 6301  44.516  24.585  13.909
39761W        W 6302   5.990  34.956  12.036
39762W        W 6303  11.740  28.515   2.918
39763W        W 6304   9.717  39.645  12.454
39764W        W 6305  12.231  16.975  13.010
39765W        W 6306  41.950   9.309   1.215
39766W        W 6307  33.909  20.386   1.302
39767W        W 6308  11.690  40.437   2.868
39768W        W 6309  10.557  12.322  13.855
39769W        W 6310  32.518  31.837  13.509
39770W        W 6311   3.490  29.711  12.934
39771W        W 6312  27.510   7.365   2.736
39772W        W 6313   0.350  36.108  13.458
39773W        W 6314   5.510   2.191   1.015
39774W        W 6315  33.709   4.946   3.824
39775W        W 6316  38.913  25.946  10.600
39776W        W 6317  34.829  18.221   4.186
39777W        W 6318   7.906  26.086  11.205
39778W        W 6319  24.747  41.104  14.029
39779W        W 6320  42.427  25.337   4.251
39780W        W 6321  22.545  40.371   3.346
39781W        W 6322  42.877   0.121   3.442
39782W        W 6323  32.251  28.428   2.649
39783W        W 6324  44.832   0.786   2.677
39784W        W 6325   1.651   2.817  14.931
39785W        W 6326   0.000  24.427   4.249
39786W        W 6327  20.482  35.681  12.584
39787W        W 6328  34.566  26.320  10.616
39788W        W 6329  14.269   7.408  13.808
39789W        W 6330   6.963   3.502  10.269
39790W        W 6331   3.000  37.054   3.720
39791W        W 6332  11.920  23.090   0.735
39792W        W 6333   2.863  12.148   4.986
39793W        W 6334  31.401  39.238  12.947
39794W        W 6335   2.295  10.865   2.372
39795W        W 6336   9.946  31.124   3.325
39796W        W 6337  16.558  22.081   1.594
39797W        W 6338  42.581  29.289   0.727
39798W        W 6339   8.520  41.238   2.219
39799W        W 6340   9.474   2.594  12.573
39800W        W 6341   8.653  41.909   5.305
39801W        W 6342  16.639  35.144   0.245
39802W        W 6343   2.927  35.511   5.462
39803W        W 6344  24.431  23.804  13.407
39804W        W 6345  43.570   9.685  13.438
39805W        W 6346  28.557  11.605   0.827
39806W        W 6347  22.430  12.072   2.351
39807W        W 6348  16.130  43.390   4.247
39808W        W 6349   1.994   7.820  12.091
39809W        W 6350  25.781  19.706  11.746
39810W        W 6351  32.039  40.934  14.788
39811W        W 6352   5.660  13.174   1.623
39812W        W 6353  42.929   2.091   3.721
39813W        W 6354  20.105  21.612  10.626
39814W        W 6355  30.858  40.821  10.639
39815W        W 6356   0.186   6.371   3.849
39816W        W 6357  31.078   3.860  14.302
39817W        W 6358  44.263  32.803   0.980
39818W        W 6359  36.196  10.834  10.699
39819W        W 6360  26.906  31.337   3.997
39820W        W 6361  25.739  19.294   1.121
39821W        W 6362  36.847  25.920   2.251
39822W        W 6363  25.273  19.643  13.000
39823W        W 6364  34.963  19.503   5.054
39824W        W 6365  21.109   0.119   1.216
39825W        W 6366  22.032  21.194  12.587
39826W        W 6367  21.233   3.104   4.054
39827W        W 6368  14.837  29.903  10.667
39828W        W 6369  17.525   7.659  12.096
39829W        W 6370  28.035  31.269   4.400
39830W        W 6371   0.174   1.918   4.653
39831W        W 6372  28.266  11.262   2.599
39832W        W 6373   6.193  28.207   1.340
39833W        W 6374   9.615  29.550   1.928
39834W        W 6375   1.009  16.976  10.343
39835W        W 6376  33.140  42.714   3.069
39836W        W 6377  22.514  17.648  13.965
39837W        W 6378  25.661   9.303  14.903
39838W        W 6379  34.337  38.884  14.015
39839W        W 6380  33.517  21.952  14.098
39840W        W 6381  13.865   9.409  11.195
39841W        W 6382  10.604  13.926   4.658
39842W        W 6383  42.560  16.835   1.186
39843W        W 6384  43.193  28.415   0.329
39844W        W 6385  43.753  15.100  11.129
39845W        W 6386  30.885   8.441  12.522
39846W        W 6387  21.620  27.959   0.424
39847W        W 6388  17.520  44.905   2.652
39848W        W 6389   4.146  22.964  13.542
39849W        W 6390  21.596   2.375  11.993
39850W        W 6391  38.439  16.739   0.692
39851W        W 6392   3.977   1.936  10.703
39852W        W 6393  15.828  31.043  11.582
39853W        W 6394   0.300  10.436  14.955
39854W        W 6395  14.614  28.918  11.569
39855W        W 6396  18.968  34.425  13.376
39856W        W 6397  43.342  33.763  11.423
39857W        W 6398   2.126   5.331  14.808
39858W        W 6399  44.994  27.014   1.589
39859W        W 6400  27.075  39.542  14.517
39860W        W 6401  36.499  33.123   0.859
39861W        W 6402  13.369  33.378   2.757
39862W        W 6403   7.177  20.300  11.369
39863W        W 6404   1.967  16.659   4.677
39864W        W 6405  28.473   0.348   1.998
39865W        W 6406  38.718   3.916  11.124
39866W        W 6407   6.240  42.419   0.002
39867W        W 6408  41.620  17.855   4.291
39868W        W 6409  42.106  26.462  14.253
39869W        W 6410  29.083  36.572  13.799
39870W        W 6411  20.037  31.488  11.194
39871W        W 6412  44.371  40.217  10.362
39872W        W 6413   3.967   0.697  10.689
39873W        W 6414  40.290  28.258   4.056
39874W        W 6415  21.167  23.309   0.278
39875W        W 6416  34.837  30.957  10.468
39876W        W 6417  21.306  23.471   3.694
39877W        W 6418  15.727  10.496   1.257
39878W        W 6419  18.729  20.814  11.196
39879W        W 6420   5.949  42.762  11.617
39880W        W 6421  31.149  35.420   4.965
39881W        W 6422  31.667  33.567  13.017
39882W        W 6423   1.005  39.743   2.192
39883W        W 6424  21.156  20.715  14.009
39884W        W 6425   5.926   1.976   1.776
39885W        W 6426   7.010   9.983   3.314
39886W        W 6427  18.309   5.788  10.676
39887W        W 6428  19.245  40.499   0.736
39888W        W 6429  11.769  13.656  10.912
39889W        W 6430  41.892  26.606   4.596
39890W        W 6431  26.671  37.457   2.294
39891W        W 6432  40.234  37.503   1.653
39892W        W 6433   4.742  24.574  11.364
39893W        W 6434  35.380  28.498  13.351
39894W        W 6435   5.410  10.063   0.848
39895W        W 6436  29.237  34.561   3.614
39896W        W 6437  10.726   1.681   4.715
39897W        W 6438  43.382  24.017   2.248
39898W        W 6439   1.221  16.414   0.265
39899W        W 6440  42.393  14.580   4.716
39900W        W 6441  22.480   0.818  14.115
39901W        W 6442  17.664  14.351  14.461
39902W        W 6443  12.766  13.906  13.692
39903W        W 6444   4.951   0.754   3.085
39904W        W 6445   0.321   9.875   2.363
39905W        W 6446   4.968   2.895  14.368
39906W        W 6447  11.860  44.199   3.512
39907W        W 6448  13.955  21.570  13.805
39908W        W 6449  37.063   3.320   2.792
39909W        W 6450  44.008  23.635   1.559
39910W        W 6451  17.669  29.485   3.253
39911W        W 6452   2.471  37.199  11.199
39912W        W 6453  28.440   5.683  13.542
39913W        W 6454  35.113  34.051  11.163
39914W        W 6455  44.006   2.810   2.850
39915W        W 6456  43.018  23.106   4.335
39916W        W 6457  44.194  28.175   3.223
39917W        W 6458  27.937   0.688   0.432
39918W        W 6459   0.052  13.611   1.644
39919W        W 6460  44.266  22.647   4.427
39920W        W 6461   1.861  14.316   0.201
39921W        W 6462  36.610  26.026   1.063
39922W        W 6463  15.317  15.141   2.238
39923W        W 6464  17.834   7.802  12.471
39924W        W 6465  10.723  32.826   1.428
39925W        W 6466   1.944   0.881  10.653
39926W        W 6467  30.039  18.864   3.378
39927W        W 6468  34.126   8.813   2.170
39928W        W 6469  12.226  27.989   3.256
39929W        W 6470   5.887  11.674   1.762
39930W        W 6471   2.797   0.478   2.918
39931W        W 6472  39.166  30.797  12.876
39932W        W 6473  36.113  39.561  14.412
39933W        W 6474  43.764   8.446  11.946
39934W        W 6475  24.797  21.289  13.524
39935W        W 6476   2.760  22.729   3.198
39936W        W 6477  11.693  43.007   4.241
39937W        W 6478  41.281   0.248   0.516
39938W        W 6479   8.423  25.437  12.968
39939W        W 6480   1.358   9.119  12.394
39940W        W 6481  19.244  22.107  11.504
39941W        W 6482  35.590  44.237  12.177
39942W        W 6483   5.211   2.271   1.433
39943W        W 6484  27.207  17.676  14.504
39944W        W 6485  16.731  24.718  12.588
39945W        W 6486  17.229  13.687  14.145
39946W        W 6487  42.031  34.969   5.252
39947W        W 6488  29.083  32.664   1.841
39948W        W 6489  33.508  33.259  13.169
39949W        W 6490  17.739  43.886  13.014
39950W        W 6491  18.729   3.176   3.599
39951W        W 6492  29.928   8.250   0.001
39952W        W 6493  11.038  30.453   1.261
39953W        W 6494  32.275  44.373   3.548
39954W        W 6495  15.665   3.974  10.700
39955W        W 6496   1.773   3.840  13.051
39956W        W 6497  42.502  38.959  10.650
39957W        W 6498   3.473  42.874  14.232
39958W        W 6499  39.338   9.933  12.346
39959W        W 6500  36.333  38.434   1.426
39960W        W 6501  24.990  29.581   4.063
39961W        W 6502   8.510  36.547  11.613
39962W        W 6503  31.867  34.298   1.594
39963W        W 6504  34.379  18.384   3.911
39964W        W 6505   0.222   6.335   3.327
39965W        W 6506  13.563  21.667   2.778
39966W        W 6507  20.683  24.249   4.524
39967W        W 6508  12.805  11.192  13.778
39968W        W 6509  35.344  37.784  12.390
39969W        W 6510  23.729  10.643  12.456
39970W        W 6511  16.306  24.517   0.957
39971W        W 6512  18.773  12.144  14.057
39972W        W 6513  24.917  23.390   1.634
39973W        W 6514  18.521   4.833  10.683
39974W        W 6515  43.206  14.670   2.623
39975W        W 6516  11.763  11.263  11.091
39976W        W 6517  13.124  34.360  10.676
39977W        W 6518  41.699   8.720  12.630
39978W        W 6519  33.707  42.793  11.023
39979W        W 6520  12.117  19.823  11.568
39980W        W 6521   5.209  36.957   3.759
39981W        W 6522   0.962  35.607   0.695
39982W        W 6523  34.053   9.394   1.261
39983W        W 6524  25.215  31.880  11.581
39984W        W 6525   2.819  43.518   3.338
39985W        W 6526  31.083  37.936   0.887
39986W        W 6527  44.510  24.458   0.726
39987W        W 6528  16.408  44.787   0.476
39988W        W 6529   4.335  42.375  11.059
39989W        W 6530  12.809  12.137   0.815
39990W        W 6531  25.433  25.473   0.484
39991W        W 6532  20.210   5.762   1.358
39992W        W 6533  19.074   7.376   4.055
39993W        W 6534  12.121  18.087  12.076
39994W        W 6535   5.348  37.836  13.418
39995W        W 6536  13.667  32.107   0.225
39996W        W 6537  15.996  21.989  12.951
39997W        W 6538  17.392  27.013   4.274
39998W        W 6539  30.146  24.465  11.644
39999W        W 6540  35.587  21.842  13.949
40000W        W 6541  41.387  10.779   3.180
40001W        W 6542  43.450  15.622   2.866
40002W        W 6543  31.826  11.925  14.422
40003W        W 6544  24.060  20.439   2.946
40004W        W 6545  35.896   0.427  14.914
40005W        W 6546  21.525   0.433   3.632
40006W        W 6547  33.144  30.686  14.390
40007W        W 6548  27.755   5.764  11.073
40008W        W 6549  29.018   2.022  12.055
40009W        W 6550  31.146  15.745  14.281
40010W        W 6551  24.590  28.158  12.570
40011W        W 6552  43.121  18.522   1.257
40012W        W 6553   5.151  31.688  11.006
40013W        W 6554  23.971  33.600  14.803
40014W        W 6555  33.871  15.129   2.408
40015W        W 6556  11.621  41.384  13.380
40016W        W 6557  10.961  27.447   4.637
40017W        W 6558  16.020   4.881  14.029
40018W        W 6559  28.513   1.939   0.849
40019W        W 6560   0.396  14.114   4.881
40020W        W 6561  34.152  28.898   2.647
40021W        W 6562  13.557  40.984  11.548
40022W        W 6563  26.630  23.992   1.711
40023W        W 6564  19.048  36.940  13.471
40024W        W 6565   9.646  12.314   0.826
40025W        W 6566  12.834  42.528  14.436
40026W        W 6567  12.799  22.261  12.544
40027W        W 6568  44.997   6.766   4.216
40028W        W 6569  12.760  26.935  12.679
40029W        W 6570  34.073  13.387  11.862
40030W        W 6571  23.715   7.996  12.068
40031W        W 6572  15.616  24.236   3.229
40032W        W 6573   3.263  10.182   1.591
40033W        W 6574  37.007  12.336   1.326
40034W        W 6575  30.178  12.285   0.046
40035W        W 6576  36.560  13.536   3.247
40036W        W 6577  27.624  32.481  11.526
40037W        W 6578  38.558   9.847   3.351
40038W        W 6579  33.844  37.296  13.109
40039W        W 6580  20.875  10.658   0.747
40040W        W 6581  33.844  22.671  14.970
40041W        W 6582   5.919  16.233   1.681
40042W        W 6583  40.525  35.137   1.942
40043W        W 6584  27.290  29.529   1.460
40044W        W 6585  44.014  34.581  13.368
40045W        W 6586  44.046  32.099   4.550
40046W        W 6587  32.950   7.780  11.623
40047W        W 6588  40.887  12.804  13.065
40048W        W 6589   8.864  17.045   4.033
40049W        W 6590  26.010  22.466   0.478
40050W        W 6591  35.060  38.420   1.981
40051W        W 6592   0.216  44.425  14.021
40052W        W 6593  15.330  25.891  11.250
40053W        W 6594  21.389  11.786   0.188
40054W        W 6595  36.449   2.891  10.695
40055W        W 6596  13.229  43.020   0.537
40056W        W 6597  21.172  32.430   3.001
40057W        W 6598  26.214  19.654  11.474
40058W        W 6599  17.053  39.902  13.402
40059W        W 6600  11.888   1.846   3.164
40060W        W 6601  31.068   6.599   4.462
40061W        W 6602  17.348  25.410  11.620
40062W        W 6603  40.365  31.923   1.988
40063W        W 6604  22.036  35.381   0.001
40064W        W 6605  18.616  38.760  10.824
40065W        W 6606  38.269  42.116   1.927
40066W        W 6607   2.944  41.078   1.290
40067W        W 6608   6.139  43.301  14.442
40068W        W 6609   2.224  41.890  11.266
40069W        W 6610  44.799  14.318  11.516
40070W        W 6611  26.442  41.522   4.568
40071W        W 6612  34.972  33.093  11.155
40072W        W 6613  41.203  41.420   0.319
40073W        W 6614  32.482  11.138   3.778
40074W        W 6615  21.475   3.159   0.457
40075W        W 6616  11.228  18.146   4.598
40076W        W 6617  36.282  37.626   0.409
40077W        W 6618  28.583   3.188   1.203
40078W        W 6619   4.277  35.091   2.501
40079W        W 6620  28.063  36.075  14.908
40080W        W 6621  27.064   5.181  14.543
40081W        W 6622  38.973   7.069   4.705
40082W        W 6623  28.435  37.036  14.260
40083W        W 6624  21.093   8.449   2.215
40084W        W 6625  35.996  42.543   4.689
40085W        W 6626  10.701   5.416   3.622
40086W        W 6627  34.298  11.409   0.214
40087W        W 6628  41.961  28.390  14.848
40088W        W 6629   7.537  22.551  13.379
40089W        W 6630  39.515   0.193   3.145
40090W        W 6631   8.611   9.225   2.169
40091W        W 6632  42.229  14.236  11.418
40092W        W 6633   8.115  26.897  10.846
40093W        W 6634  14.606  28.427  11.637
40094W        W 6635   7.659   2.896   2.736
40095W        W 6636  15.563  32.939  13.865
40096W        W 6637   4.347   4.231  14.544
40097W        W 6638  43.480  35.427  14.331
40098W        W 6639  44.479  17.231   3.769
40099W        W 6640   0.838   8.580  13.596
40100W        W 6641  14.317  11.242   1.085
40101W        W 6642   1.378  10.496   1.630
40102W        W 6643   9.829  30.392  14.560
40103W        W 6644  24.001   8.407   3.353
40104W        W 6645  37.428   5.647  12.052
40105W        W 6646   8.636  10.001   0.131
40106W        W 6647  27.438  36.955   2.439
40107W        W 6648  24.385  35.434   2.698
40108W        W 6649  15.741  34.436   3.684
40109W        W 6650  37.697   4.431  13.963
40110W        W 6651  12.588   3.666  12.100
40111W        W 6652  18.609  29.727   3.151
40112W        W 6653  42.237  44.466   3.307
40113W        W 6654   5.227   0.804  12.963
40114W        W 6655  11.239  11.761   3.707
40115W        W 6656  24.221  40.684  14.352
40116W        W 6657  37.309  32.907   4.090
40117W        W 6658   9.921  25.774   3.359
40118W        W 6659  35.535  30.996  13.362
40119W        W 6660   2.150  22.657  11.065
40120W        W 6661   5.175  41.090   4.128
40121W        W 6662   3.762  36.643   1.367
40122W        W 6663  31.408  42.351  11.664
40123W        W 6664  36.397  24.124   4.034
40124W        W 6665  26.571  42.593  12.029
40125W        W 6666  10.636   1.107  10.708
40126W        W 6667  40.544  16.210   4.212
40127W        W 6668  15.821  41.170  12.102
40128W        W 6669  19.022   4.960  12.877
40129W        W 6670  36.277   1.655   2.250
40130W        W 6671  39.635  20.775  10.572
40131W        W 6672  14.379  37.406  11.314
40132W        W 6673  33.096  27.624   2.819
40133W        W 6674  23.146  18.114   3.754
40134W        W 6675  26.430   7.902   4.389
40135W        W 6676  22.180   1.237  12.453
40136W        W 6677  15.551   3.477  10.673
40137W        W 6678  28.762  39.408   0.254
40138W        W 6679  29.124  13.608   0.260
40139W        W 6680  30.595  37.613  12.832
40140W        W 6681   7.898  21.561  12.768
40141W        W 6682  16.185  10.100  10.306
40142W        W 6683  22.082  20.309  11.637
40143W        W 6684   4.339  40.869  14.243
40144W        W 6685  32.844  17.300   1.723
40145W        W 6686  14.364  28.952  12.034
40146W        W 6687  43.511   5.496   4.106
40147W        W 6688  19.517  29.697   1.250
40148W        W 6689  21.490  39.060  11.991
40149W        W 6690  22.631  27.110  13.006
40150W        W 6691   5.974   8.504   1.923
40151W        W 6692  29.606  43.942  10.753
40152W        W 6693  21.026  12.074  14.984
40153W        W 6694  39.479  16.626   4.006
40154W        W 6695  25.864  21.829   5.025
40155W        W 6696  12.831   7.192  13.338
40156W        W 6697  38.501  14.591   1.229
40157W        W 6698  31.011  22.794   3.738
40158W        W 6699   5.677  13.336  10.711
40159W        W 6700   2.870  14.057  10.966
40160W        W 6701  10.926  38.684  10.253
40161W        W 6702   2.795  36.368   2.405
40162W        W 6703  38.508  43.953  13.980
40163W        W 6704  27.708  23.535   1.428
40164W        W 6705  27.731   0.296   3.698
40165W        W 6706   1.070  23.659   2.152
40166W        W 6707  44.359  15.738  10.788
40167W        W 6708   0.681   0.432   4.548
40168W        W 6709  30.466  21.835  13.224
40169W        W 6710  31.508   2.346   0.441
40170W        W 6711  14.137  27.561  14.234
40171W        W 6712  11.646  30.633   4.721
40172W        W 6713  36.826  35.015   1.997
40173W        W 6714  16.724  44.758  14.923
40174W        W 6715  20.559   0.380   3.360
40175W        W 6716  41.447  38.793  14.043
40176W        W 6717  15.731  39.546  11.529
40177W        W 6718  34.640  21.710  11.114
40178W        W 6719  29.490  20.740  14.532
40179W        W 6720  43.489  39.848   4.022
40180W        W 6721  18.864   1.374  13.935
40181W        W 6722  25.527  44.462  14.814
40182W        W 6723  26.710  19.063  11.266
40183W        W 6724   0.159   0.041  14.889
40184W        W 6725   0.798  15.130  11.012
40185W        W 6726  44.892  41.641   4.440
40186W        W 6727   0.667  24.530   2.500
40187W        W 6728  20.970  43.560  14.004
40188W        W 6729  24.511  14.281   4.627
40189W        W 6730  33.339  21.938  11.578
40190W        W 6731  40.345   6.550   2.783
40191W        W 6732  31.945  28.468  11.783
40192W        W 6733  40.940  11.660  11.167
40193W        W 6734  29.768  10.665  14.093
40194W        W 6735   4.649  33.414   2.122
40195W        W 6736  36.552  44.073  10.359
40196W        W 6737  39.230  17.105   2.315
40197W        W 6738  12.891   8.736  11.578
40198W        W 6739  24.248   9.332   0.991
40199W        W 6740  42.615  10.660   0.637
40200W        W 6741  44.149  43.724  13.517
40201W        W 6742  42.010  39.065   1.698
40202W        W 6743  33.043  13.079  13.027
40203W        W 6744  43.879  14.058  13.417
40204W        W 6745  24.086   1.825  13.422
40205W        W 6746  37.452  32.425   1.699
40206W        W 6747  10.272  31.499   4.514
40207W        W 6748  39.367  34.070   1.768
40208W        W 6749  25.068   5.222   2.287
40209W        W 6750  22.257  12.446  13.029
40210W        W 6751  33.849  32.897  13.028
40211W        W 6752   5.030  32.718  13.936
40212W        W 6753  17.251  43.159  10.761
40213W        W 6754  24.191  32.445   4.694
40214W        W 6755  35.055   9.224   0.707
40215W        W 6756   6.949   6.859   4.669
40216W        W 6757  42.063  39.318   3.204
40217W        W 6758  15.042  10.412  13.050
40218W        W 6759  38.452  38.372  11.118
40219W        W 6760  23.418  15.714   0.335
40220W        W 6761  22.649  43.429  12.124
40221W        W 6762   6.739  24.276   3.684
40222W        W 6763  11.418   0.547  12.534
40223W        W 6764  11.723  35.372  10.298
40224W        W 6765  35.097  39.255   1.402
40225W        W 6766  37.813  30.009   2.862
40226W        W 6767  40.869  41.905   2.603
40227W        W 6768  30.699  43.506   4.347
40228W        W 6769   0.998  29.527   2.575
40229W        W 6770  10.414  40.496   4.156
40230W        W 6771  43.380  22.596   4.441
40231W        W 6772  16.709  11.015   3.178
40232W        W 6773   2.906  33.554  11.195
40233W        W 6774  21.194  41.455   4.368
40234W        W 6775  20.160  34.526   2.297
40235W        W 6776   2.114  40.907   1.463
40236W        W 6777  17.321  34.451   4.159
40237W        W 6778  19.147   5.849   2.903
40238W        W 6779  40.178  19.469   4.119
40239W        W 6780  31.581  13.962   5.052
40240W        W 6781  18.413  35.173   5.096
40241W        W 6782  43.541  17.997  11.645
40242W        W 6783  18.338   1.487  11.632
40243W        W 6784  12.602   1.214  10.609
40244W        W 6785  33.760  44.647  13.994
40245W        W 6786  11.092   8.290   0.836
40246W        W 6787   8.585  32.063  12.928
40247W        W 6788  31.925  29.885  14.484
40248W        W 6789  19.329  15.885  13.026
40249W        W 6790  39.067  35.100   1.434
40250W        W 6791  24.392  32.609  12.573
40251W        W 6792  44.327   8.895  13.847
40252W        W 6793   2.294  19.667   1.510
40253W        W 6794  35.618   3.140  12.021
40254W        W 6795  28.812   3.063  12.778
40255W        W 6796  19.653  37.006   4.564
40256W        W 6797  41.085   5.040   3.827
40257W        W 6798   9.828  10.213  11.701
40258W        W 6799  42.363  41.031  13.790
40259W        W 6800  16.954   5.110   3.252
40260W        W 6801   7.267  37.069  14.132
40261W        W 6802  23.551  20.325  11.148
40262W        W 6803  39.271  34.269  14.057
40263W        W 6804  23.601  30.700   2.197
40264W        W 6805  17.594  29.515  13.812
40265W        W 6806  27.466   2.767   2.159
40266W        W 6807  20.709  16.321  12.554
40267W        W 6808  39.639  12.156  10.725
40268W        W 6809   1.928  26.563   0.505
40269W        W 6810  20.053  22.046   1.666
40270W        W 6811  26.639  28.499  12.972
40271W        W 6812   3.938   7.971  11.643
40272W        W 6813  44.307  32.518   5.066
40273W        W 6814  40.121  10.747   4.053
40274W        W 6815  24.952  24.736  13.695
40275W        W 6816   9.892  12.773   0.717
40276W        W 6817   8.796  32.413  14.054
40277W        W 6818  16.925  31.022   1.334
40278W        W 6819   3.294  39.290  11.439
40279W        W 6820   5.710   8.737   1.488
40280W        W 6821   6.929  30.411   2.434
40281W        W 6822  39.305  31.539   0.295
40282W        W 6823  38.069   1.012   4.514
40283W        W 6824  42.090  16.193  10.995
40284W        W 6825  14.354  42.051   3.194
40285W        W 6826  18.631  14.928   1.696
40286W        W 6827  27.131  35.123   1.401
40287W        W 6828  32.593  30.542  13.835
40288W        W 6829  12.604  38.475  10.427
40289W        W 6830  39.704  22.433   2.957
40290W        W 6831  40.604  34.507   1.398
40291W        W 6832  44.029  25.576  12.377
40292W        W 6833  44.958  35.383   2.406
40293W        W 6834   2.822  31.684  11.593
40294W        W 6835  43.421   8.063  12.591
40295W        W 6836  42.456  41.976  11.549
40296W        W 6837   5.545  22.655  14.025
40297W        W 6838  37.354  43.748   0.765
40298W        W 6839  25.757  28.032   1.898
40299W        W 6840  23.245  43.289   2.355
40300W        W 6841  24.626  27.880   2.778
40301W        W 6842  22.509  32.391  13.410
40302W        W 6843  43.214  30.336   3.686
40303W        W 6844  35.049  26.254  12.945
40304W        W 6845  18.725   1.519   0.243
40305W        W 6846  12.300  12.694  13.787
40306W        W 6847  20.058  43.451  12.501
40307W        W 6848  34.989  26.092   2.777
40308W        W 6849   3.762  32.218  12.563
40309W        W 6850  23.280   3.669  13.519
40310W        W 6851  20.563  36.969  11.678
40311W        W 6852  39.569   6.238   0.267
40312W        W 6853   2.795  31.915  13.471
40313W        W 6854  37.504   2.047   0.813
40314W        W 6855  35.484   8.641  10.736
40315W        W 6856  26.460  20.552  10.771
40316W        W 6857  30.395   2.459   3.636
40317W        W 6858  41.352  42.403   1.636
40318W        W 6859  23.403  19.040   2.844
40319W        W 6860   2.071  39.820   0.020
40320W        W 6861  24.521  38.777   0.090
40321W        W 6862   4.863  12.376   1.671
40322W        W 6863  25.198  14.525   0.401
40323W        W 6864  37.157   3.093  11.533
40324W        W 6865   8.838  12.353  11.196
40325W        W 6866  20.410   9.188  12.482
40326W        W 6867  21.495   7.405   4.043
40327W        W 6868  25.023   6.232  12.803
40328W        W 6869  28.689  44.009   3.081
40329W        W 6870  10.352  35.412  14.855
40330W        W 6871  44.525  29.361   0.761
40331W        W 6872  31.564  22.148   4.708
40332W        W 6873  42.708  18.744  14.416
40333W        W 6874  44.067  18.759  14.801
40334W        W 6875   3.281  42.670  11.142
40335W        W 6876   4.145  43.800  12.411
40336W        W 6877  18.936  43.469   0.748
40337W        W 6878  36.622  34.653   1.223
40338W        W 6879  27.314  29.869  12.968
40339W        W 6880  38.417   8.192   1.884
40340W        W 6881   0.865  27.451  11.905
40341W        W 6882  40.311  38.064  14.570
40342W        W 6883   6.430  24.291   9.978
40343W        W 6884   7.212  17.683  11.216
40344W        W 6885  26.226   4.792   4.608
40345W        W 6886  18.749  35.849   2.323
40346W        W 6887   1.435   4.651  14.386
40347W        W 6888  16.398   7.766  10.543
40348W        W 6889  13.465  43.298  14.680
40349W        W 6890  11.856  34.248   4.569
40350W        W 6891   3.436   3.488   3.685
40351W        W 6892  21.768  24.381  12.045
40352W        W 6893   1.152  16.604  11.055
40353W        W 6894  36.939  13.088  11.976
40354W        W 6895  22.456   9.293  14.489
40355W        W 6896  12.240  21.735   1.312
40356W        W 6897  32.035   5.896   0.983
40357W        W 6898   3.933  21.866  12.175
40358W        W 6899   3.625   9.241  14.654
40359W        W 6900  11.301  31.735  12.851
40360W        W 6901  15.869  28.142   3.568
40361W        W 6902   0.211  12.214   3.865
40362W        W 6903  42.416  14.526  11.041
40363W        W 6904  44.815  25.118   3.705
40364W        W 6905   4.148   7.495   3.737
40365W        W 6906  31.977  42.862   2.734
40366W        W 6907  13.608   6.225   3.016
40367W        W 6908  13.913  26.179   0.804
40368W        W 6909  43.565  30.270   2.670
40369W        W 6910  34.533   0.111  12.001
40370W        W 6911   5.130  38.542  11.475
40371W        W 6912  23.924  35.115   3.329
40372W        W 6913  27.505  23.041   1.333
40373W        W 6914  13.709  34.418   3.706
40374W        W 6915   1.949  22.602  13.578
40375W        W 6916   7.409   4.833   0.296
40376W        W 6917  15.269  42.741  11.444
40377W        W 6918  30.043  36.122  12.942
40378W        W 6919  17.122  31.653  11.635
40379W        W 6920  27.584  16.084   2.800
40380W        W 6921  11.538  16.827  13.423
40381W        W 6922  31.415  24.475  14.527
40382W        W 6923   7.083  13.313   2.344
40383W        W 6924   5.051  43.406   0.875
40384W        W 6925   4.799  25.973  13.401
40385W        W 6926  23.781  27.044  11.073
40386W        W 6927  26.769  42.069   4.073
40387W        W 6928  40.223  17.700  13.652
40388W        W 6929  21.646   8.422   3.996
40389W        W 6930  16.120  25.785  13.919
40390W        W 6931  15.065  17.262  11.377
40391W        W 6932  17.229  33.838   2.370
40392W        W 6933  13.306  30.480   0.855
40393W        W 6934   5.915  20.108   1.829
40394W        W 6935  17.346  43.381   2.186
40395W        W 6936  40.867  42.030   4.215
40396W        W 6937   6.466   3.820   0.526
40397W        W 6938  38.455  15.477   2.245
40398W        W 6939  18.265  16.302  10.630
40399W        W 6940   9.444  41.436   1.170
40400W        W 6941  16.785   8.746   4.127
40401W        W 6942  20.643  12.497   3.348
40402W        W 6943  18.472   4.756   2.205
40403W        W 6944  22.218  30.799  13.553
40404W        W 6945  40.801  31.038   1.790
40405W        W 6946  38.456   8.707  13.866
40406W        W 6947  19.036  13.120  12.414
40407W        W 6948  21.047  11.341  12.542
40408W        W 6949  29.455  28.635  12.477
40409W        W 6950  16.846   3.330   4.861
40410W        W 6951  19.147  17.670   4.650
40411W        W 6952  35.444   9.327   1.502
40412W        W 6953  42.927  32.296   5.186
40413W        W 6954   3.448  38.960  10.789
40414W        W 6955  34.032  30.947  13.334
40415W        W 6956   0.816  37.451   2.321
40416W        W 6957  24.662  43.262   4.051
40417W        W 6958  25.980  29.024  14.115
40418W        W 6959  42.364  36.632  13.506
40419W        W 6960  27.144  35.518  12.559
40420W        W 6961  36.392  28.068  14.800
40421W        W 6962  30.981   8.920  13.907
40422W        W 6963  11.603  25.329  10.292
40423W        W 6964  41.531  35.005  11.583
40424W        W 6965  14.447  31.462  13.959
40425W        W 6966   7.281  29.582   0.175
40426W        W 6967  13.720   4.255   1.522
40427W        W 6968   2.666  15.048   3.525
40428W        W 6969  16.545  12.134  10.541
40429W        W 6970   1.818  23.476   4.895
40430W        W 6971  39.960   2.822   1.191
40431W        W 6972   1.614  12.831   2.796
40432W        W 6973  11.898  20.558   4.090
40433W        W 6974   0.741  16.276   1.532
40434W        W 6975   4.479  15.818   1.472
40435W        W 6976  41.403  18.417  14.117
40436W        W 6977  39.478  26.004  14.927
40437W        W 6978  35.645  30.834   4.321
40438W        W 6979  42.975  20.533  14.739
40439W        W 6980  41.542   0.809  12.117
40440W        W 6981  16.858  24.744   0.075
40441W        W 6982  32.296   7.705   2.830
40442W        W 6983  22.786  33.928   4.590
40443W        W 6984  20.068  28.054  12.310
40444W        W 6985   3.545  13.268   0.864
40445W        W 6986  44.671   2.645  10.014
40446W        W 6987  28.724  44.420   1.682
40447W        W 6988   1.377   7.636   3.998
40448W        W 6989   0.288  38.573  11.126
40449W        W 6990  25.035   4.848  14.929
40450W        W 6991  41.305  34.868   4.343
40451W        W 6992  35.020  37.837   4.322
40452W        W 6993  26.904  40.939  11.019
40453W        W 6994  20.286   4.785  11.144
40454W        W 6995  24.998  25.504   4.635
40455W        W 6996  38.351  27.387  12.112
40456W        W 6997   0.216  36.567  14.357
40457W        W 6998  32.958  10.722  14.623
40458W        W 6999   3.907  26.428  10.338
40459W        W 7000  40.467  39.525   4.668
40460W        W 7001  28.931  39.948   4.587
40461W        W 7002  10.353  42.905  14.938
40462W        W 7003  44.457  21.986   3.327
40463W        W 7004  39.673  25.901  11.981
40464W        W 7005  25.291  41.512  14.517
40465W        W 7006  30.763  10.301   3.825
40466W        W 7007   9.769  31.389   4.630
40467W        W 7008  43.188  29.964  11.566
40468W        W 7009   6.277  38.033   5.062
40469W        W 7010  26.504  29.960   2.743
40470W        W 7011   7.951  34.123   0.659
40471W        W 7012  29.464   0.672   4.830
40472W        W 7013  16.106  13.110   2.178
40473W        W 7014  11.151  39.864   3.104
40474W        W 7015  36.177  35.307   5.029
40475W        W 7016  31.125  35.203   1.402
40476W        W 7017  35.489   9.206   3.732
40477W        W 7018  31.300  29.641   1.994
40478W        W 7019   1.299  30.087  14.989
40479W        W 7020  14.685  25.560   2.331
40480W        W 7021  44.285  33.887  11.536
40481W        W 7022   1.234   9.480  11.207
40482W        W 7023  41.321  11.635  14.590
40483W        W 7024  12.917  42.248   4.795
40484W        W 7025  20.157  12.741   3.270
40485W        W 7026  37.977  31.728   0.931
40486W        W 7027  30.439  24.437   1.049
40487W        W 7028  15.280  26.485  12.071
40488W        W 7029  39.373   1.353   2.456
40489W        W 7030   1.282  12.870  12.532
40490W        W 7031  42.563  19.843   3.732
40491W        W 7032  22.629  10.609  12.171
40492W        W 7033   5.795  19.681  14.657
40493W        W 7034   7.464  18.677   3.581
40494W        W 7035  34.785   6.623   4.309
40495W        W 7036  31.934  23.761  12.174
40496W        W 7037  44.304  11.314  14.311
40497W        W 7038  31.038   9.706  12.109
40498W        W 7039  12.837  38.401   2.730
40499W        W 7040  24.644  31.696  14.411
40500W        W 7041  19.321  10.107  12.463
40501W        W 7042  26.945   5.767  13.831
40502W        W 7043  24.472   4.300   2.629
40503W        W 7044  33.509  39.469  10.045
40504W        W 7045  15.191  39.299  10.783
40505W        W 7046  21.958   1.050   0.295
40506W        W 7047   7.006   1.462   4.605
40507W        W 7048  38.538   3.463  14.112
40508W        W 7049  12.105  35.483  12.487
40509W        W 7050  27.315  32.677  14.611
40510W        W 7051  40.892  40.920  10.659
40511W        W 7052  21.671  19.093  13.460
40512W        W 7053  44.038  34.190   2.846
40513W        W 7054  29.527  44.735   0.361
40514W        W 7055  26.042  19.381  14.049
40515W        W 7056  26.193  42.727  14.766
40516W        W 7057  34.519  11.108  11.029
40517W        W 7058  42.116  11.919  14.294
40518W        W 7059  16.674  11.727   3.565
40519W        W 7060  26.056  32.930   1.968
40520W        W 7061   8.740  16.460   4.770
40521W        W 7062   8.337  31.465   3.597
40522W        W 7063  23.350  38.471  13.496
40523W        W 7064  37.081  42.464   4.634
40524W        W 7065  44.674  42.841  11.544
40525W        W 7066  16.360  25.513  13.079
40526W        W 7067  28.573  36.968  10.905
40527W        W 7068  20.288   3.517  13.387
40528W        W 7069   0.722   4.488  14.373
40529W        W 7070  27.580   4.734   4.616
40530W        W 7071   6.001  37.455  14.787
40531W        W 7072  17.796   4.448  13.495
40532W        W 7073  10.658  29.828  14.497
40533W        W 7074  20.160   6.967   2.557
40534W        W 7075  36.561  18.862   0.137
40535W        W 7076   5.807  38.038   3.866
40536W        W 7077  31.226  43.979  12.136
40537W        W 7078  18.477  38.475  13.043
40538W        W 7079  30.706  15.230   1.192
40539W        W 7080  14.655   2.873  13.977
40540W        W 7081  15.145   1.793   4.496
40541W        W 7082   3.955  10.686  14.368
40542W        W 7083  44.912  37.873   0.409
40543W        W 7084  24.549  25.753   4.786
40544W        W 7085   6.254  11.228   4.038
40545W        W 7086  15.722  35.060   2.480
40546W        W 7087   1.511   8.196   1.903
40547W        W 7088  33.520  20.188   3.360
40548W        W 7089  35.308  42.457  11.528
40549W        W 7090  28.620   7.626  11.053
40550W        W 7091  22.525  12.122   0.076
40551W        W 7092   8.197  33.476   0.260
40552W        W 7093  27.494  42.060  13.519
40553W        W 7094  18.707   1.254  14.736
40554W        W 7095  38.926   6.212  12.070
40555W        W 7096  27.410  23.422   3.408
40556W        W 7097  36.582  31.834   4.060
40557W        W 7098  44.895   7.271   1.163
40558W        W 7099  39.141  12.034  10.841
40559W        W 7100  25.151  22.079  11.515
40560W        W 7101  15.106  35.173  14.943
40561W        W 7102  35.483  10.065  10.602
40562W        W 7103  34.296  31.642   0.236
40563W        W 7104   9.939  16.210   0.889
40564W        W 7105  11.225  11.359   1.882
40565W        W 7106  31.202   4.919   4.223
40566W        W 7107  16.600   0.992   2.269
40567W        W 7108  22.292   9.271   4.668
40568W        W 7109   2.845  42.916  13.019
40569W        W 7110  11.177  38.047  13.280
40570W        W 7111   8.819  26.752  14.336
40571W        W 7112  29.657  30.079  11.174
40572W        W 7113   3.507  22.022   1.202
40573W        W 7114  23.572   1.464   1.832
40574W        W 7115   5.972  43.408   1.233
40575W        W 7116   2.977  24.569   4.311
40576W        W 7117  18.754   9.431   0.373
40577W        W 7118  21.880   3.158  12.777
40578W        W 7119  37.776   9.916   4.028
40579W        W 7120  35.328  20.850   3.140
40580W        W 7121  22.765  40.242  10.954
40581W        W 7122  15.124   7.632  12.337
40582W        W 7123   4.108  23.935  10.296
40583W        W 7124   4.871  40.380  14.717
40584W        W 7125   6.513  42.850  14.884
40585W        W 7126  37.976  17.619  11.559
40586W        W 7127  24.521  24.023   3.689
40587W        W 7128  22.816  39.862  12.892
40588W        W 7129  29.964  27.082   1.925
40589W        W 7130  41.224  17.798  13.853
40590W        W 7131  39.542  37.679  14.225
40591W        W 7132   8.276  17.869   3.242
40592W        W 7133  19.296  18.221  12.041
40593W        W 7134   9.315  22.574   2.096
40594W        W 7135   9.640  42.896  10.667
40595W        W 7136  38.476  36.791   2.232
40596W        W 7137  16.797   3.683   3.392
40597W        W 7138  33.068   8.664  14.071
40598W        W 7139  32.422  37.555  10.675
40599W        W 7140  17.617  15.128  12.541
40600W        W 7141   1.551  32.845  14.870
40601W        W 7142  41.507  28.030  10.912
40602W        W 7143  13.427  10.672  11.356
40603W        W 7144   3.691  27.602  13.317
40604W        W 7145  27.574  15.081  11.452
40605W        W 7146  41.001   2.515   1.742
40606W        W 7147   8.198   6.596   4.176
40607W        W 7148  24.171   4.852   2.347
40608W        W 7149  37.039  18.655   3.361
40609W        W 7150   1.477  20.086  14.852
40610W        W 7151  22.192  25.577   4.303
40611W        W 7152   5.839  35.593   1.446
40612W        W 7153  40.183  37.986  10.747
40613W        W 7154  10.439  13.524   5.062
40614W        W 7155   6.827   5.320  12.786
40615W        W 7156  28.163   6.988  14.858
40616W        W 7157  28.065  36.390   2.622
40617W        W 7158   1.314  39.769   3.719
40618W        W 7159  25.823   6.431  12.515
40619W        W 7160  41.474  29.014  12.484
40620W        W 7161   9.794  13.692  11.249
40621W        W 7162   4.658  44.116   5.469
40622W        W 7163   7.382  35.592   4.159
40623W        W 7164  30.173  44.373   1.836
40624W        W 7165  16.129  18.595   3.536
40625W        W 7166  40.745   8.917  12.432
40626W        W 7167  12.352  13.860  13.356
40627W        W 7168  24.301   9.722  12.600
40628W        W 7169  19.515  30.597  14.881
40629W        W 7170  17.234  33.891   3.286
40630W        W 7171  22.221  25.006  14.891
40631W        W 7172  38.324  20.809   1.477
40632W        W 7173  18.348  29.953   4.539
40633W        W 7174  40.068  16.732  10.224
40634W        W 7175  17.571  22.790   4.587
40635W        W 7176  16.701  14.151   2.280
40636W        W 7177  11.110   9.214  13.828
40637W        W 7178  35.771  25.835  13.418
40638W        W 7179  20.585   4.941   1.142
40639W        W 7180  13.752   6.676   4.277
40640W        W 7181  33.978  27.115   0.860
40641W        W 7182   7.707  34.576   0.611
40642W        W 7183  17.958  27.182   0.446
40643W        W 7184  40.395  33.510   4.115
40644W        W 7185  20.161  42.435   2.065
40645W        W 7186   6.734  23.749   0.325
40646W        W 7187   5.922   8.001  13.737
40647W        W 7188  32.406  12.041   3.990
40648W        W 7189   3.695   6.418  13.857
40649W        W 7190  12.681  17.283  12.107
40650W        W 7191   9.834  25.600  12.046
40651W        W 7192  39.579  12.685   2.677
40652W        W 7193  30.436   1.452   2.809
40653W        W 7194   1.293   6.640   0.842
40654W        W 7195   1.726  20.287  14.455
40655W        W 7196   4.708   9.883   0.033
40656W        W 7197  32.090   7.494   4.117
40657W        W 7198   6.208  28.522   4.164
40658W        W 7199  30.528   8.643  13.884
40659W        W 7200  25.622  33.920  12.120
40660W        W 7201  44.561  30.565  11.646
40661W        W 7202  33.951  37.859   3.214
40662W        W 7203   0.343  30.200  10.780
40663W        W 7204  19.306   1.468  11.203
40664W        W 7205   9.103  33.626   4.384
40665W        W 7206  12.133  24.244   1.354
40666W        W 7207  38.922   1.757  13.477
40667W        W 7208   1.169  15.272  12.621
40668W        W 7209  40.951   5.795  11.048
40669W        W 7210  36.538  29.454   0.419
40670W        W 7211  12.197  28.702  12.320
40671W        W 7212  24.284   7.021  10.729
40672W        W 7213   2.061  24.286   3.407
40673W        W 7214  19.284  23.655  14.766
40674W        W 7215  15.967  17.827   2.954
40675W        W 7216  43.997  40.670   1.040
40676W        W 7217  23.538   9.635   4.029
40677W        W 7218  16.515  38.419  13.386
40678W        W 7219  23.062  11.267   2.304
40679W        W 7220   6.321  38.882  12.107
40680W        W 7221  32.936  35.484   0.679
40681W        W 7222   7.768  28.432  12.454
40682W        W 7223  30.604  21.172   5.077
40683W        W 7224  11.220  21.971  12.145
40684W        W 7225  31.874  29.302  13.285
40685W        W 7226  34.426   0.289   2.694
40686W        W 7227  41.791   3.336   4.114
40687W        W 7228  10.704   7.207  11.679
40688W        W 7229  40.440  36.382  14.553
40689W        W 7230  30.573  39.822   4.222
40690W        W 7231  42.098  35.341   2.327
40691W        W 7232  11.261  35.444   1.842
40692W        W 7233   9.928  31.437  12.110
40693W        W 7234  41.813  26.686   0.739
40694W        W 7235  25.473   1.593   0.979
40695W        W 7236   8.720   3.746   4.692
40696W        W 7237  29.665  24.077  13.830
40697W        W 7238  21.824  34.113  13.404
40698W        W 7239  38.383  10.282   0.796
40699W        W 7240  17.072   9.228  14.932
40700W        W 7241   0.315   0.240  13.102
40701W        W 7242  21.102   7.111   2.692
40702W        W 7243  40.012   6.681   3.132
40703W        W 7244  22.772  44.493   1.018
40704W        W 7245  38.446  31.456   4.056
40705W        W 7246   6.284  25.373   0.732
40706W        W 7247  11.559  14.699   3.608
40707W        W 7248   8.679   5.753  13.724
40708W        W 7249  20.089   3.039  13.267
40709W        W 7250  40.382  41.717  13.013
40710W        W 7251  35.477  30.400   4.980
40711W        W 7252  33.391  14.697  12.606
40712W        W 7253  14.336  27.446  12.075
40713W        W 7254  26.297  18.088  11.143
40714W        W 7255  39.564  30.094   0.887
40715W        W 7256  10.718  30.975  12.118
40716W        W 7257  37.308   1.962   5.319
40717W        W 7258  14.756  31.848  13.869
40718W        W 7259  24.558   0.755  11.083
40719W        W 7260  23.298  35.017   4.674
40720W        W 7261   7.653  20.257  12.570
40721W        W 7262  15.682  12.117  12.219
40722W        W 7263  20.597  40.818  10.711
40723W        W 7264  20.461   4.434   4.536
40724W        W 7265  19.089  14.605  12.455
40725W        W 7266  42.428  14.519  10.516
40726W        W 7267  28.931  42.604  14.513
40727W        W 7268  26.923  20.129   2.634
40728W        W 7269  37.647  16.820  14.543
40729W        W 7270  28.388  18.210   3.077
40730W        W 7271  24.335  15.419  11.141
40731W        W 7272   9.445   2.385   2.680
40732W        W 7273   0.662  34.519  11.686
40733W        W 7274  18.500  19.555   2.852
40734W        W 7275   6.656  28.472   3.807
40735W        W 7276  12.600  10.265  11.220
40736W        W 7277   4.647  35.745   1.435
40737W        W 7278  43.983  34.062   0.289
40738W        W 7279  27.232  14.634   4.046
40739W        W 7280  23.071  40.850   0.834
40740W        W 7281  11.713  44.939  14.931
40741W        W 7282   9.432   3.459  14.861
40742W        W 7283  15.001   5.315   3.168
40743W        W 7284  35.039  27.073  10.450
40744W        W 7285  21.527  43.317  14.386
40745W        W 7286  15.343  30.340   1.657
40746W        W 7287  20.664  31.449   2.901
40747W        W 7288   3.325   5.827  14.552
40748W        W 7289  28.458  10.727  10.962
40749W        W 7290  26.041  27.687  14.654
40750W        W 7291   4.252   6.248   4.166
40751W        W 7292  43.711  13.376   1.168
40752W        W 7293   0.902  12.167  11.964
40753W        W 7294  13.574  33.090   2.375
40754W        W 7295  10.203   6.898   1.443
40755W        W 7296  17.871  40.844  14.844
40756W        W 7297   5.513   0.472   1.644
40757W        W 7298  39.453   5.848   2.661
40758W        W 7299  11.320  32.393  14.808
40759W        W 7300  37.368  40.719   1.742
40760W        W 7301   1.768   3.932   2.528
40761W        W 7302  10.753   8.737   2.949
40762W        W 7303  13.045  41.334   4.501
40763W        W 7304   3.638   1.427   0.446
40764W        W 7305  14.091  20.688  13.350
40765W        W 7306  19.635   8.107  13.350
40766W        W 7307   0.719   4.523   4.936
40767W        W 7308   8.773  20.495  11.916
40768W        W 7309  42.949  43.913  11.734
40769W        W 7310  37.309  36.586  12.545
40770W        W 7311  26.633  24.685  14.195
40771W        W 7312  11.752   3.272   4.578
40772W        W 7313  35.603   2.829  14.792
40773W        W 7314  44.575  19.462  11.904
40774W        W 7315  35.104   5.900  12.062
40775W        W 7316  32.548   5.166   1.891
40776W        W 7317  31.176  21.500  11.925
40777W        W 7318  30.667  32.161  13.476
40778W        W 7319  16.832   7.383   4.954
40779W        W 7320  39.522  32.117  12.909
40780W        W 7321  36.428   8.873   0.380
40781W        W 7322  23.691  29.461   2.760
40782W        W 7323   9.795   5.748  13.493
40783W        W 7324  30.218  10.450  14.304
40784W        W 7325   4.504  29.914   2.767
40785W        W 7326  42.468  42.864  13.569
40786W        W 7327  20.679   1.411  10.953
40787W        W 7328  25.713  30.507   2.760
40788W        W 7329  43.722  29.713   4.853
40789W        W 7330  44.440   2.078  13.871
40790W        W 7331  22.714  24.201  12.996
40791W        W 7332  29.861  29.269   2.783
40792W        W 7333  35.648   8.431  14.930
40793W        W 7334  11.568  19.249   2.794
40794W        W 7335   4.155  43.548  11.325
40795W        W 7336   7.125  33.707   1.913
40796W        W 7337  32.664  32.006   4.839
40797W        W 7338  41.225  34.596   4.881
40798W        W 7339   9.843  41.214  12.547
40799W        W 7340  20.326   9.690  12.495
40800W        W 7341  17.435  22.279  10.182
40801W        W 7342  31.381  35.327   3.094
40802W        W 7343  18.053   1.357  12.058
40803W        W 7344  26.473  39.563   4.583
40804W        W 7345  31.976  19.991   4.809
40805W        W 7346  28.342  15.796  14.959
40806W        W 7347  25.672  37.243   2.135
40807W        W 7348  41.408   0.340  12.355
40808W        W 7349   8.439  12.003   0.242
40809W        W 7350   2.837  31.917   1.306
40810W        W 7351  10.343   1.485  13.365
40811W        W 7352  37.872  41.101  14.685
40812W        W 7353  17.745  42.503   1.866
40813W        W 7354   2.890  17.190   2.430
40814W        W 7355   1.355  42.728  11.906
40815W        W 7356   9.717  38.816  12.994
40816W        W 7357  43.256  33.877  11.906
40817W        W 7358  13.827   1.145  11.093
40818W        W 7359  18.254   1.050  13.555
40819W        W 7360  14.541   7.827  13.380
40820W        W 7361  36.081   7.756   1.465
40821W        W 7362   5.309  25.988   1.390
40822W        W 7363  40.587   2.272   3.609
40823W        W 7364  44.074  26.562  10.535
40824W        W 7365  19.262  34.316  13.818
40825W        W 7366  41.509  15.514  13.372
40826W        W 7367  29.009   2.603  14.325
40827W        W 7368  29.442  40.347   2.001
40828W        W 7369  24.714  16.688  13.437
40829W        W 7370   9.168  27.078   3.388
40830W        W 7371  34.982   9.363   1.777
40831W        W 7372   3.763   9.019   2.836
40832W        W 7373  39.253  18.489  11.510
40833W        W 7374  35.864  43.809   0.970
40834W        W 7375  39.318  15.245   4.636
40835W        W 7376  44.273  15.821   2.260
40836W        W 7377  37.273   7.558  12.775
40837W        W 7378  39.942   9.513  12.089
40838W        W 7379  38.796  25.114  12.981
40839W        W 7380  11.244   7.287   4.201
40840W        W 7381   4.756  15.222   3.007
40841W        W 7382  17.256   7.130   0.936
40842W        W 7383  44.837  10.561  14.240
40843W        W 7384  16.987   4.690  11.513
40844W        W 7385  39.921   1.635  13.500
40845W        W 7386   6.745  36.168  12.428
40846W        W 7387  21.579   4.270  11.274
40847W        W 7388  22.960   2.961   1.324
40848W        W 7389  23.783  39.146   1.759
40849W        W 7390  36.301  26.677  12.832
40850W        W 7391  31.433   7.754   3.172
40851W        W 7392  12.834  35.181  11.560
40852W        W 7393   0.747  44.411  14.002
40853W        W 7394  14.295  32.326   3.101
40854W        W 7395  20.149  29.685   2.318
40855W        W 7396   7.838  30.715  13.411
40856W        W 7397  33.325  41.041  10.726
40857W        W 7398   5.968  31.354  14.674
40858W        W 7399  41.879  41.807  12.915
40859W        W 7400   2.192  33.117   4.607
40860W        W 7401   4.325   9.489  14.703
40861W        W 7402   8.638  25.614   3.703
40862W        W 7403   3.003  34.307   3.529
40863W        W 7404  28.774  21.399   2.877
40864W        W 7405  19.882  32.018  13.974
40865W        W 7406   8.706  38.979   1.260
40866W        W 7407  11.438   9.194  12.908
40867W        W 7408  27.208  41.366   2.168
40868W        W 7409  39.985   4.233  10.704
40869W        W 7410  33.577  20.341   4.809
40870W        W 7411  29.189  17.724  11.605
40871W        W 7412  33.799  22.344   2.674
40872W        W 7413   4.827  37.588  10.311
40873W        W 7414  36.501  16.343   4.758
40874W        W 7415  27.896  28.606  10.712
40875W        W 7416  23.107  15.288   3.298
40876W        W 7417   5.677  44.007  10.863
40877W        W 7418  13.514  26.476   0.717
40878W        W 7419   3.330   4.226   1.431
40879W        W 7420  11.278  21.989   1.224
40880W        W 7421  25.646  25.736  13.868
40881W        W 7422  43.853  19.984   2.313
40882W        W 7423  30.070  16.430  10.810
40883W        W 7424  29.536   6.756  11.396
40884W        W 7425  30.197  24.117   2.728
40885W        W 7426  18.303  22.543  13.860
40886W        W 7427   9.874  25.839   1.520
40887W        W 7428   9.777  17.350  11.922
40888W        W 7429  16.190  26.706   3.674
40889W        W 7430  29.704  20.605   1.434
40890W        W 7431  18.563  24.753   1.679
40891W        W 7432  23.533   5.812   1.487
40892W        W 7433  19.714  28.124   2.119
40893W        W 7434  44.499  44.716  13.322
40894W        W 7435   4.506  37.635   2.559
40895W        W 7436  17.548  38.547  11.493
40896W        W 7437   8.965  13.323  13.053
40897W        W 7438  27.431  12.054   0.722
40898W        W 7439  11.346  20.952  14.316
40899W        W 7440  42.775   4.132  10.624
40900W        W 7441  25.101  11.250   0.819
40901W        W 7442  36.426  32.083   3.150
40902W        W 7443  25.001  12.721  14.094
40903W        W 7444  19.006  34.061   2.839
40904W        W 7445  23.990  35.171  11.618
40905W        W 7446  10.654   5.427   3.099
40906W        W 7447  25.982  21.003  13.814
40907W        W 7448  10.260  12.832   3.320
40908W        W 7449  22.055  31.632  14.034
40909W        W 7450   7.820  22.239  13.028
40910W        W 7451   3.926  27.192  10.918
40911W        W 7452  25.596  13.057   4.971
40912W        W 7453   7.836   7.998  11.204
40913W        W 7454  39.629  16.263  12.564
40914W        W 7455  40.092  17.320   1.404
40915W        W 7456  13.142  19.594   2.164
40916W        W 7457  40.824   9.806  12.930
40917W        W 7458   5.334  41.828   0.878
40918W        W 7459  15.375   8.412   4.841
40919W        W 7460  23.714  28.001   0.182
40920W        W 7461  34.783  33.721   1.792
40921W        W 7462  39.928  20.977   3.431
40922W        W 7463  39.876   2.860   2.844
40923W        W 7464  41.348  25.338  12.299
40924W        W 7465  19.769  30.126  10.865
40925W        W 7466  22.200  18.088   2.778
40926W        W 7467  28.059  34.830   0.949
40927W        W 7468  29.114  28.496  13.875
40928W        W 7469  43.156   8.707   0.733
40929W        W 7470   9.223  28.606  13.135
40930W        W 7471  39.608  42.785  11.629
40931W        W 7472  14.913   8.612  11.629
40932W        W 7473  44.266  17.851  11.197
40933W        W 7474  24.751   4.308  13.872
40934W        W 7475  34.306  22.946   1.520
40935W        W 7476  20.400   5.738  10.228
40936W        W 7477  21.159  42.574  14.065
40937W        W 7478   2.240  27.896   5.055
40938W        W 7479  14.354  29.393   9.898
40939W        W 7480  13.109  10.695   4.656
40940W        W 7481   2.611  25.212  14.290
40941W        W 7482  25.582  22.690  13.529
40942W        W 7483  19.501  12.313   3.593
40943W        W 7484  29.207  44.905  14.434
40944W        W 7485  22.236   9.778  12.549
40945W        W 7486   7.607  15.983   3.766
40946W        W 7487  42.412  27.747   3.864
40947W        W 7488   7.838   6.941  10.521
40948W        W 7489   9.689  23.205   4.716
40949W        W 7490   8.693  36.792  13.831
40950W        W 7491  29.088  29.940  13.577
40951W        W 7492  20.192  32.076   0.327
40952W        W 7493  13.632  13.741  14.832
40953W        W 7494  44.090  28.110  12.133
40954W        W 7495  17.065  33.689   3.763
40955W        W 7496  34.978  11.695   4.179
40956W        W 7497  21.514  27.311  14.572
40957W        W 7498  11.543  11.368   2.624
40958W        W 7499  17.103  38.111  13.874
40959W        W 7500  41.577   7.296   2.509
40960W        W 7501  11.014  34.395  13.544
40961W        W 7502   1.386  23.017   1.020
40962W        W 7503  19.674  12.135   2.459
40963W        W 7504  40.943   6.372  14.214
40964W        W 7505  23.698  23.078  14.495
40965W        W 7506  40.500  36.412   2.283
40966W        W 7507  14.042  44.500  10.892
40967W        W 7508  38.718  35.043   4.048
40968W        W 7509  37.706  15.978  10.279
40969W        W 7510  29.609   6.317   4.944
40970W        W 7511  38.619   8.456  13.376
40971W        W 7512  33.498  42.551  14.365
40972W        W 7513  21.507  12.761  11.769
40973W        W 7514   2.000   2.386  14.263
40974W        W 7515  35.833  17.991   4.156
40975W        W 7516  23.327   7.458   3.274
40976W        W 7517   3.070  20.323   1.361
40977W        W 7518  10.967  40.004  10.777
40978W        W 7519  40.841   2.538  14.404
40979W        W 7520  37.118  15.697   2.715
40980W        W 7521   8.256  18.840  13.389
40981W        W 7522   3.393   5.037   0.532
40982W        W 7523   4.689  12.003   4.704
40983W        W 7524   4.532  32.962  10.762
40984W        W 7525  30.865  37.642   2.831
40985W        W 7526  37.955  12.300   2.969
40986W        W 7527  38.530  42.962  14.409
40987W        W 7528  42.336  43.020  13.067
40988W        W 7529  21.693  39.658   1.502
40989W        W 7530   2.698  13.927   0.864
40990W        W 7531  28.830  35.951  13.282
40991W        W 7532   6.729  21.768  14.274
40992W        W 7533   4.782  15.619  11.185
40993W        W 7534  38.547  19.873   2.836
40994W        W 7535   8.271  26.012   3.605
40995W        W 7536  44.877  16.830  11.626
40996W        W 7537  38.377  37.893  14.280
40997W        W 7538   3.806   5.809  13.304
40998W        W 7539  27.973   5.566   2.153
40999W        W 7540  34.388  36.579  13.763
41000W        W 7541  21.659  29.035  11.680
41001W        W 7542  14.230  38.343  14.830
41002W        W 7543  18.808  34.947  11.638
41003W        W 7544  22.699  34.262   1.292
41004W        W 7545  21.371  32.847  12.585
41005W        W 7546  31.008   6.800   1.894
41006W        W 7547  29.934  33.137  14.105
41007W        W 7548  39.010   0.998   3.234
41008W        W 7549  44.030  19.739   0.051
41009W        W 7550  39.330   8.655  13.834
41010W        W 7551  18.555  23.148  14.506
41011W        W 7552  26.891  37.280   1.837
41012W        W 7553  32.400  23.209   0.822
41013W        W 7554  17.843   2.483   3.110
41014W        W 7555  36.453   0.853  12.410
41015W        W 7556   0.616  28.942   1.631
41016W        W 7557   6.901  18.021  13.518
41017W        W 7558  20.727  24.481   0.394
41018W        W 7559  29.877  22.278  14.997
41019W        W 7560  30.264  21.237   2.646
41020W        W 7561  15.241  12.471  10.451
41021W        W 7562  39.980  32.410  11.122
41022W        W 7563  10.685  23.039  14.918
41023W        W 7564   8.454  37.187   1.336
41024W        W 7565  21.924  18.368   3.129
41025W        W 7566  18.248  26.083  12.611
41026W        W 7567  33.774   6.334  13.940
41027W        W 7568  37.496  34.064   0.013
41028W        W 7569   5.363  12.189  11.024
41029W        W 7570  38.952  29.061   1.850
41030W        W 7571  42.392  35.652   4.728
41031W        W 7572  24.695  35.513  12.105
41032W        W 7573  28.236   0.872  14.272
41033W        W 7574   6.723  22.547   4.628
41034W        W 7575   0.967   6.627  10.617
41035W        W 7576  21.014  16.038  13.012
41036W        W 7577   6.740  39.089  14.402
41037W        W 7578  10.868   2.337   2.428
41038W        W 7579  34.209  43.895  10.687
41039W        W 7580  17.898  30.013   4.257
41040W        W 7581  30.488  43.190   1.767
41041W        W 7582  36.079   7.719  12.579
41042W        W 7583  44.787  15.608   3.115
41043W        W 7584  15.214  12.632  12.435
41044W        W 7585  41.837  33.611   1.921
41045W        W 7586  32.228  36.514  14.292
41046W        W 7587   7.638  26.501   1.868
41047W        W 7588  24.972  14.268   1.699
41048W        W 7589  14.670  35.505   3.520
41049W        W 7590  16.328   0.014   1.421
41050W        W 7591  24.539   2.398   1.984
41051W        W 7592  37.393  34.729  12.385
41052W        W 7593  23.189  22.261   2.029
41053W        W 7594  11.585   9.299  10.996
41054W        W 7595  36.299  15.818  12.455
41055W        W 7596   8.281  32.644  11.588
41056W        W 7597  13.016  22.217  11.553
41057W        W 7598  34.846  39.341   3.617
41058W        W 7599  31.420   5.247   1.771
41059W        W 7600  27.465  23.201  12.168
41060W        W 7601  12.653  10.631   1.966
41061W        W 7602   1.067  41.365   0.903
41062W        W 7603  24.733  14.773  11.435
41063W        W 7604  31.188   2.931   0.443
41064W        W 7605  36.387  25.887   2.902
41065W        W 7606  42.777   6.024   5.077
41066W        W 7607  25.263  23.421  14.786
41067W        W 7608  41.396  16.908  13.981
41068W        W 7609  30.549  44.172   2.162
41069W        W 7610  41.400  30.957  12.479
41070W        W 7611   0.350  28.469   3.350
41071W        W 7612   2.508  41.373   2.869
41072W        W 7613  20.170   7.287  14.531
41073W        W 7614  17.703  14.603   3.693
41074W        W 7615  19.303   4.312  10.614
41075W        W 7616  38.266  43.074  13.968
41076W        W 7617  41.852  37.127  12.073
41077W        W 7618   1.780   7.468  11.194
41078W        W 7619  42.400  22.117   3.097
41079W        W 7620  31.202  34.940  14.986
41080W        W 7621   6.079  13.126   3.462
41081W        W 7622  25.114  19.495   0.468
41082W        W 7623  15.657  35.996  10.734
41083W        W 7624  16.668  19.216   3.643
41084W        W 7625  21.272  27.047  13.051
41085W        W 7626  23.405  18.457  12.461
41086W        W 7627  43.349  16.747   4.244
41087W        W 7628  43.441   3.313  12.169
41088W        W 7629  24.945  22.944   1.340
41089W        W 7630  22.962   7.338  14.854
41090W        W 7631  41.545   3.366  13.492
41091W        W 7632  11.325  43.339   4.520
41092W        W 7633  25.620  36.402  13.857
41093W        W 7634  26.149  18.534  14.297
41094W        W 7635  30.147   1.993   2.285
41095W        W 7636  14.805  40.554   3.155
41096W        W 7637   3.783  30.160  12.794
41097W        W 7638  37.563  14.224  12.395
41098W        W 7639  24.531  32.361  11.905
41099W        W 7640  22.548  13.635  10.748
41100W        W 7641  41.262   2.186  13.449
41101W        W 7642  35.731  25.907  12.447
41102W        W 7643  37.324  35.628  14.228
41103W        W 7644  32.592   7.720   2.410
41104W        W 7645   5.169  17.210   0.881
41105W        W 7646  17.711   3.847   3.143
41106W        W 7647   2.881  41.895  11.467
41107W        W 7648  15.170  27.973  10.670
41108W        W 7649   9.515  21.403  10.702
41109W        W 7650  17.285  10.247  13.915
41110W        W 7651  18.211  27.098   3.326
41111W        W 7652   7.868  13.377  12.940
41112W        W 7653  30.962   7.959   1.188
41113W        W 7654  26.840  38.607   5.180
41114W        W 7655  15.389  11.931   4.674
41115W        W 7656  42.076  23.079  14.805
41116W        W 7657  14.433  34.946  13.502
41117W        W 7658  34.867  16.850   1.288
41118W        W 7659   6.842  13.827  10.849
41119W        W 7660   5.710  36.922   5.433
41120W        W 7661  24.808  15.277  11.724
41121W        W 7662  21.597  33.689  14.487
41122W        W 7663  44.198  15.745  14.275
41123W        W 7664  26.725  40.477  10.719
41124W        W 7665  26.566   0.965   3.604
41125W        W 7666  27.645   1.429   0.968
41126W        W 7667  22.703  23.804   5.091
41127W        W 7668  42.567  21.614  13.868
41128W        W 7669   5.819  17.777  12.832
41129W        W 7670  43.343  26.583  13.930
41130W        W 7671  10.896  19.219   0.077
41131W        W 7672   8.311  19.642   4.087
41132W        W 7673  20.195  28.180   0.877
41133W        W 7674  35.460  38.176   1.170
41134W        W 7675  13.170  39.234  12.660
41135W        W 7676  14.116  39.888   2.265
41136W        W 7677  24.394  11.762   0.829
41137W        W 7678  25.654   8.027   4.808
41138W        W 7679   1.909  17.545   3.216
41139W        W 7680  20.793  16.978   4.090
41140W        W 7681  15.556  17.263   2.254
41141W        W 7682  43.931   8.506   0.850
41142W        W 7683  23.645  15.674   0.812
41143W        W 7684  15.762  32.982   5.598
41144W        W 7685  36.525   9.168   0.818
41145W        W 7686  15.704  44.285  12.485
41146W        W 7687   4.840  29.285   1.305
41147W        W 7688  26.719  31.778  13.238
41148W        W 7689  32.927  19.746  12.092
41149W        W 7690  28.494  18.378  13.310
41150W        W 7691  42.447  28.590  14.839
41151W        W 7692  42.834  44.901   4.729
41152W        W 7693  44.787  12.196  10.730
41153W        W 7694  31.637  21.821   1.493
41154W        W 7695   1.215   4.971   1.353
41155W        W 7696  18.976   8.199   3.769
41156W        W 7697   1.442  24.074   4.383
41157W        W 7698  27.735  35.959   4.613
41158W        W 7699   5.991  16.171  14.324
41159W        W 7700  25.710  14.251  14.018
41160W        W 7701   1.018  25.672  10.807
41161W        W 7702  25.409  30.447  13.548
41162W        W 7703  14.300  39.565  13.441
41163W        W 7704   3.404  33.045  14.504
41164W        W 7705   4.007   5.091   2.384
41165W        W 7706  26.522  31.198   3.330
41166W        W 7707  13.777  20.234  13.389
41167W        W 7708   4.677  42.421  14.914
41168W        W 7709  30.499  30.216  11.099
41169W        W 7710  33.973  28.409   2.776
41170W        W 7711  42.293  20.314  14.893
41171W        W 7712   8.396   4.480  13.435
41172W        W 7713  13.202  44.376   0.310
41173W        W 7714  35.115   9.281   0.191
41174W        W 7715  27.973  41.841  10.733
41175W        W 7716   8.144   3.732   2.754
41176W        W 7717  32.623  25.038   0.234
41177W        W 7718  20.255  16.329   1.708
41178W        W 7719  33.066  16.344   1.392
41179W        W 7720  30.998  31.112   3.560
41180W        W 7721  40.480  31.164   2.159
41181W        W 7722  38.227  22.718   4.640
41182W        W 7723  12.262  39.985   0.035
41183W        W 7724  29.334   4.625   0.517
41184W        W 7725   5.473  43.330   1.146
41185W        W 7726  18.125  43.882   4.817
41186W        W 7727  44.366   8.332   4.068
41187W        W 7728  22.712  22.086  11.512
41188W        W 7729  25.761   9.962  12.593
41189W        W 7730  10.795  41.445  11.178
41190W        W 7731  21.604  19.500  13.981
41191W        W 7732  32.121  38.894   4.570
41192W        W 7733  37.432  42.382   1.936
41193W        W 7734  31.485  11.412   2.277
41194W        W 7735  38.505  32.464  13.555
41195W        W 7736  23.247  21.799   2.369
41196W        W 7737   9.845  33.360   3.647
41197W        W 7738  13.614   7.359  12.196
41198W        W 7739  29.954  20.116  13.090
41199W        W 7740   5.839  43.231  13.444
41200W        W 7741  31.067  39.947  13.586
41201W        W 7742   2.935   1.860   3.551
41202W        W 7743   4.924  38.316  11.052
41203W        W 7744  38.338  38.991  14.897
41204W        W 7745  27.513  42.590   4.530
41205W        W 7746  31.291  42.021   0.105
41206W        W 7747  27.946   3.959  14.948
41207W        W 7748   8.192  40.065   3.746
41208W        W 7749  20.041  32.468  14.726
41209W        W 7750  16.315  37.780  14.439
41210W        W 7751  16.292  12.855  13.885
41211W        W 7752  37.976  35.573   3.918
41212W        W 7753  21.536  12.135  14.811
41213W        W 7754  23.220  42.952  10.798
41214W        W 7755  40.980   9.661  14.842
41215W        W 7756   9.667  28.838  12.882
41216W        W 7757   1.441  26.009  10.031
41217W        W 7758  40.306   0.371  12.327
41218W        W 7759  44.382   3.773   3.662
41219W        W 7760  23.179  12.684   2.653
41220W        W 7761   4.307  19.694   4.234
41221W        W 7762  13.965  16.643  10.994
41222W        W 7763  29.206  30.499   2.401
41223W        W 7764   5.890   9.380   4.347
41224W        W 7765  31.571  29.751   1.033
41225W        W 7766  39.762  39.154  14.417
41226W        W 7767  33.572   0.984   4.408
41227W        W 7768   0.189  18.086   5.061
41228W        W 7769  42.450   3.370   1.004
41229W        W 7770  42.933  38.406  12.183
41230W        W 7771  43.105   8.344   1.437
41231W        W 7772   1.878   0.482  10.966
41232W        W 7773  15.798  14.704  11.682
41233W        W 7774  30.051  24.181   4.077
41234W        W 7775  33.345  25.993  13.248
41235W        W 7776  23.506   0.705   0.861
41236W        W 7777  16.737  28.559   4.538
41237W        W 7778  33.332  40.037  13.072
41238W        W 7779  41.454  16.316   3.130
41239W        W 7780  35.048  19.616   2.703
41240W        W 7781  21.117  20.507  13.502
41241W        W 7782  38.366   5.268  12.535
41242W        W 7783  35.553   9.336   0.502
41243W        W 7784  26.379  20.106   2.666
41244W        W 7785  22.026  41.080  12.707
41245W        W 7786  29.670  34.882  12.034
41246W        W 7787  32.416  43.366  10.786
41247W        W 7788  15.567  28.098  11.593
41248W        W 7789  13.960  11.394   0.195
41249W        W 7790  20.059   6.903   1.554
41250W        W 7791  32.001  23.749  14.143
41251W        W 7792   5.114  42.282   3.294
41252W        W 7793  18.702  43.784  10.811
41253W        W 7794   8.383  29.047   4.548
41254W        W 7795  20.215  34.811   0.197
41255W        W 7796   5.892  21.541  11.486
41256W        W 7797   0.644  23.029   3.100
41257W        W 7798  43.341  29.931   4.568
41258W        W 7799  13.071  21.090  10.728
41259W        W 7800   5.562  13.358   1.134
41260W        W 7801  19.079  18.323   0.907
41261W        W 7802   1.625  41.324  12.957
41262W        W 7803  12.030   4.772  11.005
41263W        W 7804   2.280  14.701  12.927
41264W        W 7805   0.614  44.790  14.820
41265W        W 7806  34.349  21.737  14.948
41266W        W 7807   8.012  21.122  13.004
41267W        W 7808  20.539  12.771  13.925
41268W        W 7809  15.553  18.332  13.437
41269W        W 7810   7.002  17.571  14.072
41270W        W 7811  42.603  26.963  11.603
41271W        W 7812  36.077   3.531  13.677
41272W        W 7813  14.065  33.185  11.522
41273W        W 7814  12.197   1.927  10.717
41274W        W 7815   9.253   2.009   2.340
41275W        W 7816   0.720  11.880   4.045
41276W        W 7817  30.089   6.338  14.987
41277W        W 7818  31.723  16.276  11.107
41278W        W 7819  10.192  33.659  13.780
41279W        W 7820   0.995  12.253   4.505
41280W        W 7821  11.916  10.723  11.953
41281W        W 7822  31.401  11.059   0.822
41282W        W 7823  41.023  29.398   2.266
41283W        W 7824  11.090  42.258   1.313
41284W        W 7825  18.227  16.557  12.923
41285W        W 7826  34.564  32.171   3.317
41286W        W 7827   8.661  26.733  11.991
41287W        W 7828  43.376  36.420  10.462
41288W        W 7829   5.761  39.196   1.471
41289W        W 7830   5.038  21.155   9.811
41290W        W 7831  35.355   3.269   2.074
41291W        W 7832   5.212   2.373   0.272
41292W        W 7833  41.834   1.418   4.488
41293W        W 7834   3.185  16.319  12.495
41294W        W 7835  41.609  31.937  13.363
41295W        W 7836  36.970   4.688  10.732
41296W        W 7837   8.737  44.060  10.716
41297W        W 7838   5.991   6.216   4.111
41298W        W 7839  14.635  15.622   4.179
41299W        W 7840  26.136  38.093  11.185
41300W        W 7841  36.958  26.954   3.231
41301W        W 7842  43.441  24.585   1.744
41302W        W 7843  27.719  19.778   4.813
41303W        W 7844  42.595  40.401  12.384
41304W        W 7845  22.460  29.818  13.398
41305W        W 7846  13.881  25.239  10.675
41306W        W 7847  10.451  36.232  13.364
41307W        W 7848  42.363  18.601  13.626
41308W        W 7849  19.208  11.142  12.415
41309W        W 7850  41.108  19.779  14.064
41310W        W 7851  16.102  21.480  12.930
41311W        W 7852  42.635  29.716  11.406
41312W        W 7853   1.741  37.427  10.674
41313W        W 7854  30.844  24.119   4.714
41314W        W 7855  27.511  29.934  10.518
41315W        W 7856  40.126  15.444  10.039
41316W        W 7857  34.696  30.927   0.923
41317W        W 7858  40.253   2.436   3.218
41318W        W 7859  10.402  24.094   2.082
41319W        W 7860  36.053  32.447  14.771
41320W        W 7861  20.118  43.050  10.727
41321W        W 7862  28.057  24.227  14.514
41322W        W 7863  14.878  18.342   2.636
41323W        W 7864  38.859  34.598  14.110
41324W        W 7865  38.737  26.946   2.185
41325W        W 7866   3.635  41.737   2.370
41326W        W 7867  12.079   7.220  10.711
41327W        W 7868  33.036  41.263   4.525
41328W        W 7869   2.312  35.964   0.200
41329W        W 7870  19.022  14.381   2.855
41330W        W 7871  16.660   0.072  12.216
41331W        W 7872  10.689  42.225   5.068
41332W        W 7873  38.238   3.882  11.315
41333W        W 7874  18.392  31.996   0.854
41334W        W 7875  36.112  44.436   1.894
41335W        W 7876  27.135  34.416   0.638
41336W        W 7877  35.362  34.655  14.745
41337W        W 7878  20.541  34.425   0.028
41338W        W 7879  26.798  38.552  10.157
41339W        W 7880   6.252  25.929   2.510
41340W        W 7881  18.740  27.076   3.391
41341W        W 7882  13.158  15.292   1.920
41342W        W 7883  32.579  37.829  13.059
41343W        W 7884   6.639  34.908   3.664
41344W        W 7885   4.492  41.026   1.805
41345W        W 7886  30.412  40.300  11.219
41346W        W 7887  43.410  12.646   4.154
41347W        W 7888  41.276  37.553   2.635
41348W        W 7889  15.393  22.117  12.264
41349W        W 7890   8.854   2.713  12.763
41350W        W 7891  14.639  35.924   1.525
41351W        W 7892  32.074  33.389   3.289
41352W        W 7893   5.414   5.639   4.994
41353W        W 7894  43.378  23.549  10.903
41354W        W 7895  24.990  14.700   1.434
41355W        W 7896  34.410  21.229  11.207
41356W        W 7897  16.290  33.987   0.763
41357W        W 7898  30.408  29.544   4.244
41358W        W 7899  15.613  24.105  10.664
41359W        W 7900   2.217  33.603   1.490
41360W        W 7901   0.330  40.762  11.375
41361W        W 7902   7.365  32.737   4.801
41362W        W 7903   6.042  24.625   4.045
41363W        W 7904  30.169   2.658  12.070
41364W        W 7905  24.590   6.428  12.613
41365W        W 7906   0.150   3.697  10.140
41366W        W 7907  32.547   6.317  14.628
41367W        W 7908  16.892  13.834   4.962
41368W        W 7909  19.673  20.464  11.946
41369W        W 7910  30.965   9.858  11.145
41370W        W 7911   2.022  13.026   3.628
41371W        W 7912  27.807  14.244  10.278
41372W        W 7913   1.983   5.328   4.113
41373W        W 7914  21.530  26.809  10.047
41374W        W 7915  15.756  33.303  14.830
41375W        W 7916  42.541   1.325  11.432
41376W        W 7917  36.659  27.468  14.473
41377W        W 7918  28.766  33.448  13.324
41378W        W 7919   4.312   9.949  14.321
41379W        W 7920  38.385   9.402  11.933
41380W        W 7921   5.236  11.105   2.723
41381W        W 7922  38.573  39.279   0.323
41382W        W 7923  15.170  22.551  13.920
41383W        W 7924  22.509  31.011   1.678
41384W        W 7925  12.754  24.173  14.074
41385W        W 7926  14.639  32.924  14.003
41386W        W 7927  11.637  24.513  12.841
41387W        W 7928  32.181  30.926  12.475
41388W        W 7929  22.044   2.429   1.378
41389W        W 7930   4.469  23.093   0.463
41390W        W 7931  38.403  36.121   1.755
41391W        W 7932  14.747  18.803  13.350
41392W        W 7933  44.117  15.697   1.248
41393W        W 7934   7.077  41.791   2.567
41394W        W 7935   5.798  27.167   2.319
41395W        W 7936  26.529  38.143   5.030
41396W        W 7937  19.658  27.507   1.889
41397W        W 7938   9.316   2.988   1.644
41398W        W 7939   1.463  25.788   3.637
41399W        W 7940  35.846   0.956   4.665
41400W        W 7941  28.210  15.921  14.408
41401W        W 7942  26.706  39.312  12.422
41402W        W 7943  43.609  21.485  13.963
41403W        W 7944  39.531   8.903   0.318
41404W        W 7945   0.449  39.328   4.817
41405W        W 7946  15.420  38.049   1.815
41406W        W 7947   3.394  39.975   4.857
41407W        W 7948  19.859  25.132  11.660
41408W        W 7949  28.210  16.176  10.764
41409W        W 7950  25.546  10.173  13.801
41410W        W 7951  24.676  18.786   2.647
41411W        W 7952  15.834  33.861  13.964
41412W        W 7953  43.023  15.613   3.150
41413W        W 7954  42.733   9.248   3.673
41414W        W 7955  11.849  20.443  14.765
41415W        W 7956  17.653  14.809   0.188
41416W        W 7957   3.219  15.300  12.001
41417W        W 7958  34.579   4.763   3.346
41418W        W 7959  39.000   2.500   0.305
41419W        W 7960  27.190   3.480  11.147
41420W        W 7961  13.741  26.796  10.191
41421W        W 7962  22.658   4.252   2.307
41422W        W 7963  27.871  43.433   0.574
41423W        W 7964  10.851  15.197  13.799
41424W        W 7965  36.933  35.616  13.390
41425W        W 7966  11.739  34.416  12.882
41426W        W 7967   8.579  18.046  11.114
41427W        W 7968  30.895  23.087   3.322
41428W        W 7969  13.786  27.093  14.456
41429W        W 7970  24.975  14.345   3.090
41430W        W 7971  27.849  19.276  14.095
41431W        W 7972   6.390  21.046   3.487
41432W        W 7973  14.102  21.296   4.759
41433W        W 7974   9.401  43.716  14.329
41434W        W 7975   1.654  10.171  14.268
41435W        W 7976   6.878  34.763  14.200
41436W        W 7977  31.697  32.650  12.127
41437W        W 7978  39.056   8.797   0.069
41438W        W 7979   0.850  21.493   4.261
41439W        W 7980  33.004  11.190  12.858
41440W        W 7981  22.167  37.170  13.946
41441W        W 7982  25.603   4.762  11.851
41442W        W 7983  19.154  44.612   3.922
41443W        W 7984  16.269  22.531   2.893
41444W        W 7985  27.956  43.362   4.612
41445W        W 7986   3.798   8.678   4.560
41446W        W 7987  22.055  18.112  14.719
41447W        W 7988   3.213  15.280   4.335
41448W        W 7989  16.257  29.508  12.441
41449W        W 7990  43.432  44.738   4.126
41450W        W 7991  33.164  33.138  11.179
41451W        W 7992  19.598   8.558  12.575
41452W        W 7993  31.886  29.442  14.755
41453W        W 7994  35.357  32.139   1.929
41454W        W 7995  25.448  44.493  12.548
41455W        W 7996  44.415   8.665   0.780
41456W        W 7997  23.412  23.664  13.473
41457W        W 7998  41.271  18.062  14.488
41458W        W 7999  30.512  30.581   2.362
41459W        W 8000   7.784  28.221   4.627
41460W        W 8001  42.592   9.920   2.194
41461W        W 8002  27.622   9.236  12.266
41462W        W 8003  19.735  40.231   1.474
41463W        W 8004   1.662  29.998   1.493
41464W        W 8005   6.797   7.165   3.759
41465W        W 8006  25.432  21.722   2.176
41466W        W 8007  26.715  12.832   5.118
41467W        W 8008  21.692   9.432  13.962
41468W        W 8009  27.414  43.717   1.721
41469W        W 8010  28.136  29.036   0.981
41470W        W 8011  15.119  18.549   1.662
41471W        W 8012  16.776  36.952   2.235
41472W        W 8013  21.480  42.989  14.789
41473W        W 8014   9.636  25.593  14.958
41474W        W 8015  27.587  25.554  10.961
41475W        W 8016  19.345   6.135  11.604
41476W        W 8017  11.469  22.254   4.166
41477W        W 8018   1.916  30.108   0.692
41478W        W 8019  38.795  12.431  13.012
41479W        W 8020  33.744   5.362   2.440
41480W        W 8021  38.884  19.790   4.457
41481W        W 8022  29.511   9.764  11.215
41482W        W 8023   6.023  19.336  11.143
41483W        W 8024  16.869  18.168   4.902
41484W        W 8025  32.164   8.526  13.120
41485W        W 8026  22.200   1.480   0.419
41486W        W 8027  37.349  37.983  11.620
41487W        W 8028  12.418  22.665  14.418
41488W        W 8029  13.353  18.352   0.005
41489W        W 8030  22.844  44.607   0.519
41490W        W 8031  17.645   1.921   1.040
41491W        W 8032  36.004  26.205   3.787
41492W        W 8033  43.878  32.540  10.610
41493W        W 8034   5.499   5.776  13.547
41494W        W 8035   2.715  14.590   1.850
41495W        W 8036  15.187   6.220   0.230
41496W        W 8037  44.407  15.182   2.031
41497W        W 8038   1.262  37.398   4.128
41498W        W 8039   7.328  11.151   4.378
41499W        W 8040   5.707  17.611   0.475
41500W        W 8041   9.171  40.197   1.842
41501W        W 8042  38.024  38.509   3.651
41502W        W 8043  33.705  11.247   3.628
41503W        W 8044  36.342  38.744  12.859
41504W        W 8045  36.382  21.250  14.368
41505W        W 8046  26.610   3.762   0.255
41506W        W 8047  17.836  15.656  12.809
41507W        W 8048   3.429  34.476   4.291
41508W        W 8049   2.563  18.029   3.948
41509W        W 8050  40.594   5.660   1.262
41510W        W 8051   3.785  44.487   5.031
41511W        W 8052  29.729  38.528   1.237
41512W        W 8053  31.566  14.687  12.404
41513W        W 8054   2.261  39.386   1.763
41514W        W 8055  39.471  26.752   0.408
41515W        W 8056  19.354  29.602   2.742
41516W        W 8057  29.004  37.448   2.495
41517W        W 8058  39.017   8.832  14.556
41518W        W 8059   5.346  33.656   5.007
41519W        W 8060  31.389  25.794  13.521
41520W        W 8061   5.791   1.272   0.815
41521W        W 8062  11.761  24.718   1.880
41522W        W 8063  39.673  12.230   1.924
41523W        W 8064  43.222  42.198   2.456
41524W        W 8065  10.302  40.737   1.816
41525W        W 8066  11.935  41.175   1.198
41526W        W 8067   5.122   4.150  11.123
41527W        W 8068  23.764  16.713  13.463
41528W        W 8069  41.348   8.005   0.714
41529W        W 8070   7.552  24.463   3.544
41530W        W 8071  31.573  35.342  12.448
41531W        W 8072   3.288  22.333   4.238
41532W        W 8073  37.614  36.911   4.165
41533W        W 8074   5.017   7.213   4.132
41534W        W 8075  26.047   5.188   9.960
41535W        W 8076  19.206   4.992  13.397
41536W        W 8077   0.029  26.564  14.871
41537W        W 8078  20.716  25.451   4.770
41538W        W 8079  30.008  39.267   0.797
41539W        W 8080   9.771   3.323   3.770
41540W        W 8081  14.384   0.645   0.763
41541W        W 8082   5.674  29.078   2.621
41542W        W 8083   5.105   4.855  14.416
41543W        W 8084  22.044  28.720   4.733
41544W        W 8085  40.538  18.634  13.683
41545W        W 8086  26.115  13.128   0.673
41546W        W 8087   9.136  14.554  10.471
41547W        W 8088  15.795  22.652   2.022
41548W        W 8089  14.700  29.657  14.157
41549W        W 8090   6.098  41.897  10.210
41550W        W 8091  38.373  24.432  14.269
41551W        W 8092  22.980  37.841   4.710
41552W        W 8093  12.667  44.808  13.033
41553W        W 8094  39.799  12.582   3.146
41554W        W 8095  41.575   0.429   4.283
41555W        W 8096   4.550  10.217   4.248
41556W        W 8097  25.113  36.259  13.035
41557W        W 8098  25.944  39.388  11.236
41558W        W 8099  12.214  14.655   2.597
41559W        W 8100  11.190  22.869   3.054
41560W        W 8101   9.819  15.833   1.765
41561W        W 8102  25.554   8.794  14.080
41562W        W 8103  22.500  25.915   0.394
41563W        W 8104  23.011   7.476   3.677
41564W        W 8105  20.227  25.633   4.787
41565W        W 8106  26.187  15.808  13.890
41566W        W 8107  18.088  40.431   0.558
41567W        W 8108   4.756  36.181  14.982
41568W        W 8109  29.984  33.200   2.980
41569W        W 8110  24.609  39.875  11.612
41570W        W 8111  30.588  10.509  10.198
41571W        W 8112  32.909  15.605  11.290
41572W        W 8113  23.239  37.978   1.938
41573W        W 8114   3.943  21.482  14.992
41574W        W 8115  24.634  41.234  11.200
41575W        W 8116   8.020   7.919  14.455
41576W        W 8117  28.986  26.903   4.120
41577W        W 8118  34.618  37.767   4.660
41578W        W 8119  37.642  22.111  13.837
41579W        W 8120  18.275   6.005   4.590
41580W        W 8121   6.812  35.154   4.649
41581W        W 8122  24.172   8.216   2.745
41582W        W 8123  30.709  34.060   0.725
41583W        W 8124  27.382  31.575   4.189
41584W        W 8125  14.616  41.569   3.224
41585W        W 8126   0.217  44.477  14.974
41586W        W 8127  16.083  39.605   2.908
41587W        W 8128  20.713  16.958   2.209
41588W        W 8129  27.004  34.883   2.813
41589W        W 8130   9.082  41.127  14.947
41590W        W 8131  11.680  43.924  13.421
41591W        W 8132  44.509  44.940  14.279
41592W        W 8133   9.095  18.655  14.299
41593W        W 8134  20.542  43.287  14.243
41594W        W 8135  22.648  33.410  12.700
41595W        W 8136  39.646   2.725  10.952
41596W        W 8137  27.883   4.428  11.698
41597W        W 8138  41.564   1.691  12.124
41598W        W 8139  26.509  18.636  13.873
41599W        W 8140  34.055  28.139  12.644
41600W        W 8141   1.394  27.618  11.888
41601W        W 8142  25.889  13.105  11.154
41602W        W 8143  44.396   8.881   3.220
41603W        W 8144   3.273  41.775   3.436
41604W        W 8145  18.014  12.311  11.507
41605W        W 8146  25.203  37.458  14.705
41606W        W 8147   2.575  41.525   0.056
41607W        W 8148   0.458   2.902  10.142
41608W        W 8149  37.366  32.007  14.055
41609W        W 8150  22.929   2.884   4.147
41610W        W 8151   8.094  39.909  14.296
41611W        W 8152  24.565   2.007   3.430
41612W        W 8153  27.203   2.317   3.267
41613W        W 8154  41.433  12.144   1.912
41614W        W 8155  25.044   6.052   3.666
41615W        W 8156   2.221  19.194   1.726
41616W        W 8157  12.632   9.199  12.411
41617W        W 8158  15.929  33.587   4.572
41618W        W 8159  23.579  19.296  11.174
41619W        W 8160   7.972  41.742   0.084
41620W        W 8161  20.344  25.533   3.341
41621W        W 8162   7.233  40.635  15.000
41622W        W 8163  25.548   3.101  10.146
41623W        W 8164   2.267  22.784   0.714
41624W        W 8165   6.362  25.564   2.877
41625W        W 8166  27.928  18.821   2.168
41626W        W 8167  15.643  10.332  13.732
41627W        W 8168  30.876   3.865   1.988
41628W        W 8169  38.270  13.799   4.082
41629W        W 8170  34.181  12.889  13.518
41630W        W 8171  31.663  23.029  14.516
41631W        W 8172   6.112  40.133   4.494
41632W        W 8173  17.071  38.276   1.975
41633W        W 8174   1.420  26.941   4.540
41634W        W 8175  41.178  36.884  14.033
41635W        W 8176  33.391  12.791   1.313
41636W        W 8177  20.146  31.059  10.917
41637W        W 8178  25.629  39.792  13.554
41638W        W 8179  40.414   5.051  10.577
41639W        W 8180  44.483  35.146   3.741
41640W        W 8181  28.451   8.762   1.775
41641W        W 8182  20.737   8.414   3.609
41642W        W 8183  39.916  30.190  10.628
41643W        W 8184  29.341  23.954  11.102
41644W        W 8185  26.359  17.479  14.357
41645W        W 8186  36.349  25.203  14.964
41646W        W 8187  25.481   5.079  14.795
41647W        W 8188   4.192  32.387   3.344
41648W        W 8189  18.731  38.301  14.516
41649W        W 8190  40.962  42.942   0.408
41650W        W 8191  41.344  12.285   4.664
41651W        W 8192  23.906  28.811  11.493
41652W        W 8193  21.695  19.663  13.020
41653W        W 8194  37.415  40.533  12.369
41654W        W 8195   8.425   6.027  13.356
41655W        W 8196  25.324  31.608  13.647
41656W        W 8197  11.483  36.574   4.132
41657W        W 8198  25.620  34.956   0.470
41658W        W 8199  33.461  32.270  13.526
41659W        W 8200  27.745  38.649  13.945
41660W        W 8201  27.078  15.883   4.529
41661W        W 8202  20.065   6.466  11.129
41662W        W 8203  15.286  24.180   2.833
41663W        W 8204  42.269  18.621   1.642
41664W        W 8205  21.565  33.950  13.001
41665W        W 8206  21.772  41.602  11.139
41666W        W 8207  32.117   5.460   2.790
41667W        W 8208  36.040  40.313   0.272
41668W        W 8209  37.166  42.805   2.060
41669W        W 8210   7.782  40.323   3.576
41670W        W 8211  42.854  39.776   3.766
41671W        W 8212   9.598  17.925  14.501
41672W        W 8213   7.097   2.808  12.797
41673W        W 8214  26.878  17.367  14.268
41674W        W 8215   5.967  20.628  11.358
41675W        W 8216  23.024  38.085  11.595
41676W        W 8217  21.615  23.664   2.322
41677W        W 8218  16.244   5.372  14.607
41678W        W 8219  10.914   2.986  11.145
41679W        W 8220  34.957   9.714  14.915
41680W        W 8221  36.950  40.532   4.695
41681W        W 8222   5.639  17.705  11.476
41682W        W 8223  12.023  27.677  14.343
41683W        W 8224  30.678  37.416   1.370
41684W        W 8225  28.440  10.886  14.444
41685W        W 8226  36.240  34.574  14.927
41686W        W 8227  25.417  32.945   1.291
41687W        W 8228  17.645  43.801   4.563
41688W        W 8229   9.101  41.642  14.979
41689W        W 8230  38.942  13.718  13.472
41690W        W 8231  12.231  34.175   2.290
41691W        W 8232  38.802  21.757   3.676
41692W        W 8233  43.099   8.801   1.788
41693W        W 8234  41.407  23.864  14.852
41694W        W 8235  20.084  29.201   3.492
41695W        W 8236  24.028   5.817   3.651
41696W        W 8237   5.043  12.610   2.081
41697W        W 8238  20.764   0.213   0.821
41698W        W 8239  37.534  26.012   3.807
41699W        W 8240  19.628  30.387  13.943
41700W        W 8241  17.982  23.673  12.890
41701W        W 8242  22.711  37.897  12.948
41702W        W 8243  24.586  43.351  14.072
41703W        W 8244  37.130  20.977  11.437
41704W        W 8245  42.525  20.142  12.568
41705W        W 8246   5.143  29.979  13.529
41706W        W 8247  42.784   6.202  11.101
41707W        W 8248  10.310  29.877   1.507
41708W        W 8249   1.347  14.693   0.170
41709W        W 8250  10.872  33.928  10.997
41710W        W 8251  18.975  13.497   5.428
41711W        W 8252  21.503   1.486   4.561
41712W        W 8253  38.551  18.068  13.586
41713W        W 8254  31.909  43.242  10.784
41714W        W 8255   1.389   4.848   0.441
41715W        W 8256  40.153   8.965   0.944
41716W        W 8257  40.224  18.107   1.270
41717W        W 8258  24.451  44.912   3.740
41718W        W 8259  33.555  40.309  14.740
41719W        W 8260  32.201  19.274   0.907
41720W        W 8261  34.619  38.369   1.179
41721W        W 8262  20.150   8.638  12.021
41722W        W 8263  26.446  33.981  13.751
41723W        W 8264   0.324  31.220  10.711
41724W        W 8265   1.037  40.987  14.171
41725W        W 8266  38.083  22.507  12.039
41726W        W 8267  20.783   2.757   0.021
41727W        W 8268  22.705   5.817  11.196
41728W        W 8269   9.003   7.921   4.664
41729W        W 8270  23.628   0.427   1.803
41730W        W 8271   9.622  13.652   4.627
41731W        W 8272  36.652  23.953  11.595
41732W        W 8273  19.301  40.811   0.339
41733W        W 8274  18.334  19.332   1.915
41734W        W 8275  42.315   8.220   4.317
41735W        W 8276  16.849  11.260   3.766
41736W        W 8277   9.719  38.478  11.999
41737W        W 8278  31.510  43.473  14.427
41738W        W 8279   7.321  44.653  14.305
41739W        W 8280  41.834   1.452   1.719
41740W        W 8281  30.187  36.146  11.532
41741W        W 8282  31.068  25.603  14.764
41742W        W 8283  23.341   9.705  14.266
41743W        W 8284  10.392  14.192  11.939
41744W        W 8285   1.253  26.156  10.809
41745W        W 8286  43.324  16.727  11.174
41746W        W 8287  39.511   6.783  12.485
41747W        W 8288  30.153  11.888   1.816
41748W        W 8289   0.570  18.702   4.003
41749W        W 8290  16.587   6.494   4.190
41750W        W 8291  42.364  44.215  11.972
41751W        W 8292   0.429  34.293   0.761
41752W        W 8293  29.206  41.309   3.100
41753W        W 8294  17.609  16.535   2.727
41754W        W 8295   6.408  21.583   1.800
41755W        W 8296  26.956  40.006  14.301
41756W        W 8297   9.920   8.202  13.829
41757W        W 8298  39.723   5.367   0.166
41758W        W 8299  20.533  23.264  11.658
41759W        W 8300   4.218   0.890   0.865
41760W        W 8301   8.868   9.630   0.429
41761W        W 8302  26.659   7.488  12.479
41762W        W 8303  28.449  15.105  11.134
41763W        W 8304  43.891  35.852   2.175
41764W        W 8305  10.888   1.752   2.553
41765W        W 8306   7.346   5.833  11.667
41766W        W 8307  29.923  33.892  12.902
41767W        W 8308  15.228  42.847   4.948
41768W        W 8309  13.519  10.786  13.463
41769W        W 8310  36.756   9.077   1.552
41770W        W 8311  23.298  38.992   4.054
41771W        W 8312  34.099  24.527   4.159
41772W        W 8313   7.771   3.899  13.938
41773W        W 8314  13.979  22.792  14.476
41774W        W 8315  25.704  34.911  10.670
41775W        W 8316  12.647  25.973   1.698
41776W        W 8317  11.073  28.710  13.877
41777W        W 8318  43.004  36.917   2.700
41778W        W 8319   7.305  42.696   4.963
41779W        W 8320  31.964  33.823   1.366
41780W        W 8321  44.998  42.600   2.800
41781W        W 8322  18.610  21.320  13.976
41782W        W 8323  44.240   9.868  12.471
41783W        W 8324  35.981  38.802   1.793
41784W        W 8325  28.375  36.094   1.237
41785W        W 8326  30.987  24.456  13.897
41786W        W 8327  32.230  17.906  10.849
41787W        W 8328  39.912  23.705   2.903
41788W        W 8329  31.411  20.864   1.712
41789W        W 8330  37.593  42.016   2.476
41790W        W 8331  25.416  10.795   0.891
41791W        W 8332   0.467  27.119   1.357
41792W        W 8333  27.921  32.011   0.292
41793W        W 8334   0.223  23.917  10.930
41794W        W 8335  24.042   1.806   9.869
41795W        W 8336  15.666  32.318  12.513
41796W        W 8337  24.102  28.028  11.465
41797W        W 8338  34.072  30.168  11.627
41798W        W 8339  35.969  32.596  13.446
41799W        W 8340  30.934  22.977   5.179
41800W        W 8341  30.712  33.573   0.483
41801W        W 8342  42.350   2.309   0.719
41802W        W 8343   0.036   6.714  14.304
41803W        W 8344  27.546  41.155   3.797
41804W        W 8345   0.461  23.556   2.922
41805W        W 8346  41.465  31.351   3.838
41806W        W 8347  21.676  37.783  11.504
41807W        W 8348   9.630  32.094  11.537
41808W        W 8349  29.999   8.017  12.403
41809W        W 8350  27.390  44.751   2.819
41810W        W 8351   3.452  12.279   0.815
41811W        W 8352  18.809  26.631   0.943
41812W        W 8353   2.927  31.391  12.015
41813W        W 8354  29.630   4.314  11.930
41814W        W 8355  41.955  27.886  14.753
41815W        W 8356  32.404  44.680   1.325
41816W        W 8357   7.200   2.885   0.182
41817W        W 8358   0.477   6.438   2.804
41818W        W 8359  34.911  18.022  12.058
41819W        W 8360  43.254  31.502  14.874
41820W        W 8361  21.574  33.416   2.220
41821W        W 8362  22.616  22.631   3.245
41822W        W 8363   3.943  32.681  11.628
41823W        W 8364  19.151  21.377   4.109
41824W        W 8365  21.621  44.715  14.433
41825W        W 8366  39.451  14.512   3.600
41826W        W 8367  11.186  41.823   4.569
41827W        W 8368  44.254  41.409  10.174
41828W        W 8369   9.365   8.614  12.170
41829W        W 8370  14.656  18.739  11.989
41830W        W 8371  44.692   3.731   4.070
41831W        W 8372  17.622  44.757   4.971
41832W        W 8373   8.185  10.746  14.717
41833W        W 8374  41.894   2.014   1.740
41834W        W 8375  16.335  34.931  10.606
41835W        W 8376  18.216  28.756  14.922
41836W        W 8377   3.262  41.743  10.856
41837W        W 8378  10.211   6.298  11.424
41838W        W 8379  19.716  20.987   1.852
41839W        W 8380   6.373   8.859   4.851
41840W        W 8381   9.296  14.726  13.521
41841W        W 8382  44.593  21.758   1.682
41842W        W 8383  29.158  27.146  14.885
41843W        W 8384  15.037  37.315   3.313
41844W        W 8385  22.251   2.827  11.919
41845W        W 8386  11.556  33.712   3.179
41846W        W 8387  18.929  26.191  12.096
41847W        W 8388   6.986   6.356  14.550
41848W        W 8389  35.898  16.327   4.052
41849W        W 8390  34.419  21.735   3.432
41850W        W 8391  29.758   8.638   1.744
41851W        W 8392  25.467  44.989   2.841
41852W        W 8393  37.964  16.704   3.890
41853W        W 8394  34.943  20.758  12.246
41854W        W 8395  28.473  35.402  13.919
41855W        W 8396  17.634   9.657  11.376
41856W        W 8397  18.772  21.062  14.946
41857W        W 8398  44.607  16.253  12.061
41858W        W 8399  41.566  14.689  12.149
41859W        W 8400   0.917  12.273  12.470
41860W        W 8401   1.001  20.067  13.972
41861W        W 8402   0.263  43.386  12.131
41862W        W 8403  18.732  39.436   2.983
41863W        W 8404  29.198  39.416  11.574
41864W        W 8405  30.853  14.585  10.803
41865W        W 8406  29.024  44.386   1.232
41866W        W 8407  18.075  16.164  12.626
41867W        W 8408  19.460  20.968   0.518
41868W        W 8409  34.936  10.455   2.661
41869W        W 8410   1.264   4.326  10.582
41870W        W 8411   6.772   0.320   0.981
41871W        W 8412   5.406  43.703   0.481
41872W        W 8413   4.517  29.329   0.881
41873W        W 8414  30.592   8.150  12.152
41874W        W 8415  21.995   5.396  11.738
41875W        W 8416  10.209  16.050  14.355
41876W        W 8417  42.368  41.384   4.623
41877W        W 8418  22.999  28.117   1.704
41878W        W 8419   4.491  34.704  13.019
41879W        W 8420   4.726   4.255   3.413
41880W        W 8421  44.935  15.116   2.035
41881W        W 8422   9.905  24.069  10.734
41882W        W 8423  22.153   8.634   1.629
41883W        W 8424  18.426  15.334  13.037
41884W        W 8425  22.707  41.384   1.421
41885W        W 8426  23.532   1.812  13.117
41886W        W 8427  33.388  44.804  14.969
41887W        W 8428  41.139  36.797   2.744
41888W        W 8429   9.286  43.087  13.486
41889W        W 8430   3.338  24.544  13.887
41890W        W 8431  12.700  40.038  11.716
41891W        W 8432  15.603  26.571   4.263
41892W        W 8433   4.428  41.989  14.795
41893W        W 8434  43.920  15.774   3.664
41894W        W 8435  13.963   4.315  11.269
41895W        W 8436  19.435  21.604  14.242
41896W        W 8437  30.982  30.661  10.637
41897W        W 8438  17.655  31.470  14.763
41898W        W 8439  21.614  17.246   1.688
41899W        W 8440   9.316  20.706  11.234
41900W        W 8441  26.229  27.791   4.769
41901W        W 8442  32.640   6.640   4.834
41902W        W 8443  44.303   8.108   0.766
41903W        W 8444  16.445  13.607  12.586
41904W        W 8445  17.005   5.935   0.265
41905W        W 8446  44.852  16.686   1.645
41906W        W 8447  26.549  10.035  10.517
41907W        W 8448  15.708  16.953   1.438
41908W        W 8449   6.865  13.615   1.311
41909W        W 8450  44.221  18.160  14.960
41910W        W 8451  13.368  32.916  12.644
41911W        W 8452  32.007  39.644   0.929
41912W        W 8453  30.523   1.965  13.552
41913W        W 8454  20.254   5.697   2.221
41914W        W 8455  14.659  31.401   2.249
41915W        W 8456  30.890   7.185   2.296
41916W        W 8457  34.126  42.263  12.740
41917W        W 8458  41.036   5.843   1.500
41918W        W 8459  43.507  33.592  12.232
41919W        W 8460   9.963  26.969  12.853
41920W        W 8461  18.098  43.362   1.477
41921W        W 8462  24.931   4.416   1.859
41922W        W 8463  31.815  30.331   3.185
41923W        W 8464  44.337  32.055  14.113
41924W        W 8465  42.242  41.453   2.044
41925W        W 8466  33.673   8.652   0.876
41926W        W 8467   4.492  23.980  11.639
41927W        W 8468   7.269  14.016   4.654
41928W        W 8469   7.792  44.923  14.273
41929W        W 8470  14.550   0.923   4.228
41930W        W 8471  21.045   2.283  11.585
41931W        W 8472  41.380  26.342   3.703
41932W        W 8473  40.499  41.547   1.638
41933W        W 8474  29.876  41.095  10.666
41934W        W 8475  19.094  38.864   2.494
41935W        W 8476  27.790  42.261   2.156
41936W        W 8477   4.115  43.558   3.792
41937W        W 8478   7.002  20.601   1.350
41938W        W 8479   1.554  14.457   1.190
41939W        W 8480  17.694  16.174  14.510
41940W        W 8481  22.980  41.639   3.711
41941W        W 8482  21.198  31.880   3.375
41942W        W 8483  25.991  13.240  14.664
41943W        W 8484  22.558  30.330  13.370
41944W        W 8485   4.220   3.837   2.669
41945W        W 8486   8.750  34.872  11.335
41946W        W 8487   3.978  34.102  12.450
41947W        W 8488  38.424  23.770  10.700
41948W        W 8489  37.761  34.556   3.657
41949W        W 8490  10.095  27.207  10.724
41950W        W 8491  36.665   4.134   2.316
41951W        W 8492  22.594   3.951  11.654
41952W        W 8493   2.980  20.713   4.149
41953W        W 8494   4.817  12.037  11.929
41954W        W 8495  19.704  39.682   0.385
41955W        W 8496  12.140  25.075   2.604
41956W        W 8497   3.907   8.312  14.074
41957W        W 8498  38.234   1.700   4.735
41958W        W 8499  28.596  29.954   3.338
41959W        W 8500   3.232  43.476  14.509
41960W        W 8501  11.676  37.552  10.256
41961W        W 8502  24.158   3.926   3.355
41962W        W 8503  19.718  41.332   0.089
41963W        W 8504  43.574  19.802  13.326
41964W        W 8505   5.804   5.437   1.466
41965W        W 8506   7.169  42.465   1.997
41966W        W 8507  19.457  43.948  14.010
41967W        W 8508  12.183   6.545   2.350
41968W        W 8509  42.990  30.439  10.533
41969W        W 8510  33.891  17.054  12.052
41970W        W 8511  44.776  38.524  14.727
41971W        W 8512  23.597   8.633  10.769
41972W        W 8513  20.645  17.355  11.087
41973W        W 8514  35.496  13.235  11.706
41974W        W 8515   4.199  31.019  12.919
41975W        W 8516  41.422  36.363  11.922
41976W        W 8517  16.220  42.521  13.446
41977W        W 8518  12.602   9.157  11.585
41978W        W 8519   6.778  27.522   4.261
41979W        W 8520  22.201   1.968   3.077
41980W        W 8521  44.898   6.329  14.622
41981W        W 8522  24.249  18.607   2.920
41982W        W 8523  22.711   6.316  12.008
41983W        W 8524  13.175  29.551  10.456
41984W        W 8525  21.704  37.488   2.774
41985W        W 8526  23.504  33.805   4.336
41986W        W 8527  35.498  29.022  12.171
41987W        W 8528   3.450  10.305  10.588
41988W        W 8529  28.998  17.083  12.237
41989W        W 8530  36.512  38.407  13.731
41990W        W 8531  10.822  18.259   0.632
41991W        W 8532   7.832   9.697   3.208
41992W        W 8533  31.828  18.932  12.620
41993W        W 8534  28.895  10.393  13.898
41994W        W 8535  15.730  41.747   4.266
41995W        W 8536  43.860  44.992  13.925
41996W        W 8537  22.162  30.573  11.447
41997W        W 8538  11.521  42.718   5.176
41998W        W 8539  33.103  17.597  14.540
41999W        W 8540  24.720  20.899   4.143
42000W        W 8541   4.264  11.796  12.683
42001W        W 8542  32.045  19.691  13.389
42002W        W 8543  42.007  36.254   2.308
42003W        W 8544  36.304  31.482   0.400
42004W        W 8545  16.131  39.366   0.333
42005W        W 8546   8.343  16.706   3.944
42006W        W 8547  17.411  20.071   4.504
42007W        W 8548  36.951  37.116   4.757
42008W        W 8549  19.592  24.642  13.536
42009W        W 8550  25.689  32.994   4.304
42010W        W 8551  22.186  14.656  10.673
42011W        W 8552  33.433  22.959   1.906
42012W        W 8553  13.129  10.543   3.697
42013W        W 8554   9.930  15.148  12.396
42014W        W 8555  24.727  28.579   0.358
42015W        W 8556   4.250   9.885   3.346
42016W        W 8557  25.873  12.849  14.341
42017W        W 8558  39.180  25.637  13.287
42018W        W 8559  41.761   0.856   4.589
42019W        W 8560  36.928   3.631   1.208
42020W        W 8561   7.143  35.017   2.764
42021W        W 8562  38.440  33.068  12.995
42022W        W 8563  19.814   4.425   3.754
42023W        W 8564  23.416  32.632  14.392
42024W        W 8565  33.103  27.877   3.433
42025W        W 8566  42.456  24.065  11.185
42026W        W 8567  20.773  30.184   0.175
42027W        W 8568   9.154  19.664  14.280
42028W        W 8569  35.138  20.253  14.407
42029W        W 8570  21.770  29.945   0.433
42030W        W 8571  12.660   3.429   2.801
42031W        W 8572  42.479   2.221  12.755
42032W        W 8573  21.041  11.871   2.739
42033W        W 8574  10.652  11.839  14.788
42034W        W 8575  20.455  42.013   4.030
42035W        W 8576  42.393   6.648  11.861
42036W        W 8577  16.163  21.322  12.436
42037W        W 8578  28.422  11.751   2.235
42038W        W 8579   5.284  38.566   0.273
42039W        W 8580   6.363  19.722   0.860
42040W        W 8581   8.331  39.506  10.441
42041W        W 8582  23.599   2.938   0.738
42042W        W 8583  30.068  13.702  14.263
42043W        W 8584  26.896   0.382   3.307
42044W        W 8585  43.586   3.928  14.194
42045W        W 8586  37.860  16.077   4.636
42046W        W 8587  26.228   1.366   0.909
42047W        W 8588  10.106  34.897   2.885
42048W        W 8589   2.477  39.772  11.301
42049W        W 8590   6.214  27.499  12.511
42050W        W 8591  38.460   9.910  14.468
42051W        W 8592  10.051  31.738   4.103
42052W        W 8593  19.234  13.840  11.096
42053W        W 8594  18.134  27.488   1.750
42054W        W 8595  17.886  34.422  10.868
42055W        W 8596  34.102   3.741  11.556
42056W        W 8597   5.691   7.809  14.700
42057W        W 8598   8.382  32.044  13.406
42058W        W 8599  15.871  12.269   3.228
42059W        W 8600   0.615  24.973  12.234
42060W        W 8601   2.125  14.196  12.124
42061W        W 8602   9.210  14.875   4.272
42062W        W 8603   2.256  14.517  13.770
42063W        W 8604  38.514  12.846   3.612
42064W        W 8605  27.118  40.368   4.654
42065W        W 8606  32.380   4.105   4.467
42066W        W 8607   8.637  36.523   4.669
42067W        W 8608  42.032  33.815   4.463
42068W        W 8609  15.261  36.634  11.131
42069W        W 8610  39.718  43.566   1.562
42070W        W 8611  40.321   0.455  10.456
42071W        W 8612  33.457  17.239  10.877
42072W        W 8613   7.103  31.591  14.399
42073W        W 8614  35.859  44.869   3.218
42074W        W 8615  24.909  20.527   3.163
42075W        W 8616  19.169   1.645  11.675
42076W        W 8617  37.890  17.723  12.532
42077W        W 8618  31.460  19.309  14.482
42078W        W 8619  28.145  11.146  12.437
42079W        W 8620  25.595  35.447   3.955
42080W        W 8621  27.503  35.304   0.356
42081W        W 8622  35.746   2.427   3.251
42082W        W 8623  22.686   2.383   0.600
42083W        W 8624  41.771  36.417  14.325
42084W        W 8625  26.102  31.335  11.503
42085W        W 8626  36.764  33.455   0.556
42086W        W 8627  13.628  43.746   3.907
42087W        W 8628   9.263   2.507   0.716
42088W        W 8629  39.688   5.807   1.741
42089W        W 8630  42.144   8.753   4.287
42090W        W 8631  29.671  42.731  14.795
42091W        W 8632  31.235  27.699  14.342
42092W        W 8633   2.953  44.042   3.376
42093W        W 8634  22.247  28.856  12.411
42094W        W 8635  42.322   5.414   2.140
42095W        W 8636  42.880  24.495   4.198
42096W        W 8637  14.335  34.301   3.243
42097W        W 8638  35.371  40.933  13.719
42098W        W 8639  30.095  12.427   2.727
42099W        W 8640   5.942  23.832  10.805
42100W        W 8641  12.269  40.274   2.831
42101W        W 8642  29.007  15.360  12.195
42102W        W 8643   6.395  42.911   3.158
42103W        W 8644  15.591   0.779   3.158
42104W        W 8645  26.040  38.281  12.048
42105W        W 8646  14.174  13.933  11.152
42106W        W 8647  44.240   5.018  12.512
42107W        W 8648  27.503  30.323   3.634
42108W        W 8649   2.316   1.251   3.543
42109W        W 8650  18.524  12.788  10.270
42110W        W 8651  42.084  26.159  10.609
42111W        W 8652  17.257  10.453   4.210
42112W        W 8653  42.252  10.844  13.291
42113W        W 8654   3.136  17.331  10.632
42114W        W 8655  19.207   8.909   4.236
42115W        W 8656   5.857  20.287   4.843
42116W        W 8657   0.252  20.710   3.858
42117W        W 8658  28.423  40.008   4.284
42118W        W 8659  44.936   8.608   2.325
42119W        W 8660  23.925   0.798   1.248
42120W        W 8661  43.329   2.139   1.155
42121W        W 8662  21.177  19.085  13.545
42122W        W 8663  23.692  24.776   2.318
42123W        W 8664  14.817  43.790   4.092
42124W        W 8665  33.465  43.126   1.138
42125W        W 8666  33.372   6.248  10.291
42126W        W 8667  40.325  14.184   2.721
42127W        W 8668   0.488   3.279  11.580
42128W        W 8669  37.576  25.120  13.827
42129W        W 8670  18.717  35.369   3.598
42130W        W 8671  22.496  31.974   1.687
42131W        W 8672  41.467  28.491   4.569
42132W        W 8673  36.445  38.374  14.949
42133W        W 8674  15.230  41.877  12.849
42134W        W 8675  10.066  12.099  12.075
42135W        W 8676   5.804  33.646  14.956
42136W        W 8677  14.527  10.779   3.700
42137W        W 8678   0.219  23.982  11.438
42138W        W 8679  14.189  11.201  12.029
42139W        W 8680  39.948  13.664  12.844
42140W        W 8681  30.558  44.903   3.605
42141W        W 8682  35.809  41.577  13.532
42142W        W 8683  30.209  27.851  14.941
42143W        W 8684  33.292  25.070  11.700
42144W        W 8685   3.750   6.072   2.739
42145W        W 8686   8.229  38.408   3.764
42146W        W 8687   0.281  28.011  14.881
42147W        W 8688  23.768  34.473   3.728
42148W        W 8689  44.134  28.221   5.105
42149W        W 8690  31.427  10.840   1.331
42150W        W 8691  18.812   1.363  10.438
42151W        W 8692  31.119   5.763   0.839
42152W        W 8693  43.937   2.327  12.935
42153W        W 8694  36.145  32.915  14.986
42154W        W 8695  10.757  40.953   4.312
42155W        W 8696  21.133  13.881  12.612
42156W        W 8697  22.951  44.924  10.516
42157W        W 8698  21.012  24.585  11.462
42158W        W 8699  13.573  44.336  13.004
42159W        W 8700   3.036  31.493   3.830
42160W        W 8701  27.480  34.121   4.297
42161W        W 8702  19.986  11.288  11.531
42162W        W 8703  38.802  10.259  13.799
42163W        W 8704  41.997  22.202   0.816
42164W        W 8705  27.737  32.043  12.016
42165W        W 8706  13.583  38.841   3.743
42166W        W 8707  18.300  20.094   4.630
42167W        W 8708   5.663  36.851   2.799
42168W        W 8709   7.889   6.707   0.822
42169W        W 8710  12.299  19.671   1.420
42170W        W 8711   6.017  39.875   1.254
42171W        W 8712   1.725  35.595   3.699
42172W        W 8713   1.221  24.114  14.012
42173W        W 8714  21.765   9.910  10.744
42174W        W 8715   0.742   4.426  10.459
42175W        W 8716  42.744   4.236   4.561
42176W        W 8717   3.202  43.779  12.219
42177W        W 8718  18.212  39.304   2.856
42178W        W 8719   7.409  15.459  10.906
42179W        W 8720  22.101  29.700   4.278
42180W        W 8721  43.493  22.356   2.339
42181W        W 8722  17.649   8.237  11.499
42182W        W 8723  42.246  25.912   2.442
42183W        W 8724  13.179  40.594   4.037
42184W        W 8725  18.509  40.837   4.380
42185W        W 8726   0.333  23.063  14.762
42186W        W 8727   3.602   3.495  11.559
42187W        W 8728  24.801  36.187  14.740
42188W        W 8729   5.356  37.983  14.478
42189W        W 8730  17.734  36.343   0.040
42190W        W 8731  31.873  40.903   0.772
42191W        W 8732  26.746  17.773   0.877
42192W        W 8733  29.084  16.195   2.431
42193W        W 8734  25.542  12.363  12.591
42194W        W 8735  15.106  30.892  14.958
42195W        W 8736   0.282  29.230  13.115
42196W        W 8737   5.461  14.739   4.147
42197W        W 8738  41.862   0.922   1.747
42198W        W 8739  13.337   6.615   2.801
42199W        W 8740   2.911  22.112   0.309
42200W        W 8741  24.298  14.200  13.031
42201W        W 8742   0.398  28.042  12.450
42202W        W 8743  15.703  18.952   1.325
42203W        W 8744  30.907  36.830  14.957
42204W        W 8745  16.442   6.140  13.983
42205W        W 8746  32.996  12.092  13.409
42206W        W 8747  18.430  10.610   2.288
42207W        W 8748  42.825  21.591   3.786
42208W        W 8749  18.929  17.088   4.174
42209W        W 8750  36.851  21.018  10.975
42210W        W 8751   0.928  28.725  11.993
42211W        W 8752  34.350  12.870   4.313
42212W        W 8753  12.268   7.047   2.386
42213W        W 8754  12.286   1.329  11.482
42214W        W 8755  20.019  20.773   1.346
42215W        W 8756   6.417   0.726   3.710
42216W        W 8757   5.380  31.168   4.040
42217W        W 8758  35.223  14.612  14.781
42218W        W 8759   0.598  22.628  13.846
42219W        W 8760  20.706  23.217  13.486
42220W        W 8761  27.585   9.157   2.836
42221W        W 8762  18.859  32.478   0.513
42222W        W 8763  16.348  43.093  11.560
42223W        W 8764  36.892  15.265  11.800
42224W        W 8765  32.025  31.031   3.382
42225W        W 8766   1.224  35.023  11.914
42226W        W 8767  18.756  36.958   2.840
42227W        W 8768   7.473   7.211   1.588
42228W        W 8769   7.814   7.309   3.336
42229W        W 8770  34.934  17.085  14.714
42230W        W 8771  15.436  22.981   2.827
42231W        W 8772   6.955  40.975  10.764
42232W        W 8773  18.419  14.544  13.385
42233W        W 8774  28.614  11.789  12.054
42234W        W 8775   2.276  23.272  13.016
42235W        W 8776   5.065  38.720   5.142
42236W        W 8777   1.495  28.633   0.977
42237W        W 8778  23.869  35.370   2.674
42238W        W 8779  42.331  23.570  13.110
42239W        W 8780  41.754  12.379  14.994
42240W        W 8781  37.795  31.197  11.992
42241W        W 8782   9.730   8.469   1.305
42242W        W 8783   7.746  43.708   0.004
42243W        W 8784   1.877  33.916  14.443
42244W        W 8785  22.995   3.392   4.582
42245W        W 8786  16.323  32.401  11.612
42246W        W 8787   8.698  24.760  10.686
42247W        W 8788  12.681  34.847  13.901
42248W        W 8789  27.890  39.204   2.866
42249W        W 8790   3.838  21.472   4.066
42250W        W 8791  19.709  19.502  14.803
42251W        W 8792  24.636  25.120   4.587
42252W        W 8793  43.318   4.967  14.339
42253W        W 8794  23.235  20.680   2.724
42254W        W 8795  38.967  43.773  13.035
42255W        W 8796   2.189  30.675   9.535
42256W        W 8797   8.633  35.556  11.565
42257W        W 8798   4.223  23.009   4.635
42258W        W 8799   3.891  10.002   0.289
42259W        W 8800  26.566  10.175   3.088
42260W        W 8801   8.258  43.460  14.808
42261W        W 8802  39.421  36.461   2.212
42262W        W 8803  13.966  13.143   2.886
42263W        W 8804  36.085  44.943   0.330
42264W        W 8805  26.645   8.129   0.324
42265W        W 8806   6.715  37.542   2.465
42266W        W 8807   4.541   5.815   5.105
42267W        W 8808  37.938  34.961  13.775
42268W        W 8809  28.181  17.165  13.051
42269W        W 8810  31.547  22.419   0.339
42270W        W 8811  40.631   1.406  13.869
42271W        W 8812  30.439  20.273   2.841
42272W        W 8813   7.385  40.062  12.102
42273W        W 8814  37.593  17.621   1.400
42274W        W 8815  42.989  28.427  14.834
42275W        W 8816  31.089  43.732   4.822
42276W        W 8817  21.453  14.623  14.867
42277W        W 8818  37.497  44.453  12.065
42278W        W 8819  38.346   8.759  11.726
42279W        W 8820   4.950   2.822   0.340
42280W        W 8821  33.045  44.248   1.978
42281W        W 8822  10.238   5.727   3.557
42282W        W 8823   1.694  21.640  13.410
42283W        W 8824   7.674  32.172  10.627
42284W        W 8825  33.490   9.126   0.354
42285W        W 8826  29.194  40.758  11.142
42286W        W 8827   8.662   0.145   3.768
42287W        W 8828  26.852   4.153   3.345
42288W        W 8829   3.525  32.631   0.023
42289W        W 8830   6.890  22.604  14.288
42290W        W 8831  14.287  31.204  12.628
42291W        W 8832  41.862  40.384  11.120
42292W        W 8833  39.613  16.703  10.429
42293W        W 8834  40.507  17.541   4.192
42294W        W 8835  44.862  26.746   3.748
42295W        W 8836   7.432  33.710  13.736
42296W        W 8837  34.935  21.007   4.485
42297W        W 8838  24.828  29.892  13.916
42298W        W 8839  10.592  29.935   2.801
42299W        W 8840  37.945   8.956  10.555
42300W        W 8841  33.037  22.404  12.778
42301W        W 8842  35.816  42.318   1.213
42302W        W 8843  23.488  22.596  14.482
42303W        W 8844  28.810   8.820  10.666
42304W        W 8845  11.726   8.696  13.468
42305W        W 8846  14.739   2.243  11.467
42306W        W 8847  24.380  23.653  12.466
42307W        W 8848  34.933  16.337   3.597
42308W        W 8849  44.510  31.697  12.083
42309W        W 8850  15.114   6.157   3.272
42310W        W 8851  17.622  36.746  11.438
42311W        W 8852  31.009  24.529  14.852
42312W        W 8853  19.331  42.470  13.845
42313W        W 8854  41.321  42.456   2.148
42314W        W 8855  13.923   7.909   1.459
42315W        W 8856  31.618  28.796  11.515
42316W        W 8857   0.251  28.245  14.399
42317W        W 8858   9.393  12.140  13.425
42318W        W 8859   3.501  10.620  13.416
42319W        W 8860   7.693  41.491  11.572
42320W        W 8861  18.736  22.510   0.826
42321W        W 8862  35.815   0.731  11.051
42322W        W 8863  32.037   1.695   1.794
42323W        W 8864  38.841  34.103   1.906
42324W        W 8865   6.804  19.812  11.951
42325W        W 8866  38.345  28.054   4.608
42326W        W 8867  27.335  14.142  14.689
42327W        W 8868   2.460  28.750  14.355
42328W        W 8869  17.153   9.362  11.643
42329W        W 8870  33.473  22.220   2.281
42330W        W 8871  40.208   1.856   0.919
42331W        W 8872  37.354  35.597  11.074
42332W        W 8873   9.753  28.922  14.748
42333W        W 8874  33.525  25.176  14.332
42334W        W 8875  43.014  34.416   1.751
42335W        W 8876  14.235  17.380   2.275
42336W        W 8877  18.268  36.064   2.260
42337W        W 8878  26.488   3.965  12.462
42338W        W 8879  14.229   6.011   4.832
42339W        W 8880  33.629  21.443   0.992
42340W        W 8881  15.964   7.954  14.946
42341W        W 8882  22.516  28.940  10.753
42342W        W 8883  37.321   8.838   0.453
42343W        W 8884   0.841  28.663   4.302
42344W        W 8885  32.165  29.265  11.967
42345W        W 8886   4.166  34.186   3.872
42346W        W 8887   8.209  11.620  13.860
42347W        W 8888  31.423  41.564   4.180
42348W        W 8889  31.116  39.945  14.992
42349W        W 8890   7.281  17.987   4.851
42350W        W 8891   5.591  26.491  13.632
42351W        W 8892  20.593   0.414  14.320
42352W        W 8893  11.204  41.856  11.218
42353W        W 8894  22.309   4.355  11.935
42354W        W 8895   4.209  35.515   1.632
42355W        W 8896  17.641   2.189   2.746
42356W        W 8897  14.603  15.110   2.811
42357W        W 8898  16.834  23.762   3.115
42358W        W 8899  18.764  13.219   0.705
42359W        W 8900  34.893  40.822  13.992
42360W        W 8901  17.679  38.415   0.653
42361W        W 8902  40.483  30.898  10.748
42362W        W 8903  19.399  11.759   4.211
42363W        W 8904   0.344  26.135  14.852
42364W        W 8905  28.663  27.453   2.732
42365W        W 8906   5.656  30.833   4.725
42366W        W 8907   4.057  22.795  11.032
42367W        W 8908  21.665  33.337   2.879
42368W        W 8909  38.564  28.189   2.807
42369W        W 8910  14.595  44.258  12.105
42370W        W 8911  22.595  25.734  14.502
42371W        W 8912  19.330  14.333   4.892
42372W        W 8913   6.635  33.050   1.258
42373W        W 8914  13.778  27.905   1.081
42374W        W 8915  13.769  20.548  11.645
42375W        W 8916   5.173  39.580   2.236
42376W        W 8917  43.348  21.973   3.197
42377W        W 8918  17.087  43.911  11.288
42378W        W 8919   7.789  38.824   0.936
42379W        W 8920   1.346  40.378  11.554
42380W        W 8921   7.632  32.514  13.435
42381W        W 8922  17.596   5.755  13.878
42382W        W 8923  27.216  32.963   2.333
42383W        W 8924  26.153  22.070   1.812
42384W        W 8925   8.054  12.100  14.161
42385W        W 8926  40.137  21.701   2.746
42386W        W 8927  24.563  40.016  12.117
42387W        W 8928  12.728  40.122  12.204
42388W        W 8929  18.315  13.741  11.975
42389W        W 8930  15.507  41.429   1.156
42390W        W 8931  43.435  31.194  12.428
42391W        W 8932  44.931  10.473   3.726
42392W        W 8933   5.160  11.583  14.094
42393W        W 8934  20.760  34.585  13.512
42394W        W 8935   8.735   5.970   2.754
42395W        W 8936  13.206  44.075   4.036
42396W        W 8937  34.410  22.628  12.080
42397W        W 8938  43.015  25.760  10.673
42398W        W 8939  25.725   2.918  12.424
42399W        W 8940   0.797   0.441  12.575
42400W        W 8941  12.222  19.646   4.331
42401W        W 8942  11.079  37.365   2.316
42402W        W 8943  11.759  10.419   2.842
42403W        W 8944  26.869   1.831  14.437
42404W        W 8945  37.032  42.447  13.737
42405W        W 8946   6.800  17.139   4.046
42406W        W 8947   4.362  14.883   2.473
42407W        W 8948  41.567  32.903   4.523
42408W        W 8949  22.150  26.027   3.252
42409W        W 8950  26.621  39.440  10.658
42410W        W 8951   3.277  41.779   1.403
42411W        W 8952  15.292  41.959  13.925
42412W        W 8953  16.460  12.646  10.127
42413W        W 8954  25.227  28.255  11.133
42414W        W 8955  23.051  36.379   0.892
42415W        W 8956  22.817  19.654   2.270
42416W        W 8957   0.279  13.131   1.476
42417W        W 8958  28.142   9.066   3.223
42418W        W 8959  38.483   6.761   2.089
42419W        W 8960   9.038  33.940   3.151
42420W        W 8961  20.144  14.470  11.482
42421W        W 8962  35.860  14.428  12.742
42422W        W 8963  26.557   9.704  12.044
42423W        W 8964  18.230  26.204  12.087
42424W        W 8965   0.941   3.185  10.945
42425W        W 8966  40.667  12.354   3.058
42426W        W 8967  21.699   9.047  12.519
42427W        W 8968  30.305  28.635   2.734
42428W        W 8969  26.128  32.389  14.438
42429W        W 8970  33.993  18.646   2.808
42430W        W 8971  23.194  27.663   0.782
42431W        W 8972  15.842  10.884   2.748
42432W        W 8973  26.942   8.738  12.011
42433W        W 8974   7.102  37.323  12.096
42434W        W 8975   4.843   3.483  11.727
42435W        W 8976  12.108  39.859   0.522
42436W        W 8977   0.162  23.190   3.146
42437W        W 8978  32.307  15.136  12.188
42438W        W 8979  28.048  37.350   4.094
42439W        W 8980  33.862  41.677   0.056
42440W        W 8981   9.225  34.100   3.612
42441W        W 8982  16.451  13.166   3.979
42442W        W 8983  21.285  38.126   0.881
42443W        W 8984  41.516   1.246  12.415
42444W        W 8985  28.594  26.464  13.745
42445W        W 8986   2.600  33.643  14.778
42446W        W 8987  29.652   8.981   2.230
42447W        W 8988   2.834  22.215  13.172
42448W        W 8989  21.456  27.411   2.355
42449W        W 8990  15.042  36.792   3.280
42450W        W 8991  30.491   9.733   4.520
42451W        W 8992  21.246   2.773  12.100
42452W        W 8993  29.437  44.205  14.903
42453W        W 8994  29.601  21.442   0.841
42454W        W 8995   4.869  29.692  13.147
42455W        W 8996  31.386   6.922  14.873
42456W        W 8997   6.248  21.428  13.759
42457W        W 8998   4.346  23.747  13.863
42458W        W 8999  34.097  17.555  14.454
42459W        W 9000  13.737  21.965  12.873
42460W        W 9001  31.445  11.459  14.012
42461W        W 9002  22.982  42.858   0.102
42462W        W 9003  25.268  16.932   1.392
42463W        W 9004  42.323   5.705  13.512
42464W        W 9005  34.994  30.487   0.801
42465W        W 9006  23.515  41.193  11.945
42466W        W 9007  32.829  35.788   0.267
42467W        W 9008  27.872  21.518   0.640
42468W        W 9009  17.052  44.272   1.243
42469W        W 9010  36.547  14.096   1.617
42470W        W 9011  22.362  42.479   3.591
42471W        W 9012  34.271  41.979   3.344
42472W        W 9013  29.641  11.794   1.797
42473W        W 9014  29.131   6.323   3.500
42474W        W 9015  27.633  32.108  14.382
42475W        W 9016  26.755  19.422  14.648
42476W        W 9017  40.990   2.264   0.764
42477W        W 9018   4.560  32.485  10.998
42478W        W 9019  29.189  14.024  13.460
42479W        W 9020  21.735  21.737  11.118
42480W        W 9021  11.448   0.940  11.058
42481W        W 9022  44.969  41.447  12.432
42482W        W 9023   5.316  16.946   4.583
42483W        W 9024  39.861  12.705  14.448
42484W        W 9025  24.958   0.993  13.908
42485W        W 9026  35.450  43.501  13.455
42486W        W 9027  16.609  32.677   0.497
42487W        W 9028  39.854  33.334   1.869
42488W        W 9029  12.086  12.968   4.401
42489W        W 9030  24.616  34.438  14.263
42490W        W 9031  44.360  28.844   2.652
42491W        W 9032  37.858   2.143  14.967
42492W        W 9033   3.428   0.948  12.894
42493W        W 9034  28.152  23.931  14.915
42494W        W 9035  18.977  32.544   1.036
42495W        W 9036  10.715  25.052  12.180
42496W        W 9037   2.827  25.531   0.699
42497W        W 9038  26.394  33.643   3.139
42498W        W 9039  34.346  41.781  12.648
42499W        W 9040  28.991  30.144   4.580
42500W        W 9041   1.275   7.220  14.070
42501W        W 9042  29.501  24.236   4.183
42502W        W 9043  35.481  27.928   2.276
42503W        W 9044  10.033  30.428  13.282
42504W        W 9045   0.663  41.113  13.772
42505W        W 9046  15.217   4.437   4.080
42506W        W 9047   4.797  44.261   1.250
42507W        W 9048  43.590  27.071   4.481
42508W        W 9049  35.261  12.412  11.112
42509W        W 9050  30.926  43.348   2.006
42510W        W 9051   4.861  32.574   2.707
42511W        W 9052  20.547  33.955   0.253
42512W        W 9053  24.662  35.415  14.018
42513W        W 9054  30.658  24.668   3.842
42514W        W 9055   7.213  12.311  12.650
42515W        W 9056  27.132   5.386   0.212
42516W        W 9057   1.833  44.124   2.359
42517W        W 9058  40.300  28.153   2.325
42518W        W 9059   2.521  38.881   0.950
42519W        W 9060  28.873  21.407   0.394
42520W        W 9061   1.997   1.758  11.633
42521W        W 9062  15.534  23.982  11.141
42522W        W 9063  10.339  10.358  14.036
42523W        W 9064  17.158  31.260  11.992
42524W        W 9065   6.467  36.137  12.874
42525W        W 9066  18.725  12.815  12.089
42526W        W 9067  23.041  32.463   4.721
42527W        W 9068  18.652   1.670  12.520
42528W        W 9069  20.965   0.592  13.099
42529W        W 9070  32.563   3.058   2.883
42530W        W 9071  29.695  11.081  14.400
42531W        W 9072   0.836  39.452  12.371
42532W        W 9073   3.792  20.641   4.682
42533W        W 9074  38.049  21.589   0.428
42534W        W 9075  34.598   6.711   2.171
42535W        W 9076   5.051  38.940   4.677
42536W        W 9077  22.064  32.903   3.096
42537W        W 9078  39.392  37.280   2.189
42538W        W 9079   6.535  31.984   0.919
42539W        W 9080  12.087   5.966  11.126
42540W        W 9081  23.056  27.159  10.750
42541W        W 9082  29.969  11.638   0.714
42542W        W 9083  22.966  37.897  10.598
42543W        W 9084  29.424  29.466  10.820
42544W        W 9085  43.714   5.192   1.944
42545W        W 9086  37.401  43.938  10.645
42546W        W 9087  44.462  12.842  10.862
42547W        W 9088  38.867   9.336  13.520
42548W        W 9089  32.615  25.481  14.959
42549W        W 9090  17.201  25.404   1.788
42550W        W 9091   3.658  22.600  12.854
42551W        W 9092  19.620  20.049   2.211
42552W        W 9093  31.469  24.997   1.373
42553W        W 9094  28.957  35.493   4.886
42554W        W 9095  18.684  40.463  14.389
42555W        W 9096  30.125   0.505   0.853
42556W        W 9097  44.178  37.320   2.259
42557W        W 9098  15.052   5.006   0.708
42558W        W 9099  17.213   9.693  12.066
42559W        W 9100  35.319  25.099   0.001
42560W        W 9101  17.816  26.526   3.511
42561W        W 9102  29.684  36.021   3.286
42562W        W 9103  23.611  10.613   1.886
42563W        W 9104   4.524  41.610   0.619
42564W        W 9105   0.879  28.331  12.332
42565W        W 9106  34.614  44.883   3.694
42566W        W 9107  40.861  16.815  11.874
42567W        W 9108  11.613  43.893   0.384
42568W        W 9109  13.600  34.823  11.189
42569W        W 9110  41.527  44.390   0.773
42570W        W 9111  14.306  28.478  13.851
42571W        W 9112  44.343  30.501  11.182
42572W        W 9113  39.519   4.395   1.022
42573W        W 9114  32.459  23.078   1.728
42574W        W 9115  17.223  17.078   0.326
42575W        W 9116  14.532  36.103  11.883
42576W        W 9117  23.568  30.872   0.791
42577W        W 9118  13.733  16.309   2.749
42578W        W 9119  16.856  29.140  14.396
42579W        W 9120  27.186  39.730  13.222
42580W        W 9121  19.792   2.371  13.435
42581W        W 9122  16.787  15.870   2.371
42582W        W 9123  10.112   9.935  11.307
42583W        W 9124   2.011   0.886  13.912
42584W        W 9125   4.728  11.159  11.517
42585W        W 9126  19.495  30.017  11.285
42586W        W 9127   1.686  21.108  14.285
42587W        W 9128  42.860  19.223   1.579
42588W        W 9129  35.354  26.675   3.718
42589W        W 9130  25.069  25.371  12.243
42590W        W 9131  13.121  40.798  11.256
42591W        W 9132   3.297  27.025  12.050
42592W        W 9133  33.794   4.638  13.466
42593W        W 9134   4.428  18.680  12.908
42594W        W 9135  33.802   0.394  10.817
42595W        W 9136   5.750  23.775   3.633
42596W        W 9137   4.787  41.640  13.931
42597W        W 9138  43.268  32.338   0.829
42598W        W 9139  25.537   4.377   4.016
42599W        W 9140  41.079  21.616   2.543
42600W        W 9141   3.376  44.245  12.093
42601W        W 9142  18.749   3.926   3.208
42602W        W 9143   5.458  42.941  11.598
42603W        W 9144  35.001  39.346  14.891
42604W        W 9145  24.907  34.022  14.500
42605W        W 9146   3.997  41.294  11.245
42606W        W 9147  14.703  25.241   0.832
42607W        W 9148   6.216  33.120  11.086
42608W        W 9149   7.482  16.306  13.117
42609W        W 9150   5.692   2.351   2.941
42610W        W 9151  36.564  28.575  14.964
42611W        W 9152   9.919  27.986  11.108
42612W        W 9153  23.533  26.051  11.451
42613W        W 9154  23.665  33.625   3.875
42614W        W 9155  43.570  23.107  10.657
42615W        W 9156  35.847  12.461   1.203
42616W        W 9157   2.017  25.417  12.899
42617W        W 9158  22.937  27.595  11.494
42618W        W 9159  30.786  24.743  12.742
42619W        W 9160   4.820  17.074   4.895
42620W        W 9161   0.248  25.556  12.074
42621W        W 9162  19.023  21.237  11.792
42622W        W 9163   9.230   5.937  13.501
42623W        W 9164  19.256  41.268   2.727
42624W        W 9165  23.201  22.198  11.641
42625W        W 9166   1.700  26.488   4.597
42626W        W 9167  25.971  15.617   0.826
42627W        W 9168  30.541  24.246  11.306
42628W        W 9169  23.511  39.509  14.299
42629W        W 9170  20.038  27.096   2.422
42630W        W 9171  19.034  24.482  11.193
42631W        W 9172  17.333  26.385  14.188
42632W        W 9173   8.761  22.577   4.543
42633W        W 9174  31.586  10.759  13.284
42634W        W 9175  30.980   1.875   1.979
42635W        W 9176  17.195   9.604   0.856
42636W        W 9177  31.903  18.818   0.827
42637W        W 9178  28.956  44.403  11.134
42638W        W 9179  31.346  20.616   0.422
42639W        W 9180  40.015  11.811  11.550
42640W        W 9181  35.071  18.466   0.863
42641W        W 9182  44.230  38.622   0.454
42642W        W 9183  27.964  11.390  13.752
42643W        W 9184  10.244   5.235   3.369
42644W        W 9185  18.052   4.433   4.569
42645W        W 9186  36.004  32.537   0.769
42646W        W 9187  31.984  23.283   1.697
42647W        W 9188  11.565  44.389   4.456
42648W        W 9189  24.696  41.801  12.158
42649W        W 9190  16.501  18.915   1.697
42650W        W 9191  12.612   9.570  12.809
42651W        W 9192  16.131  13.241   3.097
42652W        W 9193  37.830  19.574  13.279
42653W        W 9194  18.746  38.658  11.386
42654W        W 9195  24.592  12.919   0.462
42655W        W 9196  19.767  33.930  12.518
42656W        W 9197   2.506  43.930   3.631
42657W        W 9198  32.368  29.933   0.523
42658W        W 9199  42.471  20.520   1.274
42659W        W 9200  24.897  21.129   4.610
42660W        W 9201  41.491  26.546   2.332
42661W        W 9202  43.537   7.220  10.574
42662W        W 9203  36.652  17.417   3.320
42663W        W 9204  22.532  19.477   2.679
42664W        W 9205   6.847  11.255  14.910
42665W        W 9206  34.577  44.198  14.129
42666W        W 9207  15.245  11.617   2.862
42667W        W 9208  17.952  39.862   1.477
42668W        W 9209  31.708  22.832  12.364
42669W        W 9210  38.051  12.291   3.463
42670W        W 9211  27.882  27.945   0.083
42671W        W 9212  35.563  44.946   0.261
42672W        W 9213  31.390  15.054  13.334
42673W        W 9214  30.656  35.914   4.365
42674W        W 9215  41.102  37.972   1.767
42675W        W 9216  27.133  26.487   1.319
42676W        W 9217   4.725  10.839   0.923
42677W        W 9218  28.864  40.329   1.344
42678W        W 9219  37.017  14.069   0.856
42679W        W 9220  26.020  12.396   3.216
42680W        W 9221  11.293   3.487   4.673
42681W        W 9222   3.302  39.288   1.061
42682W        W 9223  42.632  22.164  11.631
42683W        W 9224   7.850  10.943   2.231
42684W        W 9225  15.361  41.582   3.905
42685W        W 9226  14.385  41.865   5.017
42686W        W 9227   4.125  16.317   4.322
42687W        W 9228  34.555  20.721  13.551
42688W        W 9229  37.426   5.997   2.285
42689W        W 9230   7.259  25.771   3.655
42690W        W 9231   8.983  36.726  11.524
42691W        W 9232  10.974  41.678  10.352
42692W        W 9233   0.439  11.595  14.370
42693W        W 9234   5.646  15.355   3.201
42694W        W 9235  37.398  10.794  11.728
42695W        W 9236  37.963  38.800  13.848
42696W        W 9237  21.558  30.111   2.342
42697W        W 9238  30.966  42.754  12.423
42698W        W 9239   5.715  35.501  14.416
42699W        W 9240  17.606  25.015   3.802
42700W        W 9241  41.053  22.036   1.610
42701W        W 9242  38.195   2.655   3.696
42702W        W 9243   1.355  37.408   1.159
42703W        W 9244   9.968   2.920   3.539
42704W        W 9245  26.965  30.522  12.686
42705W        W 9246  15.027  22.110   4.337
42706W        W 9247  17.163   8.708  12.068
42707W        W 9248  31.934   2.954   1.499
42708W        W 9249  39.887  18.173  12.002
42709W        W 9250   5.636  42.703   0.787
42710W        W 9251  28.217  29.130   2.338
42711W        W 9252   1.921   4.354   0.683
42712W        W 9253  44.409   0.904  11.711
42713W        W 9254  26.254  33.415  11.563
42714W        W 9255  22.639  29.416   2.791
42715W        W 9256  15.204  20.807  11.517
42716W        W 9257   8.684  34.009  11.918
42717W        W 9258  41.025  34.655  12.073
42718W        W 9259  42.514  18.059   3.879
42719W        W 9260  33.363  27.468  11.376
42720W        W 9261  35.125  18.132  14.780
42721W        W 9262   0.933  23.760   2.786
42722W        W 9263  28.265  32.460   0.637
42723W        W 9264   0.127  29.026   1.432
42724W        W 9265  12.336  20.814  11.479
42725W        W 9266  30.483  35.524   3.259
42726W        W 9267   6.076  32.548  11.127
42727W        W 9268  33.062  26.948   0.373
42728W        W 9269  20.995  10.643   2.889
42729W        W 9270  13.201  26.039  12.392
42730W        W 9271  33.312  37.017   4.353
42731W        W 9272  40.874  15.330   1.462
42732W        W 9273   8.217  41.696  13.286
42733W        W 9274  12.525  28.798  11.410
42734W        W 9275  27.583   7.028   4.904
42735W        W 9276  38.371  13.786   2.723
42736W        W 9277   5.820  29.197  10.982
42737W        W 9278  29.382  24.605   2.678
42738W        W 9279   0.721   6.199   3.178
42739W        W 9280  21.070   1.764  12.170
42740W        W 9281  25.358  25.444   2.102
42741W        W 9282  40.517   2.928  10.728
42742W        W 9283  22.969  24.787   2.882
42743W        W 9284  35.998  38.049   0.655
42744W        W 9285  44.855   4.889   2.230
42745W        W 9286  11.060  26.325  10.940
42746W        W 9287  23.659  24.240  12.550
42747W        W 9288  24.412  25.614   0.447
42748W        W 9289   7.391   3.234  10.041
42749W        W 9290  28.513  28.850   4.896
42750W        W 9291   3.555  21.502  12.103
42751W        W 9292  41.286   7.238  12.513
42752W        W 9293  15.221   8.298  10.953
42753W        W 9294   6.985  31.121   0.313
42754W        W 9295  25.062  17.315   3.555
42755W        W 9296  30.373   4.780  13.877
42756W        W 9297   2.206  25.957  11.018
42757W        W 9298  29.512  28.585   1.371
42758W        W 9299  35.534  36.859   4.636
42759W        W 9300  18.735  40.108   3.720
42760W        W 9301  29.143   6.428  12.043
42761W        W 9302  16.157  43.307   1.524
42762W        W 9303  21.991  37.281   3.797
42763W        W 9304  16.792  35.908  10.711
42764W        W 9305  24.648  37.979   4.192
42765W        W 9306  14.747  39.022  13.084
42766W        W 9307  20.098   7.714   4.627
42767W        W 9308   6.680   5.144   2.400
42768W        W 9309  19.102  12.737   2.216
42769W        W 9310  40.686  10.697  10.216
42770W        W 9311  32.379  15.562  10.703
42771W        W 9312  23.635  26.673   5.030
42772W        W 9313   3.245  10.718   3.249
42773W        W 9314  40.817  28.911  11.848
42774W        W 9315  29.253  33.600   3.664
42775W        W 9316   4.882  37.867   2.174
42776W        W 9317   4.250  13.710  14.691
42777W        W 9318  11.691  36.383  13.779
42778W        W 9319   5.098  19.214   4.638
42779W        W 9320   6.156  42.455   4.164
42780W        W 9321  17.595   3.235   1.898
42781W        W 9322  10.740  38.874  13.737
42782W        W 9323  12.368   1.259   1.800
42783W        W 9324  18.089  26.509   0.327
42784W        W 9325  44.326  31.647   2.344
42785W        W 9326  43.088  39.606  14.364
42786W        W 9327  12.630  43.971  10.652
42787W        W 9328  15.031   5.388   4.548
42788W        W 9329  23.866  44.686  11.043
42789W        W 9330  15.896  36.927   3.790
42790W        W 9331  37.978  13.362   4.167
42791W        W 9332  41.494  31.944  14.868
42792W        W 9333  33.487  26.164  13.717
42793W        W 9334  44.403  18.199   3.185
42794W        W 9335  42.083   8.773   2.402
42795W        W 9336   0.453   9.364   3.201
42796W        W 9337   0.206   2.301   1.639
42797W        W 9338  33.699  39.016   2.881
42798W        W 9339   4.724  32.522   2.193
42799W        W 9340  18.997   1.338   4.893
42800W        W 9341  12.660  30.426  12.966
42801W        W 9342   8.507  23.709   4.610
42802W        W 9343  14.603  34.990  14.225
42803W        W 9344  42.070  14.879   1.324
42804W        W 9345  25.757  41.295  14.638
42805W        W 9346  43.010  31.909   2.579
42806W        W 9347  36.618  18.288   3.805
42807W        W 9348  34.041   1.993   2.903
42808W        W 9349  35.460  27.716  12.815
42809W        W 9350  12.071  19.800   0.982
42810W        W 9351  23.981  28.307  13.305
42811W        W 9352  38.524  38.986  11.501
42812W        W 9353   4.737   0.748  12.001
42813W        W 9354  34.567  39.034   3.933
42814W        W 9355  32.664  14.204  12.001
42815W        W 9356  32.920  11.680  10.689
42816W        W 9357  36.159  34.045  13.843
42817W        W 9358  29.974   4.999  12.870
42818W        W 9359   9.474  10.051   0.878
42819W        W 9360   5.049  12.109   1.247
42820W        W 9361  39.377   3.279   0.791
42821W        W 9362  36.477   8.434  11.441
42822W        W 9363  21.009  31.276   4.189
42823W        W 9364  36.684  10.112  14.275
42824W        W 9365  27.332  41.550   4.916
42825W        W 9366  28.163  17.839   0.926
42826W        W 9367  29.879   1.054  11.765
42827W        W 9368  35.919  12.447   4.276
42828W        W 9369  43.461  13.435   4.526
42829W        W 9370  35.892  16.166   3.570
42830W        W 9371  16.085  16.925   9.968
42831W        W 9372  19.039   3.940   2.695
42832W        W 9373  21.020  43.259   4.774
42833W        W 9374  42.900  13.757  10.683
42834W        W 9375  34.473  27.009   1.014
42835W        W 9376   4.858   5.212  13.989
42836W        W 9377  21.250   3.898   3.763
42837W        W 9378  26.209  12.324   4.613
42838W        W 9379  43.910   9.027  13.584
42839W        W 9380  28.962  10.770   4.635
42840W        W 9381   1.903  34.273  10.307
42841W        W 9382  35.875  29.869   0.768
42842W        W 9383  10.702  11.412   4.149
42843W        W 9384   0.553  22.245   3.638
42844W        W 9385  43.005  28.503   2.681
42845W        W 9386   2.546  19.703   3.724
42846W        W 9387  23.520   9.307  10.196
42847W        W 9388  15.293  44.843  12.106
42848W        W 9389  34.110   2.935   1.382
42849W        W 9390   6.605  12.924   4.240
42850W        W 9391  19.252  22.188   4.490
42851W        W 9392   2.086  25.208   4.403
42852W        W 9393  28.185   1.044  11.415
42853W        W 9394  15.690   6.636   5.251
42854W        W 9395  29.663   2.185   1.413
42855W        W 9396  31.884  11.225   0.758
42856W        W 9397  41.005   5.992   4.192
42857W        W 9398  11.277  28.925   2.256
42858W        W 9399  42.014   1.186   0.369
42859W        W 9400  34.302  33.608   1.288
42860W        W 9401   7.979   5.714   2.350
42861W        W 9402  39.890  28.601  10.642
42862W        W 9403   9.086  35.611  13.411
42863W        W 9404  13.608  35.390  12.352
42864W        W 9405  29.994  34.329  14.690
42865W        W 9406  38.925  33.663   2.619
42866W        W 9407   7.395  23.938  11.538
42867W        W 9408   9.276  35.520  12.945
42868W        W 9409  20.991  36.033   2.235
42869W        W 9410  38.630  21.581  14.340
42870W        W 9411   0.235  19.742  13.766
42871W        W 9412  17.159  10.437  10.961
42872W        W 9413   2.793  20.836  13.099
42873W        W 9414  38.586   3.138  11.522
42874W        W 9415  11.393  30.683  13.963
42875W        W 9416  43.377  41.258  12.405
42876W        W 9417  33.957  36.937   3.743
42877W        W 9418  40.956  41.363   4.893
42878W        W 9419  18.803  25.038   4.006
42879W        W 9420  37.651  37.156  13.802
42880W        W 9421  17.226  38.983   4.107
42881W        W 9422  19.181  18.218   1.892
42882W        W 9423  40.125   9.223  14.021
42883W        W 9424  41.290  20.841   2.341
42884W        W 9425  35.904  16.229   2.758
42885W        W 9426  20.792   9.636   0.390
42886W        W 9427   1.728  26.454   3.624
42887W        W 9428  35.983  43.610   1.847
42888W        W 9429  40.589   3.449   4.630
42889W        W 9430  33.802  21.077  12.632
42890W        W 9431  28.739  31.980   4.429
42891W        W 9432  11.231  38.016   0.832
42892W        W 9433  22.020  43.538   4.471
42893W        W 9434   3.255  39.398  10.559
42894W        W 9435   1.906  14.803   1.381
42895W        W 9436   1.862   4.944  13.006
42896W        W 9437  33.028  12.462   0.934
42897W        W 9438  15.670   8.689  14.959
42898W        W 9439  35.135  35.038   4.479
42899W        W 9440   0.453  44.413  10.705
42900W        W 9441  36.024  13.288  11.098
42901W        W 9442   7.341  41.689   1.771
42902W        W 9443  32.536  30.166   3.099
42903W        W 9444  37.284  30.165   2.805
42904W        W 9445  12.798   1.884   1.908
42905W        W 9446  22.912  32.597   3.760
42906W        W 9447   6.281  13.216   4.528
42907W        W 9448  43.030  21.169   4.752
42908W        W 9449   1.795  19.091  13.166
42909W        W 9450  34.553  13.207  13.305
42910W        W 9451  32.970  19.124  14.358
42911W        W 9452  22.034  34.756  13.220
42912W        W 9453   0.886  13.017   0.273
42913W        W 9454  43.477  18.998   0.517
42914W        W 9455  17.826   4.022  12.708
42915W        W 9456  38.012  24.902   1.684
42916W        W 9457  40.993  27.614   4.277
42917W        W 9458   5.725  30.661  14.030
42918W        W 9459  39.417  20.092   4.241
42919W        W 9460  12.555  19.694  11.841
42920W        W 9461  12.281  24.501   0.839
42921W        W 9462  16.731  12.566   2.899
42922W        W 9463  25.680   0.732   3.465
42923W        W 9464  10.860  23.232   1.319
42924W        W 9465  33.348  14.689  13.121
42925W        W 9466  17.027  40.332  11.478
42926W        W 9467   2.709   5.276   3.306
42927W        W 9468  30.601  30.583  13.507
42928W        W 9469  31.018   8.861  10.797
42929W        W 9470  16.676  30.708  11.587
42930W        W 9471   2.706  44.484   1.444
42931W        W 9472  31.758  28.960  11.964
42932W        W 9473  43.828  41.143  14.596
42933W        W 9474   2.835  13.059   1.632
42934W        W 9475   2.320  13.881   4.038
42935W        W 9476  24.502   4.434  14.312
42936W        W 9477  33.061   3.277  13.711
42937W        W 9478   4.443  33.917  11.694
42938W        W 9479  36.292  18.857   2.884
42939W        W 9480  25.467   2.025  12.532
42940W        W 9481  34.949  12.744  14.687
42941W        W 9482  33.694  37.372   5.202
42942W        W 9483  40.004  28.416  11.099
42943W        W 9484  19.894  39.052   1.868
42944W        W 9485  38.844  36.417   0.735
42945W        W 9486   2.936  29.603   2.194
42946W        W 9487  43.316   9.748   0.904
42947W        W 9488   7.967   1.312  13.961
42948W        W 9489   9.323  17.874  14.959
42949W        W 9490   8.651  28.980  14.334
42950W        W 9491  43.247  27.029  14.904
42951W        W 9492  38.509  26.211  10.417
42952W        W 9493  36.531   6.925  11.496
42953W        W 9494  34.551  36.029  11.136
42954W        W 9495  10.990  37.050  11.589
42955W        W 9496  41.809  21.740   4.611
42956W        W 9497  27.906  24.511   3.238
42957W        W 9498   4.314  20.753  12.172
42958W        W 9499  36.146  37.858   3.225
42959W        W 9500  21.744  34.954  11.469
42960W        W 9501  34.635  35.512   3.213
42961W        W 9502  18.780  11.748  14.847
42962W        W 9503  10.837  29.697  13.871
42963W        W 9504  24.002  34.215  10.443
42964W        W 9505  17.572  37.118   4.621
42965W        W 9506  10.689  12.866  14.888
42966W        W 9507  32.432   3.183   1.883
42967W        W 9508  42.687  11.846  11.525
42968W        W 9509  23.404  12.580  14.016
42969W        W 9510   3.720  15.782  14.510
42970W        W 9511   0.749   0.780   1.797
42971W        W 9512  38.365   6.375   3.910
42972W        W 9513   2.414  31.950   2.714
42973W        W 9514  36.376  11.566  12.499
42974W        W 9515  31.639  28.229  12.652
42975W        W 9516  29.128  25.969  13.502
42976W        W 9517  36.564  30.335  10.337
42977W        W 9518  15.664  39.742  14.061
42978W        W 9519   9.554   9.207  12.588
42979W        W 9520  31.009   9.651   3.871
42980W        W 9521  30.912  39.033  13.012
42981W        W 9522   7.098  40.963  14.514
42982W        W 9523  14.419  22.058  12.049
42983W        W 9524  26.659   0.268   1.422
42984W        W 9525  27.056  20.594  13.400
42985W        W 9526  15.168  22.393  10.662
42986W        W 9527  29.708  32.575  13.409
42987W        W 9528   4.950  22.712  11.974
42988W        W 9529   4.789  43.482  10.604
42989W        W 9530   9.085  30.158   2.862
42990W        W 9531  30.980  26.714  12.809
42991W        W 9532  25.199   7.162   1.167
42992W        W 9533  13.679  10.271   2.761
42993W        W 9534   3.710   3.454   4.541
42994W        W 9535  17.770  19.795   0.241
42995W        W 9536  43.371   4.183   0.407
42996W        W 9537  43.777  10.566   1.403
42997W        W 9538  16.683  20.731   2.664
42998W        W 9539  34.310   3.546   4.122
42999W        W 9540  19.842  34.467  10.683
43000W        W 9541   5.460  42.951  14.912
43001W        W 9542   4.109  26.718   3.266
43002W        W 9543  30.601  22.897   2.890
43003W        W 9544  43.288  21.597   3.570
43004W        W 9545  44.029  18.219   1.038
43005W        W 9546   6.914  15.755   3.181
43006W        W 9547  42.949  40.968  12.375
43007W        W 9548  41.633  40.775  14.320
43008W        W 9549  39.626  10.357  13.511
43009W        W 9550  26.452  35.510   2.821
43010W        W 9551  22.221  22.090  12.851
43011W        W 9552  21.184   1.401  12.525
43012W        W 9553  39.626  27.229   0.262
43013W        W 9554  22.277  20.948  14.793
43014W        W 9555  11.292  16.146   0.495
43015W        W 9556  38.295   5.195   1.805
43016W        W 9557  13.160  40.723   5.118
43017W        W 9558  23.794  37.272   0.262
43018W        W 9559  43.483  28.750   1.625
43019W        W 9560  23.955   5.340   2.301
43020W        W 9561  19.605  17.147  11.194
43021W        W 9562  28.071  35.797   4.952
43022W        W 9563  25.447   8.404   0.728
43023W        W 9564   7.290  25.123   4.248
43024W        W 9565   3.868  16.631  13.486
43025W        W 9566  17.105  25.982   3.023
43026W        W 9567  19.629  36.004  10.816
43027W        W 9568  40.938  20.440  11.958
43028W        W 9569  23.964  25.107  12.175
43029W        W 9570  41.015   5.566   2.209
43030W        W 9571  21.602  23.206  13.480
43031W        W 9572  14.418  33.095  13.560
43032W        W 9573  15.258  42.284   0.298
43033W        W 9574  41.425  31.884  10.737
43034W        W 9575   9.594  27.048  11.066
43035W        W 9576  44.708  43.169  10.264
43036W        W 9577  14.554  13.982  10.645
43037W        W 9578  36.540   1.369  12.504
43038W        W 9579  18.154  11.246   0.747
43039W        W 9580  12.885   2.814   2.973
43040W        W 9581  36.346   7.268  14.728
43041W        W 9582  22.395  19.068  11.613
43042W        W 9583  10.604  43.644   4.535
43043W        W 9584  31.708  19.226  11.365
43044W        W 9585  24.111  11.276   2.480
43045W        W 9586  38.999  23.602   1.294
43046W        W 9587   5.541   9.792   1.267
43047W        W 9588   5.727  32.889  14.014
43048W        W 9589  28.224  42.570  12.298
43049W        W 9590  39.699  37.367   3.653
43050W        W 9591  11.478  44.510   4.969
43051W        W 9592  29.696  20.713  10.603
43052W        W 9593   5.101  35.897   3.705
43053W        W 9594  15.282   1.495   5.071
43054W        W 9595  32.215  37.875  14.490
43055W        W 9596  19.603   7.631   0.872
43056W        W 9597  28.625  20.175  13.841
43057W        W 9598   2.343  44.478  11.035
43058W        W 9599  40.617  38.911   2.808
43059W        W 9600  30.055  35.354  13.462
43060W        W 9601  27.562  31.098   4.284
43061W        W 9602   8.063  43.731   4.852
43062W        W 9603  42.453  13.410  11.626
43063W        W 9604   8.598  34.388  11.332
43064W        W 9605  24.432  23.245  13.419
43065W        W 9606  28.582  39.349  10.747
43066W        W 9607  31.052  44.851   1.920
43067W        W 9608  19.238   8.527   1.960
43068W        W 9609  15.284  19.942   0.994
43069W        W 9610  22.222  21.540  11.887
43070W        W 9611  42.328  25.384   2.420
43071W        W 9612  11.783  16.069  11.022
43072W        W 9613  42.905  15.464  11.984
43073W        W 9614  36.899  34.806  12.981
43074W        W 9615  32.530  26.797   5.218
43075W        W 9616  38.401  31.989   1.346
43076W        W 9617   7.964  35.275  13.835
43077W        W 9618   7.769  29.525   0.034
43078W        W 9619  10.409  17.313   2.259
43079W        W 9620  22.026  17.861   3.233
43080W        W 9621  32.147  22.913   1.317
43081W        W 9622  42.107   3.728  10.512
43082W        W 9623   9.720  15.598   4.771
43083W        W 9624   5.429  27.669  14.406
43084W        W 9625  12.148  10.278  12.711
43085W        W 9626  25.269  10.644   1.372
43086W        W 9627   0.035   5.088   1.194
43087W        W 9628   7.606  38.426  12.546
43088W        W 9629  41.369  27.591   3.316
43089W        W 9630  41.292  31.582  11.143
43090W        W 9631  30.667  28.449   3.875
43091W        W 9632  16.479  19.103  14.355
43092W        W 9633  11.558  15.682   3.257
43093W        W 9634   6.114   7.491   4.131
43094W        W 9635  20.931  27.578   2.339
43095W        W 9636  43.352   5.260  13.880
43096W        W 9637  16.136  26.469   4.126
43097W        W 9638  42.320  36.578   4.732
43098W        W 9639   2.799  40.574   2.386
43099W        W 9640  24.199  29.587   2.682
43100W        W 9641  36.763  31.851   1.976
43101W        W 9642  14.596  30.441   1.270
43102W        W 9643  34.390   0.814   4.140
43103W        W 9644  16.504  44.396  13.131
43104W        W 9645  44.972  27.053   4.572
43105W        W 9646   0.600   6.905   1.511
43106W        W 9647  28.279  20.346   4.481
43107W        W 9648  44.172   1.665   2.131
43108W        W 9649  14.825  29.498   1.919
43109W        W 9650  41.611   3.269   1.741
43110W        W 9651   5.670  28.059   5.079
43111W        W 9652  11.240   0.052  11.114
43112W        W 9653  39.065  22.057   2.481
43113W        W 9654  32.987   9.055  14.419
43114W        W 9655  13.058  34.550  13.390
43115W        W 9656  18.703  42.650   1.901
43116W        W 9657  21.402  33.481   0.364
43117W        W 9658  22.491   5.684  10.732
43118W        W 9659  15.794  39.659  10.320
43119W        W 9660  20.046  11.203  13.999
43120W        W 9661  17.570  13.077  12.360
43121W        W 9662  18.470  37.599   2.377
43122W        W 9663  37.669  38.636   4.439
43123W        W 9664  12.202  29.887   3.934
43124W        W 9665   9.174  13.820  13.100
43125W        W 9666  21.495   6.497  14.829
43126W        W 9667  18.779  42.773   4.452
43127W        W 9668   5.448  44.034  11.537
43128W        W 9669  18.587  44.303  10.819
43129W        W 9670  15.137  33.855   4.633
43130W        W 9671  34.002  22.124   4.586
43131W        W 9672  18.674  18.117   5.228
43132W        W 9673  34.425  31.821   1.940
43133W        W 9674  41.537  33.602  11.946
43134W        W 9675  22.716  20.717  14.880
43135W        W 9676  12.587  42.990   2.280
43136W        W 9677  16.253  33.953  11.969
43137W        W 9678  13.387  16.103   3.350
43138W        W 9679  29.257  44.457  13.876
43139W        W 9680  35.140  23.076   3.293
43140W        W 9681  44.968  17.285   0.372
43141W        W 9682   5.172   7.413  11.106
43142W        W 9683  16.989  28.098   4.478
43143W        W 9684  15.655  35.118  11.963
43144W        W 9685  44.372   9.347  11.510
43145W        W 9686  15.921   2.969   1.221
43146W        W 9687   1.055  35.613  10.712
43147W        W 9688  40.238  14.104  13.609
43148W        W 9689  36.303  13.761  14.428
43149W        W 9690   2.397  27.843   0.965
43150W        W 9691  42.310  32.494   3.689
43151W        W 9692  20.374  24.693   4.536
43152W        W 9693  19.181  41.566  10.776
43153W        W 9694  27.347   6.498  12.142
43154W        W 9695   4.131  22.760  13.997
43155W        W 9696  19.585  42.030   1.828
43156W        W 9697  41.031  30.906  13.019
43157W        W 9698  39.584  42.913  14.401
43158W        W 9699  27.419  18.301  12.963
43159W        W 9700  31.677   9.485   5.489
43160W        W 9701   7.001  33.128  14.891
43161W        W 9702  10.685  14.163   5.112
43162W        W 9703  13.208  37.471  12.882
43163W        W 9704  43.017  13.142   1.754
43164W        W 9705  14.048  31.223  11.785
43165W        W 9706  11.320  11.924   0.044
43166W        W 9707  25.085   5.490  12.136
43167W        W 9708   3.929  30.702   4.201
43168W        W 9709   0.389  16.128   2.210
43169W        W 9710  40.021  13.366   2.067
43170W        W 9711  32.882  35.923   2.702
43171W        W 9712  20.306  34.929  14.358
43172W        W 9713  40.562  12.623  14.391
43173W        W 9714  25.368  19.084  11.562
43174W        W 9715  29.184   1.782   4.121
43175W        W 9716  26.109   1.119   0.413
43176W        W 9717  21.678  18.121  13.195
43177W        W 9718  23.114  11.423  11.927
43178W        W 9719  14.058  36.037  11.676
43179W        W 9720  19.595  33.518  12.812
43180W        W 9721  31.116   4.545  11.987
43181W        W 9722  12.779  34.263   0.411
43182W        W 9723  37.417  31.037  10.725
43183W        W 9724  22.834  43.171   4.176
43184W        W 9725  35.013  10.450  11.305
43185W        W 9726  29.051  16.824   4.091
43186W        W 9727  24.909  24.132   1.372
43187W        W 9728  35.112  34.550   5.154
43188W        W 9729  41.296  15.193   0.680
43189W        W 9730   6.424  43.281   0.990
43190W        W 9731  10.938  24.099   1.956
43191W        W 9732  16.597  44.051   2.131
43192W        W 9733  17.951  17.709  11.447
43193W        W 9734  25.214  28.108   4.388
43194W        W 9735  12.345  32.957  10.525
43195W        W 9736  20.604  37.477  13.915
43196W        W 9737   3.695  33.971  12.002
43197W        W 9738  39.913  10.878   0.815
43198W        W 9739  10.700   2.105   2.888
43199W        W 9740  30.035  25.792   0.910
43200W        W 9741  19.663  43.442  10.716
43201W        W 9742   0.836  28.688   3.301
43202W        W 9743  44.467  31.872   1.900
43203W        W 9744   1.238  14.095   1.422
43204W        W 9745  19.057  16.398  10.332
43205W        W 9746  23.615  27.079  12.348
43206W        W 9747  33.607   8.491   3.190
43207W        W 9748  36.440  33.116   3.617
43208W        W 9749  33.898   6.385  13.403
43209W        W 9750   3.316  29.940   2.169
43210W        W 9751  17.276  21.042   3.695
43211W        W 9752  18.219  14.573  12.485
43212W        W 9753  30.933   1.951  13.903
43213W        W 9754  17.514  26.598  11.076
43214W        W 9755  36.005  15.682   3.643
43215W        W 9756  37.498  24.149   0.250
43216W        W 9757   8.792  23.593   0.789
43217W        W 9758  12.215  41.757   0.854
43218W        W 9759  41.784  14.253  14.327
43219W        W 9760   9.384   2.429   4.713
43220W        W 9761  13.832   7.727  11.638
43221W        W 9762  13.454  22.513  11.513
43222W        W 9763   5.319  16.314   0.867
43223W        W 9764  15.576   4.143   3.153
43224W        W 9765   6.773   8.276   4.384
43225W        W 9766   3.534  25.460   2.287
43226W        W 9767  18.231   2.297   0.540
43227W        W 9768  24.580  14.566   2.699
43228W        W 9769  14.570   2.684  14.968
43229W        W 9770   6.221  19.426  13.718
43230W        W 9771  17.413  27.416   1.670
43231W        W 9772  40.385   9.205  11.376
43232W        W 9773   8.657  21.516  13.833
43233W        W 9774  10.600  13.732  12.087
43234W        W 9775  22.364  21.566   2.341
43235W        W 9776  15.933  15.758  11.928
43236W        W 9777  26.611  40.839   0.176
43237W        W 9778  44.703   4.411  13.781
43238W        W 9779  40.768   0.397   1.769
43239W        W 9780  44.580  14.586  11.083
43240W        W 9781  38.595  35.198  13.342
43241W        W 9782   8.870  22.647   0.947
43242W        W 9783  27.755  10.025  12.126
43243W        W 9784   8.142  22.617   2.726
43244W        W 9785  40.122  20.503   2.531
43245W        W 9786  35.338  24.162  13.946
43246W        W 9787  44.056  14.767   4.570
43247W        W 9788   1.789  31.925  14.913
43248W        W 9789  25.000  24.942   2.879
43249W        W 9790  26.976  23.285   2.218
43250W        W 9791  24.692  15.015   2.952
43251W        W 9792  35.849  30.719   4.814
43252W        W 9793  24.960  42.314   4.598
43253W        W 9794  10.717  11.383  13.317
43254W        W 9795  41.278  18.334   2.219
43255W        W 9796  16.543  37.798   3.278
43256W        W 9797   4.006  38.135   1.920
43257W        W 9798   2.020  40.731  12.511
43258W        W 9799  43.621  17.752   4.273
43259W        W 9800  41.310  33.461   1.804
43260W        W 9801  25.488  37.100   2.906
43261W        W 9802  17.849  16.083   0.498
43262W        W 9803   1.783  16.650   4.185
43263W        W 9804   2.752  43.971   0.777
43264W        W 9805  11.262  39.337   0.365
43265W        W 9806   5.328  17.234  14.150
43266W        W 9807  11.590   3.715  13.472
43267W        W 9808  18.305  19.009   2.332
43268W        W 9809  24.470   2.239  12.532
43269W        W 9810  24.502   0.038   2.805
43270W        W 9811  34.507  12.779   2.414
43271W        W 9812  25.133  39.859   4.395
43272W        W 9813  40.813  23.979  11.905
43273W        W 9814  23.469  25.417   0.501
43274W        W 9815  13.233  17.569   4.021
43275W        W 9816  33.809  29.873   1.361
43276W        W 9817   0.826  40.952   0.674
43277W        W 9818   0.833  29.961   3.340
43278W        W 9819  21.232  14.270   1.395
43279W        W 9820  27.923  27.567  13.380
43280W        W 9821  34.886  37.415  14.004
43281W        W 9822   0.315  23.575  11.719
43282W        W 9823  40.300  11.195  10.752
43283W        W 9824   2.476  23.645   3.507
43284W        W 9825  44.456  15.311   1.129
43285W        W 9826  20.358  38.445   2.429
43286W        W 9827  12.150  35.101   0.482
43287W        W 9828  44.886  43.757  14.614
43288W        W 9829  33.903   3.218  12.580
43289W        W 9830  38.713  32.853   3.313
43290W        W 9831  14.514  11.518  14.364
43291W        W 9832  39.330  19.430   1.812
43292W        W 9833   2.600  43.268   4.202
43293W        W 9834   9.214   3.919  14.827
43294W        W 9835  38.007  13.792  13.981
43295W        W 9836  20.370  27.354   2.730
43296W        W 9837  21.655   5.562  12.617
43297W        W 9838   6.162   8.827   2.859
43298W        W 9839  30.406   9.891   0.684
43299W        W 9840  17.729  37.723   1.434
43300W        W 9841  22.910  13.310   0.929
43301W        W 9842  12.584  37.988  13.027
43302W        W 9843   5.181  12.134   2.196
43303W        W 9844  24.038  27.949   1.026
43304W        W 9845  25.725  17.216   1.391
43305W        W 9846  31.572   4.376   0.002
43306W        W 9847  21.548  17.558   2.117
43307W        W 9848  38.376  13.849  14.360
43308W        W 9849  15.568   7.030   4.962
43309W        W 9850  35.180  35.595  10.550
43310W        W 9851   3.427  35.687   3.268
43311W        W 9852  36.097  16.578   4.960
43312W        W 9853  22.593  36.720   4.529
43313W        W 9854  22.522  20.784   4.729
43314W        W 9855  15.320  31.509  14.248
43315W        W 9856  40.849   1.939  12.588
43316W        W 9857  43.449  26.852   0.350
43317W        W 9858   7.296  40.344  13.547
43318W        W 9859   5.226  42.893  12.419
43319W        W 9860  18.138  30.513  11.724
43320W        W 9861  14.709  17.357   2.835
43321W        W 9862  16.248  41.997  12.138
43322W        W 9863  15.916  35.142   3.443
43323W        W 9864   7.463  27.544   1.492
43324W        W 9865   2.743  24.102   4.902
43325W        W 9866  39.485  34.727  12.411
43326W        W 9867   7.186  29.086   3.249
43327W        W 9868  13.381  44.979  14.467
43328W        W 9869  18.665   4.358   1.934
43329W        W 9870  37.319  40.439   5.052
43330W        W 9871   4.210   3.796   0.811
43331W        W 9872  12.329  38.554   1.047
43332W        W 9873  38.143  11.310   0.656
43333W        W 9874  44.497  39.560  10.039
43334W        W 9875  42.027   9.823   1.325
43335W        W 9876  35.691  28.962   4.055
43336W        W 9877   8.973  10.020  12.178
43337W        W 9878  21.546  20.832   0.003
43338W        W 9879  19.349  44.367   1.805
43339W        W 9880  25.806  14.999  11.559
43340W        W 9881  20.962   1.180   3.332
43341W        W 9882  31.713  26.994  10.678
43342W        W 9883  16.347  21.682   4.522
43343W        W 9884   0.961   7.095  10.914
43344W        W 9885  29.668  33.900   2.229
43345W        W 9886   8.467  37.953   4.532
43346W        W 9887   0.317  26.987   0.856
43347W        W 9888  24.696  39.804   1.082
43348W        W 9889  15.146  27.573   2.657
43349W        W 9890  24.701  43.214   0.049
43350W        W 9891  14.743  38.445   2.717
43351W        W 9892  31.075  41.110   1.920
43352W        W 9893  16.249   2.701  12.342
43353W        W 9894   9.654  16.282   2.745
43354W        W 9895  34.948  44.948  14.885
43355W        W 9896  37.844  20.810   2.240
43356W        W 9897   5.898  34.627  12.455
43357W        W 9898   6.207  37.398  10.499
43358W        W 9899  22.123  40.710  14.340
43359W        W 9900  43.127  35.404  11.166
43360W        W 9901  28.584  33.618   4.772
43361W        W 9902  11.688   8.204  13.648
43362W        W 9903  29.427  24.498   1.835
43363W        W 9904  42.850  10.351   2.267
43364W        W 9905  40.776  13.589  11.658
43365W        W 9906   2.852  37.473   3.300
43366W        W 9907  38.373   1.632  11.472
43367W        W 9908   8.753  36.321  14.045
43368W        W 9909  13.596  34.559  13.406
43369W        W 9910  30.987  11.223  12.363
43370W        W 9911  17.836  24.168   3.357
43371W        W 9912   9.667  38.789  14.920
43372W        W 9913  29.631  44.029  12.976
43373W        W 9914  25.260  24.714   3.270
43374W        W 9915  21.670  32.245   4.952
43375W        W 9916   1.160   3.251   1.846
43376W        W 9917   8.092   1.903  14.993
43377W        W 9918  18.195  20.583   2.054
43378W        W 9919  33.077  15.363  12.271
43379W        W 9920  36.772  14.345  12.148
43380W        W 9921  23.287   3.562  12.337
43381W        W 9922  20.097  17.055  13.947
43382W        W 9923  39.781  34.615   3.265
43383W        W 9924   0.882  39.793  13.625
43384W        W 9925   2.456  22.107  10.924
43385W        W 9926  40.279  33.452  14.017
43386W        W 9927  23.906   9.146   9.874
43387W        W 9928   3.084   5.657   3.326
43388W        W 9929   6.137  16.828  11.369
43389W        W 9930   7.825  24.677  14.355
43390W        W 9931  37.517  17.944   2.158
43391W        W 9932  23.617  27.819  12.644
43392W        W 9933  11.353  28.422   2.207
43393W        W 9934  19.099  39.847   2.001
43394W        W 9935  34.923  44.496  10.674
43395W        W 9936   6.893  19.616   1.475
43396W        W 9937  36.433  33.358  12.812
43397W        W 9938  15.764   8.262   4.542
43398W        W 9939  14.562   1.919  14.562
43399W        W 9940  43.460  16.098  14.388
43400W        W 9941  38.740  43.912  12.569
43401W        W 9942   4.445  26.474  12.988
43402W        W 9943  40.863   9.138  11.614
43403W        W 9944  13.733  24.528   4.052
43404W        W 9945  19.667  38.462  10.994
43405W        W 9946  31.879  38.554   4.878
43406W        W 9947  25.655  40.633  13.168
43407W        W 9948  31.797  42.013   4.144
43408W        W 9949  38.879  29.607   4.147
43409W        W 9950  43.343  25.160  11.471
43410W        W 9951  19.807  33.252   3.112
43411W        W 9952  29.975   0.899  14.835
43412W        W 9953   0.720  19.143  10.694
43413W        W 9954  20.629  29.776  14.882
43414W        W 9955  21.593  12.001   4.989
43415W        W 9956  22.210  27.635   1.262
43416W        W 9957  13.633  32.578   2.389
43417W        W 9958  32.092  42.030  13.342
43418W        W 9959  30.700  11.609  12.091
43419W        W 9960  31.018  27.454   3.740
43420W        W 9961  25.844  27.017   4.404
43421W        W 9962  44.949  19.703  14.998
43422W        W 9963  28.990  42.846  12.809
43423W        W 9964  42.383   6.978   3.668
43424W        W 9965  12.145  19.633   4.850
43425W        W 9966  33.222  28.011  13.076
43426W        W 9967  22.845  33.390  10.985
43427W        W 9968  13.120   8.484  13.360
43428W        W 9969  15.848  41.922  14.012
43429W        W 9970  13.589   9.912   3.635
43430W        W 9971   8.360  15.180   3.059
43431W        W 9972  36.568   7.818  14.054
43432W        W 9973  39.925   4.194  14.256
43433W        W 9974  30.622  17.111  10.709
43434W        W 9975  28.654  38.834  14.099
43435W        W 9976  37.290  11.392  12.404
43436W        W 9977   6.281  21.626  11.126
43437W        W 9978  24.638  16.232  14.985
43438W        W 9979  25.050  43.613   2.789
43439W        W 9980   1.149  17.576   1.650
43440W        W 9981  16.259  24.623  10.828
43441W        W 9982  38.989  27.207  13.493
43442W        W 9983  22.552   5.326   1.324
43443W        W 9984  17.033  11.762  13.051
43444W        W 9985   1.774  40.986   1.100
43445W        W 9986   5.936  36.457   3.135
43446W        W 9987  39.020  12.815   4.573
43447W        W 9988  31.640  24.946   0.527
43448W        W 9989   6.830  12.701   3.827
43449W        W 9990  32.269   1.708  12.604
43450W        W 9991   1.340  16.069  13.846
43451W        W 9992  30.348  28.964  13.477
43452W        W 9993   8.158  34.145   2.138
43453W        W 9994   8.606  18.689  10.696
43454W        W 9995   2.634  22.479   0.545
43455W        W 9996  20.641  37.142   0.360
43456W        W 9997  43.519  23.007   2.171
43457W        W 9998  36.081  44.308  12.071
43458W        W 9999  36.871  31.585   4.672
43459W        W10000   8.755  44.377   1.928
43460W        W10001  39.787  35.433  10.720
43461W        W10002  22.119   8.056  13.195
43462W        W10003   4.064  40.572  10.691
43463W        W10004  21.289  37.356   1.173
43464W        W10005   4.177  29.509   2.901
43465W        W10006  14.369  38.838  10.751
43466W        W10007  30.761   7.128  11.922
43467W        W10008  14.651   9.110  12.985
43468W        W10009  26.113   6.235  10.499
43469W        W10010   4.759  18.035  11.252
43470W        W10011  14.210  10.391  13.129
43471W        W10012  41.816   8.400  11.170
43472W        W10013  38.951   5.691  12.012
43473W        W10014  15.661  33.015   2.217
43474W        W10015   9.600  28.478   0.007
43475W        W10016  18.708   2.411  11.737
43476W        W10017  25.405  34.663   4.810
43477W        W10018  34.599  35.165  11.900
43478W        W10019  11.891  27.920  10.313
43479W        W10020  22.102  37.863   2.782
43480W        W10021  24.527  37.507  11.250
43481W        W10022  24.514   1.690  13.683
43482W        W10023  36.803  35.364  11.290
43483W        W10024  39.532   5.331   4.607
43484W        W10025  16.157  23.448   0.026
43485W        W10026  14.845  19.994   3.636
43486W        W10027  37.885  43.655  13.168
43487W        W10028  24.671  42.595  13.341
43488W        W10029   6.344   9.228  12.960
43489W        W10030   2.355  22.265  11.402
43490W        W10031  39.252  41.954   1.264
43491W        W10032  16.246   3.799   3.721
43492W        W10033  17.087   6.546  12.142
43493W        W10034  29.490  11.524  11.698
43494W        W10035  25.681   1.410  13.944
43495W        W10036  13.218  31.045   2.863
43496W        W10037  22.164  11.660   1.841
43497W        W10038  43.342   1.526  13.009
43498W        W10039  14.194  15.217  10.280
43499W        W10040   9.282   6.030   3.337
43500W        W10041  33.462  16.564   2.516
43501W        W10042  22.962  28.105  10.625
43502W        W10043  39.968  44.474  14.794
43503W        W10044   6.151  31.301  14.189
43504W        W10045  13.897  18.719   0.335
43505W        W10046  21.215  39.287   1.690
43506W        W10047  39.103   8.633  10.199
43507W        W10048  17.773   2.042   4.025
43508W        W10049  40.518  29.608  13.366
43509W        W10050  34.220  28.110  11.062
43510W        W10051  24.678  28.514  11.925
43511W        W10052  11.673   6.650   2.266
43512W        W10053  42.926  20.671   0.997
43513W        W10054  18.030   7.662  11.960
43514W        W10055   1.477  13.117   4.297
43515W        W10056   5.284  18.271   2.219
43516W        W10057   0.838  35.323   4.069
43517W        W10058  43.837   2.674  14.331
43518W        W10059  26.599  43.611  10.489
43519W        W10060  35.095  22.242  14.679
43520W        W10061  29.142   8.633   3.455
43521W        W10062  12.581  19.747   0.942
43522W        W10063  15.529  29.125   3.321
43523W        W10064  42.826  34.974  13.388
43524W        W10065   3.364  22.272  13.277
43525W        W10066  12.955  34.674   4.215
43526W        W10067  16.632  42.816   3.742
43527W        W10068   7.694  19.726  11.591
43528W        W10069   8.880  34.055   4.108
43529W        W10070  31.191  19.279  11.486
43530W        W10071  13.770  28.654  11.134
43531W        W10072  22.061  35.452  10.628
43532W        W10073  23.804  43.127  14.907
43533W        W10074   5.237  14.578  14.743
43534W        W10075  22.964  43.792   1.606
43535W        W10076  20.272  39.505   3.227
43536W        W10077  17.937  29.167  13.078
43537W        W10078   0.299  41.841  12.492
43538W        W10079   9.197  20.174   1.383
43539W        W10080  13.115   5.497  12.018
43540W        W10081  16.179   6.457   0.849
43541W        W10082   5.608  10.190   0.013
43542W        W10083  25.684  29.754   1.401
43543W        W10084  24.781   9.600  10.807
43544W        W10085  15.696  43.280   2.345
43545W        W10086   7.742  11.856   1.124
43546W        W10087  28.655   0.299  11.572
43547W        W10088  21.834  21.262  12.075
43548W        W10089  13.113   5.102   2.774
43549W        W10090  37.936   5.750  12.243
43550W        W10091  42.173  27.728  12.848
43551W        W10092  11.127  23.664   2.183
43552W        W10093  10.925   1.701  14.549
43553W        W10094  26.784  29.151  10.198
43554W        W10095  19.172  35.527   0.898
43555W        W10096  11.086  17.558   3.154
43556W        W10097   8.469  38.060  12.819
43557W        W10098  14.155   4.770   0.772
43558W        W10099  28.054  20.516  13.449
43559W        W10100  33.652  20.933   3.625
43560W        W10101  40.437   3.929   0.427
43561W        W10102  32.151   6.812   4.731
43562W        W10103  35.808  17.979   2.829
43563W        W10104  29.155   1.360   2.401
43564W        W10105  35.024  33.858   3.924
43565W        W10106  41.996   9.190   4.030
43566W        W10107  44.753  14.542   3.713
43567W        W10108  26.174  15.597   1.317
43568W        W10109  20.499   9.834  13.936
43569W        W10110   2.380  39.761  11.799
43570W        W10111   0.509  26.046   2.755
43571W        W10112  27.432   9.529  10.387
43572W        W10113  38.139  30.698   0.894
43573W        W10114  30.921  44.322   1.250
43574W        W10115  29.618   9.265   1.029
43575W        W10116  33.110   5.782   0.156
43576W        W10117   7.137  43.012   2.588
43577W        W10118  23.036  21.062   4.717
43578W        W10119  37.152   3.415  10.177
43579W        W10120  21.494  43.610  13.933
43580W        W10121  19.907   5.804  10.108
43581W        W10122   7.362   9.476  12.561
43582W        W10123  33.102  31.236   0.965
43583W        W10124  40.878  19.768  13.435
43584W        W10125  14.151  42.225  14.633
43585W        W10126  35.528  42.496   2.213
43586W        W10127  40.490  44.449  13.381
43587W        W10128  38.604  33.388   1.339
43588W        W10129  32.654  14.065   4.897
43589W        W10130  42.850  25.215   2.457
43590W        W10131  30.478  39.992  11.620
43591W        W10132  42.908  13.198   2.747
43592W        W10133  43.293  18.065   0.482
43593W        W10134  36.827  26.716  13.406
43594W        W10135  16.791  39.558   0.523
43595W        W10136   7.376  40.559   4.177
43596W        W10137  20.108  21.703  13.458
43597W        W10138  10.660  32.415  13.566
43598W        W10139  16.579  17.470  14.764
43599W        W10140  34.906   8.128  12.884
43600W        W10141  35.172  33.607  12.351
43601W        W10142  25.511  30.858  13.253
43602W        W10143  31.477  12.311  14.571
43603W        W10144  27.102  25.969   2.161
43604W        W10145   1.359  15.847  12.154
43605W        W10146  16.703  19.710  10.721
43606W        W10147  34.975  24.494   1.087
43607W        W10148   2.504  18.515  12.172
43608W        W10149  35.871  14.060   4.571
43609W        W10150  12.372  28.423   4.026
43610W        W10151  34.367   8.812   0.251
43611W        W10152  10.374   0.294   3.730
43612W        W10153   5.963  27.287   4.038
43613W        W10154  42.753   4.692  12.624
43614W        W10155  21.892  24.572   5.372
43615W        W10156  25.210   3.228   3.933
43616W        W10157  38.372  24.705  10.889
43617W        W10158  23.708  18.675  10.675
43618W        W10159   4.295  25.157   1.619
43619W        W10160  15.150  15.682   4.070
43620W        W10161  27.041   4.659  14.560
43621W        W10162   6.399  28.800  14.247
43622W        W10163  25.715  31.445   1.768
43623W        W10164   5.201  11.092  14.777
43624W        W10165   7.376  21.623   2.771
43625W        W10166  14.793  20.452  14.309
43626W        W10167   1.173  30.481   0.904
43627W        W10168  33.648  10.932   4.916
43628W        W10169  29.960  40.416   4.614
43629W        W10170  40.819  28.905  14.381
43630W        W10171  44.492  14.710   3.271
43631W        W10172  16.601  31.522  13.433
43632W        W10173  24.978  22.565  14.342
43633W        W10174  12.612  25.547   2.306
43634W        W10175   7.184   1.938  11.267
43635W        W10176  38.944   0.705  13.507
43636W        W10177   8.273  44.891  14.496
43637W        W10178  22.149   4.133  14.686
43638W        W10179  10.147   9.639   3.149
43639W        W10180  30.629   7.653   1.442
43640W        W10181  37.095   5.506   4.348
43641W        W10182   7.147  44.974   2.124
43642W        W10183  21.450  17.352   0.022
43643W        W10184   8.346  20.168  11.950
43644W        W10185  16.938  13.557  12.406
43645W        W10186  16.811  19.042  13.440
43646W        W10187  38.392   6.795   2.594
43647W        W10188   8.727  19.305  10.704
43648W        W10189  32.093  20.427  14.871
43649W        W10190  22.276  24.584  13.572
43650W        W10191  34.571  10.527   4.927
43651W        W10192  30.505  29.113  14.899
43652W        W10193  32.867  38.624  13.485
43653W        W10194  24.789   3.474   1.360
43654W        W10195  21.502  35.929  10.992
43655W        W10196  38.092  17.283  11.942
43656W        W10197   5.666  38.405  10.610
43657W        W10198   8.708  32.018  14.745
43658W        W10199  14.639  35.964   3.766
43659W        W10200   9.664  16.787  11.373
43660W        W10201   0.284   0.976  12.001
43661W        W10202  28.603  25.538   4.513
43662W        W10203   7.292  39.602  14.817
43663W        W10204  19.108  31.738  12.121
43664W        W10205  11.262  23.499   2.695
43665W        W10206  36.822  15.601  14.684
43666W        W10207   4.357   6.815  13.284
43667W        W10208  37.518  22.224  11.602
43668W        W10209   9.935  23.614  14.805
43669W        W10210  29.431  41.325   1.172
43670W        W10211  28.290  35.620  10.487
43671W        W10212   8.697  21.213   2.692
43672W        W10213   0.194  33.725  12.788
43673W        W10214  22.164  32.150  11.513
43674W        W10215  11.387   0.183  13.022
43675W        W10216  25.271  36.123   2.869
43676W        W10217   8.313   9.706   2.132
43677W        W10218  26.819  32.277  13.414
43678W        W10219   3.530  38.518   3.776
43679W        W10220  26.099  16.186   4.718
43680W        W10221  26.706  32.169   3.143
43681W        W10222  32.828  34.424   2.210
43682W        W10223  36.503  36.470  10.634
43683W        W10224  19.286  25.226  12.468
43684W        W10225  13.691  27.761   0.564
43685W        W10226   4.196  11.307   2.009
43686W        W10227  18.695  43.970   1.584
43687W        W10228  31.451  44.189   2.829
43688W        W10229   7.584  16.576  13.552
43689W        W10230  40.499  15.659   2.332
43690W        W10231  32.018  25.976   0.486
43691W        W10232  15.477  23.762  10.304
43692W        W10233  39.274   6.452  11.702
43693W        W10234  22.477  41.515   1.864
43694W        W10235  20.773   7.795  12.524
43695W        W10236  21.290  27.063   3.593
43696W        W10237  35.387  13.111   3.245
43697W        W10238  25.342  13.636   0.466
43698W        W10239  20.799   5.169  13.869
43699W        W10240  13.907  27.725  13.715
43700W        W10241  23.940  30.687   0.476
43701W        W10242  35.141  18.280   3.368
43702W        W10243  18.586  26.973   4.802
43703W        W10244   2.240  38.364   4.594
43704W        W10245   3.753  20.608   0.955
43705W        W10246  17.709   3.214   4.719
43706W        W10247   1.669  10.690   4.257
43707W        W10248  42.935  19.492  10.263
43708W        W10249  25.303  11.274  14.329
43709W        W10250  17.599  31.756   4.941
43710W        W10251  43.465  44.975   3.302
43711W        W10252   8.668  25.794  10.554
43712W        W10253  26.889  31.408  11.151
43713W        W10254  28.520  13.567  13.802
43714W        W10255  14.589  36.494  12.657
43715W        W10256  15.697  25.293   2.281
43716W        W10257   0.384  13.555   0.667
43717W        W10258  30.980  42.510  11.919
43718W        W10259  37.789  42.749  14.847
43719W        W10260   2.594  13.827  10.574
43720W        W10261  33.949  25.083   1.395
43721W        W10262   6.323   3.302   4.641
43722W        W10263  34.883   6.076   2.323
43723W        W10264  44.920  39.725   2.315
43724W        W10265  44.662  13.063  13.007
43725W        W10266  22.514  10.479   2.874
43726W        W10267   7.921   4.723  13.427
43727W        W10268  22.560   3.673   9.605
43728W        W10269  13.063  26.160   2.417
43729W        W10270  37.797  31.822   4.541
43730W        W10271  13.182   3.675   1.859
43731W        W10272   9.444  18.345   1.232
43732W        W10273  33.565  28.129   2.205
43733W        W10274  29.493   2.246  12.169
43734W        W10275   3.706  40.305  12.032
43735W        W10276  39.730  10.395   0.869
43736W        W10277  27.190  10.119  11.435
43737W        W10278  19.698   7.151  14.840
43738W        W10279  10.355   4.617  14.868
43739W        W10280  27.002  15.202   0.496
43740W        W10281  34.634  21.164   2.322
43741W        W10282  36.440  38.123   0.422
43742W        W10283  22.527   1.726  13.933
43743W        W10284   7.164  32.851   2.873
43744W        W10285  30.704   9.742  10.693
43745W        W10286  26.864  37.542  11.325
43746W        W10287   5.368  14.706   1.580
43747W        W10288  15.726  14.842   3.370
43748W        W10289  13.109  34.951   0.467
43749W        W10290   6.223  17.679   0.322
43750W        W10291  14.044  29.050   1.030
43751W        W10292  25.724  24.605   2.341
43752W        W10293  42.835  41.291  13.880
43753W        W10294  23.980  43.398  10.740
43754W        W10295  15.624  23.342  14.363
43755W        W10296   6.214  37.622  11.820
43756W        W10297  12.353  20.297  11.622
43757W        W10298   0.380  10.911   2.250
43758W        W10299  44.971   9.978   3.614
43759W        W10300  28.489  19.272  14.909
43760W        W10301  44.420  18.505  11.907
43761W        W10302  30.735  43.789   3.477
43762W        W10303   6.916  35.732   3.806
43763W        W10304  23.104   8.125   0.398
43764W        W10305  18.379   3.938  11.494
43765W        W10306  23.180  34.060   1.630
43766W        W10307  19.576  15.952   5.462
43767W        W10308  15.315  25.211   3.146
43768W        W10309  41.314  25.023   2.348
43769W        W10310  34.570  35.063   0.375
43770W        W10311   1.377  38.912  12.670
43771W        W10312  28.938  26.531   1.227
43772W        W10313  15.290  43.557  14.831
43773W        W10314  39.646  18.816   1.358
43774W        W10315  32.042  38.173   4.589
43775W        W10316  14.858   3.905  13.679
43776W        W10317  21.845  29.182  12.589
43777W        W10318  40.553  34.718   3.708
43778W        W10319  10.047  18.046   0.901
43779W        W10320  31.033  21.469  12.438
43780W        W10321  11.234  11.824  12.691
43781W        W10322  27.730  17.579  13.623
43782W        W10323  41.967   2.101   3.674
43783W        W10324   7.902  15.573   2.289
43784W        W10325  22.904  11.756   1.503
43785W        W10326  24.305  39.905  10.069
43786W        W10327  23.463   8.855   9.929
43787W        W10328  13.179  32.683   1.480
43788W        W10329  29.441   2.883  14.940
43789W        W10330  41.183  33.229  11.991
43790W        W10331  24.650  38.726  12.436
43791W        W10332  31.000  37.861  12.581
43792W        W10333   0.009  40.825   0.275
43793W        W10334  35.915  38.784  14.057
43794W        W10335  21.088  28.499  10.811
43795W        W10336  17.873  42.787   4.357
43796W        W10337  26.721  35.780  11.127
43797W        W10338  35.066  31.949   0.148
43798W        W10339  25.965  24.950   2.743
43799W        W10340  19.236  34.306   4.474
43800W        W10341  33.773  38.020  12.357
43801W        W10342  42.353  25.888   4.957
43802W        W10343  42.947  19.597  10.788
43803W        W10344   2.348   2.806   2.324
43804W        W10345  11.775   3.956  13.918
43805W        W10346   4.414   9.240  10.829
43806W        W10347  12.339  31.032   2.339
43807W        W10348  36.358  12.793  11.528
43808W        W10349  27.075   5.182  12.595
43809W        W10350  21.141  17.548   1.793
43810W        W10351  38.062  16.561  14.380
43811W        W10352  30.350  21.096  10.823
43812W        W10353  27.380  31.411   0.022
43813W        W10354  35.849  26.704   5.109
43814W        W10355  33.417  19.983   0.998
43815W        W10356  34.615  12.346  14.841
43816W        W10357  20.747  11.705  11.601
43817W        W10358  37.338  38.251   4.309
43818W        W10359   2.597   5.844   2.490
43819W        W10360  37.478  36.101  12.695
43820W        W10361  18.995  37.119  11.076
43821W        W10362  33.536   0.941   0.697
43822W        W10363  32.180  31.012   1.429
43823W        W10364   5.253  27.647  10.450
43824W        W10365   9.690  15.240  13.835
43825W        W10366  12.774  24.609  14.487
43826W        W10367  11.732  20.209   2.756
43827W        W10368  28.825  39.058   4.397
43828W        W10369   0.975   6.762   1.851
43829W        W10370  35.639  41.114  13.298
43830W        W10371  37.566  25.449   1.885
43831W        W10372  36.849   4.603   2.199
43832W        W10373  33.238  29.035  14.782
43833W        W10374  18.583  33.818   0.310
43834W        W10375  35.174   4.009  11.890
43835W        W10376  20.992  41.117  10.866
43836W        W10377  16.781   2.418   2.273
43837W        W10378   1.877  31.688   0.435
43838W        W10379   9.423  22.546  13.027
43839W        W10380   3.591  13.070  12.557
43840W        W10381  28.410  14.609   3.566
43841W        W10382  28.130  13.274  12.048
43842W        W10383  42.841   2.753   1.334
43843W        W10384  29.080  41.555   2.216
43844W        W10385  13.103   4.020   4.575
43845W        W10386  26.230  42.231   2.742
43846W        W10387  14.074  43.907  14.622
43847W        W10388   5.708  34.958  11.612
43848W        W10389  36.041   5.370  10.892
43849W        W10390  29.700  31.040  11.180
43850W        W10391  35.577  44.210  14.868
43851W        W10392   5.187  19.993   0.296
43852W        W10393  14.080  21.326   4.041
43853W        W10394  35.359   4.450  12.880
43854W        W10395  24.424   1.099   3.352
43855W        W10396   8.314  26.253   4.496
43856W        W10397  22.597  18.544  13.507
43857W        W10398  13.581  18.995   4.354
43858W        W10399  44.017  30.482  10.601
43859W        W10400  36.789  21.528  10.760
43860W        W10401  29.594  21.717   3.371
43861W        W10402  42.017  41.232  10.614
43862W        W10403  14.990  24.551   2.200
43863W        W10404  14.361  17.810   3.216
43864W        W10405  39.864  25.484  13.786
43865W        W10406  25.771  23.307   0.211
43866W        W10407   6.661  14.228  12.980
43867W        W10408   2.964   8.150   4.178
43868W        W10409   7.764  43.922   2.864
43869W        W10410   7.364  44.019  13.090
43870W        W10411   6.602  33.859   0.388
43871W        W10412  17.417  41.357   3.138
43872W        W10413  44.226  42.817   1.618
43873W        W10414  10.654  35.119   1.353
43874W        W10415   2.024  10.820   0.493
43875W        W10416  28.410  40.505   3.658
43876W        W10417  21.000  43.641   3.947
43877W        W10418  31.535  41.355   0.977
43878W        W10419  25.538  19.760   2.535
43879W        W10420   2.062   0.400  11.441
43880W        W10421   4.950  41.926  14.902
43881W        W10422   7.044  23.498  10.341
43882W        W10423  11.616  17.641  14.453
43883W        W10424  37.312   2.916  13.855
43884W        W10425   7.375  40.456   2.392
43885W        W10426  36.022  20.659  12.354
43886W        W10427   4.036   6.413   4.600
43887W        W10428  42.863   0.728   2.325
43888W        W10429   4.482  22.008  11.138
43889W        W10430   5.906  26.171   2.163
43890W        W10431   7.437  11.542   2.800
43891W        W10432   5.442   9.322   3.130
43892W        W10433   0.960  24.645  12.924
43893W        W10434   6.536   9.355  10.688
43894W        W10435  29.474  16.588   1.278
43895W        W10436   0.504  44.077   0.793
43896W        W10437  16.319  20.856   2.298
43897W        W10438  18.703  18.578  10.443
43898W        W10439  39.431  43.400  10.940
43899W        W10440   0.524  23.834  12.991
43900W        W10441  21.633   8.762  14.540
43901W        W10442  25.193  42.341  14.739
43902W        W10443  21.774  32.166   4.446
43903W        W10444  35.894  37.324   4.124
43904W        W10445  37.516  38.882   2.734
43905W        W10446   3.035   9.898   4.736
43906W        W10447   5.399  25.814  11.353
43907W        W10448   9.867  32.573   4.726
43908W        W10449  42.713  14.681   5.122
43909W        W10450  14.990   4.901   2.409
43910W        W10451   0.771   1.814   4.159
43911W        W10452  43.939  15.196   1.129
43912W        W10453  15.628  13.091  11.233
43913W        W10454   4.908  33.084   4.874
43914W        W10455   1.526   0.744  12.158
43915W        W10456  14.096   1.382  13.917
43916W        W10457  26.429  19.805  10.065
43917W        W10458  30.648   3.534  14.369
43918W        W10459  10.403   3.233   2.189
43919W        W10460  19.621  19.588  11.408
43920W        W10461  40.392   4.939  14.695
43921W        W10462  42.900  28.831   4.112
43922W        W10463  27.211  38.248   1.992
43923W        W10464   8.300  22.051  10.657
43924W        W10465   4.489  30.922   2.637
43925W        W10466   2.476   7.488  13.624
43926W        W10467  39.998   8.731  12.005
43927W        W10468  22.638  27.842   5.253
43928W        W10469  44.938   3.182  13.442
43929W        W10470  41.706  27.500  12.919
43930W        W10471  19.382   8.932   4.729
43931W        W10472  18.514   9.819  10.560
43932W        W10473  10.214  30.127  11.842
43933W        W10474  13.098  21.803   1.154
43934W        W10475  44.367  40.789  11.601
43935W        W10476  17.665  12.737  10.595
43936W        W10477  17.067  28.701  14.007
43937W        W10478  20.908  27.612  12.376
43938W        W10479   9.112   2.754   3.338
43939W        W10480  42.090  35.136   0.656
43940W        W10481   4.391  16.907  13.866
43941W        W10482   1.162  12.274  14.115
43942W        W10483   5.989  43.088   0.779
43943W        W10484   7.364  33.548   0.699
43944W        W10485   7.789  37.555  10.255
43945W        W10486   2.889  17.317   1.888
43946W        W10487  43.824   0.757   4.417
43947W        W10488  34.916  16.686   1.776
43948W        W10489  19.585  29.756   3.175
43949W        W10490  22.141  19.997  11.050
43950W        W10491  14.162  32.954  13.115
43951W        W10492   3.927  34.450  13.907
43952W        W10493  17.114  32.939  14.782
43953W        W10494  32.057  39.406   4.422
43954W        W10495  14.126   8.437   0.953
43955W        W10496  21.085  10.145   2.708
43956W        W10497  11.601  20.854  13.878
43957W        W10498  37.081  42.449   0.920
43958W        W10499   9.463  30.983   3.334
43959W        W10500   1.801  29.273   4.163
43960W        W10501  36.230  14.429   1.311
43961W        W10502  30.573  13.780  12.398
43962W        W10503  27.058  37.596  13.481
43963W        W10504  27.522  12.828  14.019
43964W        W10505   8.891  25.587   0.603
43965W        W10506   5.284   2.514  12.517
43966W        W10507  23.587   2.997   0.208
43967W        W10508  30.847  34.018   0.226
43968W        W10509  42.304  25.660   1.938
43969W        W10510   1.326  10.795   3.685
43970W        W10511  35.945  42.443  12.966
43971W        W10512  23.969  19.594  14.726
43972W        W10513  40.306  40.560   1.361
43973W        W10514  26.659  42.773   1.343
43974W        W10515   7.735   9.138  12.463
43975W        W10516  37.878  43.285  11.585
43976W        W10517  16.999  43.059   1.969
43977W        W10518  39.539  41.126   1.950
43978W        W10519  39.068  42.955  13.519
43979W        W10520  13.588  25.959   2.880
43980W        W10521   3.560  19.696   0.629
43981W        W10522  44.320  14.562   4.975
43982W        W10523  19.954  17.222  14.916
43983W        W10524  38.957  13.066   5.053
43984W        W10525  28.655  36.486  11.065
43985W        W10526  22.497  44.112   5.067
43986W        W10527   6.320  12.013  12.478
43987W        W10528   8.794  39.194   3.562
43988W        W10529  37.930   8.227   3.213
43989W        W10530  15.620   1.385  14.011
43990W        W10531  15.289  25.540   1.279
43991W        W10532  26.219   1.335  14.831
43992W        W10533  22.056  37.421  10.683
43993W        W10534  40.803  13.187  11.998
43994W        W10535   5.977  17.263   2.864
43995W        W10536  36.146  44.437   3.214
43996W        W10537  35.534   9.966   3.250
43997W        W10538  13.279  34.457   0.258
43998W        W10539  38.153  38.047  13.808
43999W        W10540  39.347  43.720   4.252
44000W        W10541   3.662  20.836  13.854
44001W        W10542   0.111  26.308  14.417
44002W        W10543  42.011  13.665   1.005
44003W        W10544  41.065  40.549  14.308
44004W        W10545  14.550  25.606  12.499
44005W        W10546   7.942  30.392   2.300
44006W        W10547  34.589   3.782  12.801
44007W        W10548  43.388  30.627   3.277
44008W        W10549  24.767  32.574   0.433
44009W        W10550  12.322   2.482  12.403
44010W        W10551  41.041  39.877   3.586
44011W        W10552  40.518   1.538  11.428
44012W        W10553   9.359  13.732   1.469
44013W        W10554  19.274   1.153   2.234
44014W        W10555  27.108  15.097  14.503
44015W        W10556   3.330  22.905   2.444
44016W        W10557  24.899   2.698  12.154
44017W        W10558  18.856  39.998  14.564
44018W        W10559  28.607  12.198   0.011
44019W        W10560  17.184  12.511   1.723
44020W        W10561  28.495  19.082  11.133
44021W        W10562   1.317  24.288  12.511
44022W        W10563  22.939  20.778   3.563
44023W        W10564   6.207  33.130  13.944
44024W        W10565  23.708  38.123   1.727
44025W        W10566  38.982  28.022  11.587
44026W        W10567  17.798   4.497  12.521
44027W        W10568  36.024  18.768  13.410
44028W        W10569  18.564   6.176   1.316
44029W        W10570  35.042  24.144  14.361
44030W        W10571  15.156  34.966   0.419
44031W        W10572  38.387  40.406   1.892
44032W        W10573  12.004  44.938   1.282
44033W        W10574  32.020  41.535   4.052
44034W        W10575  17.782  16.740   1.348
44035W        W10576  32.609  11.806  14.858
44036W        W10577  25.985  44.408  10.675
44037W        W10578   5.177   8.652  13.442
44038W        W10579  13.362  12.811  10.770
44039W        W10580  17.648  40.587   4.703
44040W        W10581   3.293  24.452   2.228
44041W        W10582  21.596   5.266   3.663
44042W        W10583   4.340  31.211   3.580
44043W        W10584  39.975  14.361   3.640
44044W        W10585  22.167  33.362   0.902
44045W        W10586  16.571  26.110   0.361
44046W        W10587   4.758  23.575  11.423
44047W        W10588   9.171  22.542   2.690
44048W        W10589  40.409  19.118  13.516
44049W        W10590  34.391  24.106   4.222
44050W        W10591   0.350  10.341  11.869
44051W        W10592   8.763  26.121   0.408
44052W        W10593  44.009  12.156  11.426
44053W        W10594  29.925   4.493  14.749
44054W        W10595  14.096  14.046  14.389
44055W        W10596  10.424  26.143  13.455
44056W        W10597  16.790  20.133   3.761
44057W        W10598  16.694  22.153   4.540
44058W        W10599  12.979  12.180   3.671
44059W        W10600   3.673  21.957   4.161
44060W        W10601  34.820   3.097   1.869
44061W        W10602  13.254  33.713   3.127
44062W        W10603   3.210  17.648  11.921
44063W        W10604  43.917  30.199   3.999
44064W        W10605   6.255   5.701   1.838
44065W        W10606  36.993  27.296   4.107
44066W        W10607  25.575  39.940   0.814
44067W        W10608  24.900  37.835  11.112
44068W        W10609  21.696   7.691  11.575
44069W        W10610  15.577  44.691  14.608
44070W        W10611   1.276  12.642  14.492
44071W        W10612   4.653   2.984   1.286
44072W        W10613  11.410   6.244   0.450
44073W        W10614   6.632  38.303  10.455
44074W        W10615  38.492  20.010  10.421
44075W        W10616   4.212  21.580   4.909
44076W        W10617  42.428  37.444   0.211
44077W        W10618  36.206  15.440   4.894
44078W        W10619  44.483  37.050   3.180
44079W        W10620  36.356   0.162  14.959
44080W        W10621  26.506  38.016   4.520
44081W        W10622  39.628  35.738  12.508
44082W        W10623  15.725  14.283  10.162
44083W        W10624   4.840  30.655   4.644
44084W        W10625  34.472  21.653  12.084
44085W        W10626  25.938  29.585   1.817
44086W        W10627   1.857  36.842  13.079
44087W        W10628  19.639  35.494  12.918
44088W        W10629  16.774  22.996  12.101
44089W        W10630  22.495  43.090  11.765
44090W        W10631  30.650  22.201   1.246
44091W        W10632   0.626  40.428  11.113
44092W        W10633  31.050   5.894  13.460
44093W        W10634   6.291   7.232  10.799
44094W        W10635  12.320  28.209   2.815
44095W        W10636  17.296   1.916  12.048
44096W        W10637  40.504  14.092   1.743
44097W        W10638  35.091  14.296  11.515
44098W        W10639  20.676   4.019   2.355
44099W        W10640  38.990  19.969   3.985
44100W        W10641  12.733  22.668  12.860
44101W        W10642  23.677  43.190  14.029
44102W        W10643  19.782  22.310   0.316
44103W        W10644  10.004   0.014  11.756
44104W        W10645  29.473  10.609  11.541
44105W        W10646  14.905  19.258   2.285
44106W        W10647  28.246  44.274   4.344
44107W        W10648   0.369  11.184   2.701
44108W        W10649  12.893  28.526  14.860
44109W        W10650  26.742   4.337  13.104
44110W        W10651   7.238  23.324  12.534
44111W        W10652  18.786  34.839  10.711
44112W        W10653  20.439  40.311   0.187
44113W        W10654  30.955  13.238   1.931
44114W        W10655   8.537  41.431   4.579
44115W        W10656  19.580   3.399  12.408
44116W        W10657   5.078  43.831   0.006
44117W        W10658  24.566  35.754  14.459
44118W        W10659  42.106  43.972  14.343
44119W        W10660  10.291  15.045   4.911
44120W        W10661  43.066  10.927   0.506
44121W        W10662  25.472  33.376  11.935
44122W        W10663  16.851  27.099   2.149
44123W        W10664  23.040  16.196   2.844
44124W        W10665  17.247  19.965  11.620
44125W        W10666  28.482   0.368   2.502
44126W        W10667  22.051   7.276  12.612
44127W        W10668   7.177  19.713  13.496
44128W        W10669  43.491  22.226  10.920
44129W        W10670   2.428   8.655   4.510
44130W        W10671  38.887  32.918  13.988
44131W        W10672  38.437   0.196   0.544
44132W        W10673  23.252  35.949   3.287
44133W        W10674  37.581   8.386   4.524
44134W        W10675  38.376  17.990   3.239
44135W        W10676   2.132  26.550   4.340
44136W        W10677  39.016  27.469  10.951
44137W        W10678  36.506   3.850   1.422
44138W        W10679  28.988  33.098  11.237
44139W        W10680  10.766  41.881  10.875
44140W        W10681  11.215  12.895   0.034
44141W        W10682   9.103  20.524   2.070
44142W        W10683  43.465  21.035   5.059
44143W        W10684  14.003  42.525   3.236
44144W        W10685  15.246  21.214   1.324
44145W        W10686  20.304  44.486  10.646
44146W        W10687  19.391   1.337  14.048
44147W        W10688  42.590  12.006   4.379
44148W        W10689   9.250  44.073  13.341
44149W        W10690   4.325  16.882  12.075
44150W        W10691   6.402  43.734   1.231
44151W        W10692  22.812   9.307   4.655
44152W        W10693  32.566  37.842  14.864
44153W        W10694  19.068  25.389   3.686
44154W        W10695   9.572  24.586   1.614
44155W        W10696   6.284   1.607   1.668
44156W        W10697  20.514  18.272   5.099
44157W        W10698  35.378  23.671  13.779
44158W        W10699   4.817  40.238   0.741
44159W        W10700  12.631  19.627  12.371
44160W        W10701  29.602  27.608  13.386
44161W        W10702  23.648   4.618   3.579
44162W        W10703  24.105  14.462   3.374
44163W        W10704   1.430  10.414  14.931
44164W        W10705   1.739   3.243  13.858
44165W        W10706  14.883   2.314   4.637
44166W        W10707  27.005  16.760   4.051
44167W        W10708  16.137  33.079  12.227
44168W        W10709  21.016  26.836  11.435
44169W        W10710  31.637  22.706   1.375
44170W        W10711  44.392  30.367   2.206
44171W        W10712  43.890  31.285  12.620
44172W        W10713  40.828  14.314  10.461
44173W        W10714  31.160  22.946  12.473
44174W        W10715   0.266  41.189   1.341
44175W        W10716  40.011  16.840  13.542
44176W        W10717  32.791   9.942  13.984
44177W        W10718  13.090  36.635  13.887
44178W        W10719  17.785  35.633  11.154
44179W        W10720  17.439  31.249  10.088
44180W        W10721  28.436  22.743  14.488
44181W        W10722   2.214  10.933   1.452
44182W        W10723  12.243   1.814   4.247
44183W        W10724  40.191  35.513   0.461
44184W        W10725   9.616  14.754  14.477
44185W        W10726   5.875  25.696   1.785
44186W        W10727   9.473  41.853  13.848
44187W        W10728  29.496  21.361  11.321
44188W        W10729   5.719  15.943  14.710
44189W        W10730   0.558  18.789   1.309
44190W        W10731   7.092  27.006  10.697
44191W        W10732   0.005   9.330   0.985
44192W        W10733  39.626  40.151  13.475
44193W        W10734  16.896   6.791  14.760
44194W        W10735  33.341  28.191  10.880
44195W        W10736  30.711  39.506  14.300
44196W        W10737  33.613  25.232  11.128
44197W        W10738  27.397   5.260   1.376
44198W        W10739  17.363  22.994  11.369
44199W        W10740  42.858  14.584  13.564
44200W        W10741   8.804  24.509   4.424
44201W        W10742  12.549  41.007   3.335
44202W        W10743  42.807  39.605  14.802
44203W        W10744  11.159  34.718   4.291
44204W        W10745  21.600  14.210  11.629
44205W        W10746  41.549  26.975  14.372
44206W        W10747  13.060  29.539   4.633
44207W        W10748  12.586   5.926  12.599
44208W        W10749  18.460  24.001  10.713
44209W        W10750   8.617  42.159  11.860
44210W        W10751  11.073   3.726  13.580
44211W        W10752   9.836  23.397  12.905
44212W        W10753   7.233   3.390  11.570
44213W        W10754  14.101  17.238  11.876
44214W        W10755  15.555  18.067  12.692
44215W        W10756  39.576  42.039   4.582
44216W        W10757   9.901  23.650  13.804
44217W        W10758  10.584   5.294  12.516
44218W        W10759  21.061  29.916   4.707
44219W        W10760  37.487  27.540   0.872
44220W        W10761  28.583  38.062  11.118
44221W        W10762  19.600  15.550   3.191
44222W        W10763  29.851  25.413  11.249
44223W        W10764  17.270  22.768  12.011
44224W        W10765  34.606  30.395   1.686
44225W        W10766   8.306  40.157   0.672
44226W        W10767   1.189  13.178   3.382
44227W        W10768   2.915  22.349  10.741
44228W        W10769  23.914   8.614   9.922
44229W        W10770  11.103  20.785   4.433
44230W        W10771  21.247  32.128   1.335
44231W        W10772  18.101  38.271   3.839
44232W        W10773  21.965  10.359  14.758
44233W        W10774  28.183  30.281  13.548
44234W        W10775   0.386  16.307  14.752
44235W        W10776  35.082  28.929  13.294
44236W        W10777  24.715  37.564   2.528
44237W        W10778  40.713  16.533  11.498
44238W        W10779  28.501  32.132   2.765
44239W        W10780  28.433  14.726   1.827
44240W        W10781  39.854  11.559   4.083
44241W        W10782   1.875   9.713  10.720
44242W        W10783  24.564  11.387  13.141
44243W        W10784  15.205  38.296  13.616
44244W        W10785  44.508  36.178   5.120
44245W        W10786   2.924  39.365  12.693
44246W        W10787  15.813  31.065   1.479
44247W        W10788  43.002  25.656   0.038
44248W        W10789   3.662  41.407   1.957
44249W        W10790  27.629  20.113  13.848
44250W        W10791   8.761  23.923  11.822
44251W        W10792   8.928  34.419   1.260
44252W        W10793  17.798  44.112  11.073
44253W        W10794  11.613  38.334  12.372
44254W        W10795   1.809  42.471   4.355
44255W        W10796  26.998   3.721  13.903
44256W        W10797  29.689  24.476  10.770
44257W        W10798  22.634  17.701  10.247
44258W        W10799  20.209  31.908  13.395
44259W        W10800  14.645   6.423   2.446
44260W        W10801  32.114  17.134   0.648
44261W        W10802  30.335  19.736   0.722
44262W        W10803   8.121  35.941  13.477
44263W        W10804  25.658  37.206  14.470
44264W        W10805   2.902  14.776   1.397
44265W        W10806  29.627  27.241  10.638
44266W        W10807  10.476  21.507  14.062
44267W        W10808  17.075  15.804   3.895
44268W        W10809   2.717  15.607  10.672
44269W        W10810  32.465  16.584  13.467
44270W        W10811  42.830  11.369   2.267
44271W        W10812  17.692   6.889   0.684
44272W        W10813   8.713   1.309   4.229
44273W        W10814  40.524  18.965   1.193
44274W        W10815  36.576  18.763   2.452
44275W        W10816   5.867   9.396  10.622
44276W        W10817  19.204  20.773   1.172
44277W        W10818  26.980  41.973  11.058
44278W        W10819  23.451  23.240  14.943
44279W        W10820  16.542   8.770   2.718
44280W        W10821  42.035  35.010  11.627
44281W        W10822  22.492   9.827   0.243
44282W        W10823  23.788  38.149  13.608
44283W        W10824  28.778  38.455   3.682
44284W        W10825  22.571  13.808   1.655
44285W        W10826  10.499  12.568  12.697
44286W        W10827  41.565  33.935  13.908
44287W        W10828  12.258  12.474  10.400
44288W        W10829  21.776  27.756  14.496
44289W        W10830  12.334   2.645  11.133
44290W        W10831  18.213  20.453   2.544
44291W        W10832  20.653  25.736   3.709
44292W        W10833   2.386  12.131  12.708
44293W        W10834   5.262  38.115  12.981
44294W        W10835  26.554  19.144   1.653
44295W        W10836  24.656  43.457  11.310
44296W        W10837  35.600  10.259  14.462
44297W        W10838  12.196  43.486   4.655
44298W        W10839  17.064  43.452   2.628
44299W        W10840  17.256  35.651  10.309
44300W        W10841   0.811  43.965  14.385
44301W        W10842  20.680  31.571  14.284
44302W        W10843  30.170  33.951  14.347
44303W        W10844   6.891   0.958   4.961
44304W        W10845  12.147  19.755  12.483
44305W        W10846  41.540   9.398  11.669
44306W        W10847  42.963   6.476   3.437
44307W        W10848  24.513  16.050   0.820
44308W        W10849  25.602  25.753   3.845
44309W        W10850  44.489   2.321   4.166
44310W        W10851  23.181  40.608  13.389
44311W        W10852   8.173   6.184   2.206
44312W        W10853   6.722   2.242   0.523
44313W        W10854  41.799  20.306  14.727
44314W        W10855  43.868   5.032   4.518
44315W        W10856  31.396  43.064   2.230
44316W        W10857  13.758  42.053  10.732
44317W        W10858  40.937  41.710  13.136
44318W        W10859  12.728  31.401  12.127
44319W        W10860   3.754   1.315   1.322
44320W        W10861  35.994   3.141   1.953
44321W        W10862  36.425  25.001  13.069
44322W        W10863  30.326  30.042   0.377
44323W        W10864  41.386  11.635   3.784
44324W        W10865  36.636  25.529  11.516
44325W        W10866  36.745   5.830  11.312
44326W        W10867   4.470   2.962   4.058
44327W        W10868  10.473   1.135   1.806
44328W        W10869   9.855  29.233   4.116
44329W        W10870  31.420   1.881  11.139
44330W        W10871  29.480  37.307   2.251
44331W        W10872  16.727  40.840   3.390
44332W        W10873  23.316  17.617  14.312
44333W        W10874  20.385  21.239   9.976
44334W        W10875  26.059  20.660   4.490
44335W        W10876  16.372  14.730   2.725
44336W        W10877  11.707   7.925  11.849
44337W        W10878  31.146   1.318   0.389
44338W        W10879  38.952  17.242  13.442
44339W        W10880  31.593  11.581   2.748
44340W        W10881   9.593   2.864   4.530
44341W        W10882  22.687  19.602  13.026
44342W        W10883  17.762  11.870  14.934
44343W        W10884   1.787  38.908  10.993
44344W        W10885  29.441   5.230  13.740
44345W        W10886  33.521  26.691   0.334
44346W        W10887  35.595  16.635   2.710
44347W        W10888  24.128  37.619  12.857
44348W        W10889  38.845  28.561  12.571
44349W        W10890  26.469  36.015  11.537
44350W        W10891   8.351   9.130   4.919
44351W        W10892   2.720   2.439  13.443
44352W        W10893  22.620  14.323   1.684
44353W        W10894  32.667  28.530   2.913
44354W        W10895   1.821   5.482  13.838
44355W        W10896  19.324  15.733  12.394
44356W        W10897  10.313   5.145  14.866
44357W        W10898  15.052  16.256   4.151
44358W        W10899  10.828  21.646  10.586
44359W        W10900   5.146  33.038   0.492
44360W        W10901  35.581  35.444   1.259
44361W        W10902  24.489  16.097  12.947
44362W        W10903   1.320  41.353  14.419
44363W        W10904   4.212  26.925   1.995
44364W        W10905  44.170  11.787  11.733
44365W        W10906  38.516  11.788  11.502
44366W        W10907  17.629   2.710  14.968
44367W        W10908  32.941   2.990  11.676
44368W        W10909  28.052  29.419   4.374
44369W        W10910  24.660  25.689  14.983
44370W        W10911   6.536  10.162  12.537
44371W        W10912  10.820   7.843   0.715
44372W        W10913  20.455  32.405   4.825
44373W        W10914  43.215  21.303  14.388
44374W        W10915  38.123  17.540   3.798
44375W        W10916   7.402  41.520  12.930
44376W        W10917  41.715  27.036  14.865
44377W        W10918  31.056   3.314  10.398
44378W        W10919  16.135  20.033   3.869
44379W        W10920  23.002  23.498  11.342
44380W        W10921  25.967   1.816  10.691
44381W        W10922  30.105  25.822   0.068
44382W        W10923  19.022  23.755   3.664
44383W        W10924  12.361  13.662   3.994
44384W        W10925  31.369  28.491   4.910
44385W        W10926  24.161  10.591   0.322
44386W        W10927  28.606  10.903  12.529
44387W        W10928   6.953  30.546  13.171
44388W        W10929  16.803  32.559  11.879
44389W        W10930   6.501  13.558  11.254
44390W        W10931  38.107  43.310  10.739
44391W        W10932  16.062  13.560   1.479
44392W        W10933  22.334  44.495  11.990
44393W        W10934  36.881   0.071  14.958
44394W        W10935  38.444  20.522   1.906
44395W        W10936   5.604  35.732   3.694
44396W        W10937   2.687  15.742  14.514
44397W        W10938  20.084  19.726  11.669
44398W        W10939  12.230   5.342  12.828
44399W        W10940  43.494  42.913  14.217
44400W        W10941  33.903  12.592  13.198
44401W        W10942  25.134  12.495   3.241
44402W        W10943   7.891   6.385   1.685
44403W        W10944  39.404   4.196  11.526
44404W        W10945  25.170  29.802  14.278
44405W        W10946  10.617  11.857   2.427
44406W        W10947   4.833   9.353  12.105
44407W        W10948   0.972  12.638  12.921
44408W        W10949   4.713   2.760   0.820
44409W        W10950  31.467  19.815   2.263
44410W        W10951  20.875  30.247  12.221
44411W        W10952   9.797   1.492   1.269
44412W        W10953  38.667  42.865   0.935
44413W        W10954  17.222  40.502   2.770
44414W        W10955  36.640  42.863   0.536
44415W        W10956  42.981  17.069   1.405
44416W        W10957  14.599  26.133  11.853
44417W        W10958  34.512   7.275   0.225
44418W        W10959  37.113  19.716  10.737
44419W        W10960  25.145  28.212   2.945
44420W        W10961  34.793  36.910   0.181
44421W        W10962  27.585  34.543   0.939
44422W        W10963  29.466  28.257  10.240
44423W        W10964   3.452  24.963  12.985
44424W        W10965   5.311  17.156  14.668
44425W        W10966  35.388  37.561  13.790
44426W        W10967  30.973  18.559   4.704
44427W        W10968  22.080  35.873  12.111
44428W        W10969  20.575  20.863  11.164
44429W        W10970  14.301  24.511  13.370
44430W        W10971  12.260   3.121   4.650
44431W        W10972  33.368   0.153  10.915
44432W        W10973  14.685  30.671  12.925
44433W        W10974  37.407  42.841   3.827
44434W        W10975  15.689   6.402   0.282
44435W        W10976  31.553  38.609  10.781
44436W        W10977   7.230  37.662   3.196
44437W        W10978  29.439   6.969  14.913
44438W        W10979   6.995  42.999  14.902
44439W        W10980  11.566  37.576   2.318
44440W        W10981  39.577   4.718  11.457
44441W        W10982  30.862  10.830   4.598
44442W        W10983  23.168  41.858   0.776
44443W        W10984  19.715  40.250   2.401
44444W        W10985  21.057  43.141   3.715
44445W        W10986  32.380  25.980   0.861
44446W        W10987  23.565  28.661   4.422
44447W        W10988   7.583   0.751   0.147
44448W        W10989  18.648  12.652   2.647
44449W        W10990  30.902  28.006   3.689
44450W        W10991  38.497   8.392   4.585
44451W        W10992   9.624  40.452   0.573
44452W        W10993   0.813  12.901  13.376
44453W        W10994  29.617   2.484  12.633
44454W        W10995  43.974  28.148   0.509
44455W        W10996  22.071  32.973  10.187
44456W        W10997  39.132  39.880   4.663
44457W        W10998  26.687   8.298  11.887
44458W        W10999  35.541  42.728   4.896
44459W        W11000  15.530   4.871  13.017
44460W        W11001  27.656  28.285  14.769
44461W        W11002   3.913  28.976   2.216
44462W        W11003  10.581  17.530  14.422
44463W        W11004   7.848  42.649   0.332
44464W        W11005  11.368   1.823   3.085
44465W        W11006  38.636  44.137  10.890
44466W        W11007  24.786   2.350  14.927
44467W        W11008  37.423   3.633  11.999
44468W        W11009  26.503  44.196   3.132
44469W        W11010  11.470  10.093   3.110
44470W        W11011  23.091  23.959   3.237
44471W        W11012  17.036  30.120  12.352
44472W        W11013  11.160  41.536  10.803
44473W        W11014  17.481  31.195  12.395
44474W        W11015  22.723   7.659   3.284
44475W        W11016   4.738   3.839   2.639
44476W        W11017  27.093   2.372   0.451
44477W        W11018   7.842  34.171   3.695
44478W        W11019  44.161   0.674  12.614
44479W        W11020  30.948   4.793  14.468
44480W        W11021  10.313  10.388  12.652
44481W        W11022  42.900  12.139  13.207
44482W        W11023  21.126  28.045   0.580
44483W        W11024  24.782  18.767   4.683
44484W        W11025  22.625  42.518   3.145
44485W        W11026  30.878  34.385  13.008
44486W        W11027  17.255  13.331   1.426
44487W        W11028   9.355   2.023   1.795
44488W        W11029   2.490  11.913   0.674
44489W        W11030  44.785  26.179   0.663
44490W        W11031  14.098  36.747  10.639
44491W        W11032  22.812  39.247  12.540
44492W        W11033  20.018  37.560  14.800
44493W        W11034  41.338  18.377   0.210
44494W        W11035   5.105  30.387  14.229
44495W        W11036  39.444  24.529   2.243
44496W        W11037  18.195  17.511   3.654
44497W        W11038  23.929  41.245   4.993
44498W        W11039  31.130  38.807   1.430
44499W        W11040  25.066  14.804   3.307
44500W        W11041  24.322  16.570  13.105
44501W        W11042  26.466   8.285  11.414
44502W        W11043  32.940   4.496  11.556
44503W        W11044  19.174  12.620  12.430
44504W        W11045  11.871  13.629   2.134
44505W        W11046   6.786   0.572   4.133
44506W        W11047   5.697  13.800   5.203
44507W        W11048  42.472   6.224  12.131
44508W        W11049   9.590  30.611  11.532
44509W        W11050  42.085  19.165   3.989
44510W        W11051  38.378  23.321  14.085
44511W        W11052   3.387  16.721  12.027
44512W        W11053  12.713   5.395   1.724
44513W        W11054  35.609  38.605   2.861
44514W        W11055  22.526  38.144  14.868
44515W        W11056  17.581  28.069   2.823
44516W        W11057   0.430  29.308   0.301
44517W        W11058  11.097  37.344  12.004
44518W        W11059   0.786  40.474   1.446
44519W        W11060   0.416  13.792   0.213
44520W        W11061  31.772   3.023  12.868
44521W        W11062  21.132  42.315   0.446
44522W        W11063  38.398  44.611   1.205
44523W        W11064  37.582   7.524   0.631
44524W        W11065  39.753  18.767  10.962
44525W        W11066  22.720  34.944   1.831
44526W        W11067  12.326  14.066   1.761
44527W        W11068   7.349   7.286  12.784
44528W        W11069   4.707   0.750   0.911
44529W        W11070  20.040  27.646  10.866
44530W        W11071  26.794   3.850   1.228
44531W        W11072   2.297  19.142  11.391
44532W        W11073  11.226  40.119  14.964
44533W        W11074  39.133  34.947  11.135
44534W        W11075   2.895   3.233   0.200
44535W        W11076   5.396  37.989   2.225
44536W        W11077   2.121  33.052  10.705
44537W        W11078   8.665   0.475  10.734
44538W        W11079  22.221   5.714   3.007
44539W        W11080  26.397   0.820   4.054
44540W        W11081  39.612  35.030  13.337
44541W        W11082  12.685  42.528  13.054
44542W        W11083   8.197  40.699   5.068
44543W        W11084   3.930  19.472   0.364
44544W        W11085  23.104  19.203   0.595
44545W        W11086  40.781  31.478   4.139
44546W        W11087  25.099  13.520   4.615
44547W        W11088  11.819  25.139   1.286
44548W        W11089   5.850  12.198   1.645
44549W        W11090  18.167  10.585  10.677
44550W        W11091   7.535   4.326   2.412
44551W        W11092   1.974   2.645  13.045
44552W        W11093   7.127  27.223   0.711
44553W        W11094  25.380   6.710  13.467
44554W        W11095  28.555  20.645   0.442
44555W        W11096  42.227  32.040  13.921
44556W        W11097  14.141  24.436   3.375
44557W        W11098  28.083  18.751  12.376
44558W        W11099  15.064   5.322  10.504
44559W        W11100   3.931  13.756   1.373
44560W        W11101  39.284  11.304  13.388
44561W        W11102  19.607  19.208   0.233
44562W        W11103  32.181  28.366  10.794
44563W        W11104  10.795  18.533  11.008
44564W        W11105  21.164  31.998  11.490
44565W        W11106  37.694  32.376  13.935
44566W        W11107   1.015   0.961   2.324
44567W        W11108  38.773   2.519  13.940
44568W        W11109  18.988  30.231  12.862
44569W        W11110  24.748  33.174  13.562
44570W        W11111  31.765  20.419   1.784
44571W        W11112   5.462   0.354  11.561
44572W        W11113   1.223  15.185  14.928
44573W        W11114  36.129  44.015  10.645
44574W        W11115  19.088  25.530   0.266
44575W        W11116  22.567  15.345   4.754
44576W        W11117  15.779  24.921  10.903
44577W        W11118  31.897   6.440   1.914
44578W        W11119  44.333  26.478  11.531
44579W        W11120   5.291  34.854   3.405
44580W        W11121  34.360  43.171  14.879
44581W        W11122  28.972  18.231   4.081
44582W        W11123  19.775  20.831  13.617
44583W        W11124   7.973  20.058   2.866
44584W        W11125  26.371  30.343   5.003
44585W        W11126  43.834  25.760   3.327
44586W        W11127  26.895  22.096   0.356
44587W        W11128   1.397   1.243   1.421
44588W        W11129   3.368  15.826  14.906
44589W        W11130  39.550  29.149   0.708
44590W        W11131  16.728   5.162  11.159
44591W        W11132   5.876  41.403   2.418
44592W        W11133  15.118  12.519   0.697
44593W        W11134  12.825  43.754   1.345
44594W        W11135   9.867  15.144   4.511
44595W        W11136  24.981  39.575  12.474
44596W        W11137  29.558  32.378   3.143
44597W        W11138  15.100  28.718  11.629
44598W        W11139  20.230  41.813  14.374
44599W        W11140  15.114  26.985   1.022
44600W        W11141   4.926  30.847   5.139
44601W        W11142  16.486  39.350   2.696
44602W        W11143  37.860   3.215   2.162
44603W        W11144  14.060  18.807   4.351
44604W        W11145   6.842  23.247   3.578
44605W        W11146  23.543  29.335   1.826
44606W        W11147  25.232   7.275   4.155
44607W        W11148  30.008  15.802   1.253
44608W        W11149  23.530  14.755   1.838
44609W        W11150  12.597  29.478   3.348
44610W        W11151  40.317   0.025  13.966
44611W        W11152  23.058  26.154  11.698
44612W        W11153  16.976   9.713   3.834
44613W        W11154  30.505  31.293   3.522
44614W        W11155  15.873  11.841  11.031
44615W        W11156  38.741  32.175   1.710
44616W        W11157  27.276  33.154  11.230
44617W        W11158  14.564  16.129  14.511
44618W        W11159   9.875   4.363   1.308
44619W        W11160  26.980   6.662   4.129
44620W        W11161  40.917  16.805  14.185
44621W        W11162  22.987  22.673  11.888
44622W        W11163  23.682  25.001  14.520
44623W        W11164  21.984  34.605   2.891
44624W        W11165  37.480   9.067  12.094
44625W        W11166  14.001   9.272  14.156
44626W        W11167   8.607  15.769   3.740
44627W        W11168   6.921  32.881  12.998
44628W        W11169  13.699  16.894  14.253
44629W        W11170   6.776   0.108  12.949
44630W        W11171   8.627  25.021   2.830
44631W        W11172  34.975   0.227  13.453
44632W        W11173  36.986  39.720   4.132
44633W        W11174   3.272   9.207   4.089
44634W        W11175  43.124  27.993   2.727
44635W        W11176  35.080  39.894   3.372
44636W        W11177  41.514   5.757   2.743
44637W        W11178  34.981  11.915   4.672
44638W        W11179  13.723   8.774   1.052
44639W        W11180  44.567   9.863  13.352
44640W        W11181  24.468  11.533   4.503
44641W        W11182  34.143  12.498   5.698
44642W        W11183  35.502  15.788   0.442
44643W        W11184   0.449  17.571   0.357
44644W        W11185  33.606  11.504   0.718
44645W        W11186  24.221   6.816   5.076
44646W        W11187  34.035  42.842   0.983
44647W        W11188  36.890   1.296   1.012
44648W        W11189  24.450  18.779  12.402
44649W        W11190   5.865   9.302  13.184
44650W        W11191  42.725  34.850  13.921
44651W        W11192  14.631  35.482  11.571
44652W        W11193  29.907  39.978   3.429
44653W        W11194  33.503  42.974  11.473
44654W        W11195   8.489  13.071  14.896
44655W        W11196   2.201  39.000  13.844
44656W        W11197  28.446  35.493   4.798
44657W        W11198   3.838  43.802   3.234
44658W        W11199  12.212  28.546   3.218
44659W        W11200  17.021  20.931  13.430
44660W        W11201   5.626  29.903  11.622
44661W        W11202  15.039  34.131   0.185
44662W        W11203  18.710  30.944   0.066
44663W        W11204  42.873  24.283  12.966
44664W        W11205   5.477  11.763   1.437
44665W        W11206  23.089  16.977  11.980
44666W        W11207  42.387  14.708   3.720
44667W        W11208  43.363   4.250   2.956
44668W        W11209  39.942  32.031  13.220
44669W        W11210  31.411  40.174   3.641
44670W        W11211  40.622  32.986  13.879
44671W        W11212   1.789  15.783   0.704
44672W        W11213   1.663  30.533  13.571
44673W        W11214   6.286   5.792  13.943
44674W        W11215  35.559  41.758   4.422
44675W        W11216   1.613  13.354   3.678
44676W        W11217  21.553  17.294  10.628
44677W        W11218  19.327   8.644   2.447
44678W        W11219   6.981  11.275  10.724
44679W        W11220  43.770  17.233  11.636
44680W        W11221  23.545  30.631  14.296
44681W        W11222  35.580  32.650  14.923
44682W        W11223  38.886   9.143  13.038
44683W        W11224   7.421   9.692   1.938
44684W        W11225   5.288  21.275  11.023
44685W        W11226   8.698  14.526   5.022
44686W        W11227  37.089  37.594  12.473
44687W        W11228   3.297  26.407   1.570
44688W        W11229  13.260  34.654  13.858
44689W        W11230  42.813   3.295  11.463
44690W        W11231   6.834  37.513  11.658
44691W        W11232  12.299  38.924   3.251
44692W        W11233  29.952  42.055  12.114
44693W        W11234  13.220  18.711   4.560
44694W        W11235  32.249  42.881  12.012
44695W        W11236  36.552  35.641   5.107
44696W        W11237  15.307  10.322   3.675
44697W        W11238  22.672  17.156   2.334
44698W        W11239  19.135  17.778  12.236
44699W        W11240  43.209  32.342  11.670
44700W        W11241   8.297  27.089  13.502
44701W        W11242   2.698  17.918   1.677
44702W        W11243   9.250  31.370   3.037
44703W        W11244  13.032   8.479  14.324
44704W        W11245  24.074  31.617   3.802
44705W        W11246   2.247  24.264   0.840
44706W        W11247  41.427  10.815   4.402
44707W        W11248  32.023   6.952   3.281
44708W        W11249  28.552  31.858  11.029
44709W        W11250  17.331   1.267  10.760
44710W        W11251   7.876  13.774  14.367
44711W        W11252  34.403  30.690   4.800
44712W        W11253  29.939  12.611  14.679
44713W        W11254  25.397   2.915  12.903
44714W        W11255  14.045  37.544  12.708
44715W        W11256  25.896  16.729   4.633
44716W        W11257  42.374  20.028   2.590
44717W        W11258  31.646  41.519   3.277
44718W        W11259  41.267   3.191  13.897
44719W        W11260  32.461  32.032  10.918
44720W        W11261  10.123  21.186   0.805
44721W        W11262   9.143   7.207   3.789
44722W        W11263   4.338   5.715  11.392
44723W        W11264  32.662  11.571  11.499
44724W        W11265  16.805  30.034   2.600
44725W        W11266  23.714  42.369   1.334
44726W        W11267  36.419  11.606   1.190
44727W        W11268   5.850   6.269   0.199
44728W        W11269  10.054  26.636   3.217
44729W        W11270  35.962  33.274  13.044
44730W        W11271  16.113  43.802   4.560
44731W        W11272  32.438  29.911   3.592
44732W        W11273   2.355  12.819  11.584
44733W        W11274  22.238  15.552   2.849
44734W        W11275  44.637  17.739  11.532
44735W        W11276   2.464  35.018  10.678
44736W        W11277  44.966  39.945   0.741
44737W        W11278  21.689  16.371   2.919
44738W        W11279   4.073  14.057   2.641
44739W        W11280  42.938  44.802  11.599
44740W        W11281   7.419  31.624  10.704
44741W        W11282  33.289  10.335  13.157
44742W        W11283  21.982  23.143   2.051
44743W        W11284  39.566  43.583  10.460
44744W        W11285  41.106   3.932  11.508
44745W        W11286  40.349   3.428  14.392
44746W        W11287  12.544  31.366  14.282
44747W        W11288  24.616  43.321  12.148
44748W        W11289  12.773  12.949  13.830
44749W        W11290  29.509   3.748  14.064
44750W        W11291  22.594  33.286  14.393
44751W        W11292  36.456   7.501  12.296
44752W        W11293  42.479   0.747   0.940
44753W        W11294  38.832   1.395  12.543
44754W        W11295  18.205  32.485  10.645
44755W        W11296   2.756  10.663  12.365
44756W        W11297  23.583  44.371  10.602
44757W        W11298  31.878   0.095   3.775
44758W        W11299   2.659  18.825  12.572
44759W        W11300  13.670   2.189  11.993
44760W        W11301  28.092  16.829  13.959
44761W        W11302  28.464  21.126  10.336
44762W        W11303  42.025  24.719  11.562
44763W        W11304  25.473   1.788   2.977
44764W        W11305   6.893  18.359  13.101
44765W        W11306   6.688  35.876   2.187
44766W        W11307   0.011   9.425   0.483
44767W        W11308  41.785  12.436  13.184
44768W        W11309  43.440  19.127  12.560
44769W        W11310  13.595  13.695  10.849
44770W        W11311  18.831  13.923  14.981
44771W        W11312  42.026   8.504  11.851
44772W        W11313  38.579  39.955   1.296
44773W        W11314   7.236  39.737  13.507
44774W        W11315  26.218  25.231   3.136
44775W        W11316  18.462  17.787  11.626
44776W        W11317  32.485  28.606   4.376
44777W        W11318  21.615  37.125   4.782
44778W        W11319   4.956   3.513   3.148
44779W        W11320  14.450  42.507  13.800
44780W        W11321   9.765  20.335  14.008
44781W        W11322  44.326  22.882  13.388
44782W        W11323  37.010  30.618  11.545
44783W        W11324  29.261  40.867  14.131
44784W        W11325  35.616  25.124  13.203
44785W        W11326  35.749  27.500  14.852
44786W        W11327  21.859  42.697  13.358
44787W        W11328  44.709  11.443   0.432
44788W        W11329   3.854  29.401  11.793
44789W        W11330  44.286   1.248   3.835
44790W        W11331  25.396  10.014  14.300
44791W        W11332  20.716  25.756   0.946
44792W        W11333   9.049   2.371  12.453
44793W        W11334   6.207  16.075  10.788
44794W        W11335   2.382  32.629   2.117
44795W        W11336   5.167  38.004   1.317
44796W        W11337  42.883  44.892   0.321
44797W        W11338   8.954  30.512  11.130
44798W        W11339   6.054  33.403   0.888
44799W        W11340   0.164  20.944   3.327
44800W        W11341  11.845  15.779   2.831
44801W        W11342  33.199   4.072   3.355
44802W        W11343  12.828  16.738  13.903
44803W        W11344   0.469  14.111   2.423
44804W        W11345  18.559   3.121  14.708
44805W        W11346  24.188  22.788  11.091
44806W        W11347  33.411  44.409  10.592
44807W        W11348  15.116  27.614  12.399
44808W        W11349  27.026  30.963  14.260
44809W        W11350   7.883  33.449   1.402
44810W        W11351  31.095  39.812  10.794
44811W        W11352   3.924  29.783   3.304
44812W        W11353   9.380  30.303  14.316
44813W        W11354  40.048  35.854  10.511
44814W        W11355  14.639  27.444  14.258
44815W        W11356  28.212  42.404   4.746
44816W        W11357  43.264  30.841   2.236
44817W        W11358  42.290   5.767   2.501
44818W        W11359   7.230  10.090  13.128
44819W        W11360  22.245   3.792  12.011
44820W        W11361  35.061  22.940   4.539
44821W        W11362  37.970  34.558   2.179
44822W        W11363  32.257  44.431   4.156
44823W        W11364  35.423   5.488  12.581
44824W        W11365  30.420  40.755   2.422
44825W        W11366  38.015  30.407   3.734
44826W        W11367  44.902   3.211   3.142
44827W        W11368  20.932   5.174   2.840
44828W        W11369   8.187   5.320   2.091
44829W        W11370  38.855   1.823  11.392
44830W        W11371  21.179  37.750  12.845
44831W        W11372  12.089   0.415   1.493
44832W        W11373  10.188  18.641  10.586
44833W        W11374  18.860  18.540   0.470
44834W        W11375  22.035  33.204   1.721
44835W        W11376  44.900   0.936  11.005
44836W        W11377  17.299   0.501  11.900
44837W        W11378   8.251  26.050  10.312
44838W        W11379  25.056  11.296  11.722
44839W        W11380   3.885  35.109  12.007
44840W        W11381  33.550  40.351  11.461
44841W        W11382   7.584  29.050  11.042
44842W        W11383  12.629  17.202  13.843
44843W        W11384   1.898  32.857   2.194
44844W        W11385   5.369   7.289   2.207
44845W        W11386  23.177  33.392   2.589
44846W        W11387  26.113  40.612  14.428
44847W        W11388  36.161  20.704  10.604
44848W        W11389  42.974   8.222   0.932
44849W        W11390  29.547  41.286  14.858
44850W        W11391  14.735   2.284  14.199
44851W        W11392  31.919  24.797  11.112
44852W        W11393  26.954   9.703  10.532
44853W        W11394   8.375  26.933  12.988
44854W        W11395  33.281  38.328  13.459
44855W        W11396  29.435   3.679  11.107
44856W        W11397   5.780  23.671  12.068
44857W        W11398  42.637  16.593   0.712
44858W        W11399  32.112  31.414   1.777
44859W        W11400  31.123  29.161  11.475
44860W        W11401   0.019   6.983   0.150
44861W        W11402  31.000  16.260   2.382
44862W        W11403  13.389  14.672   3.105
44863W        W11404  18.043   5.332  12.415
44864W        W11405   0.436  20.477  10.810
44865W        W11406  28.565   0.325   3.020
44866W        W11407   4.785   5.697   2.660
44867W        W11408  44.543  16.707   3.927
44868W        W11409  21.707  28.516   1.828
44869W        W11410   1.430  29.247  14.386
44870W        W11411  19.943  20.011  12.648
44871W        W11412   5.252  15.821  14.497
44872W        W11413  26.177  32.311  12.409
44873W        W11414  32.611  30.975  13.542
44874W        W11415  36.956  19.173   3.223
44875W        W11416  29.460  17.061   2.189
44876W        W11417  29.551   2.309   4.748
44877W        W11418  18.806  33.549   4.493
44878W        W11419   1.087  28.916   2.552
44879W        W11420  17.966  18.236  10.495
44880W        W11421  13.394  37.001   2.261
44881W        W11422  32.548  35.285   3.772
44882W        W11423   4.746  44.043   1.714
44883W        W11424  38.486   9.591   1.444
44884W        W11425   5.692  39.050  14.374
44885W        W11426  25.642  40.556  14.163
44886W        W11427   4.224  20.280  14.345
44887W        W11428  35.032  13.413  11.031
44888W        W11429  37.293  41.937   1.736
44889W        W11430  15.392  38.852  11.973
44890W        W11431  28.598  29.099  14.477
44891W        W11432  25.515  30.520   3.237
44892W        W11433  28.398   7.796  14.366
44893W        W11434   6.196  44.795   4.595
44894W        W11435  38.869  10.614   1.806
44895W        W11436  34.325  11.220  11.890
44896W        W11437  37.537   1.845  14.013
44897W        W11438  40.674   8.849  10.671
44898W        W11439  30.993   6.940   1.400
44899W        W11440  17.267   0.975   3.216
44900W        W11441  38.447  44.436  10.109
44901W        W11442   8.886  12.316   0.255
44902W        W11443  29.188   0.894   0.786
44903W        W11444  11.463  12.218   3.523
44904W        W11445  37.927  41.526   3.277
44905W        W11446  22.959  16.792   3.285
44906W        W11447  13.496  31.627   0.227
44907W        W11448   4.900  25.507   0.894
44908W        W11449  25.598  27.044   1.172
44909W        W11450  41.863   5.246   4.126
44910W        W11451  31.976  27.654   2.754
44911W        W11452  12.517  18.078   1.263
44912W        W11453  31.623   6.764  11.828
44913W        W11454  18.783   3.975  14.413
44914W        W11455  38.843  21.229  11.241
44915W        W11456  30.015  30.392   2.318
44916W        W11457  28.564  40.814   2.682
44917W        W11458  12.153  22.200   4.583
44918W        W11459   6.914  35.052  10.651
44919W        W11460  28.226  33.081   4.154
44920W        W11461  41.313  41.623   1.526
44921W        W11462   6.820  31.381   2.307
44922W        W11463  27.212  18.729   1.649
44923W        W11464  44.422  43.818   4.810
44924W        W11465  33.311  23.080  13.408
44925W        W11466  25.755   7.193  11.470
44926W        W11467   9.929  24.832  11.164
44927W        W11468   7.903   3.222   0.232
44928W        W11469  10.927  36.008   4.570
44929W        W11470  34.156   4.006   5.169
44930W        W11471  20.700  30.928  13.004
44931W        W11472   1.736  26.151  13.952
44932W        W11473  15.894   1.433   2.735
44933W        W11474  21.153   4.008  11.431
44934W        W11475   4.707  30.116  12.877
44935W        W11476  42.456  20.470  13.286
44936W        W11477  14.587  23.515   0.008
44937W        W11478  10.419   1.717   0.262
44938W        W11479   3.625  37.862   2.690
44939W        W11480  24.067  24.166  13.376
44940W        W11481  35.912  13.793  12.071
44941W        W11482  12.417  35.268  13.771
44942W        W11483   0.108  36.609  10.908
44943W        W11484  26.599  25.566  14.951
44944W        W11485  42.373   4.991  14.402
44945W        W11486  36.734  36.231   3.673
44946W        W11487   9.610  34.566   1.794
44947W        W11488  26.567   4.677   2.858
44948W        W11489  15.607  27.029   4.561
44949W        W11490  31.352  24.154   1.894
44950W        W11491  28.471  19.026   1.307
44951W        W11492  17.809   9.140   1.258
44952W        W11493  10.903  41.527   1.337
44953W        W11494   6.932  40.198  12.887
44954W        W11495  21.154   7.324  14.603
44955W        W11496   3.683  18.508  13.477
44956W        W11497  19.164  17.132  12.411
44957W        W11498  37.335  39.924   0.790
44958W        W11499   4.284  35.137   1.976
44959W        W11500  24.609   6.854  12.927
44960W        W11501  22.243  25.193   0.369
44961W        W11502  38.510   5.231  10.762
44962W        W11503  18.172  31.000   0.942
44963W        W11504   0.956  34.901  14.386
44964W        W11505  36.300   5.210   0.030
44965W        W11506   2.756  19.509   0.262
44966W        W11507  12.829  41.291  11.105
44967W        W11508  36.864   4.873   4.309
44968W        W11509  25.897  19.074   1.991
44969W        W11510   5.736  38.865   0.296
44970W        W11511  32.624   2.881  14.334
44971W        W11512  21.757  25.007   0.160
44972W        W11513  22.881  22.535   0.460
44973W        W11514  18.607  23.932  11.574
44974W        W11515  37.789   3.478   0.791
44975W        W11516  43.656   4.363   0.012
44976W        W11517   0.408   5.863  12.403
44977W        W11518  28.745  37.568   5.269
44978W        W11519  42.543  33.934   2.407
44979W        W11520  43.421  39.842   1.753
44980W        W11521  35.002  38.839   3.735
44981W        W11522  43.254  11.639   2.018
44982W        W11523  39.122  33.692  12.781
44983W        W11524  32.954  38.510   3.600
44984W        W11525  33.895  39.743  12.030
44985W        W11526  36.386  43.243  12.576
44986W        W11527   1.427  44.400   2.233
44987W        W11528  41.903  38.290   2.197
44988W        W11529  42.725  31.764   2.168
44989W        W11530  13.342  29.226   2.834
44990W        W11531   0.462  12.568   0.278
44991W        W11532   5.511   5.881   3.694
44992W        W11533  34.524  43.438   4.696
44993W        W11534  37.853  12.627  14.442
44994W        W11535  30.348  14.058  14.527
44995W        W11536  17.728   3.479  14.329
44996W        W11537  10.408   9.902  12.515
44997W        W11538  29.253  43.945   3.188
44998W        W11539   2.338  14.655  12.030
44999W        W11540  33.436  33.577  12.428
45000W        W11541  41.438  40.006   2.272
45001W        W11542  31.396  28.375   2.852
45002W        W11543  12.241   3.754   2.649
45003W        W11544   7.378   6.077  14.731
45004W        W11545  19.213  25.646   1.671
45005W        W11546  31.929  35.918   0.513
45006W        W11547   3.911  10.621  13.831
45007W        W11548  23.518  30.128  11.947
45008W        W11549  44.493  41.224  12.375
45009W        W11550  28.936  18.931  14.829
45010W        W11551  20.594  42.331   3.164
45011W        W11552  21.255  23.633   1.851
45012W        W11553   3.693  40.062   1.380
45013W        W11554   6.158  34.135   3.139
45014W        W11555  21.385  44.382   1.695
45015W        W11556   2.990   6.821  12.658
45016W        W11557  35.898  22.002  13.567
45017W        W11558  21.532  39.049   4.890
45018W        W11559   9.310  33.546   3.398
45019W        W11560  17.502   4.214   0.866
45020W        W11561  43.824  31.860  14.028
45021W        W11562  29.171   0.889   1.690
45022W        W11563  38.483  44.281  12.298
45023W        W11564  20.203   0.602  13.583
45024W        W11565  29.258  28.614   0.032
45025W        W11566  42.258  31.577   4.399
45026W        W11567   3.512  20.659  14.588
45027W        W11568  20.677  14.846   0.741
45028W        W11569  20.241  13.573  11.682
45029W        W11570  21.169  30.457   0.021
45030W        W11571  16.704  44.240  14.964
45031W        W11572  27.165  14.575  14.913
45032W        W11573   5.848   0.549  14.419
45033W        W11574   4.494  41.452  10.980
45034W        W11575  36.458   2.035   3.987
45035W        W11576   6.710   7.485  11.655
45036W        W11577  39.488  28.046   0.278
45037W        W11578  28.455   7.840  11.599
45038W        W11579  10.923  40.450  12.486
45039W        W11580  24.255  35.439   3.576
45040W        W11581   0.599  10.503   3.204
45041W        W11582  28.006   8.533   2.180
45042W        W11583  30.885  36.954  11.123
45043W        W11584  40.372  18.639   4.532
45044W        W11585  31.008  44.875   2.426
45045W        W11586  28.854  15.380  11.234
45046W        W11587  38.444  28.368  11.972
45047W        W11588  16.757  23.023   3.791
45048W        W11589  30.629  33.617   1.005
45049W        W11590  35.914  28.141  13.712
45050W        W11591  16.841  17.501   3.995
45051W        W11592   9.673  40.517   0.039
45052W        W11593  28.933  19.317   0.345
45053W        W11594  31.646  29.306  11.581
45054W        W11595  22.242   2.799  14.818
45055W        W11596  12.571  35.471   3.342
45056W        W11597  38.211  11.284   2.174
45057W        W11598  35.358  39.508  12.125
45058W        W11599  25.123  43.767  12.854
45059W        W11600  34.887  31.897   2.197
45060W        W11601  29.893   0.278  12.871
45061W        W11602  39.986   2.282   2.793
45062W        W11603  29.419  31.344   4.916
45063W        W11604  39.458  13.146   3.391
45064W        W11605  26.678  22.119  10.087
45065W        W11606  29.263  16.440  12.705
45066W        W11607  43.286  38.690   0.793
45067W        W11608  41.792  23.353   1.749
45068W        W11609  10.708  21.602  12.386
45069W        W11610  29.557  17.400  10.075
45070W        W11611   2.184  42.476   0.602
45071W        W11612  11.170   3.426  14.403
45072W        W11613  44.034   8.599   0.006
45073W        W11614  16.712  44.255   0.843
45074W        W11615   8.755  13.256  10.608
45075W        W11616  22.661  40.715   4.632
45076W        W11617  44.721  30.114  12.596
45077W        W11618  28.776  25.152   3.093
45078W        W11619  15.346  40.501  11.860
45079W        W11620  38.321  19.179   0.845
45080W        W11621  24.074   9.828  13.881
45081W        W11622  27.178  21.917  14.921
45082W        W11623  21.437   8.961   3.316
45083W        W11624  44.971   2.652   1.115
45084W        W11625  42.874  17.400  11.640
45085W        W11626  30.565   1.578  11.281
45086W        W11627  44.210  24.482   3.696
45087W        W11628  34.931  24.887   3.682
45088W        W11629  23.806  25.866  14.812
45089W        W11630  21.577  18.308   3.497
45090W        W11631   6.126  31.641  12.425
45091W        W11632  34.794  10.627  12.268
45092W        W11633  26.160   1.317  12.435
45093W        W11634  25.276  10.454  13.427
45094W        W11635  17.418  13.576   4.358
45095W        W11636  21.097  14.880   1.697
45096W        W11637   9.632   2.173  14.781
45097W        W11638   2.047  14.277   1.230
45098W        W11639   8.795  37.188  10.718
45099W        W11640  34.850  41.794  10.538
45100W        W11641  40.295   7.911  14.823
45101W        W11642   5.468  25.438  13.083
45102W        W11643  26.548   2.021  10.944
45103W        W11644  26.559  28.697  10.408
45104W        W11645   5.815   3.958  13.907
45105W        W11646  43.061  41.382  11.110
45106W        W11647  15.097  33.904   5.150
45107W        W11648  20.705  15.647  11.085
45108W        W11649  30.752  42.975  12.014
45109W        W11650  13.812  30.702  12.934
45110W        W11651  35.474  15.845  11.638
45111W        W11652  33.736   1.334   5.050
45112W        W11653  14.473  14.538   9.905
45113W        W11654  31.270  40.364  11.675
45114W        W11655   0.175  43.023  11.497
45115W        W11656  29.393  34.206  12.962
45116W        W11657  24.897  10.141  13.120
45117W        W11658  41.350  31.744  12.962
45118W        W11659  23.570   4.971   1.654
45119W        W11660  24.791  43.133  11.695
45120W        W11661   0.049   1.384  11.253
45121W        W11662  36.960   1.449  13.847
45122W        W11663  31.124  35.580   0.286
45123W        W11664   8.776  17.776   4.450
45124W        W11665  43.105   0.306  10.912
45125W        W11666  10.368  21.661   4.529
45126W        W11667  11.209  10.453   1.652
45127W        W11668  38.265   6.210  11.013
45128W        W11669   3.440  35.685   4.578
45129W        W11670  22.449  11.350  12.619
45130W        W11671  26.405  28.604  13.862
45131W        W11672  36.172   5.276   4.305
45132W        W11673  13.852  44.995  13.629
45133W        W11674  30.684  12.491   1.414
45134W        W11675  19.274  28.061  10.818
45135W        W11676  39.515   1.521  12.962
45136W        W11677  40.325   1.785  12.579
45137W        W11678  42.238  22.642   4.871
45138W        W11679  26.270   9.657   3.848
45139W        W11680   5.127  35.707   4.985
45140W        W11681  15.357  33.744   0.874
45141W        W11682  21.708  13.300  11.593
45142W        W11683  19.145  30.505   4.296
45143W        W11684  36.349   1.036   2.816
45144W        W11685  16.549  39.067   2.224
45145W        W11686  23.981  28.829   1.306
45146W        W11687  26.514  20.085   0.229
45147W        W11688  20.522   6.270   3.729
45148W        W11689  18.334  12.506   0.348
45149W        W11690  35.340  24.750   0.676
45150W        W11691  24.311  22.304  14.919
45151W        W11692  34.555  24.034   2.781
45152W        W11693   7.788  36.856  12.822
45153W        W11694  25.606  15.229  11.984
45154W        W11695  22.689   0.876  14.585
45155W        W11696   5.980  40.699  11.818
45156W        W11697   6.325  13.677   2.663
45157W        W11698   9.581  28.120  10.642
45158W        W11699  15.180  11.887   1.901
45159W        W11700  27.236  29.056   1.255
45160W        W11701  13.725   4.243  10.425
45161W        W11702  27.981  33.561   4.322
45162W        W11703  25.702  23.578   5.032
45163W        W11704  28.610   8.149  13.997
45164W        W11705   6.805  13.326   4.498
45165W        W11706  29.764   0.595  11.097
45166W        W11707  14.799  16.032  12.528
45167W        W11708  42.835   7.585   5.021
45168W        W11709  36.463   4.382   1.340
45169W        W11710  11.115  21.560   2.642
45170W        W11711   5.357   8.951   4.791
45171W        W11712  41.575  19.062  11.348
45172W        W11713  42.209  23.504   0.448
45173W        W11714   1.517  15.111   2.568
45174W        W11715  28.110  40.973   0.216
45175W        W11716  41.060   6.833  11.993
45176W        W11717  37.892  30.953   4.603
45177W        W11718   1.405  44.182   1.161
45178W        W11719  40.891  34.990   2.611
45179W        W11720  12.200  34.441  13.104
45180W        W11721  39.118  26.262   1.727
45181W        W11722  44.314  27.503   2.480
45182W        W11723  29.273  14.497   0.985
45183W        W11724  17.125  39.359   1.306
45184W        W11725  36.565  24.103  11.112
45185W        W11726  16.196  14.087   2.490
45186W        W11727  26.169  36.834  14.492
45187W        W11728   9.783   8.099   4.600
45188W        W11729   2.926  21.135   2.759
45189W        W11730  43.373  22.556  11.283
45190W        W11731  39.268  15.150  11.158
45191W        W11732  11.703  32.529   2.520
45192W        W11733   8.460  24.625  14.946
45193W        W11734  17.708  10.811  12.943
45194W        W11735  25.488  36.075   1.364
45195W        W11736   6.156  23.200  14.707
45196W        W11737  35.951  30.572   2.877
45197W        W11738   4.433  27.321   4.504
45198W        W11739   7.306  44.898   2.629
45199W        W11740  18.700   4.377   1.411
45200W        W11741   0.436  19.347  11.501
45201W        W11742  37.628  11.107  12.105
45202W        W11743  32.774  29.004  13.681
45203W        W11744  13.142  17.534  13.794
45204W        W11745   3.374  16.319  10.593
45205W        W11746  26.184  34.360  13.549
45206W        W11747  10.198   2.017  10.636
45207W        W11748  34.210  14.649  14.755
45208W        W11749   5.203  37.328  14.249
45209W        W11750   0.771  43.119   4.121
45210W        W11751  12.276  31.571   3.246
45211W        W11752  15.247   5.271   0.274
45212W        W11753  37.978   3.806   5.510
45213W        W11754   2.108  29.700  12.858
45214W        W11755  31.142  39.842  12.468
45215W        W11756  34.739  43.965   0.175
45216W        W11757  14.794  29.393  10.676
45217W        W11758  30.918  33.953   2.948
45218W        W11759  14.570  39.634   3.183
45219W        W11760  26.091  22.968  12.044
45220W        W11761   8.705  35.133  12.609
45221W        W11762   5.959  10.126   4.551
45222W        W11763  43.821   9.185   4.802
45223W        W11764  17.761  21.630   1.811
45224W        W11765  44.288  10.296   2.688
45225W        W11766  15.238  13.221  10.812
45226W        W11767   2.820  26.569   4.831
45227W        W11768  10.845  33.378  14.329
45228W        W11769  13.389  31.049   2.347
45229W        W11770  26.984  14.329  12.910
45230W        W11771  35.916  39.777   2.804
45231W        W11772  28.500  42.146  12.160
45232W        W11773  30.898  30.677  14.866
45233W        W11774  27.809   9.056   2.368
45234W        W11775   8.723   6.197  10.699
45235W        W11776  21.160  24.693   0.231
45236W        W11777  19.383  31.091  11.648
45237W        W11778  38.726  25.232  11.939
45238W        W11779  20.217  19.232   4.871
45239W        W11780  16.730  26.427  12.902
45240W        W11781  31.005  26.037   0.718
45241W        W11782  18.255  27.732   4.989
45242W        W11783  12.683  44.420  10.328
45243W        W11784  31.934  24.926   3.732
45244W        W11785  10.862  16.175   1.309
45245W        W11786   6.348  37.193  14.478
45246W        W11787  36.575  44.919  10.661
45247W        W11788  32.071  34.023  10.921
45248W        W11789  12.778   2.841   3.979
45249W        W11790  21.100  41.410   2.012
45250W        W11791   0.011  39.095   3.733
45251W        W11792  44.815  22.492  11.125
45252W        W11793  22.352  22.076  11.871
45253W        W11794   3.500  28.910   3.203
45254W        W11795  19.030   8.654   0.385
45255W        W11796   7.197  43.745  12.579
45256W        W11797   2.167  36.861  14.299
45257W        W11798  23.137   1.354  11.491
45258W        W11799   5.781  24.611  14.841
45259W        W11800  17.776  20.582  13.589
45260W        W11801  22.463  38.933  14.214
45261W        W11802  11.677   7.833   0.162
45262W        W11803  26.520  30.832   0.106
45263W        W11804  42.006  27.139   1.889
45264W        W11805  14.371   9.406  11.227
45265W        W11806  10.364  30.574  11.091
45266W        W11807  18.934  16.560   4.223
45267W        W11808  19.466  42.028   3.691
45268W        W11809  23.207  26.664  10.545
45269W        W11810  10.382  38.877   0.300
45270W        W11811  15.168  37.434  10.730
45271W        W11812  42.355  43.655   3.662
45272W        W11813  36.531  41.020   0.425
45273W        W11814   1.463  14.698  11.228
45274W        W11815  40.507  23.981  14.076
45275W        W11816  44.929  11.810   4.007
45276W        W11817   8.854  22.903  14.407
45277W        W11818  18.401  33.579  13.514
45278W        W11819   5.261   3.605   3.580
45279W        W11820  13.878  24.504  12.947
45280W        W11821  27.007  11.730  14.806
45281W        W11822  36.295   9.305   1.262
45282W        W11823  43.644  36.987  11.936
45283W        W11824  41.227  24.091  14.359
45284W        W11825  11.805  39.241  10.897
45285W        W11826  44.979  29.966   0.667
45286W        W11827  17.653  39.219  12.158
45287W        W11828  35.273  43.424   3.094
45288W        W11829   8.343  26.687   3.027
45289W        W11830  12.131  29.065   4.104
45290W        W11831  37.161   3.576   4.878
45291W        W11832   5.754  10.534   1.890
45292W        W11833  31.724   4.424  12.522
45293W        W11834  25.203  35.502   2.255
45294W        W11835  31.263  35.709  14.366
45295W        W11836  34.352   6.014   2.224
45296W        W11837  39.961  25.142   1.398
45297W        W11838  25.221  33.375  13.761
45298W        W11839   3.205  36.055   1.754
45299W        W11840   2.726  25.796  10.206
45300W        W11841  27.917   0.984   1.295
45301W        W11842  21.032  16.082  10.691
45302W        W11843  38.907  37.009  10.611
45303W        W11844  41.785  42.237   3.765
45304W        W11845  10.672  43.844   3.140
45305W        W11846  30.945  36.362   4.925
45306W        W11847   7.779  15.670  12.530
45307W        W11848  32.599  20.534  11.584
45308W        W11849  35.650  32.290  12.992
45309W        W11850  28.174  22.027   1.863
45310W        W11851   6.038  11.608  11.136
45311W        W11852  38.232  21.896  13.930
45312W        W11853   7.292  30.286   2.806
45313W        W11854   1.529  35.739  10.140
45314W        W11855  26.240  18.161   3.463
45315W        W11856  44.532  13.079   2.251
45316W        W11857  30.170   5.292   1.677
45317W        W11858  20.615  19.292  12.400
45318W        W11859  19.114   1.517   1.866
45319W        W11860  28.912   6.225   4.567
45320W        W11861  44.857  11.726  12.849
45321W        W11862  33.954   7.258   5.135
45322W        W11863  36.576  35.343  12.568
45323W        W11864  25.908  20.161  11.927
45324W        W11865  13.129   4.950  10.283
45325W        W11866  18.323  42.302  10.981
45326W        W11867   9.627  34.762  14.104
45327W        W11868  10.077  35.628   4.165
45328W        W11869  34.148  32.632   3.369
45329W        W11870  23.490  43.673  11.117
45330W        W11871  40.944   3.811  12.432
45331W        W11872  38.945  24.055   0.388
45332W        W11873   2.941  22.183   4.576
45333W        W11874   7.771  38.547  13.909
45334W        W11875  28.490   3.385   0.749
45335W        W11876  10.707  24.275  14.870
45336W        W11877  41.721  35.474  10.654
45337W        W11878  22.498  34.652  14.865
45338W        W11879  14.209   3.380   4.205
45339W        W11880  12.350  41.836   0.305
45340W        W11881  31.053  37.623  11.638
45341W        W11882   2.787  13.714   3.149
45342W        W11883  39.469   5.959  10.511
45343W        W11884  23.613  21.134   3.403
45344W        W11885  43.454  33.266  10.834
45345W        W11886  33.871  29.691  11.561
45346W        W11887  16.174  26.715   0.869
45347W        W11888  39.219  25.272   0.767
45348W        W11889  23.856  42.655  14.752
45349W        W11890  30.502   7.268  12.343
45350W        W11891  29.761  35.609   0.278
45351W        W11892  22.221  28.771   0.400
45352W        W11893   7.892  42.019  12.445
45353W        W11894  24.641   3.775   2.592
45354W        W11895  25.058   8.972   1.852
45355W        W11896  33.179  22.067  11.025
45356W        W11897  39.904  27.439  11.693
45357W        W11898  28.012  35.863   2.638
45358W        W11899  33.697  39.086  14.526
45359W        W11900  23.710  15.941  11.113
45360W        W11901  30.105   8.635   3.731
45361W        W11902  28.255   5.332   1.742
45362W        W11903  33.647  28.594   2.422
45363W        W11904  33.569  24.871   3.731
45364W        W11905  22.016  25.106   4.091
45365W        W11906  33.534  24.955   4.653
45366W        W11907  43.747   7.077  12.436
45367W        W11908  11.048  35.149  13.077
45368W        W11909  24.789  15.287   0.253
45369W        W11910  22.316  41.009  13.116
45370W        W11911  18.699  23.111  11.017
45371W        W11912   8.971  22.390  14.343
45372W        W11913   7.788   3.490   3.671
45373W        W11914  33.318  39.910   1.959
45374W        W11915  22.379  12.283   3.699
45375W        W11916  20.477  44.769  11.636
45376W        W11917  39.352  38.945  10.264
45377W        W11918  32.972  24.039  13.937
45378W        W11919   0.117  27.948  13.929
45379W        W11920  27.970  42.928  12.578
45380W        W11921  18.553  27.009  11.586
45381W        W11922  10.186  20.914  10.311
45382W        W11923  23.825  39.760  12.180
45383W        W11924  24.016  14.825   4.192
45384W        W11925  30.607  23.250   4.876
45385W        W11926  16.794  15.342  14.976
45386W        W11927  41.845   1.635  14.476
45387W        W11928  24.140  40.177  14.394
45388W        W11929  18.139  29.268  14.834
45389W        W11930  16.232  26.174   3.684
45390W        W11931  41.965  25.620   4.200
45391W        W11932  15.045  41.476  13.984
45392W        W11933  25.441  37.318   4.103
45393W        W11934  10.925  43.761   3.613
45394W        W11935   2.826   4.214   0.346
45395W        W11936  10.825  12.591   0.783
45396W        W11937  18.664  29.525   4.560
45397W        W11938  16.075  14.262   2.952
45398W        W11939  22.943  16.531   0.013
45399W        W11940  43.088  42.778  12.470
45400W        W11941  13.928  21.795  11.118
45401W        W11942  16.783  20.180  10.925
45402W        W11943  23.071   5.882   1.733
45403W        W11944  20.142  41.921   4.894
45404W        W11945  29.349  12.282   0.986
45405W        W11946  19.765  15.261  14.861
45406W        W11947  13.593  31.992   4.880
45407W        W11948  16.368  13.289  14.716
45408W        W11949  12.875  22.526   1.272
45409W        W11950  17.981  13.140  14.036
45410W        W11951   1.415  20.167   1.705
45411W        W11952  42.306  38.077   3.416
45412W        W11953  36.377  24.020  12.988
45413W        W11954  34.084  12.637  10.692
45414W        W11955  35.397   5.519   9.816
45415W        W11956  26.876   2.962  12.015
45416W        W11957  22.124  36.993   2.257
45417W        W11958  20.519   1.475   0.379
45418W        W11959  28.532  42.179  13.072
45419W        W11960  34.142   5.307   1.482
45420W        W11961  29.428  19.145   0.467
45421W        W11962  15.066  29.617   2.709
45422W        W11963  25.316  33.772   0.225
45423W        W11964  44.724  40.894  13.553
45424W        W11965   2.968  13.530  13.083
45425W        W11966   1.244   3.721  10.892
45426W        W11967  24.824  32.678  11.103
45427W        W11968  17.799   1.327  13.996
45428W        W11969  38.554  25.961  13.496
45429W        W11970   4.762  30.103   4.055
45430W        W11971  40.043  36.038  12.939
45431W        W11972  32.561  29.955   4.540
45432W        W11973   9.950   5.184   0.708
45433W        W11974  13.583  42.974  11.148
45434W        W11975  28.814   3.048  14.502
45435W        W11976   0.602  13.302  14.933
45436W        W11977  38.937  35.288  10.383
45437W        W11978  33.910  26.034   1.433
45438W        W11979  40.957  32.613   4.344
45439W        W11980  22.135  37.563  11.543
45440W        W11981   3.247  34.073   1.218
45441W        W11982  38.482  40.527  12.920
45442W        W11983  44.626  15.782   1.297
45443W        W11984  10.628  41.994   1.302
45444W        W11985  20.096   0.142  11.561
45445W        W11986  15.033   9.420   3.547
45446W        W11987  27.626  30.422  10.676
45447W        W11988   1.344  15.298  12.149
45448W        W11989  43.225  25.936   2.149
45449W        W11990  25.091  24.291  12.949
45450W        W11991  24.509  11.821   4.082
45451W        W11992  38.540   0.140  11.391
45452W        W11993   2.364   0.508   2.254
45453W        W11994  10.265   9.838  13.020
45454W        W11995  37.518  29.010  10.691
45455W        W11996   6.379   4.971  10.969
45456W        W11997  30.227   8.575  11.977
45457W        W11998   3.272  15.794  10.608
45458W        W11999  19.783  25.541   0.941
45459W        W12000  18.249  29.378   3.877
45460W        W12001  31.078   2.407  12.828
45461W        W12002   2.365  10.127   4.208
45462W        W12003  31.953  23.906   3.644
45463W        W12004  39.516  30.553   0.679
45464W        W12005  19.315   5.638   2.172
45465W        W12006  22.529  11.096  12.196
45466W        W12007   4.105  23.572  14.275
45467W        W12008  16.512  13.992   4.567
45468W        W12009  17.694   1.329   2.325
45469W        W12010  14.795  22.277   2.757
45470W        W12011  29.067  33.868  12.566
45471W        W12012  21.997  16.293  12.941
45472W        W12013  20.134  40.226  14.434
45473W        W12014  10.712  15.169   4.059
45474W        W12015  12.799  41.873   3.114
45475W        W12016  28.270  11.722   4.502
45476W        W12017  38.970   2.180  11.746
45477W        W12018   2.237  18.980  10.911
45478W        W12019   3.260  38.355  12.854
45479W        W12020  42.346  26.329   4.644
45480W        W12021   4.685  20.873  14.846
45481W        W12022  12.636  27.785  13.548
45482W        W12023  38.084  41.333   4.597
45483W        W12024  20.193   8.665   3.651
45484W        W12025  20.731  39.773   3.143
45485W        W12026  44.015  27.009  11.824
45486W        W12027  44.728  40.272  10.726
45487W        W12028  38.862   2.666  13.064
45488W        W12029  21.209  25.016   2.372
45489W        W12030  24.892  44.181   5.007
45490W        W12031  28.036  14.870   3.813
45491W        W12032  23.733  27.336  13.569
45492W        W12033  17.691  28.084  13.513
45493W        W12034  39.159   8.793   4.228
45494W        W12035   2.735  10.190  11.055
45495W        W12036  37.892  18.187  12.283
45496W        W12037  33.902  12.704   0.315
45497W        W12038  10.895  32.676  14.891
45498W        W12039  27.139  39.875   3.308
45499W        W12040  12.218  16.677   1.826
45500W        W12041   7.297   4.787   0.818
45501W        W12042  43.622  24.068   2.709
45502W        W12043   3.394  30.780   5.470
45503W        W12044  34.578  14.656   3.304
45504W        W12045  37.594   6.993   0.660
45505W        W12046  17.784  31.312   5.533
45506W        W12047  26.173   7.777   3.682
45507W        W12048  29.550  18.728   2.069
45508W        W12049   5.925  22.702   1.169
45509W        W12050   4.095  44.997  14.056
45510W        W12051  31.421  11.823   1.360
45511W        W12052  22.720  36.352  13.784
45512W        W12053  10.753  41.827   2.243
45513W        W12054  40.332   8.754  13.822
45514W        W12055  43.941  38.686  13.692
45515W        W12056  14.421  36.071   3.308
45516W        W12057  38.298  17.063  10.731
45517W        W12058  42.293  34.135   4.154
45518W        W12059   1.996  11.788   0.802
45519W        W12060  38.408   6.721  14.166
45520W        W12061   8.223  13.600   0.607
45521W        W12062  21.677  31.408   2.957
45522W        W12063  41.327  36.383  11.422
45523W        W12064  27.199   4.888   1.055
45524W        W12065  30.462  43.111  11.600
45525W        W12066  15.325   5.378  14.342
45526W        W12067  10.699  26.569  11.736
45527W        W12068  13.763  35.953  13.989
45528W        W12069  15.653  35.338  13.010
45529W        W12070   7.334  40.583  12.017
45530W        W12071  11.764  34.101  14.393
45531W        W12072  32.393   0.006  12.375
45532W        W12073  22.152  23.446   0.784
45533W        W12074  31.861  40.448   0.371
45534W        W12075   8.341  28.853   3.747
45535W        W12076  33.135   3.815  12.049
45536W        W12077  26.978  30.360  11.213
45537W        W12078  37.577  22.573  11.993
45538W        W12079  12.523  34.178  10.056
45539W        W12080  37.803   7.688   2.200
45540W        W12081  40.515   4.361   3.745
45541W        W12082  32.018  21.244  13.473
45542W        W12083  20.964   9.580  13.840
45543W        W12084  41.379  39.486   3.684
45544W        W12085  39.654  32.942  12.023
45545W        W12086  41.920   6.237   1.550
45546W        W12087  29.476   8.168  14.538
45547W        W12088  13.106  40.906  10.764
45548W        W12089  14.867  29.435   9.820
45549W        W12090  21.551   5.857   2.750
45550W        W12091  25.750  13.567  11.328
45551W        W12092   3.636  37.020  12.025
45552W        W12093  30.331  24.633   4.219
45553W        W12094   6.793  22.724   0.503
45554W        W12095  13.815  16.892  13.719
45555W        W12096  36.000   1.803  10.683
45556W        W12097  16.147   7.008   3.259
45557W        W12098   6.188  42.884   3.625
45558W        W12099  14.191  34.371  13.053
45559W        W12100  33.466  10.844  12.898
45560W        W12101  20.192  31.156   0.102
45561W        W12102  35.300  22.585   2.072
45562W        W12103  35.424   7.592   0.438
45563W        W12104  35.603   2.267   3.764
45564W        W12105  30.395   0.925  14.514
45565W        W12106  23.260  22.841   4.493
45566W        W12107   4.450  18.412  14.904
45567W        W12108   6.197   3.343   0.757
45568W        W12109  33.948  37.362   2.462
45569W        W12110  14.724  11.456   1.325
45570W        W12111  20.555  15.349   0.797
45571W        W12112  31.205   5.413   0.457
45572W        W12113  33.175  16.978   2.235
45573W        W12114  38.906   3.397   3.171
45574W        W12115  16.820  39.833  14.270
45575W        W12116  20.306   4.752  12.510
45576W        W12117  19.624   0.276   3.208
45577W        W12118  30.121  39.815  14.019
45578W        W12119   3.468  19.261   3.791
45579W        W12120  28.494  42.951  14.475
45580W        W12121  24.926   5.104   1.374
45581W        W12122  20.661  34.613  11.129
45582W        W12123  36.253  15.196   0.327
45583W        W12124   3.867  11.986   0.840
45584W        W12125   0.981   7.709   1.485
45585W        W12126   0.534  20.763  11.650
45586W        W12127  12.131   5.190   0.310
45587W        W12128  14.471  28.241  12.514
45588W        W12129  26.441  40.723  11.088
45589W        W12130  23.575  35.885   0.250
45590W        W12131  41.059  12.585   2.780
45591W        W12132   7.703  40.821   4.970
45592W        W12133   7.339  35.417  13.041
45593W        W12134  40.467  36.555  11.251
45594W        W12135  31.561  41.376   1.495
45595W        W12136  23.514   6.933  14.759
45596W        W12137  36.841  27.794  14.871
45597W        W12138  20.123  22.570   0.011
45598W        W12139  27.238  15.956  13.164
45599W        W12140  30.430   9.313   1.795
45600W        W12141  13.020   1.257  13.915
45601W        W12142   1.856   0.405   4.499
45602W        W12143  31.497  19.676  11.591
45603W        W12144  12.621  23.145  12.656
45604W        W12145  23.185  27.831  11.901
45605W        W12146  25.002  16.619  10.735
45606W        W12147   4.342  30.478   1.741
45607W        W12148  35.422  26.910  11.135
45608W        W12149   3.332   6.269   1.335
45609W        W12150  15.506  24.736   3.130
45610W        W12151  13.315  19.705  14.688
45611W        W12152  38.155  31.986  11.933
45612W        W12153  34.479  12.317  12.448
45613W        W12154  17.605  34.656  11.234
45614W        W12155  44.880  36.165  12.139
45615W        W12156   4.829   2.270  14.016
45616W        W12157   5.680  41.080  10.625
45617W        W12158  20.473  31.978  10.104
45618W        W12159  12.307  25.175   3.889
45619W        W12160  31.650  30.950   4.723
45620W        W12161  35.213  18.506  14.089
45621W        W12162  36.219  20.753   1.000
45622W        W12163  34.478  16.255  10.998
45623W        W12164  33.951  12.554  11.542
45624W        W12165  30.721  26.958   4.463
45625W        W12166  23.004  44.937  13.868
45626W        W12167  19.283  18.175   3.030
45627W        W12168  13.877   6.956  10.600
45628W        W12169  33.372  18.473  10.330
45629W        W12170  43.504  12.894  14.387
45630W        W12171  37.551  20.151   1.225
45631W        W12172  10.518  34.400  13.357
45632W        W12173  16.494   7.445  12.451
45633W        W12174  24.560   5.559  12.332
45634W        W12175  38.856  23.463  10.739
45635W        W12176  33.084  14.357   0.908
45636W        W12177  13.813  11.831   3.136
45637W        W12178  24.252  13.624   0.660
45638W        W12179  27.880  29.021   1.938
45639W        W12180  35.773   7.785   4.353
45640W        W12181   2.231   3.298   3.159
45641W        W12182   5.689   2.315   0.535
45642W        W12183  26.632  39.597  14.192
45643W        W12184   8.906  25.554  12.857
45644W        W12185  10.816   5.958  12.044
45645W        W12186   1.249  19.690   2.405
45646W        W12187  29.012  43.851   2.714
45647W        W12188  26.597  24.417   3.208
45648W        W12189   1.756  42.983  10.647
45649W        W12190  38.124  36.098   1.321
45650W        W12191   8.854   0.466   0.244
45651W        W12192   9.934  44.369   2.254
45652W        W12193  26.098  38.367   0.861
45653W        W12194  12.515  14.764   0.328
45654W        W12195  44.155  14.878   3.619
45655W        W12196  15.288  36.116  13.961
45656W        W12197   8.929   5.058   1.786
45657W        W12198   1.299   6.839  13.573
45658W        W12199  14.385  27.041   4.227
45659W        W12200  26.764   2.137  10.430
45660W        W12201  37.975  25.118   2.176
45661W        W12202  27.190  31.528   0.490
45662W        W12203   9.142   4.755  11.341
45663W        W12204  19.078   1.794   2.879
45664W        W12205  32.792  28.695  11.953
45665W        W12206   4.754   9.961  10.466
45666W        W12207   0.146  24.047   3.014
45667W        W12208  40.872  29.025   4.426
45668W        W12209  11.780  29.533  14.110
45669W        W12210   8.522   5.393  14.518
45670W        W12211  38.725  13.346   3.597
45671W        W12212   9.930  16.017  11.042
45672W        W12213  33.933  17.073   2.342
45673W        W12214  44.399  10.735  14.497
45674W        W12215  21.654  24.488   0.230
45675W        W12216  22.572   9.859  11.640
45676W        W12217  21.696  13.889  12.347
45677W        W12218  31.545  39.402   0.930
45678W        W12219  40.254  43.928   3.528
45679W        W12220   7.190  41.825   0.390
45680W        W12221   8.917   0.960   1.402
45681W        W12222   2.438  10.536   1.219
45682W        W12223  38.380  35.716  11.041
45683W        W12224  15.125  36.499   2.267
45684W        W12225  42.999   4.966  13.039
45685W        W12226  41.476  24.130  13.873
45686W        W12227  20.837  14.150   4.271
45687W        W12228   6.215  15.532   3.876
45688W        W12229   2.563  23.097  11.123
45689W        W12230  27.208  44.015   3.753
45690W        W12231  24.755   0.932   2.332
45691W        W12232  44.496  41.331   3.660
45692W        W12233   6.216  41.891  11.708
45693W        W12234  11.608  13.290   1.819
45694W        W12235  24.446  35.596   4.049
45695W        W12236  18.207   1.021   3.331
45696W        W12237  29.576   1.061  11.142
45697W        W12238  13.630  41.767   3.469
45698W        W12239  41.362  29.011  10.696
45699W        W12240   4.084  23.567   0.639
45700W        W12241  14.882  32.691   2.551
45701W        W12242   5.720   0.525  12.930
45702W        W12243  25.277  36.786   1.297
45703W        W12244   4.761  12.404   4.386
45704W        W12245  26.532  13.403  13.848
45705W        W12246  33.875   0.891   4.025
45706W        W12247  18.927  40.138   4.501
45707W        W12248  33.637  29.636   2.636
45708W        W12249  43.401   4.301  12.906
45709W        W12250  15.013  40.968  13.670
45710W        W12251   8.412  17.333  14.992
45711W        W12252  14.903   8.898  13.425
45712W        W12253  30.535  13.556  14.502
45713W        W12254  41.999  32.886   2.368
45714W        W12255  12.166  44.442   0.005
45715W        W12256  40.925  33.827   0.045
45716W        W12257  16.463  42.295   3.706
45717W        W12258  22.244  17.095  12.541
45718W        W12259   4.933   9.331   3.166
45719W        W12260   0.463  44.870   3.654
45720W        W12261  37.444  35.454  13.344
45721W        W12262  28.162  40.114  14.921
45722W        W12263  34.095  34.385   4.658
45723W        W12264  28.952  26.975   2.029
45724W        W12265   8.251  24.082  13.240
45725W        W12266  40.893  37.450  11.460
45726W        W12267   8.359   6.687   1.005
45727W        W12268  26.757   6.495  13.404
45728W        W12269  42.069  34.925   3.641
45729W        W12270  36.259   7.631   4.221
45730W        W12271  34.100  14.134  14.791
45731W        W12272  19.541  20.979  12.514
45732W        W12273   8.780  44.428  13.445
45733W        W12274   1.964  34.591  13.746
45734W        W12275   0.418  31.943  13.125
45735W        W12276   7.028  11.831   0.363
45736W        W12277  27.088  41.689  12.169
45737W        W12278  20.885  34.109  13.725
45738W        W12279   8.316  26.501  10.575
45739W        W12280  29.730  37.015  12.121
45740W        W12281  19.192  16.211   4.567
45741W        W12282  25.749  36.147  13.415
45742W        W12283  23.305  44.837   0.457
45743W        W12284   8.316  33.759   0.727
45744W        W12285   8.354  41.059   2.701
45745W        W12286   2.073  18.075   4.085
45746W        W12287  20.603  39.519   0.494
45747W        W12288  25.032  23.274   0.937
45748W        W12289  10.317  31.706  13.081
45749W        W12290  27.995  27.858   3.680
45750W        W12291  44.838  15.113   4.542
45751W        W12292  37.118  44.513  13.581
45752W        W12293  28.648  14.425   2.209
45753W        W12294  23.612   6.426   2.022
45754W        W12295  20.290  36.274   4.780
45755W        W12296   7.290   7.809   0.942
45756W        W12297   4.242   4.441  13.064
45757W        W12298  37.845  14.419  10.963
45758W        W12299  40.995  10.781  14.411
45759W        W12300   1.916  44.486  11.877
45760W        W12301   8.657  30.592  13.755
45761W        W12302  34.160  37.996  13.496
45762W        W12303  11.607   3.988   3.400
45763W        W12304  26.624  43.524   0.034
45764W        W12305  43.946  33.550  14.335
45765W        W12306   2.659  15.235   1.225
45766W        W12307  13.570  40.339   0.998
45767W        W12308  26.385  35.796   4.189
45768W        W12309  25.873  20.652  14.157
45769W        W12310  39.821  17.913  13.424
45770W        W12311  35.608   4.490  14.726
45771W        W12312  35.574  43.204   3.632
45772W        W12313  16.043   6.634  12.082
45773W        W12314  28.155  39.891   2.887
45774W        W12315  29.629  40.581  12.864
45775W        W12316  38.366   7.361  10.450
45776W        W12317  15.602   6.892   1.667
45777W        W12318  19.457  18.961  13.897
45778W        W12319  27.480   5.575  11.996
45779W        W12320   5.206  18.583   1.775
45780W        W12321   1.469  21.482  14.769
45781W        W12322   2.341  30.658  13.548
45782W        W12323  40.792   4.901  10.882
45783W        W12324   0.255  25.807   4.304
45784W        W12325  44.688   3.532  13.835
45785W        W12326  24.935   9.590  12.117
45786W        W12327  38.772   2.814  11.140
45787W        W12328  10.988  32.000  14.083
45788W        W12329  27.927  13.720  14.570
45789W        W12330  41.607   9.122  14.741
45790W        W12331  16.726  20.639  11.190
45791W        W12332  41.584  10.008   5.080
45792W        W12333   4.326  42.077  12.177
45793W        W12334  35.513   5.313   2.627
45794W        W12335  44.772   8.317   0.689
45795W        W12336  33.180  34.484   2.610
45796W        W12337  34.477  10.304   2.825
45797W        W12338  12.723  39.038  14.976
45798W        W12339  18.357  22.448   4.183
45799W        W12340  43.742  10.375  12.860
45800W        W12341  32.878  18.618   3.627
45801W        W12342   9.389  16.433   3.609
45802W        W12343  10.899  38.843  11.987
45803W        W12344  13.843  42.066   3.110
45804W        W12345  38.113  28.504   3.768
45805W        W12346  31.375  30.467   3.397
45806W        W12347  36.032  12.934   1.240
45807W        W12348  42.121  23.936   0.194
45808W        W12349  13.589  11.832  10.798
45809W        W12350  39.797   8.305   1.855
45810W        W12351  25.784  19.275  12.454
45811W        W12352  19.590  13.115   4.153
45812W        W12353   7.746   3.760  14.460
45813W        W12354  43.332  27.863  13.543
45814W        W12355  29.722  16.581   3.358
45815W        W12356  13.388  11.597   1.133
45816W        W12357  17.854  37.203  11.529
45817W        W12358  15.601  28.580   3.616
45818W        W12359  23.212   4.656  14.692
45819W        W12360  43.073  33.064   4.655
45820W        W12361  37.941  40.594  11.117
45821W        W12362  10.380  16.227  12.011
45822W        W12363  29.220  25.049   2.281
45823W        W12364  10.219  24.535  13.459
45824W        W12365   2.257  31.461   2.595
45825W        W12366   0.862  33.467   3.618
45826W        W12367  44.456  11.067   4.928
45827W        W12368  16.154  27.431   4.153
45828W        W12369  21.547  12.056  13.384
45829W        W12370  19.529  35.953  14.622
45830W        W12371  13.683  22.286  12.371
45831W        W12372  29.798  17.233  12.311
45832W        W12373   7.455  42.318   3.681
45833W        W12374   3.845   5.929  13.802
45834W        W12375  32.143  20.262  12.090
45835W        W12376   5.562  34.306  11.087
45836W        W12377   3.889   5.936   4.485
45837W        W12378  25.184  34.414  12.580
45838W        W12379  23.418  11.989   0.835
45839W        W12380  30.401  16.243  14.800
45840W        W12381  33.884  13.453  13.977
45841W        W12382   3.062  33.774   3.399
45842W        W12383  11.279  17.689   2.667
45843W        W12384   3.229  39.713  14.420
45844W        W12385  34.839  32.021  12.932
45845W        W12386   8.237   2.964  13.479
45846W        W12387  43.530  41.262  11.927
45847W        W12388  15.189  18.064  12.339
45848W        W12389   2.497   8.764   5.018
45849W        W12390  14.121   4.550  12.483
45850W        W12391  24.605  16.614  14.484
45851W        W12392   8.178  33.999  12.022
45852W        W12393  20.342   4.416   2.383
45853W        W12394  37.507  43.386   3.125
45854W        W12395  25.492  11.347   2.724
45855W        W12396  36.527  25.651   0.196
45856W        W12397  19.751  12.713  14.307
45857W        W12398   0.207   0.563  11.695
45858W        W12399  24.773   5.387   1.793
45859W        W12400  38.779   3.031  13.933
45860W        W12401  39.500  15.365   3.067
45861W        W12402   8.433  25.258   0.546
45862W        W12403  12.951  43.868  11.025
45863W        W12404  28.607   9.512   0.473
45864W        W12405  37.423  12.462  13.143
45865W        W12406   6.374  42.315   2.328
45866W        W12407  10.696  19.805   4.598
45867W        W12408  37.887  20.495   2.685
45868W        W12409   0.404   6.927   2.299
45869W        W12410  36.343  32.246  11.245
45870W        W12411  18.336  35.024   3.422
45871W        W12412   8.134  15.548  12.095
45872W        W12413   2.441   8.760   0.857
45873W        W12414  22.528  18.747  10.788
45874W        W12415  43.347   6.227   2.496
45875W        W12416  41.554  29.174  13.824
45876W        W12417  34.071  12.603   4.691
45877W        W12418  12.266   4.488  12.171
45878W        W12419  38.909  20.834  12.575
45879W        W12420   9.454  33.389  11.209
45880W        W12421  20.461  34.592   5.112
45881W        W12422  20.089   1.193   0.431
45882W        W12423  20.202  31.849  14.372
45883W        W12424  30.133   9.452   4.735
45884W        W12425  25.422  11.414  13.435
45885W        W12426  33.564  22.064  12.027
45886W        W12427   9.979  18.807  14.623
45887W        W12428  26.478   0.246   2.351
45888W        W12429  17.705  42.769  11.495
45889W        W12430   3.931  37.175   4.620
45890W        W12431  29.989  43.254  14.022
45891W        W12432  22.402  26.987  12.556
45892W        W12433  39.935  19.845   3.791
45893W        W12434  31.928   3.264   4.534
45894W        W12435   8.183  24.434  12.830
45895W        W12436  15.298   0.492  10.451
45896W        W12437  12.325   7.870  14.843
45897W        W12438   6.981  18.950   0.348
45898W        W12439  43.742  29.056  14.570
45899W        W12440   6.657  27.239   2.427
45900W        W12441  26.117  17.275   0.713
45901W        W12442  44.337   4.444  14.191
45902W        W12443  38.570   0.819   2.350
45903W        W12444   2.318   1.409  10.375
45904W        W12445  27.905  10.733   0.857
45905W        W12446   5.336  38.249   1.784
45906W        W12447  33.549  25.391   4.403
45907W        W12448  21.580  15.102   0.415
45908W        W12449   7.314  14.256  11.494
45909W        W12450  15.329  23.003   3.717
45910W        W12451  20.797   2.755   1.766
45911W        W12452  44.985  39.513   4.945
45912W        W12453  35.910  10.592   2.735
45913W        W12454  21.083  44.789  10.728
45914W        W12455  25.035   9.144  10.679
45915W        W12456  11.076   7.276   4.694
45916W        W12457  31.731  43.003  12.916
45917W        W12458  38.848  28.612  13.585
45918W        W12459  21.071   8.373  14.510
45919W        W12460  36.416  35.847   3.760
45920W        W12461   6.437  16.249   1.673
45921W        W12462  25.543  24.461  11.595
45922W        W12463   3.954  30.145  11.100
45923W        W12464  28.967  34.043   3.639
45924W        W12465  23.057  36.617   1.471
45925W        W12466  37.343  44.070  14.309
45926W        W12467  21.574  31.504  11.756
45927W        W12468  31.652   8.650   1.644
45928W        W12469  33.897  23.121  10.858
45929W        W12470  29.219  21.654  10.410
45930W        W12471   4.303   9.279  12.139
45931W        W12472  30.654  19.620  11.442
45932W        W12473   4.300  35.272  13.060
45933W        W12474  14.637  30.463   2.204
45934W        W12475  10.470  16.278   0.777
45935W        W12476  16.777  15.205  12.019
45936W        W12477  42.684   9.747  14.248
45937W        W12478  12.426   4.688   3.518
45938W        W12479   5.474  21.568   0.053
45939W        W12480  16.668  14.451   3.727
45940W        W12481  22.219   8.399  11.450
45941W        W12482  11.418  26.289  13.100
45942W        W12483  28.260   3.691   2.348
45943W        W12484  35.415  22.139  10.785
45944W        W12485  37.929  10.118  12.822
45945W        W12486  11.152  30.437   2.440
45946W        W12487   7.559  10.984   2.786
45947W        W12488   7.710  28.335   0.644
45948W        W12489  34.162  14.891  13.460
45949W        W12490   6.614  40.153   4.390
45950W        W12491  30.153  44.990   2.219
45951W        W12492  32.416  34.994   0.287
45952W        W12493  29.409  36.330  12.987
45953W        W12494   9.368  21.732   0.990
45954W        W12495  11.286  39.037  10.703
45955W        W12496  36.380  11.381  11.983
45956W        W12497  13.142  11.381   0.566
45957W        W12498  31.983  12.504   1.618
45958W        W12499   4.542  36.879   4.611
45959W        W12500  25.611   0.861  14.367
45960W        W12501  42.860  18.243  14.484
45961W        W12502   3.992  26.123   0.148
45962W        W12503  13.845  43.416  12.539
45963W        W12504  42.208  26.507   0.398
45964W        W12505   7.305  39.080  14.777
45965W        W12506  28.125  20.151  13.837
45966W        W12507  14.155  25.706   3.576
45967W        W12508  32.636   0.874  11.562
45968W        W12509  20.085  16.782   2.144
45969W        W12510   4.735  10.897   4.184
45970W        W12511  42.815  19.527  11.885
45971W        W12512  29.472  10.867  14.805
45972W        W12513   5.039  33.695  13.810
45973W        W12514  21.200  39.422   3.801
45974W        W12515  15.901   7.531  11.120
45975W        W12516  39.334   5.333   2.789
45976W        W12517   5.478  18.405  10.959
45977W        W12518  12.202  40.333  14.003
45978W        W12519   1.332   8.884  14.181
45979W        W12520  25.352  43.950   5.001
45980W        W12521  30.749  31.601  14.333
45981W        W12522   0.423  40.771   0.962
45982W        W12523  41.819  28.348   4.902
45983W        W12524   8.608  31.133  14.877
45984W        W12525  27.098   5.814   4.188
45985W        W12526  37.188  40.997  14.896
45986W        W12527   5.275  12.185  13.377
45987W        W12528  38.506   0.745  14.324
45988W        W12529  12.696  42.809  12.362
45989W        W12530  18.945  11.689   2.646
45990W        W12531   7.701   9.846  13.665
45991W        W12532   9.682   6.190   2.926
45992W        W12533   9.681   5.321  10.667
45993W        W12534  38.801  14.151  14.403
45994W        W12535   8.797  33.450   2.253
45995W        W12536  17.149  40.873   0.281
45996W        W12537  18.338  11.741   1.784
45997W        W12538  38.432  44.751  12.492
45998W        W12539  18.254  39.507  11.061
45999W        W12540  37.849  12.807   0.896
46000W        W12541  19.733  38.415   0.947
46001W        W12542   4.514   9.758  12.130
46002W        W12543  19.032   0.330  12.450
46003W        W12544   1.191   0.929   4.754
46004W        W12545  42.622  19.663  12.786
46005W        W12546  34.945  32.037   1.165
46006W        W12547  12.960  37.717   1.874
46007W        W12548  20.154  12.198   0.848
46008W        W12549  44.859  34.486  10.180
46009W        W12550  10.393   2.839   3.892
46010W        W12551  44.099   4.886  12.998
46011W        W12552  17.129   7.244  14.755
46012W        W12553  19.776  38.118  10.626
46013W        W12554  20.076  22.435  12.661
46014W        W12555  36.045  25.221  13.589
46015W        W12556  12.555   9.682   1.075
46016W        W12557  15.359  31.692   5.006
46017W        W12558  34.154  13.057   1.218
46018W        W12559   9.594  32.735  14.298
46019W        W12560  10.178  11.364  14.030
46020W        W12561  31.693  26.656  10.254
46021W        W12562  20.112   1.208   1.288
46022W        W12563  10.649  20.868   2.662
46023W        W12564  12.370   1.458  13.297
46024W        W12565  21.757  42.876  12.446
46025W        W12566  10.686  31.881   3.638
46026W        W12567   0.785  33.862   2.330
46027W        W12568   3.304  40.265   1.689
46028W        W12569   7.181  34.148   3.183
46029W        W12570   2.821  35.309  14.318
46030W        W12571  31.719   4.966   4.134
46031W        W12572  31.240  30.024   4.165
46032W        W12573  38.988   7.111   3.324
46033W        W12574  19.628   4.343   4.229
46034W        W12575   2.710   8.294   0.780
46035W        W12576  33.550  14.592   0.844
46036W        W12577  23.600  15.952   2.675
46037W        W12578  35.128  13.407   2.193
46038W        W12579  24.189  24.916   0.259
46039W        W12580  43.219  44.977   0.740
46040W        W12581  36.520  19.412   1.829
46041W        W12582  12.571  25.393  12.476
46042W        W12583  17.985  24.309   4.249
46043W        W12584  33.837   9.610   3.585
46044W        W12585  15.144  37.105  14.219
46045W        W12586  33.295   7.862  14.908
46046W        W12587  36.613  36.548  12.125
46047W        W12588  28.412  33.863   1.741
46048W        W12589  38.523  10.236  14.895
46049W        W12590   1.760  32.659  10.730
46050W        W12591  16.115  13.179  12.526
46051W        W12592  26.855  44.678   4.108
46052W        W12593  32.078  28.708   1.205
46053W        W12594  23.943   6.639  14.494
46054W        W12595  33.122   5.558   0.629
46055W        W12596  42.689  21.550  12.316
46056W        W12597  42.796   1.890  12.487
46057W        W12598   1.405  11.685  11.593
46058W        W12599  27.714  12.876   1.360
46059W        W12600  33.061  44.188  11.157
46060W        W12601   8.943   8.639   0.263
46061W        W12602   5.919   8.173  12.435
46062W        W12603   2.103  28.169   0.280
46063W        W12604   8.775  29.617  12.959
46064W        W12605  16.339  44.294  14.615
46065W        W12606  13.074  41.401  10.659
46066W        W12607   0.368  24.592  14.343
46067W        W12608  34.917  22.156  11.016
46068W        W12609  32.406   8.013  11.051
46069W        W12610   7.327  19.356  11.614
46070W        W12611  14.894  14.647   3.176
46071W        W12612  22.502  27.125   1.853
46072W        W12613  29.424   5.628  10.584
46073W        W12614   1.774  19.192  10.630
46074W        W12615  35.807  42.458  11.607
46075W        W12616  28.047  40.265  10.673
46076W        W12617   1.643  41.027  13.434
46077W        W12618  24.154  31.679  12.867
46078W        W12619  43.358  28.894   2.548
46079W        W12620  44.416   0.753  13.969
46080W        W12621  26.228   0.020  12.522
46081W        W12622  17.192  16.362  10.915
46082W        W12623  28.925  22.056  14.837
46083W        W12624  28.069  17.380   2.808
46084W        W12625  18.053  27.471  10.980
46085W        W12626  28.511  41.768   2.739
46086W        W12627  10.661  33.176   4.711
46087W        W12628  42.590  30.568  14.050
46088W        W12629  43.965  26.457  12.739
46089W        W12630  30.080   0.982  11.274
46090W        W12631   4.149  41.196  13.897
46091W        W12632  35.724  20.267  14.553
46092W        W12633  38.026   5.295   4.224
46093W        W12634  37.985   4.932  12.445
46094W        W12635  30.342  14.840  12.972
46095W        W12636  26.965  26.703   0.440
46096W        W12637  11.561  28.006  13.006
46097W        W12638  19.694  43.219  13.290
46098W        W12639  23.752  33.341   4.304
46099W        W12640  27.805  36.389  11.473
46100W        W12641  40.938  10.668  14.910
46101W        W12642  20.215  41.418   5.091
46102W        W12643   3.009  39.523  11.812
46103W        W12644  28.144  26.199  10.727
46104W        W12645  27.471  11.280  12.987
46105W        W12646  18.992   6.778  13.144
46106W        W12647  43.380  18.298  10.422
46107W        W12648  12.305  10.383  10.730
46108W        W12649   8.158  12.243   4.809
46109W        W12650   6.245  31.274   1.191
46110W        W12651  25.562  42.823   2.699
46111W        W12652  14.412   4.091  13.372
46112W        W12653  34.304   8.155   1.807
46113W        W12654  44.235   0.395  11.522
46114W        W12655   9.479  42.294   3.948
46115W        W12656  21.613  38.022   1.308
46116W        W12657  12.876  44.121   1.695
46117W        W12658   3.683  44.339  12.912
46118W        W12659  29.729  10.413   4.622
46119W        W12660  44.055  10.115  14.377
46120W        W12661  23.950  25.785  11.633
46121W        W12662  35.703  21.646  10.877
46122W        W12663   9.453   8.376  13.666
46123W        W12664   2.944  44.822   4.514
46124W        W12665  27.392  23.436  10.595
46125W        W12666   3.444  18.999  12.457
46126W        W12667  12.358  27.692   2.844
46127W        W12668  26.551  24.229  12.002
46128W        W12669  41.133  17.599  11.975
46129W        W12670  29.265  43.968   0.897
46130W        W12671  29.543   4.342   2.728
46131W        W12672   9.184  40.426  11.645
46132W        W12673  26.278  16.395  10.625
46133W        W12674  32.053  28.586   0.312
46134W        W12675  18.251  14.609   3.191
46135W        W12676  27.398   6.369  14.455
46136W        W12677  37.503  11.293   2.446
46137W        W12678  16.765   0.146   4.901
46138W        W12679  12.226  12.333   1.726
46139W        W12680  27.027  42.215  12.054
46140W        W12681  42.999   3.382  14.905
46141W        W12682  18.811   6.501  14.863
46142W        W12683  12.092  43.885  12.076
46143W        W12684  23.516  30.975   1.742
46144W        W12685  17.106  40.007   2.940
46145W        W12686  32.558  32.167   2.423
46146W        W12687  12.267   0.052  12.801
46147W        W12688  27.048  44.425   1.859
46148W        W12689   4.393  11.698  14.954
46149W        W12690  42.278  32.893   3.315
46150W        W12691  44.375  29.010   2.114
46151W        W12692  10.533  39.825  13.432
46152W        W12693  20.097  15.926   2.024
46153W        W12694  41.688  20.121  12.965
46154W        W12695  44.351  29.481  11.262
46155W        W12696  18.415   7.821   3.045
46156W        W12697  22.913   5.492   4.455
46157W        W12698  35.389   6.976  13.490
46158W        W12699   1.509  10.872   0.441
46159W        W12700  44.452  22.122   4.618
46160W        W12701  35.439  41.329  12.305
46161W        W12702  17.644  17.805   2.308
46162W        W12703   5.683   1.486  14.389
46163W        W12704  28.162  21.091   3.627
46164W        W12705  23.668   2.243   2.314
46165W        W12706  22.659   6.356   4.080
46166W        W12707  20.189  31.881   3.661
46167W        W12708  42.200  25.609  11.963
46168W        W12709  12.701  21.254  11.089
46169W        W12710  19.665  18.437  14.676
46170W        W12711   9.171  36.582   4.591
46171W        W12712  35.327  29.361   2.331
46172W        W12713  31.058  23.434  13.877
46173W        W12714  25.400  39.457   1.239
46174W        W12715   9.812  29.613   3.324
46175W        W12716   2.569  16.685   1.252
46176W        W12717   2.753  21.204   2.269
46177W        W12718  39.537  15.741  13.059
46178W        W12719  20.664  25.403   0.516
46179W        W12720   0.642  26.922   0.373
46180W        W12721  14.380  20.690  10.909
46181W        W12722  35.671  17.485   4.250
46182W        W12723  26.226  14.089  12.544
46183W        W12724  36.892  30.004  13.393
46184W        W12725  34.299  33.564  10.872
46185W        W12726  21.193  25.564  11.904
46186W        W12727  12.278  41.295  11.527
46187W        W12728   3.208   3.671   0.868
46188W        W12729  11.724  10.421  13.986
46189W        W12730  11.685   5.617   4.953
46190W        W12731   6.385  12.379   1.625
46191W        W12732  42.476  15.697  13.038
46192W        W12733   9.341   4.817  14.874
46193W        W12734   6.724  28.999   2.227
46194W        W12735  35.104   8.397  10.471
46195W        W12736  12.551  25.268  11.616
46196W        W12737  44.479  10.355   2.170
46197W        W12738  10.171  23.103   0.020
46198W        W12739  19.537  32.620  14.758
46199W        W12740  40.564  35.885  10.449
46200W        W12741  29.686   0.442  12.431
46201W        W12742  23.947   7.780  11.003
46202W        W12743  24.511  23.160   0.029
46203W        W12744  37.184  20.725  10.709
46204W        W12745  13.270  10.116   4.626
46205W        W12746  19.579  37.638   0.248
46206W        W12747  36.336   2.415  14.381
46207W        W12748  14.275   7.435   0.161
46208W        W12749  14.571  18.415   3.730
46209W        W12750  32.742  29.945   4.047
46210W        W12751  26.893  11.610  11.436
46211W        W12752   1.697  33.916  13.363
46212W        W12753  11.160  39.825   2.214
46213W        W12754   4.340  10.393  12.393
46214W        W12755  17.213   5.995   3.639
46215W        W12756  36.929  18.728   4.631
46216W        W12757   1.989  40.184  14.664
46217W        W12758  36.689   4.743  13.384
46218W        W12759  29.769  19.113  11.648
46219W        W12760   7.795  27.897   0.952
46220W        W12761  26.962  44.304  14.758
46221W        W12762  22.498  37.363   2.326
46222W        W12763  12.979   0.807  13.455
46223W        W12764  30.566  14.846  13.809
46224W        W12765  43.144  12.585  13.074
46225W        W12766  28.516  37.916   1.364
46226W        W12767  27.968  21.305   2.269
46227W        W12768  10.843  43.214  14.066
46228W        W12769   1.805   4.643  12.560
46229W        W12770   2.429  41.233   4.616
46230W        W12771  17.081  15.732   0.257
46231W        W12772  16.900  41.261   3.092
46232W        W12773  33.418  32.586   0.360
46233W        W12774  35.532  10.677   3.661
46234W        W12775   1.503  19.325  13.541
46235W        W12776  22.025  15.443  11.047
46236W        W12777   3.417  36.383  11.604
46237W        W12778   8.811  34.931   1.297
46238W        W12779  30.484  24.505   4.724
46239W        W12780  42.760  26.159  14.929
46240W        W12781  36.569  30.437  11.218
46241W        W12782  30.865  17.550  13.474
46242W        W12783  19.343  11.828   1.816
46243W        W12784  13.432  11.684   2.831
46244W        W12785  30.932  28.570  12.004
46245W        W12786  32.110  39.400   0.463
46246W        W12787  31.875  32.341  14.877
46247W        W12788  13.121   5.411  10.616
46248W        W12789  26.188   2.846   2.300
46249W        W12790   1.331  33.374  13.970
46250W        W12791  35.646  14.312   2.706
46251W        W12792  10.216  39.552   2.139
46252W        W12793   7.925  35.912   2.781
46253W        W12794  31.574  32.926   0.360
46254W        W12795   6.165  27.690   1.396
46255W        W12796  17.881   8.932   3.061
46256W        W12797  18.076  11.579   9.943
46257W        W12798  33.014   7.741  12.551
46258W        W12799  25.058  33.939   2.224
46259W        W12800  35.994  14.280   1.750
46260W        W12801  26.063   4.551   3.786
46261W        W12802  42.573  34.116   4.608
46262W        W12803  33.376  35.841   3.491
46263W        W12804  41.473  10.316   4.253
46264W        W12805  14.781  41.534   0.378
46265W        W12806  22.110  27.218   0.274
46266W        W12807  22.781  42.991   3.305
46267W        W12808  40.859  18.259   2.476
46268W        W12809  23.047  23.438   3.325
46269W        W12810   3.838  25.067   2.489
46270W        W12811  43.362   7.941   2.622
46271W        W12812  17.502  30.433   2.994
46272W        W12813  20.169  41.563  14.848
46273W        W12814   5.378   4.667  12.209
46274W        W12815  23.172  18.001  12.343
46275W        W12816  38.073  30.865   2.823
46276W        W12817  36.119  25.155   1.377
46277W        W12818  21.445  41.905   4.218
46278W        W12819  37.238   8.417   1.084
46279W        W12820   6.252  39.527  13.749
46280W        W12821  14.030  16.055  11.693
46281W        W12822  10.127  24.925   4.122
46282W        W12823   0.799   3.643   1.744
46283W        W12824  16.877  11.692   4.560
46284W        W12825   7.860  16.600  12.573
46285W        W12826  34.379   5.270  13.100
46286W        W12827  31.108   9.006   4.480
46287W        W12828  35.052  19.538  12.017
46288W        W12829  31.063  14.376   2.186
46289W        W12830   3.855  38.304   3.376
46290W        W12831  20.703  37.632   4.884
46291W        W12832  31.138  37.426   4.119
46292W        W12833   1.213  34.992  14.861
46293W        W12834  41.006  18.517  14.499
46294W        W12835  32.996  24.130  14.985
46295W        W12836  29.026  35.105   1.647
46296W        W12837  15.269  28.628   1.104
46297W        W12838  36.074   7.650   2.842
46298W        W12839  39.458  18.266  12.890
46299W        W12840  27.065  43.369   4.834
46300W        W12841  32.345  14.036  13.887
46301W        W12842  41.485   8.657  12.147
46302W        W12843  16.132  14.039  12.098
46303W        W12844  37.941  44.975  12.502
46304W        W12845   4.321  39.073  12.184
46305W        W12846  23.508  25.178  11.954
46306W        W12847  38.793  13.319   4.620
46307W        W12848  34.974  29.371   0.795
46308W        W12849   9.696   7.301  13.982
46309W        W12850  36.319  31.419  14.401
46310W        W12851   4.452  37.796  14.400
46311W        W12852  28.526  20.022   1.405
46312W        W12853  14.653  37.048  13.340
46313W        W12854  35.799  11.328   4.989
46314W        W12855  42.133  18.093  13.993
46315W        W12856   8.940  10.548  10.766
46316W        W12857  43.419  29.158  13.880
46317W        W12858  40.943  11.865   9.872
46318W        W12859  11.398  42.043  13.372
46319W        W12860  34.458   2.096  14.429
46320W        W12861  44.964   5.870   4.394
46321W        W12862   2.826  26.047  12.175
46322W        W12863  17.021   2.767   3.379
46323W        W12864  17.460  11.301  10.613
46324W        W12865  33.015  24.262  12.952
46325W        W12866  15.569  16.016   5.187
46326W        W12867  35.885  29.597   3.255
46327W        W12868   8.011  13.880  14.860
46328W        W12869   3.486   0.445   1.109
46329W        W12870  31.777  43.464  13.133
46330W        W12871  34.948  22.322   0.543
46331W        W12872   5.597  12.084   4.441
46332W        W12873  37.788   1.024  12.023
46333W        W12874  22.788  20.188  14.809
46334W        W12875  20.709  14.115   0.056
46335W        W12876  22.692  26.720   3.708
46336W        W12877   0.288  26.562   4.676
46337W        W12878  26.123  42.348   4.368
46338W        W12879   0.340   3.111  12.453
46339W        W12880  28.863  22.235  13.366
46340W        W12881   3.445   1.381   1.752
46341W        W12882  13.970  13.803   4.957
46342W        W12883  22.007  39.742  12.331
46343W        W12884   3.858  40.988   4.543
46344W        W12885   5.399  25.281   0.864
46345W        W12886  13.801  25.074   1.289
46346W        W12887   1.872  31.585  14.473
46347W        W12888  19.500  24.087   2.746
46348W        W12889  34.815  35.509   0.590
46349W        W12890  29.091  43.317   3.858
46350W        W12891   2.727  21.920  11.631
46351W        W12892   5.807  37.899   3.367
46352W        W12893  22.625  40.929  13.529
46353W        W12894   2.719  30.109  10.704
46354W        W12895   5.942  42.007  14.878
46355W        W12896  25.637   9.700  13.015
46356W        W12897  16.036  26.155  14.277
46357W        W12898  40.082  43.410  13.609
46358W        W12899   7.757  26.533  13.630
46359W        W12900  23.816  36.947   3.388
46360W        W12901  32.450  41.091  10.670
46361W        W12902   7.902  26.724  12.903
46362W        W12903  43.449   1.851  10.732
46363W        W12904  21.029  41.922  13.540
46364W        W12905  16.161   0.779  13.566
46365W        W12906  43.554   9.778   3.676
46366W        W12907  17.149  39.107  12.916
46367W        W12908  30.218  17.737   1.497
46368W        W12909   1.863   1.486   0.720
46369W        W12910   8.865  29.519   4.070
46370W        W12911  33.806  38.768   0.473
46371W        W12912  33.375   8.632   0.436
46372W        W12913  33.737  25.921  11.736
46373W        W12914  23.454   9.735   3.537
46374W        W12915  16.506   7.479   4.107
46375W        W12916  44.797  44.684   0.832
46376W        W12917  37.433  11.169   1.438
46377W        W12918  23.362  31.920  12.828
46378W        W12919  25.774  27.315  11.060
46379W        W12920  27.411  21.280  12.799
46380W        W12921   8.973   5.488  11.160
46381W        W12922  39.005  31.894  13.969
46382W        W12923  38.072  22.411  13.825
46383W        W12924  16.525   2.793   3.272
46384W        W12925  12.649  14.421  12.605
46385W        W12926  33.303  26.118  12.730
46386W        W12927   3.430  21.538  10.650
46387W        W12928   3.846  39.308   2.624
46388W        W12929  21.758  25.186  14.114
46389W        W12930  18.948  43.191   4.206
46390W        W12931  13.280   4.933  14.454
46391W        W12932  21.653  35.083  10.464
46392W        W12933  35.163  32.623   4.147
46393W        W12934   1.955  21.455  14.543
46394W        W12935  44.515   8.608   4.995
46395W        W12936  10.655   1.751  13.688
46396W        W12937  36.441  26.967   4.910
46397W        W12938  28.970   0.319   2.697
46398W        W12939   9.940  21.627  11.582
46399W        W12940   8.305   1.011   4.293
46400W        W12941  11.617   6.329  13.381
46401W        W12942  13.228  20.576  14.782
46402W        W12943   5.183  23.996   2.635
46403W        W12944  31.983  24.547   0.383
46404W        W12945  40.101  30.726   4.382
46405W        W12946  30.446  26.441  10.678
46406W        W12947  15.585  43.766  10.761
46407W        W12948  11.719   1.383  12.667
46408W        W12949  34.952   2.054   2.662
46409W        W12950  18.984  13.192   2.025
46410W        W12951  41.339  30.338  10.751
46411W        W12952   5.267  26.990  12.850
46412W        W12953  23.870  35.131   4.528
46413W        W12954  31.485   1.411   2.928
46414W        W12955  39.979  34.658  14.481
46415W        W12956  42.876   7.723   4.022
46416W        W12957   9.562  42.371  13.862
46417W        W12958   1.088  33.194  14.945
46418W        W12959   0.184  31.062   3.087
46419W        W12960   6.704  16.558   3.864
46420W        W12961  14.872  40.597   2.293
46421W        W12962   4.194  25.073   3.625
46422W        W12963  15.861  44.810   3.275
46423W        W12964  35.605  34.970  11.060
46424W        W12965  21.455  14.630   4.822
46425W        W12966  19.081  20.610   1.655
46426W        W12967  16.239   5.114  10.429
46427W        W12968   0.078  22.047  14.310
46428W        W12969  18.175  25.211   2.731
46429W        W12970   5.634  18.232  11.439
46430W        W12971  27.966  28.666   0.665
46431W        W12972  43.788  40.638  14.532
46432W        W12973   4.794   5.958   3.148
46433W        W12974  33.813  13.032  11.618
46434W        W12975   3.627   4.840  11.512
46435W        W12976  27.606  15.832  12.361
46436W        W12977  12.157   8.218  13.857
46437W        W12978   2.492  39.430  13.928
46438W        W12979  11.790  15.048  11.186
46439W        W12980  31.009   5.623   2.384
46440W        W12981  26.277  11.259  14.082
46441W        W12982   6.297  16.718   0.916
46442W        W12983   2.928  34.394   4.093
46443W        W12984  22.792  39.725  11.136
46444W        W12985   0.439   9.936  14.871
46445W        W12986   0.309  42.487   1.672
46446W        W12987  35.933  29.596   4.976
46447W        W12988  27.300   9.153   2.364
46448W        W12989  30.635  15.177   1.722
46449W        W12990  23.993   0.370   4.608
46450W        W12991  28.042  11.622  10.404
46451W        W12992  22.551   8.113  14.442
46452W        W12993  11.397  41.559  13.824
46453W        W12994  30.092  32.674  10.713
46454W        W12995  11.192  26.575   4.075
46455W        W12996   8.683  10.046  13.698
46456W        W12997  37.668  31.769  11.990
46457W        W12998  44.378  37.658  13.414
46458W        W12999   8.150   2.340   3.170
46459W        W13000  12.317  44.312   0.887
46460W        W13001  33.919  32.061  12.790
46461W        W13002  39.469   3.703  12.722
46462W        W13003  33.259  24.454  14.671
46463W        W13004  42.751  32.523  10.997
46464W        W13005   7.447  12.352   4.217
46465W        W13006  10.342  10.243   4.656
46466W        W13007  30.338  40.051   4.685
46467W        W13008   4.730  23.573  11.945
46468W        W13009  18.498   6.832  14.517
46469W        W13010  15.709  31.532   0.199
46470W        W13011  44.004  35.303   4.558
46471W        W13012  14.796   9.073   0.310
46472W        W13013   0.225   3.329   1.668
46473W        W13014  15.353  31.727   4.075
46474W        W13015  28.363  24.299  11.060
46475W        W13016  18.755  23.027   0.796
46476W        W13017  21.565  26.053  12.853
46477W        W13018  24.056  33.130  11.394
46478W        W13019  36.770  34.970   2.816
46479W        W13020  39.832  31.342  12.655
46480W        W13021  42.525  18.563  12.151
46481W        W13022   0.796  17.853  12.530
46482W        W13023   7.108  33.654  12.649
46483W        W13024  19.797  35.518   3.694
46484W        W13025  23.257  10.755  10.690
46485W        W13026  11.816   7.713   2.209
46486W        W13027  19.739   7.064   3.206
46487W        W13028  22.517  43.058  14.467
46488W        W13029  21.224  17.769   1.305
46489W        W13030  18.328  25.466   2.280
46490W        W13031   9.156   1.310   3.319
46491W        W13032  18.085  11.677   1.342
46492W        W13033  29.866   6.180   0.914
46493W        W13034   5.883  38.903  12.355
46494W        W13035   9.301  25.185  14.863
46495W        W13036  15.248  41.723   3.400
46496W        W13037  28.164  24.425   4.678
46497W        W13038  13.569  13.655  12.284
46498W        W13039  36.899  32.363   1.160
46499W        W13040  36.323  23.951   3.559
46500W        W13041  26.987  26.732  11.121
46501W        W13042  31.130  41.805  12.128
46502W        W13043  29.276  36.794  14.858
46503W        W13044  29.803  14.306  11.611
46504W        W13045  29.672  39.036   0.373
46505W        W13046  32.465  16.192  14.701
46506W        W13047  37.557  39.516  10.715
46507W        W13048  11.334  31.287   2.825
46508W        W13049  15.092   0.322   0.327
46509W        W13050  33.140   4.471   1.770
46510W        W13051  25.067  26.502  14.003
46511W        W13052  18.584   9.295   4.210
46512W        W13053  14.217   6.913   4.116
46513W        W13054   5.877  27.909   4.584
46514W        W13055  29.152   4.253  11.749
46515W        W13056  19.785   1.518  14.379
46516W        W13057  39.120  10.632  10.790
46517W        W13058  41.092  32.061  13.327
46518W        W13059   5.946  41.500  11.494
46519W        W13060   6.439  38.094   0.705
46520W        W13061  19.950  43.350   3.170
46521W        W13062   7.212   9.393   0.923
46522W        W13063  16.573   6.161  11.738
46523W        W13064  25.474  32.225   1.929
46524W        W13065  34.297  10.878   1.148
46525W        W13066  26.561  44.843   0.455
46526W        W13067  13.774  10.450  14.842
46527W        W13068  18.793  22.623   3.209
46528W        W13069  35.543  43.984   4.068
46529W        W13070  44.148  36.296   4.727
46530W        W13071  41.624  25.349   3.669
46531W        W13072   1.426  33.698   4.554
46532W        W13073  34.426  39.904  12.083
46533W        W13074   7.072   3.196   4.154
46534W        W13075  16.329   3.410   5.012
46535W        W13076  27.095   4.486  11.997
46536W        W13077  43.916  37.422  13.572
46537W        W13078  15.405   3.340  14.891
46538W        W13079  29.028   4.204   0.394
46539W        W13080   4.377  15.321   3.561
46540W        W13081  44.354  23.564   4.118
46541W        W13082   9.912  29.142  13.297
46542W        W13083  43.911   1.984   0.970
46543W        W13084  44.820  34.520  14.853
46544W        W13085  34.775  37.598  13.545
46545W        W13086  28.139  26.009   2.018
46546W        W13087  42.859  19.935  11.176
46547W        W13088   0.262  10.346  11.382
46548W        W13089  29.903  40.300  11.398
46549W        W13090   2.745  33.605   5.228
46550W        W13091  42.499  27.854  11.226
46551W        W13092  28.673  43.439   2.562
46552W        W13093  41.922  38.564   0.823
46553W        W13094  25.953  14.676   2.363
46554W        W13095  29.530   7.864   4.192
46555W        W13096   9.916   3.248  14.967
46556W        W13097  26.791  34.980   1.817
46557W        W13098  13.850  35.495   2.801
46558W        W13099  20.671  43.115   1.963
46559W        W13100  37.985  41.512  13.444
46560W        W13101   7.478  26.926  11.529
46561W        W13102  22.614   2.972  13.386
46562W        W13103  19.590  33.826   1.337
46563W        W13104  31.879   9.696   1.795
46564W        W13105  44.754  17.792   0.432
46565W        W13106  13.695  18.118   4.725
46566W        W13107  41.045  43.203   1.355
46567W        W13108  15.270   4.262   2.675
46568W        W13109  14.783  14.136  12.094
46569W        W13110   8.801   6.140  14.043
46570W        W13111  23.394  26.152   0.218
46571W        W13112  23.973   9.712  11.209
46572W        W13113  34.888  13.127   1.792
46573W        W13114  20.558  13.435  13.494
46574W        W13115  26.961   0.456   2.299
46575W        W13116   3.839  10.946   4.046
46576W        W13117  17.757  36.827   3.571
46577W        W13118  28.398  12.658  12.484
46578W        W13119  20.714  10.230   3.909
46579W        W13120  44.365  37.504   0.892
46580W        W13121  42.467   4.363  12.341
46581W        W13122  44.499   2.492   2.829
46582W        W13123  19.647  11.868  13.457
46583W        W13124  39.564  13.131   2.407
46584W        W13125   4.010  17.629  14.525
46585W        W13126  16.522   0.971  12.610
46586W        W13127  35.608   5.869   0.990
46587W        W13128  39.388   6.819  11.090
46588W        W13129  13.357  24.299   3.679
46589W        W13130  24.351  12.646  12.420
46590W        W13131  17.181  12.816   1.305
46591W        W13132  36.059  17.951  12.398
46592W        W13133  14.680   1.266  14.991
46593W        W13134  24.700  22.759  10.473
46594W        W13135  38.426   1.964   3.231
46595W        W13136  12.583   5.910   1.723
46596W        W13137   8.315  21.495  10.616
46597W        W13138  11.285  36.195   2.367
46598W        W13139  44.325  28.576   4.777
46599W        W13140  11.393   5.842   2.562
46600W        W13141  32.176  28.634   1.718
46601W        W13142  25.655  28.159  12.486
46602W        W13143  42.492   2.359   2.738
46603W        W13144   6.683  35.416   0.885
46604W        W13145  13.732   9.429   3.425
46605W        W13146   2.995  23.640   4.217
46606W        W13147  21.647  44.514   1.258
46607W        W13148  10.627  44.950  14.023
46608W        W13149  29.190   4.194   3.135
46609W        W13150  28.398   8.987   4.945
46610W        W13151  40.994  30.405   2.353
46611W        W13152  37.550   8.186  14.821
46612W        W13153  25.050  34.421   2.483
46613W        W13154  40.205   5.766  12.186
46614W        W13155  33.586  44.857   0.493
46615W        W13156  23.267  13.813  11.504
46616W        W13157   6.554  37.351   0.522
46617W        W13158  41.396  22.734   1.470
46618W        W13159  26.013   9.862  13.948
46619W        W13160   9.236  33.908  11.932
46620W        W13161  13.159  33.584  10.255
46621W        W13162   6.341   0.963   3.244
46622W        W13163  19.144  36.010  13.384
46623W        W13164  38.346   3.891  14.363
46624W        W13165   7.422  10.702  13.609
46625W        W13166  21.942   6.207   3.612
46626W        W13167  20.851  31.454   4.675
46627W        W13168  33.890   2.173  12.579
46628W        W13169  25.323   6.674  12.636
46629W        W13170   6.853   1.398  10.571
46630W        W13171  44.987  44.846   9.921
46631W        W13172   4.822  41.857   3.197
46632W        W13173  35.699  18.813   4.208
46633W        W13174  28.730  12.619  12.107
46634W        W13175  14.380  18.100   0.905
46635W        W13176   5.822  29.505   2.897
46636W        W13177  20.299  40.563   0.751
46637W        W13178  15.637  23.725   3.890
46638W        W13179  32.559  11.226  12.082
46639W        W13180  19.066   9.412   1.706
46640W        W13181  40.939   0.216   4.706
46641W        W13182  16.917  42.342  14.528
46642W        W13183   9.122  37.553   3.859
46643W        W13184  29.144  37.476  10.658
46644W        W13185  21.089  31.895  14.371
46645W        W13186  21.822  33.052  12.358
46646W        W13187  33.095  30.909   4.751
46647W        W13188  23.757  39.009  12.875
46648W        W13189   6.253  41.906  10.723
46649W        W13190  13.092  34.108  10.212
46650W        W13191  27.081   0.534  13.832
46651W        W13192  17.116  30.689  14.093
46652W        W13193   0.677  29.498  14.893
46653W        W13194  26.219   5.639   1.292
46654W        W13195   2.375   9.219   4.647
46655W        W13196  16.482  29.392  11.111
46656W        W13197  40.102  17.101   0.525
46657W        W13198  33.615  39.254   1.294
46658W        W13199  35.012  38.751  12.400
46659W        W13200  12.327   9.138   2.651
46660W        W13201  39.546  38.538   0.338
46661W        W13202  38.762  29.115  10.309
46662W        W13203   5.259  18.083   2.816
46663W        W13204  30.255  13.844   3.811
46664W        W13205  37.346  33.942   4.203
46665W        W13206  29.513  25.820   2.125
46666W        W13207  11.874  40.590   1.270
46667W        W13208  15.673  37.891   5.090
46668W        W13209  37.506   1.394   1.193
46669W        W13210  34.033  43.523   4.937
46670W        W13211   1.961   5.416   1.109
46671W        W13212  19.803  21.213  10.685
46672W        W13213   2.287   6.854   0.451
46673W        W13214  26.557  20.954  12.647
46674W        W13215  25.029  20.979  12.215
46675W        W13216  11.881  14.277   2.745
46676W        W13217   2.227  29.546  14.715
46677W        W13218  43.751   1.833   2.401
46678W        W13219  19.278   7.977   3.216
46679W        W13220   1.369  24.550  10.192
46680W        W13221   2.285  22.782  10.596
46681W        W13222  12.275  21.670   3.724
46682W        W13223  16.667  28.471  11.703
46683W        W13224  43.402  31.942   2.160
46684W        W13225  34.819   8.776   0.517
46685W        W13226  33.287  26.427   4.581
46686W        W13227  38.432   9.149  12.651
46687W        W13228  16.710  25.257   1.830
46688W        W13229  37.842  37.828  11.570
46689W        W13230   9.476  27.233   3.025
46690W        W13231  28.802  29.164  12.922
46691W        W13232  17.680   8.212   4.270
46692W        W13233   3.870  22.215  13.146
46693W        W13234   5.948  17.076   3.807
46694W        W13235  11.895  41.550  12.328
46695W        W13236  35.691  16.251   4.956
46696W        W13237  28.571  19.589  12.548
46697W        W13238  42.369   4.239   4.199
46698W        W13239  25.523  14.840   4.154
46699W        W13240  39.393  36.601   3.238
46700W        W13241  32.415  19.774  12.060
46701W        W13242  31.140   6.697  10.442
46702W        W13243  14.874  44.680  10.584
46703W        W13244  34.061  29.734   1.841
46704W        W13245  33.800  39.974  14.383
46705W        W13246  21.491  30.257   0.783
46706W        W13247  41.999   4.050   1.817
46707W        W13248  22.016  40.512   2.901
46708W        W13249   5.003  31.856  11.503
46709W        W13250  13.178  19.547  10.097
46710W        W13251  42.452  44.184   3.718
46711W        W13252  44.872  10.169  10.644
46712W        W13253  35.789  36.556  14.351
46713W        W13254  25.535  38.432  11.333
46714W        W13255  21.984  13.741   4.146
46715W        W13256   8.905  39.820  14.808
46716W        W13257  40.228  14.594   0.803
46717W        W13258   7.161  41.611  11.995
46718W        W13259   1.831   9.159  14.314
46719W        W13260  16.785   1.365   0.485
46720W        W13261   9.121  29.425  12.513
46721W        W13262   9.980  17.824  12.645
46722W        W13263  40.260   2.922   0.766
46723W        W13264   8.047  34.009  14.353
46724W        W13265  29.537  40.821   1.826
46725W        W13266   3.505  23.955   3.316
46726W        W13267  32.241  41.229   3.683
46727W        W13268  42.497  20.623   1.859
46728W        W13269   4.404   5.356   2.859
46729W        W13270  43.675   0.417  13.406
46730W        W13271  13.343  21.824  11.481
46731W        W13272  43.645  32.362   1.167
46732W        W13273   7.974  37.051   2.121
46733W        W13274  25.524  37.008   0.888
46734W        W13275  17.545  30.391  10.268
46735W        W13276  20.511   8.261  12.125
46736W        W13277  25.456   7.761  11.622
46737W        W13278  39.545  12.678   3.600
46738W        W13279  23.166  22.730   3.991
46739W        W13280  36.104  28.124   0.246
46740W        W13281  30.933  28.359  11.169
46741W        W13282   4.847  39.065   4.237
46742W        W13283  33.023  25.944   4.186
46743W        W13284   4.868  39.308   3.241
46744W        W13285  15.397  10.727  13.968
46745W        W13286  24.483  28.943  12.151
46746W        W13287   1.558  15.086  14.536
46747W        W13288   5.917   8.994  12.746
46748W        W13289  27.193   6.933   1.847
46749W        W13290   1.270   1.226  14.574
46750W        W13291  37.336   5.843  12.567
46751W        W13292  10.100  26.593   0.934
46752W        W13293   6.786  31.591   3.777
46753W        W13294   4.656   8.663   4.480
46754W        W13295  44.966  20.060   0.880
46755W        W13296  14.200   8.842   2.295
46756W        W13297  34.462  35.985  14.976
46757W        W13298  29.119  13.180   2.635
46758W        W13299  29.891   9.912   1.360
46759W        W13300  28.601   7.876   0.017
46760W        W13301  40.874  15.492   3.761
46761W        W13302  42.847  13.525   3.841
46762W        W13303  39.326   7.214  12.659
46763W        W13304  16.198  27.376  14.614
46764W        W13305  44.591  27.375  12.479
46765W        W13306  24.062  35.108   1.535
46766W        W13307  42.506  16.299   4.007
46767W        W13308  37.944  25.728   3.721
46768W        W13309   9.401  21.272   4.722
46769W        W13310  38.006   0.401  11.653
46770W        W13311  39.849  44.367  13.829
46771W        W13312  37.389  15.862   4.562
46772W        W13313  18.965  22.466   9.715
46773W        W13314  17.016  35.689  11.588
46774W        W13315   9.635  40.831  13.901
46775W        W13316  34.495   9.895   3.158
46776W        W13317  43.018  22.423   0.237
46777W        W13318  39.381  14.977   2.084
46778W        W13319  35.306  43.287   0.682
46779W        W13320  17.611  34.641   3.201
46780W        W13321  26.961  10.386   4.967
46781W        W13322  12.261  40.217  10.986
46782W        W13323  13.235  11.990  14.755
46783W        W13324  38.027   8.133   4.599
46784W        W13325  23.014   3.374   0.396
46785W        W13326  40.069  17.565  12.633
46786W        W13327  15.163  16.931  11.761
46787W        W13328  18.652  31.412   1.593
46788W        W13329  42.283  18.714  14.132
46789W        W13330  26.683  21.176  14.376
46790W        W13331   9.860  37.874  10.058
46791W        W13332  20.700  30.067  14.457
46792W        W13333  40.486  25.816   3.803
46793W        W13334  22.429  16.107   3.712
46794W        W13335   9.451   1.755  11.771
46795W        W13336  27.933  34.122   1.733
46796W        W13337  16.360  18.226  14.828
46797W        W13338  43.289  33.432   0.024
46798W        W13339  16.893  16.235   1.297
46799W        W13340   7.957  20.662   3.698
46800W        W13341   4.765  19.200   0.052
46801W        W13342  35.624  35.637   3.308
46802W        W13343  33.430  39.462   3.591
46803W        W13344  14.342  33.150  12.383
46804W        W13345   4.788   7.241   5.133
46805W        W13346  22.583   9.111   5.079
46806W        W13347  25.083  27.053   3.657
46807W        W13348   8.647   4.488  11.077
46808W        W13349  25.649   3.265  14.413
46809W        W13350  31.594  27.167  11.555
46810W        W13351   7.541   2.483   4.002
46811W        W13352  37.357  31.447   1.750
46812W        W13353   8.133  15.697  12.898
46813W        W13354  16.657  24.501   1.329
46814W        W13355   1.744   4.901   2.806
46815W        W13356  12.593  25.743  10.677
46816W        W13357   1.942  36.076  10.388
46817W        W13358  21.608   3.374  11.786
46818W        W13359   2.605  41.974   4.124
46819W        W13360  43.941  10.549   3.960
46820W        W13361  31.919  35.411  13.391
46821W        W13362  38.987  21.124  11.728
46822W        W13363  26.875  32.077  13.896
46823W        W13364  23.082  44.250  11.220
46824W        W13365  23.977  22.054  10.595
46825W        W13366  21.975  26.498  14.328
46826W        W13367   8.740  34.665   0.817
46827W        W13368  13.105  37.579  14.320
46828W        W13369   1.872  28.270   4.198
46829W        W13370  34.820  35.319  10.286
46830W        W13371  27.786   9.922   0.262
46831W        W13372   3.475  41.044   2.861
46832W        W13373  15.976  35.427   2.772
46833W        W13374  15.000  19.629   0.241
46834W        W13375   8.435   1.452   4.655
46835W        W13376  29.170  15.743  13.035
46836W        W13377   7.374  26.623   0.718
46837W        W13378  31.862  20.467   3.635
46838W        W13379  41.580   0.746   2.855
46839W        W13380  35.946   3.791  14.628
46840W        W13381  21.254  12.793   4.971
46841W        W13382  30.162   1.362  12.987
46842W        W13383  19.619  23.953   3.245
46843W        W13384   8.978  11.274   1.122
46844W        W13385  11.625  31.374  13.062
46845W        W13386  44.629  30.854  10.280
46846W        W13387  11.277  42.520  10.933
46847W        W13388  32.504  41.158   4.111
46848W        W13389  14.011  13.469  12.081
46849W        W13390  12.239  35.792  14.775
46850W        W13391  41.472   1.521   3.243
46851W        W13392  39.015  22.533   4.265
46852W        W13393  25.976  34.430  14.982
46853W        W13394   7.474  14.940   3.499
46854W        W13395  44.265  40.982  14.848
46855W        W13396  25.701  18.545  14.970
46856W        W13397  42.018  41.591  13.402
46857W        W13398  15.693  40.320   4.097
46858W        W13399  20.568  11.618   2.792
46859W        W13400  38.793  10.323   1.251
46860W        W13401  38.009  39.624   1.989
46861W        W13402  42.443  11.255   4.997
46862W        W13403  13.351  22.109   0.511
46863W        W13404  34.934  17.341  12.855
46864W        W13405  33.344  12.677   2.122
46865W        W13406  34.609  16.526   2.499
46866W        W13407   0.201  34.636   4.177
46867W        W13408  32.726  23.065  13.981
46868W        W13409  30.976  15.663   0.247
46869W        W13410  36.833  12.667   0.935
46870W        W13411  17.630  12.061  14.456
46871W        W13412   9.228  15.005  10.719
46872W        W13413  29.590  43.351   1.214
46873W        W13414  35.542   4.692  13.849
46874W        W13415  25.534  38.613   1.932
46875W        W13416  14.493  24.058   0.210
46876W        W13417  28.549   0.332  13.330
46877W        W13418  37.787   0.279   0.002
46878W        W13419   2.787  28.874  11.917
46879W        W13420   6.077  19.476  12.842
46880W        W13421  34.695  44.554  12.698
46881W        W13422  28.325   9.477   4.816
46882W        W13423  17.563  18.504   4.099
46883W        W13424  11.300  28.122   4.524
46884W        W13425  23.273  41.706   3.246
46885W        W13426   2.785   4.535   2.165
46886W        W13427  22.567  29.339  13.548
46887W        W13428  30.845  21.698  13.529
46888W        W13429  32.917  10.762  12.555
46889W        W13430   5.088  22.698   2.993
46890W        W13431  18.574   7.223   4.104
46891W        W13432  23.251  10.741  13.680
46892W        W13433   8.778  40.984   4.766
46893W        W13434  19.651  19.580  12.522
46894W        W13435  32.939  44.748   3.324
46895W        W13436  28.212  33.608  12.366
46896W        W13437  26.605   5.606   9.800
46897W        W13438   8.317  41.162  13.415
46898W        W13439  27.066   8.183   4.038
46899W        W13440  16.863  18.246   3.533
46900W        W13441  12.605  22.214   4.853
46901W        W13442   2.157  37.470   4.914
46902W        W13443   3.160   1.210   4.035
46903W        W13444  13.415   1.750   0.334
46904W        W13445  21.555  22.952   0.227
46905W        W13446  42.724  16.151  12.981
46906W        W13447   2.317  31.263  14.261
46907W        W13448  41.053  26.947  11.630
46908W        W13449  12.115   4.862  12.512
46909W        W13450  39.327  14.009   3.594
46910W        W13451  32.584  23.645  10.734
46911W        W13452  23.063  44.878   2.324
46912W        W13453  24.487   2.368  14.365
46913W        W13454  44.328  20.464   0.596
46914W        W13455  11.126  23.988  13.379
46915W        W13456  15.273  35.126   4.046
46916W        W13457   6.919  27.599   2.172
46917W        W13458  32.796   8.388  12.387
46918W        W13459  40.640  12.509  12.447
46919W        W13460  21.766  13.849   5.054
46920W        W13461  19.410   8.283  11.665
46921W        W13462   5.194  33.866   3.192
46922W        W13463  36.452  21.282   0.136
46923W        W13464   0.495   9.612   4.517
46924W        W13465  37.375  21.616   2.219
46925W        W13466   4.188  19.102   2.254
46926W        W13467  10.405  19.481  12.549
46927W        W13468   0.927   7.627  11.081
46928W        W13469  44.518  14.069   4.616
46929W        W13470  25.039  10.663   2.572
46930W        W13471  26.702   0.475   3.791
46931W        W13472  26.921  29.428  13.838
46932W        W13473  41.402  16.044  14.401
46933W        W13474  28.150  28.677   2.668
46934W        W13475  24.254  37.551  14.381
46935W        W13476  36.333  26.964   1.307
46936W        W13477  39.439  12.900   4.938
46937W        W13478  20.617  44.991   0.184
46938W        W13479  32.654   0.404   2.380
46939W        W13480  32.514  41.349  13.412
46940W        W13481  32.738  43.000   4.608
46941W        W13482  12.442  26.756  11.966
46942W        W13483  33.405  22.380  12.405
46943W        W13484  22.338   3.593   4.949
46944W        W13485   6.550  13.308   1.615
46945W        W13486  12.630  33.032   1.437
46946W        W13487  18.795  40.098  14.030
46947W        W13488  39.420  25.012  14.790
46948W        W13489  33.677  20.619  12.454
46949W        W13490  41.803  35.582  14.925
46950W        W13491   1.925  42.013  11.648
46951W        W13492  16.345  32.751   5.040
46952W        W13493  32.852  33.590   1.193
46953W        W13494  44.871  19.072  12.800
46954W        W13495   7.215  30.209   0.810
46955W        W13496  42.602  37.075  13.444
46956W        W13497   2.806   5.553   2.084
46957W        W13498  10.663   5.355  13.441
46958W        W13499  18.243   0.213   1.232
46959W        W13500  22.898   2.158   3.738
46960W        W13501  13.263  34.557   1.940
46961W        W13502  14.314  44.327   4.648
46962W        W13503  20.525  33.470   1.761
46963W        W13504  20.026   2.397  14.768
46964W        W13505   3.210  20.231  12.580
46965W        W13506  16.503  10.267  12.848
46966W        W13507  18.377  32.437   0.307
46967W        W13508  23.168   1.700   3.726
46968W        W13509   5.485  17.269  12.267
46969W        W13510   8.923  30.104   1.236
46970W        W13511  32.189  15.376  11.735
46971W        W13512  15.564  41.009   0.507
46972W        W13513  42.514  27.232  14.495
46973W        W13514  35.894  15.544  11.578
46974W        W13515  23.980  25.219  13.577
46975W        W13516  27.509  12.364  12.521
46976W        W13517   6.928  18.864  12.923
46977W        W13518  31.310  38.853  10.392
46978W        W13519  35.593  11.887   3.423
46979W        W13520  14.198  15.007   4.489
46980W        W13521  39.025  25.955   2.162
46981W        W13522  23.675   6.644   3.505
46982W        W13523   1.726   2.415   1.900
46983W        W13524  33.215  23.590   4.079
46984W        W13525   2.617  38.475   3.487
46985W        W13526  18.291  40.205  14.079
46986W        W13527  20.576   0.874   3.172
46987W        W13528  12.934   6.380  11.988
46988W        W13529  15.458  16.080   1.306
46989W        W13530   0.451  44.372  13.559
46990W        W13531  19.213  13.088  10.790
46991W        W13532  32.432   5.046   2.826
46992W        W13533   0.478   9.685   0.336
46993W        W13534   7.239  32.594   0.256
46994W        W13535  42.811  14.278  14.218
46995W        W13536   3.010  11.766  13.854
46996W        W13537  14.933  27.126   3.203
46997W        W13538  44.071  26.097   1.321
46998W        W13539  20.200  20.812  11.615
46999W        W13540  28.647   6.483  13.338
47000W        W13541  19.600  15.730  11.369
47001W        W13542   4.952  34.269  12.834
47002W        W13543  11.102   6.517   3.075
47003W        W13544   2.810  18.755   1.339
47004W        W13545   1.322  28.686   3.479
47005W        W13546  19.801  39.838  14.507
47006W        W13547   0.961  38.834   2.145
47007W        W13548  10.503   6.260  10.252
47008W        W13549  32.572  15.565  13.376
47009W        W13550  14.725  26.182   4.675
47010W        W13551  27.835  41.397   5.020
47011W        W13552   1.460  37.267  14.332
47012W        W13553  37.562  44.692  13.375
47013W        W13554   4.856  15.373   0.514
47014W        W13555  12.536  13.191   3.106
47015W        W13556  25.111  26.498  12.973
47016W        W13557  44.040  28.671  11.078
47017W        W13558  11.243   3.204   2.351
47018W        W13559  36.333  13.201  12.813
47019W        W13560   0.293  25.140   5.000
47020W        W13561   2.991  12.788  13.820
47021W        W13562  26.055  43.475  13.823
47022W        W13563  42.478  35.417   3.198
47023W        W13564  31.948  25.598  13.264
47024W        W13565  20.779  30.887  12.078
47025W        W13566  33.634  29.112  13.491
47026W        W13567  35.316   8.705  13.685
47027W        W13568  12.679   3.510   1.880
47028W        W13569   2.558   6.379  12.346
47029W        W13570  12.064   8.179  10.737
47030W        W13571  40.312  22.021   0.004
47031W        W13572  29.530  27.299  13.813
47032W        W13573  16.210  10.645   4.492
47033W        W13574  27.457   2.787  11.460
47034W        W13575   5.775  27.198  11.066
47035W        W13576  18.170   4.780  14.316
47036W        W13577   8.669  26.842   4.989
47037W        W13578  27.020  22.964  12.112
47038W        W13579  30.853  38.812   2.296
47039W        W13580   8.412  11.422  11.571
47040W        W13581  42.019  30.862   1.281
47041W        W13582  12.251  44.808   4.237
47042W        W13583  40.068   2.713  10.586
47043W        W13584  17.031  39.381   4.377
47044W        W13585  31.300  13.698  14.337
47045W        W13586  29.441  23.459   2.837
47046W        W13587   4.773  17.579   1.753
47047W        W13588  15.110   8.452  13.273
47048W        W13589  31.081   1.993  14.781
47049W        W13590   7.958  43.454   2.759
47050W        W13591  17.291  13.141   2.834
47051W        W13592  28.670  15.091   0.915
47052W        W13593   7.114   5.403  11.465
47053W        W13594  32.055   5.566  14.244
47054W        W13595  21.725  42.249  13.564
47055W        W13596   5.514  20.928   0.405
47056W        W13597   6.365   1.227   3.794
47057W        W13598  37.347  42.237  14.535
47058W        W13599  31.175  38.792   0.376
47059W        W13600  43.928   9.452  12.674
47060W        W13601  10.718  17.525   4.908
47061W        W13602  36.443  12.306   2.205
47062W        W13603  22.823  40.344   1.537
47063W        W13604  30.915  37.665   3.722
47064W        W13605  10.589  10.677   4.551
47065W        W13606  24.046  16.308   0.839
47066W        W13607   1.169  25.933  11.250
47067W        W13608  15.630  13.156   4.497
47068W        W13609  43.310   3.910  13.222
47069W        W13610  30.239  31.485  12.768
47070W        W13611  40.015  23.225   3.645
47071W        W13612  38.424   7.902  13.353
47072W        W13613   0.730  39.353  11.374
47073W        W13614  32.865   1.173  10.934
47074W        W13615  20.575  21.976   4.315
47075W        W13616  17.042   4.624   3.170
47076W        W13617  21.627  25.076  12.576
47077W        W13618   6.243   6.045   3.262
47078W        W13619  35.452   4.868   4.425
47079W        W13620  41.039  10.560   5.180
47080W        W13621  16.368  39.890  12.035
47081W        W13622  30.136   7.693   2.733
47082W        W13623  22.157  24.990   3.217
47083W        W13624  36.617   4.325  12.145
47084W        W13625  24.105  30.935   2.421
47085W        W13626  17.252  34.346   1.619
47086W        W13627  23.096  25.764  14.286
47087W        W13628  31.905  27.571   1.811
47088W        W13629  35.468  29.070  12.682
47089W        W13630  37.651  34.548   0.043
47090W        W13631  12.146  34.125   3.224
47091W        W13632  25.589  43.575   4.048
47092W        W13633  25.522  33.462  14.864
47093W        W13634  20.077  26.542  10.286
47094W        W13635  20.332  39.344  13.457
47095W        W13636  32.175  11.593  13.173
47096W        W13637  40.961  23.349  13.309
47097W        W13638  23.042  43.641   0.776
47098W        W13639   3.418   5.649  13.667
47099W        W13640  18.101  30.637   0.580
47100W        W13641  39.932  22.795  14.258
47101W        W13642  43.949  19.076  13.314
47102W        W13643  40.812  36.172  11.183
47103W        W13644  29.543  27.408  14.336
47104W        W13645   2.901  30.445  11.064
47105W        W13646  43.449  23.507   2.350
47106W        W13647   9.673  27.285  12.547
47107W        W13648   3.488  11.174  12.656
47108W        W13649   1.923  22.425   1.846
47109W        W13650   4.880  26.974  11.480
47110W        W13651  18.226  19.765  12.524
47111W        W13652  29.631  10.295  10.381
47112W        W13653  30.612  23.550   3.497
47113W        W13654  16.584  41.358   2.697
47114W        W13655   6.957  25.244   2.217
47115W        W13656  22.065   1.220   3.930
47116W        W13657  15.561   3.317  13.393
47117W        W13658   9.136  38.799  14.443
47118W        W13659  14.392  20.212  12.082
47119W        W13660   2.489  19.071   0.387
47120W        W13661  15.287  13.849  13.029
47121W        W13662  30.739  40.513  14.415
47122W        W13663  26.457  18.422   5.014
47123W        W13664  16.052   3.710   4.640
47124W        W13665  29.872  35.806   2.231
47125W        W13666   4.361  12.260  12.911
47126W        W13667  35.588  44.405  11.332
47127W        W13668  11.360   2.401  14.360
47128W        W13669  26.602  40.206   1.493
47129W        W13670  36.460  19.444  14.464
47130W        W13671   9.363   0.389   0.211
47131W        W13672  18.334  18.035  12.966
47132W        W13673  34.405  42.443   3.200
47133W        W13674  16.554  36.987   1.763
47134W        W13675  11.176  30.017  11.329
47135W        W13676  24.414  44.019   3.654
47136W        W13677  39.755  15.323  12.848
47137W        W13678  16.233  33.909  14.308
47138W        W13679  22.022  44.501  13.009
47139W        W13680  33.063   7.758   2.633
47140W        W13681  13.580  14.775  11.137
47141W        W13682  29.085  41.774   3.431
47142W        W13683  19.805  24.802  12.061
47143W        W13684  23.927  16.170  13.789
47144W        W13685  39.531  21.319   3.708
47145W        W13686  14.819  38.131  10.724
47146W        W13687  43.216  26.540   4.763
47147W        W13688  33.361  12.857  13.976
47148W        W13689  10.273  31.651   1.139
47149W        W13690   9.097  33.137   4.612
47150W        W13691  16.530  25.141  12.393
47151W        W13692  30.795  12.244   0.979
47152W        W13693  37.058  44.725  10.683
47153W        W13694   0.970  26.913   4.839
47154W        W13695  35.370  32.877  13.016
47155W        W13696  34.726  16.520   0.902
47156W        W13697  23.264  17.466  14.814
47157W        W13698  30.618  22.389   2.806
47158W        W13699  34.607  44.886  10.784
47159W        W13700  32.289  19.590  12.934
47160W        W13701  40.350   2.367  14.526
47161W        W13702   5.902  42.320   3.743
47162W        W13703  29.560  20.951   3.806
47163W        W13704  39.016  26.682  13.931
47164W        W13705  28.963  11.296  13.853
47165W        W13706   8.240  40.465  11.587
47166W        W13707  15.843  31.176  14.486
47167W        W13708   8.251  13.504  10.780
47168W        W13709  27.629  20.496   3.269
47169W        W13710   7.930   9.234  11.210
47170W        W13711  41.459  23.135  14.051
47171W        W13712  31.758   7.105  10.921
47172W        W13713  44.773  29.973  13.569
47173W        W13714   2.459  30.982  12.636
47174W        W13715  30.887  42.863   2.212
47175W        W13716  27.601  28.342   0.959
47176W        W13717  12.420  38.973   2.379
47177W        W13718  19.634   5.692   1.783
47178W        W13719  21.123  44.903   2.585
47179W        W13720  30.448  20.174  10.674
47180W        W13721  25.708   4.884   3.596
47181W        W13722   6.745   2.088  11.539
47182W        W13723  10.592  15.999   2.754
47183W        W13724   0.442  36.630  13.456
47184W        W13725  11.058  17.562   0.148
47185W        W13726  23.786  22.053  13.698
47186W        W13727   3.742  22.188  11.492
47187W        W13728  12.195  19.591  13.403
47188W        W13729  36.056  19.293  13.230
47189W        W13730  10.651  31.564  13.443
47190W        W13731  34.659  15.208   3.187
47191W        W13732  16.097  30.209  11.215
47192W        W13733  31.120  24.962  13.879
47193W        W13734  33.036  29.830   0.967
47194W        W13735  33.528  15.251   5.125
47195W        W13736  41.991   1.719  13.029
47196W        W13737   2.215  42.972  11.388
47197W        W13738  18.776  10.969   2.170
47198W        W13739  18.787  31.721   3.130
47199W        W13740  25.609  36.869   3.687
47200W        W13741  19.562  27.690   4.526
47201W        W13742  41.907  13.586   1.509
47202W        W13743  11.764   7.916  11.346
47203W        W13744  18.783   7.682  11.448
47204W        W13745   5.921  41.267   1.915
47205W        W13746  10.529  35.640   1.371
47206W        W13747  21.307  39.720  14.549
47207W        W13748  23.624  31.032   0.236
47208W        W13749  15.286  32.286  11.368
47209W        W13750  30.995  18.298   0.842
47210W        W13751   6.780  30.059  12.938
47211W        W13752  31.065   3.567  10.838
47212W        W13753   3.965   6.780  12.943
47213W        W13754   4.771   4.963  11.594
47214W        W13755  15.129  14.977   4.555
47215W        W13756  10.181   6.215  13.923
47216W        W13757  12.908  13.453  13.895
47217W        W13758   8.674  25.418   1.938
47218W        W13759  25.751  27.153   1.685
47219W        W13760  31.893  30.802  14.954
47220W        W13761  13.174  12.743   4.127
47221W        W13762  20.074  17.001   4.876
47222W        W13763  43.902   4.211  13.342
47223W        W13764  23.402  32.859   0.423
47224W        W13765  35.119  18.332  12.446
47225W        W13766   5.776  10.830  14.303
47226W        W13767  36.538  16.608  11.762
47227W        W13768  16.423  30.927   1.404
47228W        W13769  11.305   7.813   0.892
47229W        W13770   6.292  12.575   0.343
47230W        W13771  39.011  44.452   3.872
47231W        W13772  18.739  24.339  14.371
47232W        W13773  35.925  41.734  12.043
47233W        W13774  10.790  41.482   4.540
47234W        W13775  11.133  22.474  12.108
47235W        W13776  29.650   5.938   1.329
47236W        W13777  19.733  27.222  11.151
47237W        W13778   3.557  26.571  11.145
47238W        W13779   7.284  27.471  14.906
47239W        W13780  22.998   2.835   0.488
47240W        W13781  36.892  11.265   4.544
47241W        W13782  34.583  23.537   2.604
47242W        W13783  15.506  16.027   4.211
47243W        W13784  16.652  18.080  12.139
47244W        W13785  15.575  33.631  13.590
47245W        W13786  41.278  10.911   4.909
47246W        W13787  22.341  12.650   4.119
47247W        W13788  42.334  42.398   4.463
47248W        W13789  28.517  11.680   2.756
47249W        W13790  16.739   4.200   4.889
47250W        W13791   6.274  30.713  10.373
47251W        W13792  37.870  39.606  12.134
47252W        W13793  29.585  36.496   4.528
47253W        W13794  42.664  23.654   3.366
47254W        W13795   8.886  23.554   1.291
47255W        W13796  15.234   1.920  10.775
47256W        W13797  38.326  40.338   4.597
47257W        W13798  26.481  37.097   0.890
47258W        W13799   9.755  38.831   2.702
47259W        W13800  16.767   5.817  14.825
47260W        W13801  25.216  19.892   3.824
47261W        W13802  26.878   4.945  11.939
47262W        W13803   9.833  40.971   1.798
47263W        W13804  14.049  28.941  13.802
47264W        W13805  37.372   9.579   3.799
47265W        W13806  16.303  41.331  12.041
47266W        W13807  31.202   8.760   1.867
47267W        W13808  27.068  19.199   1.431
47268W        W13809  11.625  34.603  14.397
47269W        W13810  30.411  32.948  14.033
47270W        W13811  16.750  35.891  11.982
47271W        W13812   2.976   2.069  13.734
47272W        W13813   6.937  24.086   3.216
47273W        W13814  33.581  14.245  10.429
47274W        W13815  13.857   3.995  11.705
47275W        W13816   6.071  24.094   1.361
47276W        W13817  16.551  10.967   1.358
47277W        W13818  16.112   2.740   0.793
47278W        W13819   9.749   1.307  14.554
47279W        W13820  30.403  21.114  14.811
47280W        W13821  28.034  12.271  13.831
47281W        W13822  18.493   4.465   3.324
47282W        W13823  37.544  30.943  12.521
47283W        W13824  34.873  27.268   3.389
47284W        W13825   6.305  23.514   0.443
47285W        W13826  28.481  39.562  14.822
47286W        W13827  26.133  12.343  10.681
47287W        W13828  20.749  22.383  14.508
47288W        W13829  35.999  35.906   0.191
47289W        W13830  28.658  25.515  14.062
47290W        W13831   4.712  21.017   0.348
47291W        W13832   9.686  11.890  11.148
47292W        W13833  32.608  38.576  13.969
47293W        W13834  15.318  24.947   2.200
47294W        W13835  28.769   5.248  13.455
47295W        W13836   7.386  21.586   0.204
47296W        W13837  32.856  26.419   4.313
47297W        W13838   2.104  36.397   0.375
47298W        W13839  42.432  23.027   4.163
47299W        W13840   5.364   8.741  10.728
47300W        W13841   7.415  41.071  11.599
47301W        W13842  23.251  42.976   2.788
47302W        W13843  37.120  27.075  11.599
47303W        W13844  38.752  18.336   1.448
47304W        W13845  41.610  25.096   3.204
47305W        W13846   4.798  17.043  14.853
47306W        W13847  24.186  20.299  12.916
47307W        W13848  37.718  18.978   3.672
47308W        W13849  15.687  15.482   5.018
47309W        W13850  43.310  43.381   3.931
47310W        W13851  39.534  38.317   4.721
47311W        W13852   1.283   8.796  11.994
47312W        W13853  38.902  30.360  10.727
47313W        W13854   3.660   9.233   0.876
47314W        W13855  14.542  25.965  14.205
47315W        W13856   4.504   6.638   0.518
47316W        W13857  37.296  18.814   1.666
47317W        W13858  12.944   3.700   2.298
47318W        W13859  12.962  19.646  14.280
47319W        W13860  42.020  30.303   0.451
47320W        W13861  34.200  16.733   3.745
47321W        W13862   1.164  22.416   1.325
47322W        W13863  23.602  13.487  10.551
47323W        W13864  26.438  24.010  11.554
47324W        W13865  14.061  10.350   3.092
47325W        W13866  21.342   4.602   2.253
47326W        W13867  23.713  10.838   0.253
47327W        W13868  20.133  16.626   4.510
47328W        W13869  29.541   6.192  10.732
47329W        W13870  43.582  28.855  11.170
47330W        W13871  43.035  37.649  10.423
47331W        W13872  42.064  10.267   1.877
47332W        W13873  43.834   6.083   1.834
47333W        W13874  35.159  13.566   1.668
47334W        W13875   3.726  39.701   4.126
47335W        W13876   1.700  21.595   4.630
47336W        W13877  43.690  21.066  11.556
47337W        W13878  33.370  21.463  13.443
47338W        W13879  10.447  36.319   4.111
47339W        W13880  21.375   3.701  10.564
47340W        W13881  44.907  36.182   0.777
47341W        W13882  28.712  32.330  11.107
47342W        W13883  18.272  44.881  13.006
47343W        W13884  35.991  41.007  14.067
47344W        W13885  29.635   4.649   1.767
47345W        W13886  20.236  24.948   1.519
47346W        W13887  31.165  18.317  12.543
47347W        W13888  12.470   6.329  11.113
47348W        W13889   7.794  21.158   0.034
47349W        W13890  20.679   9.407   2.170
47350W        W13891  22.448  15.142   2.528
47351W        W13892  22.079   1.762   4.053
47352W        W13893  44.419  17.791   4.707
47353W        W13894  30.216  29.392  11.394
47354W        W13895  33.282   0.145   3.722
47355W        W13896  40.384  24.184   4.601
47356W        W13897  27.105  11.202  10.560
47357W        W13898  42.772  18.662  11.279
47358W        W13899  40.418   2.890  14.426
47359W        W13900  33.329  36.132  11.548
47360W        W13901  41.750   2.185  12.078
47361W        W13902  13.673  11.651   4.047
47362W        W13903  15.607  41.869  13.523
47363W        W13904   9.866   1.357  13.545
47364W        W13905  28.662  13.362   1.911
47365W        W13906  11.820  29.980  10.722
47366W        W13907  13.203  41.351   2.759
47367W        W13908  20.317  25.561  12.723
47368W        W13909  17.082  26.501   3.150
47369W        W13910   3.898  29.197   1.363
47370W        W13911  36.104  10.013  13.420
47371W        W13912  19.260   2.026  13.373
47372W        W13913  25.676  27.685   3.239
47373W        W13914   0.027   0.283   1.931
47374W        W13915  43.677   4.182  10.691
47375W        W13916  25.136   9.398   4.946
47376W        W13917  18.514  20.092   5.151
47377W        W13918  26.457  28.510   1.694
47378W        W13919  25.435  34.060   0.926
47379W        W13920  12.200  31.768   4.956
47380W        W13921   8.749  33.879   3.628
47381W        W13922   6.023   4.987   2.653
47382W        W13923  28.249  42.310   2.958
47383W        W13924  19.009  19.588   0.726
47384W        W13925  37.289  21.806  11.392
47385W        W13926  10.511  21.227   1.160
47386W        W13927  39.455  24.078   0.059
47387W        W13928  40.818   4.736  14.403
47388W        W13929  27.114  13.782  13.839
47389W        W13930  27.809  26.639  11.905
47390W        W13931  30.174  27.983   1.495
47391W        W13932   4.816  13.913  11.614
47392W        W13933  33.330  44.378  13.888
47393W        W13934  32.708  19.473   1.326
47394W        W13935  13.646  37.133   3.173
47395W        W13936  30.843  38.474   4.262
47396W        W13937  42.093  11.614   1.243
47397W        W13938  12.876  17.594  13.044
47398W        W13939  39.545  36.534  12.103
47399W        W13940  19.272  30.164   0.520
47400W        W13941  28.128  44.969   3.623
47401W        W13942  36.640  22.258   3.159
47402W        W13943  12.925  24.586   2.788
47403W        W13944   8.288  12.980  14.384
47404W        W13945  35.512   1.172  11.095
47405W        W13946  27.798  17.536  14.594
47406W        W13947  37.453  12.180   4.311
47407W        W13948  33.097   9.185   4.046
47408W        W13949  35.659   8.045  12.529
47409W        W13950  35.949  26.507   2.399
47410W        W13951  43.233   2.163  12.600
47411W        W13952  13.890   7.268  12.619
47412W        W13953  28.342   8.689  12.682
47413W        W13954  32.367   3.705   1.866
47414W        W13955  43.421  32.810  10.605
47415W        W13956  13.825   9.881   4.181
47416W        W13957  24.917  28.496  13.909
47417W        W13958  44.427   6.274  11.283
47418W        W13959  36.323  27.192  12.872
47419W        W13960  44.903  42.102   3.660
47420W        W13961  40.418  14.334  12.218
47421W        W13962  43.560  14.168   1.920
47422W        W13963   9.216  22.053  13.093
47423W        W13964  41.823  23.722  13.022
47424W        W13965  40.459  23.118   2.387
47425W        W13966  24.222  12.923   1.384
47426W        W13967  23.144  13.339  12.121
47427W        W13968  17.869  25.817   1.422
47428W        W13969  10.291   4.907   4.168
47429W        W13970  23.609   0.004   4.302
47430W        W13971  15.596   6.520  11.018
47431W        W13972   9.120  34.118   4.590
47432W        W13973  28.388  20.280   1.867
47433W        W13974  20.913  33.459  13.915
47434W        W13975  20.226  36.973  14.902
47435W        W13976  14.882   5.176  10.968
47436W        W13977  20.321  43.706  14.995
47437W        W13978  39.780   7.047  14.367
47438W        W13979  38.462  36.836  14.897
47439W        W13980   2.330  33.323   1.913
47440W        W13981  27.050  25.327   4.464
47441W        W13982   1.508  43.607   3.857
47442W        W13983  35.956  43.096  10.679
47443W        W13984  18.505  28.568   4.662
47444W        W13985  18.242   1.832   1.815
47445W        W13986  16.351   9.688   3.168
47446W        W13987  10.980   0.498  14.475
47447W        W13988   5.920  13.785  11.571
47448W        W13989  39.368  44.761  11.031
47449W        W13990   4.160  31.645  11.266
47450W        W13991  30.381  10.654   3.113
47451W        W13992  10.267  41.243   1.835
47452W        W13993  10.753  17.218   0.390
47453W        W13994  20.253  13.842   1.261
47454W        W13995   6.645  20.521  10.649
47455W        W13996  29.159  20.108   0.760
47456W        W13997  39.173   0.650  13.002
47457W        W13998  35.136   8.390   1.326
47458W        W13999   2.329   1.386   0.959
47459W        W14000  11.609  35.867   2.747
47460W        W14001  20.003   4.692   3.277
47461W        W14002  16.828  30.520  12.569
47462W        W14003  26.478  38.541  11.203
47463W        W14004  15.713  31.312   2.659
47464W        W14005   7.760  39.351  14.795
47465W        W14006  30.463   0.414   2.001
47466W        W14007  39.350   9.753  14.224
47467W        W14008  27.691  23.228  11.198
47468W        W14009  23.193  12.276   4.156
47469W        W14010   5.205  38.344  13.435
47470W        W14011  17.686  28.464   4.132
47471W        W14012  36.498  42.780   2.762
47472W        W14013  14.849  19.790  14.788
47473W        W14014  16.590  31.725   1.276
47474W        W14015   2.705  21.999  14.845
47475W        W14016  13.407   5.608  12.897
47476W        W14017  43.466   2.952  11.389
47477W        W14018  11.081  38.962  13.316
47478W        W14019  20.003   0.971   2.834
47479W        W14020  10.307   7.135   3.312
47480W        W14021  44.820  24.188  10.748
47481W        W14022  15.309  29.454   1.715
47482W        W14023   9.212  18.782   0.313
47483W        W14024  20.979  25.096  10.699
47484W        W14025   6.666  33.548  13.501
47485W        W14026  44.256  22.996  12.266
47486W        W14027   1.225  12.030   2.163
47487W        W14028   8.193  34.922   3.596
47488W        W14029  10.688  17.825  12.085
47489W        W14030   7.184   9.430   3.726
47490W        W14031   7.912  30.377  14.995
47491W        W14032   3.531  35.138   3.249
47492W        W14033   8.408  23.499  13.075
47493W        W14034   7.764   7.244   4.399
47494W        W14035  37.535   3.143   2.622
47495W        W14036  24.206  41.517  11.200
47496W        W14037  19.294  21.518   1.719
47497W        W14038  43.981  17.207  13.176
47498W        W14039  37.127  26.971  12.396
47499W        W14040  34.219  21.532  13.909
47500W        W14041  34.444  16.174  14.363
47501W        W14042   5.331  11.686   1.923
47502W        W14043  41.434  19.231   3.265
47503W        W14044   2.812   1.350   2.285
47504W        W14045  36.567  10.611  14.515
47505W        W14046  11.179  14.845  12.088
47506W        W14047  18.035  28.662  13.088
47507W        W14048  19.925  15.094  14.068
47508W        W14049   6.082  41.998  13.958
47509W        W14050  34.144  10.936  13.588
47510W        W14051  12.669  18.547   2.913
47511W        W14052   2.524  24.724   1.942
47512W        W14053   1.414  37.380   2.673
47513W        W14054  23.666  39.105  11.409
47514W        W14055  21.228  41.450  13.461
47515W        W14056   1.266  44.952  13.901
47516W        W14057  12.637  43.419   4.136
47517W        W14058   4.118  16.636  12.505
47518W        W14059  23.366  44.680  11.197
47519W        W14060  16.544  25.530   1.416
47520W        W14061  41.085  15.775   5.225
47521W        W14062   1.731  24.003  12.989
47522W        W14063  31.125  29.957  13.097
47523W        W14064  37.941  23.514   4.483
47524W        W14065   2.523  21.084   3.549
47525W        W14066   7.287  31.922  12.120
47526W        W14067  32.486  14.590  13.815
47527W        W14068  38.111  15.815  11.155
47528W        W14069  32.901  13.261   1.775
47529W        W14070  43.456  40.332  11.856
47530W        W14071  19.148  28.681   3.814
47531W        W14072   3.360  20.017   0.987
47532W        W14073  11.370  34.614   2.418
47533W        W14074  44.339   8.437  12.422
47534W        W14075  35.508  16.195  13.613
47535W        W14076  29.559  11.372   1.280
47536W        W14077  21.704  23.879   1.331
47537W        W14078  35.525  33.660  10.546
47538W        W14079  23.156  11.549   0.542
47539W        W14080  20.849   1.819   4.997
47540W        W14081  44.391   8.892  13.325
47541W        W14082  10.818  37.816  13.701
47542W        W14083  21.769  14.677  11.512
47543W        W14084  38.011   0.359   5.004
47544W        W14085   4.828  17.588   0.771
47545W        W14086  43.774  40.095  11.031
47546W        W14087  43.035  17.848  10.752
47547W        W14088  44.705  12.009   0.970
47548W        W14089  11.142  37.973   9.748
47549W        W14090   0.174   5.427  12.550
47550W        W14091  18.977  17.806  11.744
47551W        W14092  37.695  23.694   3.765
47552W        W14093  31.567  24.538  13.041
47553W        W14094  21.167  26.729   0.149
47554W        W14095   4.098   9.594  11.164
47555W        W14096  14.946  21.634   3.618
47556W        W14097   1.703  15.848  10.810
47557W        W14098  22.473  38.418   1.285
47558W        W14099  16.218  29.341  11.550
47559W        W14100  22.159  13.493   0.453
47560W        W14101  31.290  12.047   0.892
47561W        W14102  26.311  24.785  12.481
47562W        W14103  38.265   2.104  14.510
47563W        W14104  29.693  15.425   3.079
47564W        W14105  19.705  29.484   4.644
47565W        W14106  44.411  35.496  12.358
47566W        W14107  14.664  14.747   3.685
47567W        W14108  38.410  19.153   2.273
47568W        W14109  21.731  28.467  14.214
47569W        W14110  13.313  23.031  12.132
47570W        W14111   7.760   5.566  12.927
47571W        W14112  28.030  25.216   0.854
47572W        W14113   1.414  21.847  12.681
47573W        W14114  31.883   3.868  11.378
47574W        W14115  15.766  42.223   4.071
47575W        W14116   5.667  20.503   0.768
47576W        W14117  38.004  29.573   0.625
47577W        W14118  31.138  29.192   4.335
47578W        W14119  24.528   1.150  11.970
47579W        W14120  30.301   7.228  14.794
47580W        W14121   7.857   8.273   0.935
47581W        W14122  10.140  22.833   0.923
47582W        W14123   3.967   8.121  10.812
47583W        W14124  26.286   8.741   9.986
47584W        W14125  43.040  35.110  10.761
47585W        W14126  29.929  14.037   4.973
47586W        W14127  34.467  24.139   3.268
47587W        W14128  13.590  19.047  13.887
47588W        W14129  14.915  34.888  13.321
47589W        W14130  33.953  32.334  14.723
47590W        W14131  32.869   0.849  12.963
47591W        W14132   9.879  38.304  13.008
47592W        W14133  41.426  11.284   3.029
47593W        W14134  22.080   8.962  14.319
47594W        W14135  36.581   8.782  14.048
47595W        W14136  38.380  40.591  11.448
47596W        W14137  15.677  33.090  11.520
47597W        W14138  33.517  24.672  13.792
47598W        W14139  37.032  21.442   0.999
47599W        W14140  35.912   2.734  14.344
47600W        W14141  23.254  24.481  13.836
47601W        W14142  17.007  35.937   0.010
47602W        W14143  21.717  18.705  12.694
47603W        W14144  33.084  28.818   1.854
47604W        W14145  37.905   1.046  11.033
47605W        W14146  41.493   2.810  10.713
47606W        W14147  26.663  13.833  14.082
47607W        W14148  14.640   6.295  10.712
47608W        W14149   1.787  14.700  14.818
47609W        W14150   4.745  14.309   3.140
47610W        W14151  39.349   8.457   4.983
47611W        W14152  32.392  29.427  11.519
47612W        W14153  17.320  37.604   3.731
47613W        W14154   7.285  35.032  14.053
47614W        W14155  42.347  30.442   2.394
47615W        W14156  23.495  32.194  12.393
47616W        W14157  44.850  30.044  10.627
47617W        W14158  24.481  43.757   1.363
47618W        W14159  41.012  27.014  13.606
47619W        W14160  31.982   3.224   0.534
47620W        W14161  29.424  42.758  10.385
47621W        W14162  12.459   6.721  10.729
47622W        W14163   5.229  31.350   1.387
47623W        W14164  17.523  35.371  13.922
47624W        W14165   8.042  11.612   0.260
47625W        W14166   7.312   6.784  14.042
47626W        W14167  40.896  40.568   0.911
47627W        W14168  25.729  20.910  13.368
47628W        W14169  30.764  21.547  11.597
47629W        W14170  32.235  23.705  12.590
47630W        W14171  16.578  24.717   3.120
47631W        W14172   0.919  41.477   1.434
47632W        W14173  24.201  18.823  10.735
47633W        W14174  21.867  30.391   3.246
47634W        W14175  38.090  25.422   1.756
47635W        W14176   6.646   3.758   2.863
47636W        W14177  39.435  39.963  13.041
47637W        W14178  41.329   5.205   0.427
47638W        W14179   2.937  16.373  11.245
47639W        W14180  11.697   8.407   3.718
47640W        W14181  34.570  41.464   2.791
47641W        W14182  38.822  16.040  12.764
47642W        W14183  24.508  37.306  12.595
47643W        W14184  14.798  20.833  12.923
47644W        W14185   8.804  41.919   2.861
47645W        W14186  25.494  22.727  10.112
47646W        W14187  12.544  29.005  10.750
47647W        W14188   2.625   5.153  14.863
47648W        W14189  38.090  14.707  12.980
47649W        W14190  16.141  22.809   2.381
47650W        W14191  11.521  13.662   0.631
47651W        W14192   7.665  18.595  10.503
47652W        W14193  31.903   4.418  11.197
47653W        W14194  41.347  32.508   0.455
47654W        W14195  30.489   7.921  11.146
47655W        W14196   1.927  42.578  13.874
47656W        W14197  13.695  36.891  12.374
47657W        W14198  44.828  10.648  10.338
47658W        W14199  15.364  44.061  13.106
47659W        W14200  26.682  30.495   0.963
47660W        W14201  35.914  25.951  10.380
47661W        W14202  34.344  18.384  10.816
47662W        W14203  32.466   2.165  13.514
47663W        W14204  38.253   6.362  12.827
47664W        W14205  35.004  34.500  10.858
47665W        W14206   8.697   7.203  11.633
47666W        W14207  28.404  16.614   1.390
47667W        W14208  20.735  31.458   1.017
47668W        W14209  42.426  21.885  11.242
47669W        W14210  29.903  15.710   3.441
47670W        W14211  22.980  38.350  14.775
47671W        W14212   8.661  44.736   1.328
47672W        W14213   4.105  36.347  14.266
47673W        W14214  33.660  24.180   1.366
47674W        W14215  24.421  17.019  11.999
47675W        W14216   9.550  23.011   2.242
47676W        W14217  11.147  10.307   2.687
47677W        W14218  31.797  10.303  13.139
47678W        W14219  27.065  41.949   3.556
47679W        W14220  33.856   8.127  14.819
47680W        W14221  21.930  18.816   3.997
47681W        W14222  31.448   4.950   2.212
47682W        W14223  33.920  27.240   3.172
47683W        W14224   0.314  35.131   4.167
47684W        W14225   4.425   2.007   2.873
47685W        W14226  21.711  16.584  13.290
47686W        W14227  10.210  23.358   1.076
47687W        W14228  44.527  14.131  12.954
47688W        W14229   6.222   4.062  12.589
47689W        W14230  41.523  35.145  13.278
47690W        W14231  26.572  23.704   2.816
47691W        W14232  39.517   4.318  13.447
47692W        W14233  20.164  32.664   3.249
47693W        W14234  32.229  10.258  14.500
47694W        W14235   4.918  16.561  14.702
47695W        W14236  33.966  35.647  12.382
47696W        W14237  23.283   0.447   3.429
47697W        W14238   8.388   1.348  14.817
47698W        W14239  36.495  37.903   0.899
47699W        W14240   7.461   1.838   0.707
47700W        W14241  33.540   0.873  12.819
47701W        W14242  39.281  23.157   4.004
47702W        W14243   9.106  13.751   1.018
47703W        W14244   0.303  38.528   0.376
47704W        W14245  27.954  27.100  13.999
47705W        W14246  39.539  16.738  13.817
47706W        W14247  26.503  22.651   0.752
47707W        W14248  37.062  43.507   4.223
47708W        W14249  10.315  17.058  14.632
47709W        W14250  24.625  25.115   3.225
47710W        W14251  13.599  24.662  13.901
47711W        W14252  42.804   0.360  11.819
47712W        W14253  34.989   8.809  10.774
47713W        W14254  17.256  40.517  10.472
47714W        W14255  12.893   4.770  13.673
47715W        W14256  34.352  38.474  13.412
47716W        W14257  16.576   9.910   4.120
47717W        W14258  34.059  31.940   2.837
47718W        W14259  36.559  34.345   0.263
47719W        W14260  16.633  18.692   3.676
47720W        W14261  11.736  14.596   2.380
47721W        W14262   5.285  23.656  11.987
47722W        W14263  25.094   0.526   2.356
47723W        W14264  36.977  36.347   1.723
47724W        W14265  41.580  28.464  12.624
47725W        W14266  42.896  12.652   0.458
47726W        W14267  31.068   8.886   2.350
47727W        W14268   7.359  44.684   0.180
47728W        W14269  37.656   2.369  11.874
47729W        W14270  14.304   7.682  14.248
47730W        W14271  41.324   2.313  14.376
47731W        W14272  11.392   9.131   4.059
47732W        W14273  32.183  13.214   3.233
47733W        W14274  26.824  27.565  10.845
47734W        W14275  17.783   1.518   0.400
47735W        W14276   8.799   8.241  11.518
47736W        W14277  41.886  24.711   0.306
47737W        W14278  29.930  42.256   1.283
47738W        W14279  15.547  33.495  10.239
47739W        W14280  37.226  42.240   2.809
47740W        W14281  40.856   1.185  12.178
47741W        W14282  43.118  27.522   1.355
47742W        W14283   6.380  33.634  13.065
47743W        W14284   3.154  14.914   3.682
47744W        W14285  29.605   0.358  14.168
47745W        W14286  32.489  44.752  10.692
47746W        W14287  36.424  13.717  12.869
47747W        W14288  14.104  10.271  11.875
47748W        W14289  44.243   1.332  12.785
47749W        W14290  21.519  19.161  12.523
47750W        W14291  11.424  11.795   0.966
47751W        W14292   0.752  14.522  14.512
47752W        W14293   6.445   5.459  13.135
47753W        W14294  15.344  33.451  14.531
47754W        W14295   9.670  13.596  10.747
47755W        W14296  38.499  32.514  14.526
47756W        W14297   3.946  14.697  11.826
47757W        W14298  35.623  31.046   2.482
47758W        W14299   4.297  39.610  13.366
47759W        W14300  16.758  34.838  12.834
47760W        W14301  12.354  23.995  11.264
47761W        W14302  10.202   8.221   9.879
47762W        W14303  30.003  30.455   1.335
47763W        W14304  41.514  12.362   2.771
47764W        W14305  44.958  36.250   4.365
47765W        W14306   2.371  14.267   3.711
47766W        W14307  37.574   7.860  12.441
47767W        W14308  10.620  43.448   3.883
47768W        W14309  24.989  38.146   2.815
47769W        W14310   3.658  37.470   2.310
47770W        W14311  14.303  29.387   4.187
47771W        W14312   3.653   2.493  14.283
47772W        W14313   4.928  28.328  12.200
47773W        W14314  25.327  17.628   1.761
47774W        W14315  33.885  44.439  11.368
47775W        W14316  10.872  28.432  12.584
47776W        W14317  42.977  11.835   1.003
47777W        W14318  44.894  39.534   3.941
47778W        W14319  29.374   5.220  14.280
47779W        W14320  40.685  43.677  12.876
47780W        W14321   7.903  28.736  10.830
47781W        W14322   4.564  12.341   1.259
47782W        W14323  26.924   4.713   3.229
47783W        W14324  33.994  43.784   4.126
47784W        W14325  11.876  35.734  12.084
47785W        W14326  35.376   0.393   0.784
47786W        W14327  14.243  44.722   2.282
47787W        W14328  39.928   4.730   2.991
47788W        W14329  39.012  43.647   2.316
47789W        W14330  40.882   0.551   2.728
47790W        W14331  13.240  40.558  14.470
47791W        W14332  12.128  16.100  11.747
47792W        W14333  29.310  10.638  14.370
47793W        W14334  39.935  16.819   2.734
47794W        W14335  16.412   7.957   0.894
47795W        W14336  43.887  29.641   2.662
47796W        W14337   8.190  37.444   0.905
47797W        W14338  27.598  27.783   4.049
47798W        W14339  35.044  11.691   1.447
47799W        W14340  21.791  14.182  14.487
47800W        W14341  35.911  11.703   0.959
47801W        W14342   7.878  18.560  14.557
47802W        W14343   5.042  16.909   1.460
47803W        W14344  27.194  18.227   0.443
47804W        W14345  19.247  15.196  14.848
47805W        W14346  38.642   2.266   2.239
47806W        W14347  20.440  12.049   3.557
47807W        W14348  40.019  16.928   4.606
47808W        W14349  20.725   4.469  12.511
47809W        W14350  43.376  27.955  11.148
47810W        W14351  23.245  32.998  13.440
47811W        W14352  41.988  41.970  12.438
47812W        W14353  32.127  34.415   2.738
47813W        W14354  41.556  14.820   1.304
47814W        W14355   8.720  14.823   3.077
47815W        W14356  24.079   0.287  11.123
47816W        W14357  18.306  21.325   4.565
47817W        W14358   9.671  44.891   4.062
47818W        W14359  17.030  22.255   3.295
47819W        W14360   1.188  10.695  10.706
47820W        W14361  17.513  33.818  11.510
47821W        W14362  22.116   4.432   0.124
47822W        W14363  40.424   5.008  14.192
47823W        W14364  20.301  33.653   4.300
47824W        W14365  11.827  16.614  13.022
47825W        W14366  23.535  25.267   2.365
47826W        W14367   0.043  30.463  11.502
47827W        W14368  18.786  27.083  13.419
47828W        W14369  31.751  31.252  13.338
47829W        W14370  28.286  29.230  12.126
47830W        W14371   8.073  42.260  14.019
47831W        W14372  16.132   2.313  10.747
47832W        W14373  19.958  38.438   0.034
47833W        W14374  16.278  20.151   0.782
47834W        W14375  10.199  17.152  10.115
47835W        W14376  35.162  33.342  13.145
47836W        W14377  27.532   4.957  11.255
47837W        W14378  36.264  39.950  11.115
47838W        W14379  17.787   5.994   2.377
47839W        W14380  41.348  42.880   1.775
47840W        W14381  20.389  17.228  10.642
47841W        W14382  42.933  18.590  14.871
47842W        W14383  10.130  33.607  12.466
47843W        W14384  29.144   1.181  11.378
47844W        W14385  44.451  39.033  10.085
47845W        W14386  25.484   4.197   4.494
47846W        W14387  42.355  23.039   0.268
47847W        W14388   9.215   0.685   1.918
47848W        W14389   9.569  35.614   3.288
47849W        W14390  11.704  19.439   3.257
47850W        W14391   7.945  38.041   4.463
47851W        W14392  24.981  34.884   3.863
47852W        W14393  31.215  36.421  11.176
47853W        W14394  38.756  18.687  13.270
47854W        W14395  26.188  14.526   0.417
47855W        W14396  26.639  34.530   2.623
47856W        W14397  38.855  22.041  13.350
47857W        W14398  17.320  42.673   4.979
47858W        W14399  20.699  13.544   1.269
47859W        W14400  43.351  18.524   0.245
47860W        W14401  23.722  23.805   2.797
47861W        W14402  20.323  33.133   3.145
47862W        W14403  36.592   5.992   3.744
47863W        W14404   8.435  33.016   0.306
47864W        W14405  44.912   4.202  13.344
47865W        W14406  43.189   6.674  12.469
47866W        W14407   3.371  26.281  14.485
47867W        W14408  37.479  13.414  10.194
47868W        W14409  30.425   0.145  14.074
47869W        W14410   8.890  19.521  13.244
47870W        W14411  12.862  34.621   3.352
47871W        W14412   3.591  41.688  12.987
47872W        W14413   4.392  15.612  12.543
47873W        W14414  35.119   3.946   2.618
47874W        W14415   7.247  39.278   2.147
47875W        W14416  36.283  21.552   3.658
47876W        W14417  19.541   8.141  14.671
47877W        W14418  18.262  25.512  14.067
47878W        W14419   3.202  20.524  13.031
47879W        W14420  43.943  12.894  12.895
47880W        W14421  33.897  25.773   4.532
47881W        W14422  38.121   6.387  13.510
47882W        W14423   4.352  19.768   0.438
47883W        W14424  37.051  23.267  13.078
47884W        W14425   4.316  29.583   0.437
47885W        W14426  16.875  27.458   2.931
47886W        W14427  39.808  39.139   1.205
47887W        W14428   2.329   9.374  12.534
47888W        W14429  12.087  29.815  11.508
47889W        W14430  28.110   4.763   3.914
47890W        W14431  44.895  40.351   2.364
47891W        W14432   2.274  12.685   1.018
47892W        W14433   0.913   4.120   0.424
47893W        W14434   3.536  40.851   3.695
47894W        W14435  28.381  13.819   9.834
47895W        W14436  14.643   9.152  10.857
47896W        W14437  20.899   2.291   0.343
47897W        W14438   7.177  30.782   2.729
47898W        W14439  18.119  38.575   0.381
47899W        W14440  16.583  18.467   1.468
47900W        W14441   3.488  24.346  14.708
47901W        W14442  22.689   9.144   1.826
47902W        W14443   9.601  20.699  12.110
47903W        W14444   4.444  25.633   1.378
47904W        W14445  19.321   4.309  10.076
47905W        W14446   7.135  21.842  11.084
47906W        W14447  16.869  21.172   2.863
47907W        W14448  36.698  25.249   1.480
47908W        W14449  13.540   7.268  13.983
47909W        W14450  39.649   0.951   2.273
47910W        W14451   7.637  17.643  11.524
47911W        W14452  42.956  44.406   4.600
47912W        W14453  13.701  20.785   1.614
47913W        W14454  28.562   5.825  10.637
47914W        W14455   5.698  27.391   0.399
47915W        W14456  19.252  25.146   2.525
47916W        W14457  30.417  34.367   4.740
47917W        W14458  10.281  39.911   0.010
47918W        W14459   1.936  29.083  10.606
47919W        W14460  33.694  40.229   4.942
47920W        W14461  10.596  43.438  13.204
47921W        W14462  35.251  28.458   4.275
47922W        W14463  26.201   8.264  12.086
47923W        W14464  38.772  26.146   4.600
47924W        W14465  22.228   4.368   0.630
47925W        W14466  33.457  37.681   3.136
47926W        W14467  36.992  14.355  14.564
47927W        W14468   2.774  33.409  10.724
47928W        W14469  44.537  28.579  12.201
47929W        W14470  17.580  32.620  13.854
47930W        W14471   5.433  19.067   1.719
47931W        W14472  37.509  35.755  14.844
47932W        W14473  16.164  24.779  14.136
47933W        W14474  43.956  32.131  11.587
47934W        W14475  14.888   2.972  11.282
47935W        W14476  19.978   7.879   1.618
47936W        W14477  22.663   8.301  10.226
47937W        W14478  32.127   3.512  13.528
47938W        W14479  30.561  10.199   3.318
47939W        W14480  30.097  29.523   0.213
47940W        W14481   2.897  34.393   5.539
47941W        W14482  18.178  29.936  13.365
47942W        W14483  44.291  16.358   3.642
47943W        W14484  31.160   6.424   3.364
47944W        W14485  23.893  26.689  12.013
47945W        W14486   4.970  18.480  13.744
47946W        W14487  31.090  37.854   3.264
47947W        W14488  41.356  36.936  11.291
47948W        W14489  23.129  27.642   2.665
47949W        W14490  43.331  26.627  12.854
47950W        W14491   5.966  22.307  12.965
47951W        W14492  17.566  33.541   3.099
47952W        W14493  31.947  39.579   4.957
47953W        W14494  35.106  25.656   4.140
47954W        W14495  25.551  26.744   3.580
47955W        W14496   3.920  20.066  12.733
47956W        W14497   8.196  10.871   1.333
47957W        W14498  38.526  35.354   4.618
47958W        W14499  14.719  14.249   2.925
47959W        W14500  18.766  39.971  11.159
47960W        W14501   1.996  27.081  11.475
47961W        W14502  21.699   5.322  12.153
47962W        W14503  22.715  44.851   4.328
47963W        W14504   4.312  10.336  13.557
47964W        W14505  18.150  38.561  12.657
47965W        W14506  13.858  39.843  12.633
47966W        W14507  30.436  35.476   0.906
47967W        W14508  40.915  37.000  14.486
47968W        W14509   8.734  28.012  11.601
47969W        W14510  44.434   5.837   0.796
47970W        W14511  19.250   7.866  11.445
47971W        W14512   6.107  13.142   2.911
47972W        W14513  25.966   8.522   2.815
47973W        W14514   4.006  37.499   2.731
47974W        W14515  35.679  17.589  13.670
47975W        W14516  11.722  24.081  10.156
47976W        W14517  14.083  32.536  10.366
47977W        W14518  22.705  33.444   4.891
47978W        W14519  39.756  27.244  12.136
47979W        W14520  16.700  30.414  14.860
47980W        W14521   5.862  19.577   4.188
47981W        W14522   6.796  23.448  14.929
47982W        W14523  13.311  38.324   3.016
47983W        W14524  44.872  14.044  11.932
47984W        W14525  39.738   0.941  11.755
47985W        W14526  39.602  15.748   1.723
47986W        W14527  34.576  11.691  14.574
47987W        W14528   7.715  30.698  10.622
47988W        W14529  11.605  37.485  14.612
47989W        W14530  20.576  20.685  14.876
47990W        W14531   4.673  20.466   4.540
47991W        W14532  39.873  41.046  13.015
47992W        W14533  35.490  36.318  12.496
47993W        W14534  35.698  21.675   4.754
47994W        W14535  44.964  32.987   4.709
47995W        W14536  27.424  13.772   0.977
47996W        W14537  35.591   8.802  12.063
47997W        W14538  32.313  33.950   4.446
47998W        W14539   6.318   7.766   0.366
47999W        W14540  38.604  22.644   0.916
48000W        W14541  14.833  31.615   1.803
48001W        W14542  25.069  26.137   3.626
48002W        W14543  13.143  20.660   4.764
48003W        W14544   6.467   3.756   4.867
48004W        W14545  28.091  30.986  12.907
48005W        W14546  21.174  27.500  12.807
48006W        W14547   1.651  33.214   4.630
48007W        W14548  44.025  40.878   0.484
48008W        W14549  29.118  24.225   0.955
48009W        W14550  22.061  32.522   4.703
48010W        W14551   2.338  12.512  10.064
48011W        W14552  38.627  10.523  10.759
48012W        W14553   4.693  22.829   4.818
48013W        W14554  13.174  43.032   4.874
48014W        W14555  39.377  36.439   3.998
48015W        W14556   9.777   4.896  12.388
48016W        W14557  17.527  23.008  10.726
48017W        W14558  23.037   1.785   2.211
48018W        W14559  21.956  32.611  11.477
48019W        W14560   5.603  10.439  13.751
48020W        W14561  43.865   5.702   1.447
48021W        W14562  37.233  25.577   1.378
48022W        W14563   1.736  27.656  10.680
48023W        W14564  24.108  19.811   4.881
48024W        W14565  39.774  34.182  14.130
48025W        W14566   6.826   7.996  10.679
48026W        W14567  19.707  42.864   4.648
48027W        W14568  18.531   9.799  11.582
48028W        W14569  27.202  39.178   2.895
48029W        W14570  40.202  21.933   3.236
48030W        W14571  38.110  20.114   1.762
48031W        W14572  17.045  36.896   1.680
48032W        W14573  30.031  29.007   1.885
48033W        W14574  41.994  32.335   1.203
48034W        W14575   2.033  30.007   3.327
48035W        W14576  43.495   4.863  12.146
48036W        W14577   6.664  30.982   4.687
48037W        W14578   9.714  44.437  10.627
48038W        W14579   6.729   7.473  10.681
48039W        W14580  37.403   6.349   2.661
48040W        W14581  28.743  23.230  13.598
48041W        W14582   7.745  31.531  11.111
48042W        W14583   4.915   2.829  12.361
48043W        W14584  39.719  14.039   1.251
48044W        W14585  11.284  34.222   4.341
48045W        W14586  25.022  12.339  12.462
48046W        W14587   5.687  31.167  14.014
48047W        W14588  44.539   8.361  13.762
48048W        W14589  18.817  26.652   0.395
48049W        W14590   0.446  19.958  14.967
48050W        W14591  15.455  23.596  10.806
48051W        W14592  34.579   8.140  11.194
48052W        W14593  43.447  25.029   2.642
48053W        W14594  37.062  40.421  11.616
48054W        W14595  34.628  34.393   0.871
48055W        W14596  18.088  43.321  11.115
48056W        W14597  38.905  20.301   4.395
48057W        W14598  11.239   8.073   5.078
48058W        W14599   5.687   7.717  13.358
48059W        W14600  28.236  29.720  11.901
48060W        W14601   8.362   8.517   3.201
48061W        W14602   1.861  12.344  12.051
48062W        W14603   9.385   2.848   2.896
48063W        W14604  30.132  42.873   4.630
48064W        W14605  44.671  17.805  12.995
48065W        W14606  37.456   5.257   0.635
48066W        W14607  12.933   4.918  10.766
48067W        W14608  37.170  29.132   0.480
48068W        W14609   2.472  29.743  10.417
48069W        W14610   4.542  18.237  13.558
48070W        W14611  40.809  26.193   0.127
48071W        W14612  19.294  39.402  12.090
48072W        W14613  21.973  41.480   1.755
48073W        W14614   0.823  15.476   3.173
48074W        W14615  13.097   7.872   3.024
48075W        W14616  27.474   6.631  13.028
48076W        W14617   4.354  27.187   4.989
48077W        W14618  37.864  34.026   4.406
48078W        W14619  39.164  20.811   2.906
48079W        W14620  31.346   3.891  13.011
48080W        W14621  12.442   6.409  14.045
48081W        W14622   4.816  24.479  13.756
48082W        W14623  16.132   6.857   1.701
48083W        W14624  41.251  28.037  11.494
48084W        W14625  31.109  37.972  12.052
48085W        W14626  34.508  13.705  13.531
48086W        W14627  37.042  31.998   3.919
48087W        W14628  28.987   0.679  11.412
48088W        W14629  32.298  34.723   3.122
48089W        W14630  16.783  11.087  12.893
48090W        W14631  30.038  32.525   2.295
48091W        W14632  33.472  14.200  11.401
48092W        W14633  17.825   9.689  14.011
48093W        W14634  16.707  37.806   0.182
48094W        W14635  26.058  25.273  11.585
48095W        W14636  35.510   6.231   1.724
48096W        W14637  44.958  38.397   0.744
48097W        W14638  35.092   0.920  10.334
48098W        W14639  34.997  26.216   3.274
48099W        W14640  11.426  32.735   1.773
48100W        W14641   0.874  43.755  14.885
48101W        W14642  24.431   9.413  12.997
48102W        W14643  15.961  13.968   3.401
48103W        W14644  43.126  31.585  11.147
48104W        W14645  26.381   7.088   9.950
48105W        W14646  39.079  37.045   4.656
48106W        W14647  11.561   6.995   1.803
48107W        W14648   6.684   2.995   3.673
48108W        W14649  44.754  24.092  11.766
48109W        W14650  14.277  29.662  13.467
48110W        W14651   5.385  16.838   2.190
48111W        W14652  16.947   2.795  14.347
48112W        W14653  38.009   5.172  12.913
48113W        W14654  28.055  21.883  14.434
48114W        W14655  43.445  39.303   1.405
48115W        W14656  36.529  18.949  11.274
48116W        W14657  34.484  29.391   4.964
48117W        W14658  29.373  29.237  11.275
48118W        W14659  23.515  10.302   3.275
48119W        W14660  10.158  31.309  13.496
48120W        W14661  20.759  12.040   4.489
48121W        W14662  12.868  37.910   3.675
48122W        W14663  39.483   8.471   1.462
48123W        W14664  26.227  29.834   1.472
48124W        W14665   4.157   5.490   4.613
48125W        W14666   7.130  22.811  14.731
48126W        W14667   1.869  29.849   9.818
48127W        W14668  21.552  10.275  12.099
48128W        W14669  28.990  18.079  12.014
48129W        W14670   9.357  41.038  13.454
48130W        W14671  26.524  21.557   4.715
48131W        W14672   5.219  14.810  13.786
48132W        W14673  31.533  28.439   3.895
48133W        W14674  33.076  24.914  14.435
48134W        W14675  44.914   4.849   0.736
48135W        W14676  40.912  41.475   4.347
48136W        W14677  41.775  36.336   0.778
48137W        W14678  18.731  14.371   3.333
48138W        W14679   9.803  29.057  11.477
48139W        W14680  35.540   4.844  14.346
48140W        W14681  22.417  27.006  14.806
48141W        W14682  34.844  19.100   4.493
48142W        W14683   3.628  15.638   3.218
48143W        W14684  23.960  21.182  13.099
48144W        W14685  30.461   3.663   1.718
48145W        W14686  17.007   4.791   1.332
48146W        W14687  30.923  14.570  10.212
48147W        W14688  25.645  41.698   4.851
48148W        W14689  42.276  13.195  11.157
48149W        W14690  35.964  10.172   1.396
48150W        W14691   0.772  37.870  14.292
48151W        W14692  41.983  35.338   4.576
48152W        W14693  21.285  41.326   0.351
48153W        W14694  23.791   3.305   1.474
48154W        W14695  21.283  29.769  13.030
48155W        W14696  28.636  36.578  14.061
48156W        W14697  20.727  39.341   3.459
48157W        W14698  12.557  35.828   3.724
48158W        W14699   1.498  21.080   1.809
48159W        W14700  16.765   2.698  11.182
48160W        W14701  39.376  32.501  10.378
48161W        W14702  30.491  29.585  11.004
48162W        W14703  25.687  43.442   1.966
48163W        W14704  10.964  31.031   0.171
48164W        W14705  21.263   1.221  10.741
48165W        W14706  39.673  22.249  12.276
48166W        W14707  33.195   0.160  11.923
48167W        W14708  36.474  30.386  12.104
48168W        W14709  33.088   1.038   3.755
48169W        W14710  24.160  37.812   4.200
48170W        W14711  41.346   9.863  12.955
48171W        W14712  44.940  24.762   0.894
48172W        W14713  22.212  18.811   1.067
48173W        W14714  32.113  29.931  12.391
48174W        W14715  28.862   5.393   3.658
48175W        W14716  39.599  22.852   3.747
48176W        W14717  25.275   0.389  11.676
48177W        W14718  21.241  24.085  13.884
48178W        W14719   5.212   5.414   4.535
48179W        W14720  10.389  25.540   3.287
48180W        W14721  39.966   4.392  11.669
48181W        W14722  41.770  21.122   0.340
48182W        W14723  29.655  41.927  14.054
48183W        W14724  20.197   6.470  12.463
48184W        W14725  43.265  43.180   2.965
48185W        W14726  24.187  33.324   2.786
48186W        W14727  42.281  34.994   4.107
48187W        W14728  25.512  23.970  10.715
48188W        W14729  26.153   1.318  10.631
48189W        W14730  17.958   4.736   2.253
48190W        W14731  16.601  44.977  13.586
48191W        W14732  16.240  16.621  11.129
48192W        W14733   3.479   4.301   2.844
48193W        W14734  16.902  26.702   1.480
48194W        W14735  33.999  39.274   4.786
48195W        W14736  22.608  11.510  13.837
48196W        W14737  10.152   2.630   0.551
48197W        W14738   9.481   0.820   0.480
48198W        W14739  23.121  10.785   1.677
48199W        W14740   2.803  20.058   2.887
48200W        W14741  15.797   5.863   0.131
48201W        W14742  10.417  26.541  13.102
48202W        W14743  41.920   8.712  14.868
48203W        W14744  36.269  14.825  14.961
48204W        W14745   8.688   9.237   3.554
48205W        W14746  17.498  11.141  11.440
48206W        W14747  12.390   3.779   3.178
48207W        W14748   0.964  44.861   0.236
48208W        W14749  30.025  11.814   3.660
48209W        W14750   9.258  12.633   1.011
48210W        W14751  32.040  35.573   2.351
48211W        W14752  21.001  16.482  11.080
48212W        W14753  39.549  26.621   2.565
48213W        W14754  17.541   9.327   3.117
48214W        W14755  38.920  23.545   3.268
48215W        W14756  40.010  38.464  14.393
48216W        W14757  34.844  30.292  12.358
48217W        W14758  24.800   9.325   1.179
48218W        W14759  11.683   2.497  13.998
48219W        W14760  38.945  37.909  12.114
48220W        W14761  25.426  40.026  14.966
48221W        W14762   5.677  14.165   0.942
48222W        W14763  40.392  34.885  10.362
48223W        W14764  30.938  18.840   0.850
48224W        W14765  30.518  38.699  12.529
48225W        W14766  40.491  12.620  13.446
48226W        W14767  29.599   4.933   2.191
48227W        W14768  40.846   8.839  13.869
48228W        W14769  24.192  32.067  12.511
48229W        W14770   3.680  25.525  14.920
48230W        W14771   0.904  15.864  11.487
48231W        W14772  29.075  41.780   2.911
48232W        W14773  10.761  19.123  13.584
48233W        W14774  27.277   2.163   2.781
48234W        W14775  22.140  18.158  11.513
48235W        W14776   7.108  11.998  12.264
48236W        W14777  43.921  35.022   3.258
48237W        W14778   4.320  23.832   9.839
48238W        W14779  35.365  21.488  14.886
48239W        W14780  22.862  36.038   3.672
48240W        W14781  32.313  29.990   5.001
48241W        W14782   6.965  15.605   0.790
48242W        W14783  37.386   5.812   0.343
48243W        W14784  31.615  35.920  11.597
48244W        W14785  10.775   2.604   2.895
48245W        W14786  25.181  38.470  13.485
48246W        W14787  15.231  10.606   1.268
48247W        W14788   1.792  24.032  11.680
48248W        W14789  11.867   7.171  14.366
48249W        W14790   3.499  18.081   4.516
48250W        W14791  18.761   1.973   2.186
48251W        W14792  12.052   3.263   2.730
48252W        W14793  32.321  34.848  12.051
48253W        W14794  11.776   4.834  13.404
48254W        W14795  29.846  41.407  11.497
48255W        W14796  26.309  21.633  13.478
48256W        W14797   9.682  39.630  13.417
48257W        W14798  36.356   2.411   0.889
48258W        W14799  24.268  22.779   2.280
48259W        W14800  29.014   2.882  10.719
48260W        W14801   3.271  32.374  12.497
48261W        W14802  34.444  17.770  12.088
48262W        W14803  41.267  19.235   2.789
48263W        W14804   9.240  35.129  14.113
48264W        W14805  25.481   6.906   2.399
48265W        W14806  28.027  35.348  10.825
48266W        W14807  29.565   9.009  13.174
48267W        W14808   9.379  23.419   0.522
48268W        W14809  36.825  29.599   4.444
48269W        W14810  13.743  17.543   1.137
48270W        W14811  32.700  30.253  11.838
48271W        W14812  23.280  24.494  10.529
48272W        W14813   4.087  38.830  12.615
48273W        W14814  12.542  37.090  11.735
48274W        W14815  15.687   8.433  11.103
48275W        W14816  18.208  13.182  13.586
48276W        W14817  40.949  30.922   0.332
48277W        W14818   5.373   0.258   2.101
48278W        W14819   1.285  19.575  13.081
48279W        W14820  20.282  34.588  12.917
48280W        W14821  21.213  39.234   4.274
48281W        W14822  32.498  33.792  14.894
48282W        W14823   1.996  27.365   0.402
48283W        W14824   0.732  11.453   3.654
48284W        W14825  27.103  29.308   3.113
48285W        W14826   0.314  11.682   4.819
48286W        W14827   7.080   2.186   0.868
48287W        W14828  18.061  35.651   4.642
48288W        W14829  28.612   2.247  14.246
48289W        W14830  30.954  21.776   0.368
48290W        W14831   1.060  39.551  14.063
48291W        W14832  22.285  39.951   0.032
48292W        W14833  43.945  13.698   4.757
48293W        W14834  42.084  24.041  10.800
48294W        W14835  37.259  19.775   2.902
48295W        W14836  16.566  27.490  11.350
48296W        W14837  35.542  40.536   1.035
48297W        W14838  33.536   4.623  13.944
48298W        W14839   8.416  24.248   0.329
48299W        W14840  36.395  31.129   1.746
48300W        W14841  30.962  35.426   3.959
48301W        W14842   1.409  44.804   2.534
48302W        W14843  27.617  31.946  14.879
48303W        W14844   8.867  15.838  13.523
48304W        W14845   1.028  27.239  13.521
48305W        W14846  29.853   3.333  13.253
48306W        W14847   1.743  24.105   0.963
48307W        W14848  20.137  18.062   0.762
48308W        W14849  17.881  35.368   2.495
48309W        W14850  15.367   8.730  10.699
48310W        W14851  30.985  38.218   4.699
48311W        W14852   7.471   6.816  10.862
48312W        W14853  11.495  16.674  14.336
48313W        W14854  12.992  23.921   3.623
48314W        W14855   2.867  26.568  10.757
48315W        W14856   9.800  15.309   1.867
48316W        W14857  27.244  12.697   1.255
48317W        W14858  20.640  11.757  14.832
48318W        W14859  24.775   1.228  14.345
48319W        W14860  17.729   3.960   0.450
48320W        W14861  43.643  14.020  13.883
48321W        W14862  30.231  35.453  12.548
48322W        W14863  33.638  23.960   2.762
48323W        W14864  22.071  33.512   4.418
48324W        W14865  20.046  13.780   3.117
48325W        W14866  36.467  10.811  11.142
48326W        W14867   4.820  17.070   3.391
48327W        W14868  20.553  11.708   0.842
48328W        W14869  15.022  31.538  11.520
48329W        W14870  32.971   6.370  13.854
48330W        W14871  38.387  29.896   1.952
48331W        W14872  10.121  14.229   4.065
48332W        W14873  43.695  41.565   2.909
48333W        W14874  36.514  20.796  12.378
48334W        W14875  27.571   3.420  12.577
48335W        W14876  36.757  39.834   3.676
48336W        W14877  30.646  17.528   2.348
48337W        W14878  20.581  43.563   2.836
48338W        W14879  10.282  27.963   2.461
48339W        W14880  43.452  12.859  14.955
48340W        W14881  15.136  42.754  12.771
48341W        W14882  31.529  16.262   2.272
48342W        W14883   5.490  14.617   1.093
48343W        W14884  18.646  43.913   2.646
48344W        W14885  16.119   2.794   2.632
48345W        W14886  23.694  29.004   4.028
48346W        W14887  14.678  12.766   0.501
48347W        W14888   7.541   2.520  13.933
48348W        W14889  32.691  35.786   5.080
48349W        W14890  24.416  31.964   1.044
48350W        W14891   2.600   5.925   3.901
48351W        W14892  14.601  35.040   4.861
48352W        W14893  20.500   4.741   2.018
48353W        W14894  13.316  19.537  10.986
48354W        W14895   3.322  38.708   2.436
48355W        W14896   3.829   5.832  14.306
48356W        W14897  28.274   4.229   3.266
48357W        W14898  32.889  16.061   2.724
48358W        W14899  41.887  37.004   5.177
48359W        W14900  39.364  14.379   1.361
48360W        W14901  20.764  33.550   4.094
48361W        W14902   3.828   4.122  13.140
48362W        W14903   0.376  27.186   1.881
48363W        W14904  28.885  38.028  12.606
48364W        W14905  44.568  13.550  13.960
48365W        W14906   1.856   1.390   4.768
48366W        W14907   3.315   5.245   1.477
48367W        W14908  24.953  42.333  12.494
48368W        W14909  33.947  30.876   3.833
48369W        W14910  14.681  21.813   1.727
48370W        W14911  25.249  14.090   3.441
48371W        W14912  18.176  33.354   0.863
48372W        W14913  32.083  20.509  14.006
48373W        W14914  25.837   2.158   3.788
48374W        W14915  12.814  29.940  10.484
48375W        W14916  13.775  32.923  14.832
48376W        W14917  18.182  16.539   2.181
48377W        W14918  32.442   9.505  11.337
48378W        W14919  28.000  42.567   1.376
48379W        W14920  34.182  24.779   1.767
48380W        W14921  27.927  24.187  10.662
48381W        W14922  10.122  25.795  10.756
48382W        W14923  40.804  17.201  10.229
48383W        W14924   0.246  24.158  14.058
48384W        W14925  37.447  27.909  10.687
48385W        W14926  35.573  12.093   4.143
48386W        W14927  19.204  29.631   4.622
48387W        W14928  14.789  34.970  11.601
48388W        W14929  12.172  19.136  14.219
48389W        W14930  19.459  41.158   4.167
48390W        W14931  40.611  28.826  12.633
48391W        W14932  35.226   2.773  12.128
48392W        W14933   3.327  40.536  14.787
48393W        W14934  34.459  13.546   2.814
48394W        W14935   4.676  39.027  14.455
48395W        W14936  36.478  17.789   3.666
48396W        W14937  40.495  30.102  12.025
48397W        W14938  33.383  28.951   5.281
48398W        W14939  15.618  26.667   2.746
48399W        W14940  39.369  28.711   1.026
48400W        W14941   8.591  19.166   1.781
48401W        W14942  11.711   8.666   2.320
48402W        W14943  17.346  33.912   1.322
48403W        W14944   3.163  34.733  12.615
48404W        W14945  24.710  15.572  13.428
48405W        W14946  31.441  27.855   2.595
48406W        W14947  15.566   0.330  14.031
48407W        W14948  35.552  23.739   0.366
48408W        W14949  27.486  30.792  14.962
48409W        W14950  27.910   7.617   3.152
48410W        W14951   8.485  40.565   4.645
48411W        W14952  22.075  28.198  11.701
48412W        W14953  41.496  34.192   3.089
48413W        W14954   5.463  18.077   0.425
48414W        W14955  14.139   2.748  13.928
48415W        W14956   0.941   9.087   3.246
48416W        W14957  16.715   7.277   0.091
48417W        W14958  41.583  11.755   1.304
48418W        W14959  36.980  39.317  12.498
48419W        W14960  31.743  11.919   0.346
48420W        W14961  33.865  25.953   0.415
48421W        W14962  27.656  19.667   1.668
48422W        W14963   6.745  27.628   9.922
48423W        W14964  21.422  11.136   3.654
48424W        W14965   6.388  16.287   2.726
48425W        W14966   4.033   8.002  12.624
48426W        W14967  40.577  30.004  11.150
48427W        W14968  30.402  11.616   1.440
48428W        W14969   9.494  11.742  12.546
48429W        W14970   3.935  20.480   3.110
48430W        W14971   0.026  38.125  14.937
48431W        W14972  15.160  41.099   4.166
48432W        W14973  10.452  41.199   0.977
48433W        W14974   0.721  15.285   1.937
48434W        W14975  24.291  17.749   0.849
48435W        W14976  16.748  18.542  13.340
48436W        W14977  19.849   0.189   0.882
48437W        W14978  21.535  23.777  13.540
48438W        W14979   9.941  37.638   1.038
48439W        W14980  23.192  12.770  12.844
48440W        W14981  19.926   4.372   4.640
48441W        W14982  24.403  11.146   1.632
48442W        W14983  26.232  14.599   2.836
48443W        W14984  28.206  28.238   3.081
48444W        W14985  28.760  36.143   3.656
48445W        W14986   0.874  23.962  10.664
48446W        W14987   2.289  17.679   2.654
48447W        W14988   8.894  27.558  13.891
48448W        W14989   4.763  38.532   4.570
48449W        W14990  26.010  29.546  14.812
48450W        W14991  18.607  26.432   2.281
48451W        W14992   6.438   5.792   4.738
48452W        W14993  28.109   5.125  10.655
48453W        W14994  38.820  35.381   1.817
48454W        W14995   0.399  20.220   3.731
48455W        W14996  42.532   5.401   1.297
48456W        W14997  14.574  36.457   0.822
48457W        W14998  13.775  39.499  11.918
48458W        W14999   4.295  44.200  14.987
48459W        W15000  38.312  29.438  12.642
48460W        W15001  18.715  38.277   1.026
48461W        W15002  33.105  41.533  11.196
48462W        W15003  12.602   4.025  14.367
48463W        W15004   6.021  35.875   3.983
48464W        W15005  12.839  36.988   2.402
48465W        W15006  16.584   4.225  13.809
48466W        W15007  14.407  27.380  12.811
48467W        W15008   1.462  15.670  14.815
48468W        W15009  42.401   2.932   2.767
48469W        W15010  24.029  26.670   1.910
48470W        W15011  38.187  25.574  11.656
48471W        W15012  15.318  39.867  14.443
48472W        W15013  16.348  42.579   3.287
48473W        W15014  22.364  10.995   1.355
48474W        W15015  16.233  25.584  12.407
48475W        W15016  34.473  28.928  12.939
48476W        W15017  35.036  41.806  11.560
48477W        W15018  16.647  21.238   4.722
48478W        W15019  21.695  27.461  14.091
48479W        W15020  14.666   9.050   2.127
48480W        W15021   7.658  35.102   2.845
48481W        W15022  41.761  35.104   0.222
48482W        W15023  32.201  21.575  13.858
48483W        W15024  14.636   6.055   3.795
48484W        W15025  19.130  21.154  11.162
48485W        W15026  31.646  24.697   4.086
48486W        W15027  37.958  36.285  12.987
48487W        W15028  15.720  25.098   0.517
48488W        W15029  32.554  42.309   0.883
48489W        W15030  16.249  11.646  13.467
48490W        W15031  26.272  32.593   2.304
48491W        W15032  39.698  35.671   0.287
48492W        W15033  23.667  43.171  12.059
48493W        W15034  38.918  42.484  11.132
48494W        W15035   5.997   2.738  13.569
48495W        W15036  29.101  18.684   2.360
48496W        W15037  20.784  22.571  11.089
48497W        W15038  11.257  25.861   2.194
48498W        W15039   8.850  41.630   4.198
48499W        W15040  17.193  16.278   4.137
48500W        W15041  40.864   8.739   1.252
48501W        W15042  25.933   7.951  12.602
48502W        W15043  22.977   9.513  12.206
48503W        W15044  44.464  29.086  13.977
48504W        W15045  43.917  13.663   0.337
48505W        W15046  19.117  41.814   1.868
48506W        W15047  43.087   3.269   4.617
48507W        W15048  30.928  20.369   4.428
48508W        W15049  21.130  36.576   1.555
48509W        W15050  40.906  35.824  13.006
48510W        W15051  40.229  32.835   5.101
48511W        W15052  42.938  28.775   2.221
48512W        W15053  28.614   4.855  14.167
48513W        W15054  36.849  23.168   1.395
48514W        W15055  30.219  31.510   2.946
48515W        W15056  33.056  35.435  11.239
48516W        W15057  15.327   7.646  14.416
48517W        W15058  42.291   7.607  13.299
48518W        W15059  15.677   8.327  12.489
48519W        W15060  31.132   2.914   1.976
48520W        W15061   3.845  13.858   1.875
48521W        W15062   5.397  35.990  13.362
48522W        W15063  30.549  12.614   3.575
48523W        W15064  34.048  29.462  13.785
48524W        W15065   5.456  41.910   3.229
48525W        W15066  44.494  30.855   3.726
48526W        W15067  15.682  40.375  13.115
48527W        W15068  37.115  23.307   0.840
48528W        W15069  22.143   4.839   2.024
48529W        W15070  32.575  40.123  11.672
48530W        W15071  32.695  44.280   1.529
48531W        W15072   3.123  35.021  14.996
48532W        W15073  31.822  17.532  12.374
48533W        W15074  26.338  21.314   2.662
48534W        W15075  14.379  20.046   0.828
48535W        W15076  35.744  44.077   1.875
48536W        W15077  26.246   4.364  12.948
48537W        W15078  39.947  43.549  14.871
48538W        W15079   7.850  21.244  10.647
48539W        W15080  35.287  25.106   2.382
48540W        W15081  39.251  11.131   2.375
48541W        W15082  23.029   6.505   4.471
48542W        W15083  16.288  32.619   3.672
48543W        W15084  44.674  41.301   1.800
48544W        W15085  12.368  30.571  11.128
48545W        W15086  20.795  25.197  10.191
48546W        W15087   2.343  33.029  13.370
48547W        W15088  29.829  31.351   4.601
48548W        W15089   4.309  16.022  14.388
48549W        W15090  16.982   1.259  11.177
48550W        W15091  31.615  20.317  13.872
48551W        W15092  23.583  22.150  11.294
48552W        W15093  36.937   2.541  13.865
48553W        W15094  40.549  25.356   4.072
48554W        W15095  36.298  41.203  10.717
48555W        W15096   9.515   4.698  12.811
48556W        W15097  33.460   3.744  12.487
48557W        W15098  23.113  42.730  11.304
48558W        W15099  15.173  30.085   5.095
48559W        W15100  20.112  30.281   4.806
48560W        W15101  15.558  31.554  11.623
48561W        W15102  25.539  42.567  13.057
48562W        W15103  38.535  26.573  11.215
48563W        W15104  17.282  32.498   3.874
48564W        W15105   7.269  18.277  14.565
48565W        W15106  40.048  11.901   0.826
48566W        W15107  37.302  25.123   4.953
48567W        W15108   3.382  18.718  13.096
48568W        W15109  25.157  39.808  12.896
48569W        W15110   7.795  39.818   0.712
48570W        W15111  29.134  18.998   1.818
48571W        W15112  17.287  32.220  13.039
48572W        W15113   1.913  41.549   1.923
48573W        W15114  25.534  33.524   2.766
48574W        W15115   0.810   4.455   4.405
48575W        W15116  31.933  37.682   2.696
48576W        W15117  12.679   9.295  13.629
48577W        W15118  26.752  33.075  11.221
48578W        W15119  24.362  15.225   4.235
48579W        W15120   4.283  20.537  11.728
48580W        W15121  40.021   1.440  13.996
48581W        W15122  38.548   4.752   1.921
48582W        W15123   3.121  13.841   3.780
48583W        W15124  28.863  22.095  12.089
48584W        W15125  27.381  39.894  11.589
48585W        W15126   9.239  17.859   1.756
48586W        W15127   5.351   3.914  10.705
48587W        W15128  20.199  39.471   4.542
48588W        W15129  15.483  39.819   3.436
48589W        W15130  40.637   5.347   4.713
48590W        W15131  15.132  38.273   0.900
48591W        W15132  14.722  38.559  14.369
48592W        W15133  15.093   1.474   3.215
48593W        W15134   6.308   0.308   4.277
48594W        W15135   1.171  17.119   4.578
48595W        W15136  31.653  30.107  12.156
48596W        W15137  23.766  11.032   4.673
48597W        W15138  29.702   7.701  14.549
48598W        W15139  12.302  26.674   4.557
48599W        W15140   0.813   3.994  14.225
48600W        W15141  42.343   8.071  13.543
48601W        W15142   5.326  24.580   3.506
48602W        W15143  40.519  19.357  12.022
48603W        W15144  30.539   1.426  12.519
48604W        W15145  26.198   5.017   2.764
48605W        W15146  22.321  31.247  13.293
48606W        W15147  33.860  17.240  13.875
48607W        W15148  36.928  42.999  13.604
48608W        W15149  22.531  26.209  13.631
48609W        W15150  12.098  42.640   3.093
48610W        W15151  22.670  14.235   0.545
48611W        W15152  38.557  25.106  14.854
48612W        W15153  35.365   7.056   3.780
48613W        W15154  37.529  24.739   4.610
48614W        W15155   1.951   1.619   3.360
48615W        W15156   1.776  42.953   1.648
48616W        W15157  37.592  28.677  13.830
48617W        W15158  14.677  10.453   0.111
48618W        W15159   1.621  38.870  10.023
48619W        W15160  25.535  41.023   1.839
48620W        W15161  15.961  28.969   5.385
48621W        W15162  20.545  21.052  14.051
48622W        W15163  42.527   4.973   2.355
48623W        W15164  27.163  33.423   2.682
48624W        W15165   0.429  22.556   2.285
48625W        W15166  27.497  43.413  10.894
48626W        W15167  13.891   4.461   1.089
48627W        W15168  35.386  27.431   3.280
48628W        W15169  14.761  21.736  14.724
48629W        W15170  28.651   5.880   0.910
48630W        W15171  40.476  43.427  10.389
48631W        W15172  40.571  30.131   2.378
48632W        W15173  14.409  26.656  14.793
48633W        W15174  38.830  38.866  11.977
48634W        W15175  25.059  33.635   3.540
48635W        W15176  19.699  33.886   1.864
48636W        W15177  42.363  41.339   3.596
48637W        W15178   7.046   8.440   1.266
48638W        W15179  41.040  31.288  11.497
48639W        W15180  34.459  39.098  12.968
48640W        W15181  17.276  42.946   1.482
48641W        W15182   8.870  43.993   0.254
48642W        W15183   7.841  37.573   4.093
48643W        W15184   3.376   9.930  11.660
48644W        W15185  33.404  30.066   2.361
48645W        W15186  15.103  33.633  14.940
48646W        W15187  13.449  26.269   5.094
48647W        W15188   0.697  10.163  10.158
48648W        W15189  19.338  35.426  13.352
48649W        W15190  35.482  27.994  13.482
48650W        W15191  10.840  30.856   2.391
48651W        W15192  27.902   6.202  14.336
48652W        W15193  36.470  42.327  10.700
48653W        W15194   2.324  43.788  13.453
48654W        W15195   2.140  21.568   0.363
48655W        W15196  24.950   4.768  11.656
48656W        W15197  38.404  44.168   0.715
48657W        W15198  24.419  14.600  13.391
48658W        W15199  20.174  39.565  12.019
48659W        W15200  41.259  16.420  14.088
48660W        W15201  12.553  24.441  11.564
48661W        W15202  11.705  22.023   3.771
48662W        W15203   7.868  40.845   2.683
48663W        W15204   6.663  23.491  12.065
48664W        W15205   7.442  38.023   2.681
48665W        W15206   7.970  27.127  14.369
48666W        W15207   9.670   6.367   3.412
48667W        W15208  30.184  33.927   3.820
48668W        W15209  19.351  14.353  11.173
48669W        W15210   1.006  37.110   3.773
48670W        W15211   3.820  28.238   1.753
48671W        W15212  29.145   6.909   4.788
48672W        W15213  24.067   4.259  13.333
48673W        W15214  29.914  42.100  13.497
48674W        W15215  43.256  31.069   3.071
48675W        W15216   6.259  30.333  10.008
48676W        W15217  42.080   6.245  10.251
48677W        W15218   3.223  12.291  12.164
48678W        W15219  17.126  30.640   0.118
48679W        W15220  39.543  31.113  13.036
48680W        W15221  44.639   2.716  13.525
48681W        W15222  13.273  22.768  14.076
48682W        W15223  19.261  20.053   0.766
48683W        W15224  40.929   3.582  12.879
48684W        W15225  15.605  27.104  14.069
48685W        W15226  30.659  23.889  12.451
48686W        W15227   3.012   3.959  14.078
48687W        W15228  40.453  21.776  13.985
48688W        W15229  38.730  35.001  12.029
48689W        W15230  26.300  35.081   1.876
48690W        W15231  31.291  41.422  14.046
48691W        W15232   6.343  30.421  14.392
48692W        W15233  18.627  28.673  11.144
48693W        W15234   1.406   8.838   1.423
48694W        W15235   7.404  37.053  13.092
48695W        W15236  22.717   1.974   3.292
48696W        W15237  14.238  15.064   3.621
48697W        W15238  13.888  38.143  11.164
48698W        W15239  14.279  13.531   4.583
48699W        W15240   5.495  31.519  13.595
48700W        W15241  41.056  26.950   1.228
48701W        W15242  15.242  21.628  12.384
48702W        W15243  28.710  36.523   0.519
48703W        W15244   3.698  36.377  13.386
48704W        W15245   0.797  16.678  13.388
48705W        W15246  15.817  24.176  10.182
48706W        W15247  37.224  34.480  14.751
48707W        W15248  29.609  35.115  13.392
48708W        W15249  35.235  23.079   4.051
48709W        W15250  36.158   5.191  14.487
48710W        W15251  10.741  20.207   1.882
48711W        W15252   3.866  42.054   3.612
48712W        W15253  23.412  43.828  12.424
48713W        W15254   0.693  40.416   3.604
48714W        W15255   7.380  30.906  11.623
48715W        W15256  42.582   0.746  10.600
48716W        W15257  37.053  35.103  13.408
48717W        W15258  17.327  23.439   5.107
48718W        W15259  21.710   8.883   1.492
48719W        W15260  30.526  15.015  14.296
48720W        W15261  34.908   6.451  12.890
48721W        W15262  37.332  28.592  13.369
48722W        W15263  40.568  27.576  11.160
48723W        W15264  42.907  27.662   5.032
48724W        W15265  40.119  27.134   1.463
48725W        W15266  22.947   3.755  14.995
48726W        W15267  22.272  35.517   2.230
48727W        W15268   6.240   5.649   4.276
48728W        W15269  24.724   4.794   4.547
48729W        W15270  33.010  21.404  13.066
48730W        W15271  26.604  15.983  10.611
48731W        W15272  21.570  19.827   3.793
48732W        W15273  15.637  17.574   2.669
48733W        W15274  32.578  35.064  11.139
48734W        W15275  13.574  25.236   1.742
48735W        W15276  29.136  11.131   1.463
48736W        W15277   2.334  30.613  13.017
48737W        W15278  11.148  42.283   3.825
48738W        W15279  38.043  24.661  11.628
48739W        W15280  12.169  27.620  10.974
48740W        W15281  35.788  43.265   3.156
48741W        W15282  20.673  32.628  14.362
48742W        W15283  41.751  23.724  11.723
48743W        W15284  18.772  21.263  13.037
48744W        W15285  13.613  31.543   2.307
48745W        W15286   5.516  10.034  13.277
48746W        W15287   2.376  16.083  10.356
48747W        W15288   6.653   1.825   4.774
48748W        W15289   5.356  14.374  10.675
48749W        W15290   0.000  44.719  14.468
48750W        W15291  21.583  33.920   0.180
48751W        W15292   2.634  19.130  14.007
48752W        W15293   6.980  26.725  14.332
48753W        W15294   2.895   4.822   0.281
48754W        W15295  36.867   7.566   0.424
48755W        W15296  44.200  20.639  13.043
48756W        W15297   7.738  19.586   1.594
48757W        W15298   1.888   5.780  14.768
48758W        W15299  33.085  43.751  13.402
48759W        W15300  19.861   7.921   2.276
48760W        W15301  32.821  10.323  12.926
48761W        W15302  36.395  37.507   2.805
48762W        W15303  27.482   4.882   3.272
48763W        W15304  23.710   8.637   1.680
48764W        W15305  26.136  44.598   2.211
48765W        W15306  43.866  19.327   0.339
48766W        W15307  20.283  37.735  14.314
48767W        W15308   9.648  33.571   2.624
48768W        W15309  17.734   3.464   0.227
48769W        W15310  11.056  30.627  13.533
48770W        W15311  14.549  41.675  10.408
48771W        W15312  38.034  14.187   2.907
48772W        W15313  26.217   9.902  10.905
48773W        W15314  29.658  42.030   1.701
48774W        W15315  22.524  10.739  14.370
48775W        W15316  28.615   0.274  14.764
48776W        W15317  22.890  42.306   0.684
48777W        W15318  39.075  33.565   1.252
48778W        W15319  18.081  24.734   1.385
48779W        W15320  35.459  11.107   4.192
48780W        W15321  24.521  40.822  12.093
48781W        W15322  38.532  18.248  13.059
48782W        W15323  10.084   4.788  13.917
48783W        W15324  38.824  41.229  11.896
48784W        W15325  14.347  41.460  10.856
48785W        W15326  28.532  30.194   4.333
48786W        W15327  35.014  15.190   4.887
48787W        W15328  20.475   1.393   3.194
48788W        W15329   8.214  43.029   0.281
48789W        W15330  44.210  42.511   0.716
48790W        W15331   4.942  36.040  10.799
48791W        W15332   7.258   6.289   1.261
48792W        W15333  26.065   7.165  12.212
48793W        W15334  11.934   8.179   0.479
48794W        W15335  27.714   4.713  10.840
48795W        W15336  15.353  28.538   1.726
48796W        W15337  35.866   6.379  12.950
48797W        W15338   2.791  22.858  10.702
48798W        W15339   9.890  36.897   3.714
48799W        W15340  14.674  22.498   4.588
48800W        W15341  42.818  39.022   4.147
48801W        W15342  27.711  26.268  12.663
48802W        W15343  34.965  24.046  12.514
48803W        W15344  14.363  30.195   5.420
48804W        W15345  44.806  34.971  11.955
48805W        W15346  26.448  33.915   4.146
48806W        W15347  16.850  36.818  12.899
48807W        W15348  27.021  15.641   0.050
48808W        W15349  33.544  36.335   2.745
48809W        W15350  34.036  16.407   0.911
48810W        W15351  37.380  10.461   2.711
48811W        W15352  17.794  19.822  13.864
48812W        W15353  25.928  38.474  14.253
48813W        W15354   9.725  34.371  14.944
48814W        W15355  30.128  18.522  12.646
48815W        W15356  34.469  36.510   3.240
48816W        W15357   2.504   8.387   1.249
48817W        W15358  13.735  15.195  10.570
48818W        W15359  17.078  42.285  11.129
48819W        W15360  44.403  14.381  14.271
48820W        W15361  36.845   0.991   1.837
48821W        W15362  14.305  30.747  11.724
48822W        W15363   6.821   4.182   0.496
48823W        W15364   2.763  15.048  14.824
48824W        W15365  22.969  38.528  11.926
48825W        W15366   7.911  18.559   2.647
48826W        W15367  12.557   1.410  12.427
48827W        W15368  41.789  36.064  11.155
48828W        W15369  35.092  12.217   4.249
48829W        W15370  18.171  34.111   1.209
48830W        W15371  20.071  38.340   0.541
48831W        W15372  34.911  28.461  14.057
48832W        W15373  18.945   5.204  11.371
48833W        W15374  33.835  24.742  11.105
48834W        W15375  22.564  26.600   1.788
48835W        W15376  23.725  26.090   1.931
48836W        W15377  20.270  41.745   1.304
48837W        W15378  26.920   6.765  10.698
48838W        W15379   5.256  21.223   3.226
48839W        W15380   9.730  35.233   0.378
48840W        W15381   1.991   2.438   2.333
48841W        W15382   8.771  20.588  14.278
48842W        W15383  44.362  13.741  13.530
48843W        W15384  27.424  34.659  12.065
48844W        W15385  41.282  34.299   3.541
48845W        W15386  40.351  19.221   4.574
48846W        W15387  21.498  35.430  14.997
48847W        W15388  42.500  14.965  13.371
48848W        W15389  17.755  28.554  11.396
48849W        W15390   3.220  25.803  13.485
48850W        W15391  42.846  10.437  11.797
48851W        W15392  16.026  10.912   1.388
48852W        W15393  32.066  30.536  13.783
48853W        W15394   6.684  24.501  14.921
48854W        W15395   8.645  20.123  11.177
48855W        W15396  42.762  42.391  12.584
48856W        W15397  32.423   0.204   1.268
48857W        W15398  20.761   7.356   0.897
48858W        W15399  31.546   1.752  14.747
48859W        W15400  34.936  42.089   2.578
48860W        W15401  38.732  19.795  14.761
48861W        W15402  41.829  37.109   3.141
48862W        W15403  43.959  20.238   0.311
48863W        W15404  42.981  41.723   1.661
48864W        W15405  44.314  40.059   4.149
48865W        W15406  40.711  17.392   2.271
48866W        W15407  28.693   2.499  14.729
48867W        W15408   5.695  33.778   0.971
48868W        W15409  27.395   6.617  11.571
48869W        W15410  20.584   2.584  11.449
48870W        W15411  11.834  11.596  12.051
48871W        W15412   4.225  40.065   2.123
48872W        W15413  10.256  44.335  14.262
48873W        W15414   8.734  21.628   2.381
48874W        W15415   3.270  37.677  13.892
48875W        W15416   1.669  40.160  13.737
48876W        W15417  30.751  11.316  12.835
48877W        W15418  33.169   0.793  13.391
48878W        W15419  16.952  28.169   0.370
48879W        W15420  12.218   1.507  12.808
48880W        W15421  15.768  25.675   1.141
48881W        W15422  30.871  12.724  14.268
48882W        W15423  36.092  40.487   4.016
48883W        W15424   2.764   0.226  12.932
48884W        W15425  16.637  15.862   4.669
48885W        W15426  21.442  15.994   3.181
48886W        W15427  16.532   7.953  11.404
48887W        W15428  15.263  16.127  13.384
48888W        W15429   6.926   6.374   4.367
48889W        W15430   4.350  19.518  11.619
48890W        W15431  22.319  33.002  13.970
48891W        W15432   2.231  11.203   3.741
48892W        W15433  24.572  14.715  11.905
48893W        W15434   9.111  38.436  13.656
48894W        W15435  13.294  23.307  10.749
48895W        W15436  22.295  41.300   3.264
48896W        W15437  29.595  30.658  13.379
48897W        W15438   8.710  13.711   1.356
48898W        W15439  30.357  31.497   1.533
48899W        W15440  17.305  32.932   4.620
48900W        W15441  37.824  16.665   4.393
48901W        W15442  24.430   2.125   2.922
48902W        W15443  31.319   1.775   0.204
48903W        W15444  27.167   7.895  13.847
48904W        W15445  44.473   2.205  11.185
48905W        W15446   9.971  13.189  13.925
48906W        W15447  31.142  33.377   3.735
48907W        W15448   7.114  41.181   3.026
48908W        W15449  24.005  40.285   2.729
48909W        W15450  32.742   9.079   0.773
48910W        W15451   2.008  19.529   3.267
48911W        W15452  44.872  40.740  11.599
48912W        W15453  16.402   3.134   1.036
48913W        W15454   8.962  25.815  12.016
48914W        W15455  43.346  20.760   1.316
48915W        W15456   9.533  12.608  12.438
48916W        W15457  36.957  32.049  12.608
48917W        W15458   3.005  38.051   4.691
48918W        W15459  26.069  34.678  11.207
48919W        W15460   0.869   3.060  10.452
48920W        W15461  16.647  33.020  12.050
48921W        W15462  32.131  38.820   1.351
48922W        W15463  42.200  15.995  14.918
48923W        W15464  26.524   3.855   1.702
48924W        W15465  41.299  17.015   0.739
48925W        W15466  24.043  12.708   3.105
48926W        W15467  25.802   9.801  11.223
48927W        W15468  42.446  41.462   1.184
48928W        W15469  44.074  14.085   1.843
48929W        W15470  26.111  19.531  13.573
48930W        W15471  35.669   7.804   1.869
48931W        W15472  44.033  41.402  10.645
48932W        W15473  27.847  13.754   1.893
48933W        W15474  25.668  24.220  11.143
48934W        W15475  40.361  38.967   5.027
48935W        W15476  32.419   8.716   0.443
48936W        W15477   1.764  20.134  12.518
48937W        W15478  38.262  14.358   0.347
48938W        W15479  14.918  38.989  14.608
48939W        W15480  11.526  25.574   0.195
48940W        W15481  29.046  22.880   4.132
48941W        W15482  23.939   8.557   1.222
48942W        W15483  41.019  32.124  12.469
48943W        W15484  43.920  15.511   5.404
48944W        W15485   7.428  44.175   3.659
48945W        W15486  18.639  16.512   0.545
48946W        W15487  13.733  42.437   4.073
48947W        W15488  36.152  24.811  10.848
48948W        W15489  12.613  33.544  14.301
48949W        W15490  32.144  24.705   1.800
48950W        W15491  17.371  23.503  11.466
48951W        W15492  31.310  10.763  12.378
48952W        W15493  15.276  37.913  13.995
48953W        W15494   8.389  25.440   2.398
48954W        W15495  16.144  34.329  10.229
48955W        W15496  18.211  21.566   4.114
48956W        W15497   7.646  29.592  12.504
48957W        W15498  43.993  24.482  12.038
48958W        W15499  28.958  31.306   0.724
48959W        W15500  37.370  44.723   4.468
48960W        W15501  23.025  41.248   4.533
48961W        W15502  18.574  20.550  10.755
48962W        W15503  38.857  32.868   4.518
48963W        W15504   1.055  17.533  13.375
48964W        W15505  15.837   7.188  10.289
48965W        W15506  43.406  44.189  13.904
48966W        W15507  16.045  22.511   3.861
48967W        W15508  33.593  23.517  11.588
48968W        W15509   6.474  42.688  11.625
48969W        W15510  44.688  19.224   0.795
48970W        W15511   2.126  22.202   2.724
48971W        W15512  11.721   4.273   4.520
48972W        W15513  40.542   1.904   1.361
48973W        W15514   9.387  39.408   1.400
48974W        W15515  39.831   3.322   4.139
48975W        W15516  17.833  15.953   1.829
48976W        W15517   9.660  39.709  10.679
48977W        W15518  25.245  39.478   3.253
48978W        W15519  17.728  23.286   4.811
48979W        W15520  31.000  30.987  13.996
48980W        W15521  24.382  23.473  12.970
48981W        W15522  38.203  12.898  11.152
48982W        W15523  44.498  29.691   0.354
48983W        W15524   8.643  36.866   4.255
48984W        W15525  31.203  37.073   1.251
48985W        W15526  18.603   4.419  11.409
48986W        W15527  26.046  10.203   3.222
48987W        W15528  29.528  18.233   4.852
48988W        W15529   9.669  20.953   2.778
48989W        W15530   2.305  43.448   1.035
48990W        W15531  23.243  24.653   4.125
48991W        W15532  18.012  18.667   2.738
48992W        W15533  41.982  17.562  11.137
48993W        W15534  40.570   0.761  13.044
48994W        W15535  24.457  20.225  10.595
48995W        W15536   7.645  42.848   2.657
48996W        W15537  32.539  15.001   0.720
48997W        W15538  33.857  35.661   2.956
48998W        W15539  19.635  26.713  11.147
48999W        W15540  14.110  18.648   2.713
49000W        W15541  27.714  17.880   4.481
49001W        W15542  17.932  35.383  13.110
49002W        W15543  18.510  38.926  12.207
49003W        W15544  13.596  37.530   4.877
49004W        W15545  34.841   0.437   0.858
49005W        W15546  22.615   8.454  14.047
49006W        W15547  14.250  15.546   4.543
49007W        W15548  16.186  42.975   1.059
49008W        W15549  43.855  20.160  13.038
49009W        W15550  40.995   0.071  14.440
49010W        W15551  15.219  33.675  12.530
49011W        W15552  40.301  28.959   0.333
49012W        W15553   7.823  21.028   3.323
49013W        W15554  14.625   4.773  10.719
49014W        W15555  32.852  27.064  13.003
49015W        W15556  12.377  43.835  13.113
49016W        W15557  15.338  19.865  10.718
49017W        W15558  13.687  17.145   1.456
49018W        W15559  18.594  33.309   0.202
49019W        W15560  29.395  27.088   1.002
49020W        W15561   5.434   8.842  13.955
49021W        W15562  16.218   3.693  12.089
49022W        W15563  19.275  26.561   0.730
49023W        W15564  35.899  34.507  11.570
49024W        W15565  41.611  30.213  13.143
49025W        W15566  25.053  22.251   4.905
49026W        W15567  25.499  27.218  13.943
49027W        W15568  27.570  39.560  12.902
49028W        W15569  28.418  35.045   0.348
49029W        W15570  32.764  44.393   4.403
49030W        W15571  36.116   2.181   1.803
49031W        W15572   6.359   3.963  11.590
49032W        W15573   4.409  36.664  12.517
49033W        W15574  21.270  38.378   0.281
49034W        W15575  35.214  42.536   2.610
49035W        W15576  10.995  38.976   9.853
49036W        W15577  35.495  26.201   2.713
49037W        W15578  25.152   6.463   1.693
49038W        W15579  12.388   3.252  13.871
49039W        W15580   3.997   1.852  11.632
49040W        W15581  18.562  44.671  14.948
49041W        W15582  13.784  43.548   4.906
49042W        W15583  43.372  18.542   0.756
49043W        W15584  34.475  22.327   4.653
49044W        W15585   3.102   2.360   0.124
49045W        W15586  13.631  39.023  13.912
49046W        W15587   0.980   4.513   1.308
49047W        W15588   6.153  44.923   3.381
49048W        W15589  26.393  24.349  13.798
49049W        W15590  32.658  24.421  12.063
49050W        W15591  22.039  32.356  11.034
49051W        W15592  28.012  31.592   3.378
49052W        W15593  28.024  38.441   0.687
49053W        W15594   3.600  43.429   0.971
49054W        W15595   4.436   9.514   1.968
49055W        W15596  17.977  21.171   1.407
49056W        W15597  15.257  25.229   2.640
49057W        W15598  22.830  22.774  10.932
49058W        W15599   8.105  14.171   3.216
49059W        W15600  10.174   9.693  13.931
49060W        W15601  44.568  12.283   1.446
49061W        W15602  22.045  37.159   3.249
49062W        W15603  34.420   9.497   4.058
49063W        W15604  32.917  14.058   1.300
49064W        W15605  19.703   9.766   4.747
49065W        W15606  22.142  28.205   1.273
49066W        W15607  40.081  37.317  14.881
49067W        W15608  36.585  15.080  10.452
49068W        W15609  10.619  28.694  11.185
49069W        W15610   0.606   8.263  11.269
49070W        W15611  26.234  18.581  13.420
49071W        W15612  27.558  30.322  11.899
49072W        W15613  20.412   3.226   2.795
49073W        W15614  42.443  40.910   2.789
49074W        W15615  43.578  44.979  14.360
49075W        W15616  27.617  14.839  12.458
49076W        W15617  12.578  21.009   3.421
49077W        W15618  28.556  34.309   3.421
49078W        W15619  30.172   6.759   0.845
49079W        W15620   3.406  28.005   1.966
49080W        W15621  36.115  24.511  12.989
49081W        W15622  38.861   7.978  11.092
49082W        W15623  15.911  17.795  10.890
49083W        W15624   1.825  15.221   4.483
49084W        W15625   8.916  10.448   0.222
49085W        W15626  13.758   4.314   2.841
49086W        W15627  33.391  14.314  10.902
49087W        W15628  26.650   6.258  11.626
49088W        W15629  14.261  29.160   2.343
49089W        W15630  44.325  44.791   4.231
49090W        W15631  29.929  22.814  12.921
49091W        W15632  44.896  37.400  14.452
49092W        W15633  21.209  12.307   3.169
49093W        W15634   8.707  27.534  12.906
49094W        W15635  29.050  22.266  10.625
49095W        W15636  28.160  19.566   1.762
49096W        W15637  14.431  20.801  14.435
49097W        W15638   4.211  25.297  13.376
49098W        W15639  38.397  17.138   9.995
49099W        W15640  33.506  16.826  14.282
49100W        W15641  16.872  29.406   0.912
49101W        W15642  37.379  33.718  12.518
49102W        W15643  29.166  37.898   1.674
49103W        W15644  29.156  14.308   2.226
49104W        W15645  29.318  27.043   0.464
49105W        W15646   0.422  14.712   0.225
49106W        W15647  30.862   6.124   4.574
49107W        W15648  10.818  36.740  11.161
49108W        W15649  27.995  29.167   2.796
49109W        W15650  35.400  15.568   1.844
49110W        W15651  32.031  36.409   2.691
49111W        W15652  17.976  33.556  12.027
49112W        W15653  13.733  12.058  13.997
49113W        W15654  38.582  29.990   3.534
49114W        W15655  13.824  15.845   1.715
49115W        W15656  10.309  41.033  12.461
49116W        W15657  17.780  11.899   1.737
49117W        W15658  20.012   8.366   9.848
49118W        W15659  10.583  10.976   0.007
49119W        W15660   3.535   7.245   1.635
49120W        W15661   4.134  11.388   4.691
49121W        W15662  16.089  36.394   0.429
49122W        W15663  44.926  10.966   3.800
49123W        W15664  15.540   3.840   4.754
49124W        W15665  26.456  35.071   3.674
49125W        W15666  23.562   8.276  11.141
49126W        W15667  31.997   4.739  11.610
49127W        W15668  36.425  27.855   5.060
49128W        W15669  38.937   9.803   1.207
49129W        W15670  33.001   2.481   1.411
49130W        W15671  15.348  24.248  12.495
49131W        W15672  18.663  22.516  14.596
49132W        W15673  33.737  36.014   0.741
49133W        W15674  30.640   8.197   0.311
49134W        W15675  38.209  31.855   4.872
49135W        W15676  40.825  41.805   0.344
49136W        W15677  44.406  16.924   1.432
49137W        W15678   8.585  23.321   3.865
49138W        W15679  25.728   2.940   0.899
49139W        W15680  32.202   6.268   0.026
49140W        W15681   9.212  12.564   1.926
49141W        W15682  18.831   7.732   0.313
49142W        W15683  35.459  16.659   4.640
49143W        W15684  12.739  35.835  12.428
49144W        W15685  26.035  22.611  10.789
49145W        W15686  18.184  17.491   1.676
49146W        W15687  38.196  14.268   4.317
49147W        W15688  41.620  11.356  14.932
49148W        W15689   1.864  13.243  11.641
49149W        W15690  21.126  29.977   4.159
49150W        W15691   4.206  39.017   0.775
49151W        W15692   1.386   0.188   2.174
49152W        W15693   6.985  38.373  14.507
49153W        W15694  21.975  10.290  14.233
49154W        W15695  40.584  28.637   3.232
49155W        W15696  32.881  34.006  11.965
49156W        W15697  11.548  35.571   3.222
49157W        W15698  22.568   5.690  12.930
49158W        W15699  34.132  27.679  13.127
49159W        W15700  22.012  29.909  13.125
49160W        W15701  23.943  27.684  13.923
49161W        W15702  38.792  17.272   0.917
49162W        W15703  14.850  41.468   2.360
49163W        W15704   7.679  21.923   2.388
49164W        W15705  19.139  42.076   4.637
49165W        W15706   1.635  28.028   4.600
49166W        W15707  11.645  28.049  14.380
49167W        W15708  25.600  40.133  10.327
49168W        W15709  13.917  15.420   2.458
49169W        W15710   7.104  42.491   0.038
49170W        W15711   5.180  27.035  12.344
49171W        W15712   9.965  36.302  14.631
49172W        W15713   6.265   0.262  13.130
49173W        W15714  33.496  24.660   0.433
49174W        W15715  15.223  39.918  11.974
49175W        W15716  28.395  28.423   0.821
49176W        W15717   7.475  34.946   1.036
49177W        W15718   0.712   8.369   1.807
49178W        W15719  34.977  35.870   0.052
49179W        W15720  17.008  36.909  14.309
49180W        W15721   5.429  15.637  12.570
49181W        W15722  24.565  31.118  13.446
49182W        W15723  11.630  38.954   4.619
49183W        W15724  36.038  16.107  12.908
49184W        W15725   4.161  30.297  11.605
49185W        W15726   3.935  34.485   0.839
49186W        W15727  27.801  34.567   0.052
49187W        W15728  11.367  40.896   0.536
49188W        W15729  29.196  37.295  14.856
49189W        W15730   7.892  15.044   2.166
49190W        W15731  37.735  32.153  13.091
49191W        W15732  13.808  35.805  13.013
49192W        W15733  21.753  10.800   3.208
49193W        W15734   7.288  17.852  10.743
49194W        W15735  11.269  39.824  13.108
49195W        W15736   6.317  42.917   4.132
49196W        W15737  27.062  19.132   3.917
49197W        W15738  41.134  11.379   2.199
49198W        W15739  24.337   0.482   1.298
49199W        W15740  19.371  37.734   0.736
49200W        W15741  37.437   2.375   1.214
49201W        W15742  30.656  16.202  11.082
49202W        W15743  23.195  11.152   0.899
49203W        W15744  32.663  17.295   3.667
49204W        W15745  36.622  44.761   2.372
49205W        W15746  23.229   7.200   2.725
49206W        W15747   2.951  23.610  14.914
49207W        W15748  33.423  11.219   1.100
49208W        W15749  33.133   8.235  11.482
49209W        W15750  14.814  12.786  13.019
49210W        W15751  39.908   9.741  13.448
49211W        W15752  12.241  22.671   0.458
49212W        W15753  19.813  27.746   4.088
49213W        W15754   4.468  10.921  14.813
49214W        W15755  26.577   3.286   0.444
49215W        W15756  23.335  31.812   0.080
49216W        W15757  35.530  42.272   4.628
49217W        W15758  10.117  44.653   1.214
49218W        W15759  14.498  26.643  10.671
49219W        W15760  20.530   3.521   2.394
49220W        W15761  22.018  18.161   4.324
49221W        W15762  33.624   7.763   0.296
49222W        W15763  33.871  38.425   4.399
49223W        W15764  36.222   1.263   3.828
49224W        W15765   7.931  42.050   2.344
49225W        W15766  31.431  22.063   2.391
49226W        W15767  40.008   8.827  13.409
49227W        W15768  12.634  37.449  11.365
49228W        W15769  19.030   1.598  12.159
49229W        W15770  38.401  26.493  11.734
49230W        W15771  36.060  35.868   1.650
49231W        W15772  20.960  21.594   2.197
49232W        W15773  41.703  34.495  13.957
49233W        W15774   2.283  21.713   1.680
49234W        W15775   5.904  40.784   3.674
49235W        W15776  24.718  44.754   0.216
49236W        W15777  10.289  11.186   0.394
49237W        W15778  41.033  40.448  13.255
49238W        W15779  20.575  25.412  10.643
49239W        W15780  41.109  38.712  12.551
49240W        W15781  30.684   4.262  10.565
49241W        W15782  28.466  18.220   0.764
49242W        W15783   7.322  40.577   0.882
49243W        W15784  15.777   2.683  14.948
49244W        W15785   3.437   0.486  11.579
49245W        W15786  29.413  37.037   3.660
49246W        W15787  18.966  19.962  12.409
49247W        W15788  31.978  16.961   4.994
49248W        W15789  18.164  39.503  10.550
49249W        W15790  34.075   5.289  10.375
49250W        W15791  16.792  25.539  11.139
49251W        W15792  38.661  41.343   0.994
49252W        W15793  26.292  44.294  13.568
49253W        W15794  17.545   9.268  13.827
49254W        W15795  28.040  44.339   1.992
49255W        W15796  13.575  17.304   4.295
49256W        W15797  34.351  33.005  11.614
49257W        W15798  19.784  34.851  13.395
49258W        W15799  38.322   1.839   0.268
49259W        W15800  33.687   2.482  13.917
49260W        W15801   6.433  13.097   0.471
49261W        W15802  21.010  29.926   3.278
49262W        W15803   1.881   2.243  13.781
49263W        W15804   6.000  10.783  12.941
49264W        W15805  19.611  41.045  11.949
49265W        W15806  13.645  20.641   4.674
49266W        W15807  39.480  31.066   0.464
49267W        W15808   4.279   9.883   2.382
49268W        W15809  42.883   9.776  13.779
49269W        W15810  12.885  29.538  14.872
49270W        W15811  25.838  21.510   1.021
49271W        W15812  13.612   2.832  11.470
49272W        W15813  10.196  42.362  10.179
49273W        W15814   4.830  40.368   5.063
49274W        W15815   7.093   1.095   9.763
49275W        W15816  33.908  39.425   1.724
49276W        W15817  16.110  36.942  10.749
49277W        W15818  33.998   4.298  11.172
49278W        W15819  21.631   4.082  12.506
49279W        W15820   1.044   9.910  11.458
49280W        W15821  38.955   1.723  14.357
49281W        W15822  32.490  36.533  10.764
49282W        W15823  35.880  37.022  11.555
49283W        W15824  19.575   5.857   3.604
49284W        W15825  28.533  37.837   4.306
49285W        W15826  20.381  11.603   0.319
49286W        W15827  26.552   7.652   0.558
49287W        W15828  22.656  17.463   0.451
49288W        W15829  21.611  42.945   4.909
49289W        W15830  14.512  42.887  12.638
49290W        W15831   5.761  12.385  11.974
49291W        W15832   6.809  15.648  13.701
49292W        W15833  16.695  19.343   1.481
49293W        W15834  41.555  40.315  11.551
49294W        W15835  27.554  16.144   3.804
49295W        W15836  36.597  24.993  10.662
49296W        W15837  25.126  28.532   2.187
49297W        W15838  19.668  17.301  11.702
49298W        W15839  17.382   8.814   3.189
49299W        W15840  13.824  29.116  12.902
49300W        W15841  39.615  17.137   1.407
49301W        W15842  17.808  28.546   0.496
49302W        W15843  25.729   3.743  13.423
49303W        W15844  40.375  18.687  13.182
49304W        W15845  23.146  15.114   1.895
49305W        W15846   5.724  26.181   1.684
49306W        W15847  44.637   6.710   2.691
49307W        W15848  23.775   3.494  13.517
49308W        W15849   7.822  31.192  14.431
49309W        W15850  39.975  22.854   1.708
49310W        W15851  36.381  32.213  13.868
49311W        W15852  15.188  18.063  14.366
49312W        W15853  17.156  16.160  14.911
49313W        W15854  39.019  28.070  14.473
49314W        W15855  28.673  26.606   2.754
49315W        W15856  34.520  43.054  11.500
49316W        W15857  34.687  19.652  11.695
49317W        W15858  12.438  33.899   1.852
49318W        W15859  35.472   7.181   4.622
49319W        W15860  29.885   3.395   3.737
49320W        W15861  22.725  36.442  10.064
49321W        W15862  10.649   2.675   0.385
49322W        W15863   3.207  41.593  13.972
49323W        W15864   6.833   3.460   3.786
49324W        W15865  16.523  28.117   4.731
49325W        W15866   2.639  11.759  12.445
49326W        W15867  41.222  27.635   0.888
49327W        W15868  41.142  13.875   1.238
49328W        W15869  44.465  19.561   3.404
49329W        W15870  20.985  29.592   2.761
49330W        W15871  34.717  42.510   2.377
49331W        W15872  21.740  20.165   0.655
49332W        W15873  22.954  11.286  12.892
49333W        W15874   4.985  38.494  11.981
49334W        W15875  20.987  23.287  10.054
49335W        W15876   0.729  32.184  13.994
49336W        W15877  24.629  15.768   4.554
49337W        W15878  23.491  25.498  14.566
49338W        W15879  27.610  11.607   0.922
49339W        W15880  21.746  20.186  12.233
49340W        W15881   6.267   9.744   3.439
49341W        W15882  13.418  33.080  10.773
49342W        W15883  10.353  13.410  12.845
49343W        W15884  11.141  13.730   0.293
49344W        W15885  28.548  34.679   0.764
49345W        W15886  18.386  19.158  10.669
49346W        W15887  23.705  13.130  10.886
49347W        W15888  39.065  25.748  14.754
49348W        W15889  23.033  36.372   1.905
49349W        W15890  10.305  34.158  12.102
49350W        W15891  21.131   8.599   4.590
49351W        W15892   2.355  36.900  13.285
49352W        W15893  35.057   4.402   2.880
49353W        W15894  30.908  22.929  13.955
49354W        W15895  38.581   7.199   1.796
49355W        W15896   6.458  27.966  12.521
49356W        W15897  18.735  10.252   1.832
49357W        W15898  33.605  16.058  14.665
49358W        W15899  34.056  28.927  14.486
49359W        W15900  11.542   8.364   4.698
49360W        W15901   5.177  41.863  11.638
49361W        W15902   3.319   0.366  14.869
49362W        W15903   4.796  38.674   1.495
49363W        W15904  35.935  18.601   0.384
49364W        W15905   4.657   0.421   4.450
49365W        W15906  23.701  13.282  12.825
49366W        W15907  26.414  31.126  11.871
49367W        W15908  19.019  13.792   9.857
49368W        W15909  36.107   4.836  12.709
49369W        W15910  12.026  37.045  11.725
49370W        W15911  39.421  13.882   1.681
49371W        W15912  14.614  16.160  13.040
49372W        W15913  30.832  21.452   1.337
49373W        W15914  39.009  24.178  11.221
49374W        W15915   8.907  29.910  12.571
49375W        W15916  20.163   1.119  13.651
49376W        W15917  42.446  33.391   0.657
49377W        W15918  24.891  38.662   2.867
49378W        W15919  26.976  23.187   4.113
49379W        W15920  14.254  18.707   1.613
49380W        W15921   7.972  44.581  13.170
49381W        W15922   4.674  22.829   2.247
49382W        W15923  38.017  34.587   1.257
49383W        W15924  11.587  38.484  13.780
49384W        W15925  37.995  12.793   3.645
49385W        W15926  39.011  25.338  10.014
49386W        W15927  37.469   3.752   1.614
49387W        W15928  14.785  28.738   1.275
49388W        W15929  26.087  19.651   1.343
49389W        W15930  20.747  37.795  10.832
49390W        W15931  37.467   4.809  12.334
49391W        W15932  16.150  40.372  14.336
49392W        W15933  38.088   2.199   4.785
49393W        W15934   9.265  22.652   0.619
49394W        W15935   5.898  16.229  12.844
49395W        W15936  42.551   2.473  14.752
49396W        W15937  17.107   8.857  12.959
49397W        W15938  31.445   2.347  12.455
49398W        W15939  40.936  24.929   2.703
49399W        W15940   5.008  42.041   1.814
49400W        W15941  24.620  18.612   3.750
49401W        W15942  16.174   1.286  11.832
49402W        W15943   8.678  13.903   3.360
49403W        W15944  30.112   1.059  12.576
49404W        W15945   4.740  29.365  12.161
49405W        W15946  40.242  41.868  14.998
49406W        W15947   6.762  21.034  10.726
49407W        W15948   0.381  30.504  14.550
49408W        W15949  11.013  25.993   2.638
49409W        W15950  32.437   2.761   1.586
49410W        W15951  22.450  38.361  13.530
49411W        W15952   5.210  12.153  12.870
49412W        W15953  11.871  13.096   2.220
49413W        W15954  27.984  32.428   3.315
49414W        W15955  15.239  23.568   0.095
49415W        W15956   4.801  35.434   4.653
49416W        W15957  33.281  15.855   1.378
49417W        W15958  17.564  20.535  10.842
49418W        W15959  43.368   2.208  13.676
49419W        W15960  32.103  24.940   4.609
49420W        W15961  20.147  30.949  14.583
49421W        W15962   0.383  15.143   2.335
49422W        W15963  22.697  21.456  13.101
49423W        W15964  22.726  42.258   4.351
49424W        W15965  41.731  17.487  14.896
49425W        W15966  16.365  11.902  11.178
49426W        W15967  17.135   5.434  11.366
49427W        W15968  14.660  29.354   2.894
49428W        W15969   2.766  34.528  12.890
49429W        W15970  20.563  41.809   3.141
49430W        W15971   2.828   3.684  12.230
49431W        W15972   4.858  16.360  13.353
49432W        W15973  18.177   2.775   0.776
49433W        W15974  31.654  13.321  10.855
49434W        W15975  10.234  14.269   2.245
49435W        W15976   0.534   1.148  14.033
49436W        W15977  38.650  15.612   2.694
49437W        W15978  22.722  41.994   1.859
49438W        W15979  34.078  28.056   2.352
49439W        W15980  18.030  33.853  10.222
49440W        W15981  22.195  29.716   3.723
49441W        W15982  17.272  22.391   0.931
49442W        W15983  43.033  20.060  14.018
49443W        W15984  17.066   2.379   2.686
49444W        W15985  25.776  14.494  11.461
49445W        W15986  43.477   0.228  12.963
49446W        W15987  36.367  10.369  10.857
49447W        W15988  26.745  41.042   3.587
49448W        W15989  25.348  36.087  14.738
49449W        W15990  32.007  17.297  11.921
49450W        W15991  19.241   4.720  14.536
49451W        W15992  31.449  15.319   3.114
49452W        W15993  22.424   8.734  10.097
49453W        W15994  41.289  25.236   1.011
49454W        W15995  42.762  26.913  12.794
49455W        W15996   8.957   1.478   4.654
49456W        W15997   0.290  26.103  10.441
49457W        W15998  21.232  28.902   4.431
49458W        W15999  26.430   6.367   3.273
49459W        W16000  14.068   4.158   0.723
49460W        W16001  21.623  43.902  14.839
49461W        W16002  40.027  11.340   1.766
49462W        W16003  43.562  18.610  11.591
49463W        W16004  17.713  18.198  14.861
49464W        W16005  40.496  11.632  11.641
49465W        W16006  35.386  23.286  11.461
49466W        W16007  32.312  44.825   3.791
49467W        W16008  32.233  19.918  12.540
49468W        W16009  18.312  27.454  11.444
49469W        W16010  38.532  36.679   3.417
49470W        W16011  19.760  39.545   1.824
49471W        W16012  44.505   5.376   5.040
49472W        W16013  19.467  21.957  11.052
49473W        W16014  33.613  29.528  11.042
49474W        W16015  14.719  22.562   3.200
49475W        W16016  29.634  15.500  11.762
49476W        W16017  39.916  29.653  10.640
49477W        W16018   1.850   1.512   2.349
49478W        W16019  14.021   6.790   1.971
49479W        W16020  33.721   2.825   0.273
49480W        W16021   9.324  33.636  14.079
49481W        W16022  13.344  30.106  14.585
49482W        W16023  37.268   1.823  11.232
49483W        W16024  27.096  26.110   1.672
49484W        W16025  15.658   5.522  13.081
49485W        W16026  41.009  24.030   2.768
49486W        W16027   8.286  35.554   3.245
49487W        W16028  25.529   6.349  12.966
49488W        W16029   9.209   9.279  12.192
49489W        W16030  12.727  13.899  11.666
49490W        W16031  12.665  32.590  14.772
49491W        W16032  43.739  28.472  13.337
49492W        W16033   1.329  24.748  10.677
49493W        W16034   8.881  28.143   3.657
49494W        W16035  18.138  18.772   0.893
49495W        W16036  14.265  20.943  13.806
49496W        W16037   7.420   5.901  13.134
49497W        W16038  31.607  32.240  11.406
49498W        W16039  35.606   0.867  10.592
49499W        W16040  20.936  32.450   0.219
49500W        W16041  22.261  28.333   3.931
49501W        W16042  35.543  24.056   0.843
49502W        W16043  34.006  28.427  13.617
49503W        W16044   3.918  17.204   4.384
49504W        W16045   4.451  32.115  12.918
49505W        W16046  13.774   5.425   2.070
49506W        W16047   8.389  11.280  13.494
49507W        W16048  11.935  39.159   5.038
49508W        W16049  10.664  36.156   3.647
49509W        W16050   0.611  24.756  10.904
49510W        W16051   5.897  44.979   0.348
49511W        W16052  29.218  44.685  12.465
49512W        W16053  37.102  31.578  13.913
49513W        W16054  24.795  14.707  14.081
49514W        W16055  19.576  34.353  11.590
49515W        W16056  23.162  43.334   3.362
49516W        W16057  13.199  11.881  11.187
49517W        W16058  38.944  23.717   1.808
49518W        W16059  29.141   7.768   0.916
49519W        W16060  30.236   6.165   3.137
49520W        W16061  15.875  11.905   4.007
49521W        W16062  20.420  15.652  10.662
49522W        W16063   5.689  42.208   0.889
49523W        W16064  11.292  14.353   2.741
49524W        W16065   7.823  14.782  13.783
49525W        W16066  21.777   2.054  13.857
49526W        W16067  22.355  33.291  11.095
49527W        W16068  34.318  20.112   2.860
49528W        W16069  19.803  21.087   0.901
49529W        W16070   1.212  26.617  11.711
49530W        W16071  40.274  44.300  14.389
49531W        W16072   0.410  13.655  12.541
49532W        W16073  26.164  28.671  12.018
49533W        W16074  16.889  19.983  12.413
49534W        W16075  44.057  25.695  11.479
49535W        W16076  43.345  14.044   3.343
49536W        W16077  14.709  21.050  11.764
49537W        W16078  25.128  35.981  10.583
49538W        W16079  23.292  37.404   0.420
49539W        W16080  32.111  10.649  14.825
49540W        W16081  13.859   3.575   2.283
49541W        W16082  40.407  14.611  10.396
49542W        W16083   7.235  37.128  10.735
49543W        W16084  19.509  30.657   1.693
49544W        W16085  42.322  13.751  14.713
49545W        W16086  39.342  24.525  12.011
49546W        W16087  34.433  32.907   2.857
49547W        W16088   4.820  32.885  11.195
49548W        W16089  22.714  36.558  14.271
49549W        W16090  37.172  37.487   2.398
49550W        W16091  42.434  22.579   3.893
49551W        W16092  10.576  37.923   1.821
49552W        W16093  40.365  10.151   0.205
49553W        W16094  35.477   6.724  13.011
49554W        W16095  18.870  33.429  13.414
49555W        W16096   2.774   4.879   2.737
49556W        W16097  15.640  12.125  14.039
49557W        W16098  13.062   3.171   4.242
49558W        W16099  42.923   2.978   2.641
49559W        W16100  31.130   7.422  12.938
49560W        W16101  33.096  29.426  10.985
49561W        W16102  43.090  14.887   0.365
49562W        W16103   2.411  38.541  12.516
49563W        W16104   3.938  14.900  13.279
49564W        W16105  29.560  13.912  14.802
49565W        W16106  11.968  23.141  11.829
49566W        W16107  21.451  31.674  14.659
49567W        W16108  39.076   7.967  12.451
49568W        W16109  30.066   0.234  14.454
49569W        W16110   2.300  39.324   0.722
49570W        W16111  22.728   2.669   3.684
49571W        W16112  41.844   9.534  14.485
49572W        W16113  32.060   5.424   4.592
49573W        W16114  18.582  43.125   2.042
49574W        W16115  36.732   1.817  10.216
49575W        W16116  24.853   4.420   3.317
49576W        W16117  25.230   9.083   3.320
49577W        W16118  24.684   5.776  13.742
49578W        W16119  28.615  30.478   1.702
49579W        W16120  18.131  14.093   2.670
49580W        W16121  14.248  36.851  11.127
49581W        W16122   0.212  28.553   3.887
49582W        W16123  31.139   4.813   1.758
49583W        W16124  26.273  19.640   0.443
49584W        W16125  43.229   4.225  12.028
49585W        W16126  32.816   3.922   1.667
49586W        W16127  39.324  11.430   3.253
49587W        W16128   9.138  19.029   0.950
49588W        W16129  38.579  23.774   2.917
49589W        W16130  19.527  13.303  12.471
49590W        W16131   2.253  29.751  11.509
49591W        W16132  22.027   3.873   0.665
49592W        W16133   7.232  13.137  13.977
49593W        W16134  43.210  23.958  12.360
49594W        W16135  17.068   1.761  14.554
49595W        W16136   1.906  44.285   4.058
49596W        W16137   6.159  35.566  13.404
49597W        W16138  44.852  29.238  12.757
49598W        W16139  23.020  31.156   2.692
49599W        W16140   2.308  37.902  14.707
49600W        W16141  16.332  39.887  14.423
49601W        W16142  37.336  31.252   3.174
49602W        W16143  11.704  30.817  14.385
49603W        W16144   2.309  26.768  12.929
49604W        W16145   3.292  27.064   0.947
49605W        W16146   2.422  26.231   4.626
49606W        W16147  44.348  18.770  13.829
49607W        W16148   1.501  42.587  14.874
49608W        W16149   2.395  32.555  14.981
49609W        W16150  12.857  13.659   4.235
49610W        W16151  27.691  27.846   2.394
49611W        W16152   9.491  43.148  11.429
49612W        W16153  25.982  26.507   3.346
49613W        W16154  38.343  22.131  13.473
49614W        W16155  38.629  22.694   1.426
49615W        W16156   5.892   3.168  14.564
49616W        W16157  38.401  29.576   0.947
49617W        W16158  44.835  21.782  13.907
49618W        W16159  44.702  15.374   1.647
49619W        W16160  19.937  32.350  12.101
49620W        W16161  11.951  11.130  12.905
49621W        W16162   1.913  20.607  13.631
49622W        W16163  40.447   0.913  13.945
49623W        W16164   2.799  26.484  14.543
49624W        W16165   1.408  40.025  12.417
49625W        W16166  19.139  26.427  13.075
49626W        W16167  33.426   2.958   3.594
49627W        W16168  12.318  15.539   1.739
49628W        W16169   3.456  41.398   3.743
49629W        W16170  39.368  12.587  12.873
49630W        W16171  32.143  14.616  11.007
49631W        W16172  26.297  38.275  13.964
49632W        W16173  31.507  37.385  12.939
49633W        W16174   7.524  11.724   0.236
49634W        W16175  24.222  24.249  11.497
49635W        W16176  34.367   6.647  11.095
49636W        W16177  39.548  23.367  11.123
49637W        W16178   6.901   1.612  11.574
49638W        W16179  11.816  36.360   2.562
49639W        W16180  34.944  23.251  14.874
49640W        W16181  36.934  21.353   2.285
49641W        W16182  44.695  18.065  13.754
49642W        W16183  16.283  35.251   1.932
49643W        W16184  11.670  25.667   1.923
49644W        W16185  17.110  15.974  12.430
49645W        W16186  44.759   3.471   1.794
49646W        W16187  27.172  42.938   3.998
49647W        W16188  14.078  12.293   3.052
49648W        W16189  14.628  40.070   2.274
49649W        W16190   5.747  31.630  14.252
49650W        W16191  18.693  41.394  10.922
49651W        W16192   8.364  24.120  14.811
49652W        W16193  25.370  20.298   1.722
49653W        W16194  11.442  28.149   2.671
49654W        W16195  29.937  17.317   2.300
49655W        W16196  28.217  41.821  13.883
49656W        W16197  30.479  23.561   1.900
49657W        W16198   6.814  28.113   0.043
49658W        W16199  23.384  19.527  14.821
49659W        W16200   4.887  43.021   1.854
49660W        W16201  44.132  29.752   1.280
49661W        W16202   3.815  35.629  11.538
49662W        W16203  10.727  44.438  14.075
49663W        W16204  23.905  38.638  14.436
49664W        W16205  32.057  15.415   0.384
49665W        W16206  33.039  23.533  13.248
49666W        W16207  26.078  20.093  12.412
49667W        W16208  42.647   2.975   4.041
49668W        W16209  19.853  26.106   2.761
49669W        W16210  41.803  31.535  11.011
49670W        W16211  36.551  44.774  11.145
49671W        W16212  24.300  16.081  12.026
49672W        W16213  35.693  32.610   1.221
49673W        W16214   5.772   6.381  12.946
49674W        W16215  20.219   6.663   1.127
49675W        W16216   7.114   7.611   1.804
49676W        W16217   1.452  35.889   1.888
49677W        W16218  32.086  12.654  13.893
49678W        W16219   2.116  16.581  11.099
49679W        W16220  32.362  22.231  10.693
49680W        W16221  29.499  34.237  14.855
49681W        W16222   6.291  28.253   2.661
49682W        W16223  28.763  15.453  14.981
49683W        W16224  35.480   6.725   0.998
49684W        W16225   6.822   1.904   2.963
49685W        W16226  34.392   8.729   2.747
49686W        W16227  10.611  30.156   1.182
49687W        W16228  18.589  44.374   2.861
49688W        W16229  17.476   9.803  13.639
49689W        W16230  17.752  30.584   2.583
49690W        W16231  31.761  30.446   4.896
49691W        W16232  13.852  39.424   0.254
49692W        W16233  12.828  38.441   3.717
49693W        W16234   7.341  39.618   2.683
49694W        W16235  31.413   6.155   4.555
49695W        W16236   8.156  27.413  14.813
49696W        W16237  19.232  29.093  14.166
49697W        W16238  14.789  10.283  11.232
49698W        W16239   3.771  27.968   2.295
49699W        W16240  22.551  42.052  13.831
49700W        W16241   6.448  36.560  11.655
49701W        W16242  25.966   4.565  12.173
49702W        W16243  34.925  29.097   1.275
49703W        W16244  15.476  26.599   2.232
49704W        W16245  23.578  21.260  14.917
49705W        W16246   1.680   0.486  13.823
49706W        W16247   5.217  15.549  13.036
49707W        W16248  24.565  43.339  14.577
49708W        W16249  13.643   8.316   4.621
49709W        W16250  24.719  20.485  12.998
49710W        W16251  31.541  30.516  11.377
49711W        W16252  11.757  41.505   0.847
49712W        W16253   0.637  36.481   0.198
49713W        W16254   4.246  17.208   2.206
49714W        W16255  40.177  24.699   1.750
49715W        W16256  25.219  24.654   2.249
49716W        W16257   4.835  28.857  11.538
49717W        W16258  39.050  26.927   3.163
49718W        W16259  29.704  16.164   1.507
49719W        W16260   5.766   0.990   0.336
49720W        W16261  10.459  44.799   2.814
49721W        W16262  37.531  20.273   1.752
49722W        W16263  20.644  26.277   0.846
49723W        W16264  24.056   7.675   0.404
49724W        W16265  38.169  44.788  12.935
49725W        W16266  25.202  43.329  10.626
49726W        W16267  33.099  14.539   4.265
49727W        W16268  14.727  14.270   4.784
49728W        W16269  28.582  15.132  13.023
49729W        W16270  31.028  31.884  10.226
49730W        W16271  14.687  14.855   1.803
49731W        W16272  23.517  44.795   4.783
49732W        W16273  23.579  25.126   3.305
49733W        W16274  18.231  35.085   2.213
49734W        W16275  23.898   7.954   3.640
49735W        W16276  33.502  32.785  13.411
49736W        W16277  33.558  31.024  13.523
49737W        W16278  24.549  21.288  14.897
49738W        W16279  20.588   2.513   2.169
49739W        W16280  26.774   9.925   2.691
49740W        W16281  44.829  11.253   0.886
49741W        W16282  42.789  18.974  12.568
49742W        W16283  28.363  44.533  11.926
49743W        W16284  33.015  11.490  11.147
49744W        W16285  17.896  14.678  13.292
49745W        W16286  23.173  17.490  11.087
49746W        W16287  23.731  28.507   0.372
49747W        W16288  10.183  20.172  11.959
49748W        W16289   5.861  42.392  12.984
49749W        W16290  43.281   8.928  12.918
49750W        W16291  17.380  33.901   1.865
49751W        W16292   0.213  40.395  11.782
49752W        W16293  14.062   9.965   1.841
49753W        W16294   3.387  41.054  14.788
49754W        W16295   2.985   7.401   0.852
49755W        W16296  43.901  31.950   2.358
49756W        W16297  39.726  34.426   2.445
49757W        W16298  20.615  12.741  11.129
49758W        W16299  34.967  16.160  10.747
49759W        W16300  31.054  38.512  13.709
49760W        W16301   3.193  22.929  11.948
49761W        W16302  35.744  31.522  11.943
49762W        W16303   4.967  15.079  14.918
49763W        W16304  37.524  43.286   4.072
49764W        W16305  21.125  21.175  12.400
49765W        W16306  44.502  40.656   1.184
49766W        W16307  39.461   6.359   1.185
49767W        W16308  17.948  29.007   0.291
49768W        W16309   2.750  24.999  11.516
49769W        W16310   1.030  39.018   1.105
49770W        W16311  25.602  41.778  11.161
49771W        W16312  34.027   5.118  13.538
49772W        W16313  37.870  31.698  14.923
49773W        W16314  16.736  43.976  10.757
49774W        W16315  20.529  32.518   1.564
49775W        W16316  23.649  40.779   4.156
49776W        W16317  29.081   6.521  10.657
49777W        W16318  26.391  26.303  13.178
49778W        W16319  24.633  11.900  13.328
49779W        W16320  33.633  24.564  10.630
49780W        W16321   6.434  12.835   1.875
49781W        W16322  18.440  35.479  11.867
49782W        W16323  37.040  16.101  14.845
49783W        W16324   7.690  16.423   2.040
49784W        W16325  19.762   8.647  10.820
49785W        W16326  36.088   0.961   0.564
49786W        W16327  34.882   9.728   4.121
49787W        W16328  15.783   8.829  14.431
49788W        W16329  22.032   1.618  13.807
49789W        W16330  13.279   3.589  14.955
49790W        W16331  36.898  27.680  13.005
49791W        W16332  12.920  23.080  13.110
49792W        W16333  39.897  33.795  13.784
49793W        W16334  20.651   8.471   1.738
49794W        W16335  12.108   0.707  13.634
49795W        W16336   9.228  34.804   1.006
49796W        W16337   7.711  14.213  14.575
49797W        W16338  12.874  18.031  13.361
49798W        W16339   4.746  37.675   4.167
49799W        W16340  19.991  22.908  12.494
49800W        W16341  43.965  19.479   2.476
49801W        W16342  36.475  22.933   3.637
49802W        W16343  19.242  20.774  13.721
49803W        W16344  19.740  12.640   4.291
49804W        W16345  37.553  22.040  12.916
49805W        W16346  40.427   7.838   0.310
49806W        W16347  42.776  11.273   3.234
49807W        W16348   9.629  36.329   4.562
49808W        W16349  39.853  39.875   1.634
49809W        W16350  12.783   4.663   4.172
49810W        W16351  34.911  10.749  10.579
49811W        W16352  10.600   5.757   1.240
49812W        W16353  30.153  37.885  12.661
49813W        W16354  23.398  25.666  11.740
49814W        W16355   6.139  34.007   4.122
49815W        W16356  16.218  39.395  11.846
49816W        W16357  11.194   9.325   0.740
49817W        W16358  35.419  15.925   0.964
49818W        W16359  38.141  42.236   3.746
49819W        W16360  19.057  27.692  13.933
49820W        W16361  17.574  10.292   3.159
49821W        W16362  10.816  42.576   0.666
49822W        W16363  32.906  28.512  13.860
49823W        W16364  42.435   8.284  14.025
49824W        W16365  26.972  37.076  11.530
49825W        W16366  41.491  14.743  11.448
49826W        W16367   9.743  35.520   1.995
49827W        W16368  38.847  27.095   0.766
49828W        W16369   9.837  29.523  11.690
49829W        W16370  24.228  15.936  12.548
49830W        W16371  35.394  41.917  14.909
49831W        W16372  31.910  36.742   4.905
49832W        W16373   1.852  22.013   0.383
49833W        W16374   5.179  28.393  12.630
49834W        W16375   8.467   6.436  11.143
49835W        W16376   0.520   7.687  11.864
49836W        W16377  32.656   9.326  10.864
49837W        W16378  37.248  44.312  13.119
49838W        W16379  14.706  34.103   2.787
49839W        W16380  38.920   8.172  11.573
49840W        W16381  28.550  25.515  10.598
49841W        W16382  20.338   7.023  13.043
49842W        W16383   7.131  36.072  11.260
49843W        W16384  38.079  30.329  10.350
49844W        W16385   7.592  30.021   0.248
49845W        W16386  44.545  13.321  12.351
49846W        W16387  21.007  34.624  14.980
49847W        W16388  24.897  19.180   0.815
49848W        W16389  23.210  31.418  12.104
49849W        W16390  29.554  32.929   0.426
49850W        W16391  21.501   3.806  11.063
49851W        W16392  27.209  44.936   3.270
49852W        W16393   7.417  26.595  12.962
49853W        W16394  28.624  42.522  14.920
49854W        W16395  22.644  21.646   3.105
49855W        W16396  26.449  40.953   1.772
49856W        W16397  33.924  20.452   2.275
49857W        W16398  22.016   0.786  11.109
49858W        W16399  19.581   4.346   1.990
49859W        W16400  42.747  14.020   2.282
49860W        W16401  15.235  44.455   3.745
49861W        W16402  35.469  25.948   1.223
49862W        W16403  16.548  17.933   1.308
49863W        W16404  28.634  11.223   3.671
49864W        W16405   3.298  44.010  14.478
49865W        W16406  43.659   1.903  12.744
49866W        W16407  42.551  23.172  10.802
49867W        W16408  44.369  42.970  14.198
49868W        W16409  37.418  36.360  10.557
49869W        W16410  18.588  21.963  14.474
49870W        W16411   3.823  33.667  11.601
49871W        W16412   6.660  28.748  11.284
49872W        W16413   1.189  18.999  13.269
49873W        W16414  23.601  33.698  12.474
49874W        W16415  13.797  35.891   1.455
49875W        W16416  38.533   8.701   2.778
49876W        W16417  31.096  44.205   4.189
49877W        W16418  38.495  16.573  11.364
49878W        W16419  19.685   6.648  12.421
49879W        W16420  41.359  16.606   4.769
49880W        W16421  23.457  43.967   0.906
49881W        W16422  16.082   1.479  14.360
49882W        W16423  42.283   8.010  12.439
49883W        W16424  35.917  26.732  13.547
49884W        W16425  32.734  33.115   3.209
49885W        W16426  14.371  37.752   4.421
49886W        W16427  30.583   7.457   2.741
49887W        W16428  11.668  34.645   4.303
49888W        W16429  23.426  44.125  14.872
49889W        W16430  37.914  16.066  13.876
49890W        W16431   7.856  28.719  12.850
49891W        W16432  25.926  10.261   4.167
49892W        W16433  18.797   3.458  14.391
49893W        W16434  32.640  20.208  11.187
49894W        W16435  23.110  15.560  14.405
49895W        W16436  12.139  21.519   4.239
49896W        W16437  34.205   9.351  12.998
49897W        W16438   9.060   7.787  14.382
49898W        W16439   7.342  26.858  12.047
49899W        W16440  40.998   7.999  12.356
49900W        W16441  33.520   3.677  13.408
49901W        W16442   6.973  31.083  14.403
49902W        W16443  22.006  27.885   4.147
49903W        W16444  25.527   3.528  13.850
49904W        W16445  43.543  34.511  14.319
49905W        W16446  16.799  25.592  14.586
49906W        W16447  30.635  34.632   3.750
49907W        W16448  36.704  13.598   1.736
49908W        W16449  26.560  33.596  12.943
49909W        W16450   6.940   8.074  14.883
49910W        W16451  20.145   7.736   4.115
49911W        W16452   1.588  25.192  11.183
49912W        W16453  26.193  23.151  12.535
49913W        W16454  10.217   5.040   2.316
49914W        W16455  14.350   9.869   4.124
49915W        W16456  13.845  15.993   3.145
49916W        W16457  18.448  31.513   3.449
49917W        W16458  11.613   2.715  10.423
49918W        W16459  43.624  27.503  12.518
49919W        W16460   3.473  43.562   1.813
49920W        W16461  37.348  11.309  11.028
49921W        W16462  18.987  17.169   4.674
49922W        W16463  29.036  32.616  11.377
49923W        W16464   0.420   8.631  12.464
49924W        W16465  33.901  20.860   3.077
49925W        W16466  12.951  38.921   2.403
49926W        W16467  17.301  15.842   2.421
49927W        W16468  24.130   6.821   3.312
49928W        W16469  27.674  24.234   3.955
49929W        W16470  38.819  37.142  14.593
49930W        W16471   3.823   3.353  14.730
49931W        W16472  32.525  39.226   3.806
49932W        W16473  41.827  31.175   3.223
49933W        W16474  10.953  39.976  12.735
49934W        W16475  20.572  35.378   4.675
49935W        W16476  25.857  23.779   1.802
49936W        W16477  36.877   2.005   0.249
49937W        W16478  32.107  26.538  12.887
49938W        W16479   2.164   1.897   0.933
49939W        W16480  11.099  38.832   3.411
49940W        W16481  22.413  15.034  12.094
49941W        W16482  29.009  23.360   3.194
49942W        W16483  14.196  11.190  13.604
49943W        W16484   8.794  15.370  14.484
49944W        W16485  28.506  39.351  12.314
49945W        W16486  44.819  29.649   2.656
49946W        W16487  24.605  20.040   1.063
49947W        W16488  43.834  36.819   1.323
49948W        W16489  13.878   6.352  11.921
49949W        W16490  44.581  16.661   4.462
49950W        W16491  33.942  25.577  10.939
49951W        W16492  24.049  18.190   3.174
49952W        W16493  30.861  23.981  12.944
49953W        W16494  42.881   1.472  13.250
49954W        W16495  13.552   3.915  13.382
49955W        W16496  20.680  12.282  13.930
49956W        W16497  44.448   4.596   2.378
49957W        W16498   6.414  10.953  14.878
49958W        W16499  42.960  32.607  10.552
49959W        W16500  18.971  42.510   4.885
49960W        W16501  12.129  41.974  12.661
49961W        W16502  12.125  29.032  14.955
49962W        W16503   5.840  27.537  11.608
49963W        W16504  12.787  18.827  11.199
49964W        W16505  42.050  16.741   1.258
49965W        W16506  29.384  38.880   2.145
49966W        W16507  34.927  19.656   2.180
49967W        W16508   7.660   6.283   4.977
49968W        W16509  20.983  11.868  11.184
49969W        W16510   6.498  44.520   3.220
49970W        W16511   4.398  31.389   0.491
49971W        W16512  25.539   2.989   3.271
49972W        W16513  37.386   5.217  13.227
49973W        W16514  41.586  42.497  10.819
49974W        W16515  35.694  26.674   2.825
49975W        W16516   1.399   8.363   4.526
49976W        W16517  29.134  43.125  13.826
49977W        W16518  33.388  40.516  11.900
49978W        W16519  35.427  13.530  12.101
49979W        W16520   6.463  16.808  12.480
49980W        W16521  39.911  21.126  10.830
49981W        W16522  30.551  34.393   2.448
49982W        W16523  10.240   3.973   0.734
49983W        W16524  13.129  15.500   0.035
49984W        W16525  20.614  35.538  13.686
49985W        W16526  18.270   0.036  13.528
49986W        W16527  19.167  30.004   1.858
49987W        W16528  10.338   3.932   4.548
49988W        W16529   4.038  15.808   5.017
49989W        W16530  21.285  23.813   0.266
49990W        W16531  34.856   7.283  11.431
49991W        W16532  28.697  39.630  10.345
49992W        W16533  39.564  42.277   2.780
49993W        W16534   8.447  12.332  12.049
49994W        W16535   3.341  17.560   3.857
49995W        W16536  18.017  21.216   3.148
49996W        W16537  13.890  38.713  14.724
49997W        W16538   8.837  40.369   5.558
49998W        W16539  44.199  23.638  10.270
49999W        W16540  43.457  25.325  11.939
50000W        W16541   2.070  43.208  14.531
50001W        W16542  34.074  26.498   1.623
50002W        W16543   9.586  33.527   4.153
50003W        W16544  32.199  28.085   0.300
50004W        W16545  38.386  31.992  14.808
50005W        W16546  23.278  43.552  12.999
50006W        W16547  22.059  38.183  13.800
50007W        W16548  44.502   1.411   2.462
50008W        W16549  34.649  17.227   1.025
50009W        W16550  26.525  29.676  14.124
50010W        W16551  22.572  16.721   0.764
50011W        W16552  29.994  34.969  11.574
50012W        W16553  40.773  36.325  12.513
50013W        W16554  25.601   4.038  13.894
50014W        W16555   3.731  44.240  11.693
50015W        W16556  18.335  33.863  11.225
50016W        W16557  44.399   1.050   2.821
50017W        W16558   1.470  34.114  14.677
50018W        W16559  19.310  20.732   2.110
50019W        W16560  10.204  44.768  10.166
50020W        W16561  27.947  11.347  14.707
50021W        W16562  17.253  36.095   3.221
50022W        W16563  16.690   9.405  10.746
50023W        W16564  25.773  43.422  13.346
50024W        W16565  35.465   8.350  11.160
50025W        W16566  33.589  14.778   2.170
50026W        W16567  42.374  21.466  13.408
50027W        W16568  27.467  42.717   0.346
50028W        W16569  40.383  17.076   2.753
50029W        W16570  31.902  43.959   0.886
50030W        W16571  23.697  36.751  11.129
50031W        W16572  33.142   7.821  10.664
50032W        W16573  16.141  13.873  10.395
50033W        W16574  32.930   6.177   3.230
50034W        W16575   2.003  30.131   4.007
50035W        W16576  38.283   9.686  10.936
50036W        W16577  31.696  34.295  14.354
50037W        W16578  34.998   2.975   3.311
50038W        W16579   0.226   6.183   0.482
50039W        W16580  15.067  17.532  10.953
50040W        W16581  38.961  42.888   3.225
50041W        W16582  44.655  36.467   4.713
50042W        W16583  13.146   9.556   0.779
50043W        W16584  31.022  43.284   3.999
50044W        W16585  30.065  38.967  13.420
50045W        W16586   4.342  40.122   1.633
50046W        W16587  41.317  40.938   4.950
50047W        W16588   9.242  26.911   0.005
50048W        W16589  11.902  24.994  13.585
50049W        W16590  30.192  39.492  12.454
50050W        W16591   4.914  35.555  13.857
50051W        W16592   7.136  30.850   4.507
50052W        W16593  25.089   3.405   2.574
50053W        W16594   3.992  18.194   4.698
50054W        W16595  42.907   5.922   4.581
50055W        W16596  38.957  32.185   0.704
50056W        W16597  39.135  37.701   0.824
50057W        W16598  31.858  17.331   2.929
50058W        W16599  43.235  10.688   1.371
50059W        W16600  41.332  34.165  13.521
50060W        W16601   2.885   1.238  14.056
50061W        W16602  12.873   0.314   2.649
50062W        W16603   2.088  43.370   1.935
50063W        W16604  39.527  14.808  14.282
50064W        W16605  25.372   9.562   3.119
50065W        W16606  20.189  29.851  12.812
50066W        W16607  27.016  31.493   1.497
50067W        W16608  17.712   2.813   1.016
50068W        W16609  36.506  40.279   4.576
50069W        W16610  19.336  14.679  11.590
50070W        W16611  11.854  34.098  10.645
50071W        W16612  10.705  37.711   3.078
50072W        W16613  29.143  38.977   0.981
50073W        W16614  32.590  40.840   1.469
50074W        W16615  38.239  11.423  13.334
50075W        W16616  35.374  14.062  14.152
50076W        W16617   2.806  36.970  14.938
50077W        W16618  34.637   3.111  12.136
50078W        W16619  28.445  10.817   4.712
50079W        W16620  34.484  38.309  10.737
50080W        W16621  28.566  14.580  12.005
50081W        W16622   9.709   7.688   2.211
50082W        W16623  30.267  20.595  13.375
50083W        W16624   0.765  28.013   0.108
50084W        W16625  18.537  28.159   1.216
50085W        W16626   2.262  35.847  10.721
50086W        W16627  34.847   6.407  13.391
50087W        W16628   9.586  40.439  13.015
50088W        W16629  13.685  29.749  10.298
50089W        W16630  32.081  12.262   2.928
50090W        W16631  44.287  30.873  12.002
50091W        W16632  10.679  44.952  13.504
50092W        W16633  35.156  21.689  10.919
50093W        W16634   5.359  41.598   0.169
50094W        W16635  44.350   6.186   3.329
50095W        W16636  19.218  21.302  12.788
50096W        W16637  18.011  27.549  14.775
50097W        W16638  38.798  21.828  12.405
50098W        W16639   1.516   9.837   4.744
50099W        W16640  19.356  16.706  11.202
50100W        W16641   8.340   1.291  12.897
50101W        W16642   5.182   2.132   2.303
50102W        W16643  43.372  21.172  10.673
50103W        W16644   6.382  19.813   2.196
50104W        W16645   3.439  44.812   3.592
50105W        W16646  22.787  30.774   4.170
50106W        W16647  40.100  42.586   3.905
50107W        W16648   5.890  19.724   2.193
50108W        W16649   9.367  10.714  10.993
50109W        W16650  39.962   9.094   2.221
50110W        W16651  15.058  33.377  12.906
50111W        W16652   1.313  13.737   3.859
50112W        W16653   6.238  10.337  12.945
50113W        W16654  27.438   2.671   3.569
50114W        W16655  22.307  38.011   0.718
50115W        W16656  32.036   7.063   0.207
50116W        W16657  37.700   0.021  12.981
50117W        W16658  18.245  20.556   0.375
50118W        W16659  15.362   6.945   4.442
50119W        W16660  44.683  20.551   4.128
50120W        W16661  19.614   4.242  14.830
50121W        W16662  32.443  18.687   1.734
50122W        W16663  28.475   2.152  13.742
50123W        W16664   5.154  15.300  11.666
50124W        W16665   5.333   5.500   1.747
50125W        W16666  13.197  42.720  14.090
50126W        W16667   5.817   6.796  11.585
50127W        W16668  35.945   7.674   3.353
50128W        W16669  22.521   4.369  14.358
50129W        W16670  11.760  31.488  10.214
50130W        W16671  25.510   6.298   9.837
50131W        W16672  30.207  40.419  14.363
50132W        W16673  14.541  13.622  11.030
50133W        W16674  30.016  29.012   0.112
50134W        W16675  15.209  21.136  10.403
50135W        W16676   7.820  23.594   5.017
50136W        W16677  28.665  28.080  10.697
50137W        W16678   6.032  31.931  10.663
50138W        W16679   4.192  16.212  11.160
50139W        W16680   8.640  11.428   0.151
50140W        W16681  17.089  17.584   0.217
50141W        W16682  10.080  38.295   4.071
50142W        W16683  36.545  11.778  11.374
50143W        W16684   5.776  31.235   3.701
50144W        W16685   9.807  37.547   4.121
50145W        W16686  19.169  22.478   1.427
50146W        W16687   2.735  18.146  13.884
50147W        W16688  14.471   7.228   2.991
50148W        W16689   4.840  29.729  11.320
50149W        W16690  35.600   3.062   1.255
50150W        W16691  37.184  25.063  12.556
50151W        W16692  24.636  28.159   3.781
50152W        W16693  25.280  35.408  11.411
50153W        W16694  28.644   1.888   0.353
50154W        W16695  13.189  32.796  13.610
50155W        W16696  24.557  26.131  10.747
50156W        W16697  35.596  36.660   2.281
50157W        W16698  41.405   6.842  14.894
50158W        W16699  26.330  12.752   1.119
50159W        W16700   7.293  11.010  14.836
50160W        W16701  43.997  19.944  10.633
50161W        W16702  43.968  19.013   2.211
50162W        W16703  18.070  42.262   3.687
50163W        W16704  37.582  19.026   2.564
50164W        W16705  35.478  16.802   0.232
50165W        W16706  16.001  33.965   0.312
50166W        W16707  39.350  29.676   4.411
50167W        W16708  16.283   9.820  13.594
50168W        W16709   7.629  36.659  13.305
50169W        W16710   9.793  10.134   1.279
50170W        W16711  17.148   7.166  11.281
50171W        W16712  25.387  32.611   4.144
50172W        W16713   3.261  34.400  12.987
50173W        W16714  17.655  28.377   1.417
50174W        W16715  38.814  26.176   2.670
50175W        W16716  42.256  30.838   0.353
50176W        W16717  41.320  42.634  13.763
50177W        W16718   0.285  12.821  14.217
50178W        W16719  17.886  33.084  10.771
50179W        W16720  16.508  19.719   3.669
50180W        W16721  33.594  20.173  13.978
50181W        W16722  44.847  17.112  13.425
50182W        W16723  30.682  30.133  12.030
50183W        W16724  37.710  43.067   3.481
50184W        W16725  30.468  10.647   2.604
50185W        W16726  41.394  39.480   2.404
50186W        W16727  12.314  43.999  11.619
50187W        W16728  25.081  38.059   0.240
50188W        W16729  10.595   9.953   4.262
50189W        W16730  44.390  17.811   1.937
50190W        W16731  39.606   2.963   3.309
50191W        W16732  14.686  25.527  13.485
50192W        W16733  37.364  39.278  11.176
50193W        W16734   1.320  21.714   3.827
50194W        W16735  11.795   7.179  10.254
50195W        W16736  16.986   2.941  12.914
50196W        W16737  31.840  36.464  12.453
50197W        W16738  37.415  26.690   2.424
50198W        W16739   8.624  19.661  14.372
50199W        W16740  29.888  19.255   3.745
50200W        W16741   3.253  15.089  13.874
50201W        W16742  38.890  36.373   2.198
50202W        W16743  12.316  18.496   1.894
50203W        W16744  34.534  23.980  14.887
50204W        W16745  22.325  36.338  12.182
50205W        W16746  37.853  24.046   4.619
50206W        W16747  17.369  41.438   0.954
50207W        W16748  14.391  24.066  12.398
50208W        W16749  29.439  19.179  10.818
50209W        W16750  40.014   6.800  12.120
50210W        W16751   0.806  29.680  11.994
50211W        W16752  20.664  24.801  14.398
50212W        W16753  35.447  40.017  12.081
50213W        W16754  36.120  24.916   3.628
50214W        W16755  33.082  27.238   4.140
50215W        W16756  39.993  36.819  11.959
50216W        W16757  41.048  16.518   2.695
50217W        W16758  16.815   3.022  13.398
50218W        W16759  33.385  26.599   2.804
50219W        W16760   2.424   2.874  13.000
50220W        W16761  34.204  10.922   4.261
50221W        W16762  30.816  29.665   2.162
50222W        W16763  22.464   6.508   3.620
50223W        W16764  33.871  34.204   1.755
50224W        W16765   4.028  23.284  12.311
50225W        W16766  38.004  31.659   3.873
50226W        W16767   1.639  21.897  13.873
50227W        W16768   2.228  34.927   4.544
50228W        W16769  43.071  27.662   0.199
50229W        W16770   4.231  13.739  10.930
50230W        W16771   1.385  41.259   1.313
50231W        W16772   6.440  16.232   4.772
50232W        W16773  15.112  26.040  11.878
50233W        W16774   4.351  39.626  12.079
50234W        W16775  26.766  44.026  10.756
50235W        W16776  42.595  18.312  14.022
50236W        W16777  22.560  10.556  10.763
50237W        W16778  14.071  40.258  11.591
50238W        W16779  15.338   1.123   1.718
50239W        W16780  42.906  35.781   1.437
50240W        W16781  41.796  36.405   1.832
50241W        W16782   9.735  28.230  13.709
50242W        W16783   4.309  40.457  13.304
50243W        W16784  44.768  27.758   3.874
50244W        W16785  16.265  16.953  12.464
50245W        W16786   0.061  27.603  11.566
50246W        W16787  21.941  27.202  12.455
50247W        W16788  24.991  24.780  13.035
50248W        W16789   4.346  24.126   2.867
50249W        W16790  43.282  12.328  11.133
50250W        W16791   4.166  33.676   3.855
50251W        W16792   0.687  24.192   0.416
50252W        W16793  33.753  10.126  14.732
50253W        W16794  11.231   6.659  12.417
50254W        W16795  19.296  19.109   4.279
50255W        W16796  15.288  24.685   4.380
50256W        W16797  40.121  30.068  12.382
50257W        W16798  28.451  36.489   1.591
50258W        W16799  24.715  44.244   0.066
50259W        W16800   4.775  41.341   3.149
50260W        W16801  17.622  21.708  13.286
50261W        W16802  18.020  18.246  12.486
50262W        W16803  23.700  15.672   3.502
50263W        W16804   3.899  44.318   4.194
50264W        W16805  20.206  44.344  11.503
50265W        W16806  13.886   1.239   2.302
50266W        W16807  34.507  42.286   1.444
50267W        W16808  26.568   3.010  11.525
50268W        W16809  17.267   7.214  12.114
50269W        W16810  12.010   4.850  13.950
50270W        W16811   0.750  22.280   1.935
50271W        W16812  38.945   0.427  10.654
50272W        W16813   5.394  30.310   2.702
50273W        W16814  13.152   0.756   4.474
50274W        W16815   4.258  20.325  13.019
50275W        W16816  15.070  35.608   3.808
50276W        W16817  26.350   4.712   2.298
50277W        W16818  11.352  11.412  11.384
50278W        W16819  13.629  14.686   2.653
50279W        W16820  14.239  43.990  14.115
50280W        W16821   9.629  17.774  10.624
50281W        W16822  39.878  36.008  10.956
50282W        W16823  24.780  32.272   3.652
50283W        W16824  35.538  22.265  12.942
50284W        W16825  15.245  41.809   2.885
50285W        W16826  24.123  32.071  13.284
50286W        W16827  18.770  26.510  11.669
50287W        W16828  17.502   0.393  11.440
50288W        W16829  39.769  24.037  13.366
50289W        W16830   4.689   8.440  11.866
50290W        W16831   8.203   8.560  13.059
50291W        W16832  28.203  28.128   0.436
50292W        W16833  23.727  16.531   3.495
50293W        W16834  35.110  21.047   3.994
50294W        W16835  24.163  37.293   0.669
50295W        W16836  30.372  25.890  14.362
50296W        W16837  40.565  37.964   0.928
50297W        W16838   1.456  33.313  14.604
50298W        W16839  33.273   4.183  11.244
50299W        W16840  39.517  36.869  14.546
50300W        W16841  37.084  18.318  14.890
50301W        W16842   4.563  40.955  13.479
50302W        W16843  34.100  10.309   3.167
50303W        W16844  13.628  32.850   4.576
50304W        W16845  36.554  18.451  14.797
50305W        W16846  28.521   0.953  13.023
50306W        W16847   3.981   1.796  12.621
50307W        W16848   9.628   3.366   1.488
50308W        W16849  20.963  40.522   1.913
50309W        W16850  17.631  38.552   4.564
50310W        W16851   9.387  44.068   3.520
50311W        W16852  31.952  32.547   0.339
50312W        W16853   8.135  27.677  12.149
50313W        W16854  36.308   9.348  12.651
50314W        W16855  43.451  23.333   1.236
50315W        W16856   3.914   4.890  14.780
50316W        W16857  37.216  15.271   0.459
50317W        W16858  10.281  22.482  11.657
50318W        W16859  19.775  41.752   1.419
50319W        W16860  39.378  31.374  12.432
50320W        W16861  40.997   4.078  12.000
50321W        W16862  44.915  17.167   1.863
50322W        W16863  33.166   7.466   4.777
50323W        W16864  16.798  43.771   3.933
50324W        W16865  20.644   6.865   2.746
50325W        W16866  26.097   8.946  14.927
50326W        W16867  31.454  29.961  12.614
50327W        W16868  21.594  12.964   4.549
50328W        W16869  40.899   3.018  14.585
50329W        W16870  32.523  17.211  12.825
50330W        W16871  21.194  24.095   4.515
50331W        W16872  16.819  10.677   0.298
50332W        W16873   7.883   0.921   3.246
50333W        W16874  22.659  39.344  10.775
50334W        W16875  22.033   6.285  12.591
50335W        W16876  24.562   4.671   3.658
50336W        W16877  41.263   2.817  14.243
50337W        W16878   3.362  17.016   1.251
50338W        W16879   9.180  43.768  10.812
50339W        W16880  17.066  24.639   4.422
50340W        W16881   5.760  20.176  10.687
50341W        W16882   2.839  35.853   0.213
50342W        W16883  32.317   8.672   2.769
50343W        W16884  11.321  25.136  11.589
50344W        W16885  13.812  43.022  14.342
50345W        W16886   6.710  16.504  13.354
50346W        W16887  20.807  19.510  12.876
50347W        W16888  12.107  41.300   4.243
50348W        W16889  16.147  20.245  14.967
50349W        W16890   0.269  28.096   1.415
50350W        W16891   8.285  38.929  13.359
50351W        W16892  10.442  40.160   3.611
50352W        W16893  33.358   5.196   3.215
50353W        W16894  41.404  23.120   4.303
50354W        W16895   6.809  12.235   3.163
50355W        W16896   8.407  28.897  12.542
50356W        W16897  11.259  31.117   0.570
50357W        W16898  27.037  38.854   3.326
50358W        W16899  25.508  27.218   3.391
50359W        W16900  17.275   6.282  13.533
50360W        W16901   9.719   3.906  14.865
50361W        W16902   7.878   0.844  14.149
50362W        W16903  31.269  13.663   3.694
50363W        W16904  39.458  44.721  11.533
50364W        W16905  10.119  25.173   2.777
50365W        W16906   0.310  35.503  13.357
50366W        W16907  15.563  34.780  12.365
50367W        W16908  12.670  32.421   2.225
50368W        W16909  18.258   3.723   2.268
50369W        W16910  25.760  43.296  11.000
50370W        W16911   9.485  37.525  12.661
50371W        W16912  12.095  37.915   0.445
50372W        W16913  26.759  18.857   4.672
50373W        W16914  11.336  19.500  12.996
50374W        W16915  38.492  36.786  14.373
50375W        W16916   1.779   2.915  11.157
50376W        W16917   7.931  20.029   3.471
50377W        W16918  35.149   0.233  11.434
50378W        W16919  29.364  36.598  11.604
50379W        W16920  35.616  17.664   1.298
50380W        W16921  22.964  37.340   4.848
50381W        W16922  33.412  28.283  11.461
50382W        W16923  44.002  31.744  11.983
50383W        W16924   3.152  25.869   2.377
50384W        W16925  17.013  39.880  10.743
50385W        W16926  36.099  28.472  10.743
50386W        W16927  43.935  15.309  10.219
50387W        W16928   0.828  17.797  14.397
50388W        W16929  38.881  22.145  12.796
50389W        W16930  22.005  16.245  10.925
50390W        W16931   3.959  44.001   5.115
50391W        W16932  34.850  24.993   4.209
50392W        W16933   9.285  21.315  13.561
50393W        W16934  40.320  38.527  14.815
50394W        W16935  11.861  40.805   4.105
50395W        W16936   7.303  22.299  13.784
50396W        W16937   2.825   1.207   4.757
50397W        W16938  31.984  32.806   3.666
50398W        W16939  19.952  22.033  12.956
50399W        W16940  17.214  31.542  14.491
50400W        W16941  22.142  32.689   1.876
50401W        W16942   3.375  31.352  12.674
50402W        W16943  30.230  11.233  14.783
50403W        W16944  35.895  31.103   1.620
50404W        W16945  23.806  43.425  11.587
50405W        W16946  40.805  22.937  12.355
50406W        W16947  19.079   9.839  12.833
50407W        W16948   8.276  18.857  11.600
50408W        W16949  39.586  13.342  13.502
50409W        W16950  29.957   0.739   0.370
50410W        W16951  31.399  33.199  11.628
50411W        W16952  18.542  17.783  14.720
50412W        W16953  36.462  22.717  11.195
50413W        W16954  29.814  38.909   4.697
50414W        W16955  25.450  20.424  14.386
50415W        W16956  13.382  34.618   3.358
50416W        W16957  30.662  35.642  14.274
50417W        W16958   4.970  31.379  12.201
50418W        W16959   7.856  40.157  11.411
50419W        W16960  41.717  39.899  10.926
50420W        W16961  30.569  36.591   1.591
50421W        W16962   6.078   7.273  12.150
50422W        W16963  16.782  18.891   1.252
50423W        W16964  29.908   2.418   0.692
50424W        W16965  29.164  40.120   3.223
50425W        W16966  12.642   9.714  14.282
50426W        W16967  39.436  28.250  11.434
50427W        W16968  32.984   5.308  12.799
50428W        W16969  25.036  21.131  11.725
50429W        W16970  16.716   5.945  10.437
50430W        W16971  19.476  44.338  11.066
50431W        W16972  16.933  34.418  12.428
50432W        W16973  36.013  37.298   0.079
50433W        W16974  19.595  22.687   1.241
50434W        W16975   9.918   0.747  13.879
50435W        W16976  18.753  39.770   3.342
50436W        W16977   2.177  33.973   3.596
50437W        W16978  36.598  10.302  13.075
50438W        W16979  12.891   0.438  12.223
50439W        W16980  19.988  28.728  14.582
50440W        W16981  35.839  44.457  10.644
50441W        W16982  26.891  37.998   3.557
50442W        W16983  37.916  41.601  11.107
50443W        W16984  17.209   4.285   1.303
50444W        W16985   9.659  20.966  10.935
50445W        W16986  26.682  35.062   4.631
50446W        W16987  19.590   4.184   1.484
50447W        W16988  11.866  30.071   3.165
50448W        W16989  37.464  41.834  14.834
50449W        W16990  27.247  30.179   4.495
50450W        W16991  13.049   7.688  11.473
50451W        W16992  19.254  25.214   3.059
50452W        W16993  43.339   5.195  10.533
50453W        W16994  26.082  36.147   3.928
50454W        W16995  18.066  16.252   0.928
50455W        W16996  20.147   9.186  13.399
50456W        W16997  13.973  40.307   3.094
50457W        W16998  25.765  25.142  12.948
50458W        W16999  39.934  39.069   2.096
50459W        W17000  18.272   0.216   0.365
50460W        W17001   9.282  25.123   4.729
50461W        W17002  26.681  30.902   3.767
50462W        W17003  10.200  15.253   2.280
50463W        W17004  17.121  35.418  13.589
50464W        W17005  19.670  43.199  14.485
50465W        W17006  33.088  35.002   0.955
50466W        W17007  25.216  31.510   0.497
50467W        W17008  34.957   4.425   3.899
50468W        W17009  11.361  41.791   0.543
50469W        W17010  31.913  26.105  12.051
50470W        W17011   4.691  13.129  13.360
50471W        W17012   3.401  35.389   0.946
50472W        W17013   0.974  31.129  14.346
50473W        W17014  24.245   4.153   1.304
50474W        W17015  13.216  22.991  13.550
50475W        W17016  24.432   8.966   0.146
50476W        W17017  40.586   3.663  14.807
50477W        W17018  22.896  24.538  14.686
50478W        W17019   5.213  33.588  10.213
50479W        W17020  41.636   6.798   2.720
50480W        W17021  43.119  14.159   0.943
50481W        W17022  32.093  29.570  12.894
50482W        W17023  33.196  27.734  13.571
50483W        W17024  24.021  44.838   4.664
50484W        W17025  25.656  11.422  12.397
50485W        W17026   4.043   3.023  10.839
50486W        W17027   3.621  43.334   2.364
50487W        W17028  26.328   5.528  10.265
50488W        W17029  36.655  11.023   4.103
50489W        W17030  17.754  20.948  10.541
50490W        W17031  16.777   0.213   3.435
50491W        W17032   6.571  27.350   1.384
50492W        W17033   3.343  35.621   1.982
50493W        W17034  39.052  36.401  14.799
50494W        W17035  41.820  44.750  13.970
50495W        W17036  34.354  44.389   2.399
50496W        W17037  22.964  19.659  10.702
50497W        W17038  38.388  39.569  10.412
50498W        W17039  37.385  13.424  12.811
50499W        W17040  36.835   6.984  13.522
50500W        W17041  21.135  10.009   3.686
50501W        W17042  19.144  37.867   4.901
50502W        W17043  29.833  26.038   1.311
50503W        W17044   1.264  42.009  12.434
50504W        W17045  13.328  13.796   0.564
50505W        W17046  39.099  22.680   1.653
50506W        W17047  12.813  17.879  13.982
50507W        W17048  32.571  23.960  11.163
50508W        W17049  40.814  28.175   4.202
50509W        W17050   1.385   9.919   2.436
50510W        W17051  33.582   4.487  10.929
50511W        W17052  27.544  23.235  14.471
50512W        W17053   2.785  39.898  12.080
50513W        W17054  26.116   3.042   3.957
50514W        W17055   2.791  13.198  11.071
50515W        W17056  26.771   8.294  10.994
50516W        W17057  15.545  16.943  11.351
50517W        W17058   9.585  28.375  11.151
50518W        W17059  35.613  32.002  13.578
50519W        W17060  34.969   5.790  12.570
50520W        W17061   3.930   4.819   4.570
50521W        W17062   9.873   2.776   4.028
50522W        W17063  14.078  32.601  10.964
50523W        W17064  11.191  35.865  14.016
50524W        W17065   0.012   0.633  14.993
50525W        W17066  15.691  40.157  10.471
50526W        W17067  32.067   4.424  10.701
50527W        W17068   2.211  22.079  14.759
50528W        W17069  21.671  29.968  10.638
50529W        W17070  41.480  30.955   2.890
50530W        W17071   7.082  41.922  14.010
50531W        W17072  39.968   4.553  12.883
50532W        W17073  27.863  15.977   1.888
50533W        W17074  24.954   0.953   4.107
50534W        W17075  37.966   3.755  13.348
50535W        W17076   9.279  27.348   1.610
50536W        W17077  13.096  26.638  10.771
50537W        W17078   6.694  16.462   0.723
50538W        W17079  34.421   5.924   0.891
50539W        W17080   3.344  35.337  12.621
50540W        W17081   1.474  33.908  10.968
50541W        W17082  19.045   2.293  13.807
50542W        W17083  15.435  18.233   4.524
50543W        W17084  21.958  36.128   0.600
50544W        W17085   4.576   4.389  11.084
50545W        W17086  19.526  31.063   1.369
50546W        W17087  19.350  27.574   2.894
50547W        W17088  40.932  29.658   1.805
50548W        W17089   9.948  37.302  12.582
50549W        W17090   6.423   7.243   1.660
50550W        W17091  44.837  37.873  13.544
50551W        W17092  34.841  25.377   3.820
50552W        W17093  21.158  38.647  12.531
50553W        W17094  12.678  26.555  13.957
50554W        W17095  27.508  20.604   4.860
50555W        W17096   4.318   7.637  14.465
50556W        W17097  44.234  19.132   4.074
50557W        W17098   9.327  26.513  13.043
50558W        W17099  36.372  22.166  10.717
50559W        W17100  17.612  14.680   2.353
50560W        W17101  31.194  11.150  14.800
50561W        W17102  35.351  29.378  13.165
50562W        W17103  42.639   0.986   3.753
50563W        W17104  42.986  14.246   9.909
50564W        W17105  44.881  38.344  11.328
50565W        W17106  42.285  36.484   0.764
50566W        W17107   5.543  35.634   2.131
50567W        W17108  38.291  28.483   1.682
50568W        W17109   6.119  43.920  13.749
50569W        W17110  37.531  17.216  13.522
50570W        W17111  29.276  39.439   0.344
50571W        W17112  29.968  36.898  12.550
50572W        W17113   8.003   4.756  10.471
50573W        W17114  30.198  15.277   1.221
50574W        W17115  18.691  42.979   1.498
50575W        W17116  33.198  21.592  11.206
50576W        W17117  21.625  38.006   2.602
50577W        W17118   2.762  39.364   1.866
50578W        W17119  41.952  40.260  13.054
50579W        W17120  32.260   3.337   4.134
50580W        W17121  39.352  19.037   3.193
50581W        W17122  40.500  15.239  11.612
50582W        W17123  44.672  35.863   4.172
50583W        W17124  28.240  15.696  13.527
50584W        W17125   7.294   0.422   4.254
50585W        W17126  33.540  36.199   1.193
50586W        W17127  32.121   6.035  13.471
50587W        W17128  22.573  28.696  13.768
50588W        W17129  26.441  11.103   0.743
50589W        W17130  10.627  29.620   1.860
50590W        W17131   2.290  30.060  12.337
50591W        W17132  25.041  13.393  14.650
50592W        W17133  40.376  13.384  12.219
50593W        W17134  41.133  16.805  12.319
50594W        W17135   8.167  18.336  13.485
50595W        W17136  44.951  36.432   1.429
50596W        W17137  43.074  17.662  12.287
50597W        W17138  15.169  40.133   1.253
50598W        W17139  41.923  44.908  14.449
50599W        W17140   2.751  10.194  12.621
50600W        W17141  41.469  28.177  14.036
50601W        W17142  20.382  40.712   5.250
50602W        W17143  41.614  30.499   0.719
50603W        W17144   6.953   1.187  14.836
50604W        W17145   4.764  31.709  12.649
50605W        W17146  33.797  18.738   1.880
50606W        W17147  36.936  42.109  11.920
50607W        W17148   6.895   7.079   0.327
50608W        W17149  28.105  35.325  11.697
50609W        W17150  27.464  40.728   1.405
50610W        W17151  39.319  19.473  11.933
50611W        W17152  33.676  24.503  14.971
50612W        W17153  41.797  32.515   3.651
50613W        W17154  16.325  36.210   3.353
50614W        W17155  18.283   3.628   4.101
50615W        W17156  34.363  10.144  13.315
50616W        W17157  39.467  21.138   3.197
50617W        W17158  19.337  13.552  11.524
50618W        W17159   0.891  13.814  13.942
50619W        W17160  18.713  26.699  11.194
50620W        W17161   6.381  25.999   0.089
50621W        W17162  16.557  15.130  12.466
50622W        W17163  25.577  28.455   4.635
50623W        W17164   6.707   9.232   0.845
50624W        W17165  13.098  40.751  12.571
50625W        W17166  44.563  34.397  14.412
50626W        W17167  22.772  39.554  11.654
50627W        W17168  33.147  13.541   4.041
50628W        W17169  24.662  20.374  13.834
50629W        W17170  44.321  18.549   0.754
50630W        W17171  27.708  17.073  12.855
50631W        W17172  34.956  37.154  13.308
50632W        W17173  44.615  34.060  11.016
50633W        W17174  19.043  10.441   4.608
50634W        W17175  23.690  32.866  11.194
50635W        W17176  14.446  27.170   0.023
50636W        W17177  13.942   9.185   0.330
50637W        W17178  21.221  43.689   4.969
50638W        W17179  28.918  23.821  10.692
50639W        W17180  11.877  28.617   3.978
50640W        W17181  18.148   6.692   0.946
50641W        W17182  36.186  22.059   3.699
50642W        W17183   8.710  35.973   2.345
50643W        W17184  41.311  40.979   1.325
50644W        W17185  21.917  17.090  10.911
50645W        W17186   2.485  11.133  10.709
50646W        W17187  12.881  28.346   3.934
50647W        W17188  40.044  30.974  12.957
50648W        W17189   0.301  39.442   0.009
50649W        W17190  18.087  39.081   0.310
50650W        W17191  32.200  36.873  12.459
50651W        W17192  10.594  21.014  13.886
50652W        W17193   6.680  35.687  14.808
50653W        W17194  14.322   8.845   0.283
50654W        W17195  11.243  41.525  11.613
50655W        W17196  37.353  13.887   4.547
50656W        W17197   9.847  37.664   0.272
50657W        W17198  19.655  40.381  14.525
50658W        W17199  34.126   8.111  13.440
50659W        W17200  40.098  40.953  11.254
50660W        W17201  19.246   9.607  13.250
50661W        W17202  44.753  25.056  13.885
50662W        W17203  21.258  24.023   2.290
50663W        W17204  42.812  28.054  12.528
50664W        W17205  19.703   8.916  11.755
50665W        W17206  13.532   8.745   2.943
50666W        W17207  35.785  12.281  11.102
50667W        W17208  32.688  40.114   1.478
50668W        W17209  22.277  21.491   3.910
50669W        W17210  43.303  13.188   2.290
50670W        W17211  19.191   7.668   3.623
50671W        W17212  14.283  41.971  10.742
50672W        W17213  42.944  25.997  12.367
50673W        W17214  31.539  36.427   3.841
50674W        W17215  16.190  32.165   2.830
50675W        W17216  42.291   3.812  13.350
50676W        W17217   3.759  42.347  11.979
50677W        W17218   5.749  37.894  14.961
50678W        W17219   5.130  23.151   3.210
50679W        W17220  42.110  40.014   0.135
50680W        W17221  34.953  15.685  13.904
50681W        W17222  22.309  17.676  11.564
50682W        W17223  33.011  41.472   0.807
50683W        W17224  35.227  27.887   1.830
50684W        W17225  37.354  30.043   1.853
50685W        W17226   4.395  32.491  13.975
50686W        W17227  16.625  34.546   3.425
50687W        W17228  17.144  40.575   0.742
50688W        W17229  37.544  24.736  11.679
50689W        W17230   6.040  40.107   5.006
50690W        W17231  44.055  42.689   3.669
50691W        W17232  21.654   6.359   2.696
50692W        W17233  37.666  29.140  14.030
50693W        W17234   9.735  44.276   4.743
50694W        W17235  22.764   0.741   3.694
50695W        W17236  18.429  23.684  12.033
50696W        W17237  23.550  21.601   3.621
50697W        W17238  36.386  12.606  14.992
50698W        W17239  42.863  14.140   3.201
50699W        W17240   1.780  24.435   3.796
50700W        W17241  34.336  27.114  14.081
50701W        W17242  22.141  26.950  12.050
50702W        W17243  27.059  17.955  10.789
50703W        W17244   7.634  25.560  12.017
50704W        W17245  44.956  13.551   0.332
50705W        W17246  34.024  11.731  12.863
50706W        W17247  10.376  21.997  14.299
50707W        W17248   1.403  36.711   0.699
50708W        W17249   5.742  14.549   0.124
50709W        W17250  31.498  15.798   3.295
50710W        W17251  27.981  37.422   2.604
50711W        W17252  35.148  39.086  11.938
50712W        W17253  14.854  35.751  12.018
50713W        W17254  36.074   3.188   1.452
50714W        W17255  15.324   4.392  11.568
50715W        W17256  28.104   7.727  13.416
50716W        W17257   5.230  30.030  14.706
50717W        W17258  19.549  26.634  14.895
50718W        W17259   6.252   4.879  11.470
50719W        W17260  39.572   3.218  11.535
50720W        W17261  26.411  31.079   2.814
50721W        W17262   4.261  11.210   4.171
50722W        W17263  41.798  40.988  13.751
50723W        W17264  33.811  30.025  11.152
50724W        W17265  12.625  12.162   3.110
50725W        W17266  30.021  44.040  13.868
50726W        W17267  40.283   9.674   1.729
50727W        W17268  10.224  44.249  13.431
50728W        W17269  23.182  44.857  13.379
50729W        W17270  13.646  34.736   1.633
50730W        W17271   2.462  30.108  14.963
50731W        W17272  13.383  34.873  14.493
50732W        W17273  15.104   1.512  10.466
50733W        W17274  44.367  28.860   0.743
50734W        W17275  31.111  37.791  13.504
50735W        W17276  33.080  27.270  12.168
50736W        W17277  39.073  34.122  12.036
50737W        W17278  10.547   4.139   0.352
50738W        W17279  34.872  37.378   0.449
50739W        W17280   7.745  13.256  10.711
50740W        W17281   9.457  10.782  12.531
50741W        W17282  12.094  25.234   0.847
50742W        W17283  17.776  33.565   4.207
50743W        W17284  20.085  18.992   2.955
50744W        W17285   9.906   4.716   0.928
50745W        W17286  27.998  42.549  11.090
50746W        W17287  32.686  24.290  13.368
50747W        W17288   0.773  20.178  12.621
50748W        W17289  15.654  17.069   2.739
50749W        W17290  32.391  38.105  13.934
50750W        W17291  22.794  10.784   0.193
50751W        W17292  42.556  38.147  11.907
50752W        W17293   4.712  42.801  14.565
50753W        W17294  34.862  12.839  12.949
50754W        W17295  19.594   3.931   4.532
50755W        W17296   5.674  21.125   1.935
50756W        W17297  29.126  36.312  14.706
50757W        W17298   4.014  15.194  14.871
50758W        W17299  24.223  22.522  13.794
50759W        W17300  11.989  22.368   4.120
50760W        W17301  23.141  22.038   4.844
50761W        W17302  29.143   9.563   0.253
50762W        W17303  42.395  13.595   2.334
50763W        W17304   8.100   2.320  11.476
50764W        W17305  16.299  31.885  13.906
50765W        W17306  28.928   5.664  11.589
50766W        W17307  24.419  38.079   3.745
50767W        W17308  38.106  27.282   4.096
50768W        W17309  11.244  23.536   4.557
50769W        W17310  32.247   4.355   3.551
50770W        W17311  41.513   9.894   4.572
50771W        W17312  41.349  34.812  12.458
50772W        W17313   7.445  41.449   4.303
50773W        W17314  28.176  34.579   0.402
50774W        W17315  20.689  29.191  13.379
50775W        W17316   0.352   9.905   4.089
50776W        W17317   5.714   5.485  13.906
50777W        W17318  35.985  31.404  12.901
50778W        W17319  43.236  23.566   3.313
50779W        W17320  20.018  13.740   0.765
50780W        W17321  18.330   2.329  12.067
50781W        W17322   4.738   0.830   2.186
50782W        W17323  39.901  10.673   1.312
50783W        W17324  22.788  13.747   5.199
50784W        W17325  19.003  36.175   0.793
50785W        W17326  43.444   2.943  13.551
50786W        W17327   1.661  16.025   3.581
50787W        W17328   2.471   7.189   5.093
50788W        W17329  28.725  26.496  11.398
50789W        W17330  18.531   3.261  11.649
50790W        W17331  27.129  19.742  11.458
50791W        W17332  12.593  21.736  13.514
50792W        W17333  20.410  17.442   4.561
50793W        W17334  44.769  19.527  13.850
50794W        W17335   0.927  23.241   2.729
50795W        W17336  24.479  31.432  14.852
50796W        W17337  42.795  33.953   1.378
50797W        W17338  30.915  18.276  12.992
50798W        W17339   4.174  41.196   4.202
50799W        W17340  32.939  35.885   3.223
50800W        W17341   0.513   1.060   3.130
50801W        W17342  33.029   0.794  14.344
50802W        W17343  35.645  33.327   4.226
50803W        W17344  28.952  20.825  11.041
50804W        W17345   4.834  22.253   0.872
50805W        W17346   7.132  30.844  13.943
50806W        W17347   8.873  25.052   0.743
50807W        W17348  20.266  14.558   0.523
50808W        W17349  24.774  28.069   4.727
50809W        W17350  42.908  22.081  13.053
50810W        W17351  30.516  30.390   3.321
50811W        W17352   3.731  14.853   4.612
50812W        W17353  31.029  42.433  13.404
50813W        W17354  29.847  36.731  10.851
50814W        W17355  43.460  29.274  14.977
50815W        W17356  31.461  22.486  11.187
50816W        W17357  17.546  22.085   1.942
50817W        W17358  16.275   1.367   4.106
50818W        W17359  42.062  17.056   3.699
50819W        W17360  11.178  30.924  10.727
50820W        W17361  18.048   1.334  12.967
50821W        W17362  38.999  44.235  12.133
50822W        W17363   7.245  22.168  11.486
50823W        W17364  13.695  23.431   4.597
50824W        W17365  20.201  34.240   3.795
50825W        W17366  17.190  26.524  12.391
50826W        W17367  24.408   8.769   1.341
50827W        W17368  38.214   0.746  10.709
50828W        W17369  40.025   5.290  12.107
50829W        W17370   0.282  31.464  13.010
50830W        W17371   3.006  43.694   4.862
50831W        W17372  35.107  16.387   2.164
50832W        W17373  16.321  30.847   0.608
50833W        W17374  15.414  19.294   2.289
50834W        W17375  40.102  38.413   1.711
50835W        W17376  40.430   8.337   2.795
50836W        W17377  39.939   4.904  14.961
50837W        W17378  34.759  26.004  13.293
50838W        W17379  26.163   0.798   0.853
50839W        W17380   0.678   4.434   0.747
50840W        W17381  27.922  37.574  12.495
50841W        W17382  44.373  27.489  14.779
50842W        W17383  14.849  31.181   2.709
50843W        W17384  42.282   5.879  11.794
50844W        W17385  16.183  27.125   1.177
50845W        W17386  19.532  27.235  12.533
50846W        W17387   5.215  31.384   0.369
50847W        W17388  42.926  43.283   2.172
50848W        W17389  32.188  26.602   1.291
50849W        W17390   7.271  15.651   1.834
50850W        W17391  33.130  34.026   4.617
50851W        W17392  43.355   3.028  13.053
50852W        W17393   4.988  29.617  10.848
50853W        W17394  16.653   1.670   3.221
50854W        W17395  23.673  14.651   3.186
50855W        W17396  33.264  18.071   3.011
50856W        W17397  32.479  40.934  14.055
50857W        W17398  23.209  23.251  12.650
50858W        W17399  29.924  43.311  12.636
50859W        W17400  24.472  17.383  13.935
50860W        W17401  21.676   3.976   1.491
50861W        W17402  10.785  29.684   1.343
50862W        W17403  36.524  41.395   2.760
50863W        W17404   1.755  44.816   2.158
50864W        W17405   5.839  42.422   2.290
50865W        W17406   7.982  15.273   4.541
50866W        W17407  16.734  29.738  10.766
50867W        W17408  10.842   0.932   0.082
50868W        W17409   3.926  29.670  12.687
50869W        W17410  37.567  13.198   0.648
50870W        W17411  14.851  31.697  11.986
50871W        W17412   9.759  22.550   3.645
50872W        W17413  17.468  10.238   2.138
50873W        W17414  24.192  43.417   3.381
50874W        W17415  42.181   3.465   2.747
50875W        W17416  44.084  11.251   2.772
50876W        W17417   7.384  29.909   1.202
50877W        W17418  16.050  37.956  10.678
50878W        W17419  31.870  35.910   2.831
50879W        W17420  21.131  19.194  12.181
50880W        W17421  27.049  18.267   2.897
50881W        W17422  35.588  25.081  13.741
50882W        W17423   3.793  40.743  14.684
50883W        W17424  15.642  29.633   1.240
50884W        W17425  17.777  30.974  14.036
50885W        W17426  19.811  41.321  11.570
50886W        W17427  43.063  30.408   0.058
50887W        W17428  10.136   2.469   3.628
50888W        W17429  39.751  42.467   2.333
50889W        W17430   1.400  10.840  12.191
50890W        W17431  20.963  35.826  13.905
50891W        W17432  11.689  38.118  13.036
50892W        W17433  39.333  37.047  12.317
50893W        W17434   9.785  42.075   2.818
50894W        W17435  31.196   0.342   4.599
50895W        W17436  41.145  20.974   1.175
50896W        W17437  36.412  40.365  13.482
50897W        W17438  44.288  16.591  10.553
50898W        W17439  28.205  35.809   0.744
50899W        W17440  25.962  30.098  11.944
50900W        W17441  20.316  40.059  12.014
50901W        W17442   9.788  19.081  13.157
50902W        W17443  20.990  28.131  12.176
50903W        W17444  22.057   4.162   1.886
50904W        W17445  22.607  13.320  14.511
50905W        W17446  39.755  16.222  11.542
50906W        W17447  16.345  23.998   0.834
50907W        W17448   9.929  31.703  14.857
50908W        W17449  26.711  11.540  10.803
50909W        W17450  14.838  29.165  11.979
50910W        W17451  10.137  28.045   0.353
50911W        W17452   9.196  38.076   1.717
50912W        W17453   3.697   5.004   1.237
50913W        W17454  35.129  28.790   4.851
50914W        W17455  36.107  40.981   4.723
50915W        W17456  17.806  22.822  11.175
50916W        W17457  29.318  26.596  12.204
50917W        W17458  40.752  39.035  14.377
50918W        W17459  20.186  41.272  14.402
50919W        W17460  15.652  20.047  14.885
50920W        W17461  33.369  27.438  14.871
50921W        W17462  44.018  32.643  11.947
50922W        W17463  35.424  44.911  13.485
50923W        W17464  41.430  40.855  11.820
50924W        W17465  39.749  36.063   3.293
50925W        W17466  28.962  41.638   0.366
50926W        W17467  18.266  35.308   0.938
50927W        W17468   8.375   8.369   2.718
50928W        W17469  24.039   1.287  11.401
50929W        W17470  34.489  21.039   1.635
50930W        W17471  21.108  36.536   3.513
50931W        W17472  24.371  24.462   1.843
50932W        W17473  10.901   8.600  13.039
50933W        W17474   0.453  26.878   3.202
50934W        W17475  32.662  33.668  13.441
50935W        W17476  18.377   5.228   4.136
50936W        W17477   8.469  33.074   3.936
50937W        W17478  11.298  43.303   0.672
50938W        W17479  18.252  27.022  11.157
50939W        W17480   4.849  33.068   2.884
50940W        W17481   7.726   1.533   4.191
50941W        W17482  22.999  35.325   0.923
50942W        W17483  32.072  44.574   0.154
50943W        W17484  16.303   7.332   1.812
50944W        W17485  34.083  11.738   4.112
50945W        W17486  24.864  26.888  12.760
50946W        W17487   0.806  18.374  12.550
50947W        W17488  39.088   2.871  12.623
50948W        W17489  41.745   7.396   1.276
50949W        W17490  36.586  10.949   0.388
50950W        W17491  36.389  43.205  14.742
50951W        W17492   7.520  19.747   3.614
50952W        W17493  42.562  36.404   3.160
50953W        W17494   5.330  36.930   4.284
50954W        W17495   1.000  22.141  10.747
50955W        W17496  31.790  25.741  11.088
50956W        W17497  35.856  36.321  12.978
50957W        W17498   9.267  18.304   2.255
50958W        W17499  28.175  24.199   0.787
50959W        W17500  32.428  16.636   2.387
50960W        W17501  22.504  17.747   1.044
50961W        W17502  20.214  23.201  13.836
50962W        W17503  11.040   3.194  12.706
50963W        W17504  40.717  27.982  14.751
50964W        W17505  17.759  34.299  14.708
50965W        W17506   5.357  41.462   2.455
50966W        W17507  18.109  44.107  10.596
50967W        W17508  33.156  21.099   4.735
50968W        W17509  10.241   4.383   4.922
50969W        W17510  16.041   5.495   1.920
50970W        W17511  35.871  11.314   4.443
50971W        W17512   4.407  26.398   0.345
50972W        W17513  31.686  17.613  11.616
50973W        W17514  20.735   2.891   3.932
50974W        W17515   5.425  38.939  11.577
50975W        W17516  27.392  44.624  11.118
50976W        W17517  11.992  29.609  11.042
50977W        W17518   8.658  29.739   1.976
50978W        W17519   2.182  34.246  14.207
50979W        W17520  32.661  32.732  12.024
50980W        W17521  12.635  44.618   1.458
50981W        W17522  21.695  25.784   0.818
50982W        W17523  41.060   2.003   3.617
50983W        W17524  44.362  40.556  13.374
50984W        W17525  30.915   5.226  14.746
50985W        W17526  18.410  33.603   3.153
50986W        W17527  10.722  35.921   0.444
50987W        W17528  30.363  10.850   2.154
50988W        W17529  10.832  39.617   0.304
50989W        W17530  31.572  39.135  13.452
50990W        W17531  44.445  12.943   1.407
50991W        W17532  20.108   9.102   3.913
50992W        W17533  31.723  36.332  14.321
50993W        W17534  37.038   8.776  12.033
50994W        W17535  43.214   1.374  10.800
50995W        W17536  43.209  34.520  13.928
50996W        W17537  30.454  40.449   0.354
50997W        W17538  19.619  44.787   1.821
50998W        W17539  35.197  13.496   3.992
50999W        W17540  39.678  37.641  12.441
51000W        W17541  39.277  35.180   2.664
51001W        W17542   1.209  42.017   3.263
51002W        W17543   3.565   5.060   2.122
51003W        W17544   2.775  12.547  11.753
51004W        W17545  27.720  33.194  10.983
51005W        W17546  14.816   0.426   1.006
51006W        W17547  29.167   6.245  12.524
51007W        W17548  22.714  21.215   0.001
51008W        W17549   0.849  43.076   2.404
51009W        W17550  19.680  25.389   3.304
51010W        W17551   7.141  15.907  13.131
51011W        W17552  30.731  36.233  13.545
51012W        W17553  35.393  13.154  13.907
51013W        W17554   0.640   4.366  13.349
51014W        W17555  18.149   9.242  14.497
51015W        W17556  37.980  15.625   2.088
51016W        W17557  38.661  22.694   2.841
51017W        W17558  15.873  34.113   9.777
51018W        W17559  40.055   2.179   3.610
51019W        W17560  29.513  16.052   3.765
51020W        W17561  42.323  30.501  11.521
51021W        W17562  26.502  38.694   3.285
51022W        W17563  27.194   0.430   0.043
51023W        W17564  31.962  17.816   0.842
51024W        W17565  21.066  19.323   4.098
51025W        W17566  16.221  26.114   4.489
51026W        W17567  34.561   2.324   2.394
51027W        W17568  19.217   2.998   3.714
51028W        W17569  38.699   3.226  12.391
51029W        W17570  11.145  11.182   2.881
51030W        W17571   0.125  19.419  11.083
51031W        W17572  21.597  13.745  11.862
51032W        W17573  22.973  20.538  14.468
51033W        W17574   6.782   6.981  11.565
51034W        W17575   5.864  43.527   4.624
51035W        W17576  31.459  19.318   2.155
51036W        W17577  11.900   0.357  12.396
51037W        W17578  25.259  39.385   1.796
51038W        W17579   9.718  35.300   3.679
51039W        W17580  30.116  18.408   3.636
51040W        W17581   1.009  37.609   3.727
51041W        W17582  16.779  24.271   0.883
51042W        W17583  39.100  17.675   2.986
51043W        W17584  37.878  16.375   9.798
51044W        W17585  17.977  33.515   3.435
51045W        W17586  35.131  25.089  13.518
51046W        W17587  10.237  22.106  14.806
51047W        W17588  44.715   5.448  14.887
51048W        W17589  19.712  13.028   0.889
51049W        W17590  13.893   7.328  10.957
51050W        W17591  33.947  32.718  11.667
51051W        W17592  20.485  33.527   0.533
51052W        W17593  28.351   5.821  14.034
51053W        W17594  10.638  19.943  10.762
51054W        W17595  43.387  15.799  12.122
51055W        W17596  23.139  41.119  13.339
51056W        W17597  25.533  14.856  12.846
51057W        W17598   3.331   6.813   1.382
51058W        W17599  31.797  26.431   2.216
51059W        W17600  38.945   2.722  14.390
51060W        W17601  39.347  32.683  14.087
51061W        W17602  39.262  12.259   0.008
51062W        W17603  20.674  18.160   2.935
51063W        W17604  10.859   0.364   0.327
51064W        W17605  30.193  42.856   2.980
51065W        W17606  34.337  13.264  12.829
51066W        W17607  28.359   6.461   2.282
51067W        W17608  27.900  43.416  12.403
51068W        W17609  11.677  33.588  10.666
51069W        W17610   0.423  24.533   0.806
51070W        W17611  17.853  13.842  12.211
51071W        W17612   4.316  22.259   0.080
51072W        W17613  26.613  36.181  12.896
51073W        W17614  24.017   3.306  14.562
51074W        W17615  13.834  41.529  13.419
51075W        W17616   1.709  12.234   2.240
51076W        W17617  33.341  37.134  13.071
51077W        W17618  30.068  25.688   2.252
51078W        W17619  20.181  14.209   0.900
51079W        W17620   9.392   3.273  12.131
51080W        W17621   7.501  19.109  11.198
51081W        W17622  27.898   2.700  10.271
51082W        W17623   3.915  36.489  13.823
51083W        W17624  21.102  30.271  12.917
51084W        W17625  14.293  32.452  13.140
51085W        W17626  16.888   9.329  12.986
51086W        W17627   3.675  29.972   2.523
51087W        W17628  42.830   1.723  11.592
51088W        W17629  27.914  39.193  14.037
51089W        W17630  28.888  35.960   1.240
51090W        W17631   4.939  40.887  12.681
51091W        W17632  44.270  25.137   0.715
51092W        W17633   2.790  22.685   2.276
51093W        W17634  33.817  27.664   4.094
51094W        W17635   3.638  28.522   3.884
51095W        W17636  40.162  17.629  11.784
51096W        W17637  30.877  19.014   2.901
51097W        W17638  42.765   2.463   4.069
51098W        W17639   8.431  24.697  12.399
51099W        W17640  34.907  37.431   1.520
51100W        W17641  34.208  17.283   0.769
51101W        W17642  34.152  15.293   3.265
51102W        W17643  42.208  21.761   1.015
51103W        W17644  22.071  34.900  14.695
51104W        W17645   7.103  11.776   3.191
51105W        W17646  35.469  10.794  13.599
51106W        W17647  22.106  29.204  11.505
51107W        W17648  36.592  29.754  12.534
51108W        W17649  20.244  17.804   2.239
51109W        W17650  29.695   3.258   4.992
51110W        W17651  35.383  36.919  10.718
51111W        W17652   2.196   2.416   0.350
51112W        W17653  41.990   0.031  13.530
51113W        W17654  35.193  41.042   0.407
51114W        W17655  26.522  40.206  14.035
51115W        W17656  23.817  12.695   4.545
51116W        W17657  23.752  34.631  14.738
51117W        W17658  23.664  30.427   2.647
51118W        W17659  43.367  11.395  12.848
51119W        W17660   4.714  10.165  13.290
51120W        W17661  33.297  28.499  11.925
51121W        W17662  42.055   7.134  11.556
51122W        W17663  16.650  12.288  11.029
51123W        W17664  40.817   9.079   2.760
51124W        W17665   5.867   1.275  10.384
51125W        W17666  13.779  42.880  11.834
51126W        W17667  13.290  44.455  13.919
51127W        W17668  37.002  15.999   4.910
51128W        W17669  12.905  15.270   2.365
51129W        W17670  18.610  43.506   2.957
51130W        W17671   6.204  15.000   1.344
51131W        W17672  24.300  21.138  14.443
51132W        W17673   3.326   0.365   5.217
51133W        W17674  36.980  38.783   2.624
51134W        W17675  17.440   0.021   1.738
51135W        W17676  31.986  28.453  13.975
51136W        W17677  12.307   6.187  10.662
51137W        W17678  28.393  22.367  12.683
51138W        W17679   1.522  28.585  14.945
51139W        W17680   2.236  18.611   0.627
51140W        W17681  19.179  27.443   1.637
51141W        W17682  24.000  21.187  11.264
51142W        W17683   0.491  35.873  13.918
51143W        W17684  20.074  32.596   1.341
51144W        W17685  12.352   8.924   0.853
51145W        W17686  29.795  39.835   3.966
51146W        W17687  10.179  31.462   2.174
51147W        W17688  43.471  31.980  11.148
51148W        W17689  31.815  34.292   2.122
51149W        W17690  17.726  25.062  11.536
51150W        W17691  17.293  34.724  11.648
51151W        W17692  17.826  23.757  11.367
51152W        W17693  25.709  22.280  13.861
51153W        W17694  15.411  37.518  14.959
51154W        W17695  22.073  21.143   4.728
51155W        W17696  15.217  26.974  12.243
51156W        W17697  22.035   9.402  10.519
51157W        W17698  27.132   3.857   4.394
51158W        W17699  35.065  23.923   0.235
51159W        W17700  12.641  16.460  11.568
51160W        W17701   8.332  11.619  11.078
51161W        W17702   2.295  33.026  14.776
51162W        W17703  27.177  29.250  14.764
51163W        W17704   6.241   9.465  11.471
51164W        W17705  33.582  18.316  12.050
51165W        W17706   6.946  10.893  12.817
51166W        W17707  22.289  37.155  14.711
51167W        W17708   8.712  37.379   0.906
51168W        W17709  43.733  36.862   0.612
51169W        W17710   9.644  40.054  11.076
51170W        W17711  38.298  34.443  10.716
51171W        W17712  22.712  13.105  10.785
51172W        W17713  17.348  10.172  10.543
51173W        W17714  36.008  11.604   2.661
51174W        W17715  21.978  19.116  13.882
51175W        W17716   4.851  43.731   2.281
51176W        W17717  35.373  16.177  12.092
51177W        W17718  14.833  15.826  13.461
51178W        W17719  20.200  43.562  14.505
51179W        W17720  31.122  27.261  14.595
51180W        W17721  37.434  20.617   1.039
51181W        W17722  27.756  14.682  10.002
51182W        W17723  20.177  17.022   0.357
51183W        W17724   6.850   1.094  11.588
51184W        W17725   0.931  17.665  12.055
51185W        W17726  22.176  21.816  13.758
51186W        W17727   8.265  40.110  13.530
51187W        W17728   1.932  33.958  10.750
51188W        W17729  30.610  22.639   3.391
51189W        W17730  11.915  18.007  11.603
51190W        W17731  10.581  19.599  14.905
51191W        W17732  13.194   2.892  10.610
51192W        W17733   1.809  32.460   3.493
51193W        W17734  20.715  22.956   4.207
51194W        W17735  38.652   9.803   4.695
51195W        W17736   7.146  10.782   1.029
51196W        W17737  29.578  25.268   0.322
51197W        W17738  44.896  35.574  14.921
51198W        W17739   1.606  16.493   2.819
51199W        W17740  31.923  21.904  10.676
51200W        W17741  44.328  37.209   4.936
51201W        W17742   7.744  41.440   0.922
51202W        W17743  25.524   4.233  11.465
51203W        W17744  44.886  19.595   5.097
51204W        W17745  32.920  18.179  11.462
51205W        W17746  41.922   2.009   0.781
51206W        W17747  11.831  36.817  13.467
51207W        W17748   8.222  26.058   1.025
51208W        W17749  43.770  13.416  11.060
51209W        W17750  44.248  28.719   1.244
51210W        W17751  28.800   9.374   4.634
51211W        W17752  15.266  18.755  13.374
51212W        W17753   4.427  24.982  13.006
51213W        W17754  25.226   0.849   2.750
51214W        W17755  13.073  15.149   4.415
51215W        W17756  42.594  10.230   1.800
51216W        W17757   6.276  11.704   4.921
51217W        W17758  43.815   3.303   0.552
51218W        W17759  37.352  11.396   4.290
51219W        W17760  21.912   1.445  13.009
51220W        W17761  29.392  11.900   1.359
51221W        W17762  38.885  18.324   2.260
51222W        W17763  12.194  25.122   0.001
51223W        W17764  33.400  35.129  13.727
51224W        W17765  23.765  10.147   3.689
51225W        W17766  42.982  24.074   1.209
51226W        W17767  33.119  41.325  12.901
51227W        W17768  36.920  10.275  14.943
51228W        W17769  32.733  40.563  14.339
51229W        W17770   8.749  21.850  12.459
51230W        W17771   0.479   7.197   0.306
51231W        W17772  32.047  39.414  10.638
51232W        W17773   6.450  22.730  11.601
51233W        W17774  31.775   1.973  11.519
51234W        W17775  15.201  19.029   3.614
51235W        W17776  26.940  27.014   3.304
51236W        W17777   4.686  34.766  11.442
51237W        W17778  41.493  28.136  14.999
51238W        W17779  10.850  29.236   1.583
51239W        W17780  23.463   8.470  10.277
51240W        W17781  40.102   6.862   1.676
51241W        W17782  37.102  11.475   2.783
51242W        W17783  28.940   3.791   0.051
51243W        W17784  10.831  32.314  12.115
51244W        W17785  11.175  36.447   4.534
51245W        W17786   9.892   0.752   3.135
51246W        W17787   5.187  26.573   3.169
51247W        W17788   1.252  14.665   1.570
51248W        W17789  22.968  23.219   2.873
51249W        W17790  17.112  18.572   3.839
51250W        W17791  34.547  15.144  14.623
51251W        W17792  28.587  21.241  14.625
51252W        W17793   1.994  27.993   3.780
51253W        W17794  21.477  41.981   0.232
51254W        W17795  30.075   9.633  13.827
51255W        W17796  17.580  23.180  11.973
51256W        W17797  24.408  10.989  14.470
51257W        W17798  36.433  22.192  11.758
51258W        W17799  22.753  41.069   1.861
51259W        W17800  33.334  16.949  10.446
51260W        W17801  34.427  24.593  13.587
51261W        W17802  44.983  36.978   3.328
51262W        W17803  30.931  33.369  13.299
51263W        W17804  35.333   1.106  11.670
51264W        W17805  38.344  12.606   2.719
51265W        W17806  18.044  33.053  11.831
51266W        W17807  31.704   3.293  13.309
51267W        W17808  32.505  36.720  13.918
51268W        W17809  30.801   9.358  12.451
51269W        W17810   2.432   8.409   0.323
51270W        W17811   9.843  34.837   3.900
51271W        W17812  41.924  27.952   1.348
51272W        W17813  21.254  16.339  13.383
51273W        W17814  16.193   0.808  12.080
51274W        W17815  14.627   6.837   4.611
51275W        W17816   3.830  33.174  11.666
51276W        W17817  18.994  18.279   4.791
51277W        W17818  11.939  39.578  14.831
51278W        W17819  24.633  32.630   2.301
51279W        W17820   5.856  15.190  14.592
51280W        W17821   7.897  21.505   0.416
51281W        W17822   8.396  14.762   1.408
51282W        W17823   0.211   9.453  14.939
51283W        W17824  16.272  33.321  14.942
51284W        W17825  21.533  28.938  12.942
51285W        W17826  25.427  39.253   4.567
51286W        W17827  44.670  36.916  11.627
51287W        W17828   3.360  11.782  11.343
51288W        W17829  15.415  36.436  11.599
51289W        W17830  11.818   6.254  14.412
51290W        W17831  32.911  40.000  11.260
51291W        W17832  39.125  30.547   2.223
51292W        W17833  39.479  34.483  14.484
51293W        W17834  44.446   6.451  14.382
51294W        W17835  40.568  25.516  14.784
51295W        W17836  16.575  22.663   4.697
51296W        W17837  30.481   3.461   4.613
51297W        W17838   4.099  43.101  10.115
51298W        W17839  34.302  12.053  11.279
51299W        W17840   9.418   5.952   0.365
51300W        W17841  38.466   0.451   0.100
51301W        W17842  33.968   7.692   4.852
51302W        W17843  40.504  25.724   0.940
51303W        W17844  17.673  35.061   0.287
51304W        W17845  19.833  26.154   3.757
51305W        W17846  24.596  38.485   2.461
51306W        W17847  30.524  40.411   1.016
51307W        W17848   2.769   5.816  13.990
51308W        W17849  11.988  33.871  11.926
51309W        W17850  19.634  17.774   4.891
51310W        W17851  27.090  12.694  10.627
51311W        W17852  11.160  35.970   1.895
51312W        W17853  43.847  31.679   4.809
51313W        W17854  40.976  16.084   3.060
51314W        W17855  44.526   3.772   4.582
51315W        W17856  11.516  38.620   0.799
51316W        W17857  15.879  37.774   1.687
51317W        W17858  41.327  21.415   1.007
51318W        W17859  13.838  44.036   4.255
51319W        W17860  13.418  16.286  12.368
51320W        W17861   2.239  29.565   3.586
51321W        W17862  18.194  24.202   0.365
51322W        W17863  11.676  37.522   3.241
51323W        W17864  12.369  18.620  10.992
51324W        W17865  34.177  11.514  13.293
51325W        W17866  38.836  29.677   2.138
51326W        W17867  19.928   8.223  11.077
51327W        W17868  22.671  19.246   0.875
51328W        W17869  38.805  29.785   1.635
51329W        W17870   6.927   6.881  14.505
51330W        W17871   7.787  14.735   2.573
51331W        W17872  16.625  41.175   4.378
51332W        W17873   1.946  35.067  10.697
51333W        W17874  33.150  40.406   0.671
51334W        W17875  10.350   8.489   2.406
51335W        W17876  42.372  17.794  13.095
51336W        W17877  33.773  12.643  10.266
51337W        W17878  17.331   6.791  13.416
51338W        W17879  17.303  35.401   4.103
51339W        W17880  40.032  33.568  14.874
51340W        W17881  17.348  13.079   3.641
51341W        W17882  30.415  37.734   2.302
51342W        W17883  19.540  23.972   0.972
51343W        W17884  26.163  16.216  12.906
51344W        W17885  25.114  11.306   3.694
51345W        W17886  35.776  36.867  14.885
51346W        W17887  29.422  10.110   1.413
51347W        W17888  12.130   5.223   3.189
51348W        W17889   8.432  25.886   4.102
51349W        W17890  25.671  36.531   0.700
51350W        W17891  13.720  33.440  11.817
51351W        W17892  11.759  39.038   1.048
51352W        W17893  32.451  17.506  11.110
51353W        W17894  15.590   0.837  11.626
51354W        W17895   8.512  37.742  12.007
51355W        W17896  14.691  33.201  12.023
51356W        W17897  29.082  44.980  12.011
51357W        W17898  41.302  41.680  11.985
51358W        W17899  32.929  21.760  13.472
51359W        W17900  10.160  20.583   1.384
51360W        W17901   3.227  27.187   0.030
51361W        W17902  33.582   5.138  10.269
51362W        W17903   1.833   8.647  14.262
51363W        W17904   8.460  10.309  10.754
51364W        W17905   0.310  27.860   0.387
51365W        W17906  22.183  18.079  12.298
51366W        W17907  29.990   0.476  13.827
51367W        W17908   2.494  43.409  10.685
51368W        W17909  20.474  31.988  11.005
51369W        W17910   8.184  23.169  12.360
51370W        W17911   5.477  29.154   3.853
51371W        W17912  12.636  37.266  14.287
51372W        W17913  24.063  33.899  13.393
51373W        W17914   4.413   4.830  11.963
51374W        W17915  11.770  25.520   3.432
51375W        W17916  13.404  40.316   0.507
51376W        W17917   2.675  31.852  12.100
51377W        W17918  41.243  42.244  11.100
51378W        W17919  11.249   4.374  14.432
51379W        W17920   6.011  27.922   3.226
51380W        W17921  35.651  43.777   3.201
51381W        W17922  12.116  33.192   0.488
51382W        W17923  18.885   7.195   4.513
51383W        W17924  31.405   8.408  14.973
51384W        W17925   5.340  37.438  11.567
51385W        W17926  18.651  19.112   0.180
51386W        W17927  30.318   8.798   1.636
51387W        W17928   8.164   4.694  13.903
51388W        W17929  12.001  22.129  12.362
51389W        W17930  40.022  33.128   4.028
51390W        W17931   4.961  31.616   2.257
51391W        W17932   4.816  35.568  14.936
51392W        W17933  25.606  16.189  11.635
51393W        W17934  27.121   8.938   2.847
51394W        W17935  34.381   2.755   2.689
51395W        W17936   0.913  24.252   2.892
51396W        W17937  25.068   9.646  13.745
51397W        W17938  31.383  17.221   3.665
51398W        W17939  31.075  38.551  14.213
51399W        W17940  25.077  36.354   1.464
51400W        W17941  22.596  39.048  14.675
51401W        W17942  39.220  12.440  13.997
51402W        W17943  18.899  22.021   2.387
51403W        W17944  40.018  19.180  14.873
51404W        W17945  15.251  44.884   2.440
51405W        W17946   2.479  31.067  13.198
51406W        W17947   9.986   8.074   3.293
51407W        W17948  14.862  29.964   4.165
51408W        W17949  24.734  40.716  11.084
51409W        W17950  13.787  26.584  12.066
51410W        W17951   2.077   4.229  13.859
51411W        W17952  32.676  24.512   2.684
51412W        W17953  15.698   7.461  13.773
51413W        W17954  43.867  33.065   0.252
51414W        W17955  28.633  43.960  10.579
51415W        W17956  27.072  40.412   3.206
51416W        W17957   6.180  17.051  10.758
51417W        W17958  42.035  35.892  10.723
51418W        W17959  43.468  10.316   3.091
51419W        W17960   8.666   8.631   1.919
51420W        W17961  17.240   9.776   0.356
51421W        W17962  39.496  38.313   2.344
51422W        W17963  16.716  29.488  14.802
51423W        W17964  41.272  14.731   0.889
51424W        W17965  13.159  15.623  13.615
51425W        W17966  36.910  26.020   4.559
51426W        W17967  12.327  43.542   2.212
51427W        W17968  38.004  35.748  12.117
51428W        W17969  19.173  16.042   1.402
51429W        W17970   3.527  23.235  12.457
51430W        W17971  43.246  11.171   4.066
51431W        W17972  22.586  36.887   1.421
51432W        W17973  40.762  40.441  10.441
51433W        W17974  18.269  14.072   3.179
51434W        W17975  28.577  24.711   3.910
51435W        W17976  20.232   1.377  14.118
51436W        W17977  32.489  29.150   3.220
51437W        W17978  40.748  20.767  13.525
51438W        W17979   6.645  21.445  10.281
51439W        W17980   9.071  10.843  13.030
51440W        W17981  23.627   4.020  13.412
51441W        W17982   0.264   8.638   1.784
51442W        W17983   8.495  41.775  11.526
51443W        W17984   4.783  19.829   1.239
51444W        W17985  33.567  31.910   2.616
51445W        W17986   5.408  26.265   3.599
51446W        W17987  26.580  18.729   2.882
51447W        W17988   6.153  29.080   2.883
51448W        W17989  24.984  44.462  13.934
51449W        W17990  36.649   6.919  10.631
51450W        W17991  18.645   3.759  13.154
51451W        W17992  41.075  31.692   3.758
51452W        W17993  28.259  43.450   1.747
51453W        W17994  43.357  24.102   4.686
51454W        W17995  41.092  26.637  13.301
51455W        W17996  39.160  41.469   1.075
51456W        W17997  27.616  10.193   2.777
51457W        W17998  24.106  22.298   2.171
51458W        W17999  22.567   8.294  13.527
51459W        W18000  21.199   9.737  14.310
51460W        W18001  38.476  27.714   3.386
51461W        W18002  36.583  15.771  10.133
51462W        W18003   6.426  29.391  13.397
51463W        W18004  31.781  13.754   3.559
51464W        W18005   8.573   8.923  14.906
51465W        W18006  17.066   4.841   2.216
51466W        W18007   7.660  42.499  13.811
51467W        W18008  27.136  21.059   0.735
51468W        W18009  22.746  30.716   2.279
51469W        W18010  10.782  26.688   2.227
51470W        W18011  21.813  17.731   0.010
51471W        W18012   8.811  44.190  12.052
51472W        W18013  24.261   9.264  13.865
51473W        W18014  17.242   8.869   5.054
51474W        W18015  33.107   7.672   4.301
51475W        W18016  33.104   9.856  12.157
51476W        W18017  16.987  12.202  11.732
51477W        W18018  42.750  37.501  11.822
51478W        W18019   2.924   8.256   0.299
51479W        W18020  38.975  18.306  11.121
51480W        W18021  22.785  42.680  12.594
51481W        W18022   0.882  19.707   4.093
51482W        W18023   2.703  14.802   4.797
51483W        W18024  42.530   7.232  14.479
51484W        W18025  20.024  26.167  13.913
51485W        W18026   6.607  41.016   0.248
51486W        W18027  29.817  38.007  13.060
51487W        W18028  40.579   9.688  11.022
51488W        W18029  20.254  22.525   0.512
51489W        W18030   5.781   3.448   2.003
51490W        W18031  29.944  42.394  11.192
51491W        W18032   4.663  17.605   0.278
51492W        W18033  32.989  31.295   2.134
51493W        W18034  12.856  24.677   1.386
51494W        W18035  32.023  38.461   3.732
51495W        W18036  17.915  14.553   2.789
51496W        W18037  24.875  17.108  13.724
51497W        W18038  30.556  30.702   4.111
51498W        W18039  38.654  38.448   1.183
51499W        W18040  23.751  36.429  14.521
51500W        W18041  15.504  10.731  13.428
51501W        W18042   8.874  31.983   1.648
51502W        W18043  37.884  41.388   1.317
51503W        W18044  32.462  25.712   4.750
51504W        W18045  43.317  42.810  12.950
51505W        W18046  14.627  24.573   0.263
51506W        W18047  38.528   3.164   2.448
51507W        W18048  14.596   3.679   3.278
51508W        W18049  11.792  35.363   3.767
51509W        W18050  15.248  41.220   3.284
51510W        W18051  10.407  41.446   2.277
51511W        W18052  34.079  12.141   4.417
51512W        W18053  10.733  21.217  14.752
51513W        W18054  40.902  37.603   3.210
51514W        W18055  29.450  22.937  10.783
51515W        W18056  19.634   7.872   4.886
51516W        W18057  28.216   4.654  10.831
51517W        W18058   1.761  26.256   4.119
51518W        W18059  15.132  30.599   0.393
51519W        W18060  34.870  29.146   2.166
51520W        W18061  43.994  24.573  13.891
51521W        W18062  17.526   5.362  14.436
51522W        W18063   2.647  28.977   2.785
51523W        W18064  23.452  15.045  12.076
51524W        W18065   9.095  33.780   1.895
51525W        W18066  22.404  26.053  10.739
51526W        W18067  27.646   5.175   2.363
51527W        W18068   3.740   7.664   4.908
51528W        W18069  44.845  38.063  13.073
51529W        W18070  40.951  16.874  13.672
51530W        W18071  23.793  12.318  14.204
51531W        W18072  42.145  31.862  11.229
51532W        W18073  41.421  24.486  10.766
51533W        W18074  43.181   8.100  11.183
51534W        W18075  21.290  16.411  14.340
51535W        W18076  13.353  24.122   2.732
51536W        W18077  16.294   4.964   3.702
51537W        W18078   0.301   3.334   3.649
51538W        W18079  17.552  21.911  11.946
51539W        W18080   8.642   7.592  13.088
51540W        W18081  26.467  21.567   1.186
51541W        W18082  12.175  44.832  13.264
51542W        W18083  16.323  32.338   2.379
51543W        W18084  13.734  30.120   0.363
51544W        W18085   8.215  25.571  10.521
51545W        W18086  27.507  22.664   0.241
51546W        W18087   6.706  44.336  13.510
51547W        W18088   4.159  33.956   0.824
51548W        W18089  23.980  18.177   1.742
51549W        W18090  14.201  25.734  13.432
51550W        W18091  23.004  42.311  10.374
51551W        W18092  28.619  43.890  14.651
51552W        W18093  25.540  21.666  10.773
51553W        W18094   2.971  38.486   2.861
51554W        W18095  27.947  22.566  11.908
51555W        W18096  38.432  42.974  12.694
51556W        W18097  34.580  40.958  12.039
51557W        W18098  16.570  39.779  13.216
51558W        W18099  38.879  29.588  14.424
51559W        W18100  42.163  37.599   4.002
51560W        W18101   4.762  21.409   4.099
51561W        W18102  34.006  17.444  12.889
51562W        W18103  26.128   5.860   1.810
51563W        W18104   1.865   6.985   0.182
51564W        W18105  21.119  35.934  14.376
51565W        W18106  20.088  35.409   3.272
51566W        W18107  38.442  14.078   3.199
51567W        W18108  42.761  38.501  10.725
51568W        W18109  32.526  10.449   0.694
51569W        W18110  44.878  21.704  13.189
51570W        W18111  30.989  10.574   1.460
51571W        W18112   6.846   4.159  11.469
51572W        W18113  28.453   2.903   2.236
51573W        W18114  26.657  35.393  11.453
51574W        W18115  37.510  28.752  11.143
51575W        W18116   0.035  33.403  11.551
51576W        W18117  22.664  11.565   4.446
51577W        W18118  37.451  10.801   3.285
51578W        W18119  31.528  23.054   3.738
51579W        W18120  40.932  30.646  10.880
51580W        W18121  23.561  16.755  14.426
51581W        W18122  36.076   2.577   2.178
51582W        W18123  17.778  34.048  14.271
51583W        W18124  38.945   4.053   4.651
51584W        W18125  44.059  22.997  14.912
51585W        W18126  25.905  15.353  12.571
51586W        W18127  28.410  43.734   1.311
51587W        W18128  39.461  39.207   1.926
51588W        W18129  27.248  33.908   3.846
51589W        W18130  19.039  12.146   0.064
51590W        W18131  38.986  28.623   0.332
51591W        W18132   4.010  40.936  12.416
51592W        W18133   8.312  39.351   3.987
51593W        W18134  43.224   7.717  12.262
51594W        W18135  38.478  11.416   4.745
51595W        W18136   2.427   1.758   3.497
51596W        W18137  40.555  13.016  12.539
51597W        W18138  10.270  31.550  10.741
51598W        W18139  24.570  39.424  14.255
51599W        W18140  42.754  31.382  14.915
51600W        W18141  13.052  22.656   3.783
51601W        W18142  14.569   9.742   2.716
51602W        W18143  27.942  33.884   2.675
51603W        W18144  21.814   4.337  13.779
51604W        W18145  30.483  32.349   2.103
51605W        W18146  16.307  19.525   0.355
51606W        W18147  10.161  22.118   4.358
51607W        W18148  16.254  11.373   1.497
51608W        W18149  12.349  34.369  13.936
51609W        W18150  38.751  20.955   1.746
51610W        W18151  39.808  10.026  12.114
51611W        W18152  25.098  11.774  14.384
51612W        W18153  33.094  14.509  12.074
51613W        W18154  20.512   9.230   0.219
51614W        W18155   3.005  37.146   2.801
51615W        W18156  13.879  31.216  12.963
51616W        W18157  20.788  37.905  14.157
51617W        W18158  21.465   4.747   0.901
51618W        W18159  43.943  42.831   4.163
51619W        W18160   8.802  20.249   2.984
51620W        W18161  32.550  21.793   3.681
51621W        W18162  41.906  16.606   4.763
51622W        W18163  12.596   0.007  13.528
51623W        W18164   5.924  35.524   2.478
51624W        W18165  31.181  31.201   3.083
51625W        W18166  23.629  42.654   4.746
51626W        W18167  39.236  42.128   3.744
51627W        W18168  13.367   2.707   2.750
51628W        W18169  11.852  24.555   3.835
51629W        W18170   5.086  30.663   1.354
51630W        W18171   7.763  25.199   4.414
51631W        W18172  15.614  24.025   1.408
51632W        W18173   5.148   5.372  14.373
51633W        W18174  29.063  31.627   4.661
51634W        W18175  31.553   8.772   3.264
51635W        W18176  12.508   9.675   1.621
51636W        W18177  14.195  23.839  12.848
51637W        W18178  35.082  11.390  13.961
51638W        W18179  12.727  19.042   0.435
51639W        W18180  42.114  14.182  12.458
51640W        W18181   5.725  20.666   4.534
51641W        W18182  39.419  14.418  13.064
51642W        W18183  41.998  42.494  11.108
51643W        W18184  16.576  16.151  14.469
51644W        W18185  42.080  40.546   2.852
51645W        W18186   7.792  36.399   2.866
51646W        W18187  12.575  21.145  12.424
51647W        W18188  34.901  15.149  10.933
51648W        W18189   2.500   2.233  13.951
51649W        W18190   2.711   1.236  11.616
51650W        W18191  22.654  23.130   0.319
51651W        W18192  36.959  39.085  14.684
51652W        W18193  20.778  14.549   1.426
51653W        W18194  40.037  19.172   5.019
51654W        W18195  12.379  32.912  12.305
51655W        W18196  28.023  16.700  13.299
51656W        W18197   3.233  22.118  11.565
51657W        W18198  24.080  28.212  13.827
51658W        W18199   7.080  30.078   0.319
51659W        W18200   6.404  19.474   0.395
51660W        W18201  24.058   3.066   0.950
51661W        W18202  43.375   8.476   2.583
51662W        W18203  29.537  44.373   2.133
51663W        W18204   3.967  44.514  12.072
51664W        W18205  23.442  16.230  11.506
51665W        W18206  23.099  16.718   2.780
51666W        W18207  11.517  34.532  12.423
51667W        W18208  32.429  28.213  13.812
51668W        W18209   4.477  15.914   4.239
51669W        W18210  17.057   4.474   1.767
51670W        W18211  21.483  14.288  13.625
51671W        W18212  10.463   2.478   5.019
51672W        W18213  16.760  20.668   1.075
51673W        W18214  32.023  13.458   1.523
51674W        W18215  21.052   5.733   1.494
51675W        W18216  24.556  21.512   4.669
51676W        W18217   8.897  10.802  11.232
51677W        W18218  15.740  32.847  12.521
51678W        W18219  40.505  23.379  12.503
51679W        W18220  42.410  27.096   1.241
51680W        W18221  15.131  35.535  11.460
51681W        W18222  33.575  30.746   0.287
51682W        W18223   6.789   5.096  10.152
51683W        W18224  11.975  10.734  14.684
51684W        W18225  10.326  26.602  12.437
51685W        W18226  33.802  35.548   0.333
51686W        W18227  28.878  33.887   4.121
51687W        W18228  42.543  38.786  12.492
51688W        W18229  17.251   0.018   3.617
51689W        W18230  44.916  34.105  12.132
51690W        W18231   3.868  39.107  10.087
51691W        W18232  13.635   5.375  13.358
51692W        W18233  23.105  30.090  11.635
51693W        W18234  10.205  33.104   1.595
51694W        W18235   5.698  42.788   3.659
51695W        W18236  24.046  16.265   2.777
51696W        W18237   7.350  38.125   4.483
51697W        W18238  16.686  10.620  11.670
51698W        W18239  14.164   1.737  14.299
51699W        W18240  40.066  10.333   2.813
51700W        W18241   2.981  38.940  11.658
51701W        W18242  29.803  11.189  12.992
51702W        W18243   6.241  18.724   1.793
51703W        W18244  14.599  36.133   2.820
51704W        W18245  26.452  33.088   4.680
51705W        W18246   4.822  16.561  12.064
51706W        W18247  13.372  10.287   2.331
51707W        W18248  42.526   6.379  10.560
51708W        W18249  19.692   4.665   2.814
51709W        W18250  15.498  32.111   2.272
51710W        W18251  28.409  13.870  11.608
51711W        W18252  41.454  16.636   4.264
51712W        W18253  33.973  39.565   0.121
51713W        W18254  37.553  22.692   1.274
51714W        W18255  14.153   8.942  11.109
51715W        W18256  22.304   2.195  12.658
51716W        W18257  13.334  20.154   3.381
51717W        W18258   0.311  14.075  13.430
51718W        W18259  33.874   8.233   4.826
51719W        W18260  25.989  38.544   1.348
51720W        W18261  16.897  14.666   2.716
51721W        W18262   9.442  31.371   0.752
51722W        W18263  38.572  29.972   1.207
51723W        W18264  31.911  43.876  12.850
51724W        W18265   5.985  16.318   3.082
51725W        W18266  44.387  14.725   4.034
51726W        W18267  19.870  37.418   1.350
51727W        W18268  15.227   1.569  11.490
51728W        W18269   6.850  28.589   0.264
51729W        W18270  40.843  42.991   1.793
51730W        W18271  44.312   7.878   4.351
51731W        W18272  15.230  15.743   1.646
51732W        W18273  31.596   5.898  13.324
51733W        W18274  41.860  32.857  12.525
51734W        W18275  30.404  31.035   0.773
51735W        W18276  21.098   7.744   4.053
51736W        W18277  12.522  25.476   1.778
51737W        W18278  37.309   3.872   0.280
51738W        W18279  20.016   3.678  12.287
51739W        W18280   3.417   0.770   9.840
51740W        W18281  37.067   8.946  14.974
51741W        W18282  12.711  17.488   4.674
51742W        W18283  43.820  32.360  14.871
51743W        W18284  44.047   5.779   4.132
51744W        W18285   5.526  29.331   1.802
51745W        W18286   3.136  24.146   4.038
51746W        W18287   4.250  38.978  13.118
51747W        W18288  39.451  39.432  12.978
51748W        W18289   7.831  13.601  11.484
51749W        W18290  42.443  16.436  12.640
51750W        W18291  33.898   5.853   2.572
51751W        W18292   7.801  20.166   4.336
51752W        W18293  28.686   3.053  11.125
51753W        W18294  11.055  13.850   0.791
51754W        W18295  25.710  10.955   4.560
51755W        W18296  27.683  28.124  11.617
51756W        W18297  26.165  41.651  12.567
51757W        W18298   0.505  44.775  14.278
51758W        W18299  20.796  34.789  11.600
51759W        W18300  11.239  10.106   1.242
51760W        W18301   9.880   2.718  11.164
51761W        W18302   9.587  37.421   3.677
51762W        W18303  43.724   7.698   3.443
51763W        W18304  16.766   7.705  14.530
51764W        W18305  13.586   9.031  14.334
51765W        W18306  24.274  41.969   1.647
51766W        W18307  29.592   5.804  12.863
51767W        W18308  37.771   7.196   3.726
51768W        W18309   5.975  24.945  11.564
51769W        W18310   9.711  13.239  11.664
51770W        W18311   9.049   2.378   1.183
51771W        W18312  30.922   2.485  13.850
51772W        W18313  15.092  31.719   2.265
51773W        W18314  40.633  13.781   1.292
51774W        W18315   8.722  36.029  12.375
51775W        W18316   9.174  18.173   3.216
51776W        W18317  18.068  36.282   4.140
51777W        W18318  26.082  15.513   0.319
51778W        W18319  16.565  10.403   2.100
51779W        W18320   0.970  13.245   2.167
51780W        W18321  25.431   1.830  10.651
51781W        W18322  41.399  12.689   3.173
51782W        W18323  24.325   3.506   2.157
51783W        W18324  36.187  26.511   4.770
51784W        W18325  23.088  11.642   1.047
51785W        W18326  34.508  18.810  12.068
51786W        W18327  19.029  37.417  14.835
51787W        W18328  11.862  31.009  13.842
51788W        W18329   3.311  38.696  12.400
51789W        W18330   2.422  18.221   0.257
51790W        W18331  17.354  18.178   5.080
51791W        W18332  14.365  25.034   4.636
51792W        W18333   8.188  30.025   3.188
51793W        W18334  31.771   2.266  11.090
51794W        W18335  27.193  35.928   1.571
51795W        W18336   2.266   1.977  12.578
51796W        W18337  42.243  39.793   3.293
51797W        W18338  28.689  18.568   2.689
51798W        W18339   6.339  22.730   0.854
51799W        W18340  15.409  36.095  13.006
51800W        W18341  38.081  20.256   4.349
51801W        W18342  43.950   3.007  13.945
51802W        W18343  31.862  24.259   1.736
51803W        W18344  22.235  32.108  14.792
51804W        W18345  18.682  18.272   1.728
51805W        W18346  44.168  25.674   4.825
51806W        W18347   8.430  42.116  14.410
51807W        W18348  12.179  26.949   4.137
51808W        W18349  24.650  17.225   0.317
51809W        W18350  32.461  32.282  11.938
51810W        W18351  33.031  32.215   2.185
51811W        W18352  32.462   9.454  14.849
51812W        W18353   7.357  20.608   2.585
51813W        W18354  42.596  38.786  14.807
51814W        W18355  22.750  11.013   4.373
51815W        W18356  19.915  32.533  13.818
51816W        W18357  12.864   2.298  11.481
51817W        W18358   6.795  37.239   4.626
51818W        W18359  23.827  28.850   0.772
51819W        W18360  28.190   1.250   3.277
51820W        W18361   0.576  25.655  14.791
51821W        W18362   7.379  12.063   2.793
51822W        W18363  10.484  35.237  10.818
51823W        W18364  22.521  37.630  14.772
51824W        W18365  39.200  21.295   1.786
51825W        W18366  39.917  21.387  12.133
51826W        W18367   3.874  12.404  14.795
51827W        W18368   0.692   5.290  13.411
51828W        W18369   5.827   9.674   2.326
51829W        W18370   0.959  36.440   2.357
51830W        W18371  13.840  44.879   3.485
51831W        W18372  29.683  14.387   0.037
51832W        W18373   7.242   1.685   5.423
51833W        W18374  21.795  39.879  11.874
51834W        W18375   0.332  10.201   0.450
51835W        W18376  20.761  32.122   3.075
51836W        W18377  34.435  11.864  13.569
51837W        W18378  36.170   7.154  12.029
51838W        W18379  13.929  20.706   0.954
51839W        W18380  28.441  13.118  14.030
51840W        W18381  32.444  39.980   3.236
51841W        W18382  28.704  16.407  10.600
51842W        W18383  33.624   4.514  10.429
51843W        W18384  28.415  26.696   4.211
51844W        W18385   4.457  17.148   2.693
51845W        W18386   2.298  40.739  12.985
51846W        W18387  13.516  20.903  14.242
51847W        W18388  17.788  29.879   1.791
51848W        W18389  20.578  20.619  14.331
51849W        W18390  19.357   9.168   2.604
51850W        W18391  26.481   4.817  10.725
51851W        W18392  14.162  27.617   0.728
51852W        W18393  26.616  39.971  14.983
51853W        W18394  17.219  32.438   2.261
51854W        W18395  19.737  11.039  14.741
51855W        W18396  36.804  22.750   3.290
51856W        W18397  41.336  31.460   4.675
51857W        W18398   2.262  21.718   3.428
51858W        W18399  44.528  10.105   4.512
51859W        W18400  14.666  28.411  14.210
51860W        W18401  43.795  25.978  12.632
51861W        W18402  26.785  25.539  13.406
51862W        W18403  40.740  22.589  10.630
51863W        W18404   5.769  24.624  12.815
51864W        W18405  40.465   4.503  10.657
51865W        W18406  19.355  36.136   0.341
51866W        W18407   8.215  22.980  10.938
51867W        W18408   4.977  23.051  10.707
51868W        W18409  15.134   0.871  10.962
51869W        W18410  22.528   0.638   2.781
51870W        W18411  17.161   9.418  13.494
51871W        W18412  17.138   7.095  10.277
51872W        W18413  34.640  28.082  11.867
51873W        W18414   4.401  19.610  13.890
51874W        W18415  37.840   6.703  14.351
51875W        W18416  44.769  24.554   2.427
51876W        W18417  26.127  10.651   3.874
51877W        W18418  25.058   0.387   0.712
51878W        W18419  38.868  37.457   1.835
51879W        W18420  36.341  43.434   3.209
51880W        W18421   3.141   1.870   1.043
51881W        W18422   8.948  24.628   3.923
51882W        W18423  19.467  18.162  10.235
51883W        W18424   2.265  24.574  11.101
51884W        W18425  10.190  33.130   2.104
51885W        W18426  14.931   2.066  13.724
51886W        W18427  35.390  38.476   3.804
51887W        W18428  27.762  22.809  11.481
51888W        W18429  13.095  23.834   1.348
51889W        W18430  41.041  43.531   0.960
51890W        W18431  42.790  38.257   0.290
51891W        W18432  25.974  27.125   2.647
51892W        W18433  32.952   9.768  11.327
51893W        W18434  11.253  14.470   2.221
51894W        W18435   2.680   5.546  12.019
51895W        W18436   2.735  31.924   1.833
51896W        W18437  25.250  26.186  12.003
51897W        W18438   7.965  41.343   0.471
51898W        W18439  18.604  31.017   0.665
51899W        W18440   8.671   6.922  12.599
51900W        W18441  13.356  39.944  14.911
51901W        W18442  32.098  20.796  14.454
51902W        W18443  10.841  10.266  13.422
51903W        W18444  10.078  30.665   1.220
51904W        W18445   7.336  37.059   0.072
51905W        W18446  27.766  44.045   3.265
51906W        W18447   6.136  43.609   2.865
51907W        W18448  19.325  37.010   4.122
51908W        W18449   1.930  16.841   2.627
51909W        W18450   4.888  23.115  13.037
51910W        W18451  30.233  21.218  14.346
51911W        W18452  18.271   0.725   1.237
51912W        W18453  12.331   5.861  13.059
51913W        W18454  38.056   5.819   4.053
51914W        W18455  16.116  44.779  11.097
51915W        W18456   4.630  37.870   1.233
51916W        W18457  40.514  13.860  12.036
51917W        W18458  34.617  19.042  14.743
51918W        W18459  10.781  43.976   2.140
51919W        W18460  17.178  14.060  13.746
51920W        W18461  20.658  12.241   0.859
51921W        W18462   9.831  38.849  13.906
51922W        W18463  32.455  10.272  10.690
51923W        W18464   4.793  41.044  10.205
51924W        W18465  30.902  20.362  14.479
51925W        W18466  34.400   7.912   4.108
51926W        W18467  37.180  27.368  14.394
51927W        W18468  17.522   7.491  14.953
51928W        W18469  36.309  31.892   2.215
51929W        W18470  18.093  24.623   3.369
51930W        W18471  12.902  18.005  14.999
51931W        W18472  18.672  11.859   3.046
51932W        W18473   5.019   1.924  13.541
51933W        W18474  44.929  44.465  11.523
51934W        W18475  39.992  21.220   1.018
51935W        W18476  40.942   3.941   0.522
51936W        W18477  18.456  18.532  12.154
51937W        W18478  34.266  42.274   2.175
51938W        W18479  34.943  44.901   3.203
51939W        W18480  37.481  20.761   0.037
51940W        W18481  12.071  34.916   2.673
51941W        W18482   6.690  41.782   3.727
51942W        W18483   0.694  24.755   3.658
51943W        W18484  27.949  29.619  14.727
51944W        W18485  21.081  30.976   4.618
51945W        W18486  40.321  44.974   1.200
51946W        W18487  19.828  25.922   0.505
51947W        W18488  25.548  40.343  12.683
51948W        W18489  22.452  32.559  10.274
51949W        W18490  44.506  38.849  11.647
51950W        W18491   9.441  40.019   2.684
51951W        W18492  26.198  10.375  10.665
51952W        W18493  35.879  10.437  10.607
51953W        W18494  28.636  14.062  12.016
51954W        W18495   0.485  22.464  14.347
51955W        W18496   8.396  40.621  13.456
51956W        W18497  28.583  16.529  13.105
51957W        W18498  41.963  20.334  13.399
51958W        W18499  42.828  26.716   1.088
51959W        W18500  33.687  16.205   2.202
51960W        W18501  41.091  27.904  11.979
51961W        W18502   4.363   3.348   1.511
51962W        W18503  37.655  35.925  10.741
51963W        W18504  38.070  39.270   2.356
51964W        W18505  14.165  28.927  14.774
51965W        W18506  20.146  31.379   0.878
51966W        W18507  37.333  16.113  10.663
51967W        W18508  43.571  10.197  14.213
51968W        W18509  28.503  37.168   4.955
51969W        W18510  34.690   8.460   0.004
51970W        W18511  19.049  41.212  13.463
51971W        W18512  12.940  20.119   3.726
51972W        W18513  18.980  39.843  12.023
51973W        W18514  35.004  20.967   2.712
51974W        W18515  36.626  10.936  11.999
51975W        W18516   8.665  34.394   9.842
51976W        W18517  20.645   0.264  12.809
51977W        W18518  10.370  18.092  12.418
51978W        W18519  43.171  26.085   0.753
51979W        W18520  20.721  20.139   4.153
51980W        W18521  17.039  24.212  14.286
51981W        W18522  39.497   1.326  11.508
51982W        W18523  40.264  16.266  10.171
51983W        W18524  11.205  42.909  13.603
51984W        W18525  16.539   1.210   1.804
51985W        W18526  22.486   6.286  14.426
51986W        W18527   7.208   0.765  14.695
51987W        W18528  33.591  15.777   3.886
51988W        W18529  39.777  30.444  12.359
51989W        W18530  32.157   9.759  11.831
51990W        W18531  23.947  21.651   4.265
51991W        W18532  36.575  17.907   3.134
51992W        W18533  21.949   3.326  12.163
51993W        W18534   1.032  41.577  14.884
51994W        W18535  14.295  29.391  12.891
51995W        W18536  39.653  42.988   2.410
51996W        W18537  30.541  33.521  10.430
51997W        W18538  37.269   7.362   3.658
51998W        W18539   9.799   5.862   3.300
51999W        W18540  24.197  15.904  11.220
52000W        W18541  35.188  17.605  13.859
52001W        W18542  22.994  20.941   1.281
52002W        W18543   5.235  18.112  13.994
52003W        W18544  27.297  18.013  11.257
52004W        W18545  18.564   0.214   0.802
52005W        W18546  29.636  18.369  14.421
52006W        W18547  43.308  37.598   2.234
52007W        W18548  10.892  18.293   3.720
52008W        W18549  39.341  35.708  11.534
52009W        W18550  18.168  35.228   4.289
52010W        W18551  14.969  34.433   5.210
52011W        W18552  22.135  27.903   0.843
52012W        W18553  26.229  31.171   3.779
52013W        W18554  18.454  25.395   4.976
52014W        W18555   0.947  24.102   2.387
52015W        W18556  14.628  44.581   3.149
52016W        W18557  39.875  37.003  13.545
52017W        W18558   3.955   9.809   1.236
52018W        W18559  25.647  34.411  12.354
52019W        W18560  43.267  42.216   3.285
52020W        W18561  14.654  16.253   4.504
52021W        W18562  30.122   6.187   0.475
52022W        W18563  13.113  44.263  13.452
52023W        W18564  15.569  20.816  13.344
52024W        W18565   7.898   7.032   2.311
52025W        W18566  31.540   2.255  10.618
52026W        W18567  31.463  35.742  12.063
52027W        W18568   9.585  34.005   1.788
52028W        W18569  23.633   0.962  12.059
52029W        W18570  23.195  29.578  12.921
52030W        W18571  40.336  16.749   3.541
52031W        W18572  10.286  24.936   4.947
52032W        W18573  11.825  16.729   4.782
52033W        W18574  30.643   6.806  13.489
52034W        W18575   5.073   9.881  13.010
52035W        W18576   3.250  26.263   1.075
52036W        W18577   3.916   5.167   2.872
52037W        W18578  17.336  17.892   0.559
52038W        W18579   9.636  13.401   2.852
52039W        W18580   0.782  32.121   0.849
52040W        W18581  33.482  29.484   4.039
52041W        W18582  39.047  18.917   4.865
52042W        W18583  33.950  33.955  11.738
52043W        W18584  28.143  38.051   1.007
52044W        W18585  25.934  16.777  10.522
52045W        W18586   1.478  14.038  13.910
52046W        W18587   9.651  40.396  14.527
52047W        W18588  22.696  28.065   3.814
52048W        W18589  25.475  17.584  13.023
52049W        W18590  41.360  23.063   1.885
52050W        W18591  32.140  16.382  12.034
52051W        W18592   1.258  25.230   0.270
52052W        W18593   8.713  14.984   0.763
52053W        W18594   8.569  16.028  11.160
52054W        W18595  34.569  41.436  11.790
52055W        W18596  12.613  32.656  13.256
52056W        W18597  41.917   9.347   2.208
52057W        W18598   5.018  19.339   2.696
52058W        W18599  26.679  25.973  10.661
52059W        W18600  39.860  10.155   0.359
52060W        W18601  31.935  29.174   2.488
52061W        W18602  35.254  33.414   2.128
52062W        W18603  38.897   7.317   2.681
52063W        W18604  33.977  29.336  14.789
52064W        W18605  29.608  28.934  12.017
52065W        W18606  44.766  12.550  12.295
52066W        W18607  43.324  10.744   2.804
52067W        W18608  26.723  33.696  14.957
52068W        W18609   6.018  35.883  14.612
52069W        W18610  15.277  44.868  10.857
52070W        W18611   3.909  37.856   3.712
52071W        W18612  40.503  18.194   2.842
52072W        W18613  39.365  10.807   1.191
52073W        W18614  43.005   8.701  14.401
52074W        W18615   5.964  18.613  11.567
52075W        W18616  34.940  23.411  11.718
52076W        W18617  44.250   6.906  10.898
52077W        W18618   7.763   7.771  14.874
52078W        W18619  39.966  33.744  10.991
52079W        W18620  38.538  34.157   3.248
52080W        W18621  15.144  20.351  10.718
52081W        W18622  34.031  38.581  10.698
52082W        W18623  27.451  26.583   4.405
52083W        W18624  10.339  13.269  14.830
52084W        W18625  23.685  39.401   3.339
52085W        W18626  31.243  36.920  14.089
52086W        W18627   4.420   7.027   3.735
52087W        W18628  41.067  25.071  12.726
52088W        W18629  23.575  36.213  11.113
52089W        W18630  36.566   9.125  14.923
52090W        W18631   2.472  35.092   4.126
52091W        W18632   7.258  22.722   0.222
52092W        W18633  27.889  31.404  14.904
52093W        W18634  27.315  11.416   4.129
52094W        W18635  20.537  21.759  11.409
52095W        W18636  28.292   0.350  14.346
52096W        W18637  32.503  33.604  14.354
52097W        W18638   6.636  20.152  10.995
52098W        W18639   3.445  27.297  11.641
52099W        W18640  11.297  33.096  11.238
52100W        W18641  37.993  15.690   0.569
52101W        W18642  27.554   9.153  14.876
52102W        W18643  37.454  20.504  11.214
52103W        W18644  21.628  41.340  12.473
52104W        W18645  26.291   4.554  14.343
52105W        W18646  18.860  26.815  13.960
52106W        W18647  13.638  40.133   2.370
52107W        W18648   8.658  22.576   2.757
52108W        W18649  40.491  33.975   3.216
52109W        W18650  44.838  13.306   4.663
52110W        W18651  21.251   5.137   1.705
52111W        W18652  30.668   7.646  12.964
52112W        W18653  34.881  21.973  12.399
52113W        W18654  21.081  34.944  11.176
52114W        W18655  17.862   9.692  14.537
52115W        W18656  41.351  29.524   2.903
52116W        W18657  40.096  37.540   0.448
52117W        W18658  35.939  18.093   0.427
52118W        W18659  43.799  27.793  13.971
52119W        W18660  11.276  18.023   0.761
52120W        W18661  11.303  22.514   4.562
52121W        W18662  32.092   8.799   1.900
52122W        W18663   3.368  15.792   2.810
52123W        W18664  42.912  41.354   4.723
52124W        W18665   3.869   0.883  13.164
52125W        W18666   3.372   0.816   2.808
52126W        W18667  18.214  22.982  11.654
52127W        W18668  43.825  42.569   0.314
52128W        W18669  42.760  34.274  14.009
52129W        W18670  12.905  25.876  13.021
52130W        W18671   1.891  22.956  11.637
52131W        W18672  23.754  24.669   4.104
52132W        W18673  42.763  43.263  12.502
52133W        W18674  29.947   6.977   1.372
52134W        W18675   0.390   6.342   2.298
52135W        W18676  42.890  23.721  14.954
52136W        W18677  13.758  24.050  10.694
52137W        W18678  31.670  40.209   2.171
52138W        W18679   1.177   6.920   2.705
52139W        W18680  41.856  34.912   1.585
52140W        W18681   0.955   1.152  12.595
52141W        W18682  27.297   3.282   4.940
52142W        W18683   0.725  18.245   0.222
52143W        W18684  31.032  36.035  12.093
52144W        W18685  44.322  10.815  11.582
52145W        W18686  18.320  22.859   3.506
52146W        W18687  24.122  36.103  13.105
52147W        W18688  22.522  25.631   0.935
52148W        W18689   3.826  40.278  14.911
52149W        W18690  17.844  40.360   1.648
52150W        W18691   3.299  17.843  10.234
52151W        W18692  15.850   3.338  11.473
52152W        W18693  17.077  22.356  13.963
52153W        W18694  24.957  34.071   4.324
52154W        W18695  30.064  39.234   4.087
52155W        W18696   8.888  31.647  13.029
52156W        W18697  30.477   2.806  14.903
52157W        W18698  40.306  27.142   1.945
52158W        W18699  20.303   9.546  14.498
52159W        W18700  17.725  42.411  13.909
52160W        W18701   7.450  44.580   2.257
52161W        W18702   5.480  44.885  11.352
52162W        W18703  35.824   7.344   1.700
52163W        W18704  42.908  41.121   2.603
52164W        W18705  24.399  10.681   3.903
52165W        W18706  16.814  20.495   0.172
52166W        W18707   4.564   6.314   0.075
52167W        W18708   0.774  19.666   4.600
52168W        W18709  16.639  24.064   2.707
52169W        W18710  18.306  20.399  14.276
52170W        W18711  44.985   7.170  13.494
52171W        W18712   9.341   5.233   3.492
52172W        W18713   1.173  19.230   3.042
52173W        W18714  36.451  28.614   2.392
52174W        W18715   1.313   0.776   2.826
52175W        W18716   7.361  23.521  10.747
52176W        W18717  23.177  21.245  10.726
52177W        W18718  29.223  20.626   2.830
52178W        W18719   7.724   7.320   5.331
52179W        W18720   2.461  32.369   1.676
52180W        W18721  38.518  42.072  11.442
52181W        W18722  28.243   7.661   2.740
52182W        W18723  30.998  33.293   0.782
52183W        W18724  37.146   9.824   3.343
52184W        W18725   3.289   4.774   2.884
52185W        W18726  26.436  38.981  12.749
52186W        W18727  18.155   4.494   3.708
52187W        W18728  19.015  24.040  12.498
52188W        W18729  39.350   1.338   1.013
52189W        W18730   2.441  16.309  11.366
52190W        W18731  36.983  22.710  14.759
52191W        W18732  44.497  40.834   0.303
52192W        W18733  33.577  12.565   3.780
52193W        W18734  15.074  28.959  14.648
52194W        W18735  38.448  35.586   3.159
52195W        W18736  29.729  38.844   4.169
52196W        W18737  18.216  12.890   4.689
52197W        W18738  35.639   3.424   1.646
52198W        W18739   0.858  30.190  12.053
52199W        W18740  36.985  21.701   3.272
52200W        W18741  34.942   2.510   3.080
52201W        W18742  37.263  14.330  11.992
52202W        W18743  44.889   6.787  11.604
52203W        W18744  38.451  28.072   1.374
52204W        W18745  30.969  24.307  10.983
52205W        W18746   7.933  18.640  12.912
52206W        W18747   1.475  39.430   4.672
52207W        W18748  38.608  31.698  10.878
52208W        W18749  43.137   9.799   1.413
52209W        W18750  41.072  14.159   1.702
52210W        W18751  35.752  12.133  13.875
52211W        W18752  15.571  32.203   3.224
52212W        W18753  34.571  21.158  12.204
52213W        W18754  16.503  25.585   0.521
52214W        W18755  36.483   4.830  14.707
52215W        W18756  31.548  21.140  11.749
52216W        W18757   6.970   6.303   2.979
52217W        W18758   1.813  40.726  11.092
52218W        W18759  17.888  40.540  14.097
52219W        W18760  13.179  34.166   2.267
52220W        W18761  24.939  38.223  13.871
52221W        W18762  16.069   8.309  13.299
52222W        W18763  15.348  18.308  13.932
52223W        W18764   1.756  31.540   2.688
52224W        W18765   2.459  28.254  13.067
52225W        W18766  36.059  28.256   4.940
52226W        W18767  41.531  23.068  10.662
52227W        W18768   4.598  33.930   3.970
52228W        W18769  30.794  17.856   4.918
52229W        W18770  39.552  15.126  14.690
52230W        W18771  20.115  29.625  13.811
52231W        W18772   0.468  19.941   0.861
52232W        W18773  12.644  22.092  10.703
52233W        W18774  19.473  11.829   2.834
52234W        W18775  18.953  23.457  14.385
52235W        W18776  11.812   8.401  11.133
52236W        W18777  43.718  28.156   3.411
52237W        W18778  23.960   8.868  12.191
52238W        W18779  30.867   1.365   1.868
52239W        W18780  28.705   6.735  12.562
52240W        W18781   9.845  13.344  14.997
52241W        W18782  18.694  18.174   1.221
52242W        W18783  13.598  41.041   2.629
52243W        W18784  36.652   5.271  14.475
52244W        W18785  19.875  20.212   3.641
52245W        W18786  35.157  36.038   0.543
52246W        W18787  10.291  37.011  10.085
52247W        W18788  19.305  33.962   3.321
52248W        W18789  38.030   3.608  10.354
52249W        W18790  23.753  34.521  13.383
52250W        W18791  44.425  32.303  13.645
52251W        W18792  22.227  10.306  10.445
52252W        W18793  34.375  25.967   1.107
52253W        W18794   3.316  42.673   1.935
52254W        W18795  43.740   4.006   3.281
52255W        W18796   8.619  10.834   1.806
52256W        W18797  15.692  22.046  11.662
52257W        W18798  12.567   8.392  14.115
52258W        W18799  39.729  12.224  13.109
52259W        W18800   2.670  43.307  12.756
52260W        W18801  26.493  37.251  11.598
52261W        W18802  36.513  40.530   0.271
52262W        W18803  18.332  25.771   0.830
52263W        W18804  31.778  30.149  11.643
52264W        W18805   2.489  29.366  11.166
52265W        W18806  44.778  23.651  10.985
52266W        W18807  19.176   9.152   0.377
52267W        W18808  29.788   2.873  12.982
52268W        W18809  28.024  19.254   3.173
52269W        W18810   9.679  23.096  12.504
52270W        W18811  11.249  22.060  11.646
52271W        W18812  20.065  41.928   0.823
52272W        W18813  40.835  36.112  14.319
52273W        W18814   8.202  15.103  11.168
52274W        W18815  26.475  27.254   1.129
52275W        W18816  19.233   8.063   4.588
52276W        W18817  24.029  31.780   0.719
52277W        W18818  21.797  42.420  11.603
52278W        W18819   8.134  38.817   2.022
52279W        W18820  41.319   8.285   1.712
52280W        W18821  19.654   8.797   1.033
52281W        W18822  35.829  24.021  11.971
52282W        W18823  38.059  22.573   3.890
52283W        W18824  38.850  22.206   1.484
52284W        W18825  37.880  36.859   1.731
52285W        W18826  30.717   4.933  13.492
52286W        W18827  13.095  41.659   2.285
52287W        W18828   9.890   7.423   3.582
52288W        W18829  32.743  31.438  10.986
52289W        W18830  19.764  16.597   3.416
52290W        W18831  33.642  29.651   2.135
52291W        W18832  30.455  39.438   3.845
52292W        W18833  17.025   7.710  14.992
52293W        W18834   3.917  25.463   2.850
52294W        W18835  34.483  39.061   4.896
52295W        W18836  35.582  22.174   3.290
52296W        W18837  30.674  19.733  14.418
52297W        W18838  15.693  43.477   1.385
52298W        W18839   9.076   0.482   3.843
52299W        W18840   8.757  14.539   1.098
52300W        W18841  42.368   3.205   3.226
52301W        W18842   0.055  20.154   1.694
52302W        W18843  14.796  15.859   3.713
52303W        W18844  43.774  13.655   4.181
52304W        W18845  18.359  41.266  14.015
52305W        W18846  18.414  39.328   4.674
52306W        W18847  34.975  23.879  13.027
52307W        W18848  16.049  34.318  13.978
52308W        W18849  21.999  36.347   2.822
52309W        W18850  35.938  21.013   0.240
52310W        W18851   7.743  15.074  10.920
52311W        W18852  37.644  30.872  13.047
52312W        W18853  36.058  20.737   3.133
52313W        W18854  37.019  14.270   5.259
52314W        W18855  28.365  37.595  11.095
52315W        W18856  14.002  17.149   0.753
52316W        W18857  28.365   2.095  14.672
52317W        W18858  29.840  40.299  11.899
52318W        W18859   4.136  15.704   3.278
52319W        W18860  27.626  25.902   0.958
52320W        W18861  14.938  13.250   1.716
52321W        W18862   2.352   2.239   1.343
52322W        W18863  15.038   6.444   5.116
52323W        W18864  10.735  11.903   1.294
52324W        W18865  39.283  25.524   1.246
52325W        W18866  15.878  34.153  13.507
52326W        W18867  37.358  13.191  13.879
52327W        W18868  14.198   7.154   3.650
52328W        W18869  33.186  36.576  12.871
52329W        W18870  13.500   4.181  12.039
52330W        W18871  40.384  13.744  12.590
52331W        W18872   6.386  37.426  13.118
52332W        W18873  41.890  19.529   3.229
52333W        W18874  25.836  30.074   4.412
52334W        W18875   4.369   7.108   0.336
52335W        W18876  16.168  28.532   1.012
52336W        W18877   7.028  41.989  11.300
52337W        W18878  25.123  21.545   1.799
52338W        W18879   0.437  29.766  14.525
52339W        W18880  12.748   4.339   0.911
52340W        W18881   8.749  37.324   5.112
52341W        W18882   4.664  22.216  13.491
52342W        W18883  10.879  18.332  14.270
52343W        W18884  28.861  11.717   4.548
52344W        W18885  14.552  11.069  13.999
52345W        W18886  20.116  37.984   2.315
52346W        W18887  23.297  18.115  14.159
52347W        W18888  13.293  22.740   4.218
52348W        W18889  30.479  44.996  11.483
52349W        W18890  15.336  38.544   1.304
52350W        W18891  42.910  26.550   3.887
52351W        W18892  35.085  38.056  11.964
52352W        W18893  36.332  10.203   3.621
52353W        W18894   7.631   1.757  10.077
52354W        W18895   8.904  34.512  10.920
52355W        W18896   4.056  30.817   5.044
52356W        W18897   1.383  23.219  13.284
52357W        W18898   0.732  13.615  10.833
52358W        W18899  18.216   6.453  13.107
52359W        W18900  26.122  23.679   0.954
52360W        W18901  29.432  13.118   1.419
52361W        W18902   7.361   6.924   2.909
52362W        W18903  33.875  23.131   4.593
52363W        W18904  28.614  14.354   3.143
52364W        W18905  40.467  22.217   2.258
52365W        W18906  29.534  43.481   3.136
52366W        W18907   1.528  35.344   3.270
52367W        W18908  26.830  41.304  11.888
52368W        W18909  16.313  23.427  12.743
52369W        W18910  35.614   4.185  13.893
52370W        W18911  30.740  25.649  12.402
52371W        W18912  34.574   1.849  13.057
52372W        W18913  20.955  28.488   4.604
52373W        W18914  21.533  40.812  14.472
52374W        W18915  12.783   2.376   3.735
52375W        W18916  41.279  15.224   1.171
52376W        W18917   6.290  42.823  12.574
52377W        W18918  39.413  27.000  14.843
52378W        W18919  14.638  10.045  14.791
52379W        W18920  12.557  21.985  14.888
52380W        W18921   9.158  32.284   1.958
52381W        W18922  39.613  10.597  10.900
52382W        W18923   1.503  28.268  10.182
52383W        W18924  15.955  34.284   1.846
52384W        W18925  12.807   4.025   1.845
52385W        W18926  16.843  29.388  11.991
52386W        W18927  19.595  24.480   0.912
52387W        W18928  10.216  11.033  11.474
52388W        W18929  41.110  31.786   5.019
52389W        W18930  17.593  37.059   1.327
52390W        W18931  28.725  41.651  14.906
52391W        W18932  41.146  23.226   2.952
52392W        W18933  24.606  20.762   2.218
52393W        W18934  39.795  22.663   4.872
52394W        W18935   6.508   7.964   4.831
52395W        W18936  11.978  44.492   3.103
52396W        W18937   1.984  38.283  14.867
52397W        W18938  44.030   5.910  13.298
52398W        W18939   4.440  27.155  10.149
52399W        W18940  20.563  42.839  14.551
52400W        W18941  25.943  26.637  13.369
52401W        W18942  38.851   8.242   3.143
52402W        W18943   4.799  18.356  10.362
52403W        W18944  43.794  14.426  10.551
52404W        W18945  38.941  16.961   2.850
52405W        W18946   2.430  39.273   4.738
52406W        W18947  26.439  33.415   3.995
52407W        W18948  24.214   6.936   1.791
52408W        W18949  39.299  38.037  10.828
52409W        W18950  34.596  33.275   1.582
52410W        W18951  31.107   0.696  14.371
52411W        W18952   2.300   7.594  11.760
52412W        W18953  11.759  14.180  10.704
52413W        W18954  26.543  31.577  11.500
52414W        W18955  40.945   4.271   1.275
52415W        W18956   8.364  17.286  13.543
52416W        W18957  32.931  21.821   1.467
52417W        W18958  28.021  33.606  11.109
52418W        W18959   1.462  29.595   2.344
52419W        W18960  30.065  12.225   2.236
52420W        W18961  34.546   1.642   1.270
52421W        W18962   7.645  39.748  14.470
52422W        W18963  23.639  43.943  11.517
52423W        W18964  37.212  19.048   3.652
52424W        W18965  10.809  38.342  11.966
52425W        W18966   2.701  10.742  12.890
52426W        W18967  20.028  44.718   0.849
52427W        W18968  27.393  24.068  13.888
52428W        W18969  17.888   1.860   4.498
52429W        W18970  35.226  16.547  13.350
52430W        W18971  17.597   8.736   4.553
52431W        W18972  29.221  41.705   1.668
52432W        W18973  37.111  29.508  13.411
52433W        W18974   0.289  18.556  12.102
52434W        W18975  22.976   4.427  12.513
52435W        W18976  38.944  35.289   0.951
52436W        W18977  21.696  43.499   1.224
52437W        W18978  18.591  23.198   0.318
52438W        W18979  24.596  36.011   0.380
52439W        W18980  21.725  41.017   1.803
52440W        W18981  18.515  21.300   0.319
52441W        W18982   0.874   1.332   0.914
52442W        W18983  28.114  16.196   3.021
52443W        W18984   6.910  28.019   4.532
52444W        W18985  35.971  41.452  13.012
52445W        W18986  34.102  38.412   2.230
52446W        W18987  18.576   4.657  14.668
52447W        W18988  15.611  36.117   4.374
52448W        W18989  28.091   7.899   3.559
52449W        W18990  22.299  13.901   2.416
52450W        W18991  28.245  33.452  14.096
52451W        W18992  19.130  26.591  10.917
52452W        W18993   1.095  11.932  13.444
52453W        W18994  30.600  40.931  14.089
52454W        W18995  14.700   8.594   0.026
52455W        W18996  38.840  39.443   4.632
52456W        W18997   2.810   6.687   4.228
52457W        W18998   7.908   7.359   1.888
52458W        W18999   2.326  10.657  14.819
52459W        W19000  17.301  27.628   2.707
52460W        W19001  20.687  17.645  10.631
52461W        W19002   9.052  25.280  11.123
52462W        W19003  25.360  22.532   4.599
52463W        W19004  20.647  29.512   2.329
52464W        W19005   1.770  29.338   5.012
52465W        W19006  23.523  37.127   1.774
52466W        W19007  33.919  36.453  13.963
52467W        W19008  18.645   6.268   2.219
52468W        W19009  12.688  41.090  12.463
52469W        W19010  11.806   3.201  11.641
52470W        W19011  44.777  20.606  13.430
52471W        W19012  26.375  32.162  14.011
52472W        W19013   8.689   4.339   0.296
52473W        W19014  34.932  19.293  12.469
52474W        W19015  35.423  11.233  11.124
52475W        W19016  31.110  26.548   4.550
52476W        W19017  28.783  25.587  13.485
52477W        W19018  13.333  38.496  13.280
52478W        W19019  14.277   2.917   0.328
52479W        W19020  24.082  30.239   3.247
52480W        W19021  21.946  11.217  13.808
52481W        W19022  29.934  23.414   1.241
52482W        W19023  11.585  15.601  13.910
52483W        W19024  34.072  10.434   4.163
52484W        W19025  27.271  24.739   3.785
52485W        W19026  38.842  36.358   3.106
52486W        W19027   4.747   9.000   0.584
52487W        W19028  15.185   8.824   0.085
52488W        W19029   8.402  38.882  11.575
52489W        W19030  43.207  29.721   5.013
52490W        W19031  12.145  17.562  14.424
52491W        W19032   3.953  37.362  13.357
52492W        W19033  21.540  15.545   1.322
52493W        W19034  41.517  18.887  13.892
52494W        W19035  41.635  39.014   4.922
52495W        W19036  24.094  13.130   0.466
52496W        W19037  37.836  39.087  12.090
52497W        W19038  42.449  23.811  12.178
52498W        W19039   2.230  38.447  11.651
52499W        W19040  20.445  40.808   3.447
52500W        W19041  43.805  44.173   1.493
52501W        W19042  36.483  33.333   4.520
52502W        W19043  11.082  24.554   2.239
52503W        W19044  18.789  35.263   1.605
52504W        W19045   7.384  22.707  11.905
52505W        W19046  43.596  35.214  11.232
52506W        W19047  17.612  39.825   0.715
52507W        W19048  32.995  33.048  14.023
52508W        W19049  37.318  42.740  14.589
52509W        W19050   4.112  41.024   2.174
52510W        W19051  31.205   5.382  12.060
52511W        W19052  36.082   7.426  12.998
52512W        W19053   6.796  33.117   3.728
52513W        W19054   2.014  17.201   1.686
52514W        W19055  25.242   5.392   2.741
52515W        W19056  33.636  27.900  11.191
52516W        W19057  22.084   4.018   4.043
52517W        W19058   8.248  21.465  14.892
52518W        W19059   3.946  12.070  12.363
52519W        W19060  22.883  20.979  12.105
52520W        W19061  25.760  44.276   4.473
52521W        W19062  14.202  14.381   1.805
52522W        W19063  44.767   3.103   4.931
52523W        W19064   1.784  27.161  11.024
52524W        W19065  11.044  15.474  14.610
52525W        W19066  30.614  19.058   1.897
52526W        W19067  31.116  28.666  11.530
52527W        W19068  39.493  17.292   1.899
52528W        W19069  22.544  35.032  13.925
52529W        W19070  23.256  24.278   2.172
52530W        W19071  21.620  34.909   0.025
52531W        W19072  43.034  14.621   1.228
52532W        W19073  22.907  31.688  12.882
52533W        W19074  24.083  40.329   3.598
52534W        W19075  12.259   6.983   1.144
52535W        W19076   7.235  18.969   0.863
52536W        W19077  28.816  15.648   1.536
52537W        W19078  35.064  39.303  10.926
52538W        W19079  43.488   2.749   2.752
52539W        W19080  23.617   5.920  11.234
52540W        W19081  37.147  26.217  12.797
52541W        W19082   0.152  33.856   0.824
52542W        W19083  39.987  40.587   2.355
52543W        W19084   6.794   1.059   3.457
52544W        W19085   9.639  40.106   4.267
52545W        W19086   8.035  16.558   2.618
52546W        W19087  39.124  10.777  10.297
52547W        W19088  44.174  11.453   4.202
52548W        W19089  33.633  38.957   5.101
52549W        W19090  23.547  16.537   4.495
52550W        W19091  36.601  22.923  13.976
52551W        W19092  23.482  16.580  14.921
52552W        W19093  21.666  38.039  11.992
52553W        W19094  24.395  22.148  10.997
52554W        W19095  30.089  16.072  12.030
52555W        W19096   6.358  22.552  13.365
52556W        W19097  32.426  38.577   2.707
52557W        W19098   2.223  33.096   3.198
52558W        W19099  26.132  22.935  11.173
52559W        W19100   5.947  20.084   4.373
52560W        W19101  25.593  12.696   3.296
52561W        W19102  38.739   8.902  10.448
52562W        W19103  19.328  37.556   3.262
52563W        W19104  25.973  21.628  11.074
52564W        W19105  12.404   6.730   2.782
52565W        W19106  16.579  35.624  13.319
52566W        W19107   3.337  24.030  13.897
52567W        W19108   0.857  36.070  10.970
52568W        W19109  12.262  19.185   2.280
52569W        W19110  17.041  12.207  13.925
52570W        W19111   7.619  38.427   3.090
52571W        W19112   6.357  25.017   0.372
52572W        W19113  39.496   9.881   3.454
52573W        W19114  19.183  44.380  14.100
52574W        W19115  42.395   0.730  13.456
52575W        W19116  35.165  43.888  14.894
52576W        W19117  35.476  12.268  11.543
52577W        W19118   2.557   9.413  12.999
52578W        W19119  24.513  13.918  11.196
52579W        W19120  15.615   7.889   2.788
52580W        W19121  10.280  43.045   0.468
52581W        W19122  34.899  30.904  13.391
52582W        W19123  31.345  11.419   4.066
52583W        W19124  29.642   8.547  13.435
52584W        W19125   5.661   2.820  12.723
52585W        W19126  10.902  37.539   3.595
52586W        W19127   2.372  39.906   3.285
52587W        W19128  34.562   3.106   4.105
52588W        W19129  13.104   8.218  12.433
52589W        W19130  14.138  27.114   2.875
52590W        W19131  29.730   8.779   4.072
52591W        W19132  23.580  24.214  14.143
52592W        W19133  40.565  10.319   4.490
52593W        W19134  35.026  11.266   2.858
52594W        W19135  14.192   6.927   0.023
52595W        W19136  23.980  43.824  11.122
52596W        W19137   9.926   6.297  12.805
52597W        W19138  26.642  15.042  14.241
52598W        W19139   9.228  35.363  12.061
52599W        W19140  44.005  18.541  13.036
52600W        W19141  42.275  11.405  14.319
52601W        W19142  32.219   4.943  14.805
52602W        W19143  16.831  44.362  14.450
52603W        W19144   1.724  41.850   3.285
52604W        W19145  44.243   6.796  14.751
52605W        W19146  34.043  38.814  13.084
52606W        W19147  20.211  40.815   2.634
52607W        W19148  14.586  30.987   0.821
52608W        W19149  22.530  23.501   4.203
52609W        W19150   9.195   9.901   3.308
52610W        W19151  20.223   6.160   5.007
52611W        W19152  15.732  44.610   2.539
52612W        W19153  31.818   4.905  12.680
52613W        W19154  27.881  11.056   2.870
52614W        W19155   6.280  17.017  13.008
52615W        W19156  28.204  21.665  13.040
52616W        W19157  33.644  29.870  12.044
52617W        W19158   4.402  32.082  14.356
52618W        W19159   9.600  43.543  11.056
52619W        W19160   2.781  39.342   0.948
52620W        W19161  21.194   1.668   2.084
52621W        W19162  33.035  43.659   3.486
52622W        W19163  23.145  22.284   2.537
52623W        W19164  38.153   4.362  12.093
52624W        W19165   1.220   3.733  11.912
52625W        W19166  23.232  34.370  13.399
52626W        W19167  12.421  18.298  13.322
52627W        W19168   8.458   5.195   2.868
52628W        W19169  19.514   4.775  10.700
52629W        W19170  43.547  33.653   1.003
52630W        W19171  42.182   9.888  14.301
52631W        W19172  15.014  18.437   4.269
52632W        W19173  30.424   2.725   2.861
52633W        W19174   8.157  20.069  11.013
52634W        W19175  17.083   6.326   4.228
52635W        W19176  13.914  42.926   2.261
52636W        W19177  28.504  14.164   0.524
52637W        W19178  31.911  39.909  13.584
52638W        W19179   9.022  43.480   0.979
52639W        W19180  15.622   6.211  14.760
52640W        W19181  33.428  35.540  12.987
52641W        W19182  21.390  24.279   4.971
52642W        W19183  18.698  21.266  10.907
52643W        W19184  28.530  41.281   0.206
52644W        W19185   9.553   0.391   2.943
52645W        W19186   7.865  30.684  12.890
52646W        W19187   0.597   5.383  11.154
52647W        W19188   2.788   3.175  12.097
52648W        W19189  32.659  16.029  11.161
52649W        W19190  14.894  14.321   3.913
52650W        W19191   6.732  16.781   0.323
52651W        W19192  22.541  42.746  12.141
52652W        W19193  27.251  35.912   3.127
52653W        W19194   0.987  28.719   4.785
52654W        W19195  24.674  24.194  12.656
52655W        W19196  44.753  44.024  10.808
52656W        W19197  22.479   2.746  10.369
52657W        W19198  25.919   4.300   4.790
52658W        W19199  15.363  37.250   3.725
52659W        W19200  24.336  35.628  13.212
52660W        W19201  42.019  37.768   2.238
52661W        W19202  29.224  40.915   1.403
52662W        W19203  19.128  14.168  10.709
52663W        W19204   9.056  14.239   2.628
52664W        W19205  29.155  19.971   4.586
52665W        W19206  10.283   2.383  12.060
52666W        W19207   8.994  33.486   4.983
52667W        W19208   9.266  19.594  11.494
52668W        W19209  29.644  23.922  12.411
52669W        W19210  15.739  27.962  13.977
52670W        W19211  24.110  30.911   0.923
52671W        W19212   2.168  18.652   2.300
52672W        W19213  30.000   3.308   4.593
52673W        W19214  14.637  22.457  13.974
52674W        W19215   0.872  42.337   4.665
52675W        W19216  11.816   3.435   0.678
52676W        W19217  11.533   3.507  10.691
52677W        W19218  28.254  13.753   3.271
52678W        W19219   6.881  32.112   3.753
52679W        W19220  10.879  30.948  11.619
52680W        W19221  30.577  23.565  12.054
52681W        W19222  40.919  19.686   1.065
52682W        W19223  22.717   1.387  11.005
52683W        W19224  21.413   6.672  10.592
52684W        W19225   9.232  26.183   1.684
52685W        W19226  36.517   8.246   3.619
52686W        W19227  13.186  13.725  11.456
52687W        W19228  37.375  22.037  13.412
52688W        W19229  22.007  22.152   1.827
52689W        W19230  19.040  24.314   2.701
52690W        W19231  10.242  18.609  13.772
52691W        W19232  34.491  29.740  13.947
52692W        W19233  41.028  23.248   3.918
52693W        W19234  23.338  25.593   1.334
52694W        W19235  22.462  43.651  12.595
52695W        W19236   7.739  40.546   3.116
52696W        W19237  10.580  14.168  11.470
52697W        W19238  29.540   9.946   3.818
52698W        W19239  32.472  26.252  14.358
52699W        W19240   6.847  26.634   4.554
52700W        W19241  32.575  37.097   1.286
52701W        W19242  11.752   0.481   5.031
52702W        W19243  39.350  34.698   4.407
52703W        W19244  14.652   5.647  13.868
52704W        W19245  14.774  12.757   1.019
52705W        W19246   1.530   6.188  13.307
52706W        W19247  15.872  21.425  14.075
52707W        W19248  30.053   2.472  13.873
52708W        W19249  37.374  38.233   0.417
52709W        W19250  43.369  41.667   3.346
52710W        W19251  38.898   6.263   0.904
52711W        W19252  18.210   6.945   4.370
52712W        W19253  38.400   0.984  11.144
52713W        W19254  29.062  29.442  11.619
52714W        W19255   1.246  28.686   2.971
52715W        W19256  40.992  30.763  11.374
52716W        W19257  43.041   9.261   4.107
52717W        W19258  23.167  24.751   2.395
52718W        W19259  14.103   4.203  10.799
52719W        W19260  18.844   8.097  12.902
52720W        W19261  42.606  13.328   4.263
52721W        W19262  42.939  37.367   3.794
52722W        W19263   9.409  15.846  11.124
52723W        W19264  42.034  13.414  14.990
52724W        W19265  28.437   0.720   3.338
52725W        W19266   2.249  31.929  12.463
52726W        W19267  23.718  21.544   3.123
52727W        W19268  21.226   3.753  11.857
52728W        W19269  16.589   7.878   2.607
52729W        W19270  13.906  36.402   1.514
52730W        W19271   3.905  11.589  13.973
52731W        W19272  10.652  36.490   4.546
52732W        W19273  21.568   4.340   1.852
52733W        W19274  19.270  27.685  12.509
52734W        W19275  39.714  10.711  13.914
52735W        W19276  41.450  20.277  11.855
52736W        W19277  15.705  12.698  10.498
52737W        W19278  33.538   0.738   1.622
52738W        W19279   7.360  15.750  14.267
52739W        W19280  44.262  41.910   3.046
52740W        W19281  30.924  25.262   0.171
52741W        W19282  25.282  12.827  12.570
52742W        W19283  16.971  29.141   0.463
52743W        W19284  42.299  41.876   0.899
52744W        W19285  17.224  15.343   1.175
52745W        W19286  39.983  41.808  12.666
52746W        W19287   2.825  35.350  13.346
52747W        W19288   8.980  27.201  14.554
52748W        W19289  10.933  43.782   4.136
52749W        W19290  18.986  23.111   3.317
52750W        W19291  23.726  11.843  11.695
52751W        W19292  38.110  24.256   0.869
52752W        W19293  17.833  12.140   1.250
52753W        W19294  10.954  16.149   1.846
52754W        W19295  15.289  14.999  13.957
52755W        W19296  26.744  32.014  12.333
52756W        W19297  22.797  19.174  10.660
52757W        W19298  19.183   1.486  14.966
52758W        W19299  23.785   6.528   2.987
52759W        W19300  31.675  16.645   1.702
52760W        W19301  12.888  43.826   4.629
52761W        W19302  17.730   9.427  13.371
52762W        W19303  32.439   8.962   1.454
52763W        W19304  31.672  25.806  13.967
52764W        W19305  22.655  21.666   3.613
52765W        W19306   6.667  26.649  11.891
52766W        W19307  19.760  41.078   2.701
52767W        W19308  16.748   4.817   0.766
52768W        W19309  33.126  34.896  14.118
52769W        W19310  42.500  35.356   0.325
52770W        W19311  16.300  42.053  12.646
52771W        W19312  30.842   1.159  14.401
52772W        W19313   4.940  32.604   0.698
52773W        W19314   2.295   0.415   2.758
52774W        W19315  21.231  42.039   0.889
52775W        W19316  16.706  38.706  10.908
52776W        W19317  16.003  17.027  14.695
52777W        W19318   2.883  11.827  11.100
52778W        W19319   1.298  43.730   1.644
52779W        W19320   3.456  11.915   2.765
52780W        W19321  43.801   5.799  11.229
52781W        W19322  28.522  15.587   1.089
52782W        W19323   0.029   7.682  11.662
52783W        W19324  15.130  23.735   2.167
52784W        W19325  12.848   1.696   1.402
52785W        W19326  15.862  44.758  11.562
52786W        W19327  18.363  44.613  10.452
52787W        W19328  10.938  44.011  13.916
52788W        W19329  17.336  24.681  14.343
52789W        W19330  21.587  25.580  12.642
52790W        W19331  33.976  23.736   1.810
52791W        W19332  40.274  12.621   4.044
52792W        W19333  37.193  28.343  12.502
52793W        W19334  15.233  31.993   2.689
52794W        W19335   3.717  11.277   4.420
52795W        W19336  27.384  17.311  12.040
52796W        W19337  32.141  20.031   0.197
52797W        W19338  36.130   3.910   2.244
52798W        W19339  35.003   7.062   2.220
52799W        W19340  19.016  21.476   3.628
52800W        W19341   1.816  17.807  11.808
52801W        W19342  35.572  37.764   1.867
52802W        W19343  38.953  20.034  12.949
52803W        W19344   4.718  17.262  12.927
52804W        W19345  19.972  35.829  12.603
52805W        W19346  24.519  40.456   2.696
52806W        W19347  14.067  32.181  12.761
52807W        W19348  28.978   5.049   2.812
52808W        W19349  41.257  40.447   1.290
52809W        W19350  25.225   4.886   0.964
52810W        W19351  18.529  34.755  11.194
52811W        W19352  34.280  35.042   4.169
52812W        W19353   9.409  20.545   0.058
52813W        W19354  13.936  14.134  12.922
52814W        W19355  18.814  29.391  12.972
52815W        W19356   5.190  39.064  14.461
52816W        W19357  40.016   5.759  11.264
52817W        W19358  40.026   5.916  12.646
52818W        W19359  19.128  36.045  11.099
52819W        W19360  11.002   8.198   4.612
52820W        W19361  35.383  32.892   0.331
52821W        W19362  12.797  30.876   0.014
52822W        W19363   2.409  42.880  13.297
52823W        W19364  31.209  43.399  11.217
52824W        W19365  15.298  28.696   3.184
52825W        W19366  33.032  22.886  11.885
52826W        W19367  30.759  21.546   4.089
52827W        W19368   7.392  37.763   2.222
52828W        W19369   6.329  15.608  12.034
52829W        W19370  22.690  39.642  13.810
52830W        W19371  11.042  31.505  13.843
52831W        W19372   0.176  25.982  13.844
52832W        W19373  18.679   2.826   0.948
52833W        W19374   0.481  23.526   3.456
52834W        W19375  41.002  30.132  11.986
52835W        W19376  34.471   7.020  13.903
52836W        W19377  19.284  12.454  12.994
52837W        W19378  20.783  41.503  11.882
52838W        W19379  14.852  21.043   4.573
52839W        W19380  12.671  20.557   4.540
52840W        W19381  13.764  35.245   0.275
52841W        W19382   0.699  16.769  11.183
52842W        W19383  42.045  21.560  13.987
52843W        W19384   5.011  36.065   0.420
52844W        W19385  37.979   5.932  14.154
52845W        W19386  23.242  17.716  11.572
52846W        W19387  31.583  11.145  11.942
52847W        W19388  20.960  15.709  11.536
52848W        W19389  31.485  24.124   3.763
52849W        W19390  27.910  36.965  14.434
52850W        W19391   6.601  33.830  14.433
52851W        W19392  24.634  15.650   1.143
52852W        W19393   0.424  38.349   1.417
52853W        W19394  29.048  22.324  13.863
52854W        W19395   4.430  44.979   4.191
52855W        W19396  15.525  25.624  12.531
52856W        W19397  15.686  35.199   1.421
52857W        W19398  30.457   1.981  14.483
52858W        W19399  22.551   7.196   1.893
52859W        W19400  32.621  17.098  13.333
52860W        W19401   2.684  20.054   0.405
52861W        W19402   1.338  32.263  12.130
52862W        W19403  14.355   1.307  12.051
52863W        W19404  43.479  27.496  14.928
52864W        W19405  13.864   8.617   1.945
52865W        W19406   7.319  13.556   3.478
52866W        W19407  32.070  15.778   4.863
52867W        W19408  15.975   9.985  14.945
52868W        W19409   0.437   6.513   0.839
52869W        W19410  19.300   0.960   4.632
52870W        W19411  14.729  36.880   0.503
52871W        W19412   3.194  30.104   0.786
52872W        W19413  33.978  35.506  10.873
52873W        W19414  14.519   7.981  11.191
52874W        W19415   6.214  36.295   4.957
52875W        W19416   6.182  40.922  14.552
52876W        W19417  28.154  34.335   0.846
52877W        W19418  30.910  42.899   2.730
52878W        W19419   8.975   1.820   0.392
52879W        W19420  25.120  44.042   2.435
52880W        W19421   9.132  11.155  10.862
52881W        W19422  12.772  37.315  12.667
52882W        W19423  16.334  10.337  13.372
52883W        W19424  29.485  22.046   3.803
52884W        W19425   2.084   8.049   3.510
52885W        W19426  13.209  36.720  14.771
52886W        W19427   2.234   1.824   2.165
52887W        W19428  15.781  18.018  13.797
52888W        W19429  20.466  15.678   1.751
52889W        W19430  30.315   1.745  12.041
52890W        W19431   5.080  12.113  11.436
52891W        W19432   4.805  43.286   1.339
52892W        W19433  31.363   6.941   4.223
52893W        W19434  21.770  33.894   4.739
52894W        W19435   8.059  20.185   4.785
52895W        W19436  25.989  27.182  14.822
52896W        W19437   9.279   7.798  12.135
52897W        W19438  22.995  28.392  14.964
52898W        W19439  43.531   5.302   1.466
52899W        W19440  34.890  15.317   2.248
52900W        W19441   7.273  36.079   1.378
52901W        W19442  42.949  16.271   0.254
52902W        W19443  25.827  42.803  11.133
52903W        W19444  32.863  20.799   3.801
52904W        W19445  27.562  33.341  13.093
52905W        W19446  32.309  13.818   3.592
52906W        W19447  41.967  25.235   0.275
52907W        W19448  32.584   4.885  11.459
52908W        W19449  40.390   8.853   1.477
52909W        W19450   5.701  29.384  11.660
52910W        W19451  18.841  18.224  12.973
52911W        W19452  18.784  14.279   2.382
52912W        W19453  12.119  18.705  13.437
52913W        W19454  34.782  11.121  14.326
52914W        W19455  10.378   5.929   4.590
52915W        W19456  18.036   7.242  11.605
52916W        W19457  19.087  24.534  13.434
52917W        W19458  30.590  26.499   4.720
52918W        W19459  20.949  14.450  11.914
52919W        W19460  14.162  31.663   0.880
52920W        W19461  34.724  33.403   3.934
52921W        W19462  11.873  21.192   2.598
52922W        W19463  13.202  36.536  12.469
52923W        W19464  37.152  17.929  13.521
52924W        W19465  14.602  36.663  10.692
52925W        W19466   8.415  19.238   3.346
52926W        W19467   2.003  32.486  12.731
52927W        W19468   0.894  33.361  11.133
52928W        W19469  24.881  19.063   3.575
52929W        W19470  44.731  12.658  10.469
52930W        W19471   7.904   3.841   4.140
52931W        W19472   5.179  13.712   3.705
52932W        W19473   1.738   7.855  10.822
52933W        W19474  14.726   3.866  11.125
52934W        W19475  22.954  29.057  13.759
52935W        W19476  34.572   3.125  14.209
52936W        W19477   4.930  17.380   3.801
52937W        W19478  15.033  17.119   4.588
52938W        W19479  42.492  12.159   3.613
52939W        W19480  24.589  13.256  11.925
52940W        W19481  11.343  27.639  10.748
52941W        W19482  12.730  44.738   0.941
52942W        W19483   3.388  33.714  12.942
52943W        W19484  41.064  30.871   1.376
52944W        W19485  35.470  28.283  14.446
52945W        W19486  16.709  34.589   2.918
52946W        W19487  21.688  19.622  14.486
52947W        W19488  19.544  38.539   2.783
52948W        W19489  19.617  35.134   0.451
52949W        W19490  23.226  26.909   1.359
52950W        W19491   8.681   8.820   2.788
52951W        W19492  23.786  20.062  14.914
52952W        W19493  39.777  43.070  13.938
52953W        W19494  10.604   1.437   3.365
52954W        W19495  20.638   1.306   4.336
52955W        W19496  27.113  28.678  11.725
52956W        W19497   6.943  19.770  13.010
52957W        W19498  25.488  21.992   4.685
52958W        W19499  12.592  15.964  11.465
52959W        W19500  33.076  29.389  13.840
52960W        W19501  18.768  33.417  10.048
52961W        W19502  22.912  25.850  12.510
52962W        W19503   8.701  29.120  12.893
52963W        W19504  28.470  21.161   0.196
52964W        W19505   2.786  29.609  14.056
52965W        W19506  13.721   4.974  11.773
52966W        W19507  12.904   9.583   0.294
52967W        W19508  25.687  22.033   3.759
52968W        W19509  12.135  15.669  12.656
52969W        W19510  41.062   0.971   3.676
52970W        W19511  18.030   0.169  12.540
52971W        W19512  26.788  28.083   1.975
52972W        W19513  20.101   3.404  10.668
52973W        W19514  39.384  16.507   3.150
52974W        W19515  25.312  35.972   5.116
52975W        W19516  11.160  17.155  11.063
52976W        W19517  31.367   6.480  12.397
52977W        W19518  12.312  11.416   3.420
52978W        W19519  15.801  35.095  10.626
52979W        W19520  30.671   5.890  13.106
52980W        W19521  19.321  11.797   1.291
52981W        W19522  36.473  30.430   0.370
52982W        W19523  35.831  27.122   1.714
52983W        W19524  28.884  31.431   4.218
52984W        W19525  13.877  17.642  11.659
52985W        W19526  28.456   9.641  12.513
52986W        W19527  21.549  22.746  11.220
52987W        W19528  43.076  31.955   1.743
52988W        W19529   1.693  30.033   5.432
52989W        W19530  41.524  43.295  12.769
52990W        W19531   5.323   2.660  13.048
52991W        W19532  26.484  27.156   3.109
52992W        W19533  42.707  29.066   3.678
52993W        W19534   4.724  20.085   2.399
52994W        W19535  25.968  23.119   2.177
52995W        W19536  16.157  13.644  11.257
52996W        W19537  29.554  44.531   3.038
52997W        W19538   7.214  18.324  10.935
52998W        W19539   1.520  43.825  13.002
52999W        W19540  11.612  28.525  13.149
53000W        W19541  39.913   4.234   0.735
53001W        W19542  42.080  28.133   2.832
53002W        W19543  25.525  18.335   2.250
53003W        W19544  12.084  17.787   3.914
53004W        W19545   1.284  43.833   3.329
53005W        W19546   9.224  22.786  14.773
53006W        W19547  11.863   8.175   2.397
53007W        W19548   6.742  28.974  13.571
53008W        W19549  35.267  43.872   1.872
53009W        W19550  14.775   3.869  12.179
53010W        W19551  19.108  26.675  10.403
53011W        W19552  22.130  15.364   2.206
53012W        W19553  18.832   5.770   2.243
53013W        W19554  27.002   6.250  14.006
53014W        W19555  24.263  27.194  14.933
53015W        W19556  34.789  34.232   1.744
53016W        W19557  30.914  41.243   4.912
53017W        W19558  40.609   8.288  13.115
53018W        W19559  16.540  38.696  14.845
53019W        W19560  24.369  15.040   0.476
53020W        W19561   4.529  17.183  13.392
53021W        W19562  24.354  15.655  14.257
53022W        W19563  44.370  18.786  13.319
53023W        W19564  38.822  34.352  10.779
53024W        W19565  18.667  34.156   1.037
53025W        W19566   5.855  16.207   3.574
53026W        W19567  13.224  44.475  10.350
53027W        W19568   6.291  29.105  13.809
53028W        W19569   3.661  41.224   2.425
53029W        W19570  41.590  19.990  10.679
53030W        W19571  23.671  39.465  11.058
53031W        W19572  35.959  25.297  14.549
53032W        W19573  11.829   0.043  11.988
53033W        W19574   3.878  19.383  14.383
53034W        W19575  21.188  35.062  10.692
53035W        W19576   9.647  23.000   0.728
53036W        W19577   6.900  28.619  14.229
53037W        W19578  18.106  15.736   3.614
53038W        W19579   5.457  21.384   2.790
53039W        W19580  13.169  20.967   2.319
53040W        W19581   3.900  37.495  12.012
53041W        W19582  14.078   3.372   0.457
53042W        W19583  25.097  35.647  13.197
53043W        W19584  25.991   9.720   1.463
53044W        W19585   8.699  36.028   4.829
53045W        W19586  17.606  43.179   0.746
53046W        W19587  11.805  40.278   4.089
53047W        W19588  20.988  37.109   0.786
53048W        W19589  21.569  39.531   4.562
53049W        W19590  12.204  31.371  10.449
53050W        W19591  13.822   1.397   2.782
53051W        W19592  41.980  18.595   2.322
53052W        W19593   7.940  40.868  11.727
53053W        W19594   3.259  33.900   2.909
53054W        W19595  24.008   0.206   2.123
53055W        W19596  16.239  30.337   0.628
53056W        W19597  16.984  19.499   4.994
53057W        W19598  12.796  26.532   4.529
53058W        W19599  13.896   0.309  10.921
53059W        W19600  33.156  33.556   0.430
53060W        W19601  14.447  28.035   4.894
53061W        W19602  37.436  22.301  10.734
53062W        W19603  38.355   6.205  13.935
53063W        W19604  22.851  32.109  13.715
53064W        W19605  32.940  29.348   1.885
53065W        W19606  30.082   7.738   2.166
53066W        W19607   1.378  37.132   4.883
53067W        W19608   2.408  43.403  11.191
53068W        W19609  35.023  27.028   5.010
53069W        W19610  43.306  35.952  13.885
53070W        W19611  42.139  17.045   4.591
53071W        W19612   1.252  31.847  11.801
53072W        W19613  23.151   7.737   4.995
53073W        W19614  44.494  12.297  11.602
53074W        W19615  33.462   3.312   1.182
53075W        W19616  43.663  39.071  11.511
53076W        W19617  13.667   1.390  11.521
53077W        W19618  35.333  17.573   1.720
53078W        W19619  40.937  37.559   4.546
53079W        W19620  27.139  19.612  11.986
53080W        W19621  21.338   4.200  12.096
53081W        W19622   8.958  39.345   0.636
53082W        W19623   7.660  15.826  13.056
53083W        W19624  16.684  17.639  14.277
53084W        W19625  28.582  41.890  12.611
53085W        W19626  29.590  20.105  13.972
53086W        W19627   4.233   6.322  12.073
53087W        W19628  17.840  30.140   0.428
53088W        W19629  24.568  13.549  14.762
53089W        W19630  14.798  21.279   4.117
53090W        W19631  14.114  42.466  10.645
53091W        W19632  38.852   7.383  14.931
53092W        W19633  25.936  28.533   1.802
53093W        W19634  20.713  32.662   0.690
53094W        W19635  10.588  24.062  14.313
53095W        W19636  32.044  12.788   3.638
53096W        W19637  27.061  40.849   2.728
53097W        W19638  34.111  10.788  11.101
53098W        W19639  11.247  15.143   1.433
53099W        W19640  24.799  26.887  11.117
53100W        W19641  24.215  19.981   2.605
53101W        W19642   8.724  28.452  12.398
53102W        W19643   4.179  27.935  12.027
53103W        W19644  25.863   5.805   4.170
53104W        W19645  35.897   9.148   1.676
53105W        W19646  21.129  34.113  12.766
53106W        W19647  20.758   7.334  12.822
53107W        W19648  43.021  25.142   1.975
53108W        W19649   9.732   2.035   4.765
53109W        W19650   0.439  16.610   3.835
53110W        W19651   7.863   1.215   0.854
53111W        W19652  43.815   4.840  14.339
53112W        W19653  40.401  11.870  11.153
53113W        W19654  28.513  20.544  11.074
53114W        W19655   0.525  10.817  13.250
53115W        W19656  21.785   9.381   2.692
53116W        W19657  22.843   6.029   4.534
53117W        W19658  39.560  40.270   2.776
53118W        W19659  15.897  35.089   0.944
53119W        W19660  28.476  40.342  10.931
53120W        W19661  24.579  36.468  12.196
53121W        W19662  44.659  24.657   3.924
53122W        W19663   4.508  33.005  12.853
53123W        W19664  10.639  29.610  14.985
53124W        W19665  32.375  32.357  14.760
53125W        W19666  38.409  42.871   3.161
53126W        W19667  39.377  33.313  12.193
53127W        W19668  27.691  31.987   2.254
53128W        W19669  29.479  20.798   0.052
53129W        W19670  40.974  31.050   2.804
53130W        W19671  21.939  35.582  13.092
53131W        W19672  22.604  24.098  10.675
53132W        W19673  33.821  40.725   3.632
53133W        W19674  17.797  20.282   0.034
53134W        W19675   9.247   2.623   4.218
53135W        W19676   2.139  15.822  13.437
53136W        W19677  24.081  24.061   3.144
53137W        W19678  14.488  43.220  11.432
53138W        W19679   0.000  44.664  13.454
53139W        W19680  13.230  23.680  11.653
53140W        W19681   9.948   1.326  11.182
53141W        W19682   2.535  42.299  11.489
53142W        W19683  26.692  36.530   2.252
53143W        W19684  17.849  19.195   3.608
53144W        W19685   7.307  39.757   1.214
53145W        W19686  16.677   8.884  14.877
53146W        W19687   9.901  18.452   4.303
53147W        W19688   1.300  26.810  13.408
53148W        W19689  17.128  10.121   3.359
53149W        W19690  15.768  16.696  10.910
53150W        W19691   5.913  11.893   4.057
53151W        W19692  23.896  44.316  14.979
53152W        W19693  17.772  35.864   2.335
53153W        W19694   5.716  30.375  12.423
53154W        W19695  44.420   5.689  11.964
53155W        W19696  18.321   4.261  12.601
53156W        W19697  27.692   4.039   3.072
53157W        W19698  39.174  38.965  13.606
53158W        W19699  42.185  12.108  14.828
53159W        W19700  13.633   9.159   4.318
53160W        W19701   9.701  15.279  14.385
53161W        W19702  18.569  37.868   0.301
53162W        W19703  39.571   8.569  12.947
53163W        W19704  19.181  19.343   3.256
53164W        W19705   5.650  35.549  13.370
53165W        W19706   0.860   5.627  14.900
53166W        W19707  41.366  17.835  12.355
53167W        W19708   3.686  12.178  11.400
53168W        W19709  29.585  26.439  10.833
53169W        W19710  20.281  13.860  11.241
53170W        W19711   7.935   7.402   1.379
53171W        W19712   9.268  12.688   0.491
53172W        W19713   8.905  43.908  14.350
53173W        W19714  21.123   2.153   2.961
53174W        W19715  12.942  43.280  11.666
53175W        W19716  42.071  44.937   3.447
53176W        W19717  20.678  37.874   2.013
53177W        W19718   8.280   5.671   2.765
53178W        W19719   2.077  31.553  12.161
53179W        W19720  14.307  35.638  11.973
53180W        W19721  18.171  43.691   0.323
53181W        W19722  20.688  40.078   0.586
53182W        W19723  37.684  28.193  14.447
53183W        W19724  38.447  40.033  10.626
53184W        W19725  37.123  28.723  11.660
53185W        W19726  39.936   5.208  10.666
53186W        W19727  27.900  37.483   1.668
53187W        W19728  19.259   3.783   4.896
53188W        W19729  10.590  19.497  11.411
53189W        W19730  41.471   9.799   3.218
53190W        W19731  10.667   0.766  11.486
53191W        W19732   4.269  13.336   1.394
53192W        W19733  23.033  29.485   0.014
53193W        W19734  13.025  18.702  14.419
53194W        W19735  32.843  10.271  11.245
53195W        W19736  41.813  19.629   1.404
53196W        W19737  11.014  32.869   0.652
53197W        W19738  37.362   4.786   1.515
53198W        W19739  35.354  28.587  12.840
53199W        W19740  14.188  42.443   3.730
53200W        W19741  14.140  43.089   4.945
53201W        W19742  11.683   6.677  14.068
53202W        W19743  43.897  36.543  14.843
53203W        W19744  19.799  21.669  12.090
53204W        W19745  22.031  20.732  12.817
53205W        W19746  28.369  41.374   4.134
53206W        W19747  10.928  18.035  12.472
53207W        W19748  26.721  36.960   3.603
53208W        W19749  38.588   6.300  12.458
53209W        W19750  33.851   3.746  14.081
53210W        W19751   1.876  30.839   4.986
53211W        W19752  17.551  25.974  10.952
53212W        W19753   0.939   0.835   3.768
53213W        W19754  12.556   1.153  11.950
53214W        W19755  29.466  32.876  11.556
53215W        W19756  38.489  30.682  10.512
53216W        W19757  28.203   4.328   0.778
53217W        W19758   4.003  36.332   4.195
53218W        W19759  26.496  15.296   2.325
53219W        W19760  43.368   9.596  12.418
53220W        W19761  22.109  15.815  14.923
53221W        W19762  22.148  28.530   0.870
53222W        W19763  34.083  30.677  12.905
53223W        W19764  21.411  40.398  14.895
53224W        W19765  31.993  17.217  11.415
53225W        W19766   0.147   6.837   2.744
53226W        W19767   6.479  38.549   3.569
53227W        W19768  10.626  20.674  11.995
53228W        W19769  37.465  34.445  14.253
53229W        W19770  33.369  11.098  13.821
53230W        W19771  21.547  27.391  10.759
53231W        W19772  31.695  21.607  13.878
53232W        W19773   3.342  20.735  12.574
53233W        W19774  41.322  19.894   2.151
53234W        W19775  35.633  15.536  12.048
53235W        W19776  30.416  30.064   2.452
53236W        W19777   1.057   3.352   0.427
53237W        W19778  14.786   7.310   3.403
53238W        W19779  36.519  20.210   3.884
53239W        W19780  18.662  35.583  12.873
53240W        W19781  35.208  15.177   3.896
53241W        W19782  37.375  36.548  11.074
53242W        W19783   4.360  15.506  14.321
53243W        W19784  19.294  30.043   4.098
53244W        W19785  19.074  23.967  14.422
53245W        W19786  14.730  42.993   3.289
53246W        W19787  35.516   0.458   0.281
53247W        W19788   1.274  42.785   1.648
53248W        W19789  43.205   3.242  10.678
53249W        W19790   4.392   0.061  14.461
53250W        W19791  29.483   4.240  11.059
53251W        W19792  13.372   4.162  12.971
53252W        W19793  36.587   2.336   3.606
53253W        W19794  19.533  37.607   2.261
53254W        W19795  41.231  30.355   3.737
53255W        W19796  43.155  17.762   1.017
53256W        W19797  16.108  41.783   0.562
53257W        W19798  41.247  21.116   0.285
53258W        W19799  10.503  10.166   3.798
53259W        W19800  24.648  13.672   4.396
53260W        W19801  20.991   0.004  13.911
53261W        W19802   1.688   8.680   1.860
53262W        W19803  42.149  42.567   3.985
53263W        W19804  40.058  22.420   1.467
53264W        W19805  13.588  21.069  10.757
53265W        W19806  31.351   5.507  10.187
53266W        W19807  36.796   1.772  14.244
53267W        W19808  10.809  43.121  11.697
53268W        W19809  27.234  39.297   1.963
53269W        W19810  25.696  35.900   1.778
53270W        W19811  34.025   6.638   1.874
53271W        W19812  21.585  25.924  12.260
53272W        W19813  30.184  34.868  12.057
53273W        W19814  17.549  35.900  14.838
53274W        W19815  31.078  38.116  11.530
53275W        W19816  40.826  18.998   2.856
53276W        W19817  41.928  21.238   4.700
53277W        W19818  10.359  17.311   4.160
53278W        W19819  41.951   3.949   3.586
53279W        W19820  35.318  42.848  14.854
53280W        W19821  43.874  10.927  10.733
53281W        W19822  36.852  10.267   3.601
53282W        W19823  11.672  20.736   2.754
53283W        W19824   9.237  43.626   3.266
53284W        W19825  40.214  32.944  11.154
53285W        W19826  28.421  24.742   2.471
53286W        W19827   9.433  33.532   1.599
53287W        W19828   8.207  35.018   3.103
53288W        W19829  23.205  18.326  13.694
53289W        W19830  29.470  23.029  13.143
53290W        W19831  20.450  34.750   1.333
53291W        W19832   4.706  38.502  13.286
53292W        W19833  43.457  42.932  10.661
53293W        W19834   4.827  13.520  13.038
53294W        W19835  27.213  44.832  10.552
53295W        W19836  27.996  15.284   3.043
53296W        W19837  12.366  30.927  13.417
53297W        W19838   0.268  22.470   1.790
53298W        W19839  39.363  18.102  12.409
53299W        W19840  10.918  33.566   1.802
53300W        W19841  19.236  16.733   4.609
53301W        W19842   5.747  23.591   2.117
53302W        W19843  10.103  43.901   1.427
53303W        W19844   2.456   8.892   1.375
53304W        W19845  25.787  21.043   1.222
53305W        W19846   6.219  31.772  14.502
53306W        W19847   7.420  24.180   0.433
53307W        W19848   4.341   6.848  10.874
53308W        W19849  29.449  10.104  11.581
53309W        W19850  29.568   6.644   1.695
53310W        W19851  25.406  33.162   4.723
53311W        W19852   5.532   7.555   1.755
53312W        W19853   0.302  34.863  12.092
53313W        W19854  30.549  13.135  12.006
53314W        W19855  16.231   5.364  13.933
53315W        W19856   4.763  32.524  10.510
53316W        W19857   9.165  37.882  14.520
53317W        W19858   6.764  42.157  13.673
53318W        W19859   0.016  37.115  13.070
53319W        W19860  33.639  33.516   9.890
53320W        W19861  18.350  30.203   4.062
53321W        W19862  19.512   2.886  12.542
53322W        W19863  29.014  27.964   0.144
53323W        W19864   1.676  20.890  12.980
53324W        W19865  26.687   2.263   4.672
53325W        W19866  40.649  43.493  11.832
53326W        W19867   1.369  16.141   0.671
53327W        W19868  36.850  17.841   0.777
53328W        W19869   6.403   3.991   3.269
53329W        W19870  24.779  14.759   3.766
53330W        W19871  21.823  42.375   3.570
53331W        W19872  24.475  18.201  12.966
53332W        W19873  14.926  41.297  12.089
53333W        W19874  12.816  43.296   4.605
53334W        W19875  32.787  25.003   4.125
53335W        W19876  23.663  36.660  11.995
53336W        W19877  24.045   2.459  12.233
53337W        W19878  24.149  19.024   2.160
53338W        W19879  25.294  42.666  13.784
53339W        W19880  40.473  39.426   0.493
53340W        W19881  13.492  11.160   2.810
53341W        W19882  10.040  26.116   2.969
53342W        W19883   5.447  13.849  11.175
53343W        W19884  34.652  23.789  14.332
53344W        W19885   3.631  33.907  13.784
53345W        W19886  34.017  23.210   1.896
53346W        W19887   9.823  41.022  11.076
53347W        W19888  39.131  38.063  13.995
53348W        W19889   1.270  14.147  13.431
53349W        W19890  38.733   9.311   5.045
53350W        W19891  13.529  25.637  12.418
53351W        W19892  16.693  40.863   4.837
53352W        W19893  36.845  43.419  14.906
53353W        W19894   5.911  43.911   0.307
53354W        W19895  30.585  27.977   4.089
53355W        W19896  23.190   0.943  10.181
53356W        W19897   3.386   8.142   2.666
53357W        W19898  15.678   8.792   5.029
53358W        W19899  35.510  23.529  11.906
53359W        W19900  12.764  37.304   4.326
53360W        W19901  36.294  22.774   3.177
53361W        W19902  30.156   3.871   0.888
53362W        W19903  15.079  25.673   1.746
53363W        W19904  42.945  30.154  13.092
53364W        W19905  33.125  12.655  14.616
53365W        W19906  37.732  32.626  12.860
53366W        W19907   3.446  30.886  14.026
53367W        W19908  41.837   2.149  11.217
53368W        W19909  36.498   9.201  13.132
53369W        W19910  26.509  36.635  13.719
53370W        W19911  16.327   9.058  10.209
53371W        W19912   0.194  25.652   1.783
53372W        W19913   4.066  41.413  12.966
53373W        W19914  31.274  29.476  12.545
53374W        W19915  15.379   7.415  11.169
53375W        W19916  22.259   9.895  13.412
53376W        W19917  13.976   7.265  11.456
53377W        W19918  16.194  38.975  14.095
53378W        W19919  28.614  12.624  13.754
53379W        W19920  23.125  43.286  14.401
53380W        W19921   8.903  16.890   4.549
53381W        W19922  11.627  11.143  11.950
53382W        W19923  23.185   5.383  12.569
53383W        W19924   0.760   7.338  13.058
53384W        W19925  41.495  13.807  14.239
53385W        W19926  36.807  28.516  13.361
53386W        W19927   4.065   9.368  13.211
53387W        W19928  30.982  44.429   2.712
53388W        W19929  15.616  16.148  11.645
53389W        W19930  41.769  15.167   0.493
53390W        W19931  11.742  28.625  14.151
53391W        W19932   8.490  32.336   0.971
53392W        W19933  14.427  37.002   2.116
53393W        W19934  38.070   5.370   4.745
53394W        W19935  27.974  19.807  14.238
53395W        W19936  13.007  10.024  14.517
53396W        W19937   0.749  44.189   9.614
53397W        W19938   2.683  35.628  11.455
53398W        W19939  38.929  19.098  14.428
53399W        W19940  15.238  29.418   2.248
53400W        W19941  25.939  29.062  13.608
53401W        W19942  23.416  22.881  12.319
53402W        W19943   1.539  44.365  10.645
53403W        W19944  32.764  13.587   1.410
53404W        W19945  14.356  36.424   4.871
53405W        W19946   5.674  44.242   4.052
53406W        W19947  38.386  22.576  11.603
53407W        W19948   0.309   4.270   2.714
53408W        W19949  40.792   9.899  10.591
53409W        W19950  39.021  39.140   2.674
53410W        W19951  29.100   2.201  11.509
53411W        W19952  42.012  18.576  12.991
53412W        W19953  19.447   4.814  13.905
53413W        W19954   0.272  16.127   4.674
53414W        W19955  24.738   2.981   2.980
53415W        W19956  42.877  28.303   4.071
53416W        W19957  32.930  19.363   0.341
53417W        W19958  19.162  30.448   3.778
53418W        W19959  26.765   9.622   1.007
53419W        W19960   2.845   4.046   0.853
53420W        W19961  12.356  44.033  12.625
53421W        W19962  29.521  26.971   3.676
53422W        W19963  26.475  40.109   9.620
53423W        W19964   8.307  12.303   2.278
53424W        W19965  12.452  12.960  13.360
53425W        W19966   6.358  12.533   3.393
53426W        W19967  24.355  16.347   2.229
53427W        W19968  21.159  12.810  11.040
53428W        W19969  25.175  13.638   0.951
53429W        W19970  30.645  21.122   2.294
53430W        W19971  17.878  32.330   0.063
53431W        W19972  19.573   3.256   0.165
53432W        W19973  32.037  21.206   2.762
53433W        W19974  26.772  31.987   0.928
53434W        W19975  44.453  37.676   4.711
53435W        W19976  16.371  14.626   4.115
53436W        W19977  43.976  19.078  12.817
53437W        W19978  22.018  32.230   1.657
53438W        W19979  44.748  14.676   2.805
53439W        W19980  43.982  24.149   1.426
53440W        W19981   5.423  20.747   4.118
53441W        W19982  29.532   1.239   1.452
53442W        W19983  32.687  33.948   2.411
53443W        W19984  19.877  25.537   4.426
53444W        W19985   6.288  23.093  10.680
53445W        W19986  44.878   0.484  10.721
53446W        W19987  38.589  32.907   1.173
53447W        W19988  30.402  40.695  10.893
53448W        W19989   1.690  41.216  11.029
53449W        W19990  11.489  21.304   2.275
53450W        W19991  15.123  26.272   2.734
53451W        W19992  22.160  43.764  10.753
53452W        W19993  35.051  21.625  13.509
53453W        W19994  11.244  39.574  10.659
53454W        W19995  19.059   9.388  14.908
53455W        W19996   2.182   1.002  14.421
53456W        W19997  15.311  42.950   2.186
53457W        W19998  26.581  17.537  14.803
53458W        W19999   5.004  25.494  13.968
53459W        W20000  38.901  21.687   1.266
53460W        W20001   2.050  29.067  11.131
53461W        W20002  22.803   4.027   3.682
53462W        W20003   9.846   4.472   3.558
53463W        W20004   1.512  19.332   2.684
53464W        W20005  39.681  17.142  14.345
53465W        W20006  19.675  20.030   2.747
53466W        W20007  11.589  16.204   2.700
53467W        W20008  33.194   1.236  14.048
53468W        W20009  17.832  40.988  11.405
53469W        W20010  34.600  15.648  11.958
53470W        W20011  18.294  42.492   4.179
53471W        W20012   1.373  29.788   2.797
53472W        W20013   6.462  14.272   0.389
53473W        W20014  36.543  41.030   1.323
53474W        W20015   4.661  28.460  13.533
53475W        W20016  23.514  26.564   0.550
53476W        W20017   2.270  17.077  10.938
53477W        W20018  42.792  39.235   2.209
53478W        W20019  18.038  20.528  10.637
53479W        W20020  22.328  30.221   2.940
53480W        W20021   9.422   4.299   4.184
53481W        W20022  15.277  36.153   2.632
53482W        W20023  38.418  17.217   4.643
53483W        W20024   2.293  30.990   2.322
53484W        W20025  28.118  26.956   3.845
53485W        W20026   3.349  28.159   4.113
53486W        W20027  18.341  26.127  13.548
53487W        W20028   4.206  23.993   0.362
53488W        W20029  22.474  35.039   2.288
53489W        W20030  17.593  31.913  14.430
53490W        W20031  16.212  40.917   3.537
53491W        W20032  39.148  43.143   2.323
53492W        W20033   0.929   7.635   2.253
53493W        W20034  15.533  31.484   0.681
53494W        W20035  22.508  25.434  12.614
53495W        W20036  31.690  15.137  11.609
53496W        W20037  18.234   6.352   0.511
53497W        W20038  35.834   5.392  14.847
53498W        W20039  37.370  26.243  11.032
53499W        W20040  23.148   6.122  11.114
53500W        W20041  21.060  24.466   1.253
53501W        W20042  30.946  44.252  12.523
53502W        W20043  42.437  31.101   4.570
53503W        W20044  27.501  34.568   2.893
53504W        W20045   5.815  42.855   3.134
53505W        W20046  21.571   6.066  12.633
53506W        W20047  39.993  25.996  11.494
53507W        W20048  29.383  14.119   2.722
53508W        W20049  33.067   8.502   2.231
53509W        W20050  38.056   4.700   2.677
53510W        W20051  43.321  31.963   1.242
53511W        W20052  43.212  43.133  13.835
53512W        W20053  44.515  12.766   3.993
53513W        W20054  24.121  25.014   4.510
53514W        W20055  31.117  15.326  12.990
53515W        W20056  32.932   7.252  13.397
53516W        W20057  42.155  29.814   4.611
53517W        W20058  28.712  32.259  13.408
53518W        W20059  39.870  44.519  11.284
53519W        W20060   0.684  19.059  13.476
53520W        W20061  40.496  34.582   1.908
53521W        W20062   5.862  40.183   0.828
53522W        W20063   5.462  18.596  13.903
53523W        W20064  15.386  30.912   4.540
53524W        W20065  44.418  12.838  14.540
53525W        W20066  23.007  12.731   3.146
53526W        W20067  12.565  40.265   0.872
53527W        W20068  31.072  22.730   2.769
53528W        W20069   2.959   2.602  12.096
53529W        W20070  12.762  11.780  14.488
53530W        W20071  28.118  27.095   0.985
53531W        W20072  26.731  18.050   3.574
53532W        W20073  26.404   5.331  11.978
53533W        W20074  21.362  17.306  13.610
53534W        W20075  10.910   9.776  12.454
53535W        W20076  18.717  15.242  14.996
53536W        W20077  27.583  21.042  14.169
53537W        W20078   9.226   7.894  11.113
53538W        W20079  19.429  34.600  14.678
53539W        W20080  22.303  21.898  14.673
53540W        W20081  44.258   3.569  13.541
53541W        W20082   2.730  15.516  12.008
53542W        W20083  12.611  33.669   3.612
53543W        W20084  19.377  18.621   0.602
53544W        W20085  42.868  40.079  14.496
53545W        W20086  28.638   1.043   4.729
53546W        W20087  17.777   3.228  13.878
53547W        W20088  38.864  14.435   1.591
53548W        W20089   4.819  27.509  10.710
53549W        W20090  24.648  14.652  12.397
53550W        W20091  11.687  13.151  12.171
53551W        W20092  10.845   7.212  14.430
53552W        W20093  21.024  36.042   1.706
53553W        W20094   1.948  35.353   2.455
53554W        W20095  35.262  37.985   3.531
53555W        W20096  23.684  11.783  12.968
53556W        W20097  39.349  40.771   0.469
53557W        W20098  39.205   4.478  12.036
53558W        W20099  40.864  15.323   0.436
53559W        W20100  25.493  11.185   3.280
53560W        W20101  24.388   0.099  14.947
53561W        W20102  11.346  34.179   0.405
53562W        W20103  41.149   9.025  10.803
53563W        W20104  41.195  16.528   1.267
53564W        W20105  30.680  22.728   2.407
53565W        W20106  43.967  41.401  11.141
53566W        W20107  44.320  28.118   4.575
53567W        W20108   2.391  30.125   0.488
53568W        W20109   0.435  37.092   3.854
53569W        W20110  41.583  25.043   0.596
53570W        W20111  11.586   8.790  10.889
53571W        W20112   4.225  31.987  12.455
53572W        W20113   9.679  40.694  10.626
53573W        W20114   9.678  44.885  10.923
53574W        W20115   0.259  16.404  13.450
53575W        W20116  28.725  36.226  13.689
53576W        W20117  34.423  43.500  14.155
53577W        W20118   1.274  29.485  12.026
53578W        W20119  28.949  19.799   4.125
53579W        W20120  17.639  12.385  13.422
53580W        W20121   5.433   5.180   4.131
53581W        W20122  36.840  13.865   2.955
53582W        W20123  11.858  29.490   3.938
53583W        W20124  17.023  37.130   4.665
53584W        W20125  31.384  43.143  13.988
53585W        W20126  27.677  12.273   3.167
53586W        W20127  42.315  21.287  12.913
53587W        W20128  31.182  43.312   0.334
53588W        W20129  42.011  24.042  12.024
53589W        W20130  41.252  35.458  11.404
53590W        W20131  12.731  24.706   3.274
53591W        W20132   3.950   7.114  14.964
53592W        W20133  19.917  18.200  10.527
53593W        W20134   6.986  24.198  12.517
53594W        W20135  36.967  41.289   0.402
53595W        W20136   7.003  33.158   1.835
53596W        W20137   8.867  24.482  13.580
53597W        W20138  29.127  28.925   1.204
53598W        W20139  34.328  41.367   0.389
53599W        W20140   6.876  23.714  11.633
53600W        W20141  10.937  26.697   1.372
53601W        W20142   1.928  34.907   2.201
53602W        W20143  22.919  39.077   5.008
53603W        W20144   6.568  13.243   2.176
53604W        W20145  15.816  37.819   1.170
53605W        W20146  12.325  24.671   0.314
53606W        W20147  26.795  18.040  11.220
53607W        W20148  33.545  19.599   2.644
53608W        W20149  14.845  17.102   3.255
53609W        W20150  17.280   3.211  14.298
53610W        W20151  20.975  42.812   1.514
53611W        W20152  19.734  29.014   4.840
53612W        W20153  10.679   7.315   2.912
53613W        W20154  12.614  36.009   2.282
53614W        W20155   5.825   5.768   3.302
53615W        W20156   5.825  24.310   0.346
53616W        W20157   6.290  37.936  14.915
53617W        W20158   6.737  36.707   4.675
53618W        W20159   8.203  18.169  12.989
53619W        W20160  42.418   5.848  11.156
53620W        W20161  11.490  38.478  11.474
53621W        W20162  33.612   9.692  14.461
53622W        W20163  40.446   8.126   4.191
53623W        W20164  32.460  21.531  13.401
53624W        W20165   7.638   2.574  11.544
53625W        W20166  16.170  35.395   1.405
53626W        W20167   2.844  27.832  11.999
53627W        W20168  10.780   3.897   2.363
53628W        W20169  11.290  29.219   4.098
53629W        W20170  26.030  18.100  13.338
53630W        W20171  10.874  35.390   2.594
53631W        W20172  38.831  37.797   0.392
53632W        W20173  18.566  31.914   1.712
53633W        W20174  38.302  17.653  12.856
53634W        W20175  25.536  44.491  10.389
53635W        W20176   2.026   3.456  10.949
53636W        W20177  25.814   1.954  13.027
53637W        W20178  34.709  38.122  14.376
53638W        W20179   3.850  20.207   2.666
53639W        W20180   4.258  12.357  11.935
53640W        W20181  30.030  26.816   0.983
53641W        W20182   3.268  27.449  13.991
53642W        W20183  35.048   4.826  13.957
53643W        W20184  31.836   8.988   4.683
53644W        W20185  43.308  19.687  13.752
53645W        W20186   8.678   0.993   4.677
53646W        W20187  43.268  39.923  13.791
53647W        W20188  42.431  26.009  12.690
53648W        W20189  26.705  41.515  11.434
53649W        W20190  38.965  40.812  10.940
53650W        W20191  25.084  34.714   0.486
53651W        W20192  36.460  10.230   4.917
53652W        W20193  37.610  19.303  13.856
53653W        W20194  13.086  37.025  10.529
53654W        W20195  19.229  17.076  11.551
53655W        W20196  28.982  37.930   2.280
53656W        W20197  43.920  19.987  12.567
53657W        W20198   3.510  10.668   0.405
53658W        W20199  38.134  18.052   3.698
53659W        W20200  22.779  25.741  13.586
53660W        W20201   9.650  29.655   4.935
53661W        W20202   6.865  28.094   3.550
53662W        W20203   4.838  38.791   3.275
53663W        W20204  38.519  16.078  12.014
53664W        W20205   5.570   4.977   0.196
53665W        W20206  13.133  28.226  12.421
53666W        W20207   9.097  35.765  14.429
53667W        W20208   4.632  30.183  11.474
53668W        W20209   3.923  22.221   0.416
53669W        W20210  19.735  43.373   0.415
53670W        W20211  15.816  38.069   0.153
53671W        W20212  15.076  27.154  14.092
53672W        W20213  15.175   6.738   4.009
53673W        W20214   6.190  26.332   0.441
53674W        W20215  36.491  31.518  13.065
53675W        W20216   6.855  44.700  12.627
53676W        W20217  42.878  34.624  10.724
53677W        W20218  33.964  24.914  13.893
53678W        W20219  16.658  18.596  12.055
53679W        W20220  15.587   4.605  13.898
53680W        W20221  25.726  43.043  12.921
53681W        W20222  33.013   5.891   1.016
53682W        W20223  39.013   5.123  10.672
53683W        W20224   3.341  14.595   0.841
53684W        W20225  29.100  43.303   4.392
53685W        W20226  43.081  24.895  14.095
53686W        W20227  11.939  25.134   3.086
53687W        W20228  38.838  19.800  13.856
53688W        W20229  41.483  10.292   3.358
53689W        W20230  43.857  10.597  14.519
53690W        W20231  43.451  17.892  11.049
53691W        W20232  12.085  26.452   3.225
53692W        W20233   1.276  16.148  14.836
53693W        W20234  30.398  29.176   2.707
53694W        W20235  17.949  12.334   3.608
53695W        W20236  12.159  25.920  12.397
53696W        W20237  31.888  28.982  14.524
53697W        W20238  33.683  43.982   4.712
53698W        W20239  20.813  43.182  12.754
53699W        W20240   6.461  31.737   2.131
53700W        W20241  20.085  30.807   4.665
53701W        W20242  44.259  35.401   3.113
53702W        W20243  22.736  41.444   4.127
53703W        W20244   2.765  20.281  14.514
53704W        W20245  44.050  29.944   0.467
53705W        W20246  23.742  37.372   2.216
53706W        W20247  12.322  16.694  12.578
53707W        W20248  41.370  35.187   3.374
53708W        W20249  42.828  43.717  13.261
53709W        W20250  40.547  29.682   2.131
53710W        W20251  12.606   8.787  14.436
53711W        W20252   7.386  14.796   4.091
53712W        W20253  29.936  37.237   1.678
53713W        W20254  44.870  35.325  14.445
53714W        W20255   4.296  38.663  13.550
53715W        W20256  26.641  32.650  10.540
53716W        W20257  22.136  13.049  12.118
53717W        W20258   6.774   4.642   2.339
53718W        W20259  27.605   6.911  11.932
53719W        W20260  13.237  44.870   4.511
53720W        W20261  13.779  38.363   3.771
53721W        W20262  12.753  14.604   4.581
53722W        W20263  30.457  17.993  10.515
53723W        W20264  14.198   0.472   1.693
53724W        W20265   2.665  42.597   3.903
53725W        W20266   1.051  12.878   2.593
53726W        W20267  18.736   0.112  14.143
53727W        W20268  22.783   5.340  14.028
53728W        W20269  30.475  20.172   1.351
53729W        W20270  18.124  27.239   4.835
53730W        W20271  33.620   1.135   1.232
53731W        W20272  35.399  18.318  11.977
53732W        W20273   3.266  40.802   3.261
53733W        W20274  22.611  33.404  11.860
53734W        W20275   5.976  18.405  11.072
53735W        W20276  24.697   8.733  10.745
53736W        W20277  10.398  16.843  12.557
53737W        W20278  44.548   9.847   2.770
53738W        W20279  26.196  35.319   1.056
53739W        W20280  29.542  11.949  12.612
53740W        W20281  27.188  14.290   3.049
53741W        W20282  14.606  40.543  11.119
53742W        W20283  17.580  34.635   1.342
53743W        W20284  42.910  42.824   1.405
53744W        W20285   5.184  42.965  14.473
53745W        W20286  14.605  35.593   0.729
53746W        W20287  22.557  27.957   1.477
53747W        W20288  35.056  17.089   0.214
53748W        W20289  37.240  29.281   2.590
53749W        W20290   4.346  34.039  10.797
53750W        W20291  19.111  21.192  14.002
53751W        W20292  40.638  30.437  13.643
53752W        W20293   6.855  26.199  14.305
53753W        W20294  22.645  21.768   1.455
53754W        W20295   3.095  33.632  14.930
53755W        W20296  27.743  14.206   1.203
53756W        W20297  13.367  34.131  13.843
53757W        W20298  20.335  40.798   0.298
53758W        W20299  43.343  11.906   0.265
53759W        W20300  11.628   5.742  10.990
53760W        W20301  36.285  26.903  12.047
53761W        W20302   9.423  13.275  10.390
53762W        W20303  12.324  18.203   3.752
53763W        W20304  30.273  18.810  11.709
53764W        W20305  25.952  28.720  11.119
53765W        W20306  44.517   8.866   2.702
53766W        W20307  40.485   8.804   3.027
53767W        W20308   7.945  17.846   2.107
53768W        W20309   1.272  16.787   4.171
53769W        W20310  31.705   0.413  14.079
53770W        W20311  41.275  16.676  14.548
53771W        W20312   8.172  17.922  12.518
53772W        W20313  39.375  37.470  13.095
53773W        W20314  14.613   8.964   4.050
53774W        W20315  11.336  38.815   1.260
53775W        W20316  10.399  37.900  14.064
53776W        W20317  24.631  10.910   0.349
53777W        W20318  30.605   2.465  13.078
53778W        W20319  35.490   7.867  13.472
53779W        W20320  16.088  22.798  13.913
53780W        W20321  38.256   6.811   0.300
53781W        W20322   0.914  30.508  11.617
53782W        W20323  36.334  14.386  12.399
53783W        W20324  42.740  19.374  13.258
53784W        W20325  24.143   1.267  14.292
53785W        W20326  38.124  22.451  11.147
53786W        W20327  30.575  19.513   3.208
53787W        W20328  15.341  27.739  12.861
53788W        W20329  14.872  24.243  12.300
53789W        W20330  21.036  13.296   3.262
53790W        W20331   5.758  28.473   1.259
53791W        W20332  31.557  35.905  10.558
53792W        W20333  16.211  20.785  12.338
53793W        W20334  15.772  32.494   0.020
53794W        W20335   8.423  38.633   0.349
53795W        W20336   8.794  21.531  13.319
53796W        W20337  13.335   1.781   3.156
53797W        W20338  43.947   9.604   2.324
53798W        W20339   1.902  44.581   2.620
53799W        W20340  40.845  13.757   1.911
53800W        W20341  11.160  44.812  13.333
53801W        W20342  27.700  33.009  12.139
53802W        W20343  31.362   4.380  12.870
53803W        W20344   0.905  42.739   2.825
53804W        W20345  15.157  11.154  11.558
53805W        W20346  38.271   3.198  12.667
53806W        W20347  41.759  33.338   0.968
53807W        W20348  41.070  18.032   4.540
53808W        W20349  25.669  15.744   1.333
53809W        W20350  12.214  26.115   1.417
53810W        W20351  28.346   2.994   3.614
53811W        W20352  22.876  22.442   3.657
53812W        W20353   5.083  10.712  11.680
53813W        W20354  26.365  23.149   0.826
53814W        W20355   0.011  18.122  14.742
53815W        W20356  25.573  21.178   3.323
53816W        W20357  30.862  15.510  13.392
53817W        W20358  16.137  35.331   0.389
53818W        W20359  37.773  18.502   1.003
53819W        W20360  41.261  16.634  11.427
53820W        W20361  24.780   0.910   3.012
53821W        W20362   3.384  38.838   0.257
53822W        W20363   3.580  21.267  13.432
53823W        W20364  43.837  21.766  11.989
53824W        W20365  14.798  16.318  11.211
53825W        W20366   6.698  14.591  12.356
53826W        W20367  20.743  23.891  12.027
53827W        W20368  15.775  30.036   0.848
53828W        W20369  28.437   1.631   2.991
53829W        W20370  22.574  29.129  12.093
53830W        W20371  30.658  18.842  14.278
53831W        W20372  36.439  27.654   2.315
53832W        W20373   7.052  24.709  13.359
53833W        W20374  14.538  24.776   2.106
53834W        W20375  15.649  40.257  14.915
53835W        W20376  36.475  36.374  11.636
53836W        W20377  10.002  11.669  12.651
53837W        W20378  18.304   1.535  14.918
53838W        W20379  36.441   7.246  13.766
53839W        W20380  10.384  30.571  12.014
53840W        W20381  22.666  11.347   3.981
53841W        W20382  35.601  34.656   2.206
53842W        W20383  28.168  37.649  12.952
53843W        W20384   6.938  40.410   2.703
53844W        W20385   9.279   4.529   0.551
53845W        W20386  43.353   0.239   3.719
53846W        W20387  25.400  43.064  11.266
53847W        W20388  37.385  11.379  13.224
53848W        W20389  36.385   1.872  12.477
53849W        W20390  27.096  31.065  14.786
53850W        W20391  36.244   0.026   2.718
53851W        W20392  10.889  39.161   2.581
53852W        W20393  12.974  31.622   0.180
53853W        W20394  40.919  28.444  13.507
53854W        W20395  20.792  19.158   0.977
53855W        W20396  38.760  21.815  13.832
53856W        W20397  19.083  14.690  13.459
53857W        W20398   8.143  33.427   3.205
53858W        W20399   1.520  31.535   3.155
53859W        W20400   7.616  24.040  14.967
53860W        W20401  37.409  29.081  13.573
53861W        W20402  43.904   2.036   3.392
53862W        W20403  16.911  18.946   2.386
53863W        W20404  19.074   5.724   4.692
53864W        W20405  17.345  33.208   1.843
53865W        W20406  21.188  18.583   0.266
53866W        W20407  14.111  19.166   1.853
53867W        W20408  43.215  41.177  10.208
53868W        W20409  21.209  33.093  10.716
53869W        W20410  33.616  13.404  14.439
53870W        W20411  14.809  12.721   4.859
53871W        W20412  29.838  10.606  12.374
53872W        W20413  20.438  29.750   1.361
53873W        W20414  26.517   0.033   4.534
53874W        W20415  24.304  17.160   1.334
53875W        W20416  22.609  16.064  13.623
53876W        W20417  25.064  36.562   4.550
53877W        W20418  28.050  36.848  13.941
53878W        W20419  33.313  11.695   2.348
53879W        W20420  12.740  30.527  13.489
53880W        W20421  31.592   4.830   3.208
53881W        W20422  21.429  26.993   2.676
53882W        W20423   8.486   8.108  13.126
53883W        W20424  43.498  33.146  13.964
53884W        W20425  43.467   8.944   3.999
53885W        W20426   6.143  17.244   4.993
53886W        W20427   5.105  15.493   0.949
53887W        W20428   3.175  14.697  14.869
53888W        W20429   1.268  28.536  10.745
53889W        W20430  26.196  36.790  12.236
53890W        W20431  16.561  13.894  10.065
53891W        W20432  25.535  19.862  14.324
53892W        W20433  19.085   7.642  12.796
53893W        W20434  23.496  10.503  13.026
53894W        W20435  15.603  42.546  11.904
53895W        W20436  37.483   0.286  10.890
53896W        W20437  22.598  37.128   1.868
53897W        W20438  33.126  20.640  13.776
53898W        W20439  22.683  34.099  13.070
53899W        W20440  20.181  19.798   4.091
53900W        W20441  29.939  30.121  14.010
53901W        W20442   6.187  20.144   3.828
53902W        W20443   5.230   2.877   1.735
53903W        W20444  27.774  23.852   0.893
53904W        W20445  39.670  33.111   4.420
53905W        W20446  19.625  32.388   3.732
53906W        W20447  39.366  31.964   1.006
53907W        W20448  43.160  22.732   2.426
53908W        W20449   0.153  12.651   3.038
53909W        W20450  43.455  24.129  11.034
53910W        W20451  12.124  36.721   2.306
53911W        W20452  41.058  41.986  13.564
53912W        W20453  29.972   2.992  14.988
53913W        W20454  38.197  13.901   5.115
53914W        W20455   7.395  14.975  13.495
53915W        W20456  40.572  22.768  11.076
53916W        W20457   2.408  33.590   4.734
53917W        W20458  24.581  32.106   2.111
53918W        W20459  17.947  16.979  12.769
53919W        W20460  20.179  11.200  11.996
53920W        W20461  23.774  24.238   0.878
53921W        W20462  31.352  14.935   5.449
53922W        W20463   2.804  44.475   0.946
53923W        W20464  36.049  21.580  13.918
53924W        W20465  40.802   5.156  12.999
53925W        W20466  26.435  13.801  13.518
53926W        W20467  42.646  44.657   3.580
53927W        W20468  36.987  18.246  11.592
53928W        W20469   5.447   7.933   3.476
53929W        W20470  33.116  35.507  14.293
53930W        W20471  28.187  27.153  11.683
53931W        W20472  29.544  10.830   1.561
53932W        W20473  24.655  22.621  10.975
53933W        W20474   7.478  44.339  13.920
53934W        W20475  44.244  16.842   2.952
53935W        W20476   6.512  15.143   0.840
53936W        W20477  14.680  27.437  13.344
53937W        W20478  24.468  15.197   4.850
53938W        W20479  37.290  15.711  10.113
53939W        W20480   8.924  15.331  13.335
53940W        W20481  43.926  12.653  12.399
53941W        W20482  23.725  10.818  13.415
53942W        W20483  16.935  36.295  12.881
53943W        W20484  25.781  42.844  13.808
53944W        W20485  22.622  30.845  12.542
53945W        W20486   0.364   1.513  14.721
53946W        W20487  19.417  24.707  14.909
53947W        W20488  42.985  12.910  14.316
53948W        W20489  22.842  11.342  13.402
53949W        W20490   6.141   8.165  11.739
53950W        W20491   5.657  37.161   3.591
53951W        W20492  33.604  13.562  10.265
53952W        W20493  18.733  32.052  11.174
53953W        W20494  25.667  32.952  14.928
53954W        W20495  41.021  35.614   0.165
53955W        W20496  22.446  10.895  11.153
53956W        W20497  41.681  16.050   0.766
53957W        W20498  21.820  21.338   3.725
53958W        W20499  23.983  42.802   0.434
53959W        W20500  16.351  37.433   3.680
53960W        W20501  20.833  34.562  14.025
53961W        W20502  32.900   2.081   1.736
53962W        W20503  14.910  38.072  14.472
53963W        W20504  10.421  40.984  11.571
53964W        W20505   7.361  12.185   1.147
53965W        W20506  34.669  24.107   4.646
53966W        W20507  10.401   4.298  11.424
53967W        W20508  25.929  14.656   0.907
53968W        W20509  23.804  19.828  11.067
53969W        W20510  26.620  28.266   0.296
53970W        W20511  15.498   3.438   1.693
53971W        W20512  24.744  31.427  13.064
53972W        W20513   6.748  30.467  14.059
53973W        W20514  39.648  40.048   3.630
53974W        W20515  20.237  26.524   0.568
53975W        W20516  22.084   3.210  14.533
53976W        W20517  39.566  28.941  14.800
53977W        W20518   5.573  28.035  11.517
53978W        W20519  34.528  35.101  14.764
53979W        W20520   1.032  36.389  12.620
53980W        W20521  21.278  20.066  14.789
53981W        W20522  44.918   9.611  10.468
53982W        W20523  13.272   0.238  12.525
53983W        W20524   0.841  19.290   0.344
53984W        W20525  29.958  14.767  11.980
53985W        W20526  43.261   2.515  11.173
53986W        W20527   6.169   6.189  14.255
53987W        W20528  29.781  16.813  14.857
53988W        W20529  14.003   1.388   3.869
53989W        W20530  39.500   9.420   1.437
53990W        W20531  35.330   3.364   3.047
53991W        W20532  43.404  25.777  12.904
53992W        W20533  44.269  22.541  14.824
53993W        W20534  33.880   7.155   4.186
53994W        W20535  42.071   8.820   0.963
53995W        W20536  30.620  11.161   3.809
53996W        W20537   7.572  10.412  12.874
53997W        W20538  27.404  37.436   1.724
53998W        W20539   7.746   1.542  11.488
53999W        W20540  35.434  17.191  11.737
54000W        W20541  41.760  35.345   3.676
54001W        W20542  41.861  34.083   1.653
54002W        W20543  22.809   6.216   3.252
54003W        W20544  43.556  29.146  10.744
54004W        W20545  14.664  14.057   4.290
54005W        W20546  40.897  10.712  12.860
54006W        W20547  23.710  33.654   1.756
54007W        W20548  43.882  40.489  13.177
54008W        W20549  41.040  42.221   3.740
54009W        W20550  14.748  24.550  13.629
54010W        W20551   9.487  13.798  13.551
54011W        W20552  24.776  42.887   2.877
54012W        W20553  22.842  10.842   2.591
54013W        W20554  37.638   5.696  13.365
54014W        W20555   1.047   9.741  13.571
54015W        W20556  42.764  32.454  12.300
54016W        W20557  10.882   8.912   0.772
54017W        W20558  17.542  20.397  11.633
54018W        W20559  36.149  28.865   4.264
54019W        W20560   5.315  33.068  11.053
54020W        W20561  14.445   0.700   1.271
54021W        W20562  14.492   8.593   1.917
54022W        W20563  38.724  34.403   3.666
54023W        W20564   3.323  17.120   2.706
54024W        W20565  20.973   7.403   0.072
54025W        W20566  39.082  11.166  12.932
54026W        W20567  19.243  19.847   3.136
54027W        W20568  37.643  39.558   0.290
54028W        W20569  19.641  23.746  11.114
54029W        W20570  43.439  28.739  14.848
54030W        W20571  12.292  17.515   1.483
54031W        W20572  43.025  23.159  12.937
54032W        W20573  43.884  15.877   2.810
54033W        W20574  11.223  41.247   3.637
54034W        W20575  36.071  36.472   2.331
54035W        W20576  25.529  10.717   2.251
54036W        W20577  36.334  36.998   1.403
54037W        W20578  34.074  20.734  11.087
54038W        W20579   7.898   1.440  14.953
54039W        W20580  15.444  44.542   0.106
54040W        W20581  17.469  39.075   4.551
54041W        W20582  16.738  41.826   1.285
54042W        W20583  14.811  39.908   3.533
54043W        W20584   2.994   1.763   1.717
54044W        W20585  21.625  33.847   2.829
54045W        W20586   3.194  25.085   0.212
54046W        W20587   6.686  30.755   4.208
54047W        W20588  18.808  41.073   2.115
54048W        W20589  39.274  31.448   1.797
54049W        W20590  44.076   0.092  13.428
54050W        W20591  19.389   7.206  13.954
54051W        W20592   7.938  44.408   3.751
54052W        W20593  17.116  24.586  13.877
54053W        W20594  14.626  32.192   1.320
54054W        W20595  20.662  21.318   1.228
54055W        W20596  34.622  37.074  11.129
54056W        W20597  30.850  44.411  13.433
54057W        W20598   3.656  33.053   1.403
54058W        W20599  42.930  28.947  13.968
54059W        W20600  38.205  34.627   5.003
54060W        W20601  28.584   9.267   3.418
54061W        W20602  12.018   1.517  13.969
54062W        W20603  39.270  40.378   3.445
54063W        W20604  25.804  30.106  14.726
54064W        W20605  13.151  29.209  12.456
54065W        W20606  11.255   6.695  13.278
54066W        W20607  43.937  40.947  11.894
54067W        W20608   5.735  44.700   3.168
54068W        W20609  29.389  32.122  10.761
54069W        W20610  37.887   3.901  12.018
54070W        W20611  21.061  42.762  10.738
54071W        W20612  13.561  15.805   0.338
54072W        W20613  34.857  36.769   3.477
54073W        W20614   8.746   4.665   5.039
54074W        W20615   9.758  29.671   3.842
54075W        W20616   5.161  18.794  10.807
54076W        W20617  38.764  18.802  10.847
54077W        W20618  36.363   9.839  13.931
54078W        W20619   6.659  30.376  13.563
54079W        W20620  22.556  37.603   2.795
54080W        W20621   7.526   6.344  14.224
54081W        W20622  30.914  32.516  11.143
54082W        W20623  29.969  31.065  10.725
54083W        W20624   1.652   8.284  11.261
54084W        W20625  41.257   4.281   3.257
54085W        W20626  41.398   2.927  13.244
54086W        W20627  33.866  12.487  13.711
54087W        W20628   6.604  39.296  13.060
54088W        W20629  29.215   6.018   2.781
54089W        W20630  17.107  37.615   0.940
54090W        W20631  40.239  30.557   1.316
54091W        W20632  33.990  14.628   3.720
54092W        W20633  33.846  36.302  11.591
54093W        W20634   9.676  29.187   3.638
54094W        W20635  40.409  24.196   1.771
54095W        W20636  16.579  25.059  14.458
54096W        W20637  37.856  34.066  13.764
54097W        W20638  19.132   4.746   0.881
54098W        W20639  27.204  17.192  13.892
54099W        W20640  19.778   9.881   0.327
54100W        W20641  18.890   9.168   2.887
54101W        W20642  10.742  20.505  13.153
54102W        W20643  44.560  31.093  14.456
54103W        W20644  13.116   2.744  11.391
54104W        W20645  41.448  43.428   4.418
54105W        W20646  14.121   0.730  11.136
54106W        W20647  27.170  11.824   0.310
54107W        W20648  16.318  32.147   1.087
54108W        W20649   6.571  12.315  11.599
54109W        W20650  42.306   2.623   3.163
54110W        W20651   1.716  39.306   3.344
54111W        W20652   9.309  16.807   3.258
54112W        W20653  26.466   9.839   4.288
54113W        W20654  40.963  24.257  13.924
54114W        W20655  19.571  16.603   2.052
54115W        W20656   5.751  29.689   4.880
54116W        W20657  44.747   1.875   4.222
54117W        W20658  40.415  18.923  11.585
54118W        W20659  41.961  44.036   1.815
54119W        W20660   2.509   0.856  14.047
54120W        W20661  38.906  13.916   0.701
54121W        W20662  15.302  10.821  14.682
54122W        W20663  31.908  38.053  13.783
54123W        W20664  13.798  17.166   2.433
54124W        W20665  41.271  23.243   1.387
54125W        W20666  37.318  13.921   9.490
54126W        W20667  29.412  10.355   2.304
54127W        W20668  26.203  31.524   1.680
54128W        W20669  26.732  30.512  12.173
54129W        W20670  18.984  10.782  12.056
54130W        W20671  32.649  18.669  10.784
54131W        W20672  25.763  12.741  11.840
54132W        W20673   7.292  44.529   1.357
54133W        W20674  12.111   9.163  12.431
54134W        W20675  21.548  25.888   0.302
54135W        W20676  39.029  26.574  11.012
54136W        W20677  20.786  10.853  11.490
54137W        W20678  34.785  44.275  13.661
54138W        W20679  21.694   7.030  10.841
54139W        W20680  19.416  15.330  14.016
54140W        W20681  43.854  34.920  12.411
54141W        W20682  31.123  12.337   1.945
54142W        W20683  36.844  18.613   1.479
54143W        W20684  23.286  15.362   4.192
54144W        W20685  32.847  30.131   1.415
54145W        W20686   3.927  21.044  10.509
54146W        W20687  41.391  40.793   0.852
54147W        W20688  26.474  21.194  11.947
54148W        W20689   0.787  13.169  10.570
54149W        W20690  42.423  17.517  13.513
54150W        W20691  13.280  40.913   0.898
54151W        W20692  22.945  26.517   3.304
54152W        W20693  10.349  23.056  14.481
54153W        W20694   4.606  11.208   4.562
54154W        W20695  32.667  17.122   0.705
54155W        W20696  40.248  34.136  13.928
54156W        W20697  17.134   1.408  12.947
54157W        W20698  32.021  41.771  13.782
54158W        W20699   2.942  41.877  13.637
54159W        W20700  20.124  41.252   0.406
54160W        W20701  20.754   8.397  14.029
54161W        W20702  35.189   2.487   1.735
54162W        W20703  28.717  11.845  13.200
54163W        W20704  36.934  44.441   4.334
54164W        W20705  18.613  38.966   5.026
54165W        W20706  19.496  43.209  13.987
54166W        W20707  43.333  15.609  13.158
54167W        W20708  30.178  14.056   4.515
54168W        W20709   1.968  28.072  13.804
54169W        W20710  20.017   3.128   4.547
54170W        W20711   7.681   5.647  12.022
54171W        W20712  18.609  30.624   4.282
54172W        W20713  10.885  36.497  11.920
54173W        W20714   9.888  37.356   1.473
54174W        W20715  11.416  18.584  12.920
54175W        W20716  39.684  39.774   2.722
54176W        W20717   7.546  38.921   1.903
54177W        W20718   8.225  44.370  14.591
54178W        W20719   1.059  27.857  12.203
54179W        W20720  23.188  35.003  12.857
54180W        W20721  12.942  15.650  12.666
54181W        W20722  38.917  39.004  14.059
54182W        W20723  15.625  43.981   1.289
54183W        W20724   4.995  39.332  12.771
54184W        W20725  38.281  13.443  13.003
54185W        W20726  17.179   5.163  12.404
54186W        W20727  39.399  10.359   3.627
54187W        W20728   1.916  11.664   3.520
54188W        W20729  24.934  41.261   3.000
54189W        W20730   8.731   0.209   2.405
54190W        W20731  23.734  42.519   3.204
54191W        W20732  37.599  41.324   0.056
54192W        W20733  34.151   8.829  13.017
54193W        W20734  43.522  35.475  13.809
54194W        W20735  33.460  21.186   2.270
54195W        W20736   3.784  40.216   4.069
54196W        W20737  23.257  41.247   3.483
54197W        W20738  40.551  19.285  11.242
54198W        W20739  24.544  19.317  12.353
54199W        W20740  12.513   0.080   0.464
54200W        W20741  39.344  16.714   0.222
54201W        W20742  19.240  33.817  14.006
54202W        W20743  19.476  12.221  10.588
54203W        W20744  17.086  21.449   4.983
54204W        W20745  42.100  32.948  12.999
54205W        W20746   3.358  19.699  14.586
54206W        W20747  34.894   0.322  10.743
54207W        W20748  22.081  39.362   2.319
54208W        W20749  43.049  24.659  11.621
54209W        W20750   9.343  26.838  14.475
54210W        W20751  37.328  28.992   3.653
54211W        W20752  13.869  33.885  12.092
54212W        W20753  26.930  25.225  10.649
54213W        W20754  27.752   2.920  12.817
54214W        W20755  27.928   0.962   2.045
54215W        W20756  25.939  32.969   2.488
54216W        W20757  41.437  29.141   2.078
54217W        W20758  16.276   8.767  14.313
54218W        W20759  25.501  25.933   2.179
54219W        W20760  34.645  17.525  11.698
54220W        W20761  26.611  29.444   3.857
54221W        W20762  39.111   1.861  14.889
54222W        W20763  23.463  11.235  13.599
54223W        W20764  21.215  22.239  14.403
54224W        W20765  43.932  31.488   3.373
54225W        W20766  43.878   7.573  14.845
54226W        W20767  23.956  26.537  12.520
54227W        W20768   4.423  38.923   4.467
54228W        W20769  12.029  13.301  11.210
54229W        W20770  14.402  41.482   3.698
54230W        W20771   0.426  11.751   1.831
54231W        W20772  24.498  15.107  14.277
54232W        W20773   7.648  43.128  11.234
54233W        W20774  43.926  10.042   1.375
54234W        W20775   5.213  39.860   2.680
54235W        W20776  18.871   3.254  13.049
54236W        W20777  21.951  36.021   3.979
54237W        W20778  17.952   8.313   3.815
54238W        W20779  43.373  31.416   0.888
54239W        W20780  41.029  14.688  11.681
54240W        W20781  27.206  17.119  11.205
54241W        W20782  26.488  18.069  13.568
54242W        W20783  26.083  25.176   3.647
54243W        W20784  35.391   7.752  12.171
54244W        W20785   8.061  23.607   2.172
54245W        W20786  12.694  20.139   0.391
54246W        W20787  32.608  42.900  10.546
54247W        W20788  19.685   6.885   0.281
54248W        W20789  26.059   6.104  14.477
54249W        W20790  41.434   1.730   1.890
54250W        W20791  23.250  34.063   2.493
54251W        W20792  15.916  13.096   1.692
54252W        W20793  27.942   5.484  12.917
54253W        W20794  20.913  24.392   3.576
54254W        W20795  29.577  15.182   1.789
54255W        W20796  41.770   0.372  11.981
54256W        W20797   8.409   8.595  11.513
54257W        W20798  44.416   0.874  10.796
54258W        W20799  43.042   2.062  11.007
54259W        W20800  17.295  42.337   2.392
54260W        W20801  27.183  21.670  13.994
54261W        W20802   0.672   1.255   3.587
54262W        W20803   9.616  28.403   0.858
54263W        W20804  20.954   4.986   2.153
54264W        W20805  26.037  21.440  12.065
54265W        W20806  16.759  29.962   3.144
54266W        W20807  10.511  35.590   2.261
54267W        W20808   2.476  43.791   2.904
54268W        W20809   7.054  36.642  14.922
54269W        W20810  37.080  11.789   4.495
54270W        W20811  21.587  20.144  11.737
54271W        W20812  20.523  43.780   4.202
54272W        W20813  18.301  23.406  13.527
54273W        W20814  23.643  19.114   1.355
54274W        W20815  15.329  10.113  13.363
54275W        W20816  23.432  16.524  12.992
54276W        W20817  44.928  18.819   2.807
54277W        W20818  37.686  26.575  14.513
54278W        W20819  11.228  13.282  12.395
54279W        W20820  37.131   1.436   2.536
54280W        W20821  24.993  32.150   0.253
54281W        W20822  18.665  23.999   2.893
54282W        W20823   2.665  28.622  10.725
54283W        W20824  18.954  13.592  10.720
54284W        W20825  12.951  34.678  14.293
54285W        W20826  43.658  42.970  14.721
54286W        W20827  20.914  33.374   0.234
54287W        W20828  42.775  12.363  13.842
54288W        W20829  39.952  43.120  12.362
54289W        W20830  37.997  30.503  11.759
54290W        W20831  41.175   3.718   0.921
54291W        W20832  30.942  36.933  13.042
54292W        W20833  27.919  16.698   0.032
54293W        W20834   3.424  40.513  12.933
54294W        W20835  16.541   7.953  14.134
54295W        W20836  10.762  33.121  13.054
54296W        W20837  14.699   3.770  14.159
54297W        W20838  11.235  29.156  12.250
54298W        W20839  42.030  30.951  11.507
54299W        W20840   2.207  33.456   0.057
54300W        W20841  44.497  23.241  10.477
54301W        W20842   6.532  16.100  10.355
54302W        W20843   3.034  12.597   0.750
54303W        W20844   7.814  32.433  11.481
54304W        W20845  21.586  30.729  14.966
54305W        W20846  43.315  32.463   3.632
54306W        W20847  11.388   6.886  11.825
54307W        W20848  11.361  24.216   3.234
54308W        W20849  33.088  17.124  14.286
54309W        W20850   1.414  24.430  12.997
54310W        W20851   6.734  11.693  12.479
54311W        W20852  30.050  17.973  11.327
54312W        W20853   1.737  30.111   2.925
54313W        W20854  42.002  21.014  12.609
54314W        W20855   6.913  18.491  13.741
54315W        W20856  12.147  17.133   4.609
54316W        W20857  19.705   3.995  14.328
54317W        W20858   1.956  36.455   1.436
54318W        W20859   1.549  16.568   0.917
54319W        W20860  44.391   1.398  12.236
54320W        W20861  26.654   7.435   2.180
54321W        W20862  19.676  16.666  12.656
54322W        W20863  20.078   8.746   0.672
54323W        W20864  36.724  24.483  13.644
54324W        W20865  24.612  31.502  10.807
54325W        W20866   5.326  12.240   0.670
54326W        W20867  34.650  43.460   1.440
54327W        W20868  23.442  18.744  14.879
54328W        W20869  44.791  35.910   0.340
54329W        W20870  24.013  10.633  14.310
54330W        W20871  20.676   7.417  13.883
54331W        W20872  10.742   8.450  13.904
54332W        W20873  10.197   0.769  10.742
54333W        W20874  25.955  23.156  13.630
54334W        W20875  27.031  17.645   2.280
54335W        W20876  19.315   0.196  11.198
54336W        W20877  11.109  30.457   3.266
54337W        W20878  32.974  10.711  14.115
54338W        W20879  29.960  26.599  13.840
54339W        W20880  17.920   8.113  13.102
54340W        W20881  35.611  24.250  13.515
54341W        W20882  13.096   1.345  10.752
54342W        W20883  11.833  15.321  13.560
54343W        W20884  13.314  20.793  12.937
54344W        W20885  22.259  30.142   4.527
54345W        W20886  30.764  28.482   0.710
54346W        W20887  21.228  41.274  12.119
54347W        W20888  20.149  26.112   4.557
54348W        W20889  28.150  44.841  14.457
54349W        W20890  25.597  31.764   3.913
54350W        W20891  33.089  39.367   1.323
54351W        W20892  40.338  31.924   1.471
54352W        W20893  21.539  10.432  11.585
54353W        W20894  33.128  41.941  10.900
54354W        W20895  25.291  41.239   2.631
54355W        W20896  26.647  44.763  10.639
54356W        W20897   4.828  21.084  11.177
54357W        W20898   6.562   2.967   3.175
54358W        W20899  12.773  14.593   4.062
54359W        W20900  25.709   2.858   4.782
54360W        W20901   6.088   7.680  12.473
54361W        W20902  16.778   1.183   3.340
54362W        W20903  41.147   6.886   1.773
54363W        W20904  19.584  22.539  12.508
54364W        W20905  23.213  12.273   3.260
54365W        W20906  33.879  44.899   1.347
54366W        W20907  13.932   5.429  12.379
54367W        W20908  40.865  28.838   3.619
54368W        W20909  31.114  37.289  10.373
54369W        W20910  35.151  25.655  10.764
54370W        W20911  40.817  28.675  13.068
54371W        W20912  32.926  38.881   2.298
54372W        W20913  19.630  41.016   1.757
54373W        W20914  41.181   4.682   1.837
54374W        W20915   9.430  39.939  14.360
54375W        W20916  14.222   8.815  12.934
54376W        W20917  16.138  19.740  10.866
54377W        W20918   4.307  27.967   2.805
54378W        W20919   4.319   8.890   4.807
54379W        W20920  26.099  33.936   4.527
54380W        W20921  28.979  23.603  11.144
54381W        W20922  17.236   7.261   2.235
54382W        W20923  29.568  24.435   3.717
54383W        W20924  28.042   9.309   3.700
54384W        W20925  21.238  34.102  10.579
54385W        W20926  24.065   5.214  13.599
54386W        W20927   0.938  33.433   1.342
54387W        W20928   4.896   0.876  13.579
54388W        W20929  22.178  13.851  13.185
54389W        W20930  16.856  35.974   3.570
54390W        W20931  26.089  11.278  11.303
54391W        W20932  36.476  37.921  13.528
54392W        W20933  33.124  29.865  10.717
54393W        W20934  34.705  22.663  11.064
54394W        W20935  20.066  21.068   3.152
54395W        W20936  35.165  32.110  11.311
54396W        W20937   1.212  38.307  14.370
54397W        W20938  17.820  39.525   0.301
54398W        W20939  14.219  26.242  12.968
54399W        W20940  10.875  26.317   3.308
54400W        W20941  38.000   0.430  13.153
54401W        W20942  27.044  40.973   1.291
54402W        W20943  13.324  43.755   1.672
54403W        W20944  32.269  28.745  12.047
54404W        W20945  42.590  23.038  14.799
54405W        W20946  20.138  20.498   2.617
54406W        W20947  37.929  19.577  11.971
54407W        W20948  32.908   4.289  12.020
54408W        W20949  42.028  16.124   3.856
54409W        W20950  25.598  13.433  14.963
54410W        W20951  28.608  22.525  10.629
54411W        W20952  37.310  37.358   0.428
54412W        W20953  26.458  36.168  10.937
54413W        W20954  25.041  21.813   3.240
54414W        W20955   8.275  39.951  11.679
54415W        W20956  30.411  35.484   3.811
54416W        W20957  20.896  27.216   2.722
54417W        W20958   9.295  39.674   0.884
54418W        W20959  17.085  13.091  12.151
54419W        W20960  34.311  31.471   2.845
54420W        W20961   8.680  15.083  14.005
54421W        W20962  43.910  26.151   2.219
54422W        W20963  12.413  14.347   1.342
54423W        W20964  17.641  21.741  12.785
54424W        W20965   9.979  16.808  10.524
54425W        W20966  43.250   4.142   4.372
54426W        W20967  43.708  41.425   4.167
54427W        W20968  20.490  33.800   1.343
54428W        W20969  38.940   1.911  10.379
54429W        W20970  39.964  28.949   3.556
54430W        W20971  37.892  29.177   3.237
54431W        W20972  33.661   3.917  12.064
54432W        W20973  26.448  41.013   4.642
54433W        W20974  27.179  42.751  14.909
54434W        W20975   7.836  33.058  10.661
54435W        W20976  37.614  28.560  11.604
54436W        W20977  19.869  31.651   3.314
54437W        W20978  13.664   2.016   4.113
54438W        W20979  22.657   8.183  11.668
54439W        W20980  34.846  40.421   0.263
54440W        W20981  29.399   2.341   0.545
54441W        W20982  15.913  14.645   9.814
54442W        W20983  20.153  25.178   0.502
54443W        W20984  16.719  18.714   0.621
54444W        W20985  33.193  26.038  11.723
54445W        W20986  36.020  44.142  12.549
54446W        W20987  29.547  17.532   1.970
54447W        W20988   1.097  37.813   0.279
54448W        W20989   8.782   7.237   2.166
54449W        W20990  43.049  24.254  10.689
54450W        W20991  13.635   1.005  14.372
54451W        W20992   5.244   6.778   2.141
54452W        W20993  10.821  14.595   2.917
54453W        W20994   7.721  21.519   4.666
54454W        W20995  16.212   4.347  14.720
54455W        W20996  36.934   8.826   3.335
54456W        W20997  41.313  33.402   3.713
54457W        W20998  10.136   0.788   4.629
54458W        W20999   9.943  15.040   3.971
54459W        W21000  38.595  33.445  13.482
54460W        W21001   8.725  20.875   3.528
54461W        W21002  10.806  26.143  10.543
54462W        W21003  19.684  10.773  10.754
54463W        W21004  38.482  35.851   4.482
54464W        W21005  17.839  25.780  12.816
54465W        W21006  22.370  27.369   2.275
54466W        W21007  15.190  35.618  13.859
54467W        W21008   4.415  23.810   1.000
54468W        W21009  43.237  24.868   0.338
54469W        W21010  41.910  27.971   0.268
54470W        W21011  21.425  40.747   3.139
54471W        W21012  29.069   9.079  13.341
54472W        W21013  25.445  36.895   2.439
54473W        W21014  31.376  27.726   1.128
54474W        W21015  18.143  16.797   1.720
54475W        W21016   7.505  32.331  11.088
54476W        W21017  18.058  31.992   4.985
54477W        W21018   2.050  14.016   4.926
54478W        W21019   2.510  18.384   4.302
54479W        W21020   2.924   9.504   2.756
54480W        W21021  26.750  20.538  10.340
54481W        W21022  19.776  18.635  11.709
54482W        W21023   3.948  15.266   3.850
54483W        W21024  31.644  30.605   1.694
54484W        W21025  24.746  17.498  12.262
54485W        W21026  35.801   3.792   3.756
54486W        W21027  19.558  16.920   3.035
54487W        W21028   9.146  15.287   2.916
54488W        W21029  22.536  42.015  14.365
54489W        W21030  14.645  14.646   0.952
54490W        W21031   4.957  30.571  11.384
54491W        W21032  10.534   8.690   4.280
54492W        W21033  16.729  26.980  12.964
54493W        W21034  40.810  19.221   0.827
54494W        W21035  18.659  10.131  11.956
54495W        W21036  27.976   8.227   0.650
54496W        W21037  27.518  35.410  14.533
54497W        W21038  42.483  36.982   1.474
54498W        W21039  37.802   7.210   0.231
54499W        W21040  20.199  15.521  13.983
54500W        W21041  18.583   3.669   3.643
54501W        W21042  16.679  31.689   0.233
54502W        W21043  35.178  12.811  14.225
54503W        W21044  28.051  43.975  11.345
54504W        W21045  19.214  21.890   4.053
54505W        W21046  28.538   9.227   3.931
54506W        W21047  42.453  21.367   0.774
54507W        W21048   8.333  31.082   2.199
54508W        W21049  17.257  36.433  12.515
54509W        W21050  10.775  31.637   0.000
54510W        W21051   8.747  30.191   3.820
54511W        W21052  28.157   2.030  11.669
54512W        W21053  40.750  19.836  10.753
54513W        W21054  18.470  17.010  12.857
54514W        W21055  15.155  34.010   1.273
54515W        W21056  11.821  36.351   1.215
54516W        W21057   5.983  21.603   4.098
54517W        W21058  15.549  13.316  11.693
54518W        W21059  17.639  14.215   1.385
54519W        W21060  23.570  30.949  12.977
54520W        W21061  28.944  15.896  14.737
54521W        W21062  31.514  23.960   2.381
54522W        W21063  16.485  23.252  11.728
54523W        W21064  40.078  37.134  13.069
54524W        W21065  27.209  32.242   5.020
54525W        W21066  31.632  24.904  11.918
54526W        W21067  29.217  38.096  10.969
54527W        W21068  39.333  23.095  10.741
54528W        W21069  29.454  16.868  12.433
54529W        W21070  43.504  38.780   4.005
54530W        W21071   5.438   1.005  14.324
54531W        W21072  18.977   3.004   1.867
54532W        W21073   2.401   7.595  12.290
54533W        W21074  38.106  17.249   3.196
54534W        W21075  12.842   7.806  12.651
54535W        W21076   9.732  42.416  12.496
54536W        W21077  38.489   9.833   1.921
54537W        W21078  17.582  34.634  13.389
54538W        W21079   7.972  19.165   2.308
54539W        W21080   9.208   2.447  14.796
54540W        W21081   2.816   7.188   4.301
54541W        W21082  43.971  37.370   0.556
54542W        W21083   9.171  34.737   2.055
54543W        W21084  27.878  28.015  12.787
54544W        W21085   1.731  39.238  11.974
54545W        W21086  35.805  17.843   1.787
54546W        W21087   5.944  43.989   3.668
54547W        W21088  12.918   4.978  11.324
54548W        W21089   5.145  17.429   4.698
54549W        W21090  22.103  39.369   3.825
54550W        W21091  21.030  26.588   0.631
54551W        W21092  10.084  38.008  14.468
54552W        W21093   2.823  33.620   2.863
54553W        W21094  36.524  32.526   1.463
54554W        W21095  17.686   3.189  14.753
54555W        W21096  23.658  11.712  13.990
54556W        W21097   5.253  31.179   3.535
54557W        W21098  18.520  42.776   2.425
54558W        W21099   4.266  41.880  11.715
54559W        W21100   5.508  33.172  10.041
54560W        W21101  42.960  22.989  11.181
54561W        W21102   9.359   0.780   4.147
54562W        W21103  10.203  23.454  13.458
54563W        W21104  43.364  34.688  14.945
54564W        W21105  18.148  14.599   0.021
54565W        W21106  10.320   1.554  10.923
54566W        W21107  24.671  27.899  11.165
54567W        W21108  31.036  20.953  12.416
54568W        W21109  31.391   1.703   1.209
54569W        W21110  10.569  27.369  10.021
54570W        W21111   0.379  27.422  11.087
54571W        W21112  42.396   6.680   2.187
54572W        W21113  10.339  10.249  14.585
54573W        W21114  12.711  29.611  13.092
54574W        W21115  20.116  16.763   3.088
54575W        W21116  22.496   3.415   4.509
54576W        W21117   2.433   3.176   2.704
54577W        W21118   0.543  43.927   2.876
54578W        W21119  42.746  33.964   1.910
54579W        W21120   5.706  41.004  11.511
54580W        W21121  32.948  38.597  12.466
54581W        W21122  25.636  23.977  14.853
54582W        W21123  30.944  28.081  13.558
54583W        W21124  44.514   9.932   0.313
54584W        W21125  39.053  41.837   3.349
54585W        W21126  13.273  17.475  11.047
54586W        W21127   8.160  39.315  12.583
54587W        W21128   8.379  36.031   0.688
54588W        W21129  11.244  27.057  14.471
54589W        W21130   7.806  11.001  11.146
54590W        W21131  28.876  10.813  11.432
54591W        W21132  43.621  27.455   1.258
54592W        W21133   8.616  29.108   0.454
54593W        W21134  27.370   2.993  11.006
54594W        W21135  37.905   6.631   2.712
54595W        W21136  37.187  25.630  10.494
54596W        W21137  37.727  10.785  13.963
54597W        W21138  17.066  35.147  11.268
54598W        W21139  40.519   5.433  14.486
54599W        W21140  29.589  20.253   4.639
54600W        W21141   4.670  39.249   0.803
54601W        W21142   5.786  39.851  12.834
54602W        W21143   0.315   6.730  13.417
54603W        W21144  22.565  29.450  10.594
54604W        W21145  13.202   2.073   3.886
54605W        W21146  31.873  14.383   5.068
54606W        W21147   6.672  12.354   2.654
54607W        W21148   4.812  13.222   3.686
54608W        W21149  19.750  36.596  12.241
54609W        W21150  16.488  12.039  11.697
54610W        W21151  25.321  18.510   0.355
54611W        W21152  11.757  18.677   0.241
54612W        W21153  10.319   9.327   2.759
54613W        W21154  28.323  12.832   9.790
54614W        W21155   4.161  41.816   0.222
54615W        W21156   1.752   9.477  11.199
54616W        W21157  39.540   9.281  11.498
54617W        W21158  30.448  17.128   3.174
54618W        W21159  20.321  36.289  13.486
54619W        W21160   7.464   0.394   1.342
54620W        W21161   0.359  17.550  11.203
54621W        W21162   4.684  37.376   2.129
54622W        W21163  20.674  38.304   3.294
54623W        W21164  14.216  20.163  12.594
54624W        W21165  36.457  30.391  13.425
54625W        W21166   3.451  14.235  12.862
54626W        W21167   4.783  23.683   2.678
54627W        W21168  11.963  29.528   0.950
54628W        W21169  25.507  31.873  14.099
54629W        W21170   7.201  22.186   3.880
54630W        W21171  28.169  33.282  10.758
54631W        W21172  13.192  26.692  14.086
54632W        W21173  42.886  33.373   3.794
54633W        W21174  37.452  12.685  14.093
54634W        W21175  42.525  37.885   0.828
54635W        W21176  25.821  38.867  10.605
54636W        W21177   3.145  30.871   0.371
54637W        W21178  25.099  12.146   4.570
54638W        W21179  19.186  37.985   0.160
54639W        W21180  14.300  16.815  12.082
54640W        W21181  35.465  15.051  12.059
54641W        W21182  42.375  26.080   1.369
54642W        W21183  43.537   2.078  11.204
54643W        W21184  36.621  36.638  13.049
54644W        W21185  33.120   3.685   4.019
54645W        W21186  35.098  16.233   3.122
54646W        W21187  38.403  41.301   3.672
54647W        W21188  20.331  27.656  13.427
54648W        W21189  37.904  44.219  14.979
54649W        W21190  22.432  32.505   2.888
54650W        W21191   4.568  10.670  11.714
54651W        W21192  13.386  13.214   4.212
54652W        W21193  12.639  13.108   1.709
54653W        W21194  17.544  38.796  14.169
54654W        W21195  29.076  37.764  14.716
54655W        W21196  11.032  31.837   3.200
54656W        W21197  24.518  20.371   1.845
54657W        W21198  21.472  25.494   2.156
54658W        W21199  30.654  41.518  12.041
54659W        W21200  44.970  20.778   0.456
54660W        W21201  30.479  28.014  11.155
54661W        W21202  25.737  30.624   0.848
54662W        W21203  26.739  24.580   2.324
54663W        W21204  17.519  38.475  13.293
54664W        W21205  43.301   0.932  14.341
54665W        W21206   0.213   2.851   3.857
54666W        W21207  17.241  38.903  14.993
54667W        W21208  32.389  27.652   3.975
54668W        W21209  24.919  21.032   2.542
54669W        W21210   9.231  10.611  13.434
54670W        W21211  27.011  39.056   0.202
54671W        W21212  14.154  28.959   4.537
54672W        W21213  25.775   6.673   5.442
54673W        W21214  13.063  10.109  13.101
54674W        W21215   8.284   0.496  11.076
54675W        W21216   3.958  31.049  12.082
54676W        W21217  31.942  19.491   1.918
54677W        W21218   3.462  32.131   3.135
54678W        W21219  41.793  29.111   2.892
54679W        W21220  40.041  13.666   1.309
54680W        W21221  28.416  23.640   3.725
54681W        W21222   8.284  43.390   3.689
54682W        W21223  40.287   5.940  10.833
54683W        W21224  12.004  41.239   3.306
54684W        W21225  22.006  25.452  14.989
54685W        W21226  24.963   4.765   0.448
54686W        W21227  19.220  38.801  13.979
54687W        W21228  14.834  41.009  11.050
54688W        W21229  18.188  20.275  13.448
54689W        W21230  40.883  37.848   4.125
54690W        W21231  18.574   7.673  12.863
54691W        W21232  32.717  32.866  12.509
54692W        W21233  38.545  28.745   2.097
54693W        W21234  12.968  33.898  14.077
54694W        W21235  34.131  21.682  11.238
54695W        W21236  37.741  25.225   4.701
54696W        W21237  18.009   4.206   3.325
54697W        W21238  12.910  43.274   1.480
54698W        W21239  32.878  34.719  12.682
54699W        W21240  35.899  21.104   4.662
54700W        W21241   1.764  19.670  11.358
54701W        W21242  33.727  38.635   3.237
54702W        W21243  23.284  40.469  13.909
54703W        W21244   8.148  34.493   0.935
54704W        W21245   1.540   8.872  14.667
54705W        W21246  22.798  16.340   0.463
54706W        W21247   9.957   5.074  11.264
54707W        W21248  12.354  31.360   1.935
54708W        W21249  17.160  19.871   0.787
54709W        W21250  35.854  29.000   3.191
54710W        W21251  41.924  36.967  13.509
54711W        W21252   0.573   1.886  13.042
54712W        W21253   6.728  30.224   4.141
54713W        W21254   7.262  27.557  12.184
54714W        W21255  35.969  44.371  13.017
54715W        W21256   2.325  34.590  12.366
54716W        W21257  36.003   6.272  10.683
54717W        W21258  37.564  10.473  13.379
54718W        W21259   3.228  23.192   1.003
54719W        W21260  16.093  37.132  13.349
54720W        W21261  41.156   6.547   2.616
54721W        W21262  19.164  43.941  11.021
54722W        W21263  33.987  43.218   2.199
54723W        W21264   8.324  35.135   0.156
54724W        W21265  26.710  38.034  11.242
54725W        W21266  24.084  21.545  10.644
54726W        W21267  42.480  42.472  10.921
54727W        W21268  10.080  19.787   2.373
54728W        W21269   0.020  29.003  10.790
54729W        W21270  26.192  10.795  11.423
54730W        W21271  13.524  16.016  10.588
54731W        W21272  32.464  28.640   3.364
54732W        W21273  18.710  33.160   3.178
54733W        W21274  42.364  29.324  12.100
54734W        W21275   6.538  28.430   1.690
54735W        W21276  36.548   3.739   0.859
54736W        W21277   6.856   5.546   5.010
54737W        W21278   3.396  22.723   2.912
54738W        W21279   0.239   8.184   3.724
54739W        W21280  28.180  43.007  13.050
54740W        W21281  14.153  19.163   2.767
54741W        W21282  20.459  24.094   1.861
54742W        W21283  30.865  27.981  14.101
54743W        W21284   6.526   2.953   0.918
54744W        W21285  28.601  33.011   0.949
54745W        W21286  31.380  15.394   2.415
54746W        W21287  43.496  19.831  12.837
54747W        W21288  31.671  17.667  10.760
54748W        W21289  40.426  27.487  12.478
54749W        W21290  14.212  29.938  10.255
54750W        W21291  14.572  40.255  13.979
54751W        W21292  12.095   2.780  11.586
54752W        W21293  12.691   7.008  14.862
54753W        W21294   2.846  31.368   1.252
54754W        W21295  31.164  29.848  12.187
54755W        W21296  22.264  43.446  13.047
54756W        W21297  29.691   8.393   0.457
54757W        W21298  40.067  42.427   2.764
54758W        W21299  13.945  31.930   3.076
54759W        W21300  33.621  38.175   2.386
54760W        W21301  16.513  20.226   4.651
54761W        W21302  10.781  37.591   1.436
54762W        W21303  21.123  20.545  14.927
54763W        W21304   3.912  13.628  11.706
54764W        W21305  19.814  17.207   1.291
54765W        W21306  40.102  40.265   3.642
54766W        W21307  33.091   4.000  13.461
54767W        W21308   1.728  23.656  12.580
54768W        W21309  20.552  16.020   1.323
54769W        W21310  26.057  32.357  10.669
54770W        W21311   5.667  28.519  14.559
54771W        W21312  30.999  31.526  11.286
54772W        W21313  29.496  29.200  12.459
54773W        W21314  31.382  36.342   4.348
54774W        W21315  18.764  23.618  10.912
54775W        W21316  42.435  24.970   4.691
54776W        W21317   1.906   6.150  10.760
54777W        W21318  21.279  35.602   4.379
54778W        W21319  19.314  30.743   2.183
54779W        W21320  37.010  41.360   2.958
54780W        W21321  24.954   0.286  13.519
54781W        W21322   9.882  29.395  14.546
54782W        W21323   3.826  21.874   1.610
54783W        W21324  10.635  36.805   2.851
54784W        W21325  10.329  26.683   3.658
54785W        W21326  16.186   8.306  11.569
54786W        W21327  40.592   7.468  12.985
54787W        W21328   6.014   3.811   4.530
54788W        W21329  10.654  31.126  14.777
54789W        W21330  39.264  25.679   4.082
54790W        W21331  34.603  32.816   1.948
54791W        W21332  22.946  27.175   0.658
54792W        W21333   3.778  32.204  14.806
54793W        W21334  33.690  40.905  11.572
54794W        W21335  29.076  29.040  13.737
54795W        W21336   3.271   4.891   3.869
54796W        W21337   1.958  23.215   0.806
54797W        W21338   0.796  28.480  14.364
54798W        W21339  36.844  39.046   3.056
54799W        W21340  43.357  26.488   2.750
54800W        W21341  26.795   9.923   0.574
54801W        W21342  25.064  15.303   2.726
54802W        W21343   0.282  29.379  12.007
54803W        W21344  40.548   5.491  10.927
54804W        W21345  12.063  26.201   4.633
54805W        W21346   1.030  44.048  11.211
54806W        W21347   7.308  38.849   3.103
54807W        W21348  21.628  36.598   2.353
54808W        W21349   1.206  34.809   3.662
54809W        W21350  36.127  19.856  14.415
54810W        W21351  28.610  39.543   4.456
54811W        W21352  12.748  15.232   0.277
54812W        W21353  30.963  18.278  11.601
54813W        W21354  14.157   6.870   3.205
54814W        W21355   9.278  42.413   4.939
54815W        W21356  20.270  24.617  10.873
54816W        W21357  34.825  10.291  13.098
54817W        W21358  32.042  10.608  10.725
54818W        W21359  14.327  35.879  11.217
54819W        W21360  31.330  44.312   3.303
54820W        W21361  19.616  17.604   3.363
54821W        W21362  38.504  18.838   2.711
54822W        W21363   7.720  44.271   1.281
54823W        W21364  28.637  43.278  13.849
54824W        W21365  37.310  41.334  10.548
54825W        W21366  35.070  44.423   0.843
54826W        W21367  39.782  39.419   3.083
54827W        W21368  38.007  27.041  11.907
54828W        W21369  15.133  20.226   4.379
54829W        W21370  22.762  21.930  12.933
54830W        W21371  32.166   0.854  12.451
54831W        W21372  22.032  24.408  14.357
54832W        W21373  36.305   9.632  11.025
54833W        W21374  34.778  26.049   0.469
54834W        W21375  26.496   2.193   4.193
54835W        W21376  25.941  37.936  11.659
54836W        W21377  26.734  31.603   0.253
54837W        W21378  12.423  29.358   0.784
54838W        W21379  20.681   6.067  14.419
54839W        W21380   5.382   3.642  12.857
54840W        W21381  41.319  44.287  13.998
54841W        W21382  22.761   0.434   4.297
54842W        W21383  35.442   4.741   3.393
54843W        W21384   9.804  42.744   2.171
54844W        W21385  30.693  28.729  13.820
54845W        W21386  24.187  28.692  10.719
54846W        W21387  28.186  27.677   0.672
54847W        W21388   3.234  24.292  11.987
54848W        W21389  13.526  41.603   2.005
54849W        W21390  32.597  22.069  14.928
54850W        W21391  34.389  21.644   2.334
54851W        W21392  19.233  11.688  10.621
54852W        W21393  37.342  36.020  12.016
54853W        W21394  39.589   5.089  12.290
54854W        W21395  36.099   8.872  12.057
54855W        W21396  17.705  22.488  12.121
54856W        W21397  42.258  10.290   1.399
54857W        W21398  30.666  28.446   3.355
54858W        W21399  14.808  36.758   1.788
54859W        W21400   8.879  16.488  12.850
54860W        W21401   9.566  44.087  11.040
54861W        W21402  37.821  40.858   3.802
54862W        W21403   9.767  10.688   0.288
54863W        W21404  13.305  30.284   5.426
54864W        W21405  31.509   1.369  10.982
54865W        W21406  16.303  38.087  12.455
54866W        W21407  29.038  34.872  13.390
54867W        W21408  17.093  35.867   0.848
54868W        W21409  24.787  17.540   0.847
54869W        W21410  23.246  37.985   0.442
54870W        W21411  29.417  31.818  12.982
54871W        W21412   9.873  26.760   1.456
54872W        W21413   0.100  13.289  13.987
54873W        W21414  43.919   8.172   3.253
54874W        W21415  13.387  15.341  14.459
54875W        W21416  29.525  34.546   4.074
54876W        W21417   6.184   9.178  11.017
54877W        W21418  10.375  42.261  12.727
54878W        W21419  40.374   5.468   3.327
54879W        W21420  12.166  22.748  14.896
54880W        W21421  34.408  31.271   1.186
54881W        W21422  39.327  26.190   2.821
54882W        W21423   6.653   0.780  14.946
54883W        W21424  33.042  39.598  14.972
54884W        W21425   8.094  13.162  13.356
54885W        W21426  16.404  28.880   1.317
54886W        W21427  29.202  34.510  11.592
54887W        W21428  28.391  38.364  12.322
54888W        W21429  32.907  35.417  13.091
54889W        W21430  43.539  23.158  12.997
54890W        W21431   9.819  18.337  13.627
54891W        W21432  19.808  34.978  10.773
54892W        W21433  25.591  26.514  11.630
54893W        W21434  25.396  35.418  14.767
54894W        W21435  21.270  28.597   2.783
54895W        W21436   3.422   8.450  12.235
54896W        W21437  31.979  35.962  12.549
54897W        W21438  41.027  35.167  14.248
54898W        W21439   5.952  14.255   2.708
54899W        W21440  11.421   2.995  11.253
54900W        W21441  22.241  34.929   3.207
54901W        W21442  27.671  27.252   3.917
54902W        W21443  37.867  32.061  10.597
54903W        W21444  11.265   3.993  14.041
54904W        W21445  37.070  14.374  11.529
54905W        W21446  29.103  37.462  14.295
54906W        W21447  41.918   6.970   0.079
54907W        W21448  26.697  28.664   3.304
54908W        W21449  33.448  16.599  13.836
54909W        W21450   8.455  44.455  12.984
54910W        W21451   1.970   7.588   3.695
54911W        W21452  43.012  24.401  14.046
54912W        W21453   8.470  35.295  11.149
54913W        W21454  14.294  15.764   2.237
54914W        W21455  24.757  39.790   4.028
54915W        W21456  24.150   1.253   1.384
54916W        W21457  12.577  14.900  12.782
54917W        W21458  29.736   2.593   0.238
54918W        W21459  27.294  43.343   2.827
54919W        W21460   6.933  29.576   2.859
54920W        W21461  41.743  40.550   0.468
54921W        W21462  29.659   6.747  14.433
54922W        W21463  15.772  27.632   1.899
54923W        W21464  24.080  35.554   3.106
54924W        W21465   1.557   6.154  14.968
54925W        W21466  34.044   7.535  10.254
54926W        W21467   8.682  16.242  11.619
54927W        W21468  13.722   0.453   0.297
54928W        W21469  25.015  23.608  14.323
54929W        W21470   7.726  27.892   5.024
54930W        W21471   1.574  36.036  14.002
54931W        W21472  19.759  28.090   4.825
54932W        W21473  23.067  20.303  13.480
54933W        W21474  21.456   3.608   4.144
54934W        W21475  21.471  20.615  10.927
54935W        W21476  21.627  12.717   2.236
54936W        W21477   3.170  34.400  14.400
54937W        W21478  10.388  14.771   2.247
54938W        W21479   6.871  43.021  11.705
54939W        W21480  16.767  37.372   1.498
54940W        W21481  33.166  43.958  10.712
54941W        W21482  21.597  25.454   4.030
54942W        W21483   3.175  34.013  11.171
54943W        W21484  30.521   6.857   2.085
54944W        W21485  19.704   7.801   3.824
54945W        W21486  10.782  37.417   4.510
54946W        W21487  11.201  19.286   3.220
54947W        W21488  20.931  16.763   4.548
54948W        W21489  14.696  44.970   2.209
54949W        W21490  10.795  36.040   2.296
54950W        W21491  39.383  13.548  13.963
54951W        W21492  11.057  15.155  11.443
54952W        W21493  39.827   6.280   2.797
54953W        W21494  11.847  44.036   0.853
54954W        W21495   1.513  13.639   1.503
54955W        W21496  44.135  17.074   4.998
54956W        W21497  34.460  42.057  10.747
54957W        W21498  37.757  25.721  14.420
54958W        W21499  33.348   7.001   4.196
54959W        W21500  42.118  30.706  11.949
54960W        W21501  38.034  28.922  11.575
54961W        W21502  11.127  43.851  12.089
54962W        W21503  34.657  16.746   3.514
54963W        W21504  26.912  38.650  14.404
54964W        W21505  13.336  40.886   4.488
54965W        W21506  22.616  23.158   3.324
54966W        W21507  19.366  11.360   1.538
54967W        W21508  36.540  23.893   1.716
54968W        W21509  33.249   5.924   1.997
54969W        W21510  41.833   5.592   2.371
54970W        W21511   0.046  41.856  14.438
54971W        W21512  13.247  38.916  13.578
54972W        W21513  13.273  11.620   4.398
54973W        W21514  15.110  28.422   3.636
54974W        W21515  25.469  40.360   2.770
54975W        W21516  28.764  26.469  14.787
54976W        W21517  43.863   1.748   0.472
54977W        W21518  20.072   6.764  14.419
54978W        W21519  39.392   7.841   4.675
54979W        W21520  31.196  31.417  13.357
54980W        W21521   0.501  12.683   5.056
54981W        W21522  25.028  28.532  11.525
54982W        W21523  32.994  32.879  13.546
54983W        W21524  14.586  38.532  12.419
54984W        W21525  35.815  22.682  12.928
54985W        W21526  29.454  31.188  10.759
54986W        W21527  41.306  28.432   3.685
54987W        W21528  30.453   2.959   4.803
54988W        W21529   4.644  44.849   0.906
54989W        W21530   2.445  29.605   1.246
54990W        W21531  18.696  10.102   3.733
54991W        W21532   6.695  36.985  14.787
54992W        W21533  10.171  37.400   0.641
54993W        W21534  44.944   1.053  14.713
54994W        W21535  40.483  43.188   1.354
54995W        W21536  15.668  17.152  10.179
54996W        W21537  27.628   5.253  10.812
54997W        W21538  18.710  19.725   2.411
54998W        W21539  35.892  41.206  12.058
54999W        W21540  30.033  27.363  11.529
55000W        W21541  33.419   1.935  11.899
55001W        W21542  38.331  27.067   4.642
55002W        W21543   0.242  17.069   2.286
55003W        W21544  21.837  39.428  13.827
55004W        W21545  35.167  19.113  12.928
55005W        W21546  37.615   7.176  10.808
55006W        W21547  20.689  24.535   1.635
55007W        W21548  24.128   1.972  10.664
55008W        W21549  36.081  38.309   3.555
55009W        W21550   3.917   7.179  13.373
55010W        W21551  27.082  25.176   3.975
55011W        W21552  18.515  27.644  10.804
55012W        W21553  24.622   4.849  14.591
55013W        W21554  26.192  16.174   3.745
55014W        W21555   4.858  12.731   3.504
55015W        W21556   1.939  30.992   0.885
55016W        W21557  30.366  18.453  13.556
55017W        W21558  39.005  32.653   2.805
55018W        W21559   0.728  19.723   1.277
55019W        W21560  31.598  44.028  10.672
55020W        W21561   4.434  31.642  11.694
55021W        W21562  19.814  14.337  13.879
55022W        W21563  43.702  42.599   0.811
55023W        W21564  36.578  22.115   2.122
55024W        W21565  12.811  17.197   3.618
55025W        W21566  40.812  12.678  10.297
55026W        W21567  21.719   5.354   1.794
55027W        W21568  41.598  11.907  13.051
55028W        W21569  12.204  24.635   3.187
55029W        W21570  32.830  11.094  11.499
55030W        W21571  27.361  14.672  13.014
55031W        W21572  15.316  14.680  11.467
55032W        W21573  30.455   6.786   3.840
55033W        W21574   5.931  39.003   0.769
55034W        W21575  34.450  32.803   1.453
55035W        W21576   2.995  17.169  13.483
55036W        W21577   1.049  16.706  12.932
55037W        W21578  38.434   2.586   4.824
55038W        W21579  27.108   2.665  13.416
55039W        W21580  22.801  31.171   1.190
55040W        W21581  17.335  16.231   3.653
55041W        W21582  14.649  34.436  12.505
55042W        W21583  11.850   2.774  12.589
55043W        W21584  24.704   1.827  11.216
55044W        W21585  29.137  16.649   2.211
55045W        W21586  24.077  39.366   3.714
55046W        W21587  34.888  15.979   0.941
55047W        W21588  19.896  35.952   4.631
55048W        W21589  25.021  12.304  14.465
55049W        W21590  10.849  42.125  11.524
55050W        W21591  10.340   0.351   4.417
55051W        W21592  37.628  37.338   1.324
55052W        W21593  15.797  40.754   3.829
55053W        W21594  43.075  14.501  14.592
55054W        W21595  14.710   0.176  11.537
55055W        W21596   7.734   2.663   4.474
55056W        W21597  13.740  34.848   4.811
55057W        W21598  37.165  27.442  10.754
55058W        W21599  23.742  39.983   3.088
55059W        W21600  22.223  11.853  12.185
55060W        W21601   4.395   8.624   2.848
55061W        W21602  39.032  23.977   3.003
55062W        W21603  21.635  11.631  14.752
55063W        W21604  44.823  40.751   2.693
55064W        W21605  21.978  23.601  13.309
55065W        W21606  26.124  14.559  14.105
55066W        W21607  38.988   7.746  14.554
55067W        W21608  18.831  22.543   2.283
55068W        W21609   4.691  18.636   4.930
55069W        W21610  36.916  34.578   3.104
55070W        W21611  41.548  18.308  12.806
55071W        W21612  34.867  26.405   2.360
55072W        W21613  36.981  40.771   0.334
55073W        W21614  14.256   0.512   0.167
55074W        W21615  38.875  37.605  14.357
55075W        W21616  12.605   0.511   2.248
55076W        W21617  42.251  31.956   2.110
55077W        W21618  11.919  41.234   2.173
55078W        W21619   9.475  42.868  13.901
55079W        W21620  18.593  29.558  12.517
55080W        W21621  28.200  35.960  14.400
55081W        W21622   4.627   1.658   1.148
55082W        W21623  39.273   6.594  13.829
55083W        W21624  28.156  17.799  13.800
55084W        W21625   7.780  38.343   0.032
55085W        W21626  36.470  41.568   1.257
55086W        W21627  41.465   2.290   3.687
55087W        W21628   1.104  25.145  12.349
55088W        W21629  12.912  14.691  13.568
55089W        W21630  33.160  12.346   0.040
55090W        W21631   6.170  40.253  11.618
55091W        W21632   7.786  19.506  12.053
55092W        W21633  41.543  14.698   0.429
55093W        W21634   4.487   0.690  14.292
55094W        W21635  31.094  30.336  12.710
55095W        W21636  40.040   4.904  12.508
55096W        W21637  42.299  21.728   4.856
55097W        W21638   6.704  34.957   1.798
55098W        W21639  14.048  37.850   2.569
55099W        W21640  39.861  11.100   0.313
55100W        W21641  20.274  25.527  12.227
55101W        W21642  25.663  32.447  12.778
55102W        W21643  17.093  13.406  10.656
55103W        W21644  31.951  29.707  11.463
55104W        W21645  44.470  14.234   4.132
55105W        W21646  17.692  28.119  13.008
55106W        W21647   4.667   7.381  11.044
55107W        W21648  27.597  36.469  10.446
55108W        W21649  43.852  22.374  11.270
55109W        W21650   5.619  20.135  11.191
55110W        W21651  32.122  36.806  10.547
55111W        W21652  22.285  29.042  14.487
55112W        W21653  28.213   1.515   0.411
55113W        W21654   3.204  29.537   0.799
55114W        W21655  41.949   4.734  12.206
55115W        W21656  35.318  30.702  13.019
55116W        W21657  23.591  19.706   4.725
55117W        W21658   1.108   0.224  13.479
55118W        W21659  39.928  14.523   1.223
55119W        W21660  43.724  26.615  12.309
55120W        W21661   7.754  11.581   0.698
55121W        W21662  33.290   3.626   9.557
55122W        W21663   6.833   3.826  13.891
55123W        W21664  14.779  17.497  11.710
55124W        W21665  35.147  41.739  10.950
55125W        W21666  12.685  39.816   4.043
55126W        W21667  43.016  10.262   4.495
55127W        W21668   7.839  20.476   3.221
55128W        W21669  23.093  19.775   4.430
55129W        W21670  14.251  33.116  14.825
55130W        W21671  32.468  43.434  12.614
55131W        W21672  31.841   5.740  13.795
55132W        W21673  13.061  44.887  11.595
55133W        W21674  19.545  13.588   2.351
55134W        W21675  19.248  22.143  12.365
55135W        W21676  43.018  16.055  13.844
55136W        W21677  27.918  10.811   4.788
55137W        W21678   4.395   3.337   0.982
55138W        W21679  43.780  12.379   4.399
55139W        W21680  40.836   5.161   4.268
55140W        W21681  29.363  38.484  12.050
55141W        W21682   9.973   2.811  14.305
55142W        W21683   7.291  24.993   2.892
55143W        W21684  38.332  14.333  13.249
55144W        W21685  13.329  30.133   2.277
55145W        W21686   8.951   1.516  12.553
55146W        W21687   0.835  43.952   1.836
55147W        W21688   0.543  11.633   0.531
55148W        W21689   9.842  22.613   2.135
55149W        W21690  12.707  42.213   1.757
55150W        W21691  12.873  14.258   3.695
55151W        W21692   8.677  32.599   3.250
55152W        W21693  37.437   1.216  14.593
55153W        W21694  31.328  40.543   4.210
55154W        W21695  43.939  20.345   4.435
55155W        W21696  40.433  21.074  12.482
55156W        W21697  17.641   3.254   4.209
55157W        W21698  43.570  26.947  13.620
55158W        W21699  10.183  26.194   4.405
55159W        W21700  42.509  43.720  14.604
55160W        W21701  26.670  21.146   0.921
55161W        W21702  38.581  42.126  12.012
55162W        W21703  13.683   1.396   1.261
55163W        W21704  27.942  35.679   3.125
55164W        W21705  42.846  33.606  10.734
55165W        W21706  38.280  39.772  12.438
55166W        W21707  17.163  38.517   4.833
55167W        W21708  16.132  16.741  14.263
55168W        W21709  12.374  42.782  14.462
55169W        W21710   4.786  34.040   0.241
55170W        W21711  27.675  14.693   2.462
55171W        W21712  39.781  43.806   2.719
55172W        W21713  39.714  21.087   4.148
55173W        W21714  26.413   6.980   2.307
55174W        W21715  24.095  13.222  11.739
55175W        W21716  35.186  25.354  11.999
55176W        W21717  29.601  22.298  11.530
55177W        W21718  43.400  39.430   2.919
55178W        W21719   7.313   3.741  10.795
55179W        W21720   8.983  13.797   2.360
55180W        W21721  11.698  12.635  12.089
55181W        W21722  23.238  26.127   3.140
55182W        W21723  34.010  17.191   3.898
55183W        W21724   4.519  25.757  11.244
55184W        W21725  42.540  24.013   2.561
55185W        W21726  20.407  44.723   2.204
55186W        W21727  44.416  34.949   4.728
55187W        W21728  31.990  23.526   4.586
55188W        W21729  38.390   1.338   0.014
55189W        W21730  32.195   4.468   2.537
55190W        W21731  19.692   5.823   3.108
55191W        W21732  35.568   5.545   4.629
55192W        W21733  23.551  11.133   4.206
55193W        W21734  20.141   5.660  12.949
55194W        W21735  40.957  12.945  10.726
55195W        W21736  32.906  22.122  12.340
55196W        W21737  32.342  11.163   4.265
55197W        W21738  44.413  27.634   3.469
55198W        W21739  42.942   4.714   2.487
55199W        W21740  38.547  31.518   1.184
55200W        W21741  15.973  41.438  14.821
55201W        W21742  16.849  28.312  12.153
55202W        W21743  25.059  17.175   1.829
55203W        W21744  39.257   6.311   2.786
55204W        W21745  34.963  19.714  11.266
55205W        W21746   3.194  28.430   3.295
55206W        W21747  23.106  28.157   2.699
55207W        W21748  22.942   0.928   4.302
55208W        W21749  29.242  37.444  11.345
55209W        W21750  35.972  29.131  13.546
55210W        W21751  25.044  34.583   4.449
55211W        W21752   7.528  11.124  10.695
55212W        W21753  30.108  32.438  11.944
55213W        W21754  40.264   5.556  10.481
55214W        W21755   3.777  32.416   9.711
55215W        W21756   7.222  16.661   1.456
55216W        W21757  15.638  12.739   1.451
55217W        W21758  30.904   6.754  10.898
55218W        W21759  10.250  12.583   0.038
55219W        W21760  31.361   7.009   2.213
55220W        W21761  20.393  29.247   1.486
55221W        W21762   6.728   2.693  12.467
55222W        W21763  22.513  18.854  12.096
55223W        W21764  31.518  13.327  13.021
55224W        W21765   8.460  29.377   3.717
55225W        W21766   1.942  10.722   3.801
55226W        W21767   9.122  16.140   4.558
55227W        W21768  18.784   3.707  11.675
55228W        W21769  41.646   6.259  12.297
55229W        W21770  41.711  34.999  13.776
55230W        W21771  13.434  13.091   2.726
55231W        W21772  10.800   8.206  14.366
55232W        W21773   1.352  17.860   4.141
55233W        W21774   7.972   8.648   4.998
55234W        W21775   6.133   1.689   4.732
55235W        W21776   4.255  16.188  14.883
55236W        W21777  18.034  26.262   4.430
55237W        W21778  26.143  31.086   4.459
55238W        W21779  20.201  18.524  14.528
55239W        W21780  42.945  31.693   0.303
55240W        W21781  33.233  10.976   0.645
55241W        W21782  36.903  38.546   3.238
55242W        W21783  12.209  22.691   3.302
55243W        W21784   8.760  35.069  14.854
55244W        W21785  34.311  29.128   3.610
55245W        W21786  37.870  31.025   4.097
55246W        W21787  44.242  10.200  12.894
55247W        W21788  21.967   4.885  13.014
55248W        W21789   1.941  11.642  14.828
55249W        W21790   7.177  26.477   0.223
55250W        W21791   5.818  18.131   2.623
55251W        W21792  36.814  27.064   4.551
55252W        W21793   0.061  42.082   2.641
55253W        W21794  32.532  21.779   4.589
55254W        W21795  20.006  33.288  10.045
55255W        W21796  15.654  10.226   2.116
55256W        W21797  13.722  22.460  14.792
55257W        W21798   1.555  12.533   0.376
55258W        W21799   9.345  41.062   3.622
55259W        W21800   5.628  39.301   2.340
55260W        W21801  43.604  17.261   1.841
55261W        W21802  29.680   6.778  13.399
55262W        W21803  15.653  12.367  13.563
55263W        W21804   8.755  15.506   0.885
55264W        W21805  37.030   9.111   2.916
55265W        W21806  23.140  20.982  14.777
55266W        W21807  13.448  14.945   0.406
55267W        W21808  40.591  10.169   3.524
55268W        W21809  11.885  41.537  12.882
55269W        W21810  13.073  28.997   1.423
55270W        W21811  43.282  16.815   3.236
55271W        W21812  18.134   9.576   1.271
55272W        W21813  18.553  24.294  11.135
55273W        W21814  10.947  31.700  11.171
55274W        W21815  44.867  30.093   3.407
55275W        W21816  21.090   3.936   0.248
55276W        W21817  31.002  25.468  11.418
55277W        W21818  17.801   7.167   0.268
55278W        W21819  21.790  19.131  14.372
55279W        W21820  23.646   7.369   0.376
55280W        W21821  31.080  15.582   2.824
55281W        W21822   7.196  22.207   1.950
55282W        W21823  23.521  27.561   0.377
55283W        W21824  36.775  32.897   2.945
55284W        W21825   3.711  15.122   1.347
55285W        W21826   3.695  34.220   2.937
55286W        W21827  24.112   0.983  12.237
55287W        W21828  32.103  37.394   3.082
55288W        W21829  17.164  30.695  11.261
55289W        W21830  24.188  33.627  13.859
55290W        W21831  18.535  42.834   0.344
55291W        W21832  10.080  39.886  13.204
55292W        W21833  24.734  13.082  14.959
55293W        W21834   2.880  23.126  14.265
55294W        W21835  11.289  14.882   2.861
55295W        W21836   7.084  36.549  12.419
55296W        W21837  24.076  24.418   0.328
55297W        W21838  24.656   3.831  12.548
55298W        W21839  42.706  32.590  14.369
55299W        W21840  33.283  35.225   5.056
55300W        W21841  29.195  38.542   2.855
55301W        W21842  15.809  17.214   3.270
55302W        W21843  37.430   6.809  11.685
55303W        W21844  28.631  38.059   0.361
55304W        W21845  32.107  30.212   2.780
55305W        W21846  13.526  15.337  11.958
55306W        W21847   2.186  26.614   3.829
55307W        W21848   8.447  17.537  11.943
55308W        W21849  16.103  42.651   2.763
55309W        W21850   4.731  28.534  14.385
55310W        W21851  27.812  37.281  12.905
55311W        W21852  44.994  16.342   0.825
55312W        W21853  40.027  40.921  14.060
55313W        W21854  25.105  13.189  13.116
55314W        W21855  44.620  11.682  11.527
55315W        W21856  22.416  38.907   1.434
55316W        W21857  26.709  28.730  13.422
55317W        W21858  25.913  43.789   3.677
55318W        W21859  44.427   3.150  13.325
55319W        W21860   7.319  31.602   2.282
55320W        W21861  21.294  32.604  14.801
55321W        W21862   8.770   9.324  12.964
55322W        W21863  23.837  39.809   2.606
55323W        W21864  13.742  39.369   1.255
55324W        W21865  32.647   0.339   4.167
55325W        W21866  21.233  27.627   0.277
55326W        W21867  26.049  12.930   3.244
55327W        W21868  17.824   8.340   1.055
55328W        W21869  22.215  34.933   4.553
55329W        W21870  18.603  13.813   2.583
55330W        W21871   8.552   2.462  12.315
55331W        W21872  17.015  30.311  11.559
55332W        W21873  16.354   0.003  10.706
55333W        W21874   8.570  30.324   3.353
55334W        W21875   8.774  31.994   2.186
55335W        W21876  21.718   2.665  14.759
55336W        W21877  15.181   1.427  10.982
55337W        W21878  28.682  33.885   2.235
55338W        W21879  44.536  35.906  11.866
55339W        W21880   5.905  36.012   2.904
55340W        W21881  29.759  10.698  11.032
55341W        W21882  42.449  10.730   4.105
55342W        W21883   8.419   1.938   0.471
55343W        W21884  25.821  37.570   1.282
55344W        W21885   6.657  37.872   1.652
55345W        W21886   5.668  13.360   4.908
55346W        W21887  43.060  11.241  13.598
55347W        W21888  35.076  20.702  11.319
55348W        W21889  43.938  42.678  13.482
55349W        W21890   9.468   6.338  11.074
55350W        W21891  38.399  10.805   1.714
55351W        W21892  10.741   1.323  14.215
55352W        W21893   9.044   3.634  13.498
55353W        W21894  39.558   5.716   4.262
55354W        W21895  41.012  27.487   2.298
55355W        W21896  26.083  31.433   0.729
55356W        W21897  30.633  37.364  11.803
55357W        W21898  20.543  43.283   4.997
55358W        W21899  33.499  22.837   3.674
55359W        W21900  31.963   7.685   0.352
55360W        W21901  20.506  20.094   0.253
55361W        W21902  34.829  34.879  10.559
55362W        W21903  21.204  44.393  13.280
55363W        W21904  41.870  18.805  13.444
55364W        W21905  11.749  21.829   0.720
55365W        W21906  31.159  34.578  10.414
55366W        W21907  12.055  40.452  14.918
55367W        W21908   3.308  11.267   0.736
55368W        W21909   3.908  32.392   1.915
55369W        W21910  28.114  10.623   1.927
55370W        W21911   6.153  17.180   0.734
55371W        W21912   6.184  34.102  14.514
55372W        W21913   3.034  39.845   2.902
55373W        W21914   3.809  10.023   2.618
55374W        W21915   5.392  32.658   1.822
55375W        W21916  11.353   2.428   3.850
55376W        W21917  38.929  41.865  11.224
55377W        W21918  26.877  12.853  14.496
55378W        W21919  11.565  22.091   0.247
55379W        W21920  10.099  12.309   3.231
55380W        W21921   0.518  26.467  11.886
55381W        W21922  18.204  15.466   2.163
55382W        W21923  24.699  39.019  12.009
55383W        W21924   6.174  21.113   1.832
55384W        W21925   5.430  16.663  14.750
55385W        W21926  31.180  11.631  13.004
55386W        W21927  31.781   9.334  12.592
55387W        W21928  38.100   6.921   0.767
55388W        W21929   7.896  23.773   3.222
55389W        W21930  20.759  26.938  13.891
55390W        W21931   5.434  40.514   2.431
55391W        W21932  29.638  11.490   3.735
55392W        W21933  40.833  16.042   2.569
55393W        W21934  19.799  22.421   3.706
55394W        W21935  21.387  20.818   3.184
55395W        W21936   6.249  30.770   2.633
55396W        W21937   8.855  13.745  11.370
55397W        W21938  30.581  32.560  12.842
55398W        W21939  13.635  21.785  12.420
55399W        W21940  18.958  32.734   2.433
55400W        W21941  26.140   3.302  11.099
55401W        W21942  25.826   7.128  14.911
55402W        W21943  35.929  22.916  11.220
55403W        W21944   3.056  13.106   0.855
55404W        W21945  10.653  44.708  14.486
55405W        W21946  39.016   1.650  12.982
55406W        W21947  32.803  10.697   1.439
55407W        W21948  26.653  15.047   3.658
55408W        W21949   8.079   3.986   3.622
55409W        W21950  38.363  13.218  10.752
55410W        W21951  13.090  20.621   2.716
55411W        W21952  22.468  23.272  10.992
55412W        W21953  41.466   7.635   4.102
55413W        W21954  22.888  22.573  11.408
55414W        W21955  11.736  26.855   3.679
55415W        W21956  37.794  36.145   2.211
55416W        W21957   9.593  22.217   2.345
55417W        W21958  28.879   2.781   1.301
55418W        W21959  32.383  23.965  12.091
55419W        W21960  27.468  40.989   2.412
55420W        W21961  38.957  24.406   2.346
55421W        W21962  22.530   7.673   4.346
55422W        W21963  17.054  42.476  13.605
55423W        W21964   8.947  20.167   0.826
55424W        W21965  19.858  25.290   1.428
55425W        W21966  37.750  40.993   4.896
55426W        W21967  41.786  22.726  13.335
55427W        W21968   3.590  22.229  10.067
55428W        W21969  35.067  41.839   1.676
55429W        W21970   9.987  21.699  14.001
55430W        W21971   3.484   5.174   2.616
55431W        W21972  11.799  32.551   5.115
55432W        W21973  29.401  41.766  11.618
55433W        W21974  25.054  25.351  10.800
55434W        W21975   8.236  31.669   4.597
55435W        W21976   7.382   8.841  11.543
55436W        W21977  12.760  19.727   1.829
55437W        W21978  29.670  15.796  12.174
55438W        W21979  28.425  27.196   1.388
55439W        W21980  40.893  36.037  14.883
55440W        W21981  17.079  24.461  13.350
55441W        W21982  18.243  24.693  12.833
55442W        W21983  40.845  15.212  14.397
55443W        W21984  37.971  42.630   3.355
55444W        W21985  10.634   0.274   2.876
55445W        W21986   7.307  23.763   1.325
55446W        W21987  13.518  29.030   1.062
55447W        W21988  21.743   7.159   0.643
55448W        W21989   9.389  31.840   0.997
55449W        W21990  38.531  14.266  11.440
55450W        W21991  17.083  41.725  11.133
55451W        W21992  37.281  15.304   9.772
55452W        W21993  27.091  28.626  12.740
55453W        W21994  29.093   9.652   1.755
55454W        W21995   1.094   4.516  13.075
55455W        W21996   1.828   5.714  12.474
55456W        W21997  41.647  35.110   0.949
55457W        W21998  44.969  30.666   4.183
55458W        W21999  28.397   7.950   1.421
55459W        W22000  41.128  30.294  12.947
55460W        W22001  12.157  33.068  12.797
55461W        W22002   7.835  28.584  14.290
55462W        W22003   5.184   7.647   4.335
55463W        W22004  13.091   6.390   1.270
55464W        W22005   5.273   5.953  12.787
55465W        W22006   7.161   6.308   0.770
55466W        W22007  30.394  29.639  12.642
55467W        W22008   7.472   3.321  14.388
55468W        W22009  26.335   6.383   0.924
55469W        W22010  21.656   2.835   3.830
55470W        W22011  14.812   4.512   2.734
55471W        W22012  39.091  33.650   5.010
55472W        W22013  25.633  22.820   1.912
55473W        W22014  34.383  32.089  11.842
55474W        W22015  37.622  23.164   1.756
55475W        W22016  37.833  15.470   3.041
55476W        W22017  39.882  27.259  14.782
55477W        W22018  23.597  44.206  11.082
55478W        W22019  21.564   1.737   4.111
55479W        W22020   8.350  33.707  13.996
55480W        W22021  13.076  37.557   4.005
55481W        W22022  11.371  37.543  10.666
55482W        W22023   6.181  40.800   0.473
55483W        W22024   9.971  35.399  12.522
55484W        W22025  29.047  42.930  10.045
55485W        W22026  11.853  37.670   4.576
55486W        W22027  36.790  40.894   1.762
55487W        W22028  22.515  27.613  11.182
55488W        W22029  39.972  11.482  11.963
55489W        W22030   3.431  12.138  14.900
55490W        W22031   6.147   0.382  13.614
55491W        W22032  20.251  17.036  11.110
55492W        W22033  27.928  18.305   2.847
55493W        W22034  30.661  11.614   2.674
55494W        W22035  13.208  11.591  12.515
55495W        W22036  14.753   6.875   0.581
55496W        W22037  33.610   9.671  12.134
55497W        W22038  44.578  18.766   1.529
55498W        W22039  29.315  41.993   2.099
55499W        W22040  41.381  12.071  11.645
55500W        W22041  37.989  35.098   2.381
55501W        W22042  23.970  20.066  13.348
55502W        W22043  15.328  31.896   1.832
55503W        W22044   3.953  33.911  14.806
55504W        W22045  33.593  40.495   4.502
55505W        W22046  26.787  18.785  10.823
55506W        W22047   4.665  22.462   3.233
55507W        W22048   9.916  35.362  11.159
55508W        W22049  44.508  30.218   0.436
55509W        W22050  24.507   4.313  12.444
55510W        W22051  21.233  37.208  13.986
55511W        W22052  33.292   4.839  10.665
55512W        W22053  35.796  41.961   3.996
55513W        W22054   0.782  36.050   0.459
55514W        W22055  13.663   0.693   3.687
55515W        W22056  27.421  14.987   4.378
55516W        W22057  30.661  38.901   0.313
55517W        W22058  35.696  10.125   0.273
55518W        W22059   1.856  35.034   0.511
55519W        W22060  26.078   6.237  13.983
55520W        W22061  21.914  23.523  11.461
55521W        W22062  23.004  28.666  11.528
55522W        W22063  14.599  13.622   1.498
55523W        W22064  30.563  24.588   0.153
55524W        W22065  23.394  38.159  11.239
55525W        W22066  35.530   8.920   0.802
55526W        W22067   2.068  12.846   1.466
55527W        W22068  43.451   0.053  11.215
55528W        W22069  10.187   7.938  13.101
55529W        W22070  11.826  15.709   4.659
55530W        W22071  24.959  36.743  13.069
55531W        W22072   2.608   7.353   0.374
55532W        W22073  22.388  15.365  11.436
55533W        W22074  27.047   2.300  12.622
55534W        W22075   9.633  18.770  12.340
55535W        W22076  43.320   5.353  12.221
55536W        W22077  29.381  18.606  13.871
55537W        W22078  34.038  39.102  10.738
55538W        W22079   0.338   6.299  14.370
55539W        W22080  22.926  39.454   4.546
55540W        W22081  23.485  43.007  11.568
55541W        W22082  10.793  19.016   2.342
55542W        W22083  24.833  16.999   5.032
55543W        W22084  25.952  37.813   2.629
55544W        W22085   0.830  27.529   1.930
55545W        W22086   7.833   8.424  14.341
55546W        W22087  18.843  14.567  11.606
55547W        W22088   1.252  25.980  13.980
55548W        W22089  29.153   2.173  12.560
55549W        W22090   1.116   0.723  10.567
55550W        W22091  35.551  11.331  14.775
55551W        W22092  34.930   3.243   2.376
55552W        W22093  18.828  39.171  13.976
55553W        W22094  35.510  28.570   1.866
55554W        W22095  42.744  22.544  12.905
55555W        W22096   3.544  35.924  11.834
55556W        W22097  38.064  43.850   0.944
55557W        W22098   3.332  39.395  13.025
55558W        W22099   3.809  33.503   4.186
55559W        W22100  40.496  40.308   4.110
55560W        W22101  29.210  22.704  14.849
55561W        W22102   1.230  15.865   2.334
55562W        W22103   2.760  19.331   4.129
55563W        W22104   1.822  17.211  11.145
55564W        W22105  42.064  16.110  12.402
55565W        W22106  41.111  44.281   2.267
55566W        W22107  14.058   2.795   0.794
55567W        W22108  40.027  18.418  14.634
55568W        W22109  43.097  10.249  13.999
55569W        W22110   9.912  21.585   3.601
55570W        W22111  31.877  18.075  12.947
55571W        W22112  15.393  29.098  14.268
55572W        W22113  30.170  42.546  13.487
55573W        W22114  43.483  14.603   2.194
55574W        W22115  13.202  18.200   4.517
55575W        W22116  39.156   5.119   4.933
55576W        W22117   9.875  43.322  12.431
55577W        W22118  32.791   6.686  12.698
55578W        W22119   9.636   0.187  12.728
55579W        W22120   3.938   6.861   1.692
55580W        W22121  36.136  34.603   0.472
55581W        W22122  21.654  23.692   3.226
55582W        W22123  13.407  30.431   9.893
55583W        W22124  39.819  14.364  14.481
55584W        W22125   0.857  14.345  14.046
55585W        W22126  18.085  15.025   1.265
55586W        W22127  12.466  44.604  14.185
55587W        W22128   8.886  12.732  14.811
55588W        W22129   2.637  41.191  12.887
55589W        W22130  28.289   2.712  11.127
55590W        W22131  42.363  21.247  10.616
55591W        W22132  31.830  11.277  11.479
55592W        W22133  11.182   0.868   2.909
55593W        W22134  40.771   7.843  13.961
55594W        W22135  40.577  29.823  12.467
55595W        W22136  10.515   8.077  11.616
55596W        W22137  34.572  30.111  13.527
55597W        W22138  33.720  11.081  10.906
55598W        W22139  31.799  42.500   2.400
55599W        W22140   3.419  44.069   3.047
55600W        W22141  11.631  34.883   3.855
55601W        W22142  20.108  36.367   2.671
55602W        W22143  28.523   6.635  13.826
55603W        W22144   3.314  26.194  12.268
55604W        W22145  17.166  19.101   3.772
55605W        W22146   7.995  18.952   3.499
55606W        W22147  32.389   0.028  12.868
55607W        W22148  42.332  43.281  14.385
55608W        W22149  29.228  39.064   4.063
55609W        W22150  42.305   7.715   0.628
55610W        W22151  35.775  35.440  11.242
55611W        W22152   7.076  33.566  10.791
55612W        W22153  14.113  36.116  12.681
55613W        W22154  18.026  43.365  14.942
55614W        W22155   5.427  19.555   0.452
55615W        W22156   7.316  26.432   4.670
55616W        W22157  27.655  44.464  11.999
55617W        W22158   8.314  15.777   4.165
55618W        W22159  37.598  11.153  12.811
55619W        W22160  38.702  21.091   3.181
55620W        W22161   7.843  19.512  11.119
55621W        W22162   5.305  19.265  11.665
55622W        W22163  42.888  12.110   2.867
55623W        W22164  26.468  15.812   4.070
55624W        W22165  41.937   4.502  11.572
55625W        W22166  23.036   9.644  10.868
55626W        W22167  22.213  33.691   0.046
55627W        W22168  21.693  22.566   4.326
55628W        W22169  27.442   3.766  14.887
55629W        W22170  29.972  13.705   0.721
55630W        W22171  43.507   7.143   2.006
55631W        W22172   2.952  30.069   3.680
55632W        W22173  42.754  28.167  13.458
55633W        W22174   3.418  17.810  12.981
55634W        W22175  16.628  12.226   3.857
55635W        W22176  21.674   3.429  10.246
55636W        W22177   8.414  44.156   0.489
55637W        W22178  35.817  19.527  11.743
55638W        W22179  41.100  28.663  12.639
55639W        W22180  20.660   7.019   4.221
55640W        W22181   9.684  35.224  12.910
55641W        W22182  15.318   8.068   2.328
55642W        W22183  37.487  20.465   3.567
55643W        W22184  26.404  16.593   4.545
55644W        W22185  14.661   5.947  13.453
55645W        W22186   9.867   3.371   2.303
55646W        W22187  12.183  18.253  13.829
55647W        W22188  38.853  43.785   4.115
55648W        W22189  38.828  31.168   1.937
55649W        W22190   0.332  30.279   3.558
55650W        W22191  42.264  25.982   0.465
55651W        W22192  44.418  40.813  12.665
55652W        W22193   0.400  28.235  12.971
55653W        W22194  14.497  23.493   0.991
55654W        W22195  34.338  44.115   1.948
55655W        W22196  21.552   0.686   4.367
55656W        W22197  10.832  41.035   4.823
55657W        W22198  14.928  35.156  12.873
55658W        W22199  42.407  38.380   2.120
55659W        W22200  27.122  28.428  13.232
55660W        W22201  31.498  24.654   3.594
55661W        W22202  36.455   6.266  12.957
55662W        W22203  42.751  17.596   0.082
55663W        W22204  16.801  16.000  11.646
55664W        W22205  30.421  15.519   2.569
55665W        W22206  32.117  21.536  12.997
55666W        W22207  28.798  31.351  14.201
55667W        W22208  38.434   3.354   2.963
55668W        W22209  31.330  15.714  12.719
55669W        W22210  28.526  32.566  11.561
55670W        W22211  22.187   3.233  11.135
55671W        W22212  37.388  24.506   2.209
55672W        W22213  36.317   1.513   3.086
55673W        W22214  14.838  39.169   3.267
55674W        W22215  15.645  39.479  14.515
55675W        W22216  32.534  22.992  11.996
55676W        W22217   9.359  27.957   0.842
55677W        W22218  31.829   7.629  10.840
55678W        W22219   1.704  14.133   1.602
55679W        W22220   7.731   6.427  10.640
55680W        W22221  30.214  27.012   1.445
55681W        W22222  29.571   1.941  10.690
55682W        W22223  35.972   4.805  14.980
55683W        W22224   0.442  21.108  13.441
55684W        W22225  38.581  34.850   1.414
55685W        W22226   5.756  36.478  12.334
55686W        W22227   9.407  42.012   9.796
55687W        W22228   3.990  31.464  13.032
55688W        W22229  23.016  23.057   1.935
55689W        W22230   0.105  44.345   3.676
55690W        W22231  44.479  34.501   3.012
55691W        W22232  37.405  14.278   4.923
55692W        W22233  38.396   6.264   4.412
55693W        W22234  31.077  10.863  11.945
55694W        W22235  42.276  37.080   4.840
55695W        W22236   1.681  25.026  13.516
55696W        W22237  41.932  40.107   3.554
55697W        W22238  27.633   7.923   4.348
55698W        W22239  22.679  22.695   0.018
55699W        W22240   0.842  14.199   4.568
55700W        W22241   5.484  22.358  14.482
55701W        W22242  10.849   4.379  14.787
55702W        W22243  37.139  25.007   3.554
55703W        W22244  29.883  16.517   2.867
55704W        W22245   1.347  26.926   1.655
55705W        W22246  27.080  31.561   0.993
55706W        W22247  27.473  42.492   4.025
55707W        W22248  38.336  23.623   4.797
55708W        W22249  25.171   7.201  14.323
55709W        W22250  43.743  31.088  10.678
55710W        W22251  34.467  38.701   1.540
55711W        W22252  23.931  17.654   2.140
55712W        W22253  42.308  17.290   4.109
55713W        W22254  24.232  17.251   2.263
55714W        W22255   9.790  11.668  10.688
55715W        W22256  24.250   2.008  12.093
55716W        W22257  38.248  42.538  14.644
55717W        W22258   0.863  27.669  11.003
55718W        W22259  43.905  19.014  13.844
55719W        W22260  40.472  43.378   2.858
55720W        W22261  13.164  22.545   5.120
55721W        W22262   2.442   4.777   0.555
55722W        W22263   3.239  36.162   3.663
55723W        W22264  14.724   6.894   2.708
55724W        W22265  14.886  21.268  12.193
55725W        W22266  32.449   9.184  14.382
55726W        W22267  40.429   8.130   0.732
55727W        W22268   6.837  39.327  14.846
55728W        W22269  19.069   2.466   0.990
55729W        W22270   6.021  24.493  11.990
55730W        W22271  37.402  14.326   1.650
55731W        W22272  12.092  12.526   0.618
55732W        W22273  22.059  29.138  12.010
55733W        W22274  12.032  44.916   0.339
55734W        W22275  17.668  40.388  11.776
55735W        W22276  29.067  38.448   0.945
55736W        W22277  23.002  22.030   0.349
55737W        W22278  22.613  30.200  14.802
55738W        W22279   4.900  25.722  12.518
55739W        W22280  18.751  35.155  14.440
55740W        W22281   8.719   3.424  12.562
55741W        W22282  23.713  36.150   2.929
55742W        W22283  11.461  10.665  10.770
55743W        W22284  37.909   6.736   3.257
55744W        W22285  11.675   5.409   2.802
55745W        W22286  13.330  17.981  11.145
55746W        W22287  20.684  12.279   1.770
55747W        W22288  15.307  37.443   4.604
55748W        W22289  39.168  42.780   1.020
55749W        W22290  29.445   4.754  13.944
55750W        W22291  30.814  29.331  12.717
55751W        W22292   8.371   2.956   0.193
55752W        W22293   1.725  28.786   3.088
55753W        W22294  18.660   6.646  11.054
55754W        W22295   1.130  38.547  10.886
55755W        W22296  18.162  32.842   3.611
55756W        W22297  11.749   2.905   3.233
55757W        W22298  29.617  16.611   2.427
55758W        W22299   9.460  11.617   1.788
55759W        W22300   7.326  26.529  11.207
55760W        W22301   7.282   1.935   2.713
55761W        W22302   3.273  25.471   3.185
55762W        W22303  30.995  11.654   2.268
55763W        W22304  14.291   1.542   1.627
55764W        W22305   7.433  12.371  11.984
55765W        W22306  39.790  35.546   1.780
55766W        W22307  26.544  14.316   1.757
55767W        W22308   7.347  34.530  14.331
55768W        W22309  21.993  17.400   4.186
55769W        W22310  36.817   7.364  14.089
55770W        W22311   9.912  29.458   2.368
55771W        W22312  24.992  42.849  14.233
55772W        W22313   7.390  29.449   2.638
55773W        W22314  24.740  34.353  12.806
55774W        W22315  25.735   7.922  13.987
55775W        W22316  37.596  20.031   2.601
55776W        W22317  36.895  44.783   1.802
55777W        W22318   1.380  21.984  11.853
55778W        W22319  44.310  15.833  12.170
55779W        W22320  17.017  14.646   1.891
55780W        W22321  10.561  25.609  11.651
55781W        W22322  29.210   1.099   4.660
55782W        W22323   0.022  16.699  12.097
55783W        W22324   9.713  38.640   4.066
55784W        W22325   3.702   3.868  12.517
55785W        W22326  11.251   6.230   1.689
55786W        W22327  21.230  20.534   2.784
55787W        W22328  20.936  21.098  13.718
55788W        W22329  26.795  26.307   2.841
55789W        W22330  34.436  11.929   1.014
55790W        W22331  20.704  31.942   4.782
55791W        W22332  33.955  29.158  12.811
55792W        W22333  31.605  38.109  10.638
55793W        W22334  29.899  40.086  10.426
55794W        W22335  20.453  32.327   3.516
55795W        W22336  31.051   3.526  13.900
55796W        W22337  25.727  24.641   0.363
55797W        W22338  31.372  28.039  12.100
55798W        W22339  17.194  28.398  11.797
55799W        W22340  43.358   7.940   4.141
55800W        W22341  38.750   4.349   3.230
55801W        W22342  38.623  26.465  13.595
55802W        W22343  37.112  43.300   2.803
55803W        W22344  37.605  22.156  14.717
55804W        W22345   5.209  44.488  11.577
55805W        W22346  25.611  36.533   2.795
55806W        W22347   3.780  19.090   4.201
55807W        W22348  25.108  40.508  11.440
55808W        W22349  23.171  39.894  11.613
55809W        W22350  21.128  22.098  10.648
55810W        W22351  31.470  16.230   3.670
55811W        W22352  42.102  33.787  11.122
55812W        W22353  15.857  35.486  14.506
55813W        W22354  19.863  27.389   0.954
55814W        W22355  41.913  11.556   3.121
55815W        W22356   3.201  14.813   4.604
55816W        W22357  36.069  28.414  11.248
55817W        W22358   0.555  35.058   3.125
55818W        W22359   0.572  28.993  11.670
55819W        W22360   8.435  29.915   0.428
55820W        W22361   2.334  30.093   1.003
55821W        W22362  16.534  42.678   0.788
55822W        W22363  17.428  31.096  11.498
55823W        W22364   3.631  29.526  14.599
55824W        W22365   6.586  21.562  11.945
55825W        W22366  18.841  34.690  12.081
55826W        W22367  27.407  35.801   0.450
55827W        W22368   6.009   4.624  11.050
55828W        W22369   7.949  17.875   4.177
55829W        W22370  41.298  34.792  11.170
55830W        W22371  18.308  33.869   0.764
55831W        W22372  32.596   1.400   5.039
55832W        W22373  32.405  21.062   1.806
55833W        W22374  32.509  27.286  14.315
55834W        W22375  43.779   7.137  11.021
55835W        W22376  44.933  39.353  14.641
55836W        W22377   8.166  25.698  12.623
55837W        W22378  14.328  15.837   3.190
55838W        W22379  33.304  40.363   1.728
55839W        W22380  44.849  43.749  14.091
55840W        W22381  35.803  31.185  11.506
55841W        W22382  29.649   1.535  13.166
55842W        W22383  21.125  26.200   0.233
55843W        W22384  30.143  41.113  11.092
55844W        W22385  28.680  10.353   4.654
55845W        W22386  34.861  43.513   2.735
55846W        W22387   6.492  27.640  12.916
55847W        W22388   1.754  40.952   0.581
55848W        W22389  24.714   5.798  14.698
55849W        W22390  24.682  16.806   1.225
55850W        W22391  40.982  26.691  11.174
55851W        W22392   7.511   3.664  11.247
55852W        W22393  31.475  39.356   1.807
55853W        W22394  42.341  27.994   2.250
55854W        W22395   6.456  34.510   1.876
55855W        W22396  28.091  19.278  12.381
55856W        W22397  19.796   3.276  11.950
55857W        W22398  35.642  34.864  12.382
55858W        W22399   1.905  30.315   1.176
55859W        W22400  33.108   6.501   5.045
55860W        W22401  14.702  21.002   3.699
55861W        W22402   4.033  19.949   2.260
55862W        W22403  37.939  36.057  14.848
55863W        W22404  23.411  12.289   4.625
55864W        W22405   0.889  35.840   4.178
55865W        W22406  40.844  32.194   4.634
55866W        W22407  31.071  28.227   2.409
55867W        W22408  35.377  37.100  14.024
55868W        W22409  17.326  32.412   2.907
55869W        W22410  44.228   1.206  13.469
55870W        W22411   5.210  11.302   4.190
55871W        W22412  21.903  33.559   0.434
55872W        W22413  33.363   0.330  11.398
55873W        W22414   5.244   1.782  13.977
55874W        W22415  44.946  32.931  13.846
55875W        W22416  29.490  15.787  10.813
55876W        W22417  23.149  33.385   1.041
55877W        W22418  38.995  40.041   0.321
55878W        W22419   8.617  41.511  14.887
55879W        W22420  39.589  41.401   4.127
55880W        W22421  22.643   8.445   0.348
55881W        W22422  26.760  33.501  11.508
55882W        W22423  24.473  17.124   2.712
55883W        W22424   7.498  37.558  14.261
55884W        W22425   1.264   2.319  12.638
55885W        W22426   0.817   0.094   3.248
55886W        W22427   0.821   9.333  14.425
55887W        W22428   4.821  31.165  13.921
55888W        W22429  32.903  33.567  11.070
55889W        W22430  11.101   1.706  11.502
55890W        W22431  34.419   5.158  14.805
55891W        W22432  40.949  40.211   2.271
55892W        W22433   5.144  44.343   2.938
55893W        W22434   4.858  41.529   0.240
55894W        W22435  20.378  36.040  10.280
55895W        W22436  11.372  12.816   1.769
55896W        W22437  41.696  44.470   1.661
55897W        W22438   5.381  22.538   5.227
55898W        W22439  33.063  16.882  12.054
55899W        W22440  22.975  41.948  13.558
55900W        W22441  24.205  21.971  13.978
55901W        W22442  24.278   8.217   4.558
55902W        W22443  16.906  28.089  11.374
55903W        W22444   7.160   1.470   1.784
55904W        W22445  34.973   1.999  11.633
55905W        W22446  40.839  37.057  12.062
55906W        W22447  32.011   8.906  12.794
55907W        W22448  27.531  18.782  14.932
55908W        W22449   3.767   7.541  12.473
55909W        W22450  15.031  22.179  14.857
55910W        W22451  33.173  44.262   4.112
55911W        W22452  27.170  20.565   3.514
55912W        W22453  35.584  42.887   0.485
55913W        W22454   5.159  34.582   2.914
55914W        W22455  10.140  21.976  12.089
55915W        W22456  17.394   8.886  12.538
55916W        W22457   8.701   8.189   3.403
55917W        W22458  23.544  17.022   3.616
55918W        W22459  37.739  44.032  12.379
55919W        W22460  36.797  24.607   0.978
55920W        W22461  34.141  13.571   1.288
55921W        W22462  35.064  17.319   1.347
55922W        W22463  40.299  39.584  10.784
55923W        W22464  15.483  25.545   0.741
55924W        W22465   2.894  36.523   3.847
55925W        W22466  42.295  40.470   3.687
55926W        W22467   8.586  26.225  13.259
55927W        W22468  36.052   5.755  14.227
55928W        W22469  17.590   4.131   4.535
55929W        W22470   8.356  44.278  11.003
55930W        W22471   7.178  29.141   0.445
55931W        W22472   1.132  24.929  11.103
55932W        W22473  27.618  15.069  14.385
55933W        W22474   2.397   8.052   3.003
55934W        W22475  15.710  14.795   2.170
55935W        W22476  39.945  32.177  14.210
55936W        W22477  30.414  20.362  12.948
55937W        W22478   1.225  38.612   4.542
55938W        W22479  39.742  36.449   1.777
55939W        W22480   8.745  38.493  11.552
55940W        W22481  17.729  28.428   3.237
55941W        W22482  16.200  24.656  12.829
55942W        W22483  12.665  19.629   4.653
55943W        W22484   5.504   6.268  14.799
55944W        W22485  40.992  17.561   3.251
55945W        W22486  39.367  32.340  12.458
55946W        W22487   0.040  21.324   3.678
55947W        W22488  15.693  17.565  12.853
55948W        W22489  15.328  22.640   0.710
55949W        W22490  22.429  20.516  14.498
55950W        W22491  41.064  12.191  12.028
55951W        W22492  33.522  34.409   9.881
55952W        W22493  43.273  38.900   3.573
55953W        W22494  42.331   4.098   1.440
55954W        W22495  42.842   5.183  14.472
55955W        W22496  31.511  23.728   4.655
55956W        W22497  20.573  22.148   3.743
55957W        W22498  15.708  23.431   0.285
55958W        W22499  40.332  24.106  13.223
55959W        W22500  36.361  34.990   3.670
55960W        W22501  32.426   4.808   3.712
55961W        W22502  39.785  31.106   4.226
55962W        W22503  23.232  11.059   0.384
55963W        W22504  30.637  10.060  12.051
55964W        W22505  29.932   7.140   3.864
55965W        W22506   2.213   2.516   3.622
55966W        W22507  25.200   1.813   0.446
55967W        W22508  42.896  18.667   2.340
55968W        W22509  20.980   4.302   4.516
55969W        W22510  40.538  33.190   4.915
55970W        W22511   0.975  19.238   4.847
55971W        W22512  27.564  17.619  14.117
55972W        W22513   9.776  26.757   1.979
55973W        W22514  11.611   7.355   4.556
55974W        W22515   3.873  44.717   0.339
55975W        W22516  22.203  42.587   4.569
55976W        W22517  44.291  23.006  13.884
55977W        W22518  34.664   0.431   9.744
55978W        W22519  32.106   6.956  14.234
55979W        W22520  26.543   4.696   0.293
55980W        W22521  18.300  21.343   2.728
55981W        W22522  39.243  20.666  11.700
55982W        W22523  17.489  38.607   1.887
55983W        W22524  13.255  40.131  13.485
55984W        W22525   9.253  24.407   0.211
55985W        W22526  10.813  33.067  13.890
55986W        W22527  32.437  40.441  13.899
55987W        W22528  19.626  20.457  12.454
55988W        W22529  40.502  35.123   3.395
55989W        W22530  40.814   9.824  11.908
55990W        W22531  41.777   9.687   0.882
55991W        W22532  17.400  27.960  11.512
55992W        W22533   7.317  12.325   1.645
55993W        W22534  25.156  13.338   1.386
55994W        W22535  20.039  40.488  14.898
55995W        W22536  30.982  10.759   0.038
55996W        W22537  32.971  25.552   4.557
55997W        W22538  41.541  22.643   4.130
55998W        W22539   4.899  13.855   1.823
55999W        W22540  41.608   7.922   2.756
56000W        W22541   9.194  23.175  13.378
56001W        W22542  18.502  17.850   2.402
56002W        W22543  30.404  36.327   2.775
56003W        W22544   3.427   5.644   2.799
56004W        W22545  10.620  19.687  14.279
56005W        W22546  36.492  42.405  12.139
56006W        W22547  34.383   3.973  13.240
56007W        W22548  10.332  30.379   1.567
56008W        W22549  20.211  35.790   3.619
56009W        W22550  34.842  18.576   4.649
56010W        W22551  36.955   9.401   2.493
56011W        W22552  14.175  36.591  12.367
56012W        W22553  27.686  38.958   0.759
56013W        W22554  22.976   9.297   3.272
56014W        W22555  28.868  35.989   0.397
56015W        W22556  14.837  37.536   1.425
56016W        W22557  39.079   3.087   4.538
56017W        W22558   3.025  38.066  12.038
56018W        W22559  17.647  36.397  12.138
56019W        W22560  30.894  14.339   5.411
56020W        W22561   3.989  13.614  13.052
56021W        W22562  28.626   9.236  14.419
56022W        W22563   9.277   1.682  14.400
56023W        W22564  18.264  11.103  10.730
56024W        W22565  23.546  32.608   2.492
56025W        W22566   3.861  37.586   1.825
56026W        W22567  17.974   1.745  11.282
56027W        W22568  13.754  25.079   2.214
56028W        W22569  23.573  33.474   0.364
56029W        W22570  17.902  17.075   3.824
56030W        W22571   8.482  39.494  12.160
56031W        W22572   6.932  44.474  14.935
56032W        W22573  35.635  20.090   1.403
56033W        W22574  17.335   1.697  13.406
56034W        W22575   3.274   1.083   2.142
56035W        W22576   6.083   3.878   3.661
56036W        W22577   4.173  11.893   4.827
56037W        W22578  37.529  39.630   1.777
56038W        W22579  25.687   6.211  11.616
56039W        W22580   0.424  13.855  11.163
56040W        W22581  25.086  19.522  11.556
56041W        W22582  28.688   2.629   1.817
56042W        W22583  24.137  15.288   3.254
56043W        W22584  33.579  18.248  10.762
56044W        W22585  25.787   9.384   4.560
56045W        W22586  16.810  13.655   2.154
56046W        W22587  16.108  13.617   2.329
56047W        W22588  22.727  32.375   0.905
56048W        W22589  12.888  39.712  12.522
56049W        W22590  20.317   1.746  11.238
56050W        W22591  30.003  17.309   1.734
56051W        W22592   6.488  20.220  14.274
56052W        W22593  17.037  10.206  12.839
56053W        W22594   1.395   4.815  12.811
56054W        W22595  33.409  44.466   4.555
56055W        W22596  22.684   1.005   5.031
56056W        W22597   8.043  15.585   1.419
56057W        W22598  21.848  32.493   3.921
56058W        W22599  29.848  15.509  12.660
56059W        W22600  13.337  30.083  11.931
56060W        W22601  19.785  21.614  13.873
56061W        W22602  43.975   5.396  12.010
56062W        W22603  41.632  15.518   1.911
56063W        W22604  38.455  26.688  12.714
56064W        W22605  29.597   1.726   1.100
56065W        W22606  16.072  44.273  11.180
56066W        W22607  11.808  40.877  14.655
56067W        W22608  17.793  31.843   5.416
56068W        W22609  37.028  33.052  11.584
56069W        W22610  31.862   6.669  11.183
56070W        W22611  24.096  18.496   1.337
56071W        W22612  21.660  38.492  13.069
56072W        W22613   7.259  27.200   3.831
56073W        W22614  29.896  37.946  11.699
56074W        W22615  17.173  23.727  12.523
56075W        W22616  25.515  42.466   0.929
56076W        W22617  15.074  20.065   2.768
56077W        W22618  33.635   5.123  13.868
56078W        W22619  20.768  36.081   4.805
56079W        W22620  24.990  15.782  10.580
56080W        W22621  15.460   1.264  13.349
56081W        W22622  23.917   1.940  14.974
56082W        W22623   6.748   8.809   2.219
56083W        W22624  40.985  43.529   3.037
56084W        W22625   0.447   3.828   3.413
56085W        W22626  39.141  33.091   2.414
56086W        W22627   4.430  35.919  14.228
56087W        W22628   7.855   0.540  11.626
56088W        W22629   8.212  15.871  14.816
56089W        W22630  36.678   3.001  11.671
56090W        W22631  42.434  20.130  11.430
56091W        W22632  24.691   0.163   4.152
56092W        W22633   8.769  19.644   0.817
56093W        W22634  17.043  24.270  12.485
56094W        W22635  17.700  31.497   9.614
56095W        W22636  18.215  12.300   2.688
56096W        W22637  19.647   2.038   1.221
56097W        W22638  43.542  19.150   2.478
56098W        W22639  11.821   4.413  11.921
56099W        W22640   6.359  24.929   0.986
56100W        W22641  22.450  29.385  11.093
56101W        W22642  12.127  35.534  13.367
56102W        W22643  18.528   4.718  13.951
56103W        W22644  14.504   6.274   1.246
56104W        W22645  19.478  44.175  14.925
56105W        W22646   5.072  24.280  12.274
56106W        W22647   1.311  39.788  14.449
56107W        W22648  31.959   3.291   0.005
56108W        W22649   8.028  14.325  13.605
56109W        W22650  12.938  33.419   4.556
56110W        W22651  17.020  28.110   1.363
56111W        W22652  41.199  27.474  12.898
56112W        W22653  12.125  43.887  10.749
56113W        W22654  20.265   0.963   0.858
56114W        W22655  34.849  10.831   1.679
56115W        W22656  31.916  30.064   2.318
56116W        W22657  34.112  19.687   1.702
56117W        W22658  14.755  19.018  14.147
56118W        W22659  10.024  26.985   0.211
56119W        W22660  14.071  20.850   0.346
56120W        W22661  21.223  27.694   2.740
56121W        W22662  13.626  41.381  11.876
56122W        W22663  36.992  11.694  11.103
56123W        W22664  39.575  31.980   4.058
56124W        W22665  36.506   2.514   1.872
56125W        W22666  36.115  33.941   1.234
56126W        W22667  40.689  14.958   5.343
56127W        W22668   1.863   8.675   3.139
56128W        W22669  19.441   2.925  11.206
56129W        W22670  17.586  22.612  14.820
56130W        W22671  29.078  38.931  11.355
56131W        W22672   6.400  20.648   3.842
56132W        W22673  22.178  21.249  10.497
56133W        W22674   1.965   9.859  14.521
56134W        W22675  16.642  24.557  14.118
56135W        W22676  12.635  28.513   1.919
56136W        W22677  26.647  12.227  12.536
56137W        W22678  12.801  41.840   4.449
56138W        W22679   5.766  14.551  14.125
56139W        W22680  21.275  18.065   0.359
56140W        W22681  40.053  31.636  14.059
56141W        W22682  29.688  15.146   3.531
56142W        W22683  41.999  15.717  10.833
56143W        W22684   0.406  37.541   5.115
56144W        W22685  16.787  39.152  14.935
56145W        W22686  40.189  25.832  11.967
56146W        W22687  15.104  25.467  14.808
56147W        W22688  11.126  34.947  13.964
56148W        W22689  30.334   6.918   4.784
56149W        W22690  29.227  13.169   0.879
56150W        W22691   3.975  27.912   0.884
56151W        W22692  24.947  20.677   0.036
56152W        W22693   0.853  24.159   0.921
56153W        W22694  10.336  21.274  11.042
56154W        W22695  30.686  41.843   2.246
56155W        W22696  34.110  23.621   3.978
56156W        W22697  30.578  10.560   4.969
56157W        W22698   7.894   9.733  11.196
56158W        W22699  41.796  15.707   4.064
56159W        W22700  28.044  38.840   2.457
56160W        W22701   1.335  27.208   3.544
56161W        W22702  24.933   6.486   4.486
56162W        W22703   7.062  21.541  12.716
56163W        W22704  32.210   0.476   0.272
56164W        W22705  26.989   7.813  13.379
56165W        W22706  17.575  30.485   4.014
56166W        W22707  24.575  36.328  11.178
56167W        W22708   1.510  35.605   2.418
56168W        W22709  30.636  27.943   3.247
56169W        W22710  29.559  26.566   4.688
56170W        W22711  33.351  40.461  12.396
56171W        W22712   7.168  24.223  10.267
56172W        W22713  41.043  27.965   1.348
56173W        W22714  30.611  18.897   3.343
56174W        W22715  11.144  18.775   3.437
56175W        W22716  38.816  40.341   1.538
56176W        W22717   7.796  38.968   1.462
56177W        W22718   8.876  44.968   4.669
56178W        W22719   5.940   1.736  13.473
56179W        W22720  40.082  12.563   1.738
56180W        W22721   0.423  35.825  11.139
56181W        W22722   7.225   7.200   1.120
56182W        W22723   8.095   5.370   0.396
56183W        W22724  17.273   4.481  13.513
56184W        W22725  26.811  39.470   0.487
56185W        W22726   1.182  16.280   4.887
56186W        W22727  33.383  24.055  10.671
56187W        W22728  11.202  35.897   0.001
56188W        W22729  27.801  20.635  13.892
56189W        W22730  27.164   8.798  13.494
56190W        W22731  16.697  30.456   4.565
56191W        W22732  39.357   5.975  11.867
56192W        W22733  44.488  29.489   3.850
56193W        W22734  11.258  12.371   0.960
56194W        W22735  23.039  13.112  11.175
56195W        W22736  15.069  23.237   1.919
56196W        W22737  33.881   8.798   0.416
56197W        W22738  23.286  25.458  11.178
56198W        W22739  40.339  26.420  10.594
56199W        W22740   1.211  13.839  10.727
56200W        W22741   3.541  32.669   4.729
56201W        W22742  29.131  19.627   3.681
56202W        W22743  26.509   4.147   2.968
56203W        W22744   8.644  42.762   1.458
56204W        W22745  27.173  26.353  11.434
56205W        W22746  13.035  25.264  10.243
56206W        W22747   6.478  25.125   1.454
56207W        W22748  24.464  31.473   2.927
56208W        W22749  28.456  15.402   3.220
56209W        W22750  33.842   7.317  13.110
56210W        W22751  36.101   8.578   2.204
56211W        W22752   0.215   2.020   1.163
56212W        W22753  21.819  44.440  14.009
56213W        W22754  38.462  32.391   4.188
56214W        W22755  24.038   2.486  14.124
56215W        W22756  30.947  13.945  10.746
56216W        W22757   4.404  16.372  13.988
56217W        W22758  40.000  31.894   2.347
56218W        W22759  21.697  34.944  11.980
56219W        W22760   5.821  21.017  10.728
56220W        W22761  33.030  30.782   1.977
56221W        W22762   6.752  11.758  10.691
56222W        W22763  41.865  27.428  13.996
56223W        W22764  23.653  38.576   0.855
56224W        W22765  10.359  12.241   4.522
56225W        W22766  36.916  41.378   2.388
56226W        W22767  27.001  44.031   0.301
56227W        W22768  11.639  16.329  13.446
56228W        W22769  42.448  16.071   3.538
56229W        W22770  25.703  31.103  12.838
56230W        W22771   2.288  43.590  14.011
56231W        W22772  43.466   9.444  12.935
56232W        W22773  20.208  10.393   2.132
56233W        W22774   4.353  21.614  12.439
56234W        W22775  42.987  20.521   3.080
56235W        W22776  32.558   0.880   3.643
56236W        W22777   7.097  21.659  12.004
56237W        W22778  31.591  41.998   2.289
56238W        W22779  11.287  35.746  10.926
56239W        W22780  27.294  35.987   4.904
56240W        W22781  14.388  16.818  10.675
56241W        W22782   1.148  39.800   2.804
56242W        W22783  17.190  27.926  12.982
56243W        W22784  40.011  39.823  12.087
56244W        W22785  34.110  24.464  10.763
56245W        W22786  21.738  13.199   2.055
56246W        W22787   6.408   4.926  13.893
56247W        W22788  13.241   5.732  11.555
56248W        W22789  34.314  34.376  14.526
56249W        W22790  25.803  35.625  12.629
56250W        W22791  34.837  14.772   1.345
56251W        W22792  30.155  34.576  12.501
56252W        W22793   6.174   6.568   3.272
56253W        W22794   2.389  24.313  13.852
56254W        W22795  27.445  28.499  10.449
56255W        W22796  37.757  11.708   4.089
56256W        W22797  20.545  36.522   3.293
56257W        W22798  43.215   5.707  10.607
56258W        W22799  29.552  34.595   1.849
56259W        W22800  13.649  34.958  13.980
56260W        W22801  17.667  38.361   0.141
56261W        W22802  18.601  16.185   0.992
56262W        W22803  39.730  10.182   1.339
56263W        W22804  43.440  21.754  14.440
56264W        W22805  41.854  27.874   2.408
56265W        W22806  41.954  37.595  11.233
56266W        W22807  15.584  21.250   1.740
56267W        W22808  25.618  13.284  13.026
56268W        W22809  16.184  41.467   4.267
56269W        W22810  24.548  14.039  14.593
56270W        W22811  41.414  41.964  11.533
56271W        W22812  17.547  22.501  10.668
56272W        W22813   7.989  17.744  12.016
56273W        W22814  15.969  14.952  13.025
56274W        W22815  23.269  10.703   1.167
56275W        W22816   8.312   7.439  14.754
56276W        W22817  23.529   8.785   5.218
56277W        W22818   9.487  26.771  12.643
56278W        W22819  35.832  15.744  13.220
56279W        W22820  21.582   2.253   4.224
56280W        W22821  25.901  19.583   0.033
56281W        W22822  33.585  20.074   0.365
56282W        W22823  26.471  26.742  11.162
56283W        W22824  37.913  12.906  12.052
56284W        W22825  21.112  21.686  12.481
56285W        W22826  30.152  23.558  14.417
56286W        W22827  28.529  28.427  12.661
56287W        W22828   8.900  23.312   0.363
56288W        W22829  12.273  31.546  11.403
56289W        W22830   5.264  23.456  11.515
56290W        W22831  39.448  16.711  12.389
56291W        W22832  19.951  11.249   3.308
56292W        W22833  33.568  16.461  10.315
56293W        W22834  11.316  10.124   2.215
56294W        W22835  40.984  39.413   3.357
56295W        W22836  35.107  41.142   9.982
56296W        W22837  12.741   8.248   2.892
56297W        W22838  26.603  28.065   4.137
56298W        W22839  27.465   8.858  12.603
56299W        W22840  44.024  37.885  11.027
56300W        W22841  11.378  33.794  12.948
56301W        W22842  43.767  28.959   0.260
56302W        W22843  31.374  24.769   3.111
56303W        W22844  31.362  32.326  12.396
56304W        W22845  15.219  42.811   0.315
56305W        W22846   2.490   0.106  11.584
56306W        W22847  13.915   3.496   5.173
56307W        W22848  30.150  21.865  12.833
56308W        W22849   5.174  28.741   3.800
56309W        W22850   3.907   9.111  10.879
56310W        W22851  23.073  24.153  14.976
56311W        W22852   0.881  27.396  14.014
56312W        W22853   9.626  13.835  14.856
56313W        W22854  35.297  20.544  14.807
56314W        W22855   0.558  22.741   3.912
56315W        W22856   5.959  43.226  13.954
56316W        W22857  23.448  29.483   4.138
56317W        W22858  44.868  18.011   4.247
56318W        W22859  39.708  42.471  13.924
56319W        W22860  29.531  43.058  14.335
56320W        W22861  10.993  14.863  11.023
56321W        W22862  16.289   4.888   1.932
56322W        W22863  25.036  22.461   1.171
56323W        W22864  33.107  22.160  14.909
56324W        W22865  42.224   9.209   2.631
56325W        W22866  31.255   2.349  11.033
56326W        W22867  15.674  42.530   0.472
56327W        W22868  14.635  44.452  10.986
56328W        W22869   3.019  33.560   1.191
56329W        W22870  22.660  10.341  14.075
56330W        W22871  19.189  13.785  11.968
56331W        W22872   0.458  10.152   4.531
56332W        W22873  35.350  33.724   2.515
56333W        W22874  20.934  12.389   2.716
56334W        W22875  24.632  32.929  14.051
56335W        W22876   0.279  26.023   0.711
56336W        W22877   1.284  32.454  12.609
56337W        W22878  21.766  19.068   0.995
56338W        W22879   5.511  19.275  14.447
56339W        W22880  26.778  34.415   0.252
56340W        W22881  35.527   2.713   0.863
56341W        W22882  26.006   0.096   0.297
56342W        W22883  25.600  23.775   4.230
56343W        W22884  13.226  38.441   4.490
56344W        W22885  24.583  20.066   0.525
56345W        W22886  35.607  40.080  13.920
56346W        W22887  28.487  39.294  13.336
56347W        W22888  26.438  11.161  13.080
56348W        W22889  21.396  25.520  13.941
56349W        W22890  16.240  32.981   0.315
56350W        W22891  36.484  20.225  14.016
56351W        W22892  29.928   1.978   3.285
56352W        W22893  21.941   1.920   0.495
56353W        W22894  25.158  13.234   4.185
56354W        W22895  39.628   9.312  14.110
56355W        W22896  40.434   1.409   3.288
56356W        W22897  20.990  12.889  12.493
56357W        W22898  10.497  37.688   0.953
56358W        W22899  25.816  18.188  14.491
56359W        W22900  11.911  20.225  12.493
56360W        W22901  24.672   6.232  10.285
56361W        W22902  40.906  12.160   1.289
56362W        W22903  14.276   2.681   2.672
56363W        W22904  22.564  27.911   4.282
56364W        W22905  29.667  34.916  12.898
56365W        W22906  18.196  15.952  14.520
56366W        W22907  37.720  10.871   3.790
56367W        W22908  30.434  12.831  12.455
56368W        W22909   4.900  34.540  13.294
56369W        W22910   5.134  39.685   5.303
56370W        W22911   9.505  10.509  12.994
56371W        W22912  34.522   8.803  11.524
56372W        W22913   5.964  20.389   1.380
56373W        W22914   6.239  19.265   2.052
56374W        W22915   1.869   4.890  12.102
56375W        W22916   7.800   1.007  10.174
56376W        W22917  39.251  36.108  12.581
56377W        W22918  21.469  35.509  12.550
56378W        W22919  37.219  32.737   4.578
56379W        W22920   4.634  38.700  11.630
56380W        W22921  39.553  34.771   2.810
56381W        W22922  12.216  33.701   0.338
56382W        W22923  25.778  32.922  11.046
56383W        W22924  29.719  18.185   2.729
56384W        W22925   7.737  34.771   4.361
56385W        W22926  28.612  29.093  11.613
56386W        W22927  42.921  34.829  12.155
56387W        W22928  42.737  42.049  11.124
56388W        W22929  39.882  12.629  11.155
56389W        W22930  26.989  17.728   1.357
56390W        W22931  26.540  43.095  10.748
56391W        W22932  37.834  38.742  12.955
56392W        W22933  12.157  36.304  14.859
56393W        W22934  16.097  36.903   0.232
56394W        W22935  18.637  29.883  12.994
56395W        W22936  17.594  38.099  12.251
56396W        W22937   9.849  31.878   4.569
56397W        W22938  16.442  33.557   4.643
56398W        W22939   7.425   8.695   4.086
56399W        W22940   2.489  36.061  12.952
56400W        W22941  11.390  26.404   1.327
56401W        W22942  22.481   5.782  13.919
56402W        W22943  25.306   5.485  10.262
56403W        W22944  21.603  24.167  11.612
56404W        W22945  15.633  19.649  12.045
56405W        W22946   3.440   7.780  11.453
56406W        W22947   6.320  27.804  11.096
56407W        W22948  36.111  40.235   1.845
56408W        W22949  33.205   1.218  13.094
56409W        W22950  25.237   6.720   4.878
56410W        W22951  42.637  38.910  11.535
56411W        W22952   4.332  30.420  10.884
56412W        W22953  31.186  25.264   3.193
56413W        W22954  39.981  25.243  12.998
56414W        W22955   8.282   7.847  12.648
56415W        W22956   3.932  25.456   1.389
56416W        W22957  44.547  22.743  12.629
56417W        W22958  20.484  28.892  12.059
56418W        W22959   8.168  23.984   4.891
56419W        W22960  12.467  27.403  14.208
56420W        W22961  39.964   0.949  11.260
56421W        W22962   4.205   9.364   2.417
56422W        W22963  43.656   5.663   0.280
56423W        W22964  17.997   5.378   0.885
56424W        W22965  20.753   8.469  13.436
56425W        W22966  29.549  43.277   2.659
56426W        W22967  28.984  27.357  11.645
56427W        W22968  26.170  22.541   2.977
56428W        W22969  24.659  12.012   2.745
56429W        W22970  40.722  41.776  14.831
56430W        W22971   6.281  29.015   4.351
56431W        W22972  26.936  19.121   2.414
56432W        W22973  30.836  30.137   0.363
56433W        W22974   6.431  20.140   1.787
56434W        W22975   9.151  42.430  14.801
56435W        W22976  44.687  27.246   3.785
56436W        W22977  14.380  13.825  12.014
56437W        W22978   0.485  13.799  13.022
56438W        W22979  33.430  41.013  12.002
56439W        W22980   5.225  15.735   4.565
56440W        W22981  44.904  43.477  10.670
56441W        W22982  41.511  22.614  14.044
56442W        W22983  42.328  19.347  11.848
56443W        W22984  42.344  35.834  12.847
56444W        W22985   8.444  13.257   1.887
56445W        W22986   1.491   8.820   3.723
56446W        W22987  33.159  18.923   0.123
56447W        W22988  25.892  36.846   1.871
56448W        W22989  28.190   1.547  10.688
56449W        W22990  41.005   7.944  11.068
56450W        W22991  43.831  36.719   4.762
56451W        W22992  23.986  42.924  11.490
56452W        W22993  19.015   0.016   4.202
56453W        W22994  20.339  12.881  14.819
56454W        W22995  17.479   2.748  14.457
56455W        W22996  40.546  38.399  12.859
56456W        W22997  44.295  38.925  14.035
56457W        W22998   4.726  31.397   2.663
56458W        W22999   0.220  29.689  10.721
56459W        W23000  19.242  33.957  12.349
56460W        W23001   6.222  26.156  10.727
56461W        W23002  21.677  15.704  14.424
56462W        W23003  32.253   9.981  11.378
56463W        W23004   8.320  24.242  11.455
56464W        W23005   4.504   0.339   3.655
56465W        W23006  44.933   6.310  13.589
56466W        W23007  40.013  42.783   2.036
56467W        W23008  22.441  30.915  14.010
56468W        W23009  39.861   8.598   2.305
56469W        W23010  37.191  21.532   2.730
56470W        W23011  17.642  10.546   4.871
56471W        W23012   3.680  30.346   0.857
56472W        W23013   6.339  22.470   0.411
56473W        W23014  11.136   5.874   3.874
56474W        W23015   7.725  44.227  13.461
56475W        W23016  41.951   0.387  14.265
56476W        W23017   0.547  11.909  12.515
56477W        W23018  36.417  36.211  11.135
56478W        W23019   4.038  33.061  10.784
56479W        W23020  36.099  17.528  11.949
56480W        W23021  39.135  40.925   2.283
56481W        W23022  10.505  11.404  12.830
56482W        W23023   9.590  13.242   1.475
56483W        W23024  22.766  31.016   0.191
56484W        W23025  24.705  38.028   1.240
56485W        W23026  35.155  13.676  13.835
56486W        W23027   1.915   8.297   0.240
56487W        W23028   1.401   5.289   2.346
56488W        W23029  18.294  40.534  10.511
56489W        W23030  18.483  13.245  11.890
56490W        W23031  25.686  33.039   2.947
56491W        W23032   5.699  15.628  14.265
56492W        W23033  12.790  13.849   1.887
56493W        W23034   1.377   4.690  11.026
56494W        W23035  23.307  38.946   1.729
56495W        W23036  44.878  10.145   2.422
56496W        W23037  28.098  24.536   4.143
56497W        W23038   2.867  19.703  14.803
56498W        W23039  42.536   4.523   1.652
56499W        W23040  34.480  29.216  14.578
56500W        W23041  41.921  30.910   0.769
56501W        W23042  15.899   6.340   2.615
56502W        W23043  35.491  11.671  13.727
56503W        W23044   1.451  15.569  13.949
56504W        W23045   3.381  11.515   1.435
56505W        W23046   8.382  34.953   4.448
56506W        W23047   0.551  12.365   4.235
56507W        W23048  38.327   9.944   2.890
56508W        W23049  41.832   1.377  10.743
56509W        W23050  33.853   2.745  11.830
56510W        W23051  10.763   1.330  12.189
56511W        W23052   6.393  15.207   0.305
56512W        W23053   0.425   5.439  12.998
56513W        W23054   7.274  19.323  10.747
56514W        W23055   5.691   1.020  13.002
56515W        W23056  38.742  43.317  12.997
56516W        W23057  22.577  36.877  11.192
56517W        W23058  18.057   8.588  12.959
56518W        W23059   7.231  34.090   4.072
56519W        W23060  15.811  24.201  11.956
56520W        W23061  15.692  31.122   1.999
56521W        W23062   1.186  26.443   4.763
56522W        W23063   1.494  35.091   2.398
56523W        W23064  20.304  28.062  10.655
56524W        W23065  10.477  29.863   9.935
56525W        W23066  17.998   2.929   1.929
56526W        W23067  18.807  32.113  14.561
56527W        W23068  31.201  13.318   0.449
56528W        W23069  44.057   6.190  14.652
56529W        W23070   7.225  42.141  14.515
56530W        W23071   3.167  15.893   3.280
56531W        W23072   0.997   0.741  12.219
56532W        W23073  37.536   7.921   4.743
56533W        W23074  10.779  39.086   1.137
56534W        W23075  38.427   2.584  14.399
56535W        W23076   8.869  27.196   4.630
56536W        W23077  17.135  43.449   0.704
56537W        W23078  43.845  25.234  11.601
56538W        W23079  38.851  41.047   2.780
56539W        W23080   4.064  24.253  13.388
56540W        W23081  40.937  37.497  12.942
56541W        W23082  43.997  34.925  11.130
56542W        W23083  39.365   7.216   5.117
56543W        W23084  22.277  14.038  14.190
56544W        W23085  37.755  28.945   4.578
56545W        W23086  24.327  22.600   0.764
56546W        W23087  11.213  13.238  14.621
56547W        W23088  29.215   7.745  12.140
56548W        W23089  25.224   0.810  12.386
56549W        W23090  15.228  44.980   3.864
56550W        W23091  42.889  34.373  10.199
56551W        W23092  26.999  19.302   2.906
56552W        W23093  19.154  44.181   1.351
56553W        W23094   7.739  19.818   4.936
56554W        W23095  35.619   8.570  11.601
56555W        W23096   5.457   7.440  12.954
56556W        W23097   0.420   1.427  12.196
56557W        W23098  38.576  22.075   4.794
56558W        W23099  24.432  13.727  10.704
56559W        W23100  23.265  22.738  13.559
56560W        W23101  25.246  21.056  12.685
56561W        W23102  24.850  16.226  13.904
56562W        W23103  17.810   8.497  13.428
56563W        W23104   6.378  34.943   3.168
56564W        W23105  35.105   7.073  10.222
56565W        W23106   2.468   7.370  13.119
56566W        W23107  27.131  24.494   0.433
56567W        W23108  34.885  38.833  11.569
56568W        W23109  15.640  31.987   1.392
56569W        W23110  36.569   2.018   3.157
56570W        W23111  36.356  42.478   0.361
56571W        W23112  13.790  30.572  12.440
56572W        W23113  37.633  30.177   2.396
56573W        W23114  33.003   2.409  11.639
56574W        W23115  40.528  42.468  10.681
56575W        W23116   9.535  43.721  13.089
56576W        W23117   7.755   0.504   3.971
56577W        W23118  12.786  27.839  14.384
56578W        W23119  41.960  21.061   1.763
56579W        W23120  11.382  15.119  13.884
56580W        W23121  41.911  27.051   4.327
56581W        W23122   4.249   7.618   2.816
56582W        W23123   0.804  27.113  14.902
56583W        W23124  18.339  31.872  11.930
56584W        W23125  17.565   9.024  14.909
56585W        W23126  23.215  39.507  13.862
56586W        W23127   7.395  18.621  13.012
56587W        W23128   4.770  29.243  13.823
56588W        W23129  17.168  16.718   2.897
56589W        W23130  32.957  37.403   4.301
56590W        W23131  17.544   7.640   2.834
56591W        W23132  18.824   8.167   1.234
56592W        W23133   8.760  20.799   1.781
56593W        W23134  27.540  34.820   1.374
56594W        W23135  11.167  25.923   1.344
56595W        W23136  38.951  27.586   2.733
56596W        W23137  42.527  12.400  11.537
56597W        W23138   7.777  17.536  14.498
56598W        W23139  18.561  31.363  14.681
56599W        W23140  35.152  21.575  12.599
56600W        W23141  32.329  15.328  13.995
56601W        W23142  40.979  11.357   3.758
56602W        W23143   0.345  44.556   3.229
56603W        W23144  31.036  25.751   3.036
56604W        W23145  40.813  27.670   0.555
56605W        W23146   6.388  41.729   3.245
56606W        W23147  16.565  13.361   0.221
56607W        W23148  34.385  33.084   4.230
56608W        W23149  43.020  40.813  10.558
56609W        W23150  22.616  26.407   2.299
56610W        W23151  35.446  42.839  12.200
56611W        W23152   9.810  40.199  12.449
56612W        W23153  43.621  14.596  13.898
56613W        W23154   1.280  31.538  13.155
56614W        W23155  24.216  42.426  10.717
56615W        W23156  27.893  23.653  11.505
56616W        W23157  28.770  11.202   2.744
56617W        W23158  11.676  39.582   2.390
56618W        W23159  34.120  23.963  12.105
56619W        W23160   0.002  24.930   4.186
56620W        W23161  26.662  40.735   3.107
56621W        W23162   5.934  27.891  13.426
56622W        W23163  24.885  30.229  14.334
56623W        W23164   6.568  44.830   4.950
56624W        W23165  25.176   2.690  14.916
56625W        W23166  25.894  30.150   1.867
56626W        W23167  26.207  42.365  13.309
56627W        W23168  37.670  19.449   2.887
56628W        W23169  13.647   9.360   2.915
56629W        W23170  14.249   8.436   4.148
56630W        W23171   2.843  13.212   4.447
56631W        W23172  41.791  24.809   4.858
56632W        W23173  40.907   0.339   3.193
56633W        W23174  25.233  44.312  13.494
56634W        W23175  20.720  19.846   3.719
56635W        W23176  17.809  26.750  12.025
56636W        W23177  15.828  22.588  14.864
56637W        W23178   0.703  33.349   0.302
56638W        W23179  32.894  35.050   4.720
56639W        W23180  43.763  15.208   3.608
56640W        W23181  13.696  15.737   3.600
56641W        W23182  15.278  31.370   1.850
56642W        W23183  27.728  37.955   3.842
56643W        W23184  25.089  31.437  14.546
56644W        W23185  13.401   0.564  12.140
56645W        W23186  12.636  43.099   0.236
56646W        W23187  38.287  42.578  14.135
56647W        W23188   7.653  16.637   3.841
56648W        W23189  24.475  20.684   0.238
56649W        W23190  18.511  40.923   4.903
56650W        W23191   8.192  21.290   2.691
56651W        W23192  42.835  14.395  13.068
56652W        W23193   6.399   7.257   0.252
56653W        W23194   9.909  36.206   4.131
56654W        W23195  39.911  23.673  14.602
56655W        W23196  34.822  18.890  13.477
56656W        W23197  17.481  30.899   4.671
56657W        W23198  35.409  41.281  10.897
56658W        W23199   8.826  19.905   3.402
56659W        W23200  23.619  34.287   4.218
56660W        W23201   6.242  34.753  11.598
56661W        W23202  33.968  42.991   4.117
56662W        W23203   2.701   3.614   2.811
56663W        W23204  19.420  12.863   0.284
56664W        W23205  13.026  16.724   0.325
56665W        W23206  39.134  24.893   3.203
56666W        W23207  19.925  42.856  11.648
56667W        W23208  37.118  22.188  14.872
56668W        W23209  24.030  10.251   3.233
56669W        W23210  27.909  33.485  14.484
56670W        W23211   4.615   4.766   1.753
56671W        W23212  12.561  19.139  10.656
56672W        W23213   1.347  24.929   0.674
56673W        W23214  13.549  36.500   0.735
56674W        W23215  44.729  20.326  14.427
56675W        W23216  19.181  18.081  11.218
56676W        W23217   2.846  22.601   4.115
56677W        W23218  22.652  10.349   4.590
56678W        W23219  13.174   9.249   4.132
56679W        W23220  25.168   5.991  12.044
56680W        W23221  33.186  36.012   1.946
56681W        W23222   3.970  16.208   3.832
56682W        W23223   1.555  41.956  13.499
56683W        W23224   9.601   2.736  10.739
56684W        W23225  34.601  27.534   1.010
56685W        W23226  18.687   1.913   0.727
56686W        W23227  37.389  33.932  14.006
56687W        W23228  43.186   2.111  10.277
56688W        W23229  39.728  37.711  11.607
56689W        W23230  25.076  43.833   1.960
56690W        W23231  31.813  13.797  14.352
56691W        W23232  42.494  43.551   1.319
56692W        W23233  11.868  23.749   3.191
56693W        W23234   9.413   9.947   2.833
56694W        W23235  19.146  44.890  11.959
56695W        W23236  30.958  34.382   1.575
56696W        W23237  21.071  17.583   2.726
56697W        W23238  33.938   4.201   4.343
56698W        W23239  11.040  43.620   2.420
56699W        W23240  39.884  17.327   2.821
56700W        W23241  10.337   4.209  10.897
56701W        W23242  23.160  17.053  12.606
56702W        W23243  36.272  22.662  12.680
56703W        W23244  36.604  31.078   0.889
56704W        W23245   8.725   7.665  13.975
56705W        W23246  22.366  25.438  10.994
56706W        W23247  32.682  41.933  10.659
56707W        W23248  13.593  42.088  11.220
56708W        W23249  31.587  33.861  12.517
56709W        W23250  12.427   9.930  12.438
56710W        W23251  38.076   9.210  10.986
56711W        W23252  44.697  26.668   1.332
56712W        W23253   9.425   3.730   1.204
56713W        W23254  32.185  27.589  10.313
56714W        W23255  23.473  42.397   1.819
56715W        W23256   4.649  25.407  11.604
56716W        W23257  33.344  20.406   0.699
56717W        W23258  26.991  24.088   1.262
56718W        W23259  26.092  30.310   1.414
56719W        W23260  22.622   0.799   1.461
56720W        W23261  14.162   3.958   3.334
56721W        W23262  39.356  24.501  14.769
56722W        W23263  21.986   8.100   3.102
56723W        W23264  17.003  35.061   4.588
56724W        W23265  22.099  18.063   3.709
56725W        W23266  18.224  18.989  11.949
56726W        W23267   9.241  24.235  14.720
56727W        W23268  26.561  13.028  13.159
56728W        W23269  13.314  29.671   3.053
56729W        W23270  17.042  22.450  10.547
56730W        W23271  38.535  33.040  10.327
56731W        W23272  14.626   1.857   4.497
56732W        W23273   7.754  25.759  10.352
56733W        W23274  26.201   7.392  10.328
56734W        W23275   9.367  19.513   3.038
56735W        W23276  35.343   7.810  11.140
56736W        W23277  43.519  34.647   1.231
56737W        W23278  35.761   3.209   2.764
56738W        W23279  24.049  21.152   5.017
56739W        W23280  11.633  18.280  11.998
56740W        W23281   0.208  12.409  10.509
56741W        W23282   5.208  16.071   3.256
56742W        W23283  19.732   8.046  12.364
56743W        W23284  18.359   0.795   3.757
56744W        W23285   3.384  36.936   1.596
56745W        W23286  19.254  26.124  11.660
56746W        W23287  41.385  18.505   0.743
56747W        W23288  15.398  20.141  11.987
56748W        W23289  30.685  15.758  10.458
56749W        W23290  37.917  29.104  13.540
56750W        W23291  10.345  34.652   0.308
56751W        W23292   8.388  38.487  13.104
56752W        W23293  16.809  21.660   2.323
56753W        W23294  35.484   0.223   3.295
56754W        W23295  31.871  14.628   4.631
56755W        W23296  10.689  27.500  11.221
56756W        W23297  34.237  40.383   3.699
56757W        W23298  25.706   4.335  12.935
56758W        W23299  17.207  25.632   0.867
56759W        W23300   1.495  15.124   0.393
56760W        W23301  20.788   7.901   0.452
56761W        W23302   9.635  32.187   2.169
56762W        W23303   6.717   5.976   1.910
56763W        W23304  22.225  14.168   4.414
56764W        W23305   2.378  14.324   0.242
56765W        W23306  42.505   8.760  14.560
56766W        W23307   7.761  39.302  11.676
56767W        W23308  25.352  12.962   2.145
56768W        W23309  26.276   9.800   1.915
56769W        W23310  42.878  21.668  14.318
56770W        W23311  33.621  40.334  13.397
56771W        W23312  30.920  37.529  14.566
56772W        W23313   9.813  16.097  14.996
56773W        W23314  29.424  10.275  13.990
56774W        W23315   8.998  22.010  13.980
56775W        W23316  13.339  32.744  14.565
56776W        W23317  29.186  18.526  11.091
56777W        W23318  38.389  40.276  14.990
56778W        W23319  23.366  23.350   4.450
56779W        W23320  36.833   6.890   4.102
56780W        W23321  12.759  11.065   4.499
56781W        W23322   6.321   5.746   0.489
56782W        W23323  28.600  10.065   0.745
56783W        W23324  24.211   0.268  14.074
56784W        W23325   5.434   0.494   3.307
56785W        W23326  11.673  13.829   2.905
56786W        W23327  29.203  33.226  13.911
56787W        W23328   8.230   1.708  13.808
56788W        W23329  18.027   5.265  14.461
56789W        W23330  27.586  24.688   4.197
56790W        W23331  20.733   4.012   1.417
56791W        W23332   6.139   4.779  11.968
56792W        W23333  22.583  25.184   4.790
56793W        W23334  33.471  30.729  13.949
56794W        W23335   0.313   6.757  12.483
56795W        W23336  23.027  10.319   4.205
56796W        W23337  27.550  42.528   3.134
56797W        W23338  28.798   9.948   0.278
56798W        W23339  28.005  31.100   0.350
56799W        W23340   2.339  15.594   3.188
56800W        W23341  35.756  19.039   3.704
56801W        W23342   3.361  37.484  11.559
56802W        W23343   5.486   1.433   1.283
56803W        W23344  15.088   7.970   1.417
56804W        W23345  22.699  17.857  12.580
56805W        W23346  24.301  19.268  13.962
56806W        W23347  35.109  21.980   0.155
56807W        W23348   1.379   7.469  10.826
56808W        W23349  13.489   8.654   1.533
56809W        W23350   5.433  28.152  12.233
56810W        W23351  29.910  30.388  13.063
56811W        W23352   0.724  21.141   5.006
56812W        W23353   8.858  26.506  11.564
56813W        W23354  18.222  36.035   3.213
56814W        W23355  39.421  30.331   2.669
56815W        W23356  19.419   5.402   2.985
56816W        W23357   7.301  22.822  12.407
56817W        W23358  35.352  34.043  12.023
56818W        W23359  30.833  36.785   0.731
56819W        W23360  13.724  27.364  10.734
56820W        W23361  34.112  39.830   0.534
56821W        W23362  14.652  44.350   0.434
56822W        W23363   9.873  24.372   3.668
56823W        W23364  24.218  30.454  13.043
56824W        W23365  21.958   2.691  10.298
56825W        W23366  44.167   8.423  11.056
56826W        W23367   0.610  15.154   3.905
56827W        W23368  18.977  44.381  11.997
56828W        W23369  11.470  38.868   1.985
56829W        W23370  27.077  22.438   0.014
56830W        W23371  31.947   6.625   0.472
56831W        W23372  32.352   2.395  14.402
56832W        W23373  26.320  11.824  12.569
56833W        W23374  15.535  15.022  11.091
56834W        W23375  17.141  24.775  12.306
56835W        W23376   7.622  12.237  11.532
56836W        W23377  27.303   6.835  14.688
56837W        W23378  30.085   9.873  10.050
56838W        W23379   5.823   8.932  11.920
56839W        W23380  10.883  33.009  10.954
56840W        W23381  27.682  31.545   4.656
56841W        W23382  23.153  39.383   0.028
56842W        W23383   8.668  29.833   0.899
56843W        W23384  40.037  12.696   1.186
56844W        W23385  29.896  34.949   1.476
56845W        W23386  37.023  39.745   0.249
56846W        W23387   9.232   9.858  13.957
56847W        W23388  23.439  24.411   4.545
56848W        W23389  40.409  19.936   0.291
56849W        W23390  24.248  42.816   1.937
56850W        W23391  16.197  38.450   3.640
56851W        W23392  10.122   8.314   0.966
56852W        W23393  22.635  26.866  10.754
56853W        W23394   6.160  19.036  11.983
56854W        W23395  37.881   2.375   4.002
56855W        W23396  32.410  36.315   1.700
56856W        W23397  44.912  39.811  13.409
56857W        W23398  13.611  24.015  13.625
56858W        W23399  11.338   3.392  11.544
56859W        W23400  16.847  34.505   4.363
56860W        W23401  30.605  18.372  14.525
56861W        W23402  16.248  13.393  10.666
56862W        W23403  41.990  43.350  12.003
56863W        W23404   8.283   2.184   3.643
56864W        W23405  11.344   8.752  14.962
56865W        W23406  13.680   5.686  14.570
56866W        W23407  14.889  18.274  11.964
56867W        W23408   2.971  31.617  12.478
56868W        W23409   1.404   3.709   0.887
56869W        W23410  36.194  36.028   2.626
56870W        W23411  11.096  18.223  10.724
56871W        W23412   5.764  44.660   0.770
56872W        W23413  23.563  41.107  10.662
56873W        W23414  21.796  15.279   1.747
56874W        W23415  24.821  19.569  13.231
56875W        W23416  41.305  29.931  11.611
56876W        W23417   8.585  23.230   2.190
56877W        W23418  16.536   2.372  12.073
56878W        W23419  24.097  23.362  12.133
56879W        W23420  29.800  28.531   4.808
56880W        W23421   3.878  26.738  13.955
56881W        W23422  24.006   6.760  12.098
56882W        W23423   3.918   4.088   4.360
56883W        W23424  16.103  38.136   3.225
56884W        W23425  44.765   6.723  13.339
56885W        W23426  17.013  26.669  10.162
56886W        W23427  43.089  21.233   1.424
56887W        W23428  17.283  33.330   0.993
56888W        W23429   2.826  16.289  13.461
56889W        W23430  24.089  14.705  11.735
56890W        W23431  22.033   1.647   0.948
56891W        W23432  26.093  12.060  13.936
56892W        W23433  10.304  36.371   2.854
56893W        W23434   2.947   5.832  13.513
56894W        W23435  40.069   0.380  14.238
56895W        W23436  10.245  32.791   0.419
56896W        W23437  12.691  11.171  11.953
56897W        W23438   1.286  30.474  12.211
56898W        W23439  14.254  43.099   0.006
56899W        W23440   2.290  41.024  11.847
56900W        W23441   1.465  43.234  13.648
56901W        W23442  22.367   3.310  13.963
56902W        W23443   6.936  25.572  13.978
56903W        W23444  38.979  14.152  12.608
56904W        W23445   8.869  24.984  11.509
56905W        W23446  25.547  25.950  13.377
56906W        W23447  42.321  10.882   0.273
56907W        W23448  21.327  21.453  11.999
56908W        W23449  36.746   9.881  11.120
56909W        W23450  17.527  41.766   2.356
56910W        W23451  44.920  30.576   3.673
56911W        W23452  17.329  31.065   0.372
56912W        W23453  31.695  43.854   2.516
56913W        W23454  29.099  22.910   0.315
56914W        W23455  30.108  18.651   0.476
56915W        W23456  31.161   9.387   0.207
56916W        W23457  40.565   6.744   4.801
56917W        W23458   6.735  10.368   2.727
56918W        W23459  27.437  24.524  10.786
56919W        W23460  25.564  23.260   4.214
56920W        W23461  41.460  29.908  12.716
56921W        W23462  29.069  11.554  12.042
56922W        W23463  25.679  14.047  13.170
56923W        W23464  38.472  25.712   4.482
56924W        W23465  37.329  28.191   2.252
56925W        W23466  42.095  29.644   1.795
56926W        W23467  31.849  11.940  11.139
56927W        W23468  44.936  10.147  13.140
56928W        W23469  41.872  32.261   2.706
56929W        W23470  31.869  12.580  13.429
56930W        W23471  42.877  36.441   4.555
56931W        W23472  34.886  41.799  14.866
56932W        W23473   8.437  21.212   3.156
56933W        W23474   3.832  44.185   0.380
56934W        W23475   9.031  15.222  14.952
56935W        W23476   3.642  19.106  13.944
56936W        W23477  29.216  28.315   0.471
56937W        W23478  15.128  38.434  11.895
56938W        W23479   9.434  35.298  11.584
56939W        W23480  40.373  28.418  10.642
56940W        W23481   8.674  33.467   0.450
56941W        W23482  12.886  21.880   0.498
56942W        W23483   9.636  10.304  13.478
56943W        W23484   6.744  27.584  12.356
56944W        W23485   8.034   1.645   4.975
56945W        W23486  17.250  22.094  14.898
56946W        W23487   9.794  31.367   3.784
56947W        W23488   2.563  34.168  12.575
56948W        W23489  17.207  39.422  14.761
56949W        W23490  12.572  41.860   2.207
56950W        W23491   0.980  26.247   2.867
56951W        W23492  14.121   5.241  11.951
56952W        W23493  11.945  41.067   0.112
56953W        W23494  34.553   9.295   4.511
56954W        W23495  32.364  42.270   1.375
56955W        W23496  30.117  21.290   0.232
56956W        W23497   1.011   1.589  12.930
56957W        W23498  39.997   2.239  12.627
56958W        W23499   7.302  18.698   4.084
56959W        W23500   7.704  36.966  11.378
56960W        W23501   3.119  19.150  11.162
56961W        W23502  11.099   2.576  13.952
56962W        W23503  14.360  18.708  10.829
56963W        W23504  32.631  39.614   1.368
56964W        W23505   2.832  18.341  14.417
56965W        W23506  19.873  25.050   4.741
56966W        W23507  14.899  25.173  10.879
56967W        W23508  29.878  14.269  14.559
56968W        W23509  42.949  28.935  14.828
56969W        W23510  28.681  30.372   2.244
56970W        W23511  15.052  40.663   1.180
56971W        W23512   1.354  20.144   3.185
56972W        W23513  19.078   2.625  10.954
56973W        W23514  30.214   5.833   2.726
56974W        W23515  19.283  14.086  10.199
56975W        W23516  38.020  24.736  14.916
56976W        W23517  12.419   7.145  14.266
56977W        W23518  31.136   6.923  12.568
56978W        W23519  23.547  15.890   2.146
56979W        W23520  29.740   0.279   4.601
56980W        W23521   7.183  43.530  13.065
56981W        W23522  34.589   1.064  10.242
56982W        W23523  37.397  20.465  14.613
56983W        W23524   7.314  44.128  14.357
56984W        W23525  19.107  22.647  12.382
56985W        W23526  13.648   0.165  12.879
56986W        W23527  22.465  39.534   4.787
56987W        W23528  27.028  44.913  12.994
56988W        W23529  22.478  15.636  10.643
56989W        W23530  31.473  32.928   2.208
56990W        W23531  43.360  21.366   2.083
56991W        W23532  42.724  38.282   3.666
56992W        W23533   2.142   4.309  14.827
56993W        W23534   2.788   1.354   2.804
56994W        W23535  29.611  24.739   1.388
56995W        W23536  39.432  29.737  14.383
56996W        W23537  25.850   4.752  14.618
56997W        W23538  39.092  14.291   2.301
56998W        W23539  17.869  44.704  12.731
56999W        W23540  25.928  18.136   3.856
57000W        W23541   7.881   5.881  14.782
57001W        W23542  21.773   3.137  14.998
57002W        W23543  15.760  38.355   3.868
57003W        W23544  36.084  39.459  11.534
57004W        W23545   0.973  26.423  13.994
57005W        W23546  30.991  11.644  11.481
57006W        W23547  42.938  12.768   4.838
57007W        W23548  18.053  29.555   2.514
57008W        W23549  23.940  14.644  14.889
57009W        W23550  24.025   1.794  11.645
57010W        W23551  32.111  37.907   3.212
57011W        W23552  36.002  27.852   0.704
57012W        W23553  13.162  30.494  13.172
57013W        W23554  33.892  42.234  14.376
57014W        W23555  30.184  29.518   4.715
57015W        W23556   1.991  18.764  11.984
57016W        W23557  23.717  27.538   0.871
57017W        W23558  16.844  24.593  14.587
57018W        W23559  23.060  43.110  12.734
57019W        W23560  19.240   5.075  10.364
57020W        W23561   9.883  42.416   4.716
57021W        W23562  41.781  30.503  11.602
57022W        W23563  22.595  40.843  10.612
57023W        W23564   8.736  35.005   2.974
57024W        W23565   9.645  39.925  12.913
57025W        W23566  22.033   3.488   1.312
57026W        W23567   9.220  43.975  11.787
57027W        W23568  15.772  23.941   2.861
57028W        W23569  41.316  38.529   4.115
57029W        W23570  20.725  34.318   2.661
57030W        W23571   7.901  37.640  14.596
57031W        W23572  19.927  30.101   3.414
57032W        W23573  16.829  25.745   2.314
57033W        W23574  30.053   1.578  12.547
57034W        W23575  36.953  34.516  12.548
57035W        W23576   9.921  40.907   4.567
57036W        W23577  38.352  10.614   1.226
57037W        W23578  18.173  27.368   2.338
57038W        W23579   6.851   3.470   4.657
57039W        W23580  36.084  39.979  11.584
57040W        W23581   4.920   4.479  11.459
57041W        W23582   0.824  14.418   1.410
57042W        W23583  20.333   9.696   1.191
57043W        W23584   3.735  43.764  11.498
57044W        W23585   6.138  18.687   3.162
57045W        W23586  43.057  29.919  10.607
57046W        W23587  21.723  28.344   2.750
57047W        W23588  15.500  38.822   2.329
57048W        W23589  42.332  20.018   0.330
57049W        W23590  42.481  10.190  12.045
57050W        W23591  29.236  35.032   0.926
57051W        W23592  34.544   8.501  12.958
57052W        W23593  11.764  27.433   2.807
57053W        W23594  37.510  39.000  11.629
57054W        W23595  15.254   3.670   1.269
57055W        W23596  21.964  19.271   4.206
57056W        W23597  19.701   6.640   1.895
57057W        W23598   9.380  24.218   1.924
57058W        W23599  31.533  30.218   0.804
57059W        W23600  28.866  31.193   2.876
57060W        W23601  27.681  35.986  11.210
57061W        W23602   5.839   7.625   2.163
57062W        W23603   4.401  40.842   4.510
57063W        W23604  18.379  24.728  14.476
57064W        W23605  22.099  27.738   0.353
57065W        W23606  13.154  16.011   4.159
57066W        W23607  25.387  29.467   3.205
57067W        W23608  35.187  10.258   2.266
57068W        W23609  15.556  37.018   4.209
57069W        W23610  15.245  33.488   1.301
57070W        W23611  41.502  39.897   2.763
57071W        W23612  24.056  24.439  12.901
57072W        W23613  13.803  38.408   4.754
57073W        W23614  28.658   8.703   4.614
57074W        W23615  20.537  12.625  12.584
57075W        W23616  28.528  19.881  12.076
57076W        W23617   7.468  27.609   3.607
57077W        W23618   8.203  13.732  12.122
57078W        W23619  29.668  24.150   2.775
57079W        W23620  19.478  33.022   4.341
57080W        W23621  35.270  42.894  11.248
57081W        W23622  29.155  39.968   2.734
57082W        W23623  13.327   7.730  12.906
57083W        W23624  18.748  24.701  10.806
57084W        W23625  42.463  33.198   1.501
57085W        W23626  29.432  28.597   0.850
57086W        W23627  28.030  35.596   3.646
57087W        W23628  17.301  44.758  11.583
57088W        W23629   9.569   7.204  12.948
57089W        W23630  37.077   4.871  11.548
57090W        W23631  33.962  36.675  12.418
57091W        W23632  35.070  16.935   0.812
57092W        W23633  26.057  19.143   1.495
57093W        W23634   4.725   9.194   3.642
57094W        W23635   2.886   3.321  12.597
57095W        W23636  15.833   6.257  12.507
57096W        W23637   0.666  39.206  14.315
57097W        W23638  28.943  36.648   1.733
57098W        W23639  10.486  12.891  11.498
57099W        W23640   0.335  32.415   0.861
57100W        W23641  21.088   2.520   4.041
57101W        W23642  41.165   4.688   5.000
57102W        W23643   3.942  25.070  12.947
57103W        W23644  18.288   9.219  12.360
57104W        W23645  12.671  37.550  11.991
57105W        W23646  31.676  24.821  13.917
57106W        W23647  21.681  30.899   3.171
57107W        W23648  31.902  40.249   3.716
57108W        W23649  43.755   3.240  12.597
57109W        W23650  34.877  15.664  12.919
57110W        W23651  44.322  34.991   0.580
57111W        W23652  15.786   1.764  10.705
57112W        W23653  27.219  30.403  12.264
57113W        W23654  30.874  10.613   3.272
57114W        W23655  41.737  17.273  12.117
57115W        W23656  38.222  38.638   4.502
57116W        W23657   6.808  13.743   0.782
57117W        W23658  27.691  16.158   3.313
57118W        W23659   8.053   7.739   0.314
57119W        W23660  40.386  19.781   3.033
57120W        W23661  41.310  38.237  12.438
57121W        W23662  17.221  38.923   2.204
57122W        W23663   4.248  41.950  14.315
57123W        W23664  29.936  34.047  13.858
57124W        W23665  34.598  16.876   0.057
57125W        W23666  32.391  12.818   1.730
57126W        W23667  17.478  33.971   4.190
57127W        W23668  28.432   0.991   0.483
57128W        W23669   8.402  25.776   0.618
57129W        W23670  16.557  44.049   1.313
57130W        W23671  24.575   0.204  14.453
57131W        W23672  10.156   9.325  12.988
57132W        W23673   9.615  16.075   2.279
57133W        W23674  42.917  30.561  11.380
57134W        W23675  11.333  28.139  12.550
57135W        W23676  44.674   8.855   4.578
57136W        W23677  42.567  26.997  13.554
57137W        W23678   2.673   2.844  12.512
57138W        W23679  40.353  34.610  13.034
57139W        W23680   2.505  20.541   4.261
57140W        W23681   2.310  40.959  10.366
57141W        W23682  24.010  41.110   2.168
57142W        W23683  17.693   4.705  12.028
57143W        W23684   7.807   7.003   4.901
57144W        W23685   1.248  26.644   0.341
57145W        W23686  13.019  26.812  13.605
57146W        W23687  29.214  15.561  14.423
57147W        W23688  33.256  23.881   0.395
57148W        W23689  20.187  17.681  10.451
57149W        W23690  29.478  36.610  13.426
57150W        W23691  43.896  16.989  14.102
57151W        W23692  15.835  41.874  12.815
57152W        W23693  12.173  42.164  11.228
57153W        W23694  10.964  38.801   3.893
57154W        W23695  16.786  15.630   1.871
57155W        W23696  38.578  43.468  14.184
57156W        W23697  18.441  23.004  12.614
57157W        W23698  22.209  43.390  11.460
57158W        W23699   2.307   9.824  12.842
57159W        W23700  14.731  26.122   0.291
57160W        W23701   0.666   9.895   0.791
57161W        W23702   3.345  27.101   3.997
57162W        W23703  26.669  13.338  14.346
57163W        W23704  39.355  21.079  11.398
57164W        W23705  21.012   6.511   3.593
57165W        W23706  34.169  17.247  11.596
57166W        W23707  12.736  13.601  12.101
57167W        W23708   0.018  25.962   0.237
57168W        W23709  36.781   4.914  13.860
57169W        W23710   9.858  18.563  10.979
57170W        W23711  31.007  20.631  11.577
57171W        W23712  30.143  31.566  10.590
57172W        W23713  40.381  40.689   1.945
57173W        W23714   6.123  20.115  12.047
57174W        W23715   6.945  18.776   3.603
57175W        W23716  33.395  34.001  14.760
57176W        W23717   5.755   5.860   1.769
57177W        W23718  12.779  16.134   2.282
57178W        W23719   1.777  17.436  12.455
57179W        W23720  10.437  36.645  14.556
57180W        W23721  20.704  11.913   1.297
57181W        W23722  36.844  24.079   1.275
57182W        W23723  26.686   6.208   2.795
57183W        W23724  38.974  35.913  12.957
57184W        W23725  38.622  19.123   0.332
57185W        W23726  23.894  39.190  14.500
57186W        W23727   8.908  42.109   9.964
57187W        W23728  40.933  42.446   3.256
57188W        W23729   9.787  33.532   3.143
57189W        W23730   1.659  43.536  11.573
57190W        W23731   5.315  14.313   2.299
57191W        W23732   8.305  39.050   1.607
57192W        W23733  15.122  29.357   4.592
57193W        W23734   7.780  15.409   1.813
57194W        W23735  29.591   6.251   2.512
57195W        W23736  32.935  25.596   1.861
57196W        W23737  40.364  12.413  11.165
57197W        W23738  35.807  33.475  10.940
57198W        W23739  36.474  11.901   4.068
57199W        W23740  41.543  44.269   3.723
57200W        W23741  23.998  15.648  14.676
57201W        W23742  24.724   9.418  12.554
57202W        W23743  21.510  17.812  10.799
57203W        W23744  41.755  30.716   0.288
57204W        W23745  35.110  10.854  13.964
57205W        W23746  27.367  44.795   4.135
57206W        W23747  40.725   9.216   0.005
57207W        W23748  34.288  22.657   3.340
57208W        W23749   8.880  39.969   5.232
57209W        W23750  39.465   4.017   1.372
57210W        W23751  32.637  24.555  10.728
57211W        W23752   8.900  42.187   2.430
57212W        W23753   7.600  16.145  12.621
57213W        W23754  27.696  11.904  12.383
57214W        W23755   8.592  30.212   2.716
57215W        W23756  20.535   2.061  14.585
57216W        W23757  43.806  34.874  14.560
57217W        W23758  18.287  21.675   3.140
57218W        W23759  20.012  10.265   1.686
57219W        W23760   7.523  13.542  14.073
57220W        W23761  21.145  39.445   2.794
57221W        W23762  17.991  34.998  14.787
57222W        W23763   1.132  19.710  12.613
57223W        W23764  15.504   5.700  11.132
57224W        W23765   0.418  18.775   2.662
57225W        W23766  12.017  41.415  10.696
57226W        W23767  39.620   0.335  14.491
57227W        W23768  24.036  26.533   3.331
57228W        W23769   7.642  11.370   1.213
57229W        W23770  27.083  35.608  14.327
57230W        W23771   7.704  35.085  11.796
57231W        W23772  39.826  20.151   2.770
57232W        W23773   1.915  23.768   2.036
57233W        W23774  27.548   7.830   0.472
57234W        W23775  23.012  23.190  10.722
57235W        W23776   4.260   1.254   2.581
57236W        W23777   2.954  42.432   1.253
57237W        W23778  27.008  27.854   2.995
57238W        W23779  41.710  22.227   4.407
57239W        W23780   3.739  17.180   2.418
57240W        W23781  28.979  21.506   1.441
57241W        W23782  43.940  40.036  12.893
57242W        W23783  42.782  27.668  14.331
57243W        W23784  32.428   6.514   2.209
57244W        W23785  43.757  30.992   0.409
57245W        W23786  43.121  39.546   1.035
57246W        W23787  44.811   5.963   3.367
57247W        W23788  34.612  14.742  11.177
57248W        W23789  21.745  17.225  12.500
57249W        W23790  37.778  40.458   1.373
57250W        W23791   4.543  41.333   2.213
57251W        W23792  36.563  14.093   1.091
57252W        W23793  24.647   3.893  11.497
57253W        W23794  39.726  40.726  13.433
57254W        W23795  41.498   1.256  13.311
57255W        W23796  11.458  12.871  11.609
57256W        W23797  41.568  34.683  12.031
57257W        W23798  18.165  16.055  13.132
57258W        W23799  32.989  33.837  12.475
57259W        W23800  22.423  34.566  12.952
57260W        W23801   5.396  24.776   0.760
57261W        W23802  34.347  36.145  11.582
57262W        W23803  24.050  10.100  14.333
57263W        W23804  40.433  10.633  13.189
57264W        W23805   9.617  44.305  12.423
57265W        W23806   1.805  16.085  12.019
57266W        W23807  18.752   1.360  10.948
57267W        W23808   4.281  15.342  13.842
57268W        W23809  34.473  42.936  14.403
57269W        W23810  12.374  11.575  11.989
57270W        W23811  14.946  30.078  14.465
57271W        W23812  18.628  15.875  13.680
57272W        W23813  19.909  26.655  13.826
57273W        W23814   3.056  34.720  11.866
57274W        W23815  24.131  11.108   3.461
57275W        W23816  41.847  15.320   1.488
57276W        W23817  33.958  42.752  14.496
57277W        W23818  23.275  16.725  11.522
57278W        W23819  14.294  26.427   4.560
57279W        W23820   5.355  21.058  13.532
57280W        W23821  11.627  21.621   2.697
57281W        W23822  21.677   2.531  10.775
57282W        W23823  23.534  33.327  14.870
57283W        W23824   9.698   1.929  10.492
57284W        W23825  31.435  19.850  14.035
57285W        W23826  11.250  21.822   3.544
57286W        W23827   6.077  44.883  13.426
57287W        W23828  18.103  29.324  12.560
57288W        W23829  29.648   8.783   0.821
57289W        W23830  39.259  40.504   1.336
57290W        W23831   6.777  22.236   3.366
57291W        W23832  34.539   1.331   5.431
57292W        W23833  20.801  35.518   4.209
57293W        W23834  19.672  16.780  11.602
57294W        W23835  35.299  43.732  12.990
57295W        W23836  44.833   8.570   4.074
57296W        W23837  10.853  23.806  14.671
57297W        W23838  44.329  33.008  14.442
57298W        W23839  33.828   0.817   3.170
57299W        W23840  28.638   4.979   4.568
57300W        W23841   6.146  12.408  10.758
57301W        W23842  23.151  13.552   3.544
57302W        W23843  11.628   0.978   0.523
57303W        W23844  39.327  21.012  13.564
57304W        W23845  34.480  41.446  13.047
57305W        W23846  20.702  31.945   1.352
57306W        W23847  17.209   5.301   1.429
57307W        W23848  30.538  16.507   2.379
57308W        W23849  27.932  33.023   3.705
57309W        W23850  37.636  23.505   0.959
57310W        W23851   2.782  43.083   3.677
57311W        W23852  40.961   7.312  12.105
57312W        W23853   5.191  32.055   2.122
57313W        W23854  37.279  38.804   1.362
57314W        W23855   0.147  13.304  12.055
57315W        W23856  17.687  32.068   2.361
57316W        W23857  33.506  30.919   3.565
57317W        W23858   5.956  33.829   2.772
57318W        W23859  40.161  18.041   0.434
57319W        W23860  28.212   1.176   5.015
57320W        W23861  14.937  16.797  11.289
57321W        W23862   0.986   6.988  14.434
57322W        W23863  10.613  44.789   1.133
57323W        W23864   1.780  35.505  14.218
57324W        W23865  29.696  22.990   2.727
57325W        W23866  36.063  38.871  12.318
57326W        W23867  14.103  42.280   1.704
57327W        W23868  28.372  14.116   0.015
57328W        W23869  41.800  37.563   2.670
57329W        W23870  16.489  37.913  13.317
57330W        W23871  18.895  11.701  14.294
57331W        W23872   5.194  29.146  12.076
57332W        W23873  12.048  38.805  11.175
57333W        W23874   3.865  29.902  14.333
57334W        W23875  34.086  22.317  10.513
57335W        W23876  27.436  41.865  14.919
57336W        W23877  21.341  15.041  11.436
57337W        W23878   4.458   5.691  10.887
57338W        W23879   3.646  27.464   2.307
57339W        W23880  27.419  11.141   3.696
57340W        W23881  20.687  30.439   2.424
57341W        W23882  18.675  22.176   1.943
57342W        W23883   4.970   8.388   4.168
57343W        W23884  17.021  31.546   1.059
57344W        W23885  30.487  38.248  14.918
57345W        W23886  35.043  21.083  14.789
57346W        W23887  41.152  14.290  12.791
57347W        W23888  20.134  19.788  14.948
57348W        W23889  14.338  32.977   2.827
57349W        W23890  10.698  32.981   0.270
57350W        W23891  27.739  21.555  13.339
57351W        W23892  18.888  28.757  12.917
57352W        W23893   3.327   4.186  12.978
57353W        W23894   3.515  21.730  11.209
57354W        W23895   6.724  27.140   3.748
57355W        W23896  12.267  40.255   1.416
57356W        W23897   8.637  44.654  14.795
57357W        W23898  30.346   1.047   4.617
57358W        W23899  31.074  19.322   1.777
57359W        W23900  39.085   5.888   3.325
57360W        W23901  42.778  26.972   4.181
57361W        W23902   0.728  32.466   0.467
57362W        W23903  21.664   6.850  11.986
57363W        W23904  26.615   3.357  12.812
57364W        W23905  15.738  25.298   1.504
57365W        W23906  27.133  20.220  13.787
57366W        W23907  27.146  37.368  14.861
57367W        W23908  21.027  42.316   1.399
57368W        W23909  21.428  28.819   3.222
57369W        W23910  28.627  43.861  11.113
57370W        W23911  19.527  14.821  13.891
57371W        W23912  32.571  39.662   0.514
57372W        W23913  44.914  21.350   2.650
57373W        W23914   6.199  44.989  12.367
57374W        W23915  12.834  32.770  11.509
57375W        W23916  21.085  13.374  13.508
57376W        W23917  14.056  31.875   2.252
57377W        W23918  30.086  41.868  11.335
57378W        W23919  17.213  24.035   0.724
57379W        W23920  41.475   4.352  10.708
57380W        W23921  25.580   6.742   0.635
57381W        W23922  17.197   0.441  10.552
57382W        W23923   7.867  41.822   1.851
57383W        W23924   1.669   4.564  13.875
57384W        W23925   7.697  12.713  14.843
57385W        W23926  21.012  32.873   2.802
57386W        W23927  10.245  38.704   3.685
57387W        W23928  34.834  38.850   0.665
57388W        W23929  15.767  39.244  14.976
57389W        W23930  44.530   6.947  14.239
57390W        W23931  22.010  31.123  11.625
57391W        W23932  34.762  24.976   5.325
57392W        W23933  19.018  20.885   4.142
57393W        W23934  41.749  31.976   2.267
57394W        W23935   3.863  18.854  14.360
57395W        W23936  14.195  24.309  11.558
57396W        W23937   4.318  27.676  11.581
57397W        W23938   0.955  38.570  12.544
57398W        W23939  42.722  24.282  11.552
57399W        W23940  35.606   7.872   2.797
57400W        W23941  30.615  39.109   2.679
57401W        W23942  17.230  16.734   2.390
57402W        W23943  33.326  22.546   2.843
57403W        W23944  41.098  35.933  11.615
57404W        W23945   2.009  27.485   0.969
57405W        W23946  29.631  16.617  13.023
57406W        W23947  23.455  14.322  13.417
57407W        W23948  18.260  39.149   1.782
57408W        W23949  15.227  33.422   1.813
57409W        W23950  22.975   8.811  13.862
57410W        W23951  12.101   6.637   1.487
57411W        W23952  20.727  27.250  12.028
57412W        W23953  18.772   9.420  12.475
57413W        W23954  32.877  14.644   0.054
57414W        W23955  24.540  37.632   9.884
57415W        W23956  21.600  11.744  13.808
57416W        W23957  38.080   7.528  10.874
57417W        W23958  18.117  40.979  10.955
57418W        W23959  14.588  12.627   2.293
57419W        W23960   3.102  11.250  14.848
57420W        W23961  29.139  44.798  10.842
57421W        W23962  20.741  35.049  12.036
57422W        W23963  29.207  19.607   2.829
57423W        W23964  41.113  28.055   3.346
57424W        W23965   1.746  23.465   0.410
57425W        W23966   9.562  26.754   3.354
57426W        W23967  28.004   2.663  12.454
57427W        W23968   8.608  32.924  14.286
57428W        W23969  19.572  23.040   4.864
57429W        W23970  15.882  32.598  14.382
57430W        W23971   9.423  17.394   3.991
57431W        W23972  42.750  19.146  11.539
57432W        W23973   5.845  37.114  11.093
57433W        W23974  20.042  30.866   0.505
57434W        W23975  12.206   5.771   4.659
57435W        W23976  28.969  19.182  14.344
57436W        W23977  26.960  11.397  11.897
57437W        W23978  14.237  14.983   1.030
57438W        W23979  18.744   5.812  12.676
57439W        W23980  32.511   6.351  13.599
57440W        W23981  33.127  11.837  14.860
57441W        W23982  19.124  41.765  11.243
57442W        W23983  22.193  34.591   3.746
57443W        W23984  38.386  38.759   3.372
57444W        W23985  27.947  21.305   0.187
57445W        W23986  26.582   5.343  10.696
57446W        W23987   4.702   5.660  13.141
57447W        W23988  23.290  27.058  11.308
57448W        W23989   8.650  10.970  10.816
57449W        W23990  17.748  19.636   3.300
57450W        W23991  40.365   2.282   0.054
57451W        W23992  36.922  10.804   3.709
57452W        W23993  31.169   4.736  11.291
57453W        W23994  26.458  18.811   0.855
57454W        W23995  29.408  27.688  10.769
57455W        W23996  18.210  26.491  14.364
57456W        W23997  33.390  25.981   3.652
57457W        W23998   6.379  36.732   3.251
57458W        W23999  36.325  25.051   4.069
57459W        W24000  29.692  44.812  12.704
57460W        W24001  31.074  26.712  14.259
57461W        W24002   2.962   6.343  12.010
57462W        W24003   9.166  22.979  13.882
57463W        W24004  44.320  32.858  10.730
57464W        W24005  38.586  30.141   0.191
57465W        W24006  19.314  19.163   0.670
57466W        W24007  35.270  39.689  11.211
57467W        W24008  35.578   0.867   0.602
57468W        W24009  20.756  17.591   1.436
57469W        W24010  12.795  36.809   3.460
57470W        W24011  27.695  32.469   2.882
57471W        W24012   1.604   0.334  13.343
57472W        W24013   4.717   2.878  14.825
57473W        W24014   8.823  30.584   2.988
57474W        W24015  17.417  37.834  10.558
57475W        W24016   2.145  41.003   1.972
57476W        W24017  41.019   2.576   3.635
57477W        W24018  10.143   5.670  12.616
57478W        W24019  35.410  31.207   1.453
57479W        W24020  35.037   2.459   0.268
57480W        W24021  32.227  44.779  14.054
57481W        W24022  20.350  21.175   0.803
57482W        W24023  23.632  32.178   2.177
57483W        W24024  16.433  23.903   0.067
57484W        W24025   7.662  20.541   2.186
57485W        W24026  22.736  42.075   9.985
57486W        W24027  11.956  40.351   2.443
57487W        W24028   3.347  25.257  14.327
57488W        W24029  27.611  34.090  14.989
57489W        W24030   5.716   1.620   4.402
57490W        W24031   3.292  38.411   2.006
57491W        W24032  34.570  34.658  11.661
57492W        W24033  40.561  26.384   3.789
57493W        W24034  40.773  40.461  12.280
57494W        W24035  28.071  21.540  11.021
57495W        W24036  22.250  20.755  11.373
57496W        W24037  20.883  18.164   1.306
57497W        W24038  36.527  15.537   1.873
57498W        W24039  16.996  31.966   9.734
57499W        W24040  38.329  41.076   2.787
57500W        W24041  37.894  15.080   4.315
57501W        W24042  43.999  19.308   3.626
57502W        W24043  26.198  31.594  11.983
57503W        W24044  34.631  28.670   4.982
57504W        W24045  19.123  36.073   3.232
57505W        W24046  28.577  33.400   3.225
57506W        W24047  36.796  40.080  14.846
57507W        W24048  16.269  28.184  12.032
57508W        W24049  34.027  14.396   4.204
57509W        W24050  11.773  17.629  12.939
57510W        W24051  18.088  10.870   3.716
57511W        W24052  25.523  31.030  14.326
57512W        W24053   9.807  14.300   0.249
57513W        W24054  38.011  33.606   3.967
57514W        W24055  25.580  35.058  10.177
57515W        W24056  32.564  43.247   1.307
57516W        W24057  24.136  25.666   3.875
57517W        W24058   5.946   6.310  11.410
57518W        W24059  12.383  12.293   2.220
57519W        W24060  31.545  28.461   3.368
57520W        W24061   9.884  14.729   2.667
57521W        W24062  42.037  10.980   1.892
57522W        W24063   3.920  29.496  13.162
57523W        W24064  43.540  29.906  11.185
57524W        W24065  25.520  29.158   0.572
57525W        W24066  24.839  25.703  14.491
57526W        W24067  13.259  24.882  14.980
57527W        W24068  22.816  41.478  11.063
57528W        W24069  10.824  21.684   4.287
57529W        W24070  33.337  17.023  12.472
57530W        W24071   5.481  25.052  11.655
57531W        W24072  10.764   2.205   4.662
57532W        W24073   4.317  38.973  11.277
57533W        W24074  12.840   3.654  12.958
57534W        W24075  44.546  24.077  14.729
57535W        W24076  35.325  19.310   3.849
57536W        W24077  16.860  40.693  13.910
57537W        W24078  32.432   1.891   1.006
57538W        W24079   1.317  14.362   4.741
57539W        W24080  30.498  28.889  12.124
57540W        W24081  42.508  44.908   3.147
57541W        W24082  30.724  43.904   3.986
57542W        W24083  24.062  32.397  14.875
57543W        W24084   3.951  33.573  10.654
57544W        W24085  15.358  18.900   4.138
57545W        W24086  13.158   9.668   3.813
57546W        W24087  29.621  38.765   0.797
57547W        W24088  23.499  41.458   0.924
57548W        W24089  10.163  19.708   4.685
57549W        W24090  39.706  36.227   0.307
57550W        W24091  40.724  18.841  11.051
57551W        W24092  24.113   3.160   1.847
57552W        W24093   3.590  12.123  10.419
57553W        W24094  38.894  27.014  10.761
57554W        W24095   0.087   7.569  10.974
57555W        W24096  22.614  42.529  11.154
57556W        W24097  31.662  24.636   4.593
57557W        W24098  12.361   3.987  14.838
57558W        W24099  28.484  27.924  14.995
57559W        W24100  43.848  44.188   3.255
57560W        W24101   7.773  20.987   1.925
57561W        W24102   2.316   2.370   2.760
57562W        W24103  20.321  40.747  12.503
57563W        W24104   9.319  20.558   0.566
57564W        W24105   4.310  44.194   1.457
57565W        W24106   4.283  15.513  11.252
57566W        W24107  15.805  12.138   1.779
57567W        W24108  30.593   4.938   3.534
57568W        W24109  22.530  24.147   1.486
57569W        W24110  39.941  31.909   0.210
57570W        W24111  27.884  41.769   2.016
57571W        W24112  30.765   2.003   4.688
57572W        W24113  40.799  18.473   4.820
57573W        W24114   1.890  19.696  11.854
57574W        W24115  38.950   9.651  12.119
57575W        W24116   2.921  30.106  14.051
57576W        W24117  41.022  18.780   2.424
57577W        W24118  33.464  12.937   4.116
57578W        W24119   6.121  23.024  13.295
57579W        W24120  17.240  14.155   1.026
57580W        W24121  28.960   5.025  10.450
57581W        W24122  33.993  21.623  13.403
57582W        W24123   8.878  21.077  14.424
57583W        W24124   0.742   2.498  13.621
57584W        W24125  23.251  34.915   1.876
57585W        W24126  28.550  13.058   3.749
57586W        W24127   2.288  18.607   2.816
57587W        W24128   2.206  31.990  11.906
57588W        W24129  17.939   8.988  13.521
57589W        W24130   0.727  38.421  14.523
57590W        W24131  34.953  20.745  14.430
57591W        W24132   7.449   3.701  10.293
57592W        W24133  20.110  18.149   1.852
57593W        W24134  21.448  11.544  13.331
57594W        W24135  37.600   9.582   2.359
57595W        W24136  13.099   7.247   4.618
57596W        W24137  28.715  18.317  11.657
57597W        W24138  12.504   6.258   4.658
57598W        W24139  14.167  35.083  14.470
57599W        W24140  16.663  30.689  14.418
57600W        W24141   8.702  40.482  11.858
57601W        W24142  22.712  28.916  13.301
57602W        W24143  25.516  25.048  10.781
57603W        W24144  12.399  25.634   0.766
57604W        W24145  15.746  41.312   4.573
57605W        W24146  34.614  27.963  12.938
57606W        W24147  35.932  13.576  12.832
57607W        W24148  35.470  42.939  10.745
57608W        W24149  44.944  15.528  14.780
57609W        W24150  30.253   4.947   4.924
57610W        W24151  27.607   5.221   2.882
57611W        W24152  24.279  24.314   0.858
57612W        W24153  42.853  13.837  12.966
57613W        W24154  34.317   8.590  13.436
57614W        W24155   3.044  26.331  14.974
57615W        W24156   7.169  15.803   2.716
57616W        W24157  29.045  11.134   1.972
57617W        W24158  15.722   0.798  13.326
57618W        W24159  24.140   6.698  13.098
57619W        W24160   6.806  14.197  11.824
57620W        W24161   9.631  37.564  13.505
57621W        W24162   0.359  21.612  11.900
57622W        W24163  20.537  19.816  13.190
57623W        W24164   8.664  24.326  12.695
57624W        W24165  33.840  42.688  13.567
57625W        W24166  29.851  16.011   2.799
57626W        W24167  14.846   1.371   4.219
57627W        W24168  19.838  11.921   4.455
57628W        W24169  24.248  44.220  13.161
57629W        W24170   6.708  30.661  11.158
57630W        W24171  25.473  31.792   5.340
57631W        W24172  19.527  27.630   1.297
57632W        W24173  17.673  44.030   3.571
57633W        W24174  14.063  39.025   3.810
57634W        W24175   1.716  18.864   1.715
57635W        W24176  26.912  33.980  12.916
57636W        W24177  18.364  11.565   0.398
57637W        W24178  34.933  33.068   1.198
57638W        W24179   4.318  17.270  11.014
57639W        W24180  31.176  42.010  11.119
57640W        W24181  10.337  34.784   3.727
57641W        W24182  21.845  12.833   4.066
57642W        W24183  15.887   4.172   3.619
57643W        W24184   6.859   8.421   1.839
57644W        W24185  26.414  26.790  13.353
57645W        W24186  36.443  14.409  14.660
57646W        W24187  41.219   7.571   2.818
57647W        W24188  33.009  42.411   3.536
57648W        W24189  25.255  23.447   2.655
57649W        W24190  20.771  30.354   4.202
57650W        W24191  26.408  36.500   4.654
57651W        W24192  29.070  21.600   4.448
57652W        W24193   7.280  22.447   1.236
57653W        W24194  25.559  43.306  11.956
57654W        W24195   2.722  17.673   0.218
57655W        W24196  39.211   6.937  11.592
57656W        W24197  21.604  41.860  14.266
57657W        W24198  35.385   9.722   0.214
57658W        W24199  26.340  39.861  10.517
57659W        W24200  43.438  11.423  11.137
57660W        W24201  19.111   0.212   1.475
57661W        W24202   1.493   5.167   4.193
57662W        W24203  31.614   5.642   0.851
57663W        W24204  36.424  21.667  11.993
57664W        W24205  39.288  28.768  12.177
57665W        W24206  44.452  33.605  14.057
57666W        W24207  14.037  36.596  12.852
57667W        W24208  11.276  27.412   1.243
57668W        W24209   8.671  39.564  10.830
57669W        W24210  23.648  27.667   2.849
57670W        W24211  37.560  41.910   1.273
57671W        W24212   0.165  39.903  13.845
57672W        W24213   8.694   8.697  13.814
57673W        W24214  35.316  18.843   1.832
57674W        W24215  44.908   6.256  11.542
57675W        W24216  15.829  20.609  12.928
57676W        W24217  27.587  41.562  10.498
57677W        W24218  29.428  44.402  10.634
57678W        W24219  10.721  18.039   4.835
57679W        W24220  34.884   7.336  14.280
57680W        W24221  40.179  29.845   4.971
57681W        W24222  12.021  42.511   2.253
57682W        W24223  31.641  17.169   2.475
57683W        W24224   4.448  25.640  14.475
57684W        W24225  37.504  34.841  11.558
57685W        W24226  31.485  36.464  12.870
57686W        W24227  14.174   1.088   4.970
57687W        W24228   2.989   1.553  13.545
57688W        W24229  20.044  19.729   2.230
57689W        W24230  31.508  20.976   4.032
57690W        W24231  29.585  28.188   3.168
57691W        W24232  19.278  17.476   1.246
57692W        W24233   6.709  28.005   4.049
57693W        W24234  26.332  37.115  13.654
57694W        W24235  20.472  19.916   5.117
57695W        W24236  18.294   8.144  14.043
57696W        W24237   5.939   3.650   3.231
57697W        W24238  30.040  13.329   2.228
57698W        W24239  29.357  30.030   0.750
57699W        W24240  30.928  22.816   4.684
57700W        W24241  30.684  29.353   3.232
57701W        W24242  28.866  19.361   1.439
57702W        W24243  44.531  41.476   3.174
57703W        W24244   4.600  29.218  12.873
57704W        W24245   6.405  40.439  14.498
57705W        W24246  13.617  42.979   1.271
57706W        W24247  24.888  23.698  12.505
57707W        W24248  12.670   3.883   0.258
57708W        W24249  25.590  30.103  14.233
57709W        W24250  12.158  36.810  14.791
57710W        W24251  36.515  14.109   3.283
57711W        W24252   9.194  18.533  12.447
57712W        W24253   4.144  27.013   2.835
57713W        W24254  38.487   1.222   1.930
57714W        W24255  29.507   7.934  14.998
57715W        W24256  37.408  36.071  10.043
57716W        W24257  38.970  13.431  11.985
57717W        W24258  11.099  36.783  13.036
57718W        W24259  27.064  26.764  14.494
57719W        W24260  40.528  41.851   3.004
57720W        W24261   1.856  21.945  10.620
57721W        W24262  41.956  32.522   4.139
57722W        W24263  38.125   3.112   4.319
57723W        W24264  30.272  34.508   3.397
57724W        W24265  16.492  11.541  13.911
57725W        W24266  25.967  27.808  11.047
57726W        W24267  39.981  31.072   0.284
57727W        W24268   7.960  36.737  10.464
57728W        W24269  37.807  23.758  11.605
57729W        W24270  34.282   9.442   3.320
57730W        W24271  22.535  44.960   3.179
57731W        W24272  21.353   8.342  14.928
57732W        W24273   5.207  12.312   4.169
57733W        W24274  15.399  26.147   3.187
57734W        W24275  12.090  39.367   0.666
57735W        W24276  32.473  13.538  13.982
57736W        W24277  17.482   0.385   2.925
57737W        W24278  14.654  27.553   3.249
57738W        W24279  25.262   9.420  12.485
57739W        W24280  34.497  30.949  13.040
57740W        W24281  19.919  10.846   2.963
57741W        W24282  21.817  27.645  13.582
57742W        W24283  40.287  24.333  11.892
57743W        W24284  11.632  17.191   0.724
57744W        W24285   8.414  14.359   3.584
57745W        W24286  10.649  41.854  12.937
57746W        W24287  26.598  18.264   3.121
57747W        W24288  41.463   8.856   0.444
57748W        W24289  19.414  17.244  10.675
57749W        W24290   0.993   2.962   4.886
57750W        W24291  31.833   3.635  12.897
57751W        W24292   8.611  28.610   4.390
57752W        W24293  10.115  43.434   3.724
57753W        W24294   1.913   2.194  13.265
57754W        W24295  13.411  32.376   0.576
57755W        W24296  18.489  16.068  11.849
57756W        W24297   6.109  12.323   3.857
57757W        W24298   1.535  35.499  12.390
57758W        W24299  14.862  18.106   1.745
57759W        W24300   7.619  28.836   3.434
57760W        W24301  38.361  42.673   1.325
57761W        W24302  34.436   7.795   2.146
57762W        W24303  35.607  23.422  10.700
57763W        W24304  22.552  30.489  14.328
57764W        W24305  39.960  37.448  10.737
57765W        W24306  39.051  21.317   3.501
57766W        W24307  31.224  13.322  12.587
57767W        W24308  43.721  41.420   0.436
57768W        W24309  10.333  19.340   2.332
57769W        W24310  12.671  20.847   2.910
57770W        W24311  41.995  43.139   3.137
57771W        W24312  12.105   7.235   4.666
57772W        W24313  40.375   1.247  12.901
57773W        W24314   8.382   3.466   0.064
57774W        W24315  19.087   1.632   2.382
57775W        W24316  32.606  24.968  14.155
57776W        W24317  32.711   3.658  11.221
57777W        W24318  10.149  41.428  10.667
57778W        W24319  16.984   4.208   0.834
57779W        W24320  38.020   6.868  13.865
57780W        W24321  40.989  29.503   4.600
57781W        W24322  25.648  23.644  13.831
57782W        W24323   6.223  33.329   1.387
57783W        W24324  38.314   3.278  10.649
57784W        W24325  12.794  36.702   1.696
57785W        W24326   7.117  14.569   3.288
57786W        W24327  31.836  43.388   2.254
57787W        W24328  36.353  10.274   2.677
57788W        W24329   9.012  32.753   1.760
57789W        W24330  22.165  23.466   3.311
57790W        W24331  14.690  39.216   0.922
57791W        W24332  27.337  15.891  14.701
57792W        W24333  20.135  20.230  12.202
57793W        W24334  37.621  18.052   2.725
57794W        W24335  36.413  29.092  12.079
57795W        W24336  22.664  39.212   0.145
57796W        W24337  35.463   8.614  12.521
57797W        W24338  27.491  17.102  10.780
57798W        W24339  29.829  28.761   2.830
57799W        W24340   0.246  37.099  13.541
57800W        W24341  33.449  31.810  10.671
57801W        W24342  41.897  31.013  14.849
57802W        W24343  27.035  13.362   1.823
57803W        W24344  17.942  17.151   0.889
57804W        W24345  33.675  40.391   3.181
57805W        W24346  28.699  31.432  12.864
57806W        W24347  31.688  39.602   1.386
57807W        W24348  40.089  35.356   2.167
57808W        W24349  21.978   3.394   0.425
57809W        W24350  26.653  42.979  14.976
57810W        W24351  20.461  41.546  12.272
57811W        W24352  15.728  21.338  10.277
57812W        W24353   8.412   1.551  11.096
57813W        W24354  44.876  17.023  14.387
57814W        W24355  35.326  21.595  13.078
57815W        W24356  33.925  31.176   4.254
57816W        W24357  18.507  34.470   1.420
57817W        W24358  19.800  42.443  12.583
57818W        W24359   8.439  29.120  11.611
57819W        W24360  20.177  20.970  14.415
57820W        W24361   9.835  25.725  11.190
57821W        W24362   4.484  38.598  12.118
57822W        W24363  32.679  40.418  13.399
57823W        W24364   7.287  18.429   0.961
57824W        W24365  29.441  24.929   4.955
57825W        W24366  30.461  38.424   0.427
57826W        W24367  40.559   3.309   3.709
57827W        W24368  12.869  25.416   0.752
57828W        W24369  35.857  32.768  12.977
57829W        W24370  35.927  38.290   4.499
57830W        W24371  18.481  34.079  11.676
57831W        W24372  20.964  19.666  10.816
57832W        W24373  40.922  40.027  13.533
57833W        W24374   3.582   7.632  14.315
57834W        W24375   9.263  29.579   0.199
57835W        W24376   8.325  21.802   0.287
57836W        W24377  19.159  37.785   2.826
57837W        W24378  31.858  16.209   2.692
57838W        W24379  37.295   4.495   3.265
57839W        W24380  12.595  24.019   1.269
57840W        W24381   4.203  37.331  10.649
57841W        W24382  40.726  15.994   5.530
57842W        W24383  13.697  44.308   0.796
57843W        W24384   3.947  33.430  13.139
57844W        W24385  22.188  44.868   2.771
57845W        W24386  22.564  39.092   3.809
57846W        W24387  44.173  38.318   0.880
57847W        W24388  25.325  41.370   5.120
57848W        W24389   0.012  26.264   3.921
57849W        W24390   8.282  11.720   1.866
57850W        W24391  23.446  17.548  13.063
57851W        W24392  26.779  25.720   1.432
57852W        W24393   5.348  34.081  10.056
57853W        W24394  38.796  31.159  13.554
57854W        W24395  14.419  39.888   1.810
57855W        W24396  28.714  31.333   3.714
57856W        W24397  44.020  41.482   4.575
57857W        W24398  31.854  39.879   4.536
57858W        W24399  31.033  15.061  10.168
57859W        W24400   6.627   6.353   3.333
57860W        W24401  29.937  26.316   0.881
57861W        W24402  28.135   9.447   2.244
57862W        W24403  25.766  29.994  10.775
57863W        W24404  15.629  38.358   4.864
57864W        W24405  16.599  34.466   0.907
57865W        W24406  44.737  33.879  12.609
57866W        W24407  27.415  15.378  14.810
57867W        W24408  13.177  21.997  12.313
57868W        W24409  37.600   5.689  13.880
57869W        W24410   1.135  12.105   0.927
57870W        W24411  17.756  18.803   0.546
57871W        W24412  13.855  18.802  14.771
57872W        W24413  17.561  12.221  13.929
57873W        W24414  23.748   7.349  11.263
57874W        W24415  25.000   1.282  12.219
57875W        W24416  33.347  22.944   0.734
57876W        W24417   5.699  35.091   1.365
57877W        W24418  43.606  11.393   2.859
57878W        W24419  37.797  11.547   1.443
57879W        W24420  35.654  28.934  13.135
57880W        W24421  38.484  35.378   2.225
57881W        W24422  32.965  37.295   0.402
57882W        W24423   5.021  22.782   1.679
57883W        W24424   1.934   4.426   2.664
57884W        W24425  20.211  34.579   4.216
57885W        W24426  24.408  20.433   3.978
57886W        W24427  21.096  34.479   3.350
57887W        W24428  40.094  41.418   0.881
57888W        W24429  22.769  15.381   4.278
57889W        W24430   5.653  24.541  11.657
57890W        W24431  33.672  18.490   1.441
57891W        W24432   0.838  20.781   1.921
57892W        W24433   4.832  19.546  12.960
57893W        W24434  34.178  13.714  12.493
57894W        W24435  33.746  13.704  11.546
57895W        W24436   9.134  21.025  13.981
57896W        W24437  37.558  25.561   4.048
57897W        W24438  17.096   5.171   0.947
57898W        W24439  21.562  39.993  12.432
57899W        W24440  21.658  12.570   1.728
57900W        W24441   4.965   5.288   0.953
57901W        W24442  21.391  33.894   2.343
57902W        W24443  10.348  30.663  12.955
57903W        W24444  17.496   0.846  12.222
57904W        W24445  24.543  28.749  11.480
57905W        W24446  30.642  21.591   3.310
57906W        W24447   4.041  15.182   1.781
57907W        W24448  21.960   2.940   2.124
57908W        W24449  41.317  44.811  14.107
57909W        W24450   8.348   9.656  11.440
57910W        W24451  14.673  35.652  10.570
57911W        W24452  29.636   3.426  14.654
57912W        W24453   4.938  36.656  10.803
57913W        W24454   9.159  11.800   4.234
57914W        W24455  16.493  42.052   0.322
57915W        W24456  21.944  26.483   0.808
57916W        W24457  24.821  36.858   3.239
57917W        W24458  28.140  30.436   4.587
57918W        W24459  11.217  24.201  14.793
57919W        W24460  18.238  11.712  14.920
57920W        W24461  34.605   1.405  11.095
57921W        W24462  23.468  28.207  14.762
57922W        W24463  39.511  34.827   1.368
57923W        W24464   6.599  14.273  11.061
57924W        W24465   9.618   7.808  13.968
57925W        W24466  17.189  17.692   4.323
57926W        W24467   4.394  17.105  11.512
57927W        W24468  25.980  18.479   3.152
57928W        W24469  40.600  15.866  13.959
57929W        W24470  18.854  25.991   2.958
57930W        W24471  26.249   3.637   1.275
57931W        W24472  37.821  33.864   0.951
57932W        W24473  36.867  32.923  13.054
57933W        W24474  24.003  37.408  14.802
57934W        W24475   9.355  27.052   2.052
57935W        W24476  43.081  30.975  11.600
57936W        W24477  44.511  29.861   0.864
57937W        W24478   3.013  16.122  12.978
57938W        W24479  17.696  23.355  11.047
57939W        W24480  11.677   6.134  11.661
57940W        W24481  39.549  19.109   4.142
57941W        W24482  32.368  23.703   2.293
57942W        W24483  28.086   7.527  12.054
57943W        W24484   7.918   7.065   0.465
57944W        W24485  35.801   6.797   0.012
57945W        W24486  34.851  43.010   2.345
57946W        W24487  31.795  29.540   1.864
57947W        W24488   1.944  18.082   3.286
57948W        W24489  30.033  32.068  11.577
57949W        W24490  34.102   2.803   2.263
57950W        W24491  27.480  21.192   0.370
57951W        W24492  43.795  18.629  13.506
57952W        W24493   3.902  27.668  10.549
57953W        W24494  34.678  12.685  13.402
57954W        W24495   0.292   4.731   2.476
57955W        W24496  18.147  16.806  10.662
57956W        W24497  42.775  18.447  12.599
57957W        W24498  40.519   2.248  11.406
57958W        W24499  39.822  23.608   4.448
57959W        W24500  35.374  15.812   3.251
57960W        W24501  11.861  18.200   2.678
57961W        W24502   9.782  14.227  13.022
57962W        W24503  35.543  20.766  13.824
57963W        W24504  27.657  19.278   0.821
57964W        W24505   8.847  41.984  14.701
57965W        W24506  37.622  16.594  10.936
57966W        W24507  38.368  27.901  12.157
57967W        W24508  23.076  31.845  12.402
57968W        W24509  26.056  29.440   0.810
57969W        W24510  29.941   6.853  14.875
57970W        W24511  30.764  13.329   0.791
57971W        W24512  37.992   9.355   1.410
57972W        W24513  26.206  35.075  11.616
57973W        W24514  33.797  25.042  11.573
57974W        W24515  40.356  15.511  10.522
57975W        W24516   8.167  44.988  11.180
57976W        W24517  24.303  24.279  14.263
57977W        W24518  12.136  41.397   0.465
57978W        W24519  17.313  14.054   4.165
57979W        W24520   5.309   1.546  12.233
57980W        W24521  22.917  29.644   1.083
57981W        W24522  13.176  13.324  13.449
57982W        W24523  19.680  11.175  10.107
57983W        W24524  29.607  11.405  13.437
57984W        W24525  12.750   3.350   4.663
57985W        W24526  32.949  31.559  13.580
57986W        W24527  39.081  13.904  12.163
57987W        W24528   3.477  29.486   1.272
57988W        W24529   1.767  20.041  13.036
57989W        W24530  21.121   8.643   0.282
57990W        W24531  23.709   5.926  12.077
57991W        W24532   9.373   5.322   2.152
57992W        W24533  32.540   8.656  11.631
57993W        W24534   2.401  33.688  12.648
57994W        W24535  28.911   3.502   2.595
57995W        W24536   7.833  29.708  11.980
57996W        W24537   9.306  16.929   3.774
57997W        W24538  38.045  15.761  12.176
57998W        W24539  31.968  27.494  13.902
57999W        W24540   4.956  41.619   4.113
58000W        W24541  39.822  18.826  14.415
58001W        W24542  23.680  37.829   1.301
58002W        W24543   0.709   1.274   2.657
58003W        W24544  18.568  37.423   0.060
58004W        W24545  36.914   4.412  11.733
58005W        W24546  19.541   3.937   0.950
58006W        W24547  33.521   2.885  12.856
58007W        W24548  10.060  29.927  13.958
58008W        W24549  34.272  25.891  11.662
58009W        W24550  19.206  26.542   1.728
58010W        W24551  17.474  26.944  11.612
58011W        W24552  13.388   2.321  11.558
58012W        W24553  36.583  41.020   2.221
58013W        W24554  11.623  26.143   4.914
58014W        W24555  28.555  30.322   0.726
58015W        W24556  18.810  42.469   4.046
58016W        W24557  36.456  41.023  13.804
58017W        W24558  36.905  39.006   1.695
58018W        W24559  11.874  24.306  11.073
58019W        W24560  22.534  18.101   4.475
58020W        W24561  26.600   3.189   4.219
58021W        W24562  17.728   2.700  10.781
58022W        W24563  35.519  38.533   4.713
58023W        W24564  44.944  10.633   0.278
58024W        W24565  20.700  31.727  11.672
58025W        W24566  32.293  34.561  12.500
58026W        W24567  41.034   7.172  12.956
58027W        W24568   2.721  29.137   1.357
58028W        W24569   5.991  14.716  11.630
58029W        W24570  22.125   7.389  13.109
58030W        W24571   3.342   0.264  12.067
58031W        W24572  25.678  11.888  13.363
58032W        W24573  34.920  44.260   4.069
58033W        W24574  15.727  15.318   3.166
58034W        W24575   1.702  23.536   4.352
58035W        W24576  44.951  16.276  11.689
58036W        W24577  10.443  27.571  14.431
58037W        W24578   4.767  21.203  11.664
58038W        W24579  17.558  39.329  14.372
58039W        W24580  15.038  28.376  10.353
58040W        W24581   5.280  36.419  12.502
58041W        W24582  20.549  44.021  10.596
58042W        W24583  36.566  18.610  12.737
58043W        W24584   2.308  14.264   2.862
58044W        W24585   7.557  35.315   1.375
58045W        W24586  10.597   7.289   1.934
58046W        W24587  36.381  26.281  11.132
58047W        W24588   2.974  43.035   3.187
58048W        W24589  24.479  42.886   1.368
58049W        W24590  33.442  25.762   1.946
58050W        W24591  18.287  41.846   1.835
58051W        W24592  25.740  13.988   3.307
58052W        W24593   5.720   2.854   1.564
58053W        W24594  42.757  29.407  12.943
58054W        W24595  12.957  10.916  14.439
58055W        W24596  12.290  10.825   0.868
58056W        W24597  14.849  10.770   0.980
58057W        W24598  21.640  10.169   4.441
58058W        W24599  11.555  32.101  12.555
58059W        W24600  25.999   4.203  12.533
58060W        W24601  31.950  41.932   1.364
58061W        W24602  24.333  33.139   0.346
58062W        W24603  38.010  21.235   1.424
58063W        W24604  28.018  12.155  10.236
58064W        W24605  17.001  39.819   1.488
58065W        W24606  32.004  30.799  14.237
58066W        W24607  37.885  43.906   1.857
58067W        W24608   4.694  16.323  10.771
58068W        W24609  42.767  40.762  13.964
58069W        W24610  11.577  30.534  13.483
58070W        W24611  27.415  36.394   4.586
58071W        W24612  25.303  23.226   0.480
58072W        W24613   0.397  19.840   4.252
58073W        W24614  32.146  30.391   0.273
58074W        W24615  12.805  27.176   1.383
58075W        W24616  15.547   6.068   4.622
58076W        W24617  17.114  39.122   0.445
58077W        W24618  34.493   0.242  14.878
58078W        W24619  39.823  29.400   3.784
58079W        W24620  11.033  33.490   1.147
58080W        W24621  12.247  40.053  11.980
58081W        W24622   2.879  28.990   1.862
58082W        W24623  41.528  18.166   1.758
58083W        W24624   7.762  28.964   3.920
58084W        W24625   2.783  43.138   1.427
58085W        W24626  12.120  24.088  14.684
58086W        W24627  40.151   8.332  12.317
58087W        W24628  24.587  33.966   1.861
58088W        W24629  28.423   3.423  12.857
58089W        W24630  18.659  26.187  13.013
58090W        W24631  40.195  43.591   1.763
58091W        W24632   8.791  35.026  10.824
58092W        W24633  10.813  14.755   4.344
58093W        W24634   6.555  39.879  11.627
58094W        W24635  22.684  44.763  13.360
58095W        W24636  40.253   9.432  14.949
58096W        W24637  38.490  14.711  11.686
58097W        W24638  38.594   1.373   3.871
58098W        W24639   7.268   7.692   4.888
58099W        W24640   7.736  14.550  11.613
58100W        W24641  11.835  43.186   1.332
58101W        W24642  42.850   4.797  11.670
58102W        W24643   7.248  23.052   4.084
58103W        W24644  22.894  19.683  14.936
58104W        W24645  10.472   3.875  12.496
58105W        W24646  42.259  39.373   0.682
58106W        W24647  30.755  14.738   3.613
58107W        W24648  13.837  14.315  11.152
58108W        W24649   6.143  29.209  12.069
58109W        W24650  33.003  39.371   0.450
58110W        W24651  35.937   3.343   0.385
58111W        W24652  27.950  43.869   0.317
58112W        W24653   3.646  19.663   2.703
58113W        W24654  41.456   4.377  12.529
58114W        W24655  36.896  22.279   1.709
58115W        W24656   9.973   8.679   9.927
58116W        W24657  43.701  25.508   2.875
58117W        W24658  22.187   4.420   2.309
58118W        W24659  13.830   3.109   2.095
58119W        W24660  30.420  13.400  11.482
58120W        W24661  42.147   0.224   0.571
58121W        W24662  13.688  13.212  13.538
58122W        W24663  37.382  12.866  12.128
58123W        W24664  16.250   4.010   1.198
58124W        W24665  14.656   6.463  13.394
58125W        W24666  10.744  29.139  12.034
58126W        W24667   7.447  39.306  14.317
58127W        W24668   2.586  44.493  14.047
58128W        W24669  18.558  44.674  12.016
58129W        W24670  44.518  23.825  12.601
58130W        W24671  16.858  26.406  12.001
58131W        W24672  32.444   7.335   3.180
58132W        W24673   1.238  25.604  14.353
58133W        W24674   6.936  38.801   3.720
58134W        W24675  16.212  17.207   4.154
58135W        W24676  16.343  32.659   2.789
58136W        W24677  42.913  36.379   3.600
58137W        W24678   1.664  16.874   1.833
58138W        W24679  10.863  22.263   2.708
58139W        W24680  43.581  10.887   2.376
58140W        W24681  22.106  32.554  14.196
58141W        W24682  26.055  19.760   4.521
58142W        W24683  37.740   9.658   0.440
58143W        W24684  11.200  33.445  13.934
58144W        W24685  20.257  13.053  11.769
58145W        W24686  41.194  28.962  11.517
58146W        W24687  27.122  26.989   1.408
58147W        W24688   5.238  10.593   2.701
58148W        W24689  33.549  34.839   0.768
58149W        W24690  13.688   9.541  12.861
58150W        W24691  32.672  40.977  12.466
58151W        W24692   2.776   3.449  11.382
58152W        W24693   2.335   5.025  10.977
58153W        W24694   6.303  38.315   9.656
58154W        W24695  12.454   5.764   0.092
58155W        W24696  43.460  23.745  11.362
58156W        W24697  41.825  30.039  14.996
58157W        W24698  34.946  28.070  10.596
58158W        W24699  19.022  24.499   1.758
58159W        W24700  29.052  44.803   2.761
58160W        W24701  37.888  27.739   2.200
58161W        W24702  39.819   4.826  10.999
58162W        W24703  38.057  37.303   2.952
58163W        W24704   8.070   0.426   3.204
58164W        W24705  23.703  30.889  14.740
58165W        W24706  23.400  17.728   2.130
58166W        W24707  25.699   6.000  12.087
58167W        W24708  42.160   5.341   1.653
58168W        W24709   1.047  34.959   3.184
58169W        W24710   4.170  17.616   1.862
58170W        W24711   4.767  40.671  11.545
58171W        W24712  18.273  12.030  12.030
58172W        W24713  11.831  25.127   2.193
58173W        W24714  38.087  29.003   1.952
58174W        W24715  28.093  20.268   3.176
58175W        W24716  25.554  10.444  11.574
58176W        W24717  14.312  39.814   2.746
58177W        W24718  29.406   1.707  12.053
58178W        W24719  44.464  35.962  14.065
58179W        W24720  27.784   8.900  14.425
58180W        W24721  38.856   0.500   3.741
58181W        W24722  31.733  29.013   1.440
58182W        W24723  15.996  38.233  14.695
58183W        W24724  34.586  31.917   2.850
58184W        W24725  44.337   6.284   2.813
58185W        W24726  42.268  19.589  13.161
58186W        W24727   7.887  15.193  12.382
58187W        W24728  25.178  34.249  12.101
58188W        W24729  22.015   6.448  14.597
58189W        W24730  18.056   3.911  14.429
58190W        W24731  38.550  15.686   1.788
58191W        W24732  12.102  37.769  13.765
58192W        W24733  39.323  38.064   0.502
58193W        W24734   1.020  42.468  12.407
58194W        W24735  31.540  21.911   2.874
58195W        W24736  40.493  30.991   0.039
58196W        W24737  22.240  43.716  11.852
58197W        W24738   1.396   1.374   4.504
58198W        W24739  37.148  42.400   3.738
58199W        W24740  42.783  11.349  12.223
58200W        W24741  42.588  44.138   4.335
58201W        W24742  27.913  15.475   1.975
58202W        W24743  15.500   7.010  13.551
58203W        W24744  43.952  11.783   0.468
58204W        W24745  30.263   2.599   0.321
58205W        W24746  29.117   4.723  14.360
58206W        W24747  42.068   4.943  11.254
58207W        W24748  18.772  35.857  13.929
58208W        W24749  12.612   0.441  11.304
58209W        W24750  14.487   1.216   3.784
58210W        W24751  38.712  35.285  11.127
58211W        W24752   9.723   4.227   2.745
58212W        W24753  38.379  38.636  13.005
58213W        W24754  10.732  39.989   5.018
58214W        W24755  27.532  32.600   1.027
58215W        W24756  37.463  42.261  12.660
58216W        W24757  39.019   6.729  12.067
58217W        W24758  33.058  11.233  12.357
58218W        W24759  35.587  19.161  11.463
58219W        W24760   1.316  17.314   0.225
58220W        W24761  25.608  36.264   0.178
58221W        W24762  21.228  27.146  14.073
58222W        W24763  40.287  26.380   4.949
58223W        W24764   5.010   2.299  12.104
58224W        W24765  20.579  37.798   2.501
58225W        W24766  34.242  10.319   2.368
58226W        W24767  36.830  15.754  13.443
58227W        W24768  36.892  15.039  13.832
58228W        W24769  29.344  37.052   1.804
58229W        W24770  25.178  18.517   4.944
58230W        W24771   8.963  41.787  11.713
58231W        W24772  28.640  24.568   0.439
58232W        W24773  19.659  25.995   4.726
58233W        W24774  44.017  39.850  11.394
58234W        W24775  26.520   1.036   1.879
58235W        W24776  32.489  19.001  13.656
58236W        W24777  30.096  21.817   0.150
58237W        W24778  24.052  37.401  12.378
58238W        W24779  33.912   1.933  13.877
58239W        W24780  34.920  40.306  13.396
58240W        W24781  10.337  35.667  11.110
58241W        W24782  31.620  23.596  13.092
58242W        W24783  44.090  36.957   0.234
58243W        W24784  15.882   7.294  13.326
58244W        W24785  21.615  39.381   3.044
58245W        W24786  13.354  20.618   0.834
58246W        W24787  44.011  11.152   2.263
58247W        W24788   9.638  25.155   4.224
58248W        W24789  17.871  10.556   2.812
58249W        W24790   6.448   7.245  13.115
58250W        W24791   6.999  32.633   3.728
58251W        W24792  12.524  43.908   2.674
58252W        W24793  14.983  32.838   2.076
58253W        W24794  16.528  18.763  12.895
58254W        W24795  37.266  23.998  13.581
58255W        W24796  41.362   7.646  11.273
58256W        W24797   3.057  19.650  11.378
58257W        W24798   2.873   1.410   0.925
58258W        W24799   7.870  10.321  14.885
58259W        W24800  24.375   7.210   3.891
58260W        W24801   2.517  38.791   4.600
58261W        W24802  29.650   6.856   0.794
58262W        W24803  38.922  43.248   1.157
58263W        W24804  18.848  32.241   3.261
58264W        W24805   8.723  15.311  10.732
58265W        W24806  11.482  33.923  13.980
58266W        W24807  30.042  38.386   0.781
58267W        W24808  42.034  29.752  14.461
58268W        W24809  24.491  22.605   3.648
58269W        W24810  23.149  42.389   4.056
58270W        W24811  28.967  37.474   0.744
58271W        W24812  36.923  29.532   3.938
58272W        W24813   2.906  17.704   3.278
58273W        W24814  12.144  41.923  10.771
58274W        W24815  24.215  12.220   3.311
58275W        W24816  44.312   4.904  13.478
58276W        W24817  20.547   8.349   0.363
58277W        W24818  28.883  20.746   3.280
58278W        W24819  42.848  28.421  10.746
58279W        W24820  21.584  29.636  13.538
58280W        W24821   1.851  21.697   0.806
58281W        W24822  44.413  13.032   4.820
58282W        W24823   3.277  44.952   4.900
58283W        W24824  30.231  41.423   3.032
58284W        W24825  34.668   1.900  11.209
58285W        W24826  42.886  43.358  11.573
58286W        W24827  31.692  14.563   0.935
58287W        W24828  40.825  13.857  12.873
58288W        W24829  29.473  42.466   0.348
58289W        W24830  32.586   8.422  13.972
58290W        W24831  22.646  15.760  14.304
58291W        W24832  16.887  31.511   3.175
58292W        W24833   4.922  30.193  11.049
58293W        W24834   6.571  41.471  10.705
58294W        W24835  22.606  20.062  14.316
58295W        W24836   4.514  32.719   3.107
58296W        W24837  32.958  43.930   4.497
58297W        W24838  39.598  24.573  12.473
58298W        W24839  41.413   5.058   1.309
58299W        W24840  12.618  37.719  14.539
58300W        W24841  11.636  15.120  12.154
58301W        W24842  37.025  10.575  12.159
58302W        W24843  25.933  41.269   4.689
58303W        W24844  29.017  39.985  14.448
58304W        W24845  26.086  34.384   2.712
58305W        W24846  27.537   8.650  14.916
58306W        W24847  19.988  20.151   0.267
58307W        W24848  16.709  32.604   1.912
58308W        W24849  34.401  35.826   4.680
58309W        W24850  42.559  15.617   0.856
58310W        W24851  31.009  35.279  14.469
58311W        W24852  18.014  12.164   4.112
58312W        W24853  41.943  27.050   3.813
58313W        W24854  20.984  10.616  13.896
58314W        W24855  33.140  19.101   1.174
58315W        W24856  16.246  22.906   0.058
58316W        W24857  28.882  12.049   0.839
58317W        W24858  31.897  16.717  13.843
58318W        W24859  13.830  26.116  10.692
58319W        W24860  27.679   6.351  12.647
58320W        W24861  40.328  29.620  12.901
58321W        W24862  44.712  30.092  11.675
58322W        W24863  40.823  31.626  12.405
58323W        W24864  36.621   9.898  13.405
58324W        W24865  25.648  34.909  14.937
58325W        W24866  40.111   8.932   3.999
58326W        W24867   3.252  23.324  13.238
58327W        W24868   6.212  15.831  13.520
58328W        W24869   6.938  17.812  14.539
58329W        W24870  31.952  38.860  14.403
58330W        W24871   8.360  29.771  13.228
58331W        W24872  21.148  27.837   5.085
58332W        W24873   6.743  13.716   2.318
58333W        W24874   5.448  22.659   0.996
58334W        W24875  28.789  13.937  10.131
58335W        W24876  10.274   3.468   0.811
58336W        W24877  26.471  32.305   4.870
58337W        W24878   0.323  10.527  14.396
58338W        W24879   9.530  40.559   1.884
58339W        W24880  23.599  30.166   2.192
58340W        W24881   6.369   9.282   1.216
58341W        W24882  32.790   6.371   0.087
58342W        W24883  40.796  26.192   2.125
58343W        W24884  23.379  20.823  14.355
58344W        W24885  17.287  34.153   3.717
58345W        W24886  12.614   3.104  11.121
58346W        W24887  38.078  27.192  13.316
58347W        W24888  39.202  27.913  12.031
58348W        W24889  26.058  42.563  12.026
58349W        W24890   3.485  27.107   0.475
58350W        W24891  32.884  31.503   0.115
58351W        W24892  34.014  41.364  13.283
58352W        W24893  18.564  14.381   1.125
58353W        W24894  27.471  28.751  14.990
58354W        W24895  24.624  28.959   3.453
58355W        W24896  13.127   4.552  12.090
58356W        W24897  44.411  35.153   1.407
58357W        W24898  37.324   0.813  14.272
58358W        W24899  18.463  18.582  11.333
58359W        W24900  22.730  38.541   2.810
58360W        W24901  24.156  17.267  14.751
58361W        W24902  22.459  20.474  13.561
58362W        W24903  27.653  26.426   0.905
58363W        W24904  33.491  12.822  12.947
58364W        W24905  43.975  16.549  13.862
58365W        W24906  27.945  43.856  13.870
58366W        W24907   2.818  43.880   4.372
58367W        W24908  27.164  35.523  11.247
58368W        W24909  27.752  22.842  10.275
58369W        W24910  26.095  17.629  11.032
58370W        W24911  22.195   9.375  14.031
58371W        W24912  31.517  21.680  14.444
58372W        W24913  11.082  42.680   2.973
58373W        W24914   9.679  38.263   9.759
58374W        W24915  17.216  32.065   3.619
58375W        W24916  33.037  35.547  14.818
58376W        W24917  32.824  24.546  11.198
58377W        W24918  35.388   2.709   3.587
58378W        W24919  27.988  40.488   1.661
58379W        W24920   0.507   1.216  11.045
58380W        W24921  21.661  35.096  14.392
58381W        W24922  43.748   5.671   2.769
58382W        W24923  33.876  26.041   0.921
58383W        W24924  14.098  44.526  14.980
58384W        W24925  43.518  31.796   2.638
58385W        W24926  31.503  40.419   1.726
58386W        W24927  21.629  40.060   1.814
58387W        W24928  42.219  31.347   2.370
58388W        W24929  37.844   6.946  12.956
58389W        W24930   7.768  44.978   0.236
58390W        W24931  41.551  36.638   3.097
58391W        W24932  29.863  10.436   1.409
58392W        W24933  28.199  28.770  13.425
58393W        W24934  24.719  28.247  14.370
58394W        W24935  32.619  34.643   4.436
58395W        W24936   0.941  21.175  11.748
58396W        W24937  14.615  29.993   1.885
58397W        W24938  37.941  40.349  11.579
58398W        W24939  44.759  41.577  11.946
58399W        W24940   7.314   0.166  13.013
58400W        W24941  27.317  36.587  11.335
58401W        W24942   7.996  24.375   0.066
58402W        W24943  26.663  42.254   1.362
58403W        W24944  10.260  44.060   0.481
58404W        W24945  14.595  43.222  13.782
58405W        W24946  31.444  19.620  14.899
58406W        W24947  11.252  12.497   4.350
58407W        W24948   8.241  44.976   0.017
58408W        W24949  18.288  16.522   1.302
58409W        W24950   5.705  33.900   3.214
58410W        W24951   2.279  29.663  13.368
58411W        W24952  40.249   5.273   0.387
58412W        W24953   7.888  32.949   1.217
58413W        W24954  31.717   6.351  13.595
58414W        W24955  39.419   3.742  12.219
58415W        W24956  42.044  23.244  12.843
58416W        W24957  27.427   4.192   2.658
58417W        W24958  42.486  25.288   0.807
58418W        W24959   3.187  17.324  12.965
58419W        W24960  12.134  18.372   0.411
58420W        W24961  28.233  30.917   4.734
58421W        W24962  40.775  24.286   0.439
58422W        W24963  13.807  28.594  12.013
58423W        W24964  11.908  30.375  12.030
58424W        W24965   7.853  36.363  12.880
58425W        W24966  29.370  18.217   3.159
58426W        W24967   6.768   1.933  10.588
58427W        W24968   5.849  26.506   4.695
58428W        W24969  25.388  26.522  10.731
58429W        W24970  31.163  13.217   1.451
58430W        W24971  38.973  31.012  12.461
58431W        W24972  25.912  36.643  12.651
58432W        W24973  33.928  13.103  13.115
58433W        W24974  38.730  14.943   4.163
58434W        W24975  44.236  34.532  13.867
58435W        W24976  34.870  37.974  10.638
58436W        W24977   1.465  39.041  14.910
58437W        W24978  24.759  42.437  14.456
58438W        W24979  35.892  42.781   2.471
58439W        W24980   6.727  10.240  13.021
58440W        W24981  17.841  29.242  14.413
58441W        W24982  29.701  28.738   3.331
58442W        W24983  16.065   9.254  14.449
58443W        W24984   3.170  21.950  12.896
58444W        W24985  20.667   9.903  14.432
58445W        W24986   7.003  18.407   0.381
58446W        W24987  27.097   4.746  12.914
58447W        W24988  13.621  18.013   1.306
58448W        W24989  17.418  17.086   3.646
58449W        W24990   1.371   0.723  14.397
58450W        W24991   0.025  35.061  13.948
58451W        W24992   3.292  24.089   1.735
58452W        W24993  32.255  20.096   2.906
58453W        W24994  42.320  30.155  14.263
58454W        W24995  44.232   8.045  10.217
58455W        W24996  27.158   7.480   3.112
58456W        W24997  31.483  36.353  13.390
58457W        W24998  36.029   8.182   1.863
58458W        W24999  28.474  14.173  12.958
58459W        W25000  44.959   8.205   1.180
58460W        W25001  37.184  29.637   2.168
58461W        W25002  33.140  16.440  11.229
58462W        W25003   2.983  32.060  14.380
58463W        W25004  39.075  22.780  13.855
58464W        W25005  24.448  34.845  12.646
58465W        W25006   5.781  18.307   3.096
58466W        W25007  32.306  32.891  11.523
58467W        W25008  21.754  32.225   1.228
58468W        W25009  17.298   3.028   9.922
58469W        W25010  17.311  40.023   3.498
58470W        W25011   6.815   4.264   3.073
58471W        W25012  10.930  38.884   2.116
58472W        W25013  27.429  38.946   3.705
58473W        W25014  12.718  23.518   1.166
58474W        W25015  39.178  39.550   4.232
58475W        W25016  31.606  36.910   3.636
58476W        W25017  36.854  10.542  14.036
58477W        W25018  16.782  28.386   3.218
58478W        W25019   4.994  43.182   4.107
58479W        W25020  37.961  32.673  13.641
58480W        W25021  29.038  21.606  14.095
58481W        W25022  42.451  26.280   4.103
58482W        W25023  18.179  18.742   4.669
58483W        W25024  26.033  10.942  13.766
58484W        W25025  17.040  21.450   0.073
58485W        W25026  17.522  13.549   2.647
58486W        W25027  23.896  38.416  11.684
58487W        W25028  30.027   4.405   0.270
58488W        W25029  36.472  25.230   0.494
58489W        W25030   6.127  39.252  13.316
58490W        W25031  30.418  35.963  13.867
58491W        W25032  25.169  18.175   2.629
58492W        W25033  17.116   4.681   0.378
58493W        W25034  40.397  28.678   3.756
58494W        W25035  11.337   6.495  10.819
58495W        W25036  24.747  44.727  14.342
58496W        W25037  19.303   5.859  12.575
58497W        W25038  40.392  26.290  13.856
58498W        W25039  20.573   2.512   1.357
58499W        W25040  39.453   7.999  11.647
58500W        W25041   0.812  27.997  13.185
58501W        W25042  25.212  22.713  13.881
58502W        W25043  19.305  25.938  13.557
58503W        W25044  34.400  10.810  10.596
58504W        W25045  22.217  12.745   9.981
58505W        W25046  26.002  35.660  13.526
58506W        W25047  11.923  16.942  12.330
58507W        W25048  35.167  27.659   4.563
58508W        W25049   2.331  41.879   1.782
58509W        W25050   4.216  32.093  10.970
58510W        W25051  31.896  33.607  10.651
58511W        W25052  29.716  29.362  13.003
58512W        W25053   8.196   0.162   0.520
58513W        W25054  15.924  13.243  10.268
58514W        W25055  24.984   1.885  13.503
58515W        W25056  16.792  41.775  10.717
58516W        W25057  22.852  21.561   2.123
58517W        W25058  30.588  14.142  11.996
58518W        W25059  25.983  18.013   4.352
58519W        W25060  40.724   4.058  12.847
58520W        W25061  35.006  16.177   4.593
58521W        W25062  38.387   1.968   1.314
58522W        W25063   9.160  35.116  13.580
58523W        W25064  40.441  29.166   3.557
58524W        W25065  11.746  14.276  14.294
58525W        W25066   1.197  42.767   4.619
58526W        W25067  17.701  27.931  14.919
58527W        W25068   5.303   3.797  13.452
58528W        W25069  42.499   1.889  10.794
58529W        W25070   9.195  31.854   3.328
58530W        W25071  10.805  34.446   2.810
58531W        W25072   0.965  38.904  11.682
58532W        W25073   2.283  30.152  11.827
58533W        W25074  15.178   9.857   0.254
58534W        W25075   0.376  22.517  10.382
58535W        W25076  12.127  43.192   0.253
58536W        W25077  43.583  27.943  12.144
58537W        W25078   5.773  30.692  11.111
58538W        W25079  34.374  23.535   2.131
58539W        W25080  25.798   3.804   2.246
58540W        W25081  34.175  16.054   2.191
58541W        W25082  14.343  36.243  13.630
58542W        W25083  28.520  10.102  14.853
58543W        W25084  25.370   2.278   3.085
58544W        W25085  29.429  18.926  13.433
58545W        W25086  36.055  37.983  14.399
58546W        W25087  38.519  14.873  11.184
58547W        W25088  21.572  16.169   2.231
58548W        W25089  13.310  35.856  13.118
58549W        W25090   1.406  20.329  13.573
58550W        W25091  10.323  16.282   1.277
58551W        W25092  22.759   6.831  12.078
58552W        W25093  19.880  18.235  12.985
58553W        W25094  22.645  42.279  12.910
58554W        W25095  40.276  17.516  10.351
58555W        W25096  27.646  19.818  10.769
58556W        W25097  38.241  42.041  13.513
58557W        W25098  14.569  39.005   1.385
58558W        W25099  36.581  21.379  11.212
58559W        W25100  19.218  29.742   0.805
58560W        W25101  27.143  22.630   1.906
58561W        W25102  30.233  33.574  12.504
58562W        W25103  36.025  11.886  13.482
58563W        W25104  13.865  16.020  12.414
58564W        W25105   9.915  33.970   4.114
58565W        W25106  35.160  14.258   1.319
58566W        W25107   0.897  28.346   2.803
58567W        W25108   0.032  23.683  13.951
58568W        W25109  29.220  14.478   4.481
58569W        W25110  14.788  35.170  10.712
58570W        W25111  28.410  43.159  10.417
58571W        W25112  24.861  25.599   2.228
58572W        W25113  42.223  11.860  10.703
58573W        W25114   8.007   2.370  13.750
58574W        W25115  13.823  26.010   1.923
58575W        W25116  29.131   1.430   0.746
58576W        W25117  20.489  39.927   1.604
58577W        W25118  26.363  38.914  14.736
58578W        W25119  44.974  40.913  12.464
58579W        W25120  30.058  13.663  14.771
58580W        W25121  15.096   9.884  11.070
58581W        W25122  36.878  34.931   4.469
58582W        W25123  30.510  34.978  11.672
58583W        W25124  41.416  29.957  14.124
58584W        W25125  10.350  16.306  11.176
58585W        W25126  29.941  27.675  10.678
58586W        W25127  16.462  33.483  11.956
58587W        W25128  13.810   2.905   2.557
58588W        W25129  41.659  16.302  10.733
58589W        W25130  12.895  34.862   2.194
58590W        W25131  24.945  40.506  11.957
58591W        W25132  29.902  21.714   2.335
58592W        W25133   7.153   9.201  12.149
58593W        W25134  43.748  41.693   3.711
58594W        W25135  18.169  15.896  13.954
58595W        W25136  23.780  41.551   2.298
58596W        W25137  40.377   8.210   4.701
58597W        W25138   4.701  16.685   2.704
58598W        W25139  31.619  20.745   2.167
58599W        W25140  37.864  17.279   2.210
58600W        W25141   1.990  37.374   9.840
58601W        W25142  30.027  15.677  13.569
58602W        W25143   6.633  21.057   2.694
58603W        W25144  31.435  17.561  12.044
58604W        W25145   4.265  34.518   4.706
58605W        W25146  40.646  42.185  13.111
58606W        W25147  11.634  27.892   0.242
58607W        W25148  33.150  31.938  12.383
58608W        W25149  37.170  30.809  13.744
58609W        W25150  30.166  19.694   3.665
58610W        W25151  40.106   8.717  14.281
58611W        W25152  20.837   6.864  12.997
58612W        W25153  21.689  16.752  14.229
58613W        W25154  13.187  32.534   0.059
58614W        W25155   9.495  34.127  11.499
58615W        W25156  19.761   8.501  14.998
58616W        W25157   5.730  37.400  11.912
58617W        W25158   1.707  17.097   4.472
58618W        W25159  32.167  44.968   0.490
58619W        W25160  12.159   0.480   4.692
58620W        W25161  16.076  11.913  10.560
58621W        W25162  10.509  13.132   2.923
58622W        W25163   8.796  41.528  12.957
58623W        W25164  24.582  10.650   4.730
58624W        W25165  42.731  41.907   4.901
58625W        W25166   0.812  18.982  11.514
58626W        W25167  16.721  12.932  11.765
58627W        W25168  18.519  27.773  13.935
58628W        W25169  43.375  28.593   4.108
58629W        W25170  38.365   0.905   0.332
58630W        W25171  33.559  14.352   3.530
58631W        W25172  18.249  28.930  14.435
58632W        W25173  32.489   7.238  12.132
58633W        W25174   5.156  36.483   2.317
58634W        W25175  17.912   0.898   2.102
58635W        W25176  25.446  16.684  10.326
58636W        W25177   8.270  25.570  14.272
58637W        W25178  43.570  11.388   1.056
58638W        W25179  12.533  30.057  11.477
58639W        W25180   8.301  11.742  10.573
58640W        W25181  13.868  30.444   3.804
58641W        W25182  43.320  22.079   1.929
58642W        W25183   5.014  33.121   1.892
58643W        W25184  36.010  32.877   2.254
58644W        W25185  17.649  40.335   4.246
58645W        W25186  10.228   4.262   2.995
58646W        W25187   7.251  22.596   0.730
58647W        W25188  26.252   3.779  13.408
58648W        W25189  15.768  38.354   9.995
58649W        W25190  40.254  27.990  11.169
58650W        W25191  10.036  44.909   0.423
58651W        W25192  42.925  11.280   4.790
58652W        W25193  22.218  28.531  11.110
58653W        W25194   5.385  27.628  12.130
58654W        W25195  12.328   7.743  12.533
58655W        W25196  14.010  44.360  14.375
58656W        W25197   3.946   5.807  12.390
58657W        W25198  27.283  17.112   3.230
58658W        W25199  22.448  25.697   1.669
58659W        W25200  33.155  37.843  13.632
58660W        W25201  18.737  20.269  12.038
58661W        W25202  34.494  27.213   3.022
58662W        W25203  24.933   0.680   1.880
58663W        W25204  29.386  22.998   3.161
58664W        W25205   9.200  40.645  14.837
58665W        W25206  10.894  14.373   1.452
58666W        W25207  32.282  25.820  11.144
58667W        W25208   4.792  16.548   1.799
58668W        W25209   2.745  36.147   2.890
58669W        W25210  14.778   8.681  13.877
58670W        W25211  13.670   4.642  12.189
58671W        W25212  31.030  28.683   4.525
58672W        W25213   6.797  23.080  14.047
58673W        W25214  44.889   9.757  10.959
58674W        W25215   9.790  20.777   2.265
58675W        W25216   7.280  26.933  13.324
58676W        W25217   8.677  25.669   1.461
58677W        W25218  13.177  15.359   0.524
58678W        W25219  35.417  20.521   1.171
58679W        W25220  30.483  43.669  13.985
58680W        W25221  17.645  29.441  12.319
58681W        W25222  41.419  31.636  11.637
58682W        W25223  36.217   3.896  12.834
58683W        W25224  30.027  26.801   3.784
58684W        W25225   8.076  22.269   2.282
58685W        W25226  14.790  16.326  13.613
58686W        W25227  34.062   0.367  11.715
58687W        W25228  39.499  29.743   2.742
58688W        W25229  21.464   2.741   4.327
58689W        W25230  15.075  23.788  14.082
58690W        W25231  41.477  44.718   0.362
58691W        W25232  10.334  17.836   4.211
58692W        W25233  40.975  25.645  14.332
58693W        W25234  20.163  26.065   1.359
58694W        W25235  43.458  12.674   2.272
58695W        W25236  29.068  21.333  13.552
58696W        W25237  14.122   0.371   4.556
58697W        W25238  27.683   0.339  10.913
58698W        W25239  36.393  10.751   2.928
58699W        W25240  26.258   2.724   1.819
58700W        W25241   6.494   3.856   1.448
58701W        W25242  30.056  24.593  11.141
58702W        W25243  17.008  17.707   1.428
58703W        W25244  12.344  19.464   2.716
58704W        W25245   3.298  11.676   0.405
58705W        W25246   9.671  32.022   3.181
58706W        W25247  37.830  36.440  13.485
58707W        W25248   9.613   6.157  13.202
58708W        W25249  19.596  32.659  13.419
58709W        W25250  39.577  30.963  14.937
58710W        W25251  23.131  17.089  14.413
58711W        W25252  24.776  17.824   2.618
58712W        W25253  26.092  16.274  12.366
58713W        W25254  44.403  36.390  14.990
58714W        W25255  39.974  20.324  13.585
58715W        W25256  37.465   3.084   0.715
58716W        W25257  33.914   5.664  11.410
58717W        W25258  38.475   6.374   4.910
58718W        W25259  10.043  42.865   4.530
58719W        W25260  30.944  34.507   2.099
58720W        W25261  44.529   8.923  12.428
58721W        W25262  18.871  30.195   0.157
58722W        W25263   8.774  41.036   3.793
58723W        W25264  26.042  28.472  11.561
58724W        W25265  10.637  25.322  14.747
58725W        W25266  24.089  37.788   0.698
58726W        W25267  43.976  43.002  10.748
58727W        W25268  28.082  35.552  14.772
58728W        W25269  23.075   7.018   4.515
58729W        W25270  38.413   7.255   2.870
58730W        W25271   3.885  28.747   4.337
58731W        W25272  42.483  28.698   0.745
58732W        W25273  11.671  18.727   2.709
58733W        W25274   8.340  43.615  13.313
58734W        W25275  38.610  26.608   4.820
58735W        W25276  44.553  38.922   1.425
58736W        W25277   0.841  10.963   4.395
58737W        W25278  22.970  26.984   2.676
58738W        W25279  25.046  25.142   2.412
58739W        W25280  12.784   4.922  14.783
58740W        W25281  26.037   0.271   2.695
58741W        W25282  20.239  32.590   0.462
58742W        W25283  30.708  13.577  10.477
58743W        W25284  31.477  25.160   3.841
58744W        W25285  35.545   1.551   1.697
58745W        W25286  25.062   8.772  13.902
58746W        W25287  26.563  11.836   3.744
58747W        W25288  16.064  16.323  10.676
58748W        W25289   2.044  29.526   4.610
58749W        W25290  13.884  11.887  14.991
58750W        W25291  30.745  16.692   5.263
58751W        W25292   4.664  44.548   5.064
58752W        W25293  33.353   1.379  12.618
58753W        W25294  21.931  41.817   2.345
58754W        W25295  16.227  11.651  11.956
58755W        W25296  27.678  43.427  13.719
58756W        W25297  20.070   5.213  12.567
58757W        W25298  23.158  10.809   4.101
58758W        W25299  44.012  20.683   0.027
58759W        W25300  32.056  35.309   4.984
58760W        W25301  30.156  13.895   1.657
58761W        W25302  28.156  42.544  13.330
58762W        W25303  24.001   2.725  11.669
58763W        W25304  24.377  37.085  14.624
58764W        W25305  36.948  38.952   0.632
58765W        W25306  38.358  10.779   2.257
58766W        W25307  27.239  14.881  14.057
58767W        W25308  20.002   1.909  12.886
58768W        W25309  29.715  15.120  14.691
58769W        W25310   8.682  33.566  11.616
58770W        W25311  33.411  27.179   4.530
58771W        W25312  10.749  14.804   4.841
58772W        W25313  26.663   9.539   0.239
58773W        W25314  26.715   3.681   4.087
58774W        W25315   0.849  16.217   2.499
58775W        W25316  21.581  42.816  12.936
58776W        W25317  39.431   2.811   0.286
58777W        W25318  27.583  16.663   3.209
58778W        W25319  41.574  23.609  13.867
58779W        W25320  17.292   7.001   3.829
58780W        W25321  34.513  29.465  10.768
58781W        W25322  36.670  37.815   0.067
58782W        W25323  31.140  42.967  14.980
58783W        W25324  44.934  25.176   4.627
58784W        W25325  34.156  39.549   1.282
58785W        W25326   0.906  39.104   3.833
58786W        W25327   3.463  31.424   3.541
58787W        W25328   7.458  32.880   3.789
58788W        W25329  10.920  40.814  14.374
58789W        W25330   5.695  41.228   4.744
58790W        W25331   9.621  18.656   0.002
58791W        W25332  10.468  25.008  13.439
58792W        W25333  11.378  38.039   2.434
58793W        W25334   3.944  31.965  12.986
58794W        W25335  39.036  35.104  14.789
58795W        W25336   7.067  24.240   1.402
58796W        W25337  14.722  24.661  12.606
58797W        W25338   6.956  39.402   1.267
58798W        W25339  38.596  30.732   2.913
58799W        W25340   8.741   2.007   1.348
58800W        W25341  34.366  37.473  13.842
58801W        W25342  36.043  15.343   1.721
58802W        W25343   6.188   1.350   0.394
58803W        W25344   3.729   4.246   1.852
58804W        W25345  17.532  17.093  14.898
58805W        W25346  28.546   7.149  13.956
58806W        W25347  14.564  39.476  12.456
58807W        W25348  21.186   2.628   3.140
58808W        W25349   4.205  37.346  14.504
58809W        W25350  33.569  29.384  13.046
58810W        W25351  14.800  35.298   4.125
58811W        W25352  21.618   7.184   3.596
58812W        W25353  42.255   4.760  12.638
58813W        W25354  17.629  38.858   0.336
58814W        W25355  36.544  38.164   3.339
58815W        W25356  25.255  35.696  10.994
58816W        W25357  29.481  41.366  13.991
58817W        W25358  33.415  30.912  11.587
58818W        W25359  20.284  36.809   3.858
58819W        W25360  21.289   8.476   3.600
58820W        W25361  20.312  27.053   1.289
58821W        W25362   1.024   1.494   2.288
58822W        W25363  36.913  15.344  12.319
58823W        W25364  22.593  11.042   2.168
58824W        W25365   6.144   4.883   1.237
58825W        W25366   8.304  44.764   3.688
58826W        W25367   6.787  21.415   0.944
58827W        W25368  31.195  11.249   4.559
58828W        W25369  22.673  14.266   5.109
58829W        W25370  35.638   7.835  13.976
58830W        W25371  14.796  25.737   1.319
58831W        W25372  21.134  25.430   3.642
58832W        W25373   9.242  31.647   4.583
58833W        W25374  31.543  20.345  13.356
58834W        W25375  22.296   6.709   3.197
58835W        W25376  32.851  42.430   2.273
58836W        W25377  41.983   4.471   3.690
58837W        W25378  34.690   0.107  11.226
58838W        W25379  26.557  34.042  10.965
58839W        W25380   9.662  31.543   2.788
58840W        W25381  26.249  41.834   3.111
58841W        W25382  30.506  25.231  12.590
58842W        W25383  30.260  23.572  13.542
58843W        W25384   8.112  30.881   2.611
58844W        W25385  39.809  28.958   4.592
58845W        W25386  21.031  36.915  14.364
58846W        W25387  11.720   5.089   2.355
58847W        W25388  17.238  43.734  10.825
58848W        W25389  43.818  13.992   3.129
58849W        W25390  18.254  35.362   2.839
58850W        W25391  37.807   0.826   4.914
58851W        W25392  27.999   3.389   3.593
58852W        W25393  21.766  40.597  13.576
58853W        W25394  41.507   1.777   2.797
58854W        W25395  22.118  16.648   2.878
58855W        W25396  24.335  21.271   4.199
58856W        W25397  29.434  15.721  14.868
58857W        W25398  42.357  32.649  13.360
58858W        W25399  23.590  13.267   3.760
58859W        W25400  35.461   2.857   3.108
58860W        W25401  33.504  14.809  14.548
58861W        W25402  27.033  41.209  12.374
58862W        W25403   2.751  41.560  13.261
58863W        W25404   3.913  13.369  11.230
58864W        W25405   7.729   5.320   4.166
58865W        W25406   3.490   0.994  11.563
58866W        W25407  25.572   4.945  12.372
58867W        W25408  39.281  43.946   0.047
58868W        W25409   4.847  39.814  12.608
58869W        W25410   2.781  31.880   2.364
58870W        W25411  44.812   3.727  11.918
58871W        W25412  10.557  42.927   4.584
58872W        W25413  19.260   5.316  12.111
58873W        W25414  40.875  42.609  12.864
58874W        W25415   5.743  33.026   3.755
58875W        W25416  16.688  41.238  11.527
58876W        W25417   0.203  20.334  11.351
58877W        W25418  34.144  23.273   2.698
58878W        W25419  41.521  38.581  14.526
58879W        W25420  27.033  42.253  14.243
58880W        W25421   0.755  24.582  13.394
58881W        W25422   0.256  41.769  14.906
58882W        W25423  37.110  31.187   2.661
58883W        W25424  42.253  38.392  10.766
58884W        W25425  23.206  32.553  12.078
58885W        W25426   3.310  44.045   0.446
58886W        W25427   0.713  17.720  13.038
58887W        W25428  13.617  19.315   1.916
58888W        W25429  40.709  13.336  14.332
58889W        W25430  13.700   6.264   0.137
58890W        W25431  36.977  43.034  12.531
58891W        W25432  24.707  26.686  11.585
58892W        W25433  25.571  33.921   2.322
58893W        W25434  42.608  27.543   1.399
58894W        W25435  23.696   9.764   4.503
58895W        W25436  37.914  33.803   1.711
58896W        W25437  31.391   0.155  11.966
58897W        W25438  29.467  29.792  11.634
58898W        W25439  23.568  36.808  12.860
58899W        W25440  14.811  23.292   0.569
58900W        W25441  32.054   8.175   1.065
58901W        W25442  31.152  37.141   2.682
58902W        W25443  21.120  17.818   2.254
58903W        W25444  33.109  31.855  14.308
58904W        W25445  24.189  18.627   1.847
58905W        W25446  40.252   3.183  10.373
58906W        W25447  35.170  12.127   1.729
58907W        W25448   0.266   5.152   3.154
58908W        W25449   0.230   0.690  13.351
58909W        W25450  20.032  11.671  11.174
58910W        W25451  11.706  42.007   0.910
58911W        W25452  18.781  38.158  11.510
58912W        W25453  39.343   8.010   3.255
58913W        W25454  36.804  37.383   4.167
58914W        W25455  33.067  16.367  11.974
58915W        W25456   2.533  41.195  10.907
58916W        W25457  15.049  11.108  12.472
58917W        W25458  27.137  37.094  12.024
58918W        W25459   2.756   9.669  12.594
58919W        W25460  14.784  11.135  10.671
58920W        W25461  37.622  23.097  12.052
58921W        W25462  15.335  21.176   0.814
58922W        W25463  16.262  29.680  14.968
58923W        W25464  36.436  26.089  14.950
58924W        W25465  34.995  29.060  14.487
58925W        W25466  23.577  44.242   1.323
58926W        W25467  37.803  12.648   2.127
58927W        W25468  41.007  42.053  12.770
58928W        W25469  38.112  28.678   3.288
58929W        W25470  36.500  42.592   4.531
58930W        W25471   3.776  21.933  14.113
58931W        W25472  39.641  29.990   2.296
58932W        W25473   0.771  26.068  10.609
58933W        W25474  15.161  38.504  14.628
58934W        W25475   3.140  22.577  11.329
58935W        W25476  25.643  33.966   1.384
58936W        W25477   6.456   5.769   2.328
58937W        W25478  17.700  37.344  12.790
58938W        W25479  36.318  23.428  14.993
58939W        W25480  10.325  33.108   4.329
58940W        W25481  21.888  30.908  11.176
58941W        W25482  16.586  40.805  13.460
58942W        W25483  10.933   2.124  14.223
58943W        W25484   3.725  34.044   4.189
58944W        W25485  18.734   9.481   1.307
58945W        W25486  15.865  10.856  12.102
58946W        W25487  29.623  36.407   3.689
58947W        W25488  16.936   0.447  13.523
58948W        W25489  38.977  22.276   1.986
58949W        W25490  25.052  15.316   3.261
58950W        W25491   1.394  27.717  11.070
58951W        W25492  17.674   7.422   0.747
58952W        W25493  14.091  14.263   0.386
58953W        W25494  10.819  20.217  14.505
58954W        W25495  16.760  39.418  10.652
58955W        W25496  29.165  23.001  12.215
58956W        W25497  42.443  40.905   0.513
58957W        W25498   8.296  38.567   0.849
58958W        W25499  23.262   9.332  14.912
58959W        W25500  34.575   6.844  12.859
58960W        W25501   1.345  30.604  14.974
58961W        W25502  42.764   9.527  12.070
58962W        W25503  27.020  11.268   1.023
58963W        W25504   0.800  24.937   2.186
58964W        W25505   4.781  36.626  14.735
58965W        W25506  38.324  31.601   0.171
58966W        W25507  22.901  21.435   0.458
58967W        W25508  33.361  25.001  12.395
58968W        W25509  15.842  13.675  14.604
58969W        W25510  24.763   9.940  12.615
58970W        W25511   5.540  44.406  11.158
58971W        W25512  34.853  19.816  12.380
58972W        W25513  25.450  24.603   2.783
58973W        W25514  35.427  13.748   0.235
58974W        W25515  32.050  11.673   5.358
58975W        W25516  37.361  30.951   5.019
58976W        W25517  25.176  26.051  11.183
58977W        W25518  29.620   9.869  12.164
58978W        W25519  33.009  22.997   2.241
58979W        W25520  17.804  31.079   0.585
58980W        W25521  20.368  18.881  14.851
58981W        W25522  44.156   0.358  14.917
58982W        W25523  18.115   2.693  11.138
58983W        W25524  18.524  17.322   4.870
58984W        W25525  35.424  29.640  14.883
58985W        W25526  10.289  35.741  13.436
58986W        W25527  21.115  12.020   0.915
58987W        W25528  26.790  19.549  12.593
58988W        W25529  39.543  29.145  12.959
58989W        W25530  20.271   5.285   5.404
58990W        W25531  35.572   2.201  12.239
58991W        W25532  18.661  29.416  14.797
58992W        W25533   9.499  28.768   5.322
58993W        W25534   9.697  29.457  10.472
58994W        W25535  26.305  13.589  12.460
58995W        W25536   5.681  33.575  12.405
58996W        W25537  24.698  15.809   0.263
58997W        W25538  19.724  24.957   0.724
58998W        W25539  29.596   7.706  12.530
58999W        W25540   3.322  21.013   3.838
59000W        W25541  32.065  32.419  11.598
59001W        W25542  28.884  33.669   1.804
59002W        W25543  34.480  37.089  13.528
59003W        W25544   8.221  39.040   1.104
59004W        W25545  10.683  38.524  11.123
59005W        W25546  42.753  23.528   4.218
59006W        W25547  13.230   7.797   1.695
59007W        W25548   6.483  25.047  13.985
59008W        W25549  11.782  26.708  11.206
59009W        W25550  42.802  25.591   2.119
59010W        W25551  22.758  10.889  12.629
59011W        W25552   5.056  14.327   2.736
59012W        W25553  25.991  19.684  14.506
59013W        W25554   8.635  37.446   2.289
59014W        W25555  40.366  35.928  14.837
59015W        W25556  17.817  10.472  14.648
59016W        W25557   1.047  26.479  13.079
59017W        W25558  43.909  17.048   4.546
59018W        W25559   3.867  32.467  13.006
59019W        W25560  37.534  42.012   4.235
59020W        W25561   6.667   4.428   1.879
59021W        W25562  37.052  33.876   0.446
59022W        W25563  32.983  27.343   1.320
59023W        W25564  11.655  19.817  13.926
59024W        W25565  19.740  26.370   1.446
59025W        W25566  12.528  35.954   0.533
59026W        W25567  30.091  30.994  12.952
59027W        W25568  19.722  24.583   2.237
59028W        W25569   3.852  27.855  14.981
59029W        W25570  25.300   5.762   3.080
59030W        W25571   2.261  23.768   4.968
59031W        W25572   1.960  18.863   3.604
59032W        W25573  41.001  30.493   4.218
59033W        W25574  35.146  18.848  10.535
59034W        W25575  18.154  18.671  14.779
59035W        W25576   1.322  21.529   0.873
59036W        W25577  35.440  35.136   4.005
59037W        W25578  14.528  42.034   2.339
59038W        W25579   0.624  28.670   2.509
59039W        W25580  37.412  26.965   1.994
59040W        W25581  35.284   9.155  13.368
59041W        W25582   1.680   6.937  13.923
59042W        W25583   9.245  24.999   1.545
59043W        W25584  35.282   2.244   3.348
59044W        W25585  37.417  35.191   4.591
59045W        W25586  16.788  20.252   2.488
59046W        W25587  19.661  41.472   4.666
59047W        W25588  20.691  38.554  13.010
59048W        W25589  43.322  38.525   0.310
59049W        W25590  22.187  32.776  13.174
59050W        W25591  21.219  31.519   0.808
59051W        W25592   5.621  21.561   4.478
59052W        W25593  24.716  16.224  10.588
59053W        W25594   7.311   6.716   4.309
59054W        W25595  18.820   6.621  12.406
59055W        W25596  27.486  38.226  12.732
59056W        W25597  15.815  13.721  13.997
59057W        W25598  29.976  12.782   0.202
59058W        W25599  16.764   0.001   2.280
59059W        W25600  15.286   0.465   0.819
59060W        W25601  26.539   5.330   0.904
59061W        W25602  41.981   2.786   4.920
59062W        W25603  17.823  17.731  12.262
59063W        W25604  14.497   6.072  11.150
59064W        W25605  12.921   0.387   0.489
59065W        W25606   8.754  26.988   3.096
59066W        W25607  26.090  15.066  14.323
59067W        W25608  23.514  19.304  13.554
59068W        W25609  26.258  15.273  11.735
59069W        W25610  10.883  17.091  10.605
59070W        W25611   5.162  28.456  11.474
59071W        W25612  37.747  16.113   0.819
59072W        W25613  11.492   1.257  13.512
59073W        W25614  35.846   3.488   3.209
59074W        W25615   8.736  39.332  14.834
59075W        W25616  29.540  17.094   1.673
59076W        W25617  21.703  18.708  11.155
59077W        W25618  27.110  35.332  11.712
59078W        W25619  11.098  31.076   1.062
59079W        W25620  24.450   6.779  14.512
59080W        W25621   0.549   4.834  12.021
59081W        W25622  18.891  37.598   0.968
59082W        W25623   3.330  33.974   2.392
59083W        W25624  30.184   5.734   4.442
59084W        W25625   1.354  37.227  12.452
59085W        W25626  10.429   1.187   3.806
59086W        W25627  15.142  20.107   0.072
59087W        W25628  33.545  36.234   4.850
59088W        W25629  15.652  40.093   5.178
59089W        W25630  23.039  32.361  12.568
59090W        W25631  36.581  40.435  12.420
59091W        W25632  36.294   4.840  13.702
59092W        W25633  15.940  17.153  11.641
59093W        W25634  42.532  26.460   3.285
59094W        W25635  24.426  43.083  13.440
59095W        W25636   4.642  33.006   1.065
59096W        W25637  17.737  42.873   1.154
59097W        W25638  33.388  19.751   3.131
59098W        W25639  13.025  38.146   5.058
59099W        W25640   7.659  25.649  12.547
59100W        W25641  35.872  15.652   4.551
59101W        W25642  11.120  17.094  12.617
59102W        W25643  12.835   9.608  10.724
59103W        W25644  16.512  37.410  14.057
59104W        W25645  35.640  43.780   1.441
59105W        W25646  26.993  41.977   0.482
59106W        W25647  39.903   4.769   1.949
59107W        W25648  19.757  17.062  13.582
59108W        W25649  20.162  15.119  14.540
59109W        W25650  36.493  39.531  12.533
59110W        W25651  34.150  29.696   0.366
59111W        W25652  37.588  37.353  14.953
59112W        W25653  34.475   2.299   3.398
59113W        W25654   6.383   8.116  12.175
59114W        W25655  10.767   9.312  12.129
59115W        W25656  15.041  14.538  11.036
59116W        W25657  41.939  41.830  14.541
59117W        W25658  30.715  20.608   1.140
59118W        W25659  11.761  10.706   3.269
59119W        W25660  30.579  34.131   1.804
59120W        W25661   7.753  25.622  11.381
59121W        W25662  26.208  12.745  11.582
59122W        W25663   4.909  41.670   4.934
59123W        W25664  36.901  28.437   2.650
59124W        W25665  37.797  10.960   0.946
59125W        W25666   1.650  29.656   3.241
59126W        W25667  21.618   7.203  14.318
59127W        W25668  18.214  11.863  13.363
59128W        W25669  39.389  30.658  11.444
59129W        W25670  43.677  36.389  10.880
59130W        W25671  32.521  42.541  14.497
59131W        W25672  39.119  42.011  14.378
59132W        W25673  13.654  29.431   0.311
59133W        W25674  31.963   0.556  14.823
59134W        W25675  21.755  18.198  11.056
59135W        W25676   8.869  23.766  12.843
59136W        W25677  39.325  14.792  13.401
59137W        W25678  18.371  36.063   0.405
59138W        W25679  34.334  43.981   0.482
59139W        W25680  19.611  30.935  10.816
59140W        W25681  26.834  39.380   2.618
59141W        W25682  44.739   9.439   1.849
59142W        W25683  33.445  21.812   4.933
59143W        W25684   7.399  25.305  10.193
59144W        W25685  11.131  34.978  14.831
59145W        W25686  21.080  25.620   0.246
59146W        W25687  21.031   3.758  14.747
59147W        W25688  35.679  34.925   0.527
59148W        W25689  22.518  31.156  12.131
59149W        W25690  38.596  42.531   1.809
59150W        W25691  12.348  22.688   4.366
59151W        W25692  39.301  40.778   2.771
59152W        W25693  30.168  29.180  10.913
59153W        W25694  11.741  12.209   0.862
59154W        W25695   3.240  27.683   3.879
59155W        W25696  40.544  41.833  13.491
59156W        W25697  41.581  39.283   1.933
59157W        W25698  41.117  32.155   4.115
59158W        W25699  15.841  38.026   0.692
59159W        W25700  31.192  14.359   0.853
59160W        W25701  40.333  35.344   0.939
59161W        W25702  42.521  28.483   3.363
59162W        W25703  11.758  21.274   3.097
59163W        W25704  33.835  43.522  13.924
59164W        W25705  27.145  19.078  12.018
59165W        W25706  37.341   1.773   0.282
59166W        W25707   4.914  43.364   4.597
59167W        W25708  30.882  32.518  12.400
59168W        W25709  11.825  20.587   0.289
59169W        W25710  23.177  20.802   1.764
59170W        W25711   0.234   6.273  13.166
59171W        W25712   8.923  40.742  13.492
59172W        W25713  42.016  28.096  12.037
59173W        W25714  37.125  13.119   2.355
59174W        W25715  33.964  18.623   0.994
59175W        W25716  23.816  23.957  11.588
59176W        W25717  35.390   6.202   2.220
59177W        W25718  16.059  35.963   1.499
59178W        W25719  24.954  39.393   3.697
59179W        W25720   0.991   1.236  10.863
59180W        W25721  30.854  28.426   2.846
59181W        W25722   2.161  11.172  14.886
59182W        W25723  34.691   5.283   4.478
59183W        W25724  31.029   6.354  13.742
59184W        W25725  11.187  31.512  13.328
59185W        W25726  21.699  13.229  14.791
59186W        W25727  19.755   4.425  10.379
59187W        W25728  37.516   2.828   2.097
59188W        W25729  27.182   3.350  14.492
59189W        W25730   3.192   8.576  14.218
59190W        W25731  20.581   9.278   3.691
59191W        W25732   1.471   5.709   1.813
59192W        W25733   4.540   4.020   4.585
59193W        W25734  26.761  41.487  12.774
59194W        W25735  21.044  10.704   1.982
59195W        W25736  12.873  36.352   2.594
59196W        W25737  27.550  42.802   1.267
59197W        W25738  26.337  33.797   0.935
59198W        W25739  17.196  20.763   2.735
59199W        W25740   0.698  22.689   2.710
59200W        W25741  28.599   3.705  13.620
59201W        W25742  29.129  34.758   4.552
59202W        W25743  43.011  34.208   4.951
59203W        W25744  40.380   5.951  10.145
59204W        W25745  34.493  42.339   4.421
59205W        W25746  28.046  20.326   4.005
59206W        W25747  15.666  18.448   1.209
59207W        W25748   7.312  19.703  14.014
59208W        W25749  18.975  12.224   3.687
59209W        W25750  29.215  31.275   3.751
59210W        W25751  20.533  13.085  14.363
59211W        W25752  42.961  18.740  10.790
59212W        W25753  39.122  40.529   4.234
59213W        W25754  10.343  13.605  14.353
59214W        W25755   7.276   8.818  12.497
59215W        W25756  18.097  21.464   0.818
59216W        W25757   1.909  12.113   4.733
59217W        W25758   2.739  36.110   4.352
59218W        W25759  39.394   3.932   0.472
59219W        W25760  11.051  15.753   0.293
59220W        W25761  11.330  32.900   3.183
59221W        W25762  23.211  28.022   0.296
59222W        W25763  44.324  36.644  14.311
59223W        W25764  17.719  28.424  13.915
59224W        W25765   0.063  27.953   2.809
59225W        W25766  35.077  42.338  14.862
59226W        W25767  38.223   9.443  14.540
59227W        W25768  37.216  41.372  14.097
59228W        W25769  43.800   2.841   3.356
59229W        W25770  40.425   2.334   1.066
59230W        W25771   8.162  34.479   4.293
59231W        W25772  30.680  27.001  14.450
59232W        W25773   2.738  21.560   3.614
59233W        W25774  33.889  12.071  11.635
59234W        W25775  44.896  12.748   2.110
59235W        W25776  40.950  37.556  12.105
59236W        W25777  40.316   3.405   0.503
59237W        W25778  18.111  41.014   4.097
59238W        W25779   9.544  42.794   4.714
59239W        W25780  16.180  40.526  13.271
59240W        W25781  38.336  30.990   4.878
59241W        W25782  26.695  35.846  12.486
59242W        W25783  20.251   7.866   0.513
59243W        W25784  20.086   1.835  12.098
59244W        W25785  40.116  40.084  12.973
59245W        W25786   0.253  18.341   2.896
59246W        W25787  29.055  43.937  11.368
59247W        W25788  43.984   1.868  13.946
59248W        W25789   1.404  23.081   2.257
59249W        W25790  32.236  26.993  10.719
59250W        W25791   1.190  34.947  12.433
59251W        W25792   5.822  33.894  13.840
59252W        W25793  39.743  37.969  11.061
59253W        W25794   4.648  31.946  13.412
59254W        W25795   2.250  15.880   4.067
59255W        W25796  23.779  34.142  13.015
59256W        W25797   7.606  18.095   4.479
59257W        W25798  26.941   0.710  14.688
59258W        W25799  15.155  17.391  14.909
59259W        W25800   7.271  11.640   0.953
59260W        W25801  20.315  13.185   2.053
59261W        W25802   1.639   1.920   0.859
59262W        W25803  41.998  10.628  11.118
59263W        W25804  15.203  17.547   2.938
59264W        W25805  43.893  25.215   4.742
59265W        W25806  37.591  42.029   0.288
59266W        W25807  18.087  22.934  14.816
59267W        W25808  34.523  30.793  12.053
59268W        W25809  36.294  13.729  13.395
59269W        W25810  38.648   9.226   3.573
59270W        W25811  14.782  32.226   2.748
59271W        W25812  13.929   2.292   0.847
59272W        W25813   3.280  30.436   1.813
59273W        W25814   7.829  32.004  12.542
59274W        W25815  17.558  22.913  12.422
59275W        W25816   9.607  26.059  12.989
59276W        W25817  43.306  19.114   2.943
59277W        W25818  39.451   3.230  11.025
59278W        W25819  21.546  40.279   2.754
59279W        W25820  10.873   3.458   2.082
59280W        W25821  19.091   3.050   0.397
59281W        W25822  18.583  30.020   1.144
59282W        W25823   0.860   8.693  13.101
59283W        W25824   4.396  13.496  14.245
59284W        W25825  24.259   2.944   4.308
59285W        W25826  12.364  33.005   0.976
59286W        W25827  19.351   0.441   4.169
59287W        W25828   1.238  39.012   4.865
59288W        W25829   0.670   6.916   2.734
59289W        W25830   5.515  26.176  14.545
59290W        W25831  31.803  44.328  13.064
59291W        W25832  31.874   5.763  11.691
59292W        W25833  35.078   9.874   0.904
59293W        W25834   7.324  37.335  10.270
59294W        W25835  40.910  40.966  11.187
59295W        W25836  21.127  41.743  14.460
59296W        W25837  43.972  16.192   4.512
59297W        W25838  44.423   3.093   0.507
59298W        W25839  31.040  23.102  13.449
59299W        W25840  12.855  26.060  14.127
59300W        W25841  39.447  37.594   3.227
59301W        W25842  44.029  44.939   2.646
59302W        W25843  39.469  36.878   3.760
59303W        W25844  38.334  44.785   3.358
59304W        W25845  12.302  30.076  14.542
59305W        W25846  11.721  20.512  11.197
59306W        W25847   0.372  34.413   2.629
59307W        W25848  21.765  43.287  13.030
59308W        W25849  11.103  35.885   2.777
59309W        W25850  20.299  44.119   3.271
59310W        W25851  25.222   0.122  11.111
59311W        W25852  23.984   8.101   9.910
59312W        W25853  22.526  43.053   1.301
59313W        W25854  20.648  43.249  11.662
59314W        W25855   9.366  41.256  11.165
59315W        W25856  23.008  43.738  11.230
59316W        W25857  14.872  38.071   3.644
59317W        W25858  36.369   1.972  13.395
59318W        W25859  24.018  31.467   2.637
59319W        W25860   5.645  17.117   0.678
59320W        W25861  40.852  10.410  10.620
59321W        W25862  21.143  14.827  14.444
59322W        W25863   8.918   1.266  13.585
59323W        W25864  24.895   8.093   3.330
59324W        W25865  37.299  33.336   2.386
59325W        W25866   0.470  39.645  12.986
59326W        W25867   1.278  25.802   5.278
59327W        W25868  42.040  11.627  12.962
59328W        W25869  10.628   3.921  14.893
59329W        W25870  33.002  33.130   2.492
59330W        W25871  12.829  13.725   0.477
59331W        W25872  37.101  33.016  12.590
59332W        W25873   3.727  44.467  13.420
59333W        W25874  13.651  11.218  14.433
59334W        W25875  12.752   6.880   1.311
59335W        W25876  39.459   4.615  14.753
59336W        W25877  33.988  44.399   1.247
59337W        W25878  39.893  12.640  12.015
59338W        W25879  23.317  13.841   2.666
59339W        W25880   2.428   3.030   3.567
59340W        W25881  38.419  32.912   4.245
59341W        W25882  29.921  23.676   2.748
59342W        W25883  13.594   0.404  13.818
59343W        W25884  33.217  41.030  12.460
59344W        W25885  37.357  37.893  13.322
59345W        W25886   7.661  30.508   1.873
59346W        W25887  22.458   1.526   3.209
59347W        W25888  38.622  26.214   1.895
59348W        W25889  10.913  11.756   0.821
59349W        W25890  37.053  30.220  12.946
59350W        W25891  34.490  24.790  14.562
59351W        W25892  44.095  14.829  13.860
59352W        W25893  23.662  12.812  13.041
59353W        W25894   8.659  16.101   1.888
59354W        W25895  33.936  29.166   3.254
59355W        W25896  11.991  24.197   3.507
59356W        W25897  30.143  12.345  13.328
59357W        W25898   1.005  12.515   0.368
59358W        W25899  15.679  31.816  12.458
59359W        W25900  23.677  42.354   0.395
59360W        W25901  22.736  38.414  10.604
59361W        W25902   0.159  30.929  10.306
59362W        W25903  43.301  13.104  13.921
59363W        W25904   0.742   4.260  14.933
59364W        W25905  28.258   6.315  14.726
59365W        W25906  17.120  30.468   3.741
59366W        W25907  26.714   6.690  13.901
59367W        W25908  42.806  21.672   4.805
59368W        W25909   3.972  26.560   4.552
59369W        W25910  14.013  34.415   4.734
59370W        W25911  32.442  42.416  13.329
59371W        W25912  26.380  17.175  12.084
59372W        W25913  35.706  23.071  12.612
59373W        W25914  43.601  14.102   0.698
59374W        W25915  23.450  24.139   1.285
59375W        W25916   0.882  13.531   0.324
59376W        W25917   9.264  32.421  13.367
59377W        W25918  44.099  32.550   0.246
59378W        W25919  26.295   1.772  12.897
59379W        W25920   3.388  27.810  11.648
59380W        W25921  14.133  22.991   2.765
59381W        W25922   9.229  34.461  14.047
59382W        W25923  26.437  12.361   0.171
59383W        W25924  40.248  23.949   2.232
59384W        W25925  12.903   3.454   1.005
59385W        W25926   9.172  21.991   4.008
59386W        W25927  22.639   4.253  12.900
59387W        W25928  26.601  42.929   5.324
59388W        W25929  12.596  29.472   0.294
59389W        W25930  22.003  10.284   2.161
59390W        W25931  30.045  44.755   0.375
59391W        W25932  44.989  17.771  12.495
59392W        W25933   8.211  44.662   2.761
59393W        W25934  37.064  40.396   0.788
59394W        W25935  35.751  32.343  12.034
59395W        W25936  30.432   0.668  14.061
59396W        W25937   7.640   4.969   1.207
59397W        W25938  24.471  28.460   3.413
59398W        W25939  18.868  44.704  11.579
59399W        W25940  10.173   3.684  14.812
59400W        W25941  15.290  32.637  12.408
59401W        W25942  36.852  32.862  11.141
59402W        W25943  42.083  20.597   2.934
59403W        W25944  11.224   2.841  10.754
59404W        W25945  41.461   8.138  12.148
59405W        W25946   0.422  14.121  13.932
59406W        W25947  29.689  30.441   3.575
59407W        W25948  37.409   9.308   0.213
59408W        W25949  38.065   1.827  14.071
59409W        W25950  33.188  31.987   1.303
59410W        W25951   8.354  29.256  13.310
59411W        W25952  20.446  11.243   3.179
59412W        W25953  10.613  17.675  12.635
59413W        W25954   6.047   0.829   2.206
59414W        W25955  32.551   1.198   4.479
59415W        W25956  29.540  35.487  14.344
59416W        W25957  16.201   5.949   0.936
59417W        W25958  40.034  23.966   0.899
59418W        W25959  18.154  17.207  13.231
59419W        W25960  44.563   0.217  13.476
59420W        W25961   0.242  19.035   1.699
59421W        W25962  39.302  17.212  13.826
59422W        W25963   5.190   7.815  13.484
59423W        W25964  25.708  24.454   3.204
59424W        W25965  10.089  40.332  12.948
59425W        W25966  24.751  27.134   2.204
59426W        W25967  25.210  40.110  14.509
59427W        W25968   3.736  26.277   3.167
59428W        W25969  41.368  33.521  12.440
59429W        W25970  12.412  37.697  12.425
59430W        W25971  15.763  35.640  12.073
59431W        W25972  24.563  37.003  12.158
59432W        W25973  23.776  35.798  12.877
59433W        W25974  42.549  34.467   0.262
59434W        W25975   2.402  27.180  14.294
59435W        W25976  19.000  40.847   1.020
59436W        W25977  18.403  39.466  13.890
59437W        W25978  28.134  43.392  13.992
59438W        W25979  32.283  10.317   4.508
59439W        W25980   9.946   6.637  11.140
59440W        W25981   7.680  25.656   2.112
59441W        W25982   9.092  24.200  12.476
59442W        W25983  38.650  20.023  14.301
59443W        W25984  21.109   7.366   2.229
59444W        W25985  28.943  20.079   2.775
59445W        W25986  20.658  33.325   4.561
59446W        W25987  11.274  17.219  13.102
59447W        W25988  32.594   4.713   0.819
59448W        W25989   9.467  27.552   2.073
59449W        W25990  23.086  19.491  11.202
59450W        W25991  38.361   6.209   0.873
59451W        W25992  10.643  39.606  11.538
59452W        W25993  43.856   2.888  13.071
59453W        W25994   6.763  43.998  14.870
59454W        W25995  39.113  11.205  14.619
59455W        W25996  21.477  19.352   1.406
59456W        W25997   6.681  27.324  10.589
59457W        W25998   2.387  44.805  12.033
59458W        W25999  20.687   3.835  11.651
59459W        W26000  25.388   2.664  13.388
59460W        W26001   9.194   4.367  14.548
59461W        W26002  13.208  37.038   2.757
59462W        W26003  26.161   8.778   4.356
59463W        W26004   2.540  35.546   3.317
59464W        W26005  27.727   9.688   4.541
59465W        W26006  27.375  36.516   1.770
59466W        W26007  18.804   6.912  11.450
59467W        W26008  27.262  33.277  10.683
59468W        W26009  16.726  21.453  12.071
59469W        W26010   0.295  22.551  14.914
59470W        W26011   3.199  13.842  13.503
59471W        W26012  43.400  25.777   4.170
59472W        W26013   7.835   0.098   4.885
59473W        W26014  11.351  23.595  14.353
59474W        W26015   4.714  18.073  14.028
59475W        W26016  29.998  16.209   3.724
59476W        W26017  33.512  21.000  11.200
59477W        W26018  38.451  29.261  11.678
59478W        W26019  44.873  42.927  10.699
59479W        W26020   2.432  19.337   4.540
59480W        W26021  27.023  21.601   1.933
59481W        W26022  40.004  32.706   3.598
59482W        W26023  26.431  21.659  14.469
59483W        W26024  23.220  18.591   1.946
59484W        W26025  40.807  36.016   2.394
59485W        W26026  18.517  27.896   3.692
59486W        W26027  17.512  22.441  12.606
59487W        W26028  43.469   1.037   2.423
59488W        W26029  13.244  35.477  11.416
59489W        W26030  35.024   6.468   1.474
59490W        W26031  16.609  42.453  12.863
59491W        W26032  33.789  18.142   3.285
59492W        W26033  14.661  23.948  10.564
59493W        W26034  26.212   9.229  12.158
59494W        W26035  15.538  31.190   4.122
59495W        W26036  23.183  22.498  14.997
59496W        W26037  25.333  24.736   4.200
59497W        W26038  33.679  19.092   0.906
59498W        W26039   2.357  39.861  10.279
59499W        W26040  38.142  11.929   3.806
59500W        W26041   2.306  16.615  14.314
59501W        W26042  16.819  30.462  12.031
59502W        W26043  17.780  17.845   3.620
59503W        W26044  21.663   6.785   0.243
59504W        W26045  27.891  12.360   0.736
59505W        W26046  43.238   5.204  14.790
59506W        W26047  26.023   0.804  12.035
59507W        W26048  44.580  44.301   5.457
59508W        W26049  35.927   1.610   9.847
59509W        W26050  11.385  32.232  10.709
59510W        W26051   7.412  26.052   1.899
59511W        W26052   6.676  30.356   1.950
59512W        W26053   7.686   2.444  10.661
59513W        W26054   8.929  19.374   3.291
59514W        W26055  43.280  13.630  14.806
59515W        W26056  23.027   3.917   1.023
59516W        W26057   4.687   5.208  14.551
59517W        W26058  44.871  34.555  13.027
59518W        W26059   9.192   0.954   0.899
59519W        W26060  15.087  17.320  12.101
59520W        W26061  32.201  16.582   1.903
59521W        W26062   2.264  17.239   3.606
59522W        W26063  24.587  40.306   0.340
59523W        W26064  22.450   4.872   4.021
59524W        W26065   3.971  16.140  13.791
59525W        W26066  36.406  21.798   3.190
59526W        W26067   7.061  35.255   3.863
59527W        W26068  31.992  40.768  13.865
59528W        W26069  20.129   8.652   1.157
59529W        W26070   2.702  21.408  11.598
59530W        W26071  11.358  28.864   0.394
59531W        W26072  30.029   1.726  14.303
59532W        W26073   8.511  28.029  14.542
59533W        W26074  15.870  23.036   4.520
59534W        W26075   2.464  22.927   3.962
59535W        W26076   8.440  40.835  10.352
59536W        W26077  12.471  12.851   0.423
59537W        W26078  13.364  21.062  12.047
59538W        W26079  28.137  11.101   3.306
59539W        W26080  26.389  11.112   4.320
59540W        W26081  28.097  22.175  13.089
59541W        W26082   1.472  19.748   3.827
59542W        W26083  19.611   9.309   5.054
59543W        W26084  15.540  40.999  13.589
59544W        W26085   0.113   8.597   4.508
59545W        W26086  41.255  44.783   4.736
59546W        W26087  27.093  41.480   1.347
59547W        W26088  36.545  10.165  12.591
59548W        W26089  10.919  12.163   3.626
59549W        W26090   8.350  20.424   2.810
59550W        W26091   3.358  36.900  11.593
59551W        W26092  32.709  11.917   2.824
59552W        W26093  15.318  40.576  13.881
59553W        W26094  19.620  13.044  11.145
59554W        W26095  15.551  36.843  12.468
59555W        W26096  18.972  14.437   4.532
59556W        W26097  14.638  26.448   2.788
59557W        W26098  33.369   2.154  13.677
59558W        W26099  13.415  26.966  12.038
59559W        W26100   2.274  22.994  13.456
59560W        W26101  18.560  16.888   4.460
59561W        W26102  13.109  25.160  14.562
59562W        W26103  22.669  23.764  11.059
59563W        W26104  26.876  19.234  13.949
59564W        W26105   2.676  25.484   1.674
59565W        W26106  39.331  32.279   1.433
59566W        W26107  44.273  24.766  11.126
59567W        W26108   3.805  44.285   2.204
59568W        W26109  36.064  22.078   1.894
59569W        W26110  17.690  19.570  10.684
59570W        W26111  13.614   4.609  12.919
59571W        W26112  40.107  42.840  14.312
59572W        W26113  19.994  36.479  14.777
59573W        W26114  29.289  30.232  11.939
59574W        W26115   3.945   3.914  11.461
59575W        W26116  22.577  38.299  11.656
59576W        W26117  18.285  35.061  11.615
59577W        W26118  43.854  11.180   3.257
59578W        W26119   6.702   4.174   2.567
59579W        W26120  38.950  27.477  10.412
59580W        W26121  23.626  40.355   0.404
59581W        W26122   3.453  17.283  11.036
59582W        W26123  28.029  36.322  10.668
59583W        W26124  42.479   6.653   3.285
59584W        W26125  41.674  26.121  14.932
59585W        W26126  43.551  18.804  13.069
59586W        W26127  22.721  13.596  11.565
59587W        W26128  35.809  18.838  14.922
59588W        W26129  13.767  25.173   0.768
59589W        W26130  17.572  40.915  11.863
59590W        W26131   1.804  14.233  14.301
59591W        W26132  20.156   9.998  14.304
59592W        W26133  38.478   3.912   4.349
59593W        W26134  23.739  16.790  10.652
59594W        W26135  28.967  39.446  12.091
59595W        W26136  17.073  33.973  14.804
59596W        W26137  14.305   7.855  14.734
59597W        W26138  12.577  38.037   1.741
59598W        W26139  43.525  32.614  14.036
59599W        W26140  41.835  20.809   2.200
59600W        W26141  42.349  33.400   3.633
59601W        W26142   5.995  32.593   3.592
59602W        W26143  22.539  35.628  10.524
59603W        W26144  33.344  40.798   0.989
59604W        W26145  43.800   0.808   4.936
59605W        W26146  19.252   5.097   4.075
59606W        W26147  23.603  44.313  12.506
59607W        W26148  31.358  25.062   4.343
59608W        W26149   4.679   6.118  14.598
59609W        W26150  12.842  20.214   0.915
59610W        W26151  17.589  16.032   2.792
59611W        W26152  11.120  19.557   0.793
59612W        W26153   3.956  28.166   9.979
59613W        W26154   4.188  11.878   0.405
59614W        W26155  32.204  20.722  13.564
59615W        W26156  39.734  16.220   0.796
59616W        W26157   9.362  23.561  14.563
59617W        W26158  11.914  16.439  14.764
59618W        W26159  14.642   2.313   4.182
59619W        W26160  17.215  36.386   1.827
59620W        W26161  26.683  14.433  10.714
59621W        W26162  34.578   4.303   9.750
59622W        W26163   1.073  23.995  14.541
59623W        W26164  41.406   0.719   5.178
59624W        W26165  33.153  24.703   2.668
59625W        W26166  14.802  17.010  14.960
59626W        W26167  20.567  10.859  11.970
59627W        W26168  28.730   6.241   1.280
59628W        W26169  25.029  14.058  11.220
59629W        W26170  41.791   3.325  10.669
59630W        W26171   3.778  18.173  13.887
59631W        W26172  42.890  15.107   1.732
59632W        W26173  22.589  27.716  14.578
59633W        W26174  16.286  19.081   0.100
59634W        W26175  40.387  17.034  10.502
59635W        W26176   5.504  18.768   2.176
59636W        W26177  37.085   0.713   3.069
59637W        W26178  39.919   2.166   0.344
59638W        W26179   5.017  26.499  14.555
59639W        W26180   2.903  42.872   4.265
59640W        W26181  26.566  39.836   4.136
59641W        W26182  39.827  35.528  11.691
59642W        W26183  39.580   1.376  12.005
59643W        W26184  25.219  19.315   1.225
59644W        W26185  21.598  32.526  12.994
59645W        W26186  27.701  31.105   1.258
59646W        W26187  40.786  36.650  13.152
59647W        W26188  11.592  22.361  11.434
59648W        W26189  36.437  11.988   0.268
59649W        W26190  32.884  16.284  10.774
59650W        W26191  32.443  41.129  14.541
59651W        W26192  11.449  36.897   0.539
59652W        W26193  15.349   9.677  10.674
59653W        W26194   9.727  12.388  11.789
59654W        W26195  10.948  41.408  12.908
59655W        W26196  41.016   8.039  13.521
59656W        W26197  11.987  36.479   3.033
59657W        W26198  38.827  15.347  10.083
59658W        W26199  34.961  20.145   2.483
59659W        W26200   9.573   0.203  12.058
59660W        W26201  38.351  22.241   1.357
59661W        W26202  36.637   8.359   3.123
59662W        W26203  10.871  28.205  13.888
59663W        W26204  42.048   7.146  13.780
59664W        W26205   0.201   8.617  14.274
59665W        W26206  29.287  11.228  13.019
59666W        W26207  17.982  31.162  12.487
59667W        W26208   9.817  12.973   3.712
59668W        W26209   2.207  25.454   2.212
59669W        W26210   1.340  35.943   3.902
59670W        W26211  32.975  15.744  13.088
59671W        W26212  30.998  44.716   3.863
59672W        W26213  36.995  20.245  13.020
59673W        W26214  14.656  22.534  10.675
59674W        W26215   9.292   1.781  10.807
59675W        W26216  27.198  31.935  12.022
59676W        W26217   9.055  37.101  11.171
59677W        W26218  42.322  42.097  12.991
59678W        W26219   6.203  29.189  14.901
59679W        W26220  16.971   1.259  14.551
59680W        W26221   1.493  20.680   1.420
59681W        W26222  42.127  41.946  14.018
59682W        W26223  21.814   3.362   2.365
59683W        W26224  17.831   1.267  10.589
59684W        W26225   4.279  10.209  10.483
59685W        W26226  34.889  32.916   2.427
59686W        W26227  11.871  31.512  12.145
59687W        W26228  30.831  19.911   4.163
59688W        W26229  14.242  29.712  11.594
59689W        W26230  24.614  27.172  12.405
59690W        W26231  11.654  40.467   1.732
59691W        W26232  18.092  42.093  14.275
59692W        W26233  14.741  40.449  13.471
59693W        W26234  17.480  39.763  12.570
59694W        W26235  30.296  30.622  10.776
59695W        W26236   4.321  29.099  11.954
59696W        W26237  27.807  12.167   4.044
59697W        W26238  30.431  16.723   1.372
59698W        W26239  18.170  39.445  14.360
59699W        W26240  19.037  27.470   2.135
59700W        W26241  25.596  35.220   2.971
59701W        W26242  28.629  22.009  12.959
59702W        W26243  16.359   8.750  13.374
59703W        W26244   4.977  10.923  13.057
59704W        W26245  30.545  26.550  12.118
59705W        W26246  43.796  12.879  11.925
59706W        W26247  42.508   7.167   2.318
59707W        W26248  15.096  13.816   2.427
59708W        W26249  29.366  27.953  11.918
59709W        W26250  37.833  37.995   0.638
59710W        W26251  25.469  14.854  13.357
59711W        W26252   6.385  27.985  14.766
59712W        W26253  39.963  31.537   1.524
59713W        W26254   7.458  12.039   0.652
59714W        W26255  41.140  24.046  11.073
59715W        W26256  14.412  10.495  14.210
59716W        W26257  27.625  22.265   4.808
59717W        W26258  16.734  12.695   4.139
59718W        W26259  35.101   2.955   1.005
59719W        W26260  14.079  21.165  14.276
59720W        W26261  18.251   7.710  13.371
59721W        W26262  15.719   4.386   4.047
59722W        W26263  32.045  39.380   3.911
59723W        W26264   7.733   2.061  11.952
59724W        W26265   8.875   2.248   1.793
59725W        W26266  21.035   9.873  11.212
59726W        W26267  25.921  20.964  11.912
59727W        W26268   5.363  30.100   3.174
59728W        W26269   5.636  41.741  13.925
59729W        W26270  29.467   6.574   3.188
59730W        W26271   4.316  20.035  11.597
59731W        W26272  42.044  17.248  10.728
59732W        W26273  42.559  38.196  11.151
59733W        W26274  25.509  12.854   4.244
59734W        W26275   0.261  22.699  11.439
59735W        W26276  19.602  30.476   4.046
59736W        W26277  34.541   8.465   3.194
59737W        W26278  28.499  23.541  14.841
59738W        W26279  16.570   6.630  12.107
59739W        W26280  38.066  20.234  10.676
59740W        W26281  25.632  17.250  12.642
59741W        W26282  14.523   6.638  14.712
59742W        W26283  22.955  31.135  11.696
59743W        W26284  11.356  23.018   1.343
59744W        W26285  24.573   6.874  11.946
59745W        W26286  33.094  40.029  12.562
59746W        W26287   0.621  34.928   0.280
59747W        W26288  12.622   1.120  13.012
59748W        W26289  27.633  22.004   1.829
59749W        W26290  36.793  20.116  10.889
59750W        W26291  12.850   8.694  10.723
59751W        W26292  16.224  26.458   3.224
59752W        W26293   1.444  22.065  13.164
59753W        W26294  42.321   0.698  14.504
59754W        W26295  29.429  13.759  12.442
59755W        W26296   1.599  37.428   4.513
59756W        W26297  39.608  33.044   3.680
59757W        W26298  38.321  11.796   0.476
59758W        W26299  24.107   4.005   0.817
59759W        W26300  22.777  27.980   0.587
59760W        W26301  21.706   1.473  12.537
59761W        W26302   5.200  21.182   4.291
59762W        W26303  27.908   3.447  12.149
59763W        W26304  29.172   4.191  14.307
59764W        W26305   3.820   0.841  13.674
59765W        W26306  31.064  10.319   0.309
59766W        W26307  18.212  20.678   1.529
59767W        W26308   5.736  18.618   1.707
59768W        W26309  16.532  28.490   0.635
59769W        W26310  27.085  31.605  13.931
59770W        W26311  13.008  43.261   3.826
59771W        W26312  40.200  33.397   4.579
59772W        W26313  22.964  34.527   1.672
59773W        W26314  38.539  18.736   1.767
59774W        W26315  39.459  20.981  14.856
59775W        W26316   5.131  36.978  14.901
59776W        W26317  42.071  39.807  13.299
59777W        W26318  10.653  10.812  11.295
59778W        W26319  14.540  38.998  10.290
59779W        W26320  11.455  21.665   4.839
59780W        W26321  28.879  24.171  10.291
59781W        W26322  43.010  34.929   4.576
59782W        W26323   4.255  24.062  14.274
59783W        W26324   0.841  13.550   3.183
59784W        W26325  43.306  32.425  13.325
59785W        W26326  36.268  13.728   0.838
59786W        W26327  31.430  25.760   0.905
59787W        W26328   0.272  42.468   3.554
59788W        W26329  37.661  30.173  11.221
59789W        W26330   2.100   0.101  14.327
59790W        W26331  43.938  39.946   0.439
59791W        W26332  27.022  19.656  13.640
59792W        W26333   3.905   7.281   2.016
59793W        W26334  29.829  22.288  12.873
59794W        W26335  24.034  30.577  11.850
59795W        W26336  28.958  41.134   0.468
59796W        W26337  39.219  22.046   1.077
59797W        W26338   5.254  17.930  14.948
59798W        W26339  17.102  40.080  13.928
59799W        W26340  42.625  10.130   2.685
59800W        W26341  31.807   6.743   2.316
59801W        W26342  28.028  28.679   4.962
59802W        W26343  40.588  38.130  11.094
59803W        W26344  20.085  18.176  12.486
59804W        W26345   6.243  23.966   3.666
59805W        W26346  35.441  20.365   3.245
59806W        W26347  44.866  11.737   4.537
59807W        W26348  17.236  27.006   1.222
59808W        W26349  22.989  40.049  13.862
59809W        W26350  38.142  35.285  11.226
59810W        W26351  32.126  43.540  11.185
59811W        W26352  28.984  31.377   1.705
59812W        W26353  32.902   1.714   2.106
59813W        W26354  27.782  35.031   1.851
59814W        W26355  24.001  38.173   2.923
59815W        W26356  44.089  41.920   1.244
59816W        W26357  12.358  20.605   0.491
59817W        W26358  35.103  28.525   3.626
59818W        W26359  33.504  24.017  14.882
59819W        W26360  27.979   4.303   4.646
59820W        W26361  24.928  32.710   1.500
59821W        W26362  17.307   1.292   0.317
59822W        W26363   5.987  31.508  13.738
59823W        W26364  10.934  28.691   4.625
59824W        W26365  16.322  13.258   2.627
59825W        W26366   7.802  32.033   3.569
59826W        W26367  16.335  42.567  11.571
59827W        W26368  37.115   3.162   4.128
59828W        W26369  19.096  12.100  14.539
59829W        W26370   9.141   7.320  13.284
59830W        W26371   2.296  23.823  13.812
59831W        W26372  37.353  43.774   4.906
59832W        W26373  15.936  32.110  13.282
59833W        W26374  21.776  43.835   0.350
59834W        W26375  13.472  44.899   1.258
59835W        W26376  14.607  18.696   2.910
59836W        W26377  32.616  18.400  12.232
59837W        W26378  42.949   7.141   0.893
59838W        W26379  34.927  14.823  13.009
59839W        W26380  21.534  13.324  11.098
59840W        W26381  27.608  22.493  10.669
59841W        W26382  22.606  25.263  10.115
59842W        W26383  23.325  42.113  12.094
59843W        W26384  27.426  27.132  14.013
59844W        W26385  36.299   0.557  14.599
59845W        W26386  41.043  21.005   1.770
59846W        W26387  27.030  24.178  14.414
59847W        W26388  27.370   6.411   0.974
59848W        W26389   2.293  16.584   2.854
59849W        W26390  21.011  16.532   0.881
59850W        W26391  17.795  43.487  13.913
59851W        W26392  15.304   0.379  10.948
59852W        W26393  12.922  30.893  12.858
59853W        W26394  23.283   3.802  11.870
59854W        W26395  39.736   9.480   0.070
59855W        W26396  15.825  24.753  14.530
59856W        W26397  29.411  41.085   0.717
59857W        W26398   1.380  19.301  12.350
59858W        W26399   6.705  31.090  12.078
59859W        W26400  32.619  38.344  13.085
59860W        W26401   4.685  31.106  13.104
59861W        W26402  32.585   6.773  14.394
59862W        W26403  38.529   0.330   4.118
59863W        W26404  25.031  21.436   2.874
59864W        W26405  35.053  39.264   0.884
59865W        W26406  21.664  14.670  14.357
59866W        W26407  30.866  30.118   1.211
59867W        W26408  27.655  30.647  12.389
59868W        W26409  21.095  32.022   2.696
59869W        W26410  29.484  22.013  10.732
59870W        W26411  38.961  13.177   0.025
59871W        W26412  33.580   6.859  13.404
59872W        W26413  21.363  39.500   0.042
59873W        W26414  36.792  14.858  12.137
59874W        W26415  43.138  32.929   3.745
59875W        W26416  14.141   0.817   2.647
59876W        W26417  22.920  29.411   4.078
59877W        W26418  39.452   4.884   0.214
59878W        W26419  16.614  15.720   0.472
59879W        W26420  36.523  16.162   1.360
59880W        W26421  33.682  10.687  13.888
59881W        W26422  41.358  15.234   2.583
59882W        W26423  28.325  32.375  14.858
59883W        W26424  25.650   7.455  12.472
59884W        W26425  28.979  14.854  12.110
59885W        W26426  26.907   3.670  14.799
59886W        W26427  20.180  43.562  10.790
59887W        W26428  31.667  18.399  12.593
59888W        W26429  32.947  40.418   2.898
59889W        W26430   1.722  17.041  13.815
59890W        W26431  14.813  40.544  10.656
59891W        W26432  26.524  39.734   2.822
59892W        W26433  40.699  13.802  10.566
59893W        W26434  24.451  33.570  13.384
59894W        W26435  40.698  13.385   0.814
59895W        W26436  30.969  37.103   3.693
59896W        W26437  13.943  35.813  13.501
59897W        W26438  44.961   5.395   4.064
59898W        W26439  35.986  28.486   1.630
59899W        W26440  10.563  23.312   0.346
59900W        W26441  27.555  44.967  12.087
59901W        W26442  18.509  12.041   0.183
59902W        W26443  32.216  27.118   1.330
59903W        W26444  23.547  17.538  13.835
59904W        W26445  23.114  31.154  11.110
59905W        W26446  10.448  14.093  14.550
59906W        W26447  40.748   7.358   2.701
59907W        W26448  26.546   2.804  14.721
59908W        W26449  14.838  10.950   1.888
59909W        W26450  22.189   3.605  12.529
59910W        W26451  20.235  12.255   3.128
59911W        W26452  20.627  21.840  13.552
59912W        W26453  18.613  20.290  11.198
59913W        W26454  12.969   8.744   2.941
59914W        W26455  41.479  21.500   3.832
59915W        W26456  13.599  19.271  14.779
59916W        W26457  22.132  31.049   3.458
59917W        W26458  20.677   7.170  14.409
59918W        W26459  43.027  27.230   3.234
59919W        W26460  20.436  44.863  12.472
59920W        W26461  33.102  32.450   4.175
59921W        W26462  13.234  25.079   0.883
59922W        W26463  12.625   6.709  14.455
59923W        W26464  23.466   8.629   4.227
59924W        W26465  37.376  32.910   0.697
59925W        W26466  30.645   3.798   0.663
59926W        W26467  30.374  24.874  11.449
59927W        W26468   8.355  31.610  13.091
59928W        W26469   3.225  14.396   3.777
59929W        W26470   5.284  27.941   4.144
59930W        W26471   1.906   7.890   1.998
59931W        W26472  19.710  41.870  13.306
59932W        W26473   0.461  18.033   2.015
59933W        W26474  37.399  30.778   4.532
59934W        W26475  13.192  40.115   1.294
59935W        W26476  11.239  22.222  13.929
59936W        W26477  39.960  21.003   2.471
59937W        W26478  23.041   5.542   1.316
59938W        W26479   7.543  41.903  10.679
59939W        W26480  28.242   3.709   3.177
59940W        W26481  21.021  27.073  12.529
59941W        W26482  14.251   0.759  12.990
59942W        W26483  14.663  32.971   0.421
59943W        W26484  13.795   1.807  13.925
59944W        W26485  27.815  34.317  13.736
59945W        W26486  34.956  42.038  12.031
59946W        W26487  32.509   6.300  11.610
59947W        W26488  15.892  18.075  13.073
59948W        W26489   0.700   4.956   1.367
59949W        W26490  12.630  15.618  11.821
59950W        W26491  37.261  37.655   3.096
59951W        W26492  21.420   6.586   2.071
59952W        W26493   8.021   6.569   0.345
59953W        W26494  18.553   7.250  12.566
59954W        W26495  42.708  16.081   0.722
59955W        W26496  30.524  10.308  12.505
59956W        W26497  21.737  31.096  12.518
59957W        W26498   4.324   2.567  14.846
59958W        W26499  35.779  44.424   2.292
59959W        W26500   9.888  15.157   1.270
59960W        W26501  23.170  17.149   4.814
59961W        W26502  13.322   0.863  10.713
59962W        W26503   5.329  10.847  13.490
59963W        W26504   5.296  13.435  12.817
59964W        W26505  28.432  39.965   4.803
59965W        W26506  11.244  39.066   0.822
59966W        W26507  21.982  20.637   2.334
59967W        W26508  33.573  29.495   1.667
59968W        W26509   8.664  14.590   2.626
59969W        W26510  19.610  26.909  14.458
59970W        W26511  24.979  41.100  14.491
59971W        W26512  38.922  39.863  13.882
59972W        W26513  37.072  39.025   5.074
59973W        W26514  37.909  35.599   2.461
59974W        W26515   6.220   6.672   0.966
59975W        W26516  25.530  10.288   0.890
59976W        W26517  32.578  14.665  12.156
59977W        W26518  13.251   6.889   0.056
59978W        W26519  12.337  27.477   3.319
59979W        W26520  37.081  20.669   3.251
59980W        W26521  22.971  33.816   2.860
59981W        W26522  11.902   4.817   4.514
59982W        W26523  21.310  15.012   3.870
59983W        W26524   5.247  30.544  12.251
59984W        W26525  22.428  17.124  13.843
59985W        W26526   5.365  42.395   1.350
59986W        W26527  33.485  44.999   2.343
59987W        W26528   7.756  16.193   4.740
59988W        W26529   1.235  24.746   1.487
59989W        W26530   2.493  15.059   4.034
59990W        W26531  12.382   8.778  14.919
59991W        W26532  22.217  19.458   1.065
59992W        W26533  44.385  19.231  13.557
59993W        W26534  41.552   4.342  13.049
59994W        W26535  30.543  25.056   1.636
59995W        W26536  30.701  36.877  13.774
59996W        W26537  27.561   0.755   3.849
59997W        W26538  43.802  21.016  12.455
59998W        W26539  18.729  14.050  12.090
59999W        W26540   6.150  38.757  13.569
60000W        W26541  38.567  22.118  11.439
60001W        W26542  28.673  40.633   2.198
60002W        W26543  43.518  16.681  14.771
60003W        W26544  17.161   2.957  13.874
60004W        W26545  16.753   2.462   0.247
60005W        W26546   0.909   1.424   3.154
60006W        W26547  19.202  28.986   3.384
60007W        W26548  34.540  27.010  13.120
60008W        W26549   1.850  23.175   2.634
60009W        W26550   7.447  20.790   3.066
60010W        W26551  39.825  27.338  10.786
60011W        W26552  13.635  12.346  10.879
60012W        W26553   8.375   1.019   1.279
60013W        W26554   4.340  33.019  11.726
60014W        W26555  11.300   0.846  14.256
60015W        W26556  18.649  16.746  10.483
60016W        W26557  37.096  41.509  14.962
60017W        W26558   2.712  24.862   0.119
60018W        W26559  43.336   5.830   4.896
60019W        W26560   8.738   7.372  14.431
60020W        W26561  15.269  33.278   4.040
60021W        W26562  19.326  17.579  11.451
60022W        W26563  18.262  26.582  11.447
60023W        W26564  10.312  32.176   1.013
60024W        W26565   8.728  17.464  13.212
60025W        W26566  20.350   4.667   0.125
60026W        W26567  22.701  35.118   3.331
60027W        W26568   0.977  33.413  14.442
60028W        W26569  12.464  44.859   0.003
60029W        W26570  11.084   8.610  14.535
60030W        W26571  30.280  39.913   3.782
60031W        W26572  40.531  18.636   2.591
60032W        W26573  41.964  17.504  12.970
60033W        W26574  21.799  14.336  12.081
60034W        W26575   9.423  11.217   2.676
60035W        W26576  33.610  38.009  11.038
60036W        W26577  10.421  22.328   1.760
60037W        W26578   3.524  28.511   2.894
60038W        W26579  37.387  37.030   1.675
60039W        W26580  15.662   8.255  11.571
60040W        W26581  34.137  13.868   5.651
60041W        W26582   5.259  14.773   2.067
60042W        W26583  21.719   8.185  11.516
60043W        W26584   3.226   8.812  11.928
60044W        W26585  21.758  12.317  12.979
60045W        W26586  14.849  26.881  10.355
60046W        W26587  16.841  37.980  12.506
60047W        W26588  24.984  25.116   1.898
60048W        W26589  25.720  26.120  10.697
60049W        W26590  30.847  10.321  14.795
60050W        W26591  16.553   0.225   2.701
60051W        W26592  37.789  38.413   2.714
60052W        W26593  43.838  29.278   4.576
60053W        W26594  39.537  43.728   3.174
60054W        W26595   8.226   9.812  13.722
60055W        W26596   5.654  14.245   4.043
60056W        W26597  11.882   4.404   2.783
60057W        W26598  13.996  25.080  14.201
60058W        W26599  25.253  27.199  12.884
60059W        W26600  11.089  37.867   0.368
60060W        W26601   0.216   1.831   0.674
60061W        W26602   3.896  40.727   4.053
60062W        W26603  44.760  36.340  14.340
60063W        W26604   5.014  40.375  11.910
60064W        W26605   0.690   3.625   3.813
60065W        W26606   0.272   3.812   1.389
60066W        W26607   8.159  16.223   1.958
60067W        W26608  12.342  37.481  12.882
60068W        W26609  26.939   8.872  12.509
60069W        W26610  32.559  30.399   2.638
60070W        W26611  33.450  39.495   2.662
60071W        W26612  16.099   5.306   0.092
60072W        W26613   3.041  39.230  13.829
60073W        W26614   3.815  17.621   4.075
60074W        W26615  32.634  10.092  12.201
60075W        W26616  16.859  35.459  14.738
60076W        W26617  11.916  11.626   4.505
60077W        W26618  38.001   7.200   2.252
60078W        W26619  35.857  21.321  14.370
60079W        W26620  41.337  16.571   0.492
60080W        W26621   7.217  20.246   2.216
60081W        W26622  28.916  21.244   4.114
60082W        W26623   6.368  36.339  10.577
60083W        W26624  24.906  24.201   4.067
60084W        W26625  20.686  40.530   3.809
60085W        W26626  31.958   0.704   0.656
60086W        W26627   0.207  26.444  11.168
60087W        W26628  23.897  11.831   0.717
60088W        W26629  43.371   2.890  14.865
60089W        W26630  35.348  19.612  14.224
60090W        W26631  33.092  12.177   3.290
60091W        W26632  22.568  43.149  12.556
60092W        W26633  38.265  33.386   3.546
60093W        W26634  39.522  41.478  10.645
60094W        W26635   2.748   6.865   4.724
60095W        W26636  20.184  22.006   2.176
60096W        W26637   2.557   6.899  12.958
60097W        W26638  33.135  20.577   4.669
60098W        W26639  23.699  10.144  11.223
60099W        W26640   8.623  30.222  13.055
60100W        W26641  14.729   0.704  11.537
60101W        W26642  31.169  18.484   1.299
60102W        W26643  25.882  34.837  12.126
60103W        W26644  39.685  18.888   3.583
60104W        W26645  41.638   8.291   3.593
60105W        W26646  33.001   3.293   3.657
60106W        W26647  16.990   7.307   1.355
60107W        W26648  44.081   9.783  13.520
60108W        W26649   3.887   0.278  14.482
60109W        W26650  18.565   3.364   2.556
60110W        W26651  21.779   4.774  13.482
60111W        W26652   1.868   0.097   2.597
60112W        W26653  35.576  14.372  13.266
60113W        W26654  25.651  13.380  14.096
60114W        W26655  18.425  38.301  14.987
60115W        W26656   7.317  39.126   3.542
60116W        W26657  41.544  33.678   1.387
60117W        W26658  10.671  23.590   0.988
60118W        W26659  36.536   8.908  10.620
60119W        W26660  18.751  37.588   3.663
60120W        W26661  29.402  20.800  11.998
60121W        W26662  30.534  16.092   3.824
60122W        W26663   5.919   0.615  11.616
60123W        W26664  33.977   0.418   1.342
60124W        W26665   1.735   7.436  11.873
60125W        W26666  28.008  24.694   0.830
60126W        W26667   1.169  14.774  12.223
60127W        W26668   1.892  12.719   2.332
60128W        W26669  15.599  39.232  14.025
60129W        W26670  37.673  11.452   0.961
60130W        W26671   4.516   6.697  14.044
60131W        W26672  28.694  21.317   1.906
60132W        W26673  32.161   3.571   2.365
60133W        W26674  34.554  36.326   4.677
60134W        W26675  42.725   0.237   2.501
60135W        W26676   4.359   0.833   3.678
60136W        W26677  11.696  41.065  13.814
60137W        W26678  19.032  19.545   2.785
60138W        W26679  35.946  10.574   1.740
60139W        W26680  28.903  26.065   2.653
60140W        W26681   5.793  37.082  10.588
60141W        W26682  43.968  31.988   0.993
60142W        W26683  11.121   0.541  11.108
60143W        W26684  20.146   0.150   0.447
60144W        W26685  15.091   9.132  11.571
60145W        W26686   7.277  35.833   0.436
60146W        W26687  31.948   4.918   2.799
60147W        W26688  18.286  27.152   0.020
60148W        W26689   7.953  12.081  10.275
60149W        W26690  40.414   5.778   0.312
60150W        W26691  11.810  18.127   0.765
60151W        W26692   6.366  21.508   1.255
60152W        W26693  24.919   8.601  11.189
60153W        W26694  40.444   8.250  13.973
60154W        W26695   3.206  15.333  10.825
60155W        W26696  23.593  16.245  14.534
60156W        W26697  17.675  30.117  13.320
60157W        W26698  12.208   4.355  14.511
60158W        W26699  44.301   1.901   2.585
60159W        W26700   8.208  20.066  13.829
60160W        W26701  27.490  42.242   3.561
60161W        W26702  34.631  17.007  11.541
60162W        W26703   5.604  19.745   0.913
60163W        W26704  41.515   3.486  11.090
60164W        W26705  14.271  37.252  13.614
60165W        W26706  12.765  17.458  11.610
60166W        W26707  35.068  10.077  14.425
60167W        W26708   2.749  29.911  13.295
60168W        W26709  30.528  43.417  12.014
60169W        W26710  33.213  29.194   2.769
60170W        W26711  16.354  23.160  13.182
60171W        W26712  25.137   3.152   0.688
60172W        W26713  38.976  43.399  14.556
60173W        W26714  11.308  14.067  14.119
60174W        W26715  11.199  27.779  13.838
60175W        W26716  20.135  38.904  13.824
60176W        W26717  31.242  18.930  10.557
60177W        W26718  12.649  31.658   2.811
60178W        W26719   7.317   2.290   4.575
60179W        W26720  21.004  10.839  12.634
60180W        W26721  23.080  18.204  11.562
60181W        W26722  23.108  30.962  12.703
60182W        W26723  26.722  39.013  10.916
60183W        W26724  12.344   7.822   0.852
60184W        W26725  32.798  27.224   2.647
60185W        W26726  31.414  24.658  10.995
60186W        W26727  26.214  10.182   1.354
60187W        W26728  23.250  41.150  11.079
60188W        W26729  28.316  12.649  14.182
60189W        W26730  32.861  30.089   0.543
60190W        W26731   6.591   5.799   1.436
60191W        W26732  25.471   3.756   1.821
60192W        W26733  34.565  17.796   2.233
60193W        W26734  17.680  13.678  13.086
60194W        W26735  40.436  37.759   4.449
60195W        W26736  30.585   1.499   4.822
60196W        W26737   6.160  15.707  14.512
60197W        W26738  23.740  38.154   4.269
60198W        W26739  39.088  40.233  12.234
60199W        W26740  33.418   8.640  14.457
60200W        W26741  38.109   0.395  14.475
60201W        W26742  16.639   5.682  13.872
60202W        W26743  25.419  10.956   1.801
60203W        W26744  34.795  26.974  14.296
60204W        W26745  20.093  21.983   3.540
60205W        W26746  24.375  27.453   2.404
60206W        W26747  12.079  26.426   0.162
60207W        W26748  41.510  18.686   4.155
60208W        W26749  30.110  12.000   4.136
60209W        W26750   8.900  41.888  12.206
60210W        W26751  44.909  32.958   4.191
60211W        W26752  35.163  15.898  14.361
60212W        W26753  44.760  36.867  13.472
60213W        W26754  41.309  16.531  11.920
60214W        W26755  11.473  11.808   1.769
60215W        W26756  29.697  32.156  12.610
60216W        W26757   3.265  15.352   3.412
60217W        W26758  41.956   3.273   0.301
60218W        W26759  43.854   5.315  13.989
60219W        W26760   3.017   0.463   1.363
60220W        W26761  35.646  39.005   2.487
60221W        W26762   8.954  38.346  14.603
60222W        W26763  33.556  19.043  14.771
60223W        W26764  16.735   2.838  12.190
60224W        W26765  37.528  40.583   4.182
60225W        W26766  37.612  34.533  13.759
60226W        W26767  33.996  41.841  10.656
60227W        W26768  18.523   2.940  12.851
60228W        W26769  11.271  16.319   2.280
60229W        W26770  36.986   3.350  11.959
60230W        W26771  26.592  28.239  10.706
60231W        W26772  12.306  37.915  11.972
60232W        W26773  10.697  18.518   3.295
60233W        W26774  27.857  31.968  10.666
60234W        W26775  21.069  40.818  11.265
60235W        W26776  17.335  40.526   3.660
60236W        W26777  43.869  10.760   2.900
60237W        W26778  27.938  15.816  11.073
60238W        W26779  28.067   5.475   3.178
60239W        W26780   5.401  21.894   2.743
60240W        W26781  43.962  21.741   0.806
60241W        W26782   4.508  14.717   1.322
60242W        W26783  24.997   1.261   4.529
60243W        W26784  14.727  13.208   4.602
60244W        W26785   5.797   6.830   4.722
60245W        W26786  32.319   3.705  13.959
60246W        W26787  26.578  33.483   1.866
60247W        W26788  42.792  13.130  11.031
60248W        W26789  10.075  31.672  13.837
60249W        W26790   3.219  33.049   2.324
60250W        W26791  21.680   0.926   3.711
60251W        W26792  28.326  17.147  11.663
60252W        W26793  30.891  43.387  10.744
60253W        W26794  12.229  11.838   3.694
60254W        W26795  16.797  11.462   0.616
60255W        W26796   4.278   5.951  13.030
60256W        W26797  11.292  24.492   4.515
60257W        W26798  25.581  33.766  13.125
60258W        W26799  10.493  15.370  14.742
60259W        W26800   8.626  28.225   1.270
60260W        W26801   0.733  19.617  13.890
60261W        W26802   9.579  21.302   1.194
60262W        W26803   7.315   7.615   0.112
60263W        W26804  38.327  25.485   2.210
60264W        W26805  25.489  22.225   2.390
60265W        W26806  42.740  26.557  10.691
60266W        W26807  10.383  22.444   3.097
60267W        W26808   0.611  37.762  11.032
60268W        W26809  10.613  28.441  13.493
60269W        W26810   9.053   3.856   4.301
60270W        W26811  39.483   5.919  14.308
60271W        W26812  25.956  18.759  12.358
60272W        W26813   2.201   1.563  12.265
60273W        W26814  44.914  11.128   2.191
60274W        W26815  34.067   0.011   0.321
60275W        W26816  30.613  12.301  14.108
60276W        W26817  38.484   6.135   1.952
60277W        W26818  43.428  11.420  13.928
60278W        W26819  41.904  22.083  13.926
60279W        W26820   3.652  38.833  14.383
60280W        W26821  25.510   2.508   3.508
60281W        W26822  40.995  22.544  13.928
60282W        W26823  34.368  10.913  12.404
60283W        W26824   0.098  26.198  12.962
60284W        W26825  29.494  18.669  11.571
60285W        W26826  43.648  28.390   4.941
60286W        W26827  38.903  26.779   4.047
60287W        W26828  41.050  43.817   0.102
60288W        W26829  17.573  32.964  11.609
60289W        W26830  15.017  10.254   0.931
60290W        W26831  10.090  15.691   1.327
60291W        W26832  42.631  26.334  13.976
60292W        W26833  42.387  23.488   0.934
60293W        W26834  42.995  13.842  14.433
60294W        W26835  20.675  33.329  10.708
60295W        W26836  35.814  25.232   0.044
60296W        W26837   4.788   2.909  13.866
60297W        W26838   7.947   5.896   1.073
60298W        W26839  34.659  15.061  13.596
60299W        W26840  28.142  41.879   4.735
60300W        W26841   6.650  27.308   0.488
60301W        W26842  16.104  16.318   1.802
60302W        W26843  12.761  42.783  11.849
60303W        W26844  28.016  41.416   3.744
60304W        W26845  44.915  29.956   0.145
60305W        W26846  19.135  25.743  14.771
60306W        W26847  44.233  23.967   0.886
60307W        W26848   5.511  31.379  13.093
60308W        W26849  15.055  19.289  12.690
60309W        W26850  27.249  30.624   2.757
60310W        W26851  42.241   0.043   2.722
60311W        W26852  40.585  16.076  11.235
60312W        W26853   4.438  26.170  11.651
60313W        W26854  20.781  20.148   0.693
60314W        W26855  14.835  43.771  12.455
60315W        W26856  33.204  14.262  12.875
60316W        W26857  22.508   8.864  13.578
60317W        W26858   3.082  37.954   1.692
60318W        W26859   8.249  31.128   1.316
60319W        W26860  40.717  39.993  14.983
60320W        W26861   6.309  36.469   4.477
60321W        W26862  40.163   2.632   0.362
60322W        W26863  17.340  31.078  14.331
60323W        W26864  24.645   2.429   3.751
60324W        W26865  27.808  29.975  13.761
60325W        W26866  21.131  18.068  11.690
60326W        W26867  36.608  35.962   0.225
60327W        W26868  36.275  18.692   3.781
60328W        W26869  30.747  21.608   1.839
60329W        W26870  30.136   8.728   2.121
60330W        W26871  16.827  44.513   0.385
60331W        W26872  21.187  42.070  14.025
60332W        W26873   5.442  18.856   4.383
60333W        W26874   3.710  28.475   3.380
60334W        W26875  10.839  28.128   0.560
60335W        W26876  44.925  35.395   1.306
60336W        W26877   6.877   8.404  13.428
60337W        W26878  34.725  32.872   3.862
60338W        W26879  39.430  21.321   4.788
60339W        W26880  11.715  10.134  12.466
60340W        W26881   7.346  31.797  14.864
60341W        W26882  20.952  22.251  10.173
60342W        W26883  31.965  34.277   1.091
60343W        W26884  13.186   2.220   3.393
60344W        W26885  22.780  17.648  14.878
60345W        W26886  37.396   2.711   4.788
60346W        W26887  28.972  44.222  12.418
60347W        W26888  29.242   8.637   3.965
60348W        W26889  35.047  43.763  12.525
60349W        W26890  16.169  14.677  14.013
60350W        W26891  33.803  22.993  13.305
60351W        W26892  12.905  11.520   1.903
60352W        W26893   3.909   6.835  11.133
60353W        W26894  18.294   9.219   0.332
60354W        W26895  27.441  43.020   0.769
60355W        W26896  24.291  34.377  12.558
60356W        W26897  13.134  25.014  11.115
60357W        W26898   4.836  34.810  13.750
60358W        W26899   5.906   8.581   3.925
60359W        W26900   1.312  43.352  11.228
60360W        W26901   8.806   1.223  11.175
60361W        W26902  13.351   7.527   0.746
60362W        W26903  37.689  44.246   4.372
60363W        W26904  35.124  24.275   0.619
60364W        W26905   6.139  29.921  14.354
60365W        W26906   5.122  36.711   1.849
60366W        W26907  19.987  18.174  14.243
60367W        W26908  22.434  16.515  10.267
60368W        W26909  20.175  14.753  11.934
60369W        W26910  16.661  34.409   4.835
60370W        W26911  38.403  30.515   3.367
60371W        W26912  29.154  35.751   0.845
60372W        W26913  13.728  16.801   4.145
60373W        W26914  29.483  35.052  10.836
60374W        W26915   9.363  31.294  10.538
60375W        W26916   1.122  44.441   3.775
60376W        W26917  25.043  21.602  10.956
60377W        W26918  41.056  22.740   2.792
60378W        W26919   8.243  32.449  12.079
60379W        W26920   5.784  36.441   1.143
60380W        W26921  37.411  21.951   1.285
60381W        W26922  38.466   7.173  12.994
60382W        W26923  41.888  26.728  11.252
60383W        W26924  34.528   9.814  10.588
60384W        W26925  14.096  42.506  11.962
60385W        W26926  41.986   0.925   0.822
60386W        W26927  42.248   9.903   2.988
60387W        W26928  30.700  11.354   4.640
60388W        W26929   2.864  15.908   0.837
60389W        W26930  26.753   1.964   3.668
60390W        W26931  29.042  11.668   0.187
60391W        W26932  36.266  43.697   2.721
60392W        W26933  32.275  27.688  11.996
60393W        W26934  14.861  28.387   4.874
60394W        W26935  39.729   2.475   3.203
60395W        W26936  41.095  16.606  13.274
60396W        W26937  35.319   7.540   2.528
60397W        W26938  16.820  40.263   1.669
60398W        W26939  43.107  20.471   2.569
60399W        W26940  36.448  32.797   0.455
60400W        W26941  33.124  28.528  14.336
60401W        W26942  16.151  12.754   1.190
60402W        W26943  16.196  13.527  12.148
60403W        W26944  22.297  22.659   0.377
60404W        W26945   5.742  31.567   2.700
60405W        W26946  29.879  22.251   2.295
60406W        W26947  17.167  27.512   2.212
60407W        W26948  34.653  35.920   1.744
60408W        W26949  11.063  15.028  14.292
60409W        W26950  26.657  12.847  11.865
60410W        W26951  32.787   1.849  12.517
60411W        W26952  40.376  17.254  11.498
60412W        W26953   9.112  28.261  10.373
60413W        W26954  38.315  34.416  11.224
60414W        W26955  12.720  36.289  12.651
60415W        W26956  15.943  10.718  13.944
60416W        W26957  36.987   2.397  14.867
60417W        W26958  26.967  42.853   2.664
60418W        W26959  39.948  13.733  13.350
60419W        W26960   4.343  29.018   2.754
60420W        W26961   9.414   8.148  12.933
60421W        W26962  14.504  16.615   0.134
60422W        W26963  38.606   5.409  11.233
60423W        W26964  17.762  30.428  12.057
60424W        W26965  35.149  42.219   3.681
60425W        W26966   0.314  13.106   4.683
60426W        W26967  21.075  40.176  12.577
60427W        W26968  20.175   5.030  12.092
60428W        W26969   9.113  34.450  11.374
60429W        W26970   3.327   5.301   0.973
60430W        W26971   8.430   0.515   1.398
60431W        W26972  21.259  20.210  13.899
60432W        W26973  27.884  29.966   1.049
60433W        W26974  14.138  41.000   4.064
60434W        W26975   0.068  42.165   1.323
60435W        W26976   7.156   8.691  12.008
60436W        W26977  23.043  41.032  14.874
60437W        W26978   0.056   9.179  10.782
60438W        W26979  36.237  22.551   0.962
60439W        W26980  15.879  42.838  11.594
60440W        W26981  17.846  10.923  12.439
60441W        W26982  37.381  29.573   0.246
60442W        W26983  23.143  25.255  14.273
60443W        W26984   5.249  10.376  12.073
60444W        W26985  40.335  40.807  14.487
60445W        W26986  31.057   3.752   3.339
60446W        W26987   7.161  15.737   3.645
60447W        W26988  42.527  11.510   5.469
60448W        W26989  10.622  44.953  10.427
60449W        W26990  25.304   8.805   4.168
60450W        W26991  29.224  38.399   2.323
60451W        W26992  11.368  14.339  10.416
60452W        W26993   9.344  13.220   4.536
60453W        W26994  33.090   3.150  12.907
60454W        W26995  33.296  22.321  14.408
60455W        W26996  16.794   0.964   1.409
60456W        W26997  17.529  15.254   2.317
60457W        W26998   9.273  21.951  14.433
60458W        W26999   3.247  35.617  13.602
60459W        W27000  20.784  23.811  14.861
60460W        W27001  27.344   2.714  11.944
60461W        W27002  18.198  30.872   9.890
60462W        W27003  22.522  28.507   4.748
60463W        W27004  21.697  22.168  13.007
60464W        W27005   3.421   1.363   0.930
60465W        W27006  25.736  11.790   4.046
60466W        W27007  40.843  12.781   2.241
60467W        W27008   0.054  41.321   0.860
60468W        W27009   8.284  24.206  12.357
60469W        W27010  37.528   7.354  12.393
60470W        W27011  33.211  40.408   3.390
60471W        W27012  42.532  17.272  14.271
60472W        W27013  21.766  30.671   0.799
60473W        W27014  10.863  27.719   2.423
60474W        W27015  18.203  25.780   4.216
60475W        W27016  41.354  35.059   2.878
60476W        W27017  21.206  43.905  13.086
60477W        W27018  32.958  32.830  14.515
60478W        W27019  40.929   7.861   4.014
60479W        W27020   4.748  44.719  14.291
60480W        W27021  33.205  29.786   1.905
60481W        W27022  22.647   1.821  14.977
60482W        W27023  43.475  12.665   0.969
60483W        W27024  36.568  33.672  11.333
60484W        W27025   8.152  13.248   1.028
60485W        W27026  23.392  42.214  11.154
60486W        W27027  43.761  41.990   3.199
60487W        W27028  18.025  11.538  12.049
60488W        W27029  30.546  14.267   3.702
60489W        W27030   8.366  26.323   1.958
60490W        W27031   3.204  17.723  11.136
60491W        W27032   0.868  29.575   0.459
60492W        W27033  39.445  38.983  14.040
60493W        W27034  15.725  29.625   2.148
60494W        W27035   9.158  20.064  11.139
60495W        W27036  34.414  26.098   1.605
60496W        W27037  18.922  14.350  14.725
60497W        W27038  38.453  12.820  14.255
60498W        W27039  11.825   7.093   1.380
60499W        W27040  26.297   0.812  12.464
60500W        W27041  13.853  15.800   0.783
60501W        W27042  16.804  15.344   3.809
60502W        W27043  27.872  24.017   2.908
60503W        W27044  13.409   3.574   0.927
60504W        W27045  11.112  17.817   2.048
60505W        W27046  15.754  22.115   2.194
60506W        W27047  26.135  25.945  12.333
60507W        W27048  26.898  13.210   2.356
60508W        W27049   6.624  29.097  14.612
60509W        W27050  15.867  14.133   1.109
60510W        W27051  23.668  30.915  10.392
60511W        W27052  27.004  24.263   1.921
60512W        W27053  10.639  40.456   2.734
60513W        W27054  38.363  31.371   1.827
60514W        W27055  29.087  23.634   1.703
60515W        W27056  35.914  44.608   2.774
60516W        W27057  42.902  38.981  10.964
60517W        W27058   3.515  15.558   2.376
60518W        W27059  29.501  44.288   3.576
60519W        W27060  28.098  19.223   4.587
60520W        W27061  40.976  20.561   0.494
60521W        W27062  20.871  28.972  10.782
60522W        W27063   6.296   4.005   0.077
60523W        W27064  14.285  39.371   4.709
60524W        W27065  38.791  38.059  10.702
60525W        W27066  25.545  25.234   4.102
60526W        W27067   6.206  41.427  11.939
60527W        W27068  15.323  36.990  13.755
60528W        W27069  12.115  42.306   0.195
60529W        W27070   3.968  24.511   0.442
60530W        W27071  43.778  39.755   2.774
60531W        W27072  21.569   5.970  11.452
60532W        W27073  16.294  30.028   1.030
60533W        W27074  21.561  41.932  11.595
60534W        W27075  29.840   5.732   0.396
60535W        W27076  36.543  28.545  11.028
60536W        W27077  12.482  12.887  12.463
60537W        W27078  33.240   8.145   0.345
60538W        W27079  37.861  44.428  11.158
60539W        W27080   3.208  35.091   4.567
60540W        W27081   2.102  38.789  12.002
60541W        W27082  17.126   8.834   1.654
60542W        W27083  38.487  23.370  12.873
60543W        W27084  25.069  16.687  12.615
60544W        W27085  38.949  16.542   1.402
60545W        W27086  27.413   8.388   4.347
60546W        W27087  15.269  21.294   4.790
60547W        W27088  15.737  22.568  13.498
60548W        W27089  21.772  32.884  14.847
60549W        W27090  35.791  12.291   3.687
60550W        W27091  35.998  40.051   3.220
60551W        W27092   8.530  15.193  14.908
60552W        W27093  20.959  28.944  13.876
60553W        W27094  41.196  31.571  13.430
60554W        W27095  11.237  42.406  13.755
60555W        W27096  21.045  34.351   4.364
60556W        W27097  28.457  27.863  11.138
60557W        W27098  18.481   0.921  11.976
60558W        W27099  43.467   8.241  11.588
60559W        W27100  10.900  21.260  11.606
60560W        W27101  34.418   0.253   5.396
60561W        W27102   0.850  17.781   4.162
60562W        W27103  32.489  33.919   1.418
60563W        W27104  27.082  16.049   2.305
60564W        W27105  19.994  28.859  13.537
60565W        W27106  10.321  18.797   3.102
60566W        W27107  21.490  20.057  14.325
60567W        W27108  21.617  11.963   5.504
60568W        W27109  38.824   7.951   1.704
60569W        W27110  13.332  23.173   0.878
60570W        W27111  12.398   2.430  10.665
60571W        W27112   9.808  36.475   0.971
60572W        W27113  19.729  18.937  13.468
60573W        W27114   6.963   7.741   4.052
60574W        W27115  14.840   7.658  11.537
60575W        W27116   4.758   2.494   2.394
60576W        W27117   3.868  18.330   2.728
60577W        W27118  34.061  30.999   2.886
60578W        W27119  44.778  36.636  13.001
60579W        W27120  41.489  19.353   2.322
60580W        W27121  29.426  21.937  13.955
60581W        W27122  29.517  27.856   0.276
60582W        W27123  18.436   5.224  13.330
60583W        W27124  42.285  23.590  10.622
60584W        W27125  32.454  29.662   3.124
60585W        W27126  29.439  10.337  12.548
60586W        W27127  43.872  34.032   3.315
60587W        W27128   9.833  19.981  13.291
60588W        W27129   3.063  26.724  11.221
60589W        W27130  44.109  12.054   4.635
60590W        W27131  12.895   4.974  12.333
60591W        W27132  30.488  28.284  12.891
60592W        W27133  29.287   2.354   2.362
60593W        W27134   1.291  13.650  13.603
60594W        W27135   7.159  33.405  13.444
60595W        W27136  17.025  18.225   1.315
60596W        W27137  22.736   8.756  10.530
60597W        W27138  14.776  22.490   2.234
60598W        W27139  38.464  24.601   2.371
60599W        W27140  35.926  15.684   0.150
60600W        W27141   4.400  30.946   5.419
60601W        W27142   3.025   8.285  12.536
60602W        W27143  26.056   2.362   1.022
60603W        W27144  41.299  21.344   9.984
60604W        W27145  16.358  33.814   5.482
60605W        W27146  28.464  42.664  11.255
60606W        W27147   0.310  17.202  14.971
60607W        W27148  19.178   6.140   2.156
60608W        W27149  17.188  37.011  11.585
60609W        W27150   5.301   8.096   0.844
60610W        W27151  22.472  17.378   1.893
60611W        W27152  42.437  44.213  14.679
60612W        W27153  15.555  17.019   4.563
60613W        W27154  36.205  22.637  14.353
60614W        W27155  21.522  15.652   3.914
60615W        W27156  20.882  11.186  10.312
60616W        W27157  17.816  15.299   3.574
60617W        W27158  31.325  23.560   1.276
60618W        W27159  17.347  10.644   0.224
60619W        W27160  36.535   9.632   4.659
60620W        W27161  27.749  31.168  12.530
60621W        W27162   8.009  44.300   0.836
60622W        W27163  40.447  43.881  12.124
60623W        W27164  35.803  15.691   5.071
60624W        W27165   3.879  20.845  13.357
60625W        W27166  11.142  16.388  12.659
60626W        W27167   2.449  20.481  12.900
60627W        W27168   0.744   6.282   0.454
60628W        W27169  28.493  31.730  13.404
60629W        W27170  38.045  20.767  12.472
60630W        W27171  29.034  24.213  14.438
60631W        W27172  23.934  33.956  11.203
60632W        W27173  24.261  12.202   1.398
60633W        W27174  42.971  15.977   3.598
60634W        W27175  29.516  43.386  11.448
60635W        W27176   5.258  37.732   1.784
60636W        W27177  12.731  29.345  14.445
60637W        W27178  23.967  19.600  13.711
60638W        W27179   3.817  20.494   0.324
60639W        W27180  34.629  26.999  11.399
60640W        W27181   4.853  28.459   3.479
60641W        W27182  18.240  24.235  14.440
60642W        W27183  24.868  29.473   3.311
60643W        W27184  31.946   6.202   1.429
60644W        W27185  13.245   2.014  13.159
60645W        W27186  32.886  11.141   4.181
60646W        W27187  41.140   1.430  14.095
60647W        W27188  23.221  41.935   1.687
60648W        W27189  12.813  37.506   0.519
60649W        W27190  29.513  21.796  11.697
60650W        W27191  15.723  28.709   0.834
60651W        W27192  44.991  34.704   0.913
60652W        W27193  32.971   1.949   3.048
60653W        W27194  15.822  35.801  13.172
60654W        W27195  39.535  17.311  12.946
60655W        W27196  11.057  15.304   2.624
60656W        W27197   7.145   2.301   3.078
60657W        W27198   4.797   8.043  12.147
60658W        W27199  41.630  22.212  14.366
60659W        W27200  17.076   0.871   4.271
60660W        W27201  34.301  11.812   2.041
60661W        W27202  36.725   0.159   2.893
60662W        W27203   0.808   5.698  12.118
60663W        W27204  37.748  14.341   0.304
60664W        W27205  15.769  27.430  12.899
60665W        W27206  19.116  36.630   2.122
60666W        W27207  28.480  23.093   1.512
60667W        W27208   5.879  11.267  12.805
60668W        W27209  29.449  33.951   3.295
60669W        W27210  19.464  20.559  12.938
60670W        W27211   5.958  25.628  11.272
60671W        W27212  41.472  43.447   3.908
60672W        W27213  27.286   8.665   0.808
60673W        W27214   5.993  10.124   3.175
60674W        W27215  38.006   1.285   3.065
60675W        W27216  31.065  42.457  14.955
60676W        W27217  43.232  31.945   3.037
60677W        W27218   8.311   0.509  14.800
60678W        W27219   0.455  38.450   4.262
60679W        W27220  24.398   6.146  11.104
60680W        W27221  31.935   5.712   2.367
60681W        W27222  41.003  24.247  14.821
60682W        W27223  15.538  38.079   3.116
60683W        W27224  16.677  26.674   1.930
60684W        W27225  19.798  24.188   0.519
60685W        W27226  14.066   9.867  11.094
60686W        W27227  44.234  27.159  13.965
60687W        W27228  23.062  16.727  13.996
60688W        W27229  37.208  23.555   3.886
60689W        W27230   2.969  43.248  11.430
60690W        W27231   1.638  16.726  11.118
60691W        W27232  15.522  33.181  10.711
60692W        W27233  33.911  21.458   2.388
60693W        W27234  36.332  23.211   1.353
60694W        W27235   1.114   4.801   4.151
60695W        W27236  23.123  25.427  10.676
60696W        W27237  35.642  37.200  11.059
60697W        W27238  38.727  12.715   3.127
60698W        W27239   5.302  14.603  13.325
60699W        W27240  26.713  11.708  12.231
60700W        W27241   9.677  18.074  11.038
60701W        W27242  19.689  26.632   1.917
60702W        W27243  32.860  14.273   3.322
60703W        W27244  34.486  17.401   0.041
60704W        W27245  33.524  44.199   2.845
60705W        W27246  36.965  16.592  12.060
60706W        W27247  31.025  11.862  11.027
60707W        W27248  41.141  22.521  11.972
60708W        W27249  29.634  42.359   3.770
60709W        W27250  27.186  13.344  11.122
60710W        W27251  10.137  13.683   0.937
60711W        W27252  23.943  10.889   1.594
60712W        W27253  26.606  11.067  10.637
60713W        W27254  15.712  27.146  11.856
60714W        W27255  15.248  30.430   4.704
60715W        W27256  14.708  31.404  12.393
60716W        W27257  42.042   9.090   3.122
60717W        W27258  25.129  39.037  11.681
60718W        W27259  17.620  24.485   1.263
60719W        W27260  35.259  10.862   1.325
60720W        W27261  14.095   5.032   2.327
60721W        W27262  16.190  27.945   1.757
60722W        W27263  34.123  16.094   3.308
60723W        W27264  12.248  20.959  14.522
60724W        W27265  40.331  38.764  13.118
60725W        W27266  11.177   5.263  13.484
60726W        W27267  43.140  17.649   4.135
60727W        W27268  10.168   5.449   1.340
60728W        W27269  14.232   6.874   2.536
60729W        W27270  35.237   5.639  11.589
60730W        W27271  12.847  30.109   1.372
60731W        W27272   5.964   4.671   3.448
60732W        W27273  29.451  30.801  12.427
60733W        W27274  16.122  38.415   4.652
60734W        W27275  30.597  28.051   1.816
60735W        W27276  11.678  10.328   1.890
60736W        W27277   7.266  41.582   0.829
60737W        W27278  15.084  39.644   3.150
60738W        W27279  38.747  29.415   5.163
60739W        W27280  30.675  39.307   2.191
60740W        W27281  37.992  16.823  14.920
60741W        W27282  13.812  29.192   1.469
60742W        W27283  19.638   3.947  10.545
60743W        W27284  37.327  34.953   0.027
60744W        W27285  13.736   0.688  12.882
60745W        W27286  39.068  21.567   0.182
60746W        W27287  11.841  23.711   1.823
60747W        W27288  36.370  30.601   3.844
60748W        W27289   8.923  39.223  12.026
60749W        W27290  36.930   5.057   3.546
60750W        W27291  27.228  21.661   2.999
60751W        W27292  30.860  22.024  14.898
60752W        W27293  27.149   1.928   1.286
60753W        W27294  44.683  39.711  13.894
60754W        W27295   3.150  42.770   3.823
60755W        W27296  27.102   5.520   3.587
60756W        W27297  10.182  17.478   1.733
60757W        W27298  33.569  21.995  10.226
60758W        W27299  39.196  31.885   4.408
60759W        W27300   5.225  12.980   4.831
60760W        W27301  39.962  24.456  13.113
60761W        W27302  15.491  32.419  13.814
60762W        W27303  23.019  27.134   1.792
60763W        W27304  32.361  19.063   3.196
60764W        W27305  37.855  19.234  11.600
60765W        W27306   7.119  33.952   0.336
60766W        W27307   1.435  15.700  12.658
60767W        W27308  26.608  29.184  14.255
60768W        W27309   3.936   1.838   0.327
60769W        W27310  17.592  12.811   0.987
60770W        W27311  30.462   3.414   0.360
60771W        W27312  21.628  10.047   0.535
60772W        W27313  35.124  15.187  13.828
60773W        W27314  38.773   2.811   3.614
60774W        W27315  23.236  38.469   4.101
60775W        W27316  41.204  44.424  11.315
60776W        W27317  18.820  30.169  12.044
60777W        W27318  28.560  22.369   4.798
60778W        W27319   7.470  37.212   5.230
60779W        W27320  24.674  14.980  13.648
60780W        W27321   5.145  10.126   1.358
60781W        W27322  40.994  29.951   1.364
60782W        W27323  25.167  35.291  12.275
60783W        W27324  27.134  22.137   3.241
60784W        W27325  16.946  23.702  14.448
60785W        W27326  12.073   5.761  12.591
60786W        W27327   5.913   6.337   1.540
60787W        W27328  15.575   6.756   3.634
60788W        W27329   2.929  22.961   2.772
60789W        W27330  15.842  32.147  14.645
60790W        W27331  21.153  23.772   4.101
60791W        W27332  21.318   4.285  13.897
60792W        W27333  36.665  15.713  12.011
60793W        W27334  15.594  44.539  11.154
60794W        W27335   0.762  18.173  10.826
60795W        W27336  44.956  34.181  10.609
60796W        W27337   9.157  26.011  14.362
60797W        W27338  30.128  26.116  13.956
60798W        W27339  44.383  15.045   5.340
60799W        W27340  44.731   5.666  12.557
60800W        W27341  16.272   6.004   3.831
60801W        W27342   4.918  29.844   3.061
60802W        W27343  23.231   9.318   0.435
60803W        W27344  39.437   9.205  10.946
60804W        W27345  11.853  22.282   3.325
60805W        W27346  42.233   6.432   0.611
60806W        W27347  32.649   8.919   4.132
60807W        W27348  17.605  15.706  13.773
60808W        W27349  44.269  19.858   1.316
60809W        W27350  20.515  12.094  11.283
60810W        W27351  11.678  37.190  12.130
60811W        W27352  20.504  26.011  13.992
60812W        W27353  24.212  26.583   3.873
60813W        W27354  16.263   9.873  11.578
60814W        W27355  17.678  18.615  14.539
60815W        W27356  44.435  42.434  14.206
60816W        W27357  10.737  21.774  11.921
60817W        W27358  16.640  19.321  14.791
60818W        W27359   2.463  38.949  12.904
60819W        W27360  22.251  40.469   2.436
60820W        W27361   8.374  39.241   2.274
60821W        W27362  12.832   6.948   0.361
60822W        W27363  36.625  41.667  14.818
60823W        W27364  11.674   1.180   1.352
60824W        W27365  43.606  17.412   2.788
60825W        W27366  15.028  14.159  13.948
60826W        W27367  20.837   8.206  14.956
60827W        W27368  17.735  32.546  11.858
60828W        W27369  32.637  20.582  10.708
60829W        W27370  29.497   2.484   1.039
60830W        W27371  20.671  41.201  12.607
60831W        W27372  40.606   0.837   0.260
60832W        W27373  20.702   5.767   9.810
60833W        W27374  27.761  41.277   2.100
60834W        W27375  40.068  22.799   2.826
60835W        W27376  34.610  33.179   3.468
60836W        W27377  31.884  22.096  14.455
60837W        W27378   6.930  15.040  12.348
60838W        W27379  40.429  23.068  10.666
60839W        W27380  37.504  24.545   0.653
60840W        W27381  14.343  41.830   1.873
60841W        W27382  23.128  30.672  10.904
60842W        W27383  19.705  16.897   4.506
60843W        W27384  35.451  10.174  13.836
60844W        W27385  22.446  41.569  14.031
60845W        W27386  16.659  24.558  13.062
60846W        W27387  14.705  27.259   1.247
60847W        W27388  36.491  28.637   3.788
60848W        W27389   7.634  10.172  11.166
60849W        W27390   7.030  25.295  12.437
60850W        W27391  13.097   0.890   2.253
60851W        W27392  44.402  14.825  11.953
60852W        W27393  38.537  24.192  13.831
60853W        W27394  31.972  10.898  14.403
60854W        W27395  16.236  12.087  14.395
60855W        W27396  34.654  40.948   0.385
60856W        W27397  13.164   7.504   2.239
60857W        W27398  37.843  24.974   4.265
60858W        W27399  22.474  26.007  11.240
60859W        W27400  40.264  36.160  13.896
60860W        W27401  32.576   7.760  12.830
60861W        W27402  42.975  31.918   0.801
60862W        W27403  15.381   2.483   4.638
60863W        W27404  31.303  17.399   4.130
60864W        W27405  16.841  29.092   2.749
60865W        W27406  38.255  22.657  13.406
60866W        W27407  29.204  11.202   3.773
60867W        W27408  29.171  38.940   0.475
60868W        W27409  19.292  18.698   5.083
60869W        W27410  10.229  34.920   4.760
60870W        W27411  11.868  35.331   2.894
60871W        W27412   5.478   0.699   2.854
60872W        W27413  41.348  33.640  13.515
60873W        W27414  42.516  36.524  14.011
60874W        W27415  42.712  23.291  13.352
60875W        W27416  23.864   5.400   3.897
60876W        W27417  34.938   4.778  11.518
60877W        W27418  35.098  44.701   0.351
60878W        W27419  37.431  28.879  12.586
60879W        W27420  18.157   5.483   3.729
60880W        W27421  27.303  27.973  13.997
60881W        W27422  32.048  43.366  12.141
60882W        W27423  18.586   7.700   1.196
60883W        W27424  18.750   2.326  11.216
60884W        W27425  14.611  23.786   2.843
60885W        W27426   9.295   6.647  10.687
60886W        W27427   6.892  13.631  11.714
60887W        W27428  10.693  41.522   1.820
60888W        W27429  29.607   3.918  10.673
60889W        W27430  32.922   8.887   3.656
60890W        W27431  38.542  31.983   2.303
60891W        W27432  42.390  35.557   1.867
60892W        W27433  40.554  31.508   1.743
60893W        W27434  14.625  30.578   0.317
60894W        W27435  14.752  44.738   4.585
60895W        W27436  36.397  35.000   3.165
60896W        W27437  35.539   9.226   2.833
60897W        W27438  22.274  27.008  11.129
60898W        W27439  34.518   0.818   0.697
60899W        W27440  14.813   3.947   2.862
60900W        W27441  11.509  13.335  11.276
60901W        W27442  29.429  20.932  13.818
60902W        W27443  22.920  28.624   2.535
60903W        W27444  15.202  37.338   2.461
60904W        W27445  33.862  14.486   1.229
60905W        W27446  37.107  14.796  11.228
60906W        W27447   2.747  41.655   2.520
60907W        W27448  39.931   3.780   3.421
60908W        W27449  27.588  37.385  14.290
60909W        W27450  10.338  36.190  11.105
60910W        W27451  42.322  19.049  13.353
60911W        W27452  17.309  15.347   5.064
60912W        W27453   8.627   4.896  13.904
60913W        W27454  19.050  28.177   0.312
60914W        W27455   2.513  12.843  12.075
60915W        W27456   5.287  42.487   2.398
60916W        W27457  10.515   1.982   4.235
60917W        W27458  33.590  27.737  14.423
60918W        W27459  33.469  15.132  13.329
60919W        W27460  32.551  33.370   4.054
60920W        W27461  44.369  16.223  14.014
60921W        W27462  40.106  11.404  13.173
60922W        W27463  30.641  28.865   3.050
60923W        W27464   0.783  31.578  13.043
60924W        W27465  38.957  36.545   4.503
60925W        W27466  31.407  31.921  10.651
60926W        W27467  15.625   8.824  11.945
60927W        W27468  27.468  23.313   4.496
60928W        W27469  20.079  23.312  12.789
60929W        W27470   2.751  26.831  12.119
60930W        W27471   0.734   6.302   1.905
60931W        W27472  16.290  36.402  14.466
60932W        W27473  43.759  25.952   3.808
60933W        W27474  38.434  26.148  14.865
60934W        W27475  18.265  34.896  10.739
60935W        W27476   7.940   2.385  14.277
60936W        W27477  24.074  12.295   0.905
60937W        W27478  25.247  14.233   1.234
60938W        W27479  27.428  15.486   1.178
60939W        W27480  14.633   9.615  12.967
60940W        W27481  12.075  39.074   0.197
60941W        W27482   8.282   5.729   0.720
60942W        W27483  28.655  31.161   1.177
60943W        W27484  36.632   5.187   0.439
60944W        W27485  23.824  22.359  14.113
60945W        W27486  42.594  14.567  10.034
60946W        W27487  32.529  16.593   4.342
60947W        W27488  36.975  38.536  11.995
60948W        W27489  28.186  25.356  14.244
60949W        W27490  30.515  40.844  11.396
60950W        W27491   5.685  37.377   2.146
60951W        W27492   5.750  41.668   5.052
60952W        W27493  38.387   7.006  11.669
60953W        W27494   5.981   4.940   3.868
60954W        W27495  32.988  27.697  12.673
60955W        W27496  23.360  11.538  11.464
60956W        W27497  28.405  18.026   2.163
60957W        W27498   0.813   0.282  13.061
60958W        W27499  43.977   2.897  10.637
60959W        W27500   5.612  23.014   4.287
60960W        W27501   4.290  39.737  13.905
60961W        W27502  23.315  15.801   3.140
60962W        W27503  21.073  27.174  10.689
60963W        W27504  20.134  29.649  11.950
60964W        W27505  19.221   0.514  14.432
60965W        W27506  26.055  41.763   1.863
60966W        W27507  44.689  21.640   3.029
60967W        W27508  31.542  32.030  13.799
60968W        W27509  16.169  29.849  11.574
60969W        W27510  44.910  42.936   2.395
60970W        W27511  40.390  26.065  12.973
60971W        W27512  21.582  24.608   2.335
60972W        W27513  37.977  34.945  10.760
60973W        W27514   7.895   3.665  14.964
60974W        W27515  24.804  26.094  12.880
60975W        W27516  43.753  35.363   1.856
60976W        W27517   8.250  12.734   4.109
60977W        W27518   4.039  18.115  13.393
60978W        W27519  13.179  39.657   3.217
60979W        W27520  27.295  19.513   2.027
60980W        W27521  22.985  20.743   2.236
60981W        W27522   8.197  41.010   9.928
60982W        W27523  12.261  32.097  11.652
60983W        W27524  20.252   6.279  13.420
60984W        W27525  41.490  21.694  13.641
60985W        W27526  34.205  10.388  12.877
60986W        W27527   0.955  11.730   0.217
60987W        W27528   7.638  42.476  12.402
60988W        W27529  22.181  30.977   2.431
60989W        W27530   9.315  33.023  11.637
60990W        W27531  20.362   6.183   2.250
60991W        W27532  26.538   4.739   1.675
60992W        W27533  24.190  42.518  12.186
60993W        W27534   2.999  22.388   3.678
60994W        W27535   9.814  44.769  13.876
60995W        W27536  26.068  18.782   3.754
60996W        W27537  15.328  14.239   2.213
60997W        W27538  19.464   1.588  10.336
60998W        W27539   2.014   0.529   3.203
60999W        W27540   2.765  29.599  11.550
61000W        W27541  31.639  42.772  10.560
61001W        W27542  29.862  12.808  14.190
61002W        W27543   4.979  27.715  13.081
61003W        W27544  36.050  23.917  11.053
61004W        W27545  18.583  19.966  14.454
61005W        W27546  36.587  12.323  11.548
61006W        W27547  10.772   0.958   3.227
61007W        W27548  32.584   5.346   0.481
61008W        W27549  33.195  42.802   4.761
61009W        W27550   9.553  26.949  13.800
61010W        W27551  26.133  28.462  12.483
61011W        W27552  37.881   3.226   1.276
61012W        W27553   5.807  27.095   0.950
61013W        W27554  39.832   4.228  14.746
61014W        W27555  39.367  29.111  10.900
61015W        W27556  15.089  34.726  12.620
61016W        W27557   4.466  43.073   4.215
61017W        W27558  36.296  22.997   2.632
61018W        W27559  39.128  21.639  14.192
61019W        W27560  39.622  25.475   1.646
61020W        W27561  42.083  26.419   1.656
61021W        W27562  12.901  16.773  11.923
61022W        W27563  23.601  36.145  11.985
61023W        W27564  40.902  16.647   0.863
61024W        W27565   0.337  33.045   3.914
61025W        W27566  32.139  37.028  14.691
61026W        W27567  17.106   1.769   0.414
61027W        W27568   6.355  33.988  13.507
61028W        W27569  14.687  40.461  14.517
61029W        W27570  30.698  44.462   1.737
61030W        W27571  34.871  10.795   3.043
61031W        W27572  41.316  13.313  12.007
61032W        W27573  24.845  15.578  14.405
61033W        W27574  17.285  44.535  10.463
61034W        W27575  31.654  27.131   0.476
61035W        W27576   0.027   4.167  11.659
61036W        W27577  42.552  21.157   3.760
61037W        W27578  33.518  18.986   4.683
61038W        W27579  41.796  11.353   1.627
61039W        W27580  15.505  20.138  12.891
61040W        W27581  44.271  12.610   3.130
61041W        W27582  19.507  30.626   0.772
61042W        W27583  25.586  43.533  12.866
61043W        W27584  33.987  12.438  12.360
61044W        W27585  43.428  35.437   3.810
61045W        W27586  25.681  21.657   0.038
61046W        W27587  31.247  10.242   4.584
61047W        W27588  40.492   2.840   1.236
61048W        W27589   5.927   1.276  14.901
61049W        W27590  19.236  37.263   2.786
61050W        W27591  23.696   2.105  11.360
61051W        W27592  12.268   1.653   2.833
61052W        W27593  37.970  36.636   2.178
61053W        W27594   5.906  33.813   3.685
61054W        W27595  36.346   5.254  12.978
61055W        W27596  15.543  22.284  13.078
61056W        W27597  14.693   8.937   1.592
61057W        W27598   0.257   3.828  13.370
61058W        W27599  43.285  42.231  14.999
61059W        W27600  19.675  11.621  13.924
61060W        W27601   4.290  41.385  13.432
61061W        W27602   4.641   4.783   0.783
61062W        W27603  35.200  20.644   3.670
61063W        W27604   0.856  30.048  11.001
61064W        W27605   2.443  37.997  13.287
61065W        W27606   9.765  19.668   0.374
61066W        W27607  40.141   5.270  11.145
61067W        W27608  36.526  29.654  10.766
61068W        W27609  26.006   7.661  14.364
61069W        W27610  25.257  32.178   3.848
61070W        W27611  15.398  39.888   1.658
61071W        W27612  44.343   9.573  12.019
61072W        W27613  40.782  10.958  10.698
61073W        W27614   7.452  43.054  13.154
61074W        W27615   4.996  39.238   5.092
61075W        W27616  24.969  21.740  12.784
61076W        W27617  10.431  38.248   4.989
61077W        W27618   2.441   3.399   0.036
61078W        W27619  30.706   7.551  14.891
61079W        W27620  31.716   3.265   2.383
61080W        W27621  42.642  13.623  11.154
61081W        W27622  13.551  22.565   0.272
61082W        W27623  35.094  22.033  13.830
61083W        W27624   7.667   4.421  12.418
61084W        W27625   1.223   0.451   4.548
61085W        W27626  33.812  42.557  11.472
61086W        W27627  10.744  26.992  14.398
61087W        W27628  14.697  14.305   1.874
61088W        W27629  13.209   6.349   3.834
61089W        W27630   6.426  24.022   4.947
61090W        W27631   1.429  26.751  12.869
61091W        W27632  11.966  35.367  14.868
61092W        W27633  27.175  15.392  11.709
61093W        W27634  44.645   0.792   3.203
61094W        W27635  39.572  20.710  11.099
61095W        W27636  22.248  17.381  11.168
61096W        W27637  36.090  21.605  12.394
61097W        W27638  15.087   5.369  13.883
61098W        W27639  16.049  10.906  10.667
61099W        W27640  13.675  21.124  14.669
61100W        W27641   9.170  14.630   1.383
61101W        W27642   0.644  29.170   2.630
61102W        W27643  12.895  23.131   2.296
61103W        W27644  28.009  19.043  14.904
61104W        W27645  30.151  37.767   3.702
61105W        W27646  21.019  42.858  13.621
61106W        W27647   4.324  16.119   4.744
61107W        W27648  44.422  43.727  10.532
61108W        W27649   6.400  32.548   1.710
61109W        W27650  11.542  22.776   0.901
61110W        W27651  24.016  12.580  13.325
61111W        W27652  30.594   0.600   4.810
61112W        W27653  13.215  44.533   0.952
61113W        W27654   2.284  32.061  13.396
61114W        W27655   4.900   6.762   4.877
61115W        W27656  36.001  27.936  10.633
61116W        W27657  24.851   3.930  10.572
61117W        W27658   8.084  17.196   4.575
61118W        W27659   1.199  33.825  13.334
61119W        W27660  41.570  28.202   2.078
61120W        W27661  13.195  41.110  14.968
61121W        W27662  44.101  30.900  12.883
61122W        W27663  27.683  35.041   3.355
61123W        W27664  34.504  10.374  11.441
61124W        W27665  19.723  31.113  11.279
61125W        W27666  14.372  43.824   0.429
61126W        W27667  13.380  38.861  12.326
61127W        W27668  16.086  19.542   2.782
61128W        W27669  29.935  34.778  14.985
61129W        W27670   7.394   1.099   2.123
61130W        W27671  30.600  10.092   0.238
61131W        W27672  21.299  15.207   2.491
61132W        W27673   2.903   9.183   2.352
61133W        W27674  39.574  13.651   0.316
61134W        W27675  32.099  24.683  11.584
61135W        W27676   8.263   3.770  14.053
61136W        W27677   0.015  28.581  12.923
61137W        W27678  37.101  18.190   3.618
61138W        W27679  10.500   5.673   5.031
61139W        W27680  22.497  23.034   1.948
61140W        W27681   4.230  36.058   4.734
61141W        W27682  30.592  11.118   2.814
61142W        W27683  19.101  31.132  13.857
61143W        W27684  36.928  33.999  12.543
61144W        W27685  40.153  31.681   2.850
61145W        W27686  27.205  28.960  10.422
61146W        W27687  34.545  43.998   3.327
61147W        W27688  35.366  42.344   4.147
61148W        W27689  34.491  19.330  14.328
61149W        W27690  16.923  17.182   3.595
61150W        W27691  27.148  16.575   2.273
61151W        W27692  30.495  17.784   4.514
61152W        W27693  42.951   0.352   0.050
61153W        W27694   2.550  10.681  10.939
61154W        W27695  43.071  43.015  10.284
61155W        W27696  21.544  26.419  12.471
61156W        W27697  16.602  38.024   2.816
61157W        W27698  19.555  38.041   2.558
61158W        W27699  19.465  38.068  11.969
61159W        W27700  34.074  32.875   0.887
61160W        W27701   5.474  37.628  13.899
61161W        W27702  41.813  40.386  12.570
61162W        W27703  38.685  44.856   2.038
61163W        W27704  30.935  25.790   3.540
61164W        W27705  24.854   3.533  14.672
61165W        W27706  17.882  37.091  10.612
61166W        W27707   1.552  17.843   1.412
61167W        W27708  37.198  29.253  12.956
61168W        W27709   4.018  28.022  13.338
61169W        W27710  40.867   4.816  10.381
61170W        W27711  22.130   1.311   2.370
61171W        W27712  37.132  31.511  10.687
61172W        W27713  33.470  12.177   2.198
61173W        W27714  41.327   1.691  12.599
61174W        W27715  35.490  13.871   1.162
61175W        W27716  36.308   9.802   1.484
61176W        W27717  21.409  14.023  14.048
61177W        W27718  21.038  20.333  14.385
61178W        W27719   1.408  38.057  13.923
61179W        W27720  17.616  30.500   3.494
61180W        W27721   5.721  26.110   0.795
61181W        W27722  37.006  34.618   0.260
61182W        W27723  42.959  43.464   2.644
61183W        W27724  32.935  31.408  14.090
61184W        W27725  12.712  34.021  10.536
61185W        W27726  25.052  14.597  13.550
61186W        W27727  42.832  17.677  11.193
61187W        W27728  19.467  26.501   4.629
61188W        W27729  39.855  35.736   2.439
61189W        W27730  25.159  37.731  11.889
61190W        W27731  20.465  30.587  12.389
61191W        W27732  21.548  24.986   1.968
61192W        W27733  18.276   1.277   0.380
61193W        W27734  18.684  22.880  14.076
61194W        W27735  15.540  19.759   3.765
61195W        W27736  26.945   5.844  12.871
61196W        W27737   9.694  16.131  13.707
61197W        W27738  38.570  22.721  12.053
61198W        W27739  11.915  36.101  14.443
61199W        W27740  41.079   8.854   0.792
61200W        W27741  21.212  43.299  11.638
61201W        W27742  28.331  24.929  14.509
61202W        W27743   2.793  31.404   1.775
61203W        W27744  44.420   8.188  11.453
61204W        W27745  30.187   7.405  11.137
61205W        W27746   6.236  12.958   0.008
61206W        W27747  37.414  44.348  11.414
61207W        W27748  27.562   9.715   1.259
61208W        W27749  29.903  33.185  11.558
61209W        W27750  37.285   2.426   3.113
61210W        W27751  32.333  24.191  14.757
61211W        W27752  26.174  35.456  14.799
61212W        W27753  11.316   7.933  11.097
61213W        W27754  13.345  42.395  13.454
61214W        W27755  25.073  16.554  14.239
61215W        W27756  38.374  44.684   0.703
61216W        W27757  32.619  11.344  13.159
61217W        W27758  10.737   4.250   3.705
61218W        W27759   6.465  15.621  14.973
61219W        W27760  25.045   8.352   1.030
61220W        W27761  16.058  20.543   4.635
61221W        W27762  22.977   2.523   4.559
61222W        W27763  18.617  17.640   3.392
61223W        W27764  41.905  39.584   3.639
61224W        W27765  15.258   6.333  12.734
61225W        W27766  43.866  35.433   1.349
61226W        W27767  38.927  20.653   4.840
61227W        W27768  30.106  10.636   4.006
61228W        W27769   5.747  14.840   1.901
61229W        W27770  27.145  42.951   3.132
61230W        W27771  29.061   0.891  14.804
61231W        W27772   8.100  41.375  13.819
61232W        W27773  21.710  31.727   3.392
61233W        W27774  20.479  21.688   0.871
61234W        W27775  16.055  44.965   2.824
61235W        W27776  26.715  10.842   0.363
61236W        W27777  24.713  27.232  14.511
61237W        W27778  38.980  29.592   3.605
61238W        W27779   7.995   9.952   4.192
61239W        W27780  17.802   5.019  11.148
61240W        W27781  41.335  33.045   2.613
61241W        W27782  40.738  16.080  14.888
61242W        W27783  44.364  32.089   4.147
61243W        W27784  13.051  12.968   3.167
61244W        W27785  40.617  37.172   1.594
61245W        W27786  42.861  44.398  11.914
61246W        W27787   2.202  20.447  10.692
61247W        W27788  34.979  31.100  12.918
61248W        W27789  42.299  18.138   2.444
61249W        W27790   2.231  10.199  11.736
61250W        W27791  13.155  36.047  12.678
61251W        W27792   6.138  34.594  14.287
61252W        W27793  14.134  26.602   3.576
61253W        W27794  25.516  21.673  12.715
61254W        W27795  44.236   7.413  12.324
61255W        W27796  32.894  22.523   3.206
61256W        W27797   3.946   2.856   3.951
61257W        W27798   3.155  13.629   0.888
61258W        W27799  17.689   7.770   3.487
61259W        W27800  44.028   1.902  11.172
61260W        W27801   9.613  12.783   2.253
61261W        W27802   6.740  33.476   1.521
61262W        W27803  33.320  34.363  13.386
61263W        W27804   9.076   5.807   0.718
61264W        W27805  24.717  41.271   2.360
61265W        W27806  41.585  42.832   3.141
61266W        W27807  33.961  37.413   3.512
61267W        W27808  27.541   3.695   1.872
61268W        W27809  33.390  10.934  14.316
61269W        W27810   0.303   5.290   3.644
61270W        W27811  26.692  37.305   0.070
61271W        W27812  40.499  18.532  10.676
61272W        W27813  38.800  42.590  11.948
61273W        W27814  30.466   6.793  11.616
61274W        W27815   9.240  41.280  13.001
61275W        W27816  38.752  42.798   2.292
61276W        W27817  41.705  44.455  11.241
61277W        W27818  12.561  28.593   0.243
61278W        W27819  17.097  24.149   2.918
61279W        W27820  35.516   7.297  14.110
61280W        W27821  18.111  10.297  11.127
61281W        W27822  43.063  44.993  14.318
61282W        W27823  32.655  21.510   4.111
61283W        W27824  21.663  28.951  10.752
61284W        W27825  23.939   7.322  13.845
61285W        W27826  24.968   6.259   9.866
61286W        W27827  11.775  43.328   3.823
61287W        W27828  10.250   6.918   0.889
61288W        W27829   0.952  15.758  12.482
61289W        W27830  19.736   4.957  13.423
61290W        W27831  43.125   8.234   2.161
61291W        W27832  25.255  27.196   2.083
61292W        W27833  41.971   2.488  13.869
61293W        W27834  42.568  41.404  12.202
61294W        W27835  35.497  25.419   3.223
61295W        W27836  18.560  36.627   0.004
61296W        W27837  35.939  26.597  11.795
61297W        W27838  31.448  37.306  10.765
61298W        W27839  37.408  42.835   4.838
61299W        W27840  26.719  18.664   1.833
61300W        W27841  26.200  12.809  12.620
61301W        W27842  33.606  31.004  14.807
61302W        W27843  27.614   2.804  13.299
61303W        W27844  33.568  14.859   3.335
61304W        W27845  40.075  18.516  14.031
61305W        W27846  20.190  38.142   1.010
61306W        W27847   2.440  19.467  12.556
61307W        W27848  15.600  20.592   3.369
61308W        W27849  42.415  42.466  11.427
61309W        W27850  31.412  32.966   1.353
61310W        W27851  38.787  39.586   2.727
61311W        W27852  14.782  36.468  11.141
61312W        W27853  19.318  34.788  11.548
61313W        W27854   7.850  44.815   0.819
61314W        W27855  26.568  44.073   1.796
61315W        W27856  27.993   5.856  14.742
61316W        W27857   3.668  33.572  14.472
61317W        W27858  41.344  32.347   2.772
61318W        W27859  37.875   2.917   0.401
61319W        W27860  41.834  43.984   2.733
61320W        W27861  22.684  32.395  14.857
61321W        W27862  17.020   5.548  13.540
61322W        W27863  24.629  34.062  13.474
61323W        W27864   5.817  44.736  12.108
61324W        W27865   1.914  39.688  13.616
61325W        W27866  32.001   4.847   4.575
61326W        W27867  12.094  39.597  12.505
61327W        W27868  21.699   3.312   1.864
61328W        W27869  29.010   3.828  10.763
61329W        W27870  36.437  34.084  14.303
61330W        W27871  24.853  31.384   4.229
61331W        W27872  37.171   2.254   9.692
61332W        W27873  40.707  23.283   4.928
61333W        W27874  19.461  17.291  10.164
61334W        W27875  17.175  34.913  12.529
61335W        W27876   8.423  20.710   3.911
61336W        W27877  43.915   4.825  11.140
61337W        W27878  11.332  10.145   3.991
61338W        W27879   6.328   9.602  13.400
61339W        W27880  38.447   2.351   4.043
61340W        W27881  33.061  37.412  13.885
61341W        W27882  36.194  30.576  14.461
61342W        W27883  13.009  29.103   0.913
61343W        W27884  42.373  26.655   2.824
61344W        W27885  24.032  18.460  14.378
61345W        W27886  11.651   4.918   1.760
61346W        W27887  23.695  37.616   1.775
61347W        W27888  22.239  24.635   4.149
61348W        W27889  11.771  10.580   2.353
61349W        W27890  29.467  25.307   9.598
61350W        W27891  21.153  33.525   4.583
61351W        W27892  16.212  40.981   4.051
61352W        W27893  31.124  28.187  11.678
61353W        W27894  10.405   1.084  11.179
61354W        W27895  29.490   7.876   3.637
61355W        W27896   4.096  11.295  14.821
61356W        W27897  41.538   9.247   3.127
61357W        W27898  15.139   6.343  14.747
61358W        W27899  17.283  13.227   0.908
61359W        W27900  28.065  24.504   2.189
61360W        W27901  29.684  21.885   1.884
61361W        W27902  36.031  23.550   2.640
61362W        W27903   9.270  28.955  10.723
61363W        W27904  26.750  43.428  11.673
61364W        W27905  25.696  14.656   2.804
61365W        W27906   5.893  13.714   0.938
61366W        W27907  32.442  44.193  14.812
61367W        W27908  24.037  41.522   1.806
61368W        W27909  39.730  15.857   1.183
61369W        W27910  11.010  13.327   3.170
61370W        W27911  39.483  12.585   4.529
61371W        W27912  27.134  33.477   0.198
61372W        W27913  31.756  28.666   0.743
61373W        W27914  13.354  32.720   0.975
61374W        W27915  19.984  28.564   4.832
61375W        W27916  21.672  22.472   0.982
61376W        W27917  27.390  22.629  12.382
61377W        W27918  40.051  38.050   4.254
61378W        W27919  26.975   3.695   4.965
61379W        W27920  13.832  32.622  12.875
61380W        W27921  42.334  44.361   1.977
61381W        W27922  13.135  41.602   0.127
61382W        W27923  25.480  43.797  11.812
61383W        W27924   4.673  39.999  11.796
61384W        W27925   8.902   6.717   2.223
61385W        W27926   8.592   2.811   4.800
61386W        W27927  30.950  42.012   3.031
61387W        W27928  20.305  13.420  14.805
61388W        W27929  23.822  15.488   2.516
61389W        W27930  17.460  35.599   0.516
61390W        W27931   5.498   9.929  13.829
61391W        W27932   1.896   6.598   3.498
61392W        W27933  34.254  10.164   4.593
61393W        W27934  17.689   8.502  14.817
61394W        W27935   9.509  18.983  14.422
61395W        W27936   7.505  21.029  14.300
61396W        W27937  15.308  39.822  12.853
61397W        W27938  14.885   1.874   4.043
61398W        W27939   3.315   8.379   2.184
61399W        W27940   7.423   4.711  13.554
61400W        W27941  24.506   5.870  13.270
61401W        W27942  35.183  33.691   5.128
61402W        W27943  32.035  30.324  13.292
61403W        W27944  16.826  32.457  11.370
61404W        W27945  16.787  25.726   0.103
61405W        W27946  10.096  44.555  12.447
61406W        W27947  42.831  39.302   4.564
61407W        W27948   9.188  12.741   3.194
61408W        W27949   9.163   6.279   0.896
61409W        W27950  18.940   2.970  11.935
61410W        W27951  40.510   3.290  12.928
61411W        W27952  24.691  40.152  13.645
61412W        W27953   0.519  24.109  14.525
61413W        W27954   7.140   5.366   2.297
61414W        W27955  29.671   7.064   3.127
61415W        W27956  26.654   8.787   1.617
61416W        W27957  35.791  31.882   3.690
61417W        W27958   1.720  10.038   0.772
61418W        W27959  42.751   3.909  13.126
61419W        W27960  10.691  13.837  12.957
61420W        W27961  10.804  39.393   1.920
61421W        W27962  27.497  27.227   1.733
61422W        W27963  31.780  13.092  13.416
61423W        W27964  35.457  30.923  12.554
61424W        W27965  13.251  25.781  13.928
61425W        W27966  14.315  33.992   4.800
61426W        W27967  42.144  34.950  12.855
61427W        W27968  25.335   5.091   0.306
61428W        W27969  25.966  35.996  11.689
61429W        W27970   1.008  34.015  12.906
61430W        W27971  15.568  23.323   4.203
61431W        W27972  12.757  34.545   2.597
61432W        W27973   7.847  31.550  14.002
61433W        W27974  27.942  11.653   2.498
61434W        W27975  22.177  41.554   2.768
61435W        W27976  36.885   7.386   5.046
61436W        W27977  36.967  27.478   0.282
61437W        W27978  43.894  44.925  10.630
61438W        W27979  19.054  43.907  10.450
61439W        W27980  25.176  42.073  11.187
61440W        W27981   3.506  12.834  13.838
61441W        W27982  29.597  36.531  14.557
61442W        W27983   0.373  13.122   0.379
61443W        W27984   0.603  18.589  13.871
61444W        W27985  11.632  19.270   1.921
61445W        W27986  35.606  40.853   4.653
61446W        W27987  17.884   8.299   4.734
61447W        W27988  30.705  19.151  11.638
61448W        W27989  43.773  12.629  11.453
61449W        W27990   7.795  28.200   2.323
61450W        W27991  21.265  30.066   0.347
61451W        W27992  41.029  34.422   2.890
61452W        W27993  29.075  26.072  11.980
61453W        W27994  11.323  30.020  10.834
61454W        W27995  26.847  21.136   4.598
61455W        W27996  18.282  36.876  11.552
61456W        W27997   0.582  42.527  13.884
61457W        W27998  19.013  40.367   0.278
61458W        W27999  13.235  39.364   2.385
61459W        W28000  16.660  42.544  11.979
61460W        W28001  23.148   9.868   0.936
61461W        W28002  35.296  22.586   3.096
61462W        W28003  27.500  30.487   2.307
61463W        W28004   4.869  14.057  13.047
61464W        W28005  13.885  35.001  13.531
61465W        W28006   4.924  19.016   1.797
61466W        W28007  36.583  13.710   2.220
61467W        W28008  22.107  30.019   2.336
61468W        W28009  11.813  10.435  11.554
61469W        W28010  38.117  24.690  13.411
61470W        W28011  26.060   2.940   3.279
61471W        W28012  17.193  16.235  11.439
61472W        W28013  29.462  10.088   4.339
61473W        W28014  43.073  38.574   4.227
61474W        W28015  35.926  39.896   1.127
61475W        W28016  22.940   1.732   2.754
61476W        W28017   4.230  44.015   4.399
61477W        W28018  38.267   1.862   2.369
61478W        W28019  18.718  13.152   9.934
61479W        W28020  28.551   3.799   2.767
61480W        W28021  20.489  20.122  14.415
61481W        W28022  30.470  32.483  14.236
61482W        W28023  28.181  25.176  10.726
61483W        W28024   7.917   9.459  11.654
61484W        W28025  43.945  34.877   1.454
61485W        W28026  11.431  12.746  10.650
61486W        W28027  24.609   8.715   1.832
61487W        W28028  19.157  39.070   4.373
61488W        W28029  36.991  22.838   2.281
61489W        W28030   0.936  34.363   1.373
61490W        W28031  11.189  30.602   3.756
61491W        W28032  24.420  44.151   4.161
61492W        W28033  18.063  26.531   2.131
61493W        W28034  21.206   4.828  14.963
61494W        W28035  13.099  27.618   1.362
61495W        W28036  19.314  44.586  12.372
61496W        W28037  19.811  11.800   2.074
61497W        W28038   9.342  16.679  12.551
61498W        W28039  22.499  21.371   1.824
61499W        W28040  11.530  33.500  13.519
61500W        W28041  20.397  43.616  11.947
61501W        W28042   6.890  12.205  13.713
61502W        W28043  43.577  25.308   1.200
61503W        W28044   6.108  39.603   2.407
61504W        W28045  17.668  19.330  14.860
61505W        W28046   2.363  40.348  12.634
61506W        W28047  35.980   9.999   1.895
61507W        W28048  38.021  16.910  10.299
61508W        W28049  43.141  39.039   4.869
61509W        W28050  40.138  26.129  13.436
61510W        W28051  44.582  11.167   4.456
61511W        W28052  10.564  40.630  14.741
61512W        W28053   4.371  12.752   4.303
61513W        W28054  13.205   6.348  14.988
61514W        W28055  30.163  37.753   4.725
61515W        W28056   2.323  41.269   0.436
61516W        W28057  39.854  16.832   3.679
61517W        W28058  44.502   2.402  12.040
61518W        W28059  36.875  34.898  14.762
61519W        W28060  21.834  21.788   3.982
61520W        W28061  35.978   2.024  10.209
61521W        W28062   7.729  40.477  14.915
61522W        W28063   3.869  32.434  12.086
61523W        W28064   0.925  42.622   4.192
61524W        W28065   3.166  22.468  12.848
61525W        W28066   6.354  10.132  13.402
61526W        W28067   8.658  39.980  12.035
61527W        W28068  41.895  39.405   2.344
61528W        W28069   6.290  20.446  13.846
61529W        W28070   7.915   9.448   4.232
61530W        W28071  15.168  16.697  14.726
61531W        W28072   6.394  25.209   3.259
61532W        W28073  26.454  33.138   1.488
61533W        W28074  35.701   3.518   4.520
61534W        W28075  15.023  25.732  13.912
61535W        W28076  35.987  20.036  13.960
61536W        W28077   5.382  35.491   2.605
61537W        W28078  20.008  12.254  13.434
61538W        W28079  11.180  37.278  12.901
61539W        W28080   0.872  14.087   5.105
61540W        W28081  39.602   1.811   4.628
61541W        W28082   2.513  40.318   0.221
61542W        W28083  14.212  11.464   4.760
61543W        W28084  43.398   7.269   3.390
61544W        W28085   5.212  13.768  14.730
61545W        W28086  13.631  44.286   3.834
61546W        W28087  21.983   7.937   2.452
61547W        W28088   6.627  44.712  11.639
61548W        W28089  42.144  11.552  14.828
61549W        W28090  33.377  13.265  11.665
61550W        W28091  26.154  42.529   0.262
61551W        W28092  25.009  31.133   1.440
61552W        W28093   0.026  13.234   2.307
61553W        W28094  21.457  43.364  11.186
61554W        W28095  27.941  13.976   2.698
61555W        W28096  21.738  22.224  14.726
61556W        W28097   3.477  40.396  11.576
61557W        W28098  38.549  37.860   2.386
61558W        W28099  13.026  15.846  10.609
61559W        W28100  10.115   9.770  10.818
61560W        W28101  30.468   2.497  14.479
61561W        W28102  15.470  36.442   3.237
61562W        W28103  32.179  38.133   2.750
61563W        W28104  42.749  29.315  11.127
61564W        W28105  29.712  20.110   3.320
61565W        W28106  31.454   1.450   3.746
61566W        W28107   2.934  29.924  11.154
61567W        W28108  22.524  43.477   1.794
61568W        W28109  24.093  18.642  11.976
61569W        W28110  13.023  13.280  11.155
61570W        W28111  37.889  13.286  13.951
61571W        W28112  34.897   2.521   3.600
61572W        W28113  10.236  20.464  13.278
61573W        W28114  32.638   9.489   2.899
61574W        W28115  21.721  11.118  11.043
61575W        W28116  32.442  38.421  11.184
61576W        W28117  11.767  27.230   1.344
61577W        W28118  10.652  29.977  12.602
61578W        W28119  31.852  26.079  13.581
61579W        W28120  12.721  21.960   3.791
61580W        W28121   3.026  39.245  10.990
61581W        W28122  35.404  44.860   2.913
61582W        W28123  26.577   9.175  11.324
61583W        W28124  41.089  29.249  11.086
61584W        W28125  42.799  31.860   1.303
61585W        W28126  29.792  14.049   3.833
61586W        W28127  20.587  33.926  11.915
61587W        W28128   5.290  14.918  11.975
61588W        W28129  41.114   8.062   2.690
61589W        W28130  15.081   3.293  10.571
61590W        W28131   9.971  41.409   1.109
61591W        W28132  33.508  21.396  14.274
61592W        W28133   0.830  27.646   1.412
61593W        W28134  14.851  14.095  13.065
61594W        W28135  30.285  26.202   2.426
61595W        W28136  31.600  15.533  13.437
61596W        W28137   8.271  13.479  14.576
61597W        W28138  44.200   8.534   9.942
61598W        W28139  18.831  33.469   3.972
61599W        W28140  12.149   6.297  11.524
61600W        W28141  27.596  41.452  11.508
61601W        W28142  28.081  28.478  14.418
61602W        W28143   0.718  10.324  14.666
61603W        W28144  40.046  13.818   2.328
61604W        W28145   5.524  36.372   2.687
61605W        W28146  13.339  28.938  11.103
61606W        W28147  25.470  18.864  14.025
61607W        W28148   6.090  11.053   0.253
61608W        W28149  35.382  31.488  13.417
61609W        W28150  14.412   5.770   1.375
61610W        W28151  11.668  22.268   1.004
61611W        W28152  32.022   3.760  14.396
61612W        W28153  10.923  29.262   2.089
61613W        W28154   1.789   1.756  12.499
61614W        W28155   5.970  21.032   0.148
61615W        W28156  35.923  20.994   1.823
61616W        W28157  41.758  14.778   3.076
61617W        W28158  36.329  13.871   2.876
61618W        W28159  25.249   3.327  11.507
61619W        W28160  30.460   3.357   3.712
61620W        W28161  16.094  16.638  13.758
61621W        W28162  16.027  12.217  12.653
61622W        W28163  23.750  22.966   4.602
61623W        W28164  23.198  31.545   4.281
61624W        W28165   3.844  11.647  12.061
61625W        W28166  30.057  33.672   3.166
61626W        W28167  18.782  17.758  13.912
61627W        W28168  25.958  32.372  13.577
61628W        W28169   0.725  19.326  14.444
61629W        W28170  25.066  20.122  13.140
61630W        W28171   5.284   7.687  14.396
61631W        W28172  32.521  43.653   2.670
61632W        W28173  26.114  35.125  12.520
61633W        W28174   0.017  26.158   2.868
61634W        W28175  39.676  16.342   3.606
61635W        W28176  33.943  35.052   1.580
61636W        W28177  12.335  35.031   3.129
61637W        W28178   6.401  39.767   2.948
61638W        W28179   5.668  13.347  13.290
61639W        W28180  43.316  32.441  14.970
61640W        W28181   9.368  37.944   2.620
61641W        W28182  44.521  27.184  14.415
61642W        W28183  40.405  39.304  12.613
61643W        W28184  26.109   1.314  11.157
61644W        W28185  15.101  26.662  14.332
61645W        W28186  36.311  25.774  11.182
61646W        W28187   9.958  17.560   2.253
61647W        W28188  44.020   6.808   0.258
61648W        W28189   3.670  14.819   3.697
61649W        W28190  31.836  23.226  13.845
61650W        W28191   0.175   5.498   4.821
61651W        W28192  10.359   0.062   3.270
61652W        W28193  44.459  44.708   3.716
61653W        W28194   4.620  21.747  13.242
61654W        W28195  26.934  33.993  13.422
61655W        W28196  22.373  22.957  13.041
61656W        W28197   2.944  44.015  11.055
61657W        W28198  24.684  44.300  13.477
61658W        W28199  36.555   6.741   5.031
61659W        W28200  25.564  19.234  14.698
61660W        W28201   5.032   8.648  14.324
61661W        W28202  44.013  11.347   1.758
61662W        W28203  11.417  41.291   2.259
61663W        W28204  19.125  10.140   2.807
61664W        W28205   5.964   5.983   4.577
61665W        W28206  22.202  36.125  11.686
61666W        W28207  42.563   3.309   4.680
61667W        W28208   5.751  34.265  14.302
61668W        W28209  13.909   8.643  11.569
61669W        W28210  20.775  42.025  11.125
61670W        W28211  26.466   1.141  12.057
61671W        W28212  21.593  15.039   1.321
61672W        W28213  10.925   6.584  11.129
61673W        W28214  43.434   6.553  14.484
61674W        W28215  14.391  34.838  10.689
61675W        W28216  10.047  38.234   5.394
61676W        W28217  13.098  42.537  12.151
61677W        W28218  39.315  17.102  10.569
61678W        W28219  16.398  10.676  12.125
61679W        W28220  43.865  33.249  12.150
61680W        W28221  28.028   6.027   2.412
61681W        W28222  26.534  38.570   4.723
61682W        W28223  15.209  14.562  13.619
61683W        W28224  40.122  15.081   4.053
61684W        W28225  27.506  24.850   3.299
61685W        W28226   1.754  23.637  10.160
61686W        W28227  27.448   0.112  14.706
61687W        W28228  31.629  29.694  14.065
61688W        W28229  42.814  16.117  14.341
61689W        W28230  37.195  13.081   3.857
61690W        W28231  33.299  26.754   4.154
61691W        W28232   9.869  10.141  13.915
61692W        W28233  32.995  19.096   4.653
61693W        W28234  44.392  21.329  10.564
61694W        W28235  24.186  29.687  12.534
61695W        W28236   0.950  24.584   0.674
61696W        W28237  32.375  27.924   2.545
61697W        W28238  39.271  29.481   2.335
61698W        W28239  19.115   3.066  13.507
61699W        W28240  42.404  39.193  11.115
61700W        W28241  23.532   6.345   1.486
61701W        W28242  42.808  13.172   1.226
61702W        W28243  10.285  20.106  13.694
61703W        W28244  44.902  30.841   1.134
61704W        W28245   6.523   0.957  11.107
61705W        W28246  23.501   7.470  12.966
61706W        W28247  16.129  11.821  12.996
61707W        W28248  33.433   9.538  11.240
61708W        W28249  20.798  11.732   1.805
61709W        W28250  10.050  39.885   4.503
61710W        W28251  37.241  22.161   2.109
61711W        W28252  38.070  43.484  14.298
61712W        W28253  15.196  41.369  11.118
61713W        W28254   0.430  10.213   3.667
61714W        W28255  21.487  19.223   0.372
61715W        W28256  37.870  17.631  13.986
61716W        W28257  42.534   8.210  14.533
61717W        W28258  43.009  21.297  10.237
61718W        W28259  19.408   1.252  12.157
61719W        W28260   1.330   5.654   4.253
61720W        W28261   4.689  22.347   5.006
61721W        W28262  17.114  13.274   2.335
61722W        W28263  42.436  19.547   4.170
61723W        W28264  37.434  19.725  12.119
61724W        W28265   4.649  10.238   1.501
61725W        W28266  40.949   2.273   4.029
61726W        W28267  17.038  14.308  12.001
61727W        W28268   1.996  40.986  14.641
61728W        W28269   2.760  38.424   0.876
61729W        W28270   9.167  42.651   4.146
61730W        W28271  25.605  41.742  12.005
61731W        W28272   1.578  21.345   5.147
61732W        W28273  24.561  20.242   2.873
61733W        W28274  32.895  32.024  11.934
61734W        W28275  20.079  17.835   4.564
61735W        W28276  35.366   8.052   2.381
61736W        W28277  37.653  17.565  11.014
61737W        W28278  30.806  42.384   2.471
61738W        W28279  21.484  40.990   4.253
61739W        W28280   1.340  17.982  12.041
61740W        W28281  25.675  23.156  11.070
61741W        W28282  22.167  30.364  12.906
61742W        W28283  39.511  36.072  10.559
61743W        W28284  42.951  19.946  12.203
61744W        W28285  30.922  32.801   1.391
61745W        W28286  23.749  28.026   3.807
61746W        W28287  24.763  16.609  11.578
61747W        W28288  24.731  25.120   3.731
61748W        W28289   2.550   1.444  14.403
61749W        W28290   9.230  11.358   0.256
61750W        W28291   6.286  19.941   3.333
61751W        W28292  22.440   7.187  14.929
61752W        W28293  28.396   3.949   3.673
61753W        W28294   9.569  35.576  14.375
61754W        W28295  31.577   0.122   5.011
61755W        W28296  17.619  39.898  13.427
61756W        W28297  27.580  29.477   1.920
61757W        W28298  29.345  27.371   2.534
61758W        W28299  35.965  25.043  12.833
61759W        W28300  41.809  12.118  10.890
61760W        W28301  18.774  43.046  13.094
61761W        W28302   9.869  21.294   3.143
61762W        W28303  43.306  11.343  14.419
61763W        W28304   3.519  37.975  11.523
61764W        W28305  37.402  33.550   0.888
61765W        W28306  29.916  17.578   2.856
61766W        W28307  27.047  25.712  12.973
61767W        W28308  17.330  36.124   0.381
61768W        W28309  35.595  26.594   1.800
61769W        W28310  16.379  43.606  11.435
61770W        W28311  24.951  43.875  13.361
61771W        W28312   3.216  39.946   2.237
61772W        W28313   9.396  38.460   2.701
61773W        W28314  22.719  20.520   2.619
61774W        W28315  34.020  15.899  14.405
61775W        W28316  28.455  16.786  14.901
61776W        W28317  32.167   7.340   1.667
61777W        W28318  25.250  20.752  11.449
61778W        W28319  35.546   6.688  13.881
61779W        W28320   7.804  26.677  10.503
61780W        W28321   7.978  41.438   1.396
61781W        W28322   1.752  26.020   5.438
61782W        W28323  36.902  42.479  11.262
61783W        W28324   5.977  27.953   2.294
61784W        W28325  21.015   7.135   0.499
61785W        W28326  25.724  30.736  10.220
61786W        W28327  11.610   0.444  11.077
61787W        W28328  20.629  42.950  12.105
61788W        W28329   7.953  20.255  14.790
61789W        W28330  27.114  22.233  13.414
61790W        W28331  26.673  44.265  11.754
61791W        W28332  35.126  22.741  10.345
61792W        W28333  11.764  34.192   4.060
61793W        W28334  24.731   8.633  13.506
61794W        W28335  17.630   1.742  11.661
61795W        W28336   7.350  19.619  11.177
61796W        W28337  44.238  26.470   0.445
61797W        W28338  41.263   8.343   3.119
61798W        W28339  15.708  17.938  14.297
61799W        W28340  44.868   9.738  12.005
61800W        W28341  40.451  19.483   1.172
61801W        W28342  43.659  23.261  11.623
61802W        W28343  20.123  37.342   3.835
61803W        W28344  38.325  20.829   2.926
61804W        W28345  26.904  20.043  12.192
61805W        W28346  36.476  27.358   0.406
61806W        W28347  11.658  14.846   1.946
61807W        W28348  34.078  12.760  14.710
61808W        W28349   2.859  17.559  14.700
61809W        W28350  22.433  35.480  13.203
61810W        W28351  37.951  27.937  10.828
61811W        W28352   4.843  20.412  13.627
61812W        W28353  41.824  16.753   3.319
61813W        W28354  30.669  11.814  12.956
61814W        W28355   0.300  27.623  13.342
61815W        W28356   3.103  21.052   0.864
61816W        W28357  38.786  44.420   0.476
61817W        W28358  12.830  39.033  10.892
61818W        W28359  20.513   8.779   4.952
61819W        W28360  31.375   4.460   2.044
61820W        W28361  31.049  33.375  10.353
61821W        W28362  31.065   1.999   1.489
61822W        W28363   1.852  38.470   0.376
61823W        W28364  17.483  42.487   1.415
61824W        W28365  10.653   7.104  13.007
61825W        W28366  31.340  25.750   1.833
61826W        W28367   0.834  10.962   3.891
61827W        W28368  39.123   6.701   4.351
61828W        W28369  40.511   5.220  13.483
61829W        W28370  27.142  32.544   0.628
61830W        W28371   8.159   7.545   4.208
61831W        W28372   2.105  21.970   1.178
61832W        W28373  23.062  11.834  12.822
61833W        W28374  15.578  12.283   0.840
61834W        W28375   5.526  37.058   4.772
61835W        W28376  10.601  30.508  11.561
61836W        W28377  31.866   3.450   5.005
61837W        W28378   0.413   6.754  11.488
61838W        W28379  11.399   2.767   4.250
61839W        W28380  34.820   9.205  14.741
61840W        W28381  38.617  21.452   1.734
61841W        W28382  27.458  38.892   4.257
61842W        W28383  28.867  35.822   2.138
61843W        W28384   9.670  35.362   4.717
61844W        W28385  31.046   9.466   0.713
61845W        W28386  29.595  29.412   0.251
61846W        W28387   4.969  34.552   1.922
61847W        W28388   5.099  42.521  10.528
61848W        W28389  28.200  14.941   9.940
61849W        W28390  21.599  19.229  11.973
61850W        W28391  30.998  42.596  14.464
61851W        W28392  34.180  43.864   4.593
61852W        W28393  42.230   6.873   4.146
61853W        W28394  24.932  14.222  14.291
61854W        W28395  33.738  37.542   3.973
61855W        W28396  11.349  29.623  11.592
61856W        W28397  31.761  26.205   0.037
61857W        W28398   0.953  42.232   0.709
61858W        W28399  32.008  12.220   2.423
61859W        W28400  28.892  41.031  10.728
61860W        W28401  25.982   4.370   4.279
61861W        W28402  17.028  13.587   2.760
61862W        W28403  28.726  15.649   2.797
61863W        W28404  13.075  35.934   4.519
61864W        W28405  14.078  40.442   1.128
61865W        W28406  24.505  22.779   2.750
61866W        W28407  26.509  44.517  14.530
61867W        W28408  30.217  30.899   0.301
61868W        W28409  12.919  25.920  11.039
61869W        W28410  19.046  39.710  13.786
61870W        W28411  44.817  40.561  12.120
61871W        W28412  27.100  41.999   1.335
61872W        W28413   3.104  11.560  12.574
61873W        W28414  34.566  30.604   2.175
61874W        W28415   8.298   5.339  13.866
61875W        W28416  30.963  37.618   1.780
61876W        W28417  24.597  41.467   3.323
61877W        W28418  14.023  23.164   3.224
61878W        W28419  23.172  35.907  12.189
61879W        W28420   0.257  34.277   2.141
61880W        W28421  40.313  34.635   3.256
61881W        W28422  20.648  41.400   4.722
61882W        W28423  35.589  23.253  14.017
61883W        W28424  32.895  18.580  14.323
61884W        W28425  29.527  23.718   2.366
61885W        W28426   6.373  11.215  14.340
61886W        W28427  42.328  31.614   3.865
61887W        W28428   3.004  36.023  12.492
61888W        W28429  23.297  35.482  13.462
61889W        W28430  21.544   7.284   1.913
61890W        W28431  17.190  25.636  12.412
61891W        W28432  38.948   3.828  12.443
61892W        W28433   2.520  11.829   2.746
61893W        W28434  39.569  41.975  11.981
61894W        W28435  14.141   7.831   0.453
61895W        W28436  41.903   7.501   1.776
61896W        W28437   5.213  18.713   4.946
61897W        W28438  40.338  29.028   4.534
61898W        W28439   9.324  32.132   3.743
61899W        W28440  19.519   3.712   2.768
61900W        W28441  27.628  34.409  14.200
61901W        W28442  42.900  22.220   3.180
61902W        W28443  34.853   0.472  10.231
61903W        W28444  25.261  43.551  14.836
61904W        W28445  29.156  32.292   3.571
61905W        W28446   7.115  39.158  12.115
61906W        W28447  20.035  22.930   2.546
61907W        W28448   6.402   7.084   4.057
61908W        W28449  23.544   1.804  12.601
61909W        W28450  33.713   9.703   0.969
61910W        W28451   2.692  11.772  14.306
61911W        W28452  22.216  35.429   1.306
61912W        W28453  18.674  29.621  13.882
61913W        W28454  37.973  13.301   5.022
61914W        W28455  44.397  35.610  13.223
61915W        W28456  19.800  15.672   2.394
61916W        W28457   4.609  11.455   1.714
61917W        W28458  12.846  19.317  11.056
61918W        W28459  41.922  16.243   0.346
61919W        W28460  34.054  11.091  14.858
61920W        W28461  33.074   5.623   3.094
61921W        W28462  23.036   1.440  14.892
61922W        W28463  27.178  44.511   2.395
61923W        W28464   6.789   0.369   0.451
61924W        W28465  21.317  18.841  13.027
61925W        W28466  12.828   9.224  13.136
61926W        W28467  32.406  23.176  13.090
61927W        W28468  36.857  34.904  13.881
61928W        W28469  11.816  40.025  13.786
61929W        W28470  13.624  22.638  11.987
61930W        W28471  26.603   0.272  11.740
61931W        W28472   7.799  14.283   2.800
61932W        W28473  39.475  38.473  13.991
61933W        W28474  43.522  25.982   2.563
61934W        W28475  33.438  20.366   4.303
61935W        W28476  17.009   2.041  14.984
61936W        W28477  35.965   2.893   0.138
61937W        W28478  14.827   3.342   0.783
61938W        W28479  22.976  14.645  14.845
61939W        W28480   1.025  31.652  14.313
61940W        W28481  36.047  34.141   0.269
61941W        W28482  22.967  17.311   4.194
61942W        W28483  16.547  41.969  14.819
61943W        W28484  35.375  38.540   2.385
61944W        W28485  11.883  40.035   3.636
61945W        W28486  14.816  39.798   4.030
61946W        W28487  44.000  30.214   1.441
61947W        W28488  44.977   5.762   0.830
61948W        W28489  19.183  17.092  14.243
61949W        W28490  31.990  44.955  10.601
61950W        W28491  18.528  13.725  14.595
61951W        W28492  19.164  30.614  13.814
61952W        W28493  16.423  36.615  11.635
61953W        W28494  20.400   6.195   9.776
61954W        W28495   9.307  32.425   0.216
61955W        W28496   1.223   1.844   3.194
61956W        W28497   7.855  35.902  10.568
61957W        W28498  40.826  25.235   2.266
61958W        W28499   4.364   1.210  12.017
61959W        W28500  15.752   0.247   0.845
61960W        W28501  43.304  31.619   3.860
61961W        W28502  11.424  27.634   4.711
61962W        W28503  19.006   0.686   2.843
61963W        W28504   5.283  13.692   0.250
61964W        W28505  15.087  43.772   4.552
61965W        W28506   4.430   4.002   5.577
61966W        W28507  25.812  33.700   0.933
61967W        W28508  21.859  22.151  11.744
61968W        W28509   6.883  36.246  14.136
61969W        W28510   4.852  38.939   3.751
61970W        W28511  33.637  26.582  13.982
61971W        W28512  33.332  19.454   4.786
61972W        W28513   2.197  34.035   4.536
61973W        W28514  16.604  15.142  13.516
61974W        W28515  14.278  16.970  14.797
61975W        W28516   0.924  29.197  13.795
61976W        W28517  21.643  28.636   0.036
61977W        W28518  42.427  19.496   0.350
61978W        W28519  29.014   0.772  10.553
61979W        W28520   8.828  35.660   3.626
61980W        W28521  14.041  19.262   0.261
61981W        W28522  39.833   3.993  12.415
61982W        W28523  21.500  21.175   4.128
61983W        W28524  30.099  43.278  11.264
61984W        W28525  39.016  29.603  10.313
61985W        W28526  15.787  42.952   1.430
61986W        W28527  21.990   4.784  12.000
61987W        W28528  43.079   4.027   0.822
61988W        W28529   5.640  31.137   2.299
61989W        W28530   1.494   9.933  11.185
61990W        W28531  24.186  15.092   3.760
61991W        W28532   3.787  13.816  14.931
61992W        W28533  34.024  22.111  10.983
61993W        W28534   3.640  29.424  11.332
61994W        W28535  19.487   2.385  14.756
61995W        W28536  31.689  18.624   0.380
61996W        W28537  38.768  10.626   3.733
61997W        W28538  29.515  31.970  11.752
61998W        W28539   0.291  27.684   2.221
61999W        W28540   5.680  25.441  13.571
62000W        W28541  40.445   4.423  13.051
62001W        W28542  32.763  36.238  11.080
62002W        W28543  10.243  17.513   2.706
62003W        W28544  35.944  42.746  12.046
62004W        W28545   0.564  31.902  14.398
62005W        W28546  42.038  19.054  13.843
62006W        W28547   1.469  11.592   0.426
62007W        W28548  11.805  18.936   2.255
62008W        W28549  34.040   1.118   5.433
62009W        W28550  17.224   6.036   5.039
62010W        W28551  32.557  21.291  12.823
62011W        W28552  16.067  27.238   4.618
62012W        W28553   0.440  14.325  10.946
62013W        W28554   9.465   3.235   9.975
62014W        W28555  28.948   7.396  13.752
62015W        W28556   0.763  14.065   3.152
62016W        W28557  23.971  24.417  13.847
62017W        W28558  40.521  20.817   0.553
62018W        W28559  28.183  38.636  14.822
62019W        W28560  34.863  20.674   0.966
62020W        W28561   2.439   7.159   1.678
62021W        W28562  23.460  10.704  12.026
62022W        W28563  29.261  38.884   5.302
62023W        W28564  43.045  44.519  12.377
62024W        W28565  34.325  38.826   0.470
62025W        W28566  29.592  37.389  10.912
62026W        W28567  10.170  16.110  13.451
62027W        W28568  44.235  10.865   4.228
62028W        W28569  19.204   9.709   0.282
62029W        W28570  35.787   6.717   3.864
62030W        W28571   2.813  38.953   3.631
62031W        W28572  32.051   0.515   1.497
62032W        W28573   5.962  22.499  14.380
62033W        W28574  28.200  44.428   2.482
62034W        W28575  17.542  24.063   4.312
62035W        W28576   7.624  30.071  12.316
62036W        W28577  36.457  24.499  10.528
62037W        W28578   5.217  43.046   4.909
62038W        W28579  40.980  44.887  11.501
62039W        W28580   2.766  31.973   3.201
62040W        W28581  10.316  13.037   0.282
62041W        W28582   9.235  36.580  13.098
62042W        W28583  36.204  23.630   4.023
62043W        W28584  29.976  21.679  14.269
62044W        W28585  20.661  34.019  14.731
62045W        W28586  27.420  26.006  11.745
62046W        W28587  44.753  11.167  11.634
62047W        W28588  37.546   9.871  11.580
62048W        W28589  16.673  44.279   3.899
62049W        W28590   0.313  11.167  11.927
62050W        W28591  25.748  26.302  13.063
62051W        W28592  13.646   2.254   3.635
62052W        W28593  24.499   2.327   0.964
62053W        W28594  11.397  28.534   1.591
62054W        W28595  34.896  30.527   4.628
62055W        W28596  32.054   5.163  10.217
62056W        W28597  31.931  14.078   2.400
62057W        W28598  28.163  42.316  11.548
62058W        W28599  15.381  14.658   3.023
62059W        W28600   3.673  42.941   4.652
62060W        W28601  33.965   2.909  14.016
62061W        W28602  32.716  14.790   3.951
62062W        W28603   8.657  28.763  11.990
62063W        W28604  42.180  22.268  13.411
62064W        W28605   4.691  41.973  11.420
62065W        W28606  27.986  35.852  10.828
62066W        W28607  13.091  20.141  10.672
62067W        W28608  24.978  32.700  14.366
62068W        W28609  33.666  37.225  11.207
62069W        W28610   3.716  17.507   3.040
62070W        W28611  36.122  32.291   1.231
62071W        W28612   3.383  36.532   1.917
62072W        W28613  39.203  12.188   4.707
62073W        W28614  24.500   1.904   4.936
62074W        W28615  42.382  43.922  13.130
62075W        W28616  23.604  22.228   1.068
62076W        W28617  32.101  39.364  14.354
62077W        W28618   6.819  24.730   5.248
62078W        W28619  41.959  39.978   1.613
62079W        W28620  16.797   3.342   1.323
62080W        W28621   8.631  15.962   4.674
62081W        W28622  18.616  40.197  12.122
62082W        W28623   2.629  26.233  13.539
62083W        W28624   2.993  24.554   0.435
62084W        W28625  28.578   9.185  13.437
62085W        W28626  17.310   5.802   1.630
62086W        W28627  11.169  43.959  14.426
62087W        W28628  26.884  14.669   3.193
62088W        W28629  38.074  37.788   4.205
62089W        W28630  18.240  32.944  10.421
62090W        W28631  22.932  31.599   2.352
62091W        W28632  20.096  31.688   4.174
62092W        W28633   1.788  10.403  11.161
62093W        W28634  25.412   3.248   4.459
62094W        W28635  23.635  33.820   3.398
62095W        W28636   5.761  40.850  14.254
62096W        W28637   4.270  15.894  13.007
62097W        W28638  40.933  34.159   0.423
62098W        W28639  14.337   3.759   2.185
62099W        W28640  21.674  25.709  11.736
62100W        W28641   5.064  21.920  13.647
62101W        W28642  22.311  29.049   3.144
62102W        W28643  37.052  12.600  11.773
62103W        W28644   2.386  40.347   2.602
62104W        W28645  18.734   6.829   3.786
62105W        W28646   6.386   3.979  10.641
62106W        W28647  25.810  29.927   0.871
62107W        W28648  25.090  18.068   2.125
62108W        W28649  33.081  28.525  12.886
62109W        W28650  22.545   3.148   0.488
62110W        W28651  21.840   7.657  13.438
62111W        W28652   0.423  17.583   2.321
62112W        W28653  40.999   9.665   1.382
62113W        W28654  14.856  28.645  11.179
62114W        W28655  30.499  14.891   3.184
62115W        W28656  21.147  25.102   4.618
62116W        W28657   6.379   8.797   3.913
62117W        W28658  24.218  34.380   0.922
62118W        W28659  16.306  34.593   2.599
62119W        W28660   4.729  28.405  11.763
62120W        W28661   2.132  30.010   4.487
62121W        W28662  39.554  28.467   3.278
62122W        W28663   0.814  37.345   0.387
62123W        W28664  23.504  14.768  10.634
62124W        W28665  43.948   3.833   0.705
62125W        W28666  26.577  24.514   0.908
62126W        W28667  25.925  16.625  12.693
62127W        W28668  21.989   0.017  13.078
62128W        W28669  29.669   6.540   1.211
62129W        W28670   7.336  16.724  11.187
62130W        W28671  26.078  36.138   4.440
62131W        W28672  21.537  35.576  10.624
62132W        W28673  27.566  16.245   2.285
62133W        W28674  41.003  29.113  12.838
62134W        W28675   3.041  28.282   1.200
62135W        W28676  30.757   6.502  11.314
62136W        W28677  15.946  18.394  12.555
62137W        W28678  20.847   8.313  11.746
62138W        W28679  30.332  26.034   0.547
62139W        W28680  23.491  19.787   2.717
62140W        W28681  33.606  12.890  10.731
62141W        W28682  10.229  37.499   4.446
62142W        W28683  14.726  28.354  10.760
62143W        W28684  34.522  41.795  12.161
62144W        W28685  40.583  10.717   2.217
62145W        W28686  36.144  37.953  11.117
62146W        W28687  16.153  38.656  12.593
62147W        W28688  31.284  27.868   0.627
62148W        W28689  33.049   6.784  14.160
62149W        W28690  27.478   8.375   1.742
62150W        W28691  17.665   7.047  11.151
62151W        W28692  29.962   2.674   1.183
62152W        W28693  10.622  11.352  11.528
62153W        W28694   6.369   5.025   3.064
62154W        W28695  19.256  28.118   4.671
62155W        W28696  20.835  22.790   2.749
62156W        W28697   6.777  42.640  13.852
62157W        W28698   6.307  21.676   0.730
62158W        W28699   2.458  23.599  11.174
62159W        W28700  44.622  40.801   1.661
62160W        W28701  39.298  10.451   2.374
62161W        W28702  12.643  17.157  13.258
62162W        W28703  25.901  16.102   2.339
62163W        W28704  26.230  35.704   2.388
62164W        W28705   0.044  21.380  13.599
62165W        W28706  27.636  19.285  10.733
62166W        W28707  35.180  29.550  14.440
62167W        W28708  16.894  12.752  11.109
62168W        W28709  22.761  29.370  12.536
62169W        W28710   5.849   7.872  11.010
62170W        W28711  30.578   6.275  12.796
62171W        W28712  16.994  42.798   1.052
62172W        W28713  36.037  34.070  12.575
62173W        W28714  21.615  18.151  11.549
62174W        W28715  36.280  37.676  12.934
62175W        W28716  25.422   9.228  12.928
62176W        W28717   4.104  28.529  11.202
62177W        W28718  36.240  34.473  13.540
62178W        W28719  31.652  41.295   3.761
62179W        W28720  39.535  11.824  11.093
62180W        W28721  36.829  24.150   3.664
62181W        W28722  38.003  44.405   3.413
62182W        W28723  37.026  22.765  11.126
62183W        W28724  38.565  39.455  14.820
62184W        W28725   4.496  18.730  13.821
62185W        W28726  14.588  22.758   2.742
62186W        W28727  24.945  20.416   0.985
62187W        W28728  43.848   2.241  10.805
62188W        W28729  26.153  43.517   0.303
62189W        W28730  23.788  17.964  14.275
62190W        W28731  11.881  11.970  13.387
62191W        W28732  10.488  15.116  13.419
62192W        W28733  10.381  16.209   3.589
62193W        W28734  22.608  37.943  13.851
62194W        W28735  24.555  30.404  13.972
62195W        W28736   5.420  30.845   9.610
62196W        W28737  30.013  24.434   1.340
62197W        W28738  10.734  27.169   1.305
62198W        W28739  16.200  27.729   4.582
62199W        W28740   0.724  33.166   4.211
62200W        W28741   5.980   4.321  10.602
62201W        W28742   5.320  31.926  14.045
62202W        W28743  33.541  16.259   1.160
62203W        W28744  13.672  17.001   3.316
62204W        W28745  11.796  19.462   2.362
62205W        W28746   5.269  32.674  11.372
62206W        W28747  17.177  28.600   1.317
62207W        W28748  27.087  16.036  12.670
62208W        W28749  24.973  27.104   4.706
62209W        W28750  38.848   5.355  14.027
62210W        W28751  43.370  20.773   0.241
62211W        W28752  37.459  28.202  13.974
62212W        W28753  12.648   1.651   2.457
62213W        W28754   5.697  38.977  13.411
62214W        W28755  30.582  29.067  11.227
62215W        W28756  26.572  14.298  14.255
62216W        W28757  27.119  38.202  14.676
62217W        W28758   6.742  37.576   3.334
62218W        W28759   5.179  27.276   3.707
62219W        W28760  36.294  29.109   2.393
62220W        W28761  12.188  44.527  12.830
62221W        W28762  44.579  41.789   0.368
62222W        W28763  43.885  27.637  14.638
62223W        W28764  14.001  18.605  11.718
62224W        W28765  24.754  23.511  14.749
62225W        W28766   4.308  17.980   1.185
62226W        W28767   8.065   3.134  11.200
62227W        W28768  28.526   3.967  14.042
62228W        W28769  31.023  24.345   3.693
62229W        W28770  39.278  25.719  10.925
62230W        W28771   3.285   8.952  12.899
62231W        W28772  44.355  11.127  12.904
62232W        W28773  21.399  39.998   2.261
62233W        W28774  39.922  26.123   2.159
62234W        W28775  19.714   7.395   4.737
62235W        W28776  39.040   9.666   3.331
62236W        W28777  39.891   4.383   0.218
62237W        W28778  23.581  11.340   2.341
62238W        W28779  32.251  26.109  10.710
62239W        W28780   7.650  34.895  12.928
62240W        W28781   2.340  19.212  13.341
62241W        W28782  23.955  31.603  14.019
62242W        W28783  33.801  26.671   4.034
62243W        W28784  29.734  11.046  11.544
62244W        W28785  20.214  18.339   4.689
62245W        W28786   7.376  14.457   3.714
62246W        W28787  14.197   0.047  14.876
62247W        W28788   9.362  21.513   1.881
62248W        W28789   7.635  17.573  10.503
62249W        W28790   9.451  30.235  11.925
62250W        W28791  26.539  40.697   1.329
62251W        W28792  12.775  36.790  12.649
62252W        W28793  28.089  18.012  11.973
62253W        W28794   4.699  44.102   0.313
62254W        W28795  19.619  44.030   2.722
62255W        W28796  22.015  43.188  13.476
62256W        W28797  43.768  37.822   0.356
62257W        W28798  26.273  22.979  13.982
62258W        W28799  26.149   0.291  14.215
62259W        W28800   6.449  10.742  12.091
62260W        W28801   4.882  22.090   4.593
62261W        W28802  29.133  20.625   2.000
62262W        W28803  36.364  17.211  14.401
62263W        W28804  38.968   6.717   2.957
62264W        W28805  16.190  38.662  14.491
62265W        W28806  38.228  36.475  10.544
62266W        W28807  44.558  27.922   2.955
62267W        W28808   4.781  27.452  11.693
62268W        W28809  19.307  41.357  12.696
62269W        W28810   0.982  15.018  14.493
62270W        W28811  32.530   3.015  11.999
62271W        W28812  18.162  13.356   4.938
62272W        W28813   6.927  42.864   1.785
62273W        W28814  33.457  27.461  11.879
62274W        W28815  34.489   2.401   0.609
62275W        W28816   0.945  13.159   4.574
62276W        W28817  30.581  35.839   2.818
62277W        W28818  41.190  23.601   4.267
62278W        W28819  18.306   0.801   2.881
62279W        W28820  27.125  14.825  11.212
62280W        W28821  28.502  23.002  13.996
62281W        W28822  32.649  39.521   3.152
62282W        W28823  23.489  36.605   1.779
62283W        W28824  19.571  23.243   0.321
62284W        W28825  23.001   5.757  10.763
62285W        W28826  11.191   6.086  11.094
62286W        W28827   0.975  21.241  10.740
62287W        W28828  14.740   6.668  14.043
62288W        W28829  42.436  17.737   2.886
62289W        W28830  33.645  19.192  12.896
62290W        W28831   5.949   5.827   2.248
62291W        W28832  18.375   1.954   3.546
62292W        W28833   4.107   5.426  13.124
62293W        W28834  25.738  41.364  12.494
62294W        W28835  43.176  31.476   2.304
62295W        W28836  40.066  29.673   1.909
62296W        W28837   8.607  20.764  10.679
62297W        W28838  34.177  19.120   2.352
62298W        W28839  41.715  16.776  11.659
62299W        W28840  17.167  11.304   0.931
62300W        W28841  16.866  11.653  12.486
62301W        W28842   6.864  40.098  13.396
62302W        W28843  11.173   8.780   3.558
62303W        W28844  17.221  14.818   5.206
62304W        W28845   0.716   8.350   2.782
62305W        W28846  19.610  36.918  13.467
62306W        W28847  18.185   9.767  13.051
62307W        W28848  17.783  12.736  13.767
62308W        W28849  43.891  43.951   2.806
62309W        W28850  41.632  38.374  12.801
62310W        W28851  12.507   0.862  11.013
62311W        W28852  21.180  35.087   1.705
62312W        W28853   7.963   2.439   2.688
62313W        W28854   4.240  39.560   0.831
62314W        W28855  11.948   7.958   3.941
62315W        W28856  37.993  10.314  11.839
62316W        W28857  37.289  23.097  13.505
62317W        W28858   2.974  29.021   4.024
62318W        W28859  15.755   4.455   2.746
62319W        W28860  10.074  38.625   5.049
62320W        W28861  38.559   5.139   3.406
62321W        W28862  34.253  38.898   2.405
62322W        W28863  35.001  24.477   1.631
62323W        W28864  42.329  25.007  13.008
62324W        W28865  35.587   5.414  11.158
62325W        W28866  27.481  16.593   2.712
62326W        W28867   6.938  24.199   0.259
62327W        W28868   6.495  31.472  14.835
62328W        W28869  36.432  38.859  10.329
62329W        W28870  16.735  12.038   4.894
62330W        W28871  12.462  19.577  14.377
62331W        W28872  36.023  34.328  13.018
62332W        W28873  30.738  10.338   4.550
62333W        W28874  21.105  14.548   0.726
62334W        W28875  30.029  36.355  14.235
62335W        W28876  32.425  20.107  13.942
62336W        W28877  14.276   3.922  11.413
62337W        W28878   9.283  16.245   3.141
62338W        W28879  15.532  35.995   1.655
62339W        W28880  18.476   7.246   2.635
62340W        W28881  23.826   3.169   4.079
62341W        W28882   5.724   5.404   3.782
62342W        W28883  32.053  37.874   5.000
62343W        W28884  18.771  41.475   3.531
62344W        W28885  38.047  28.742  11.096
62345W        W28886  15.319  11.574  13.735
62346W        W28887  34.418  30.965   3.609
62347W        W28888  44.184   0.179   3.075
62348W        W28889  30.165  39.396   2.319
62349W        W28890  32.196  24.689  13.892
62350W        W28891   3.153  41.941   2.392
62351W        W28892  27.895  42.797   4.036
62352W        W28893  30.042  36.829  13.370
62353W        W28894  36.663  12.361  13.984
62354W        W28895  21.593  34.189  14.351
62355W        W28896  33.357   4.236  11.783
62356W        W28897   3.152  33.476  14.442
62357W        W28898   7.001  24.481  12.097
62358W        W28899  39.977   2.768  12.563
62359W        W28900   8.091  17.426   3.399
62360W        W28901  11.218  35.059   4.684
62361W        W28902  28.651   8.344  10.667
62362W        W28903   8.734  23.006  13.527
62363W        W28904   4.274  35.650   2.157
62364W        W28905  16.851  34.542   0.428
62365W        W28906   7.987  16.629  14.371
62366W        W28907   9.924  28.373  12.902
62367W        W28908  42.204  33.081  12.143
62368W        W28909  30.798  10.764  12.437
62369W        W28910  41.381   3.973   1.388
62370W        W28911   0.983  21.561   2.428
62371W        W28912  16.648   7.185   3.255
62372W        W28913  28.450  22.887   4.881
62373W        W28914  25.187  20.654  10.964
62374W        W28915  28.386  14.061  13.799
62375W        W28916  12.389  34.637   0.359
62376W        W28917  28.062  32.983  10.343
62377W        W28918  11.952  40.084  12.414
62378W        W28919  29.380  16.629  11.059
62379W        W28920  11.420  20.918   0.806
62380W        W28921  15.089   3.373   4.912
62381W        W28922   6.769  24.547  10.282
62382W        W28923  35.330  14.309   2.276
62383W        W28924  10.122  31.990  10.962
62384W        W28925  29.712  38.625   3.669
62385W        W28926  22.608  27.415  13.970
62386W        W28927   4.842   3.420  13.828
62387W        W28928  40.216  27.636   4.627
62388W        W28929  30.543  20.775  14.364
62389W        W28930  23.701   8.294   2.952
62390W        W28931  31.623  19.623   4.135
62391W        W28932  11.138   2.443  13.011
62392W        W28933  34.656  13.697  14.016
62393W        W28934  41.403   6.884   2.234
62394W        W28935  15.177  12.279  10.933
62395W        W28936   6.353  43.691   3.475
62396W        W28937  20.187  10.647   1.370
62397W        W28938  40.818  35.546   1.650
62398W        W28939  43.433   0.774  13.855
62399W        W28940  23.211  24.997  13.831
62400W        W28941   1.091   4.165   0.946
62401W        W28942  11.141  40.417   1.787
62402W        W28943  44.627  15.054   3.690
62403W        W28944  13.246  34.014   0.006
62404W        W28945  27.007  23.553   3.740
62405W        W28946   0.731  15.198   4.421
62406W        W28947   7.786  26.974   4.066
62407W        W28948  31.211  10.171  14.428
62408W        W28949  39.459   2.504   4.156
62409W        W28950  37.859  41.009  13.320
62410W        W28951  17.764  25.544  13.799
62411W        W28952  27.466  40.474  12.787
62412W        W28953  36.872  43.524   2.381
62413W        W28954  16.112  33.589  12.321
62414W        W28955  44.970  21.234   4.641
62415W        W28956  11.243   8.154   1.313
62416W        W28957  17.018  26.748  11.054
62417W        W28958   2.276  16.220   1.576
62418W        W28959  40.933  26.489   1.429
62419W        W28960  39.928  44.985  11.515
62420W        W28961  32.533  36.144  13.313
62421W        W28962  29.944  39.083  14.135
62422W        W28963  30.443  26.710  14.082
62423W        W28964  37.507  18.592   5.046
62424W        W28965  12.764  15.103  10.493
62425W        W28966   0.234   4.680   1.442
62426W        W28967  38.044   9.814   0.867
62427W        W28968  40.806  11.792   2.220
62428W        W28969  27.082  38.998  10.107
62429W        W28970  36.210  25.713  13.686
62430W        W28971  32.201  43.736  11.796
62431W        W28972  21.596  30.304   4.078
62432W        W28973  44.820  10.218  11.162
62433W        W28974  30.091  26.513  11.078
62434W        W28975  37.925  34.331   1.714
62435W        W28976  22.949  42.466   2.744
62436W        W28977   0.714  26.479   4.972
62437W        W28978  11.823  40.381  14.373
62438W        W28979  28.105  11.669   1.049
62439W        W28980  33.810  17.801   5.077
62440W        W28981  15.233  28.910   2.429
62441W        W28982  28.120   2.225  11.187
62442W        W28983  31.523  10.597  12.803
62443W        W28984  10.715   8.923  12.544
62444W        W28985  26.515  31.577   2.719
62445W        W28986  13.389  14.632   1.368
62446W        W28987   1.758  20.683   4.638
62447W        W28988   3.487  37.924   0.726
62448W        W28989  31.486  38.246   3.623
62449W        W28990  25.050  32.192  11.156
62450W        W28991  37.935   8.472   2.013
62451W        W28992  17.276  11.867   4.273
62452W        W28993   3.946  24.961  11.425
62453W        W28994  38.882  32.998   1.920
62454W        W28995  30.116  16.821   2.505
62455W        W28996  12.991  27.224  13.022
62456W        W28997   2.724  42.417  14.909
62457W        W28998  10.959  41.060   1.094
62458W        W28999   6.387  16.200  11.995
62459W        W29000  41.331  17.258  14.365
62460W        W29001   4.920  26.110   4.346
62461W        W29002  12.525  15.558   9.878
62462W        W29003   1.132   2.933  14.261
62463W        W29004   3.733  29.131   4.995
62464W        W29005  25.002  35.968  11.458
62465W        W29006  15.767  10.726   0.384
62466W        W29007  22.021  16.344   1.300
62467W        W29008  12.234  29.213   1.997
62468W        W29009  43.886   3.050  12.126
62469W        W29010  16.795  30.962  14.863
62470W        W29011  36.843  25.031   0.215
62471W        W29012  27.552   1.444   1.488
62472W        W29013   6.510  38.631  14.456
62473W        W29014   4.938  14.822  12.553
62474W        W29015   9.218  19.746   4.999
62475W        W29016  17.281  24.017   0.217
62476W        W29017  42.941  43.029  12.049
62477W        W29018  41.402  43.287  14.286
62478W        W29019  20.106  26.829  14.263
62479W        W29020  43.017  18.484  13.075
62480W        W29021  20.577  13.033   3.305
62481W        W29022   4.162  19.663   1.819
62482W        W29023  28.591  33.339   1.535
62483W        W29024  31.401   9.195  10.784
62484W        W29025  30.143  42.206  13.942
62485W        W29026   9.036  12.293  13.776
62486W        W29027  25.200  20.976  13.438
62487W        W29028  42.765  44.484   1.704
62488W        W29029  26.581  16.706   0.009
62489W        W29030  24.525  26.127   3.928
62490W        W29031  21.099  11.621  12.962
62491W        W29032  22.133  32.614  13.678
62492W        W29033  10.396  29.621  12.125
62493W        W29034  20.623   6.336   0.973
62494W        W29035   8.327  36.354  11.111
62495W        W29036  35.427   2.862  11.649
62496W        W29037  20.478  38.718  11.080
62497W        W29038  14.830   4.355   0.338
62498W        W29039  36.406  20.282   0.881
62499W        W29040  44.510  11.290   1.874
62500W        W29041   8.361  10.643   2.249
62501W        W29042  11.821  27.595  12.055
62502W        W29043   3.798  40.210   1.873
62503W        W29044  11.964   8.711  12.846
62504W        W29045  36.131   3.618   1.776
62505W        W29046  42.643  35.511   2.696
62506W        W29047  32.665  20.826  14.401
62507W        W29048   2.852  21.169   3.936
62508W        W29049  21.482  32.374   2.582
62509W        W29050  29.230  11.988   5.209
62510W        W29051  20.601  29.195  11.163
62511W        W29052   3.268  20.708   0.047
62512W        W29053  32.479  31.894  14.039
62513W        W29054  20.665  30.916   2.191
62514W        W29055  26.505  39.313  13.191
62515W        W29056   2.954  43.479  11.880
62516W        W29057  35.380  32.536  13.948
62517W        W29058  35.328  33.657  14.063
62518W        W29059  31.020  19.753   1.470
62519W        W29060  33.878  19.681  10.113
62520W        W29061   8.422   0.316   1.921
62521W        W29062  11.171  13.672   2.783
62522W        W29063  20.257   5.063   4.175
62523W        W29064  12.593  37.863  13.540
62524W        W29065  30.537   1.294   1.031
62525W        W29066  39.273  30.449   1.138
62526W        W29067  43.545   9.330  13.827
62527W        W29068   3.310  38.299   4.221
62528W        W29069  27.211   5.195  11.628
62529W        W29070  35.609  35.023  13.319
62530W        W29071  43.842  20.110   1.463
62531W        W29072  39.362   9.704  12.833
62532W        W29073   0.849  41.551   2.380
62533W        W29074  28.962   0.240   4.171
62534W        W29075   3.068  28.701   2.746
62535W        W29076  33.143  24.465  14.173
62536W        W29077  36.714  23.712   3.913
62537W        W29078  16.526  43.184  13.938
62538W        W29079  30.540  17.377   5.010
62539W        W29080  41.988  13.629   0.490
62540W        W29081  14.098  11.698  12.792
62541W        W29082  14.137  17.500  13.583
62542W        W29083  13.700  34.027   4.035
62543W        W29084  15.013  37.473  13.891
62544W        W29085  42.375  32.878  14.091
62545W        W29086  14.638  17.169  11.064
62546W        W29087   3.635  35.310   2.274
62547W        W29088  20.331   3.406  11.950
62548W        W29089  43.604  11.897  11.158
62549W        W29090  43.312  36.920  14.298
62550W        W29091  41.306  38.300  11.668
62551W        W29092  20.770  41.150  13.937
62552W        W29093  13.637  18.898   2.730
62553W        W29094  41.948  18.568   2.845
62554W        W29095  38.243  37.810  12.926
62555W        W29096  23.175  43.248   0.443
62556W        W29097  39.138  44.963  11.922
62557W        W29098   9.254  34.045  13.747
62558W        W29099  15.864  12.670   3.850
62559W        W29100  24.234  19.596   0.378
62560W        W29101   2.289  35.426   0.964
62561W        W29102  19.047   8.730  11.027
62562W        W29103  16.183  36.103  13.456
62563W        W29104  35.917  22.673  14.805
62564W        W29105   1.298   5.162  10.322
62565W        W29106  37.688  13.182   3.791
62566W        W29107   6.870  40.644  10.338
62567W        W29108  30.600  29.406  12.215
62568W        W29109   5.367  16.211   1.372
62569W        W29110   1.435  20.920  10.618
62570W        W29111  44.557  34.926  10.222
62571W        W29112  39.739   0.326   0.428
62572W        W29113  24.657   3.784  13.660
62573W        W29114  28.149  35.600  12.581
62574W        W29115  29.617  33.385   1.334
62575W        W29116   7.345  31.858  11.170
62576W        W29117  17.679  19.948   2.872
62577W        W29118  30.879  38.550  13.224
62578W        W29119  32.594   1.245  13.113
62579W        W29120  38.043  26.552   2.632
62580W        W29121   9.552   8.653  10.236
62581W        W29122  14.320   1.355  10.994
62582W        W29123  11.744  16.523   3.931
62583W        W29124  43.686   2.470   0.983
62584W        W29125  26.117  38.916  11.409
62585W        W29126   6.395  42.379  13.333
62586W        W29127  30.167  26.315  12.996
62587W        W29128   5.659  15.111  11.679
62588W        W29129  12.111  36.049  10.805
62589W        W29130  10.772  32.020   2.753
62590W        W29131  26.025  36.324  12.239
62591W        W29132  20.624  43.985   0.335
62592W        W29133  10.219   2.236   4.609
62593W        W29134  35.632  31.920  12.282
62594W        W29135  35.091  43.899  11.644
62595W        W29136   7.823  16.280   1.542
62596W        W29137  28.829  13.116  11.385
62597W        W29138  13.999  39.838  10.621
62598W        W29139  33.264  37.337   3.885
62599W        W29140  29.924   8.874   1.304
62600W        W29141  21.442  14.287  12.557
62601W        W29142   6.301   4.312   2.266
62602W        W29143  26.873  44.320  14.238
62603W        W29144  33.299   1.709  13.899
62604W        W29145  19.766  20.128   0.723
62605W        W29146  32.715  27.013   3.525
62606W        W29147  42.743  20.323   4.922
62607W        W29148   2.999   6.718  11.105
62608W        W29149  23.592  12.732   1.363
62609W        W29150  22.024   7.598  13.919
62610W        W29151  14.253  34.739  12.586
62611W        W29152  12.698  28.511   3.475
62612W        W29153   8.349  35.931  10.456
62613W        W29154   7.790  31.879   2.187
62614W        W29155  33.511  23.493   1.888
62615W        W29156  42.954  33.619   2.276
62616W        W29157  42.855   0.209  11.326
62617W        W29158  31.572   7.823  11.622
62618W        W29159  33.001  22.723  13.190
62619W        W29160  41.442   4.310  13.531
62620W        W29161  36.313  36.119  12.080
62621W        W29162  17.237  38.535   0.407
62622W        W29163  43.226  12.260   0.722
62623W        W29164  29.453  44.716  14.844
62624W        W29165  37.893   7.155   2.805
62625W        W29166  31.232  28.988  11.935
62626W        W29167   9.185  36.590   2.813
62627W        W29168  34.527   4.065  12.388
62628W        W29169  26.153   6.817  11.164
62629W        W29170  23.847  19.245  10.728
62630W        W29171   8.173   0.200   2.703
62631W        W29172  23.204   9.271  14.018
62632W        W29173   9.122   9.291  13.328
62633W        W29174  11.346  32.883   2.622
62634W        W29175  28.948   3.510  11.174
62635W        W29176  24.904  40.773  10.594
62636W        W29177   6.428  29.771   0.325
62637W        W29178  23.527   5.487   0.034
62638W        W29179  32.156   8.777   4.305
62639W        W29180  27.071   2.313  12.065
62640W        W29181   0.698  30.029  11.593
62641W        W29182  17.667  42.898  14.252
62642W        W29183   1.763   4.793   2.299
62643W        W29184   9.414  13.420  12.802
62644W        W29185  17.243  41.037   2.765
62645W        W29186  39.422  19.849   2.870
62646W        W29187   3.286  43.703  10.752
62647W        W29188  13.588  39.520  11.459
62648W        W29189  17.273  20.898   2.225
62649W        W29190  26.564   2.380  13.386
62650W        W29191  21.159   7.282  13.118
62651W        W29192  13.895  10.490  14.320
62652W        W29193  35.620   6.733   0.485
62653W        W29194  29.514   3.806   0.959
62654W        W29195  20.561   0.359   3.874
62655W        W29196  37.341   3.740   3.675
62656W        W29197  11.653  19.461  11.443
62657W        W29198  41.955  29.490   2.261
62658W        W29199   1.697  36.951   1.047
62659W        W29200   1.004  15.440   4.034
62660W        W29201  28.723  22.523  14.856
62661W        W29202  22.907  41.094  10.242
62662W        W29203  40.604   8.528  12.135
62663W        W29204   4.500   0.682  10.677
62664W        W29205  22.134   7.269   2.763
62665W        W29206   6.814   2.425   4.497
62666W        W29207   8.431  14.106  12.657
62667W        W29208  28.578  13.597   3.695
62668W        W29209  12.813  38.567  12.051
62669W        W29210  33.292  15.278  14.446
62670W        W29211  30.215   7.739  13.728
62671W        W29212  22.471  39.854  10.699
62672W        W29213  33.445  40.511  12.911
62673W        W29214  11.679  33.027   0.220
62674W        W29215  27.945  39.819   0.361
62675W        W29216   1.948  44.765   3.824
62676W        W29217  38.777  16.222   3.273
62677W        W29218  13.241  35.384   0.133
62678W        W29219  20.225  37.463   0.401
62679W        W29220  14.824  23.223  12.712
62680W        W29221  18.727  38.408  10.479
62681W        W29222  27.809  39.736  13.409
62682W        W29223  10.095  44.834   3.647
62683W        W29224  30.409  19.108   1.361
62684W        W29225  44.821  40.460  10.247
62685W        W29226  17.723  30.146  14.469
62686W        W29227  37.295  38.024   0.885
62687W        W29228  13.152  18.040  12.898
62688W        W29229  34.326  18.784  13.394
62689W        W29230   2.473  21.998   4.442
62690W        W29231  34.719  37.576  13.037
62691W        W29232  25.687  17.409   0.447
62692W        W29233   6.845   2.678   2.256
62693W        W29234  38.487   0.122   1.057
62694W        W29235  29.006   4.563   3.825
62695W        W29236  25.276   5.366   1.707
62696W        W29237  30.126  23.834  12.793
62697W        W29238  29.813  23.819  13.382
62698W        W29239  32.871  42.191   3.104
62699W        W29240  25.740  32.503   3.194
62700W        W29241  12.637  22.471   3.538
62701W        W29242  33.491   6.277   0.771
62702W        W29243   9.608  24.288   0.550
62703W        W29244  39.982  21.656   0.247
62704W        W29245   7.465  14.360   1.372
62705W        W29246  43.421  30.399  11.277
62706W        W29247  39.921  12.398   2.377
62707W        W29248  35.865  34.867  14.724
62708W        W29249  36.959  35.994   2.357
62709W        W29250  31.312  22.160  14.609
62710W        W29251  25.742   1.833   1.351
62711W        W29252  24.470  10.234   1.427
62712W        W29253  28.991  18.105   4.582
62713W        W29254  12.676  29.610   4.208
62714W        W29255  26.806   9.745   1.901
62715W        W29256  44.633  29.421  14.898
62716W        W29257  24.581   9.711   1.728
62717W        W29258   4.119  26.403   4.061
62718W        W29259  29.344  34.058   4.278
62719W        W29260  30.621  28.090   5.016
62720W        W29261  12.193  40.705  10.835
62721W        W29262  13.735  10.322  12.255
62722W        W29263  41.027   1.207   2.258
62723W        W29264  15.727  11.416   2.832
62724W        W29265  14.362  40.777  14.285
62725W        W29266  27.975  42.378   3.403
62726W        W29267  38.549  29.157  14.361
62727W        W29268   3.663  22.669   0.419
62728W        W29269   6.761   6.045   0.529
62729W        W29270  22.916  11.763   2.379
62730W        W29271   6.273  43.453   0.528
62731W        W29272  28.956   8.191  14.387
62732W        W29273  19.714  43.736  13.119
62733W        W29274  26.389  26.881  12.119
62734W        W29275  10.312  14.064  14.058
62735W        W29276   1.262  19.695   0.065
62736W        W29277   8.334  38.561  10.753
62737W        W29278  15.292  37.272  11.849
62738W        W29279  25.950  14.235  14.499
62739W        W29280  30.367  15.352  10.630
62740W        W29281  38.911  32.354   4.449
62741W        W29282  29.329  33.185  14.926
62742W        W29283  14.880  22.266  13.578
62743W        W29284  28.828  18.507   3.279
62744W        W29285  26.208  32.829  12.437
62745W        W29286  12.872  15.201  13.711
62746W        W29287  30.374  31.088   2.693
62747W        W29288  29.670  23.924   3.765
62748W        W29289  10.145  28.410   0.924
62749W        W29290  28.053  19.056  10.914
62750W        W29291  44.513   9.381   3.231
62751W        W29292  38.796  41.296  10.078
62752W        W29293  33.567   7.699   4.519
62753W        W29294   6.009   0.553   1.756
62754W        W29295  24.866  33.175   4.660
62755W        W29296  44.969  42.161  11.183
62756W        W29297   7.130  38.340   0.270
62757W        W29298  38.271  12.932   2.316
62758W        W29299  30.884  15.524   0.757
62759W        W29300  44.998   5.974   4.918
62760W        W29301   1.869  16.867   3.654
62761W        W29302  13.033   2.564   0.741
62762W        W29303  29.135  26.114  14.890
62763W        W29304  19.550  12.349  14.591
62764W        W29305  44.773  41.946   3.178
62765W        W29306  44.991  22.093  13.502
62766W        W29307  33.217  36.547   4.043
62767W        W29308  37.416   2.892   1.183
62768W        W29309  41.277  32.410  14.936
62769W        W29310  32.449   3.395   0.821
62770W        W29311  25.448  41.480  10.758
62771W        W29312  31.524  18.181   1.550
62772W        W29313  21.147   0.247  10.496
62773W        W29314  10.872  31.950   4.534
62774W        W29315   5.937  28.926   4.698
62775W        W29316   2.540   2.887   0.814
62776W        W29317  16.676  34.673  14.317
62777W        W29318   0.341  24.307  12.970
62778W        W29319  41.400  44.911  11.186
62779W        W29320  20.268  29.142  14.490
62780W        W29321  16.527  26.043  14.805
62781W        W29322  43.975   8.562   2.330
62782W        W29323   5.744  25.222   3.569
62783W        W29324  42.123  15.653   3.194
62784W        W29325   6.887  27.198  13.539
62785W        W29326  20.368  16.676  12.005
62786W        W29327   5.703   6.800   0.927
62787W        W29328  12.692   6.480  14.906
62788W        W29329  13.319  22.628  12.434
62789W        W29330   2.372  20.653   3.773
62790W        W29331  16.657  14.667   2.255
62791W        W29332   1.887   9.146   1.799
62792W        W29333  39.990  42.708   3.400
62793W        W29334   0.438   8.355   1.357
62794W        W29335   4.491   3.250   1.992
62795W        W29336  21.207  43.792  11.111
62796W        W29337  38.938  37.775   2.797
62797W        W29338  13.318  34.990  11.597
62798W        W29339  22.566  44.229   3.663
62799W        W29340   4.569  25.607   2.365
62800W        W29341  44.148   6.782  13.909
62801W        W29342  39.490  23.052   1.755
62802W        W29343   4.786  35.895  11.735
62803W        W29344   3.782  38.130  12.926
62804W        W29345  27.669  20.584  12.597
62805W        W29346  18.568  37.404   0.591
62806W        W29347  13.124  28.188   3.455
62807W        W29348  16.608   1.239  13.813
62808W        W29349   6.549  27.881  11.591
62809W        W29350  29.723   6.289  11.238
62810W        W29351  36.404  19.620   4.641
62811W        W29352  12.538   5.163   1.279
62812W        W29353   8.928  21.299   3.254
62813W        W29354   9.913  25.644  12.890
62814W        W29355  25.877  14.545  13.121
62815W        W29356  43.293  28.009   4.939
62816W        W29357  10.100  39.131  14.305
62817W        W29358  43.715   4.843   1.288
62818W        W29359  25.287  28.953   4.677
62819W        W29360  11.143   8.156  11.619
62820W        W29361  19.184   1.242   1.330
62821W        W29362   8.891  11.411   4.043
62822W        W29363   6.436  26.606   1.273
62823W        W29364   1.925   7.068   3.719
62824W        W29365  30.013  36.643   2.547
62825W        W29366  34.109  35.286  14.351
62826W        W29367  16.396  37.405  14.795
62827W        W29368  35.523  11.337   2.715
62828W        W29369  34.856  29.179   4.648
62829W        W29370  25.229  40.486  13.857
62830W        W29371  25.728  13.704   4.823
62831W        W29372  28.968  19.462  14.809
62832W        W29373  19.437  25.749  12.724
62833W        W29374  20.621   5.426   4.319
62834W        W29375  22.628   5.720   3.308
62835W        W29376  27.245  24.604  13.051
62836W        W29377  10.248  25.090   0.025
62837W        W29378  40.442  26.972   2.930
62838W        W29379  37.050   7.668  11.563
62839W        W29380  42.083  23.668   1.334
62840W        W29381   9.365   1.472  12.858
62841W        W29382  20.511  19.710  11.116
62842W        W29383  34.981  22.117  10.509
62843W        W29384  16.369   1.926  13.474
62844W        W29385  11.301   5.765  13.575
62845W        W29386  38.868   6.466   1.903
62846W        W29387  22.675  33.961  11.780
62847W        W29388  41.397  40.410   4.087
62848W        W29389  38.491  23.105  13.600
62849W        W29390   0.961  19.060  14.873
62850W        W29391  20.154  26.636   2.148
62851W        W29392  10.013  41.452   4.177
62852W        W29393   2.117  23.556   2.452
62853W        W29394  19.139  10.448   1.484
62854W        W29395   2.899  21.699  14.462
62855W        W29396  43.805  15.631   2.356
62856W        W29397  16.837  37.249   3.712
62857W        W29398  44.376  11.619   0.791
62858W        W29399  24.053  28.721  13.685
62859W        W29400  43.561  23.527   0.568
62860W        W29401  44.875  13.326   3.186
62861W        W29402  26.988  22.543  12.994
62862W        W29403   3.519  24.732   2.787
62863W        W29404   2.143  37.548  10.970
62864W        W29405   8.163  35.821  14.472
62865W        W29406  31.219  20.771  13.322
62866W        W29407  44.969  37.445  12.354
62867W        W29408   2.778  27.902  12.872
62868W        W29409  19.087  25.892  13.094
62869W        W29410  24.086  32.432  12.158
62870W        W29411  27.026  35.178  12.968
62871W        W29412  26.958  16.269  14.092
62872W        W29413  35.240  30.406   2.935
62873W        W29414  43.787  34.043   1.961
62874W        W29415  27.948  27.473   4.653
62875W        W29416   5.246   8.229  11.031
62876W        W29417  32.526  12.386   2.095
62877W        W29418   1.008  30.814   1.276
62878W        W29419  28.118  10.155  11.538
62879W        W29420  17.422  21.743   0.278
62880W        W29421  41.306  34.873   0.049
62881W        W29422  35.261  32.386   0.352
62882W        W29423  42.616  31.696  11.168
62883W        W29424  34.746  25.749   2.341
62884W        W29425  33.687   5.761   4.992
62885W        W29426  17.467  13.149  13.912
62886W        W29427   0.953  26.527  12.148
62887W        W29428   8.278  20.643   4.812
62888W        W29429  22.607   4.797   9.659
62889W        W29430  28.474  25.215  13.294
62890W        W29431  14.857  10.911  14.960
62891W        W29432   5.251  38.345  14.813
62892W        W29433  27.261  33.452   2.168
62893W        W29434  30.381   4.289   4.122
62894W        W29435  39.659  19.857   1.914
62895W        W29436  31.402  41.034   3.360
62896W        W29437  41.731  36.008   0.373
62897W        W29438  38.099   5.921   1.686
62898W        W29439  35.865   5.600  10.030
62899W        W29440  43.020   4.735  14.855
62900W        W29441  12.281  41.882   2.834
62901W        W29442   3.876  11.847   3.077
62902W        W29443  36.623   0.286  11.067
62903W        W29444  19.140  26.301  13.919
62904W        W29445   1.899  34.058  13.827
62905W        W29446  12.774  11.522   4.279
62906W        W29447  12.919   1.818  11.211
62907W        W29448   4.354  41.075  14.719
62908W        W29449  30.088  35.099   2.824
62909W        W29450  29.260  25.394  13.466
62910W        W29451  39.241  40.734  12.395
62911W        W29452  27.668  36.482  10.979
62912W        W29453  17.815  28.679   3.681
62913W        W29454  12.150  42.889   2.574
62914W        W29455  44.942  25.984  11.237
62915W        W29456  16.189   2.319  14.965
62916W        W29457   7.351  40.853   3.361
62917W        W29458  10.823  36.631   3.666
62918W        W29459  19.882  22.272  13.984
62919W        W29460  44.286  20.561  11.087
62920W        W29461  14.618  36.956  11.950
62921W        W29462  25.969  39.042  12.492
62922W        W29463   4.391   8.118   2.738
62923W        W29464  22.710  33.183   5.364
62924W        W29465  20.341   1.961   3.200
62925W        W29466  26.527  28.452  14.766
62926W        W29467   8.946  33.987  11.488
62927W        W29468  33.068   6.373   3.744
62928W        W29469   0.225  41.159  12.838
62929W        W29470  20.193  39.398  13.960
62930W        W29471  37.555  34.798   2.324
62931W        W29472  29.819   1.421  11.387
62932W        W29473   6.489  11.437   3.601
62933W        W29474  41.458  10.475  13.332
62934W        W29475  18.558  33.396  11.131
62935W        W29476  25.743  13.667   2.877
62936W        W29477  27.766  37.381   4.553
62937W        W29478  14.042  24.214   0.033
62938W        W29479  38.322  25.443  12.169
62939W        W29480  21.212  27.572   3.691
62940W        W29481  12.464   6.885   0.701
62941W        W29482  13.031  25.786   1.114
62942W        W29483  29.665  30.583   2.665
62943W        W29484  16.032  27.887  11.662
62944W        W29485  33.371  38.570   0.285
62945W        W29486   4.708   1.492   2.407
62946W        W29487  41.742  25.134  14.592
62947W        W29488  30.958  36.325  14.808
62948W        W29489   8.827  19.661  11.285
62949W        W29490  12.183  43.735  14.503
62950W        W29491   8.227  15.013   2.579
62951W        W29492   4.850   0.216  11.935
62952W        W29493  42.030  15.249  12.515
62953W        W29494  29.523  33.905   4.728
62954W        W29495  29.917   2.541   1.708
62955W        W29496   4.103  33.449   0.008
62956W        W29497   7.801  21.936  12.443
62957W        W29498  44.964  14.108   1.782
62958W        W29499  36.015  27.302   0.720
62959W        W29500  14.095  23.428  14.747
62960W        W29501  43.909  29.156   3.290
62961W        W29502  22.039  30.127  11.165
62962W        W29503  18.782  17.281   1.291
62963W        W29504  38.450   0.226  12.942
62964W        W29505  35.938   4.997  14.046
62965W        W29506   7.161  23.626   3.356
62966W        W29507  27.159  35.334   0.736
62967W        W29508  41.967  30.688   4.160
62968W        W29509  28.494  34.120  10.663
62969W        W29510  40.889  31.415   2.413
62970W        W29511  19.906  29.314  11.569
62971W        W29512  26.069  16.629   0.776
62972W        W29513  13.110  32.180   4.899
62973W        W29514  23.042  29.477  13.405
62974W        W29515   2.164  23.932   1.229
62975W        W29516  42.679  26.290   0.842
62976W        W29517  38.289  34.076  11.586
62977W        W29518   0.915   3.374  14.426
62978W        W29519  34.062  25.896  14.395
62979W        W29520  14.063   6.106   2.764
62980W        W29521  33.389  28.986   4.702
62981W        W29522   1.915   8.435  14.727
62982W        W29523  20.586  36.438  13.042
62983W        W29524  44.163  19.574  12.222
62984W        W29525  12.144  17.170  14.049
62985W        W29526  13.300  12.250   4.111
62986W        W29527  11.129  26.151  12.697
62987W        W29528  36.865  43.017  14.585
62988W        W29529  42.993  13.648   3.361
62989W        W29530  38.196  11.205  14.737
62990W        W29531  25.496  34.147  14.233
62991W        W29532  20.277  39.815   2.842
62992W        W29533   6.781  21.749   1.459
62993W        W29534  35.733  30.851  11.029
62994W        W29535  26.729  16.802  12.107
62995W        W29536  41.312  26.685  14.930
62996W        W29537   1.713  37.257  14.890
62997W        W29538  30.454  22.394   0.721
62998W        W29539  23.097  36.452   4.586
62999W        W29540  15.300  29.286  12.734
63000W        W29541  27.531  11.449   0.417
63001W        W29542  16.504  14.209   5.010
63002W        W29543  11.876  42.335  13.420
63003W        W29544   2.545  30.903  13.963
63004W        W29545  18.769  28.921  14.914
63005W        W29546  37.826  11.114  13.279
63006W        W29547  38.733  25.211   4.615
63007W        W29548  32.977  23.207   1.741
63008W        W29549  37.359   3.900   1.122
63009W        W29550   8.888   3.347  13.877
63010W        W29551  35.974  24.582   1.935
63011W        W29552  38.302   2.758  13.931
63012W        W29553   9.323   3.676   2.312
63013W        W29554  35.263  26.753   4.648
63014W        W29555  24.806  41.047   1.845
63015W        W29556  44.931  27.564  12.946
63016W        W29557  14.203  12.583  12.557
63017W        W29558  34.146  25.717  12.814
63018W        W29559  27.667   7.942  11.183
63019W        W29560  29.996   9.995  14.733
63020W        W29561  39.381  19.537  10.742
63021W        W29562  41.347  35.032   0.536
63022W        W29563  15.263  25.104   4.057
63023W        W29564  36.390   5.275  13.983
63024W        W29565  42.420  31.796  11.671
63025W        W29566  16.083   4.649   4.705
63026W        W29567  26.201  40.768  11.549
63027W        W29568  29.449  16.652   0.209
63028W        W29569   3.894  13.244   3.175
63029W        W29570   6.718  28.369  11.644
63030W        W29571  35.779   0.711   3.185
63031W        W29572  10.201  32.850  11.696
63032W        W29573  13.483  32.690  11.123
63033W        W29574  14.123  33.106   1.229
63034W        W29575  25.416  41.886  13.323
63035W        W29576  36.517  26.574   0.694
63036W        W29577  40.730   6.772   3.576
63037W        W29578  30.331  32.929  12.027
63038W        W29579  12.214  43.250  14.250
63039W        W29580   9.970   3.739   4.237
63040W        W29581   4.417   5.083  12.404
63041W        W29582   5.929  38.754   2.393
63042W        W29583  31.937   4.937  10.687
63043W        W29584  25.444   6.853  10.067
63044W        W29585  22.101  13.720   1.481
63045W        W29586  42.368  17.941  11.222
63046W        W29587  32.838  37.874  10.722
63047W        W29588   3.736  35.312   1.759
63048W        W29589  44.867   1.913  11.748
63049W        W29590  26.198  34.948  10.769
63050W        W29591  37.011   4.970   1.843
63051W        W29592  30.316   2.945  13.007
63052W        W29593   7.434  20.666  11.163
63053W        W29594  34.707   9.521   0.984
63054W        W29595   2.454   4.292  11.902
63055W        W29596  43.013  38.763  13.604
63056W        W29597  20.722   2.739  10.975
63057W        W29598  12.683  14.255   0.436
63058W        W29599  17.845   3.524   0.724
63059W        W29600  16.518  41.973   0.829
63060W        W29601  14.912  43.391   3.714
63061W        W29602  13.869  27.963  13.236
63062W        W29603  22.275  30.705   2.019
63063W        W29604  21.183  16.121  12.511
63064W        W29605  35.794  40.083   4.094
63065W        W29606   0.726   3.692   0.209
63066W        W29607  29.384  40.786  14.731
63067W        W29608  22.022  33.105  13.551
63068W        W29609  29.478  39.902  11.638
63069W        W29610  13.877  14.721   0.224
63070W        W29611  26.617  34.007   4.631
63071W        W29612   0.980  25.481  12.944
63072W        W29613  22.865  21.990  13.857
63073W        W29614  26.938  17.527  12.653
63074W        W29615  40.445  34.194   3.682
63075W        W29616  29.545  39.270   3.138
63076W        W29617   9.708   6.363  11.526
63077W        W29618  20.704  40.935   1.706
63078W        W29619  16.203  11.166  13.666
63079W        W29620  31.419  31.604   0.444
63080W        W29621  30.349  28.105   3.644
63081W        W29622  43.369  22.626   3.901
63082W        W29623  44.432  40.447   5.244
63083W        W29624  25.111   5.203   4.167
63084W        W29625   3.664   1.475  11.528
63085W        W29626  42.348  22.870  12.138
63086W        W29627  22.992  38.533   1.240
63087W        W29628  17.253  17.371  10.538
63088W        W29629   3.700  34.912   3.698
63089W        W29630  32.632  44.965  13.784
63090W        W29631  43.309   6.860  11.350
63091W        W29632  32.943  26.947  10.781
63092W        W29633   0.269  11.286  10.881
63093W        W29634  44.432  34.646   1.505
63094W        W29635  11.226  38.829   0.365
63095W        W29636  19.377   7.663  12.378
63096W        W29637  18.853  22.524   4.511
63097W        W29638  16.502  42.319   1.544
63098W        W29639   7.445  20.795  12.953
63099W        W29640  20.062   8.172   4.925
63100W        W29641  28.521  40.624  10.449
63101W        W29642   1.907  15.206  14.959
63102W        W29643  34.367  24.645  14.092
63103W        W29644  26.196  29.109  10.904
63104W        W29645  10.111   1.544   3.487
63105W        W29646  28.969  17.551   0.331
63106W        W29647  44.331   0.902  14.475
63107W        W29648  33.245  22.684  11.437
63108W        W29649  12.174  23.727   1.411
63109W        W29650  22.741   8.019   2.900
63110W        W29651  11.695  26.486  14.793
63111W        W29652   2.987  24.157  11.006
63112W        W29653  38.915  31.925  10.509
63113W        W29654  31.041  38.750   4.658
63114W        W29655   6.498  42.821   0.797
63115W        W29656   7.152  30.833  12.079
63116W        W29657   6.357  39.999   0.827
63117W        W29658   4.859  34.902   3.731
63118W        W29659  37.770  27.846  13.775
63119W        W29660  30.980  33.125   2.303
63120W        W29661  19.122  43.477  10.743
63121W        W29662  11.924   1.490   4.586
63122W        W29663  42.620   3.637  10.475
63123W        W29664  10.766  36.883   1.857
63124W        W29665  37.579   5.269  14.235
63125W        W29666  32.704  38.617   3.135
63126W        W29667  29.095  33.191   1.830
63127W        W29668  38.406  19.585   0.505
63128W        W29669  28.994  39.846  11.780
63129W        W29670  34.016   4.213   3.808
63130W        W29671  43.316  23.167   1.712
63131W        W29672  36.484   0.665  13.786
63132W        W29673  32.551  40.552  11.970
63133W        W29674  26.453  43.338  12.573
63134W        W29675  27.690  14.678  14.928
63135W        W29676  28.406   5.973   4.621
63136W        W29677  19.669  44.904   0.448
63137W        W29678  20.508  14.762  13.543
63138W        W29679  31.057  23.244   2.860
63139W        W29680  37.900  30.100  14.886
63140W        W29681  14.844   2.852   1.305
63141W        W29682  31.581  26.953  12.028
63142W        W29683  36.038   2.522  14.801
63143W        W29684  42.979  19.866   5.041
63144W        W29685  27.666  42.254  11.635
63145W        W29686  28.194  36.523   4.089
63146W        W29687   3.901  35.488   3.120
63147W        W29688  28.131  40.449  14.487
63148W        W29689  44.196   3.415   0.905
63149W        W29690  20.163  26.651   1.622
63150W        W29691   9.733   1.883   2.574
63151W        W29692  10.205   7.076  14.873
63152W        W29693   9.925  19.619  12.485
63153W        W29694  31.917  20.929   1.784
63154W        W29695   5.433  15.106  13.412
63155W        W29696  26.201   8.698  14.470
63156W        W29697  24.164  20.427  14.908
63157W        W29698  12.557  27.021   0.931
63158W        W29699   3.275   2.733   0.814
63159W        W29700  15.605  31.326  12.506
63160W        W29701  36.849  43.769   1.931
63161W        W29702   7.681  15.316  13.810
63162W        W29703  15.211   9.391  14.710
63163W        W29704  21.411  44.908   3.501
63164W        W29705   2.173  36.652   4.567
63165W        W29706  30.477  11.136  13.832
63166W        W29707  27.421  34.920  11.624
63167W        W29708  43.010  26.742   0.624
63168W        W29709  11.022  16.144   4.657
63169W        W29710   9.576   3.671  14.404
63170W        W29711   6.951  39.523   1.777
63171W        W29712  20.115  16.597   0.759
63172W        W29713   9.377  12.728  14.994
63173W        W29714  36.501   1.406   4.568
63174W        W29715   4.649   4.961   1.272
63175W        W29716  39.008   6.643  10.755
63176W        W29717  22.466   9.622  12.102
63177W        W29718  27.943   2.887  11.505
63178W        W29719  36.416  25.293  13.929
63179W        W29720  23.567  10.072  14.576
63180W        W29721  36.514  38.437  14.245
63181W        W29722  26.482   9.648   2.373
63182W        W29723  37.326  17.186   1.263
63183W        W29724  16.830  20.037  11.896
63184W        W29725   5.323  27.434   4.187
63185W        W29726   2.450  17.820   1.189
63186W        W29727  40.561  33.195   2.269
63187W        W29728  36.443  23.623  12.640
63188W        W29729   5.241  25.298   1.754
63189W        W29730  11.293   3.759   2.298
63190W        W29731   3.447  34.535   1.019
63191W        W29732  36.790  31.429  12.078
63192W        W29733   9.298  42.571  13.451
63193W        W29734  27.881   8.170  13.249
63194W        W29735  18.329  34.416   2.594
63195W        W29736  41.921   1.206   2.178
63196W        W29737  28.241   9.875  11.969
63197W        W29738  11.734  37.033  13.948
63198W        W29739  11.704  41.572   4.550
63199W        W29740  10.550  29.968  13.103
63200W        W29741   8.682  24.029   2.821
63201W        W29742  38.270  34.801  12.034
63202W        W29743  26.240  39.289  12.124
63203W        W29744   4.569  22.576   1.805
63204W        W29745  44.966   1.014   2.235
63205W        W29746  11.959  11.770   0.945
63206W        W29747  15.739  32.548  11.561
63207W        W29748   2.669   7.217  12.071
63208W        W29749  28.282   2.354  12.119
63209W        W29750  31.171  42.046   0.866
63210W        W29751  43.900  19.536   1.492
63211W        W29752  37.089   0.387  14.493
63212W        W29753  32.118  18.552  12.398
63213W        W29754  23.251   2.181  13.390
63214W        W29755  35.888  12.434  13.494
63215W        W29756   3.747  37.540  10.142
63216W        W29757  40.981  36.567  12.109
63217W        W29758  12.316   8.409  11.132
63218W        W29759  37.872  33.363  11.683
63219W        W29760  23.344   3.857  10.531
63220W        W29761  14.846   8.643   3.112
63221W        W29762  43.546  36.204  13.011
63222W        W29763   7.871  26.001  12.225
63223W        W29764   1.781  40.903  10.604
63224W        W29765  26.124  15.647   2.232
63225W        W29766   3.541  44.854  13.988
63226W        W29767  39.953  24.201   2.883
63227W        W29768  15.229  39.538   4.780
63228W        W29769  42.687  39.289  12.612
63229W        W29770  21.199  32.356  12.542
63230W        W29771  21.470  41.879  13.278
63231W        W29772  22.655   4.748   2.203
63232W        W29773  38.364  14.215  10.073
63233W        W29774   3.147  21.396  11.078
63234W        W29775  28.398  30.642  13.877
63235W        W29776  38.431  21.069  12.564
63236W        W29777   4.938  39.113  11.525
63237W        W29778  21.150   1.018   4.385
63238W        W29779   2.491  41.549  12.552
63239W        W29780  23.103   6.269  12.936
63240W        W29781  43.204  20.034   3.671
63241W        W29782   5.372   6.166  11.478
63242W        W29783   2.177  21.948  13.911
63243W        W29784  26.140   5.966  11.783
63244W        W29785  34.339   9.227   2.440
63245W        W29786   7.456  25.926   3.215
63246W        W29787  14.615  28.191   4.438
63247W        W29788  15.317  38.152  12.296
63248W        W29789  18.837  17.608  11.274
63249W        W29790  12.916  40.540  13.613
63250W        W29791  10.535  19.478  10.527
63251W        W29792  40.446  43.430   3.940
63252W        W29793  10.408  33.572   1.856
63253W        W29794  22.981  14.799  13.442
63254W        W29795  44.124  24.115   2.841
63255W        W29796  14.590  10.369   0.627
63256W        W29797  40.756  22.173   0.246
63257W        W29798   6.287  22.700   1.836
63258W        W29799  37.597  18.755   2.105
63259W        W29800  24.558  29.575  14.962
63260W        W29801  34.645  17.605  13.877
63261W        W29802  34.381  22.722   3.870
63262W        W29803  27.700   9.316  12.783
63263W        W29804  22.991   4.463   2.718
63264W        W29805   6.418  17.147   1.178
63265W        W29806  28.627  37.354   4.225
63266W        W29807  30.578   9.649  13.020
63267W        W29808  33.124  38.309  14.398
63268W        W29809  39.089  32.112  14.438
63269W        W29810  33.480  21.455   4.554
63270W        W29811   1.464  40.583   4.026
63271W        W29812   7.200   9.166   4.207
63272W        W29813  41.577  28.649   1.221
63273W        W29814  17.302  23.242  13.747
63274W        W29815  42.716  24.039   3.029
63275W        W29816  39.907  10.706  12.476
63276W        W29817   3.827   8.886  12.931
63277W        W29818   8.851  27.179  13.536
63278W        W29819  21.936  11.694  13.407
63279W        W29820  38.813  40.979  14.316
63280W        W29821  39.072  13.146  12.406
63281W        W29822  24.982  27.540   1.814
63282W        W29823   4.128  36.582   4.760
63283W        W29824  34.171  40.578  10.674
63284W        W29825  30.662  13.644   1.759
63285W        W29826  11.250  33.692  14.383
63286W        W29827  17.652  32.572   0.445
63287W        W29828  13.290  30.185  11.109
63288W        W29829  30.295   1.329  11.629
63289W        W29830  21.222  40.974   1.743
63290W        W29831  37.510  13.559   4.171
63291W        W29832  36.050  23.590  13.128
63292W        W29833  25.139  25.733   0.848
63293W        W29834  28.351  32.122  11.412
63294W        W29835  28.570  39.000   0.516
63295W        W29836  24.827  18.553   0.107
63296W        W29837   2.358  15.221  11.241
63297W        W29838   3.239   0.959   4.480
63298W        W29839  17.117  12.281   4.624
63299W        W29840  42.865  16.107   3.108
63300W        W29841   8.337  31.139  14.444
63301W        W29842  27.740  33.467  13.981
63302W        W29843   2.841  11.143   2.848
63303W        W29844  29.249  17.216  11.458
63304W        W29845  34.682  16.082   2.210
63305W        W29846  22.213  36.026  10.391
63306W        W29847  38.519   0.823   4.292
63307W        W29848  21.666   8.415  13.875
63308W        W29849  15.540  27.073   1.313
63309W        W29850  36.368   7.327   1.671
63310W        W29851   7.386  29.250   0.917
63311W        W29852  19.994  19.958  14.420
63312W        W29853  24.906  43.231   5.324
63313W        W29854  17.190  25.041   2.776
63314W        W29855  39.879  16.610   0.454
63315W        W29856  16.969  43.273   3.753
63316W        W29857  14.348  35.959   4.195
63317W        W29858  10.657  15.788   3.252
63318W        W29859  37.329  43.689  14.690
63319W        W29860  33.660  21.503  11.425
63320W        W29861  42.015  40.761  12.919
63321W        W29862   3.631  10.373  11.695
63322W        W29863  21.643  29.162  14.994
63323W        W29864  42.867   9.607  14.726
63324W        W29865  38.470  21.211  11.670
63325W        W29866   4.934  40.930   1.485
63326W        W29867  30.094  22.225   1.817
63327W        W29868  20.051  16.546  13.874
63328W        W29869  27.796   6.632  14.730
63329W        W29870   0.831  12.742   2.113
63330W        W29871  39.778  19.866  10.776
63331W        W29872  23.859  36.996   0.964
63332W        W29873  20.527  20.620  10.720
63333W        W29874  12.604  24.819  11.947
63334W        W29875  35.306  23.000   2.785
63335W        W29876   5.968  38.095   0.932
63336W        W29877  21.651  39.945   3.302
63337W        W29878  34.035   8.590  13.878
63338W        W29879  24.013  20.843   1.497
63339W        W29880  24.518  44.865  13.897
63340W        W29881  35.505  31.931   0.442
63341W        W29882   7.295   4.328   0.337
63342W        W29883   6.361   5.087  12.345
63343W        W29884  19.061  43.843   2.378
63344W        W29885  39.970   9.824   3.645
63345W        W29886  16.683   9.614  13.351
63346W        W29887  37.090  39.402   2.043
63347W        W29888   8.428  13.991   0.291
63348W        W29889  19.639  13.329   0.429
63349W        W29890  17.458  10.878  11.003
63350W        W29891  31.046  30.406   0.823
63351W        W29892   0.326   9.914  10.569
63352W        W29893  39.470  37.499   1.151
63353W        W29894  37.853  35.249  12.105
63354W        W29895   6.270  11.882  13.446
63355W        W29896   7.219   8.159  12.025
63356W        W29897   8.009  21.986  11.085
63357W        W29898   2.855  23.767  14.397
63358W        W29899   2.376  41.684  10.830
63359W        W29900  22.779  27.156  11.199
63360W        W29901  16.555  29.490   0.351
63361W        W29902  20.972  12.080   3.599
63362W        W29903  43.928  10.822   1.876
63363W        W29904  35.872  35.855   1.167
63364W        W29905  31.185   2.742   2.868
63365W        W29906  13.145  37.336   3.198
63366W        W29907  24.535   6.177   4.491
63367W        W29908  21.828  24.471   2.797
63368W        W29909   6.355  42.782  10.307
63369W        W29910  19.708  29.097  14.374
63370W        W29911   6.319  43.531   4.870
63371W        W29912   9.336  37.474  11.905
63372W        W29913  32.534   2.147  11.675
63373W        W29914  14.725   2.843   2.919
63374W        W29915   6.961   1.337   2.252
63375W        W29916  39.765   9.261  13.582
63376W        W29917   1.796  35.952   1.488
63377W        W29918  31.573  23.808  13.876
63378W        W29919  17.016  40.834  11.152
63379W        W29920   4.203   7.230  11.888
63380W        W29921  31.374  31.925   1.865
63381W        W29922  19.744  11.790  10.639
63382W        W29923  36.888  17.960   4.091
63383W        W29924  12.391  34.263   4.307
63384W        W29925  39.372  26.526  12.828
63385W        W29926  28.965  36.561  10.649
63386W        W29927   1.014  42.802   0.465
63387W        W29928  14.350  16.301  13.978
63388W        W29929  15.725  24.617   2.268
63389W        W29930  28.895  30.537  12.055
63390W        W29931  38.345   4.837  12.029
63391W        W29932   6.506  33.817  12.545
63392W        W29933   1.374  21.413   4.255
63393W        W29934  19.252   5.311   1.711
63394W        W29935   3.356   7.093  13.439
63395W        W29936  25.393  28.444  14.093
63396W        W29937  42.712  41.350   0.267
63397W        W29938  17.578  12.714   2.932
63398W        W29939   0.349  20.209  11.831
63399W        W29940  39.953  35.496  12.179
63400W        W29941   1.962  21.305   2.710
63401W        W29942  18.149   7.735   0.790
63402W        W29943  32.036  43.336  14.543
63403W        W29944   3.052  38.469   0.429
63404W        W29945   6.877  10.685   0.548
63405W        W29946  11.053   7.788   4.145
63406W        W29947  27.300  26.651  13.315
63407W        W29948  28.150  25.417   3.785
63408W        W29949  33.170  13.143  14.390
63409W        W29950  25.203  12.718   1.280
63410W        W29951  11.801  16.676  13.908
63411W        W29952  41.254  19.705   3.112
63412W        W29953  23.004  21.312   1.658
63413W        W29954  30.687  27.852  12.549
63414W        W29955  18.744  11.754   3.544
63415W        W29956  18.114  20.791  11.614
63416W        W29957  10.290  38.514   1.925
63417W        W29958  17.068  20.579  10.786
63418W        W29959  27.316  14.792   0.370
63419W        W29960   0.952  33.372  13.506
63420W        W29961  26.733  17.625   1.860
63421W        W29962  28.423  33.390  12.909
63422W        W29963  29.000  40.634   1.783
63423W        W29964  44.980  44.787   2.926
63424W        W29965  17.195   5.144  13.274
63425W        W29966  21.203   9.385   2.038
63426W        W29967  36.105   8.204  12.740
63427W        W29968  17.002  20.099  13.464
63428W        W29969  28.672   7.668  13.385
63429W        W29970   2.142  32.710  11.085
63430W        W29971  27.742   4.883  14.530
63431W        W29972  12.775  15.841   1.739
63432W        W29973   0.280  32.445   0.211
63433W        W29974  35.137  15.247  10.465
63434W        W29975  20.033  34.950   2.609
63435W        W29976  22.127  30.827  12.028
63436W        W29977   0.624   7.758  12.423
63437W        W29978   5.482  35.398   4.080
63438W        W29979  23.657   4.517  13.551
63439W        W29980  13.640  35.410  13.301
63440W        W29981   0.514  16.769   1.370
63441W        W29982  38.838  33.394  11.530
63442W        W29983  19.289   9.589  12.408
63443W        W29984  24.158  36.881   3.757
63444W        W29985  16.368   1.397   2.531
63445W        W29986  16.780  17.675  10.634
63446W        W29987  11.597  14.253   4.198
63447W        W29988  12.390   1.563   3.794
63448W        W29989  13.613  34.482   0.683
63449W        W29990  35.364  14.506   3.402
63450W        W29991   1.935   3.291  12.424
63451W        W29992   9.694  11.537   3.606
63452W        W29993  21.237  11.299   1.953
63453W        W29994   3.284   1.439  12.754
63454W        W29995  39.768  26.701  14.573
63455W        W29996  43.277   7.449   1.157
63456W        W29997   5.905  20.506   4.079
63457W        W29998  29.466  22.640  13.789
63458W        W29999  13.196   1.472  14.916
63459W        W30000  19.236  16.074   0.871
63460W        W30001  18.519   2.931   3.210
63461W        W30002   6.318  13.676   0.583
63462W        W30003  36.619  34.170   2.995
63463W        W30004  27.189  31.893  13.473
63464W        W30005  25.885  11.222   1.775
63465W        W30006   3.362   2.080   2.274
63466W        W30007  21.050   6.447  12.804
63467W        W30008   7.777  34.392   2.374
63468W        W30009  14.200  29.568   2.669
63469W        W30010  11.808  16.275  14.282
63470W        W30011   5.912  25.861   0.363
63471W        W30012  18.050   7.369   4.147
63472W        W30013  26.841  22.254   5.067
63473W        W30014  21.775  27.229  13.233
63474W        W30015  14.320  25.067   1.706
63475W        W30016  42.297  25.168  11.535
63476W        W30017  28.231  22.671   1.282
63477W        W30018  34.818   7.027   0.880
63478W        W30019  15.000  19.214  14.947
63479W        W30020  40.746  12.169  14.929
63480W        W30021  32.657   3.190  12.505
63481W        W30022   8.432   9.308  11.039
63482W        W30023  23.993  33.933   4.436
63483W        W30024  21.389  28.539   0.484
63484W        W30025  14.352  17.741  11.837
63485W        W30026  18.251   2.190  11.244
63486W        W30027   0.447  18.987  11.149
63487W        W30028  28.916  44.394  10.603
63488W        W30029  18.272   9.681   3.134
63489W        W30030  34.134  19.614   2.750
63490W        W30031  33.440  21.125  11.696
63491W        W30032  14.206  18.181  13.331
63492W        W30033  21.087   9.119  12.026
63493W        W30034  21.183  35.118  13.171
63494W        W30035  30.999   8.401  13.870
63495W        W30036  44.324  41.286  11.907
63496W        W30037  14.757  41.831  12.569
63497W        W30038   5.384  42.417  12.778
63498W        W30039  42.735  15.817   4.023
63499W        W30040  21.976  31.867  11.135
63500W        W30041  34.650   7.214  14.724
63501W        W30042   6.847   6.919  13.030
63502W        W30043   3.994   3.495   4.998
63503W        W30044   8.725  26.920  14.902
63504W        W30045  22.890   3.709   5.014
63505W        W30046  26.511  11.913  14.750
63506W        W30047   0.635  34.447  14.332
63507W        W30048  20.209  10.883   4.226
63508W        W30049  17.929  37.987  10.606
63509W        W30050  33.971  14.197  11.557
63510W        W30051  19.878  39.464   4.129
63511W        W30052  15.825  18.964   3.288
63512W        W30053  10.418   5.693   1.727
63513W        W30054  31.925   7.065  14.715
63514W        W30055   3.704  17.556   0.484
63515W        W30056   0.941  20.740  10.548
63516W        W30057   7.181  10.034   4.335
63517W        W30058  10.411  20.757   0.941
63518W        W30059   1.770  37.365   3.247
63519W        W30060   6.308   2.334   0.237
63520W        W30061  29.892   9.508  10.813
63521W        W30062  32.464  43.021   2.635
63522W        W30063  12.597  16.613   2.396
63523W        W30064  31.628  21.803  13.052
63524W        W30065  16.871  14.673   4.217
63525W        W30066  34.513  27.461  12.861
63526W        W30067  34.861  30.604   5.144
63527W        W30068  33.376  38.807   0.777
63528W        W30069  42.787  15.037  14.935
63529W        W30070  19.304  10.917   1.274
63530W        W30071   4.239  17.375   3.119
63531W        W30072   5.819  21.605  12.381
63532W        W30073  19.682  25.499   1.897
63533W        W30074   9.264  19.301   3.920
63534W        W30075  17.081  15.628   0.765
63535W        W30076  19.569  18.628  12.181
63536W        W30077   1.842  16.261  14.210
63537W        W30078  39.849  31.338  13.688
63538W        W30079  17.780  20.248  11.203
63539W        W30080   8.919  43.207  14.052
63540W        W30081  36.732  22.554  14.326
63541W        W30082   2.828   0.353   2.421
63542W        W30083  12.042  21.021  12.061
63543W        W30084  38.572  39.176   2.443
63544W        W30085  33.685   1.383  13.045
63545W        W30086  13.362  26.453   2.749
63546W        W30087  15.700  20.015   1.634
63547W        W30088  23.729  43.684  13.817
63548W        W30089  28.213  24.643  10.694
63549W        W30090   6.389   8.847  10.646
63550W        W30091  10.477  39.103   2.232
63551W        W30092   7.441   8.817   0.600
63552W        W30093  17.744   0.359   3.366
63553W        W30094  13.654  25.979  13.658
63554W        W30095  20.597   3.035   2.210
63555W        W30096  32.112  38.065  12.007
63556W        W30097  38.859  24.544  14.053
63557W        W30098  17.816  37.794  14.487
63558W        W30099  37.859   1.439  14.363
63559W        W30100  27.685  10.585   0.099
63560W        W30101  28.242  32.637   3.709
63561W        W30102  23.616  10.623   4.387
63562W        W30103  16.640  35.456  13.801
63563W        W30104  30.196  39.387  11.583
63564W        W30105  28.091  42.460  14.841
63565W        W30106  38.652  16.791  13.382
63566W        W30107  16.077   0.450   2.657
63567W        W30108   8.754   8.275   1.034
63568W        W30109  26.015  10.149   0.388
63569W        W30110  11.897  29.308  12.974
63570W        W30111   3.463   1.858   3.571
63571W        W30112   0.478   1.931   1.901
63572W        W30113  28.816  10.573   5.100
63573W        W30114  23.556  20.253   2.912
63574W        W30115   9.947  36.497   2.481
63575W        W30116  31.788  10.164   4.637
63576W        W30117  42.439  33.351  13.917
63577W        W30118  16.505  14.034  11.335
63578W        W30119  13.357  35.849  14.923
63579W        W30120  32.071  11.381   3.105
63580W        W30121  26.219  27.693   3.857
63581W        W30122  14.756   7.372  13.461
63582W        W30123  17.481  37.156  13.571
63583W        W30124  33.378  24.997  10.727
63584W        W30125  31.222  26.710   1.291
63585W        W30126  36.420  10.926  13.413
63586W        W30127   6.153  44.397   1.046
63587W        W30128  12.825  29.430   1.665
63588W        W30129  25.413  27.079   0.690
63589W        W30130   6.015  18.817   2.238
63590W        W30131  12.692  28.035   2.152
63591W        W30132  18.817   7.709   4.571
63592W        W30133  44.233   2.269  12.495
63593W        W30134  25.219  10.209   3.564
63594W        W30135   7.277   2.539  13.474
63595W        W30136   9.769  23.345   0.219
63596W        W30137  23.219  11.621  10.981
63597W        W30138  41.101  36.355  12.894
63598W        W30139  42.787  13.653   1.449
63599W        W30140  25.487  30.195  12.348
63600W        W30141   1.933  37.133  13.492
63601W        W30142  36.083   0.215   1.390
63602W        W30143  19.765   1.858  13.424
63603W        W30144  40.964  23.951   1.014
63604W        W30145  24.585  13.172  14.406
63605W        W30146  32.256  30.033   4.106
63606W        W30147  43.891   4.715   1.758
63607W        W30148  37.480  10.822  14.430
63608W        W30149   7.870  26.214   3.280
63609W        W30150   4.878  36.829  11.986
63610W        W30151  25.109  17.565   2.230
63611W        W30152  39.374  40.360   0.177
63612W        W30153  16.861  17.890   0.895
63613W        W30154  27.616  10.300  13.152
63614W        W30155   6.257  29.099  10.722
63615W        W30156  36.015  25.458  13.158
63616W        W30157  14.258  20.652  12.827
63617W        W30158   8.195  11.876   1.387
63618W        W30159   9.076  43.348  11.176
63619W        W30160  43.817  24.067  13.058
63620W        W30161   4.867  21.663  12.804
63621W        W30162  22.710  40.970   3.215
63622W        W30163  21.444  31.540  12.778
63623W        W30164  33.145  10.678   4.170
63624W        W30165  31.512  18.692   2.311
63625W        W30166  16.857   4.178  13.372
63626W        W30167  34.839  18.767  12.479
63627W        W30168   2.983  32.352   1.632
63628W        W30169   3.471  28.943   4.103
63629W        W30170  19.527  13.129   1.935
63630W        W30171  38.435  24.988   1.997
63631W        W30172  25.981  15.560  12.077
63632W        W30173  43.439  14.140   5.000
63633W        W30174  18.916   0.516  11.153
63634W        W30175  37.929  21.264  12.488
63635W        W30176   7.746  28.719   0.296
63636W        W30177  25.077   9.757   2.664
63637W        W30178  41.965  36.883   0.928
63638W        W30179  34.410  30.857   1.725
63639W        W30180  40.808  40.789   1.391
63640W        W30181  19.043  22.685  10.717
63641W        W30182  26.503  39.280  13.743
63642W        W30183  44.829   1.652   3.275
63643W        W30184  32.537  38.314  12.135
63644W        W30185  15.800  24.205  12.797
63645W        W30186  39.050  14.229  11.495
63646W        W30187  28.960  20.243   1.216
63647W        W30188  16.193  41.624  13.099
63648W        W30189  15.287   4.009  12.859
63649W        W30190  35.278   8.860  11.186
63650W        W30191  21.089  24.516   2.245
63651W        W30192  28.413  37.306   0.827
63652W        W30193  17.984   9.928   5.365
63653W        W30194  44.723  31.180  12.022
63654W        W30195   2.500  40.374  10.648
63655W        W30196  35.037  44.922  11.898
63656W        W30197  10.848   0.148   3.880
63657W        W30198  35.168   5.636   0.817
63658W        W30199  37.953  28.014  12.555
63659W        W30200  17.080  27.688  14.174
63660W        W30201  13.070  28.145   1.361
63661W        W30202  35.538  10.449   1.394
63662W        W30203  23.210   1.397  13.010
63663W        W30204   9.976  33.122  13.427
63664W        W30205  43.973  29.671  10.941
63665W        W30206   0.823  24.623   1.189
63666W        W30207   1.154  41.897   4.148
63667W        W30208  28.587  35.882  14.043
63668W        W30209  31.315  19.840  13.103
63669W        W30210  40.657  31.865   0.460
63670W        W30211  42.349  26.747   4.328
63671W        W30212  35.306   4.596  12.373
63672W        W30213  43.292  18.510   4.037
63673W        W30214  30.398  34.006   3.368
63674W        W30215  14.055  43.397  13.520
63675W        W30216  25.126  10.954  13.473
63676W        W30217  29.923  11.998  14.645
63677W        W30218   5.682  22.653   2.516
63678W        W30219   6.889   9.762  11.123
63679W        W30220  41.774  42.999   2.653
63680W        W30221  19.865   0.362  11.959
63681W        W30222  11.827  25.991  12.956
63682W        W30223  32.427  13.024  13.973
63683W        W30224  26.487  19.790   0.955
63684W        W30225   7.695  22.217  14.099
63685W        W30226  30.554  25.622   0.291
63686W        W30227  14.015  12.831   4.275
63687W        W30228  13.114  25.316  14.058
63688W        W30229   3.871  34.054  14.274
63689W        W30230  18.702  31.923   3.667
63690W        W30231  10.339  40.472   3.180
63691W        W30232  34.401  40.729  13.845
63692W        W30233  14.951  18.617  13.797
63693W        W30234  39.549  28.382  13.264
63694W        W30235   3.217  30.258  11.423
63695W        W30236  33.495  32.154   3.513
63696W        W30237  38.053  14.675   4.610
63697W        W30238  36.515  24.730   0.535
63698W        W30239  34.565  10.514   4.358
63699W        W30240  41.567  23.954   2.416
63700W        W30241  10.203  27.146  14.745
63701W        W30242  34.134  42.874   3.230
63702W        W30243  36.335  27.056  14.415
63703W        W30244  18.072  36.264  10.663
63704W        W30245  16.145  44.415  12.230
63705W        W30246   7.862  44.017   1.742
63706W        W30247  11.169  22.659  10.785
63707W        W30248   6.713  11.142  11.145
63708W        W30249  21.924   3.614  14.799
63709W        W30250  38.861  34.133   2.417
63710W        W30251   1.272   9.335  11.937
63711W        W30252   5.288  35.453   0.219
63712W        W30253   1.319  21.267   1.360
63713W        W30254   0.276  23.559  12.617
63714W        W30255  18.702  19.639   5.000
63715W        W30256  38.069  43.838  11.994
63716W        W30257  17.191  24.670  12.830
63717W        W30258  24.277   5.897  14.946
63718W        W30259   4.738  22.218  11.561
63719W        W30260  43.046  26.946  10.927
63720W        W30261  20.471   0.140  13.295
63721W        W30262   7.614   4.228  13.388
63722W        W30263  19.926   3.565   4.305
63723W        W30264  23.113  41.417  10.623
63724W        W30265  39.020  21.555  10.280
63725W        W30266  27.156  25.890  14.276
63726W        W30267  14.680   8.300  13.517
63727W        W30268   8.816   2.848  13.750
63728W        W30269  26.194  44.411  13.068
63729W        W30270  10.373  25.564   0.958
63730W        W30271  32.555  39.414   0.052
63731W        W30272  43.301   2.658  14.410
63732W        W30273  24.648  12.226  14.837
63733W        W30274  24.410   5.054  10.061
63734W        W30275  26.720  36.787   3.098
63735W        W30276   0.631  32.347  12.182
63736W        W30277  30.487  15.640   2.059
63737W        W30278  30.810   0.852   4.004
63738W        W30279  35.115   1.707   2.160
63739W        W30280  17.729  12.759  11.551
63740W        W30281  19.706  33.586   4.532
63741W        W30282  16.279  41.857   1.535
63742W        W30283  44.762   8.746  12.957
63743W        W30284   4.850  14.100   1.373
63744W        W30285   6.136   8.672  11.068
63745W        W30286  33.010  30.632  13.505
63746W        W30287  25.025  41.660   2.491
63747W        W30288  24.245  41.474   0.436
63748W        W30289  33.934  17.061  14.410
63749W        W30290  41.381  43.985  12.115
63750W        W30291  14.081   7.417   4.198
63751W        W30292  34.027  25.624  14.832
63752W        W30293  21.270  11.784  11.631
63753W        W30294  20.691  19.212  14.472
63754W        W30295  14.467  34.520   2.250
63755W        W30296  44.024  15.419  12.987
63756W        W30297  11.749  31.603   2.921
63757W        W30298  31.900  31.082  11.447
63758W        W30299  26.162  44.483   1.181
63759W        W30300  13.365   9.677   4.350
63760W        W30301  43.819   1.794   3.839
63761W        W30302  24.879  34.953   0.917
63762W        W30303  44.759  16.006  11.236
63763W        W30304   4.882  14.650  11.197
63764W        W30305  43.171  38.897   2.182
63765W        W30306  37.318  21.794  10.876
63766W        W30307  18.113  27.829  12.640
63767W        W30308  20.117  39.351   0.294
63768W        W30309   3.787   0.432  12.923
63769W        W30310  42.949  24.086  11.957
63770W        W30311  40.139  13.089   1.606
63771W        W30312  20.952  23.030   3.246
63772W        W30313  21.580   7.095  12.432
63773W        W30314  12.594  26.500   3.200
63774W        W30315  39.305  11.624  12.905
63775W        W30316  10.896  35.461  10.564
63776W        W30317  16.623  35.611  12.389
63777W        W30318  29.018   1.954   0.723
63778W        W30319   7.021   2.701  10.710
63779W        W30320   5.143   4.794   4.018
63780W        W30321  33.973  26.166  13.948
63781W        W30322  42.768   7.200  11.049
63782W        W30323  40.839  29.999  13.470
63783W        W30324  19.965  14.367  13.350
63784W        W30325  26.713  42.403   2.681
63785W        W30326  11.632   9.787  14.472
63786W        W30327   1.142  35.390  12.716
63787W        W30328  38.907  37.770  13.074
63788W        W30329  42.929  35.034   5.176
63789W        W30330   8.724   2.962  12.334
63790W        W30331  33.466  24.916  14.772
63791W        W30332  22.767   4.189  12.083
63792W        W30333  37.828  43.594   4.807
63793W        W30334  43.998  33.711   0.684
63794W        W30335  34.074  22.399   0.392
63795W        W30336  39.477   8.852  14.310
63796W        W30337  41.597  16.578  13.163
63797W        W30338  13.540  31.844  13.459
63798W        W30339  33.498   6.149   3.588
63799W        W30340   9.425   6.525   4.506
63800W        W30341  26.095  39.884  14.830
63801W        W30342  31.601   0.927  14.421
63802W        W30343  21.142  39.735  14.060
63803W        W30344   4.095   6.913   4.622
63804W        W30345  20.040  18.512   0.019
63805W        W30346  38.166  32.251  12.849
63806W        W30347  25.173  29.105  13.144
63807W        W30348  22.676   8.622   1.722
63808W        W30349   7.279  36.093   3.714
63809W        W30350  33.022  22.289  13.498
63810W        W30351  29.152  22.612   1.659
63811W        W30352   8.743  16.314  13.318
63812W        W30353   6.448   2.102   1.748
63813W        W30354  35.427   5.639  13.643
63814W        W30355  14.025  28.211   3.653
63815W        W30356   7.436   6.310  12.402
63816W        W30357  16.379  11.646   4.679
63817W        W30358  32.699  17.587  14.907
63818W        W30359  32.685  35.321  12.175
63819W        W30360   7.945   8.807   3.266
63820W        W30361  35.545  20.398  11.908
63821W        W30362  17.730  17.756   1.381
63822W        W30363  36.483  44.383  14.282
63823W        W30364  29.049  19.732  12.107
63824W        W30365   1.934  30.948  13.399
63825W        W30366  42.761   7.413   1.365
63826W        W30367   2.243  27.277  12.886
63827W        W30368  21.723  24.474  12.991
63828W        W30369   5.456  17.831   2.423
63829W        W30370   5.283  11.750  13.633
63830W        W30371  17.567  14.093   3.640
63831W        W30372  12.516   0.283   4.088
63832W        W30373   9.617  19.774  10.649
63833W        W30374  14.213  41.681  14.627
63834W        W30375  43.913  15.364   1.924
63835W        W30376   3.445  25.713  12.343
63836W        W30377  40.778   8.715   3.659
63837W        W30378   6.802  42.613  12.020
63838W        W30379  36.167  42.342  12.521
63839W        W30380  14.230  30.587   2.505
63840W        W30381   9.756  15.997   3.156
63841W        W30382  13.570  23.377  14.726
63842W        W30383  36.043  12.768  11.966
63843W        W30384  37.304   5.222   0.136
63844W        W30385  29.442  35.844  13.995
63845W        W30386  11.864   1.790  14.921
63846W        W30387   8.976   2.211   2.731
63847W        W30388  35.641  40.721  12.876
63848W        W30389  28.081  20.536  14.711
63849W        W30390  34.615  24.444  10.730
63850W        W30391  15.037  11.067   1.431
63851W        W30392  34.967  42.236  11.154
63852W        W30393  35.390  19.458  11.107
63853W        W30394   8.257   6.758  10.770
63854W        W30395   4.046  26.747  12.756
63855W        W30396   8.688  19.051  13.159
63856W        W30397  31.979   9.248  14.607
63857W        W30398  35.902  26.330  12.730
63858W        W30399  24.052  20.116  14.468
63859W        W30400  43.153  21.964  13.492
63860W        W30401  24.171  38.943   1.429
63861W        W30402  30.485  17.593  12.630
63862W        W30403   9.292   1.503   2.438
63863W        W30404  38.941   9.193   3.129
63864W        W30405  15.601   9.159  11.545
63865W        W30406  27.719  33.599   0.870
63866W        W30407   7.008  43.066  13.972
63867W        W30408   8.838   7.419  11.147
63868W        W30409   9.480  17.784   2.270
63869W        W30410  22.234  18.224   0.964
63870W        W30411  36.280  30.526  11.631
63871W        W30412  33.773  11.337  14.455
63872W        W30413  41.450  12.455  12.218
63873W        W30414  43.478  41.222  14.972
63874W        W30415  40.650  28.009  10.863
63875W        W30416  22.586  28.128  13.155
63876W        W30417  18.003  25.034  10.657
63877W        W30418  11.166  42.709   2.479
63878W        W30419  18.473  36.496  13.111
63879W        W30420  17.214  38.353  14.323
63880W        W30421  33.782  23.359  13.887
63881W        W30422   3.343   9.783  10.595
63882W        W30423  43.730  23.819  14.577
63883W        W30424  41.933   2.421  11.643
63884W        W30425  30.441  24.279  12.115
63885W        W30426  14.301  28.594   1.179
63886W        W30427  21.145  31.090   2.353
63887W        W30428  24.300   7.634   3.597
63888W        W30429  23.480   9.299   3.204
63889W        W30430  44.917  28.135   0.722
63890W        W30431  10.113  22.750   1.721
63891W        W30432  17.971   2.337  13.771
63892W        W30433  43.401  25.100   0.766
63893W        W30434  38.908  28.092   4.556
63894W        W30435  22.560   4.843  14.125
63895W        W30436  42.700   0.833  11.606
63896W        W30437   1.372  11.599  11.082
63897W        W30438   0.074  18.616   1.418
63898W        W30439  18.209   2.500  14.217
63899W        W30440   6.678  32.770   4.108
63900W        W30441  42.605  41.289  13.396
63901W        W30442  38.139  23.885  11.209
63902W        W30443  44.383  12.882  12.575
63903W        W30444  28.436  35.723  11.584
63904W        W30445  37.001   5.532   0.538
63905W        W30446  28.038  34.202   4.187
63906W        W30447  33.858  30.501  14.879
63907W        W30448  33.554  12.727  12.413
63908W        W30449  28.355   7.081  10.480
63909W        W30450   9.905  30.371   2.712
63910W        W30451   1.933  30.467  11.624
63911W        W30452  31.990  32.214  12.094
63912W        W30453  19.958  40.347   0.402
63913W        W30454   5.902  20.190  14.442
63914W        W30455  31.003  39.657   1.994
63915W        W30456  40.444  10.213  10.321
63916W        W30457  34.945   1.990   1.213
63917W        W30458  17.223   4.944  11.929
63918W        W30459   7.718  22.524   0.418
63919W        W30460  42.375  13.743  13.716
63920W        W30461  25.463  43.132  12.468
63921W        W30462   2.656   1.001   0.710
63922W        W30463  16.794  15.296   1.458
63923W        W30464  42.946  37.525  12.924
63924W        W30465  39.637   7.270  12.253
63925W        W30466  43.476  15.818  13.824
63926W        W30467   2.714  36.506  13.196
63927W        W30468   3.828  37.116  12.907
63928W        W30469  33.484   2.284   0.102
63929W        W30470  36.508  28.037   2.657
63930W        W30471  38.645  19.574   4.017
63931W        W30472  35.302   7.912   4.148
63932W        W30473  22.477  33.837   3.702
63933W        W30474   5.926  20.802   3.666
63934W        W30475  43.930  43.959   3.888
63935W        W30476  11.478   8.834   1.404
63936W        W30477  33.838   9.200  12.150
63937W        W30478  32.830  26.620   0.810
63938W        W30479  13.481  33.100   3.654
63939W        W30480   7.671  10.885  14.041
63940W        W30481  29.697  21.960   0.936
63941W        W30482  31.487  16.598  12.749
63942W        W30483   2.276  32.683   3.477
63943W        W30484  23.439  11.800   4.117
63944W        W30485  14.235  32.813   3.303
63945W        W30486  38.493  35.848  11.995
63946W        W30487  31.421  34.201   1.370
63947W        W30488  22.588  39.079   2.315
63948W        W30489  20.262  44.395  12.333
63949W        W30490  44.337  43.015  13.623
63950W        W30491  37.555  32.682  10.687
63951W        W30492  40.259  18.748   0.024
63952W        W30493  11.164  28.069  10.530
63953W        W30494  31.157  11.409   1.137
63954W        W30495  18.881  21.767  12.911
63955W        W30496  29.692  17.688   1.492
63956W        W30497  31.063  12.766   1.672
63957W        W30498  44.739   0.698  13.553
63958W        W30499   1.208  11.295   3.691
63959W        W30500  32.337  11.317  13.634
63960W        W30501  36.625  21.958  13.042
63961W        W30502  28.171  37.812   1.951
63962W        W30503  12.408  21.575  13.967
63963W        W30504  44.911   0.479   4.176
63964W        W30505  43.726  34.422   3.668
63965W        W30506  16.740   8.367   2.471
63966W        W30507  23.408  22.377   3.699
63967W        W30508  24.162  28.821   3.233
63968W        W30509  26.848   6.356   0.967
63969W        W30510  44.783  16.602  13.395
63970W        W30511  42.551  25.666  12.327
63971W        W30512  15.748  31.690  10.391
63972W        W30513  35.209  19.728   1.719
63973W        W30514  34.773  16.735  14.348
63974W        W30515  43.244   3.617   1.289
63975W        W30516  22.643   9.650   3.128
63976W        W30517   7.756  14.097   3.632
63977W        W30518  43.369   7.769   2.105
63978W        W30519  44.437  26.692   2.351
63979W        W30520   2.595   8.410  11.649
63980W        W30521  12.775  39.169  12.977
63981W        W30522  13.140  16.161   1.908
63982W        W30523   4.873  39.251  11.036
63983W        W30524  44.040  40.773   5.243
63984W        W30525  37.469  12.242  12.681
63985W        W30526  13.615   5.658   0.867
63986W        W30527  26.107   6.850   0.720
63987W        W30528  19.158  13.852   3.745
63988W        W30529  40.597  15.567   1.834
63989W        W30530  29.716   5.779  10.982
63990W        W30531  16.231  11.660  12.491
63991W        W30532  33.419  39.080   0.320
63992W        W30533  21.532   0.910  13.909
63993W        W30534  19.758  15.165   0.381
63994W        W30535  28.422  35.636   1.974
63995W        W30536  25.173   6.320  11.472
63996W        W30537  14.706   7.363   1.957
63997W        W30538  43.985  33.898   1.146
63998W        W30539  28.397  19.534   1.283
63999W        W30540  42.812  15.265  10.937
64000W        W30541   5.672  15.046   1.330
64001W        W30542  13.811  31.423  13.427
64002W        W30543  42.882   0.356   4.443
64003W        W30544  33.656  29.630   3.145
64004W        W30545  14.354  24.537  12.048
64005W        W30546  19.125  10.289  12.034
64006W        W30547  32.918  36.914  11.660
64007W        W30548  40.746  27.063   2.196
64008W        W30549  35.515  40.829  12.381
64009W        W30550   5.091   3.239  14.794
64010W        W30551  42.760  31.936  13.848
64011W        W30552  15.971   3.257   0.784
64012W        W30553  26.810  24.562   4.776
64013W        W30554  32.212  43.721  14.257
64014W        W30555   4.339  29.847  14.725
64015W        W30556  28.402  42.230   1.390
64016W        W30557   6.784  43.033   4.277
64017W        W30558  37.054  37.324  14.952
64018W        W30559  35.676  10.627   4.159
64019W        W30560  39.869  38.813  10.456
64020W        W30561  42.359  35.824   2.337
64021W        W30562  36.970   8.176  11.698
64022W        W30563  15.615  30.101  10.233
64023W        W30564  28.323  12.922  11.272
64024W        W30565   9.746  39.267  14.759
64025W        W30566  36.694  30.944  11.253
64026W        W30567  35.410  31.847  14.572
64027W        W30568  14.551  33.857  11.190
64028W        W30569  13.633  41.097   2.115
64029W        W30570  15.028  35.309   0.824
64030W        W30571   0.706  31.691  13.917
64031W        W30572  27.612  34.553   1.807
64032W        W30573   0.449  43.250   1.182
64033W        W30574  18.422  21.652  13.087
64034W        W30575  18.358  42.279   2.316
64035W        W30576  12.052  25.962   4.166
64036W        W30577  10.293  26.109   1.828
64037W        W30578  10.787  29.523   0.513
64038W        W30579  38.151   2.592   4.388
64039W        W30580  17.737  17.216  12.081
64040W        W30581  29.456  10.738  13.130
64041W        W30582   0.842   7.154   3.147
64042W        W30583  20.626  10.743  14.809
64043W        W30584  34.455  22.528   1.797
64044W        W30585  13.093  38.958   0.328
64045W        W30586  18.706  38.573  11.891
64046W        W30587  16.060  38.089  12.013
64047W        W30588  17.183   2.295  14.479
64048W        W30589  27.411  40.816  14.234
64049W        W30590  17.142  31.947   0.315
64050W        W30591  43.475  30.237  10.780
64051W        W30592  37.875  10.127   1.911
64052W        W30593  25.084  41.701   3.211
64053W        W30594  41.938  25.253   5.111
64054W        W30595  11.019   6.791   4.992
64055W        W30596  41.202   7.055   2.825
64056W        W30597   6.133   7.089  14.367
64057W        W30598  26.003  30.016  13.318
64058W        W30599  33.565  25.358   2.287
64059W        W30600  29.088  40.320  14.836
64060W        W30601  42.052  38.921  14.881
64061W        W30602  20.043  24.947  13.404
64062W        W30603  17.801  15.824  10.492
64063W        W30604  34.346   7.368  14.326
64064W        W30605  16.280   1.397  12.841
64065W        W30606  21.649  23.516  11.879
64066W        W30607   5.438  26.310   2.366
64067W        W30608  17.077  42.417  13.074
64068W        W30609  33.409  11.866  14.414
64069W        W30610  32.088  44.215  12.032
64070W        W30611  22.277  41.903  12.848
64071W        W30612  40.818   5.987  13.841
64072W        W30613  15.454  16.673  13.275
64073W        W30614  30.078  28.694  10.762
64074W        W30615   0.953  16.102  11.940
64075W        W30616  30.348  34.472  13.781
64076W        W30617   2.572   6.035  11.964
64077W        W30618  29.673  36.768  12.968
64078W        W30619  17.500  35.590   1.040
64079W        W30620  20.513  29.669  12.462
64080W        W30621  36.957  43.955   4.586
64081W        W30622  12.790  40.992   4.811
64082W        W30623  24.247   1.472   4.207
64083W        W30624   2.728   1.793   3.078
64084W        W30625   9.452  18.622   3.309
64085W        W30626  17.668  29.368   1.174
64086W        W30627  36.676  36.064   2.791
64087W        W30628  39.750  20.789  14.463
64088W        W30629  19.685  33.141  13.531
64089W        W30630   1.411  21.071  11.457
64090W        W30631  25.868  44.731  11.643
64091W        W30632   2.271   3.222  13.968
64092W        W30633  20.810  14.220  12.903
64093W        W30634  24.801  31.593  13.563
64094W        W30635  25.031  14.162  12.545
64095W        W30636   5.197   6.577   0.799
64096W        W30637   7.917  41.853  13.688
64097W        W30638  16.508  30.147  12.302
64098W        W30639   4.261   3.252   0.452
64099W        W30640   8.889   3.389   2.247
64100W        W30641  35.121   9.740   2.315
64101W        W30642  32.456  25.783  14.581
64102W        W30643  14.547  23.070   3.196
64103W        W30644   8.654  11.217   3.631
64104W        W30645  37.817   6.380  13.945
64105W        W30646  41.408  39.556   0.340
64106W        W30647  10.875   5.897   4.758
64107W        W30648  14.471  18.745  11.510
64108W        W30649  36.994   7.427  10.672
64109W        W30650  23.635  33.172  13.103
64110W        W30651  32.608  42.319   3.857
64111W        W30652  25.340  10.125   1.370
64112W        W30653  35.972  26.979   3.149
64113W        W30654  14.623  34.895   3.839
64114W        W30655  28.396  16.024  13.929
64115W        W30656  28.081  38.290   3.688
64116W        W30657  40.616  35.198   4.705
64117W        W30658   3.357   0.025  14.450
64118W        W30659  43.923  27.897   1.309
64119W        W30660  41.023  35.008  11.542
64120W        W30661   7.266  11.558  13.997
64121W        W30662  38.835  30.121  13.562
64122W        W30663  31.060  37.105   0.388
64123W        W30664  32.805  20.274   3.755
64124W        W30665   0.971  12.569  11.621
64125W        W30666  40.089  16.323  13.510
64126W        W30667   2.724  18.616   0.421
64127W        W30668  23.522  16.465  13.983
64128W        W30669  26.428  11.667  11.228
64129W        W30670   1.007   0.903   3.234
64130W        W30671  24.355  29.749  11.871
64131W        W30672   4.157  44.050  11.953
64132W        W30673  40.890  25.191  12.079
64133W        W30674  19.951  24.149  10.823
64134W        W30675  17.038  36.512   2.315
64135W        W30676   6.484   9.262   1.714
64136W        W30677  28.951  42.559  11.127
64137W        W30678   1.576  23.568   2.393
64138W        W30679  12.744  33.514   4.079
64139W        W30680  44.982  41.116   4.524
64140W        W30681   1.025  26.498  10.507
64141W        W30682  40.853   7.855   0.935
64142W        W30683  36.534  36.962  13.449
64143W        W30684  40.529  31.460  11.525
64144W        W30685   5.950  30.473  14.918
64145W        W30686   6.390   9.379  14.866
64146W        W30687   5.412  26.738   4.545
64147W        W30688  22.276  17.034   0.461
64148W        W30689  39.968  39.663  14.316
64149W        W30690  21.582   7.174  13.410
64150W        W30691   0.290   6.728  14.759
64151W        W30692  14.583  22.005   3.643
64152W        W30693  43.243  20.207   4.737
64153W        W30694  34.150   4.857   1.760
64154W        W30695   2.339  35.632   2.270
64155W        W30696   8.784  31.414   2.870
64156W        W30697  17.636  23.587  14.337
64157W        W30698  32.369  28.079  13.305
64158W        W30699  22.839  15.734   3.322
64159W        W30700  30.437   7.213  14.277
64160W        W30701  38.261   0.468  13.941
64161W        W30702   7.315   8.917   0.087
64162W        W30703  44.300  32.571  12.404
64163W        W30704  34.337  24.691   0.928
64164W        W30705  28.193  31.484  13.013
64165W        W30706  19.236   7.804  13.243
64166W        W30707  31.451  20.590   3.347
64167W        W30708   5.865   8.156   3.210
64168W        W30709  31.616  44.226  11.660
64169W        W30710  23.815   0.959   3.280
64170W        W30711  19.002  20.152   1.932
64171W        W30712  29.501  29.038   1.946
64172W        W30713  35.619   7.012  12.621
64173W        W30714  37.807  30.045  10.724
64174W        W30715  28.544  26.478  10.338
64175W        W30716  27.488  21.560   1.598
64176W        W30717  40.959  21.047   0.706
64177W        W30718  25.024  23.353  12.145
64178W        W30719  22.282  19.646   0.565
64179W        W30720   9.301  39.149   0.955
64180W        W30721  13.154   1.863  11.673
64181W        W30722  19.877  44.747   2.274
64182W        W30723  28.952  40.519  10.729
64183W        W30724  32.107  40.726   3.684
64184W        W30725  38.601   7.378  13.460
64185W        W30726  25.923  13.241  12.512
64186W        W30727  21.314  36.840   2.747
64187W        W30728  42.491   2.670   4.837
64188W        W30729  36.849  27.048   1.243
64189W        W30730  44.013   4.891  12.076
64190W        W30731  41.861  39.207   4.490
64191W        W30732   1.024  27.144   1.241
64192W        W30733   4.020   9.054  11.745
64193W        W30734   5.429  28.877  13.885
64194W        W30735   5.948  19.460   0.678
64195W        W30736  39.439  39.450   0.429
64196W        W30737   4.209  40.330   3.795
64197W        W30738  34.722  27.823   1.940
64198W        W30739  38.972  39.255  12.867
64199W        W30740  12.320   1.450  14.388
64200W        W30741  35.453  32.556   3.692
64201W        W30742  32.722  12.927  12.470
64202W        W30743   8.625  30.447  11.546
64203W        W30744  16.759   4.661   3.732
64204W        W30745   8.689   7.316  13.544
64205W        W30746   7.349  20.521  13.414
64206W        W30747  29.953  18.108   4.541
64207W        W30748   6.293  33.437  14.985
64208W        W30749   8.245   6.903  14.979
64209W        W30750  24.620  31.201  14.373
64210W        W30751  26.894  27.572   1.275
64211W        W30752   1.459  17.843  13.439
64212W        W30753  18.510  24.958   2.234
64213W        W30754  35.582  43.334   1.680
64214W        W30755   4.660  38.793   2.367
64215W        W30756  29.179  34.116  11.213
64216W        W30757  20.442   6.127  13.896
64217W        W30758  20.841  16.644  14.202
64218W        W30759  42.531  22.014   2.229
64219W        W30760  21.472  12.625  12.647
64220W        W30761  36.502  16.982  13.959
64221W        W30762  39.238  18.759  11.073
64222W        W30763  43.786  13.137   3.614
64223W        W30764  10.207  25.260  13.907
64224W        W30765  14.637  37.816  12.135
64225W        W30766   4.872  32.355  11.394
64226W        W30767  15.382  21.164  12.156
64227W        W30768   2.698  31.931   3.714
64228W        W30769  43.321  34.429  11.625
64229W        W30770  20.598  24.448   4.985
64230W        W30771   9.809   5.414   3.661
64231W        W30772  26.672  10.435   2.628
64232W        W30773  39.763  33.045   3.164
64233W        W30774   8.732  16.064   0.865
64234W        W30775   7.464  44.360  11.552
64235W        W30776  10.379  13.558   0.259
64236W        W30777  42.379  23.171   2.604
64237W        W30778  23.275  17.259   1.414
64238W        W30779  19.750  29.064   2.676
64239W        W30780  11.087   2.548  12.046
64240W        W30781  12.958  36.497   4.077
64241W        W30782  19.279  22.789   2.340
64242W        W30783   0.562  21.568   2.794
64243W        W30784  19.077  27.959   1.440
64244W        W30785  36.455  14.989  13.577
64245W        W30786  18.618  39.271  10.729
64246W        W30787  15.635  43.205   4.123
64247W        W30788  36.605  10.858   0.910
64248W        W30789   6.525   4.501  11.260
64249W        W30790  26.684  39.788  13.325
64250W        W30791  44.256  22.672   3.889
64251W        W30792  31.284  28.766  10.237
64252W        W30793  18.174  34.534  14.872
64253W        W30794  18.528  38.095   2.143
64254W        W30795  33.403   8.755  13.101
64255W        W30796  17.662  30.011   3.255
64256W        W30797  26.032  17.040   4.242
64257W        W30798   9.123   0.026   0.498
64258W        W30799  17.024  40.582  14.839
64259W        W30800  39.549   6.034   3.151
64260W        W30801  28.516  43.395  11.324
64261W        W30802  38.725  34.120   4.250
64262W        W30803  13.424  13.379  13.959
64263W        W30804   7.689  21.930   3.279
64264W        W30805  13.311   7.549   5.010
64265W        W30806  21.110  19.036   3.649
64266W        W30807  42.034  44.243  11.573
64267W        W30808   3.156   6.887   0.888
64268W        W30809  14.204  10.273   0.165
64269W        W30810  23.724  23.778  13.918
64270W        W30811  30.404  17.522  12.088
64271W        W30812   4.200  22.792  10.539
64272W        W30813  27.601  29.923   2.324
64273W        W30814  24.455  30.585  13.498
64274W        W30815  20.313  38.804  10.558
64275W        W30816  11.141  17.319   2.122
64276W        W30817  22.766  30.506  12.927
64277W        W30818  19.512  34.058   2.801
64278W        W30819   2.785  34.413   1.209
64279W        W30820  26.132  36.007   3.412
64280W        W30821   4.815  38.472  13.778
64281W        W30822  30.131   8.345  11.127
64282W        W30823  16.454  23.000   3.033
64283W        W30824  11.627   0.896   2.620
64284W        W30825  26.564  29.164   0.517
64285W        W30826  35.909  18.500   2.840
64286W        W30827  40.383   7.379   1.760
64287W        W30828   1.215  12.609   0.847
64288W        W30829  16.863  21.430  13.404
64289W        W30830  25.917  26.047   3.085
64290W        W30831  27.619  33.937  14.501
64291W        W30832  15.630  14.754  12.204
64292W        W30833  28.188  32.922  12.999
64293W        W30834  36.790  22.427  11.479
64294W        W30835  15.735  41.782   4.822
64295W        W30836  30.818  16.474   1.127
64296W        W30837  39.797   9.348   1.003
64297W        W30838   7.713   1.885  12.435
64298W        W30839  11.881   0.302  10.679
64299W        W30840  20.244   2.819  11.154
64300W        W30841   3.707  15.752   4.628
64301W        W30842  25.636  15.851   0.378
64302W        W30843  41.507  43.216  12.229
64303W        W30844  28.942  38.513  14.411
64304W        W30845  23.071  13.921  13.745
64305W        W30846  27.672  30.350   0.762
64306W        W30847   3.398   6.576   2.883
64307W        W30848  20.031  27.822   1.194
64308W        W30849   1.163  10.034   0.849
64309W        W30850  43.444  39.064  13.573
64310W        W30851  12.448  15.378   3.967
64311W        W30852  13.817  23.866   2.771
64312W        W30853  35.942  17.907   0.943
64313W        W30854  14.325  16.112  14.994
64314W        W30855  31.445  23.435   2.330
64315W        W30856   0.219  37.802  14.281
64316W        W30857  41.836  23.165   0.287
64317W        W30858  28.740  22.603  12.397
64318W        W30859  26.814  44.841  12.527
64319W        W30860  29.697   5.764   2.723
64320W        W30861  42.095  13.375   5.137
64321W        W30862  38.205  44.345   4.273
64322W        W30863  16.379   9.187   0.208
64323W        W30864  12.371  41.583   3.243
64324W        W30865  36.249  42.576   1.301
64325W        W30866  29.183   9.110  12.386
64326W        W30867  30.408  13.408   3.533
64327W        W30868   9.825  22.466  11.071
64328W        W30869  31.393  38.576   2.791
64329W        W30870  17.049  36.113   4.532
64330W        W30871  21.178  19.132   4.638
64331W        W30872   6.937   4.504  12.955
64332W        W30873  26.658  26.470  10.782
64333W        W30874  30.201  30.909  11.198
64334W        W30875  43.410  42.993   3.605
64335W        W30876  14.788  27.505  14.768
64336W        W30877   4.342   4.025   5.060
64337W        W30878  23.427  30.999  11.880
64338W        W30879  30.028   7.113   4.374
64339W        W30880   6.897  19.700  10.964
64340W        W30881  29.107   1.688  11.592
64341W        W30882   6.172  23.966  13.959
64342W        W30883  31.592  44.699   3.025
64343W        W30884  16.677  40.976   2.369
64344W        W30885  16.336   0.075   0.054
64345W        W30886  23.473   8.349   3.391
64346W        W30887  44.910  21.719   0.907
64347W        W30888  24.164  43.259   2.867
64348W        W30889  30.549  44.632  11.818
64349W        W30890  27.444  11.344  10.192
64350W        W30891  38.604   7.759  11.628
64351W        W30892  17.094  25.045  14.639
64352W        W30893  42.830  37.349   2.916
64353W        W30894  34.418  11.795   1.518
64354W        W30895   0.350   9.104  14.435
64355W        W30896  36.915  22.611   4.270
64356W        W30897  39.784  43.587  13.985
64357W        W30898  12.921  42.424   1.333
64358W        W30899  37.336  42.881   1.173
64359W        W30900   3.424  37.038   2.095
64360W        W30901  20.304  34.402   0.483
64361W        W30902  25.145  29.568  13.380
64362W        W30903  20.517  32.901   3.595
64363W        W30904  19.990  21.250  12.336
64364W        W30905  26.534  42.243  11.089
64365W        W30906   9.836   1.519   4.796
64366W        W30907  33.922  18.138   2.786
64367W        W30908  13.692  18.925  11.456
64368W        W30909   6.801  38.949   1.116
64369W        W30910  42.653  24.010   0.327
64370W        W30911   7.330  31.963   1.414
64371W        W30912  34.090   5.898   0.252
64372W        W30913  16.143  39.516  12.353
64373W        W30914  33.363  22.403  13.901
64374W        W30915  38.444  35.095   0.960
64375W        W30916  35.178  10.593  14.426
64376W        W30917  31.940  27.679   3.279
64377W        W30918  35.196   7.305  11.023
64378W        W30919   4.882  29.387   3.272
64379W        W30920   8.236  24.251   1.403
64380W        W30921  40.896  15.653  11.645
64381W        W30922  11.424  38.391   5.540
64382W        W30923  35.974   7.256  10.648
64383W        W30924  42.251  40.476   0.303
64384W        W30925   2.848  19.690  12.349
64385W        W30926   4.717  26.129  14.360
64386W        W30927  38.902  12.860  14.027
64387W        W30928  40.590  18.857  12.144
64388W        W30929   0.359  38.068  11.364
64389W        W30930   0.683  25.249  11.036
64390W        W30931  20.759  43.003   0.477
64391W        W30932   4.643  14.539   3.771
64392W        W30933  21.099  29.249  12.960
64393W        W30934  43.363  28.881  13.424
64394W        W30935   2.702   6.227   2.849
64395W        W30936  14.835   8.271   1.064
64396W        W30937  25.754  35.804  14.919
64397W        W30938  15.959  24.520  14.966
64398W        W30939  31.131  41.807  10.646
64399W        W30940   6.868   6.927   2.258
64400W        W30941  10.847  34.369  11.293
64401W        W30942  28.476   9.886  13.047
64402W        W30943  35.911  39.486   2.393
64403W        W30944  43.903  29.939  14.100
64404W        W30945  27.006  36.411   1.406
64405W        W30946  28.199  24.544  11.483
64406W        W30947   9.162  30.881  10.776
64407W        W30948  21.104  41.802   1.334
64408W        W30949   0.006  44.356   2.174
64409W        W30950  14.589  26.772   3.781
64410W        W30951  41.792  11.544  14.447
64411W        W30952  42.956   9.783   2.853
64412W        W30953  37.050  24.059  14.461
64413W        W30954  43.271  25.567   1.801
64414W        W30955  34.030  33.135   1.417
64415W        W30956  20.019  13.105   1.639
64416W        W30957  41.870  40.544   4.371
64417W        W30958  30.034   2.727  13.408
64418W        W30959  32.451  10.893  10.741
64419W        W30960  15.340  13.713  10.751
64420W        W30961  22.761   4.936   2.680
64421W        W30962  16.529  13.515   4.739
64422W        W30963  38.705   8.684   0.456
64423W        W30964  36.013   9.637  13.062
64424W        W30965  44.796  39.815   0.277
64425W        W30966  35.549  44.412  14.398
64426W        W30967  14.094  43.438  12.994
64427W        W30968  31.293  39.840  11.982
64428W        W30969   2.945  28.978  13.613
64429W        W30970  11.475  35.596   4.084
64430W        W30971  44.696   2.564   0.671
64431W        W30972   5.999  35.368   3.949
64432W        W30973  18.600  39.544   3.787
64433W        W30974   8.115  25.546  13.401
64434W        W30975   5.914  38.718   4.601
64435W        W30976   5.728   7.812   0.702
64436W        W30977  32.034   2.600  12.634
64437W        W30978  12.533  15.714   1.289
64438W        W30979   4.834  15.267  14.304
64439W        W30980  23.758   8.688  14.438
64440W        W30981  16.723  17.128  12.359
64441W        W30982  38.107   8.936   4.056
64442W        W30983  26.977  42.249   1.787
64443W        W30984  20.040  38.738  12.391
64444W        W30985  31.596  31.867   0.001
64445W        W30986  14.104  27.700  12.458
64446W        W30987  25.755  27.466   0.809
64447W        W30988   8.640  37.056   0.476
64448W        W30989  15.526  12.195   4.245
64449W        W30990  32.538  26.580  10.698
64450W        W30991  34.190   1.842   1.868
64451W        W30992  32.163   4.863   1.745
64452W        W30993  35.420  28.251  10.727
64453W        W30994  25.712  22.846   1.387
64454W        W30995  39.554  10.139  13.963
64455W        W30996  30.178   9.586   0.315
64456W        W30997  16.648  34.016  10.618
64457W        W30998  13.207   6.623  14.538
64458W        W30999  17.652   6.759   3.551
64459W        W31000  32.761  25.787  11.989
64460W        W31001  30.033  21.482  14.751
64461W        W31002  32.134   0.348   4.162
64462W        W31003  39.610  21.604   1.926
64463W        W31004  34.127  29.114  12.339
64464W        W31005  39.381  25.050   0.313
64465W        W31006  23.137  15.059  13.039
64466W        W31007  44.564   7.468   3.689
64467W        W31008   7.284  35.068   4.292
64468W        W31009  39.045  38.999  11.524
64469W        W31010  22.584  27.655  12.941
64470W        W31011   1.824   8.328  13.831
64471W        W31012  30.529  40.106  13.012
64472W        W31013   9.688  39.651   2.364
64473W        W31014   2.276  38.906  11.127
64474W        W31015   3.269  23.434  14.514
64475W        W31016  32.933  38.563  14.988
64476W        W31017  12.782   6.925  12.095
64477W        W31018  17.898  20.028   4.292
64478W        W31019   9.333  27.394  11.973
64479W        W31020  11.633   5.783   0.565
64480W        W31021   9.801   2.269   1.910
64481W        W31022  29.291  12.918  11.610
64482W        W31023   8.349  22.680   0.672
64483W        W31024  21.312  41.300  11.227
64484W        W31025  19.314  16.435   3.583
64485W        W31026   3.205  33.579  13.409
64486W        W31027   4.925  12.492   4.963
64487W        W31028  24.821  22.220  14.960
64488W        W31029  24.177  14.887   1.783
64489W        W31030  33.181  25.888  10.732
64490W        W31031  29.455  41.391  10.688
64491W        W31032  26.587  41.497  10.595
64492W        W31033  17.100  28.435   3.729
64493W        W31034  11.611  41.496  11.020
64494W        W31035   1.411  14.961   1.185
64495W        W31036  19.768  34.529  12.889
64496W        W31037  11.505  26.127  13.566
64497W        W31038  13.762  42.955   4.228
64498W        W31039  34.431   8.938   4.107
64499W        W31040  37.989  29.133   0.897
64500W        W31041  26.983   4.409   2.807
64501W        W31042  13.487   2.986   4.022
64502W        W31043  10.839  38.057   1.189
64503W        W31044  15.342  37.144   2.926
64504W        W31045  35.270  41.769  13.995
64505W        W31046   5.389  15.064  12.499
64506W        W31047  28.620  25.993  11.542
64507W        W31048  30.027  44.304   1.336
64508W        W31049  15.176   4.403   1.703
64509W        W31050  12.196  28.704   2.154
64510W        W31051   2.045  30.245  13.770
64511W        W31052  32.636   9.434   1.535
64512W        W31053  15.221  10.431  14.368
64513W        W31054  19.059  41.875  11.720
64514W        W31055  10.840  27.983  11.390
64515W        W31056  31.087  16.652  14.299
64516W        W31057  16.276   9.747  12.556
64517W        W31058   3.673  29.572   2.842
64518W        W31059  31.566  38.763   3.607
64519W        W31060  32.434  23.002  11.131
64520W        W31061  18.111   1.005   0.810
64521W        W31062  19.087  10.589   1.983
64522W        W31063   8.791  16.893   3.287
64523W        W31064  14.973  19.133  13.699
64524W        W31065  36.761   5.903   2.285
64525W        W31066  28.407  18.756   3.097
64526W        W31067  10.137  20.620   4.565
64527W        W31068  38.776   8.383   0.892
64528W        W31069  40.090   3.942  11.956
64529W        W31070  42.277  35.020  11.178
64530W        W31071  16.134  41.781  11.147
64531W        W31072  22.842  24.245  11.127
64532W        W31073  13.818  37.383  14.880
64533W        W31074   0.157  31.017  13.912
64534W        W31075  17.213  44.045   3.818
64535W        W31076  18.749   6.959  10.653
64536W        W31077  22.183  16.909   2.427
64537W        W31078  31.337   4.916   0.423
64538W        W31079  30.175  19.577   2.815
64539W        W31080  13.795  19.519  13.959
64540W        W31081  35.545  24.070  10.806
64541W        W31082  13.752  43.923   3.450
64542W        W31083  26.428  33.880  14.248
64543W        W31084  41.039   7.339   4.143
64544W        W31085   3.598  16.666  12.512
64545W        W31086   5.702  36.967   0.974
64546W        W31087  18.027  21.305  12.497
64547W        W31088  41.967  14.634  10.746
64548W        W31089  32.185  14.727   3.813
64549W        W31090  42.725   6.100  14.895
64550W        W31091  20.190  31.910  11.428
64551W        W31092  32.906  14.480   2.624
64552W        W31093  11.673  27.172   4.563
64553W        W31094  14.110   0.233   0.576
64554W        W31095   9.738  38.291   0.010
64555W        W31096   0.813   9.591  14.917
64556W        W31097  28.199  11.794  13.968
64557W        W31098  10.687  14.855  11.897
64558W        W31099  14.853  13.011   4.049
64559W        W31100  14.285   6.485  13.750
64560W        W31101  21.996  15.823  10.661
64561W        W31102   0.892  43.580  11.039
64562W        W31103  38.568   1.801   4.325
64563W        W31104  16.467   1.325  11.076
64564W        W31105  22.819  29.583  12.023
64565W        W31106  13.194  27.966   2.348
64566W        W31107   6.756   1.200  13.417
64567W        W31108   5.173  41.373  11.933
64568W        W31109   0.496  38.590  10.654
64569W        W31110  32.964   2.104  12.961
64570W        W31111   3.652  24.083  11.774
64571W        W31112  35.546  42.991  12.698
64572W        W31113  16.214   1.527   2.056
64573W        W31114   9.099  10.788   3.811
64574W        W31115  23.833  27.921   4.775
64575W        W31116  18.761  22.928  14.917
64576W        W31117  27.352  12.642  14.466
64577W        W31118  21.944  32.627   0.346
64578W        W31119   4.215   3.433   3.264
64579W        W31120  20.304  32.064   4.465
64580W        W31121  22.081   4.675  14.432
64581W        W31122  38.476  29.084   1.117
64582W        W31123   0.652   8.716   4.523
64583W        W31124  27.475  40.961   4.288
64584W        W31125  42.299   1.885  11.275
64585W        W31126  36.594  25.605   3.294
64586W        W31127  34.532  30.153   1.216
64587W        W31128  44.253  19.036   0.573
64588W        W31129   9.220  39.330  12.624
64589W        W31130   8.105  32.304   1.809
64590W        W31131  43.524  16.927  11.961
64591W        W31132  17.982   9.864  13.493
64592W        W31133  20.416   5.309  11.736
64593W        W31134  15.395  34.025  13.317
64594W        W31135  25.194   0.274   0.137
64595W        W31136   8.197  17.859   0.909
64596W        W31137  19.136  25.674   3.247
64597W        W31138   5.856  15.303  12.479
64598W        W31139  44.808  42.267  13.584
64599W        W31140   7.831  43.085   3.145
64600W        W31141  11.636  12.581  12.964
64601W        W31142  20.064  34.901   0.671
64602W        W31143  31.844  33.046   4.169
64603W        W31144  39.268  36.225   1.788
64604W        W31145  44.201  37.560  10.194
64605W        W31146  41.012   5.174  13.488
64606W        W31147   4.397   7.021  12.815
64607W        W31148  41.714   5.772   3.749
64608W        W31149   4.207  13.200  10.801
64609W        W31150  39.378   2.030  13.434
64610W        W31151  23.208  24.407  12.962
64611W        W31152  37.456  17.582   3.508
64612W        W31153  42.045   3.235  11.980
64613W        W31154  11.371  18.308   3.540
64614W        W31155   4.919   5.493   4.950
64615W        W31156  22.187  33.438   2.908
64616W        W31157  11.582  28.900  11.498
64617W        W31158  33.431  10.579   4.579
64618W        W31159   3.298  13.587   4.191
64619W        W31160  39.286  25.149  13.085
64620W        W31161  39.345  42.125   2.288
64621W        W31162  18.197  29.933  10.499
64622W        W31163  41.795   2.369  10.750
64623W        W31164  19.625  33.484   3.537
64624W        W31165  18.192   6.872   0.469
64625W        W31166  35.033   1.438   1.632
64626W        W31167  26.728  25.095  12.443
64627W        W31168   5.980  31.213   0.350
64628W        W31169   1.807  37.782   4.190
64629W        W31170  19.015   7.363   1.037
64630W        W31171  21.587   2.009  10.812
64631W        W31172  38.675  20.460  10.611
64632W        W31173  18.742  14.861   3.542
64633W        W31174   3.901  18.229   1.727
64634W        W31175  10.286  39.616  14.186
64635W        W31176  34.618  31.980  11.343
64636W        W31177  18.993  21.519  14.822
64637W        W31178  27.496  22.425   4.097
64638W        W31179   3.405  10.775   2.742
64639W        W31180  11.777  19.976   3.633
64640W        W31181   4.798   4.554  10.218
64641W        W31182  33.502  34.627  13.814
64642W        W31183   6.309  36.040  13.887
64643W        W31184  36.087  21.062  13.952
64644W        W31185  13.058  15.674  10.006
64645W        W31186  26.222  44.104   2.176
64646W        W31187   9.850   6.815   2.434
64647W        W31188  24.774  21.778   0.817
64648W        W31189  38.028  43.473   3.335
64649W        W31190  34.082  26.958   1.360
64650W        W31191  31.588  30.006  10.727
64651W        W31192  27.464   4.233   4.551
64652W        W31193  30.718  10.139  12.987
64653W        W31194  19.241  34.037   2.316
64654W        W31195  24.221  44.276   3.257
64655W        W31196   5.395  30.566  12.777
64656W        W31197   8.364  11.138  12.000
64657W        W31198  35.637  31.766  13.069
64658W        W31199   3.296  14.114   4.209
64659W        W31200  41.527  17.097   3.594
64660W        W31201  13.278  19.638   3.627
64661W        W31202  44.548  17.289  11.250
64662W        W31203  19.636  37.941   4.672
64663W        W31204  42.328  39.941   4.849
64664W        W31205   8.284  29.089  13.942
64665W        W31206  35.460  15.783  13.939
64666W        W31207   2.750  13.196   3.096
64667W        W31208  26.666  31.508   1.872
64668W        W31209   4.666  27.946   2.156
64669W        W31210  19.312  42.261  11.426
64670W        W31211  41.814  10.948  10.742
64671W        W31212  12.240  21.490  11.278
64672W        W31213  41.275  35.196   3.906
64673W        W31214  15.871   0.332   3.146
64674W        W31215  44.392  30.065   3.201
64675W        W31216  12.438  43.448  10.751
64676W        W31217  34.536  24.587   4.460
64677W        W31218  38.821  25.934  13.023
64678W        W31219  24.962   3.123   2.164
64679W        W31220  44.968  11.463   1.736
64680W        W31221  32.137   0.809  13.408
64681W        W31222  21.502  25.500  14.965
64682W        W31223  16.186   1.882   0.552
64683W        W31224  20.497  13.244  11.115
64684W        W31225  10.965   6.460  12.026
64685W        W31226  44.134  16.618   4.749
64686W        W31227  10.544  29.125  12.927
64687W        W31228  31.315  20.743  13.829
64688W        W31229  21.782  17.062   4.541
64689W        W31230  43.831  28.401   1.425
64690W        W31231  26.259   6.850  14.824
64691W        W31232   8.752   7.786  12.074
64692W        W31233   8.847  20.553  11.417
64693W        W31234  40.044   1.532  12.145
64694W        W31235  31.654  36.963   0.973
64695W        W31236  39.582  40.017   2.294
64696W        W31237  15.587  29.566   4.618
64697W        W31238  11.151  41.289   1.771
64698W        W31239  21.138  33.389  13.445
64699W        W31240  14.240  22.321   2.734
64700W        W31241  16.101  13.516   0.494
64701W        W31242  15.623  25.996   1.500
64702W        W31243   1.681  40.002   1.469
64703W        W31244  23.740  44.244   1.807
64704W        W31245  25.028  33.543  14.716
64705W        W31246  11.405  36.037   4.788
64706W        W31247  34.889  19.475  13.934
64707W        W31248  20.188   6.947  10.325
64708W        W31249   1.172   3.626   3.682
64709W        W31250  22.113  28.794  14.072
64710W        W31251  42.081  30.019   2.203
64711W        W31252  29.881  15.260   2.203
64712W        W31253  39.254  36.366  13.037
64713W        W31254  33.819  28.011  10.710
64714W        W31255  30.462  15.179   0.736
64715W        W31256  30.055   2.916   3.623
64716W        W31257  27.221  28.252  12.425
64717W        W31258  38.500   7.386   4.769
64718W        W31259  37.161  44.012   4.124
64719W        W31260  39.454   0.231  11.396
64720W        W31261  35.143  13.573  12.523
64721W        W31262   5.763   1.803  13.951
64722W        W31263  15.972  26.679   2.331
64723W        W31264  11.198  11.558   0.440
64724W        W31265   3.727  36.262   2.181
64725W        W31266  24.235  16.329   0.348
64726W        W31267  21.572  36.063   2.363
64727W        W31268   4.397  21.732  14.258
64728W        W31269  21.072  23.508  11.122
64729W        W31270   5.946  11.894   1.251
64730W        W31271  13.633  31.158  13.832
64731W        W31272  38.145  35.590   1.288
64732W        W31273  19.663  25.403   0.443
64733W        W31274   3.932   5.657   3.060
64734W        W31275   1.824   2.379   0.716
64735W        W31276  14.356  10.669  13.714
64736W        W31277  40.179  22.440  12.857
64737W        W31278  37.856   5.180   3.588
64738W        W31279   4.241  41.218   0.832
64739W        W31280  24.510  10.445  10.340
64740W        W31281   1.814  34.578   0.240
64741W        W31282   7.302  14.133  11.976
64742W        W31283  40.385  17.091  14.819
64743W        W31284   0.195  32.924  11.674
64744W        W31285  24.183  13.876   1.844
64745W        W31286  35.975  15.701  10.717
64746W        W31287   0.375  16.237   0.297
64747W        W31288  33.145   2.891  14.314
64748W        W31289  23.241  35.374  12.085
64749W        W31290  39.959  26.782   2.828
64750W        W31291  17.543  41.652   0.501
64751W        W31292  32.557  41.910  12.515
64752W        W31293  17.091  40.838  14.386
64753W        W31294  14.098  42.328   2.728
64754W        W31295  30.077  11.717   9.517
64755W        W31296  26.701   2.657  12.974
64756W        W31297  33.461  33.656  13.973
64757W        W31298  34.024   1.295  14.407
64758W        W31299  11.404   2.177  13.366
64759W        W31300  18.126   8.754  10.928
64760W        W31301  42.890   1.008   0.780
64761W        W31302  16.760  32.158   2.184
64762W        W31303  41.361  20.788  14.038
64763W        W31304  44.115  25.971  13.035
64764W        W31305  19.719  33.601   2.727
64765W        W31306   9.696  36.791   2.861
64766W        W31307  34.338  41.835   1.240
64767W        W31308  27.505  10.702   2.856
64768W        W31309   6.219  29.505   3.241
64769W        W31310  23.488   2.795   4.126
64770W        W31311   1.258  29.164  12.819
64771W        W31312   3.266  22.980  12.838
64772W        W31313   2.289  31.219  13.661
64773W        W31314  36.224  27.828  12.133
64774W        W31315   0.721  43.256  14.857
64775W        W31316  16.179   1.278  12.344
64776W        W31317   7.720  32.208  11.956
64777W        W31318  35.296  30.980  10.730
64778W        W31319  39.116   7.238  12.138
64779W        W31320  26.010  41.255   9.607
64780W        W31321  40.938  16.960  11.152
64781W        W31322  23.488  41.892  13.528
64782W        W31323   0.829  22.388   4.188
64783W        W31324  25.684   2.375  13.899
64784W        W31325  10.853  25.554  12.065
64785W        W31326  14.481  19.172   4.143
64786W        W31327  36.681   3.362   4.969
64787W        W31328  38.045   8.645   4.475
64788W        W31329  13.639  26.260   1.509
64789W        W31330  29.574  34.427   4.577
64790W        W31331  18.771  13.911   1.247
64791W        W31332  18.571  40.422  13.655
64792W        W31333  20.678   4.330   2.777
64793W        W31334  28.988  24.806   1.816
64794W        W31335   1.452  29.161   3.290
64795W        W31336  36.617  27.532   2.799
64796W        W31337   0.954  22.136  11.253
64797W        W31338  14.885  43.844   2.566
64798W        W31339  34.506  14.559   3.866
64799W        W31340  12.622  11.180   1.285
64800W        W31341  23.530  12.586   1.868
64801W        W31342  41.845  42.524   1.750
64802W        W31343  20.320   0.830  14.053
64803W        W31344  35.654   4.232   1.156
64804W        W31345  11.182   4.605   1.061
64805W        W31346   6.424  18.849   4.067
64806W        W31347   6.710  33.919   1.273
64807W        W31348  30.118  18.643   4.360
64808W        W31349   0.971   2.060   0.280
64809W        W31350   1.473  23.686  14.376
64810W        W31351  29.853  41.256  13.646
64811W        W31352  11.448  19.966   0.987
64812W        W31353  17.512  24.100  10.663
64813W        W31354  21.787  14.371  10.816
64814W        W31355  20.288  23.678  14.079
64815W        W31356  15.532  12.649  14.878
64816W        W31357  36.829  30.639   0.683
64817W        W31358   9.791  28.886   0.760
64818W        W31359  38.573   4.204   3.691
64819W        W31360  21.970   0.261  11.578
64820W        W31361   0.363  42.859   2.142
64821W        W31362  35.976   4.062  11.364
64822W        W31363  37.037  33.468  11.267
64823W        W31364  27.485  19.988   1.290
64824W        W31365  42.402  34.126   1.057
64825W        W31366  28.228  21.701  11.468
64826W        W31367  22.062   2.394   3.325
64827W        W31368   6.029  19.599  10.460
64828W        W31369  35.855  37.784   4.826
64829W        W31370  39.575  12.582   0.332
64830W        W31371  26.139  12.365   1.464
64831W        W31372  32.418  40.439   2.868
64832W        W31373  22.826   5.211   0.896
64833W        W31374  31.490  40.018  13.318
64834W        W31375   3.763   0.486   2.946
64835W        W31376  38.885   9.207   4.042
64836W        W31377  28.851   8.658  12.508
64837W        W31378   7.814  40.765  14.278
64838W        W31379  19.163  12.507   3.255
64839W        W31380  20.313  21.121   3.611
64840W        W31381  30.517   7.078   3.121
64841W        W31382   7.585  38.289  13.481
64842W        W31383  33.880  15.147   3.689
64843W        W31384  44.957   7.195   2.375
64844W        W31385  30.573   0.501   4.301
64845W        W31386  28.156   6.724  12.591
64846W        W31387   6.438  17.575   2.315
64847W        W31388  11.829   3.193  10.367
64848W        W31389  38.487  22.365  13.039
64849W        W31390  17.177   6.787   0.562
64850W        W31391  24.709  38.117   3.282
64851W        W31392   0.794  38.080   3.664
64852W        W31393   8.970  40.600   4.451
64853W        W31394  23.539  33.680  13.009
64854W        W31395  41.045  25.700  14.842
64855W        W31396  25.032  28.667  12.892
64856W        W31397  23.674   7.801  13.820
64857W        W31398  17.821   4.383  14.312
64858W        W31399  31.723  21.135  14.571
64859W        W31400  16.309  27.700   0.000
64860W        W31401  30.294   9.219   4.258
64861W        W31402   9.133   1.894  14.893
64862W        W31403  14.285   4.177   2.816
64863W        W31404   0.994  12.261   1.402
64864W        W31405  39.456  13.828  13.524
64865W        W31406  29.009  23.982  12.318
64866W        W31407  33.527   1.418   5.511
64867W        W31408  40.062  19.618   1.687
64868W        W31409   8.351   6.357  13.834
64869W        W31410  10.225  16.087   0.325
64870W        W31411  32.125  44.150  11.516
64871W        W31412  12.866  25.067   2.400
64872W        W31413  23.596  39.540  14.803
64873W        W31414  41.774  15.317  12.950
64874W        W31415  40.328  38.798  11.692
64875W        W31416   6.207  18.381  10.129
64876W        W31417  16.478  22.749   1.772
64877W        W31418   3.760  27.201  12.864
64878W        W31419  15.337  23.855  13.614
64879W        W31420  24.527  21.316  11.623
64880W        W31421   3.932  15.675  14.052
64881W        W31422  40.466  16.829  13.847
64882W        W31423  11.149  44.433  11.943
64883W        W31424  44.212   2.217   2.151
64884W        W31425  34.452  41.095   1.777
64885W        W31426  21.715   4.220   2.327
64886W        W31427  20.705  28.418  12.865
64887W        W31428  40.546   5.916  14.285
64888W        W31429  32.161  12.699  14.887
64889W        W31430   2.548   7.692   0.793
64890W        W31431  43.982   4.767   2.723
64891W        W31432  33.394  38.404  12.254
64892W        W31433  21.278  14.319  14.464
64893W        W31434  20.852   1.748  11.295
64894W        W31435  35.320   6.405   0.188
64895W        W31436  12.777  44.239   4.939
64896W        W31437   3.381  22.847   4.364
64897W        W31438  25.020  27.552   1.291
64898W        W31439  22.143  33.382   3.457
64899W        W31440  28.560  26.539  14.318
64900W        W31441   5.374  14.151   4.977
64901W        W31442   4.944  38.910  14.903
64902W        W31443   6.175  15.866   0.353
64903W        W31444  26.525  44.922  12.116
64904W        W31445   5.024  37.016   4.687
64905W        W31446  22.613  13.694   3.355
64906W        W31447  33.510   9.294   1.254
64907W        W31448   6.407  40.213   1.291
64908W        W31449  15.395  34.517  11.603
64909W        W31450  25.784  25.714   4.323
64910W        W31451  12.850   2.137  11.988
64911W        W31452  41.040  13.055  14.054
64912W        W31453  35.308  31.969  10.842
64913W        W31454  36.500  13.259  13.292
64914W        W31455  35.934  37.266  13.598
64915W        W31456  31.910   9.704  10.246
64916W        W31457  11.401   2.330   2.365
64917W        W31458   3.189  15.771   0.432
64918W        W31459  29.060  43.413   0.223
64919W        W31460  42.731   3.429  12.692
64920W        W31461  40.823  23.845   0.065
64921W        W31462  27.395  31.198   3.804
64922W        W31463  18.895  16.022  14.380
64923W        W31464  41.045  31.884   2.702
64924W        W31465  37.042  18.750  11.588
64925W        W31466  16.277  27.238  12.896
64926W        W31467  11.811  35.105   0.883
64927W        W31468  35.143  22.509  11.336
64928W        W31469  35.481  13.094   3.746
64929W        W31470  37.791  26.116  12.254
64930W        W31471  34.136  19.731  13.481
64931W        W31472   3.221  11.444   3.741
64932W        W31473   7.296  22.265   3.366
64933W        W31474  34.457  24.207  12.485
64934W        W31475   4.317   4.486  13.575
64935W        W31476  18.991   8.316  11.318
64936W        W31477  18.350  28.058   4.168
64937W        W31478  25.009  43.859   4.604
64938W        W31479  30.626  15.027  10.946
64939W        W31480  26.615   3.260   2.852
64940W        W31481   5.479  24.158  11.981
64941W        W31482  12.501   5.326   4.642
64942W        W31483   4.793  14.568  12.975
64943W        W31484  37.910  15.479  13.204
64944W        W31485   6.885  21.577   4.135
64945W        W31486  34.637  23.246  13.570
64946W        W31487  30.145   7.706  14.256
64947W        W31488   6.766  17.344  12.199
64948W        W31489  15.842  27.711  14.812
64949W        W31490   9.480  43.206  14.423
64950W        W31491  18.165  32.821   1.352
64951W        W31492  40.932  30.915   2.300
64952W        W31493   6.765   2.776   4.125
64953W        W31494  24.693  43.734   2.300
64954W        W31495  25.051   5.392  14.902
64955W        W31496  11.637  30.574   2.415
64956W        W31497  32.043  12.888   1.271
64957W        W31498  32.758  39.940   3.783
64958W        W31499  10.908  25.322   3.360
64959W        W31500  12.396   5.110   3.826
64960W        W31501  42.484  27.581  10.771
64961W        W31502  16.656  16.102   2.811
64962W        W31503  21.221   7.417  12.625
64963W        W31504  24.510   8.163  13.596
64964W        W31505   1.411   7.121  12.546
64965W        W31506  28.092   4.009   2.764
64966W        W31507  42.747   4.344  11.902
64967W        W31508  38.868  22.569   3.295
64968W        W31509   4.741  22.672  10.467
64969W        W31510  16.710   8.378  12.528
64970W        W31511   8.201  24.820   3.021
64971W        W31512  21.138  27.554   0.792
64972W        W31513   7.152  43.239  11.209
64973W        W31514  34.013   8.650   4.273
64974W        W31515  16.811  42.681   5.010
64975W        W31516  10.643   0.517  14.866
64976W        W31517  34.496  31.282   0.604
64977W        W31518  31.468  22.068  14.107
64978W        W31519  37.765  13.599  13.159
64979W        W31520   0.921  29.144   0.178
64980W        W31521  42.847  17.345  13.759
64981W        W31522  27.644  18.080  11.625
64982W        W31523  13.877  20.568  13.823
64983W        W31524   3.247  44.602  13.649
64984W        W31525  29.038   4.724   4.804
64985W        W31526  30.595  15.253   3.546
64986W        W31527   8.808  41.087   4.285
64987W        W31528  25.228  19.433  13.526
64988W        W31529  18.173  20.752  13.302
64989W        W31530  24.996  25.225   4.180
64990W        W31531  22.019  30.385  14.464
64991W        W31532  10.338   7.926  12.131
64992W        W31533   5.712  43.584  12.179
64993W        W31534   2.770  27.906  14.599
64994W        W31535   9.179  11.335   3.100
64995W        W31536   6.199  38.363  11.495
64996W        W31537  17.164   2.452  13.016
64997W        W31538  23.164   4.518   4.522
64998W        W31539  18.285  37.759   2.863
64999W        W31540  38.867  26.337  11.519
65000W        W31541   9.825  34.733   0.317
65001W        W31542  14.796  17.780  12.136
65002W        W31543  39.108  23.643  11.143
65003W        W31544  42.560  18.739  12.992
65004W        W31545  13.818  12.700   2.632
65005W        W31546  42.605  37.498  10.690
65006W        W31547  43.003  17.783  14.671
65007W        W31548  34.382   4.983   5.323
65008W        W31549  12.064   7.429  11.193
65009W        W31550  27.207  23.157  10.996
65010W        W31551  17.024  18.841  12.979
65011W        W31552   3.130   9.397   3.588
65012W        W31553  38.411  13.542   1.260
65013W        W31554  28.109   4.705   1.525
65014W        W31555  26.266   9.407  13.950
65015W        W31556  34.039  24.238  11.225
65016W        W31557  30.628  13.605  11.020
65017W        W31558  40.999  34.375  11.215
65018W        W31559  35.628  43.989  13.455
65019W        W31560  11.768  24.599   1.381
65020W        W31561  34.179  36.412  12.000
65021W        W31562   1.483  36.470   1.187
65022W        W31563  14.320  40.092  13.494
65023W        W31564  10.636  18.684   0.371
65024W        W31565  17.050  31.479   0.535
65025W        W31566  16.223  28.743  13.124
65026W        W31567  43.990   1.026  13.897
65027W        W31568  27.554  12.556  13.087
65028W        W31569  33.395  33.490  10.394
65029W        W31570  33.936  30.962   4.765
65030W        W31571  30.497  16.304   4.609
65031W        W31572  24.022  15.674  10.783
65032W        W31573  23.958  35.822  14.120
65033W        W31574  18.445   2.261  10.783
65034W        W31575  41.872  33.937   0.307
65035W        W31576  16.681  13.408  11.976
65036W        W31577  29.151  34.801   2.132
65037W        W31578  26.881  34.602   4.484
65038W        W31579  17.867  27.405  12.474
65039W        W31580  35.016  43.725  11.131
65040W        W31581   4.079  23.120   1.379
65041W        W31582  10.906  14.110  14.978
65042W        W31583  39.485  33.962  14.543
65043W        W31584  15.699  25.563   0.278
65044W        W31585  34.351  17.893   1.740
65045W        W31586   6.931  15.215   2.126
65046W        W31587  21.365  40.208  14.396
65047W        W31588  31.073   5.645   2.921
65048W        W31589  44.044  25.503   3.735
65049W        W31590   2.234   3.484   1.780
65050W        W31591   0.954  37.566   2.803
65051W        W31592  28.862  20.073   3.656
65052W        W31593  20.639  42.132   1.723
65053W        W31594   6.155  31.650  11.080
65054W        W31595  44.263  28.441  11.764
65055W        W31596  31.916  37.445  14.415
65056W        W31597  34.064   2.489   3.070
65057W        W31598  31.603   1.725  11.913
65058W        W31599  43.798  13.929  10.854
65059W        W31600  11.889   1.315   2.784
65060W        W31601  16.314  44.259   1.749
65061W        W31602  38.199  38.068   1.734
65062W        W31603  44.181  28.655  13.123
65063W        W31604  40.249  12.275  14.894
65064W        W31605   0.951  43.492   1.299
65065W        W31606  24.492  38.037   2.753
65066W        W31607  24.444  34.005   4.141
65067W        W31608  13.403  12.817  14.479
65068W        W31609  31.008  29.706   3.025
65069W        W31610   1.809  24.655  14.268
65070W        W31611  16.579  23.479   1.302
65071W        W31612   7.000  16.725   4.273
65072W        W31613   1.716   7.739   3.275
65073W        W31614  32.720  29.590   4.915
65074W        W31615  19.130  38.033   3.318
65075W        W31616   0.769   6.233  12.202
65076W        W31617  34.656  14.255  12.902
65077W        W31618  36.380  42.865   4.959
65078W        W31619  39.311  16.242   1.650
65079W        W31620  12.922  15.310  14.216
65080W        W31621  29.130  31.668  11.586
65081W        W31622  39.367  37.592   9.958
65082W        W31623   8.311  17.582  11.061
65083W        W31624  44.279  43.690  14.880
65084W        W31625  31.025   6.114  11.512
65085W        W31626  12.452  38.909  12.220
65086W        W31627  36.414  43.797  11.756
65087W        W31628  34.562  15.462   4.898
65088W        W31629  26.965  11.305  12.913
65089W        W31630   7.648  30.095  11.120
65090W        W31631  27.703  41.501   0.874
65091W        W31632  20.573  17.305   0.946
65092W        W31633   4.802  38.024  14.717
65093W        W31634  17.161  13.866  13.246
65094W        W31635  36.509  18.300   2.133
65095W        W31636   8.249  26.939   1.270
65096W        W31637  12.757  39.417   1.142
65097W        W31638  37.808   2.803  12.938
65098W        W31639  18.605  39.974   2.881
65099W        W31640  15.158   4.370   4.592
65100W        W31641  22.646  42.955  13.035
65101W        W31642  38.230  22.268   0.839
65102W        W31643  16.023  43.012  10.686
65103W        W31644  18.271  30.436   4.671
65104W        W31645   3.515   3.942  13.943
65105W        W31646   9.340  23.179   1.331
65106W        W31647   8.556  18.114  13.774
65107W        W31648  12.364   3.244  11.578
65108W        W31649  19.571   7.486  11.546
65109W        W31650   2.230  10.368   0.226
65110W        W31651  23.626  22.814   2.916
65111W        W31652  30.399  24.826  14.184
65112W        W31653  44.862  34.822  14.401
65113W        W31654   5.375  44.740  12.980
65114W        W31655   7.109  35.405  14.810
65115W        W31656  27.905  23.273   3.345
65116W        W31657   2.372  34.467   4.740
65117W        W31658  36.851  32.446   3.210
65118W        W31659  16.089  12.392  13.967
65119W        W31660  41.937  10.229  11.454
65120W        W31661  10.691   2.279   3.847
65121W        W31662  24.536  19.707   5.144
65122W        W31663  30.908   3.278  13.064
65123W        W31664  35.980  16.563   0.514
65124W        W31665  23.569   9.976  13.108
65125W        W31666  16.361  24.103  12.070
65126W        W31667  15.074  10.329   0.414
65127W        W31668   4.327  42.961   0.584
65128W        W31669  15.709  13.717  12.105
65129W        W31670  43.787  12.345   4.926
65130W        W31671   1.218  15.197   1.665
65131W        W31672  17.112  24.517  10.595
65132W        W31673   8.432   6.951  14.479
65133W        W31674  33.366  15.933   0.533
65134W        W31675  20.261  10.833  11.563
65135W        W31676  30.057  30.159  10.813
65136W        W31677  32.946  30.592  10.716
65137W        W31678  26.688   9.279  12.331
65138W        W31679  36.202  39.162   4.156
65139W        W31680  23.512  12.507   0.882
65140W        W31681   4.295  19.128   4.035
65141W        W31682  22.010   9.855  13.867
65142W        W31683  36.519   6.870   3.665
65143W        W31684   9.789  38.579  13.455
65144W        W31685  36.320  11.408   4.074
65145W        W31686  22.528  39.938  12.470
65146W        W31687  38.069  10.249  13.295
65147W        W31688  14.720  20.745   3.239
65148W        W31689  43.232  24.434  12.555
65149W        W31690  39.069  31.903  10.985
65150W        W31691  22.234  16.033  14.440
65151W        W31692  38.500   4.082  12.588
65152W        W31693  41.839  27.471   2.812
65153W        W31694  36.364  17.163   0.686
65154W        W31695  32.083  14.248  11.921
65155W        W31696  28.975  22.100  12.576
65156W        W31697  40.001  16.822  10.762
65157W        W31698   7.864  29.007   4.457
65158W        W31699   0.731  42.006  14.848
65159W        W31700   9.712  24.791   0.687
65160W        W31701  22.033  22.998  12.584
65161W        W31702  27.633  36.888  13.614
65162W        W31703  19.585   9.224   4.067
65163W        W31704   5.863  36.690   4.993
65164W        W31705   8.405  39.528   1.842
65165W        W31706  43.405   4.871   3.677
65166W        W31707  44.844  35.179  10.914
65167W        W31708  33.918   0.362   0.710
65168W        W31709  34.410  35.616  11.587
65169W        W31710  27.858  42.061  11.190
65170W        W31711  18.278  29.992   1.773
65171W        W31712  22.395  33.899  12.671
65172W        W31713   0.780  17.262  11.289
65173W        W31714  24.185  18.100   2.192
65174W        W31715  11.774  13.288   4.728
65175W        W31716  14.798  33.404  11.085
65176W        W31717   6.307   6.237   9.784
65177W        W31718  28.724  30.800  14.273
65178W        W31719  22.186  18.300   0.179
65179W        W31720  40.107  18.788   3.306
65180W        W31721  37.858  34.980  14.279
65181W        W31722  18.271  21.099   3.726
65182W        W31723  31.946   1.688   0.848
65183W        W31724  26.057  26.461  10.946
65184W        W31725  26.150  14.016   3.744
65185W        W31726  31.571   3.021   0.801
65186W        W31727  43.915  13.506   2.944
65187W        W31728  30.907  31.427   1.305
65188W        W31729  36.926   7.657   2.734
65189W        W31730  34.782  10.710   1.166
65190W        W31731  35.787  30.067  10.764
65191W        W31732  11.996  36.610   4.157
65192W        W31733   1.419  29.067   3.865
65193W        W31734  25.042  38.315   2.203
65194W        W31735   6.199  25.486  12.382
65195W        W31736   6.883  41.206  11.731
65196W        W31737   3.349  27.711   4.378
65197W        W31738  40.935   9.643   3.683
65198W        W31739  17.164  14.373   1.488
65199W        W31740   0.281  13.245   3.845
65200W        W31741  44.981  34.610   3.711
65201W        W31742  16.142  14.558  12.059
65202W        W31743  24.365  23.445   4.522
65203W        W31744  42.918  29.463  14.846
65204W        W31745  13.993   2.919   4.129
65205W        W31746  27.777  39.033   1.277
65206W        W31747  30.058   4.952  14.996
65207W        W31748  30.521   9.568  11.164
65208W        W31749  32.029  28.826  13.103
65209W        W31750  10.639   2.372  14.854
65210W        W31751  34.398  19.724  14.010
65211W        W31752   3.161  12.351  14.522
65212W        W31753  20.435   9.125  14.253
65213W        W31754  37.496  36.861  13.413
65214W        W31755  11.721   6.449   1.803
65215W        W31756   7.849  20.005  12.080
65216W        W31757   0.814   8.652  12.147
65217W        W31758   7.532  41.833  13.340
65218W        W31759  21.129  42.798   5.029
65219W        W31760   9.154  26.442   1.214
65220W        W31761   8.469  18.122  12.124
65221W        W31762  21.795  42.056   3.176
65222W        W31763   8.784  37.243  14.083
65223W        W31764   9.918  13.171   1.051
65224W        W31765   5.270   1.064   0.991
65225W        W31766   5.537  26.629   2.776
65226W        W31767  20.365  40.524  13.713
65227W        W31768  44.296   0.736   5.109
65228W        W31769   4.729   0.796  11.128
65229W        W31770  25.512  37.721  11.518
65230W        W31771  39.598  31.032   2.319
65231W        W31772  37.167  43.879   3.279
65232W        W31773  10.650  29.130   0.196
65233W        W31774  31.028  38.046  13.962
65234W        W31775  30.330  17.428  13.469
65235W        W31776   7.251  10.230   2.639
65236W        W31777  22.915  12.270   2.318
65237W        W31778  14.267  36.929   4.126
65238W        W31779   8.948  18.330   0.424
65239W        W31780  14.028  15.399   1.959
65240W        W31781  17.092  33.813  10.815
65241W        W31782  43.885  39.872   4.348
65242W        W31783   5.930  37.980   2.861
65243W        W31784   1.095   5.525  11.110
65244W        W31785   0.976  34.561   0.330
65245W        W31786  35.548  28.112   0.817
65246W        W31787  10.317   0.277  10.139
65247W        W31788   8.959  31.525   0.880
65248W        W31789  43.419  38.369   1.601
65249W        W31790  37.319  23.596  12.755
65250W        W31791  25.978  43.019   0.306
65251W        W31792  24.707   4.474   4.155
65252W        W31793  20.934  34.878   1.285
65253W        W31794   6.509  14.616   0.871
65254W        W31795  22.549  28.497   1.502
65255W        W31796  13.907  35.330  12.829
65256W        W31797   8.485  34.930  14.298
65257W        W31798   3.729  41.008  12.884
65258W        W31799  19.177  33.526   1.361
65259W        W31800   6.342  34.796   0.455
65260W        W31801  12.351  35.876   4.405
65261W        W31802   3.181  25.484  14.824
65262W        W31803   1.784  32.177   3.073
65263W        W31804  30.092  31.403  11.087
65264W        W31805  36.452   8.920   1.993
65265W        W31806  41.453  36.400  14.770
65266W        W31807  39.641  31.089   3.735
65267W        W31808   0.409   9.166  11.588
65268W        W31809  36.076  33.133  11.221
65269W        W31810   2.391  31.621   1.278
65270W        W31811  17.908  30.061   4.803
65271W        W31812  30.422  11.370   5.087
65272W        W31813  35.060  31.777  14.202
65273W        W31814  42.440  33.505   4.525
65274W        W31815  32.894  23.874   3.756
65275W        W31816   5.768  39.375  11.564
65276W        W31817   0.081   7.640   2.088
65277W        W31818  11.500  38.842   3.739
65278W        W31819  28.902  23.009  13.171
65279W        W31820  39.254   5.670  13.911
65280W        W31821  18.005   8.252  14.464
65281W        W31822  29.066   5.980  10.726
65282W        W31823  33.408  23.046  12.498
65283W        W31824  22.807  27.402  12.550
65284W        W31825  44.891   0.479   0.977
65285W        W31826  17.804  24.346   2.630
65286W        W31827  17.576  13.301   3.224
65287W        W31828  34.147  14.533  11.213
65288W        W31829  33.032   5.965  11.065
65289W        W31830   4.400  16.840   3.135
65290W        W31831  29.436   0.559   2.784
65291W        W31832   4.691  39.162   1.388
65292W        W31833  15.758   1.739   0.866
65293W        W31834  12.704  34.909   1.298
65294W        W31835  39.920   9.698   1.364
65295W        W31836   5.645  26.931   1.451
65296W        W31837  29.639  38.293   3.129
65297W        W31838  43.298   0.326   1.168
65298W        W31839  26.476  16.834   4.082
65299W        W31840  33.328  27.578   3.853
65300W        W31841   4.282  39.924   3.099
65301W        W31842  39.874  34.036   0.096
65302W        W31843  24.210  23.622   2.712
65303W        W31844  23.714  12.215   1.291
65304W        W31845  33.351  32.575   3.751
65305W        W31846  18.247  31.063   0.308
65306W        W31847  22.685  30.683   1.256
65307W        W31848  34.484  20.684  12.016
65308W        W31849  13.281  28.434  11.147
65309W        W31850   6.795  21.127  11.754
65310W        W31851  44.431  11.825  10.660
65311W        W31852  16.183  15.084   3.153
65312W        W31853   2.225  27.594  13.874
65313W        W31854   0.640   2.866  14.157
65314W        W31855   5.514   7.081   4.185
65315W        W31856   8.770  10.171   2.623
65316W        W31857  32.903   0.568  14.827
65317W        W31858  13.702   8.777   0.532
65318W        W31859  21.784  28.382   4.172
65319W        W31860   3.012  13.149  14.853
65320W        W31861  18.321  17.923  13.804
65321W        W31862  10.610  42.053  10.399
65322W        W31863  33.087  28.735  11.507
65323W        W31864  33.860   2.869  13.517
65324W        W31865  34.496  44.624   1.906
65325W        W31866   0.409  14.239   0.480
65326W        W31867  19.608  18.549   3.319
65327W        W31868   4.377  30.112  12.025
65328W        W31869  23.350  27.797  11.277
65329W        W31870  21.180  24.563   3.169
65330W        W31871  20.959  33.085   5.006
65331W        W31872  29.122   6.323  13.565
65332W        W31873  30.971  15.355  12.029
65333W        W31874  10.919  39.914   4.543
65334W        W31875   9.873  14.883   2.167
65335W        W31876  18.247  31.383  12.118
65336W        W31877   4.403  12.159   1.736
65337W        W31878  44.448  24.973   1.706
65338W        W31879   0.526  15.837   1.785
65339W        W31880  27.916  20.927   3.178
65340W        W31881   3.775  24.567   2.365
65341W        W31882  26.106   2.385   0.506
65342W        W31883  44.948  27.824  10.683
65343W        W31884  18.642  43.382   1.176
65344W        W31885  11.312  27.134   2.835
65345W        W31886  10.263  16.732  12.063
65346W        W31887   0.893  31.593   1.707
65347W        W31888  30.447  11.802  12.502
65348W        W31889  30.352  38.915   2.257
65349W        W31890  40.574  24.464   3.068
65350W        W31891  40.825  31.220   3.267
65351W        W31892  39.018  14.838   0.280
65352W        W31893  44.254  20.209  14.336
65353W        W31894   1.440  24.041  10.162
65354W        W31895  32.035  28.457  13.462
65355W        W31896   9.388   3.555  10.851
65356W        W31897  17.422  32.394  10.555
65357W        W31898   6.164  24.123  14.910
65358W        W31899  18.839  28.092   4.035
65359W        W31900   7.835  40.336   2.650
65360W        W31901  27.903  41.050   1.623
65361W        W31902   9.163  27.183  12.582
65362W        W31903   9.816  17.645  14.943
65363W        W31904   8.739   1.059  12.611
65364W        W31905  10.634   5.289  10.659
65365W        W31906  29.276  17.914  12.551
65366W        W31907  44.454   9.366   4.071
65367W        W31908   3.725  19.222   0.785
65368W        W31909  13.383  19.920  12.566
65369W        W31910  33.721  34.398   0.538
65370W        W31911  32.145   4.917  11.158
65371W        W31912  20.633   7.426   1.836
65372W        W31913   3.006   0.280  12.472
65373W        W31914  10.278   6.610  12.430
65374W        W31915  30.863  23.113   0.747
65375W        W31916  24.084   3.682  11.082
65376W        W31917  37.105  32.507  14.278
65377W        W31918  17.221  12.737  12.978
65378W        W31919  35.958   4.691   2.635
65379W        W31920   8.254  23.938  11.038
65380W        W31921  24.999   5.446  10.699
65381W        W31922  32.909  30.692   2.850
65382W        W31923   9.078  44.101   3.080
65383W        W31924  41.701  25.818  11.140
65384W        W31925  24.679  30.018  11.540
65385W        W31926  21.825   0.580   4.790
65386W        W31927  21.596  12.640  14.890
65387W        W31928  26.030  31.349   3.287
65388W        W31929  29.014  36.014  12.796
65389W        W31930  44.325  32.973   0.483
65390W        W31931   8.911  28.897   0.831
65391W        W31932  16.164  40.402   0.330
65392W        W31933   9.440  17.310   3.462
65393W        W31934  34.473  26.250   4.510
65394W        W31935  11.124  32.008   1.353
65395W        W31936   8.731  15.125   2.623
65396W        W31937  40.890  30.087  10.764
65397W        W31938  28.695  11.880   1.760
65398W        W31939  34.659  24.970  12.801
65399W        W31940  43.309  34.220  14.729
65400W        W31941   8.890  22.104   2.818
65401W        W31942  10.318  15.617  13.440
65402W        W31943  15.252  25.249  13.951
65403W        W31944   3.519  38.315  11.143
65404W        W31945  34.064  42.833   0.437
65405W        W31946   4.451  27.411  14.562
65406W        W31947  33.466  35.726   4.990
65407W        W31948  32.451  32.962   4.580
65408W        W31949  42.807  37.330   1.234
65409W        W31950   9.361  24.133  12.890
65410W        W31951   5.555  43.626  11.204
65411W        W31952   8.145  17.732  11.529
65412W        W31953  35.577  39.252   4.271
65413W        W31954  35.019  26.053   0.961
65414W        W31955   5.855  22.429   0.721
65415W        W31956  25.595  17.624  11.190
65416W        W31957  17.736  16.293  10.686
65417W        W31958  13.713  44.960   2.981
65418W        W31959   2.304  40.556  14.811
65419W        W31960  17.559  22.184   3.274
65420W        W31961  42.037  18.674   3.360
65421W        W31962  12.380  12.222  11.421
65422W        W31963  39.769  16.820   5.316
65423W        W31964   1.514   2.894  13.080
65424W        W31965  29.366   1.850   4.601
65425W        W31966  19.195  37.838   3.802
65426W        W31967  32.020  25.453   4.623
65427W        W31968  37.852  21.824   2.221
65428W        W31969  32.926  26.517  11.715
65429W        W31970  16.738  34.982   2.593
65430W        W31971  41.077   3.558  12.011
65431W        W31972  25.987  27.393   1.276
65432W        W31973   5.826   7.449  10.746
65433W        W31974  14.700  44.982   4.065
65434W        W31975   1.407  34.388   0.552
65435W        W31976  32.780  22.442  11.001
65436W        W31977   2.972  30.626  13.997
65437W        W31978   8.869  20.586   2.596
65438W        W31979  17.232  23.285  14.274
65439W        W31980   8.659  25.561  13.421
65440W        W31981   3.416  34.647   3.359
65441W        W31982  40.582  12.255   9.886
65442W        W31983  22.546  37.599  10.707
65443W        W31984  35.279  31.625   1.901
65444W        W31985  32.515  12.893   2.284
65445W        W31986  36.194   5.832  13.253
65446W        W31987  38.047  40.866   2.406
65447W        W31988  25.285   1.460  14.750
65448W        W31989  39.918   5.680  14.493
65449W        W31990  38.185  29.588  11.972
65450W        W31991  16.166  43.068  12.543
65451W        W31992  26.616  42.559   4.611
65452W        W31993  41.873  28.982   2.357
65453W        W31994  12.726  34.151  14.920
65454W        W31995  31.575  10.577  14.322
65455W        W31996  20.488  31.336  14.715
65456W        W31997   6.201  36.312   2.171
65457W        W31998  12.117  38.223  14.876
65458W        W31999  39.422  24.058  10.936
65459W        W32000  11.734  32.950   4.484
65460W        W32001  35.407  42.471  10.997
65461W        W32002   0.511  25.547   0.780
65462W        W32003  41.233  36.889   0.382
65463W        W32004  39.933   3.129  12.980
65464W        W32005  26.030  30.573  13.455
65465W        W32006  42.426   9.487  12.524
65466W        W32007  27.111  12.462   4.096
65467W        W32008   0.709  33.615  12.828
65468W        W32009  17.292  32.995   4.114
65469W        W32010  24.265  36.273  12.614
65470W        W32011  37.835  23.121   1.262
65471W        W32012  25.260   3.179  14.718
65472W        W32013  42.431  18.830   3.707
65473W        W32014   0.255  16.625  10.986
65474W        W32015  42.345  38.879   0.832
65475W        W32016  28.469  38.826   2.816
65476W        W32017  41.337  24.888   4.582
65477W        W32018  22.689  36.959  14.968
65478W        W32019  26.715  15.473  10.569
65479W        W32020  28.597  34.820  12.864
65480W        W32021  44.386  26.105   4.532
65481W        W32022  20.686   7.468   3.576
65482W        W32023  32.292  28.690   0.754
65483W        W32024  29.145  16.225  10.825
65484W        W32025  20.197  11.468   4.940
65485W        W32026  41.873  20.943  14.013
65486W        W32027  42.713  21.920   2.719
65487W        W32028   2.276   3.668  11.368
65488W        W32029  31.900   4.983  13.430
65489W        W32030  40.429  33.910  14.729
65490W        W32031  29.928  43.539  10.719
65491W        W32032   4.191  38.233  10.821
65492W        W32033  20.712  10.462  13.467
65493W        W32034  27.919  34.483   1.352
65494W        W32035  36.547  12.755  13.002
65495W        W32036  35.263  26.071   0.230
65496W        W32037  30.338  28.593   4.772
65497W        W32038  32.452  19.141  10.774
65498W        W32039   3.700  28.657  13.380
65499W        W32040   8.249  44.065  10.493
65500W        W32041  13.893  42.372   0.474
65501W        W32042  44.501  30.711   0.640
65502W        W32043  34.048  23.187   0.749
65503W        W32044  37.448   0.063  14.248
65504W        W32045  35.911  38.983   4.570
65505W        W32046  23.762   4.198   3.936
65506W        W32047  30.864  11.823   1.276
65507W        W32048  31.884  26.526  11.552
65508W        W32049   5.989   6.875   4.251
65509W        W32050  41.001   2.293  14.853
65510W        W32051  17.111   3.905  12.945
65511W        W32052  44.218  28.357  13.560
65512W        W32053  14.143  35.043   3.974
65513W        W32054  13.461  44.435   4.325
65514W        W32055  24.049  32.955   4.526
65515W        W32056  40.614   8.621  14.309
65516W        W32057  34.026  24.581   2.242
65517W        W32058  28.596  16.113   3.815
65518W        W32059  34.611  38.388   0.672
65519W        W32060  43.079  42.078  12.316
65520W        W32061  38.863  17.745  11.312
65521W        W32062  23.792  23.283  11.064
65522W        W32063   4.226  21.590  11.857
65523W        W32064  32.384   5.912   2.707
65524W        W32065  10.284   4.139   3.496
65525W        W32066  28.183  27.335  10.360
65526W        W32067  17.517  26.363   3.902
65527W        W32068   9.752  36.281   2.893
65528W        W32069  19.185  22.055  10.624
65529W        W32070  41.318  14.372   1.302
65530W        W32071  43.046  33.088  12.764
65531W        W32072  14.163  38.369   3.382
65532W        W32073   2.639  40.344   4.827
65533W        W32074  22.014   9.242   3.671
65534W        W32075   1.747  23.154   3.691
65535W        W32076  42.290  26.686  10.475
65536W        W32077  29.088  31.625   0.162
65537W        W32078   2.270  21.154  14.273
65538W        W32079  15.731  43.294  12.637
65539W        W32080  17.759  31.996  13.154
65540W        W32081   8.633  31.458  11.247
65541W        W32082   0.214  12.250   0.744
65542W        W32083  36.046  25.376   0.893
65543W        W32084   0.562  31.160   3.419
65544W        W32085  40.971  40.333   4.372
65545W        W32086  23.238   9.369   0.944
65546W        W32087  44.355  26.385  13.317
65547W        W32088  41.444  29.163   1.106
65548W        W32089  21.974  11.792   1.366
65549W        W32090  16.792   8.248   1.970
65550W        W32091   4.170  28.803  14.943
65551W        W32092  38.618  20.893  13.883
65552W        W32093  29.169  16.177   1.458
65553W        W32094  42.927  24.638   1.844
65554W        W32095  32.038  20.210  13.537
65555W        W32096   2.918  28.495  12.869
65556W        W32097  16.993   4.542  13.983
65557W        W32098   2.850  41.564  14.359
65558W        W32099  26.297  30.522   3.634
65559W        W32100   3.344  22.535  13.745
65560W        W32101  10.257  31.103  11.068
65561W        W32102   1.901  20.085  13.530
65562W        W32103  35.019  37.706  14.990
65563W        W32104  22.206  36.378   1.518
65564W        W32105   8.793  17.637  13.713
65565W        W32106   7.941  42.342   1.408
65566W        W32107  13.761   3.197   0.917
65567W        W32108  19.082  26.147   3.440
65568W        W32109  28.684   5.843   9.740
65569W        W32110   8.958  36.379   3.220
65570W        W32111  34.667  42.973  10.458
65571W        W32112  14.759  29.929  11.556
65572W        W32113  25.648  15.174  14.612
65573W        W32114  17.724  12.364   0.754
65574W        W32115  17.139  18.637  10.534
65575W        W32116  42.860  20.021  11.700
65576W        W32117   4.322  10.915  12.394
65577W        W32118   3.701  42.966   1.223
65578W        W32119  25.191   0.490   4.182
65579W        W32120  20.648   8.927  10.422
65580W        W32121   7.511  27.964  11.478
65581W        W32122  23.149  14.578  14.342
65582W        W32123  22.937  34.550  12.879
65583W        W32124  28.226   9.644  11.501
65584W        W32125  18.205  37.333  14.686
65585W        W32126   9.686   8.184   2.411
65586W        W32127   3.601  21.551  12.987
65587W        W32128  26.919   2.430   3.810
65588W        W32129  37.156  33.232   2.882
65589W        W32130  44.906  39.509   3.411
65590W        W32131  13.849  37.304   3.628
65591W        W32132  40.914   2.455  12.614
65592W        W32133  25.930   1.725   4.633
65593W        W32134   7.392  13.871   3.895
65594W        W32135   3.673  23.651  12.127
65595W        W32136  32.565  37.177   3.117
65596W        W32137  28.199  28.347  14.909
65597W        W32138   6.872   5.207  13.905
65598W        W32139  22.183  35.800  13.538
65599W        W32140  11.853  40.296  13.334
65600W        W32141  28.017  12.246   1.798
65601W        W32142  44.620   5.431   2.770
65602W        W32143   5.900  19.169  13.432
65603W        W32144  42.473  37.666   3.136
65604W        W32145  42.748  29.989  14.992
65605W        W32146  18.068   4.805   1.279
65606W        W32147  40.980  34.803   1.200
65607W        W32148   5.370  27.283   0.783
65608W        W32149  10.682   8.738   0.312
65609W        W32150  35.963  17.770  11.509
65610W        W32151   0.228  21.053  12.439
65611W        W32152  31.215  27.900   0.021
65612W        W32153   9.687  18.740   0.511
65613W        W32154  38.627  41.905  14.431
65614W        W32155  31.741  15.789   2.258
65615W        W32156  31.096   5.927   0.333
65616W        W32157  24.072  14.056  11.698
65617W        W32158  12.258  29.494  13.308
65618W        W32159  35.783   4.456  12.522
65619W        W32160  30.657  22.628  11.646
65620W        W32161  18.762  32.182   4.611
65621W        W32162  18.593  11.560  11.271
65622W        W32163  24.806  35.556   0.473
65623W        W32164  17.614  39.620   3.650
65624W        W32165  43.425  44.547  11.348
65625W        W32166  10.153   2.993  13.843
65626W        W32167  31.479   3.706  10.574
65627W        W32168  30.542   6.443   2.720
65628W        W32169  22.810   5.295  10.906
65629W        W32170  13.665  21.996   4.095
65630W        W32171   4.194  23.262   3.228
65631W        W32172  14.316   9.810   1.404
65632W        W32173  21.532  40.109  11.067
65633W        W32174   8.199  27.366  13.940
65634W        W32175  17.133  38.696  10.608
65635W        W32176  34.570  31.034   2.621
65636W        W32177  14.712  36.498  12.166
65637W        W32178  20.167  32.546   2.405
65638W        W32179  33.983  32.068   1.944
65639W        W32180  32.881   9.323  11.540
65640W        W32181  21.570  38.341   3.272
65641W        W32182  35.663  27.671   3.725
65642W        W32183  37.008  36.042   0.580
65643W        W32184   2.606  42.565   4.895
65644W        W32185   5.772  16.780  14.367
65645W        W32186  43.334  39.162  14.472
65646W        W32187  15.307  22.158  11.320
65647W        W32188  10.112  15.249   0.783
65648W        W32189  17.952   2.750   3.583
65649W        W32190  29.343  27.647  14.806
65650W        W32191  40.245  14.729   2.848
65651W        W32192  13.721  44.514   2.212
65652W        W32193   8.789  32.439   1.394
65653W        W32194  25.262  36.366   0.982
65654W        W32195  15.531  44.443   2.991
65655W        W32196   4.038  29.529   0.990
65656W        W32197  13.168  27.244  12.512
65657W        W32198  16.903  30.260   0.874
65658W        W32199  26.166  13.265  14.182
65659W        W32200  22.217  12.312   0.461
65660W        W32201  23.590  31.945  11.113
65661W        W32202  15.266  13.482  12.129
65662W        W32203   8.099  18.373   0.907
65663W        W32204   8.457   6.138  12.016
65664W        W32205  18.032  34.944  11.189
65665W        W32206  27.682  44.964   4.532
65666W        W32207  36.199  19.140   4.587
65667W        W32208  12.800  40.761   2.248
65668W        W32209  24.531  30.651   2.326
65669W        W32210   5.135  11.518   3.714
65670W        W32211  27.584  38.169  10.862
65671W        W32212  31.044  31.689   2.862
65672W        W32213   7.856  38.313   0.910
65673W        W32214  24.012   0.479   0.849
65674W        W32215  23.851  18.021   0.864
65675W        W32216   1.378  17.049   3.719
65676W        W32217   7.237  31.576   3.169
65677W        W32218  32.220  38.862   4.056
65678W        W32219   4.353   6.189   3.286
65679W        W32220   3.211  33.685  12.097
65680W        W32221  18.081   3.506  11.474
65681W        W32222  20.676  33.141  14.425
65682W        W32223  27.228  11.184   1.873
65683W        W32224  34.102  29.847  13.421
65684W        W32225  43.388   3.759  11.450
65685W        W32226  23.762   4.210  12.932
65686W        W32227  43.489  10.849  11.977
65687W        W32228   2.428   7.715   3.916
65688W        W32229  41.967  19.044  12.095
65689W        W32230  37.415  11.848   0.747
65690W        W32231   2.939   4.399   2.850
65691W        W32232   2.892  22.948   0.657
65692W        W32233   3.742   4.716   2.634
65693W        W32234  30.557  42.428  13.161
65694W        W32235  44.121  43.236  11.194
65695W        W32236   1.896  39.603  11.679
65696W        W32237  32.648  44.356  13.491
65697W        W32238  44.828  16.282   3.845
65698W        W32239  11.190   6.146  12.396
65699W        W32240  17.245  16.888  14.452
65700W        W32241   6.677   9.613   3.148
65701W        W32242   1.363  11.094   4.139
65702W        W32243  17.228  41.344  14.485
65703W        W32244   2.992  17.841  10.661
65704W        W32245   1.726  15.123  14.027
65705W        W32246  12.706   3.430   0.523
65706W        W32247  41.054  43.546   2.265
65707W        W32248  39.829  27.075   1.042
65708W        W32249  25.501  11.622  12.968
65709W        W32250   6.428  32.967   0.774
65710W        W32251  14.549  21.809   2.682
65711W        W32252   4.240  18.543   0.382
65712W        W32253  29.393  19.609  13.974
65713W        W32254  20.763  37.525  11.310
65714W        W32255  11.412  37.953   4.502
65715W        W32256   5.244  43.351   1.605
65716W        W32257  12.302  24.084  12.297
65717W        W32258  41.812   0.769  14.564
65718W        W32259  23.027  12.745   2.157
65719W        W32260  20.347  12.615   0.255
65720W        W32261  10.769   2.161   0.562
65721W        W32262  37.875  28.032  10.331
65722W        W32263   9.657   3.648   1.903
65723W        W32264  37.983  35.329   0.868
65724W        W32265  12.370  41.503   1.302
65725W        W32266   0.135  11.081   0.493
65726W        W32267  40.920  39.443   4.424
65727W        W32268   6.675  35.156  14.955
65728W        W32269   8.651  35.980   3.260
65729W        W32270  10.326  23.653   2.349
65730W        W32271  15.253  28.786  12.879
65731W        W32272  20.763  44.251  13.030
65732W        W32273  28.218  43.594   2.769
65733W        W32274  12.160  30.375  10.658
65734W        W32275  19.755  15.113  13.081
65735W        W32276  23.253  17.593   3.794
65736W        W32277   6.641  23.517   3.172
65737W        W32278  13.552  26.114   4.242
65738W        W32279  16.626  15.454   0.980
65739W        W32280  14.719  12.235  11.158
65740W        W32281   0.376  36.390   0.626
65741W        W32282  20.515  35.959   0.921
65742W        W32283  41.950  33.686  14.845
65743W        W32284  16.128  34.946   2.950
65744W        W32285  24.724  28.001   3.294
65745W        W32286   3.942  43.227   4.293
65746W        W32287  35.931  25.020  11.947
65747W        W32288  42.801   6.196   1.738
65748W        W32289  11.723  31.868   2.190
65749W        W32290  15.832   0.025  12.020
65750W        W32291  42.700   1.207   4.590
65751W        W32292   5.776  30.018  10.604
65752W        W32293   7.691  16.125  11.665
65753W        W32294   9.233  39.128  14.838
65754W        W32295  40.307   6.104   1.109
65755W        W32296  25.464  16.563  12.917
65756W        W32297  36.544  18.465  11.556
65757W        W32298  34.854  32.631  12.045
65758W        W32299  30.987   8.664   0.991
65759W        W32300   3.421  32.888   0.475
65760W        W32301  13.470  12.460   4.951
65761W        W32302   9.678  25.940   3.807
65762W        W32303  28.051  18.393  11.142
65763W        W32304  40.119   6.890  14.753
65764W        W32305  36.081  24.145   3.108
65765W        W32306  25.354  38.512   2.699
65766W        W32307  14.807  20.661  13.824
65767W        W32308   3.282  30.069   1.287
65768W        W32309  30.378  43.344  14.383
65769W        W32310  31.131  35.895   4.156
65770W        W32311  15.472  11.194   4.096
65771W        W32312  34.608  25.082  12.007
65772W        W32313  11.189  43.225   1.704
65773W        W32314  12.356   8.255   0.207
65774W        W32315  16.299  27.543   1.453
65775W        W32316  16.134  34.973  11.071
65776W        W32317   5.441  14.127  12.583
65777W        W32318  31.694  40.939   1.250
65778W        W32319   6.378  28.638   4.707
65779W        W32320   3.541  41.412   4.613
65780W        W32321   8.474  42.862  11.468
65781W        W32322   0.469  39.944   3.515
65782W        W32323  37.386  44.566  14.475
65783W        W32324  15.191  21.639  11.332
65784W        W32325  41.880  36.397  11.623
65785W        W32326   6.012   2.013   9.980
65786W        W32327  14.810   5.438  14.333
65787W        W32328  28.758  17.981  14.787
65788W        W32329  35.128  33.371   1.613
65789W        W32330  18.747  37.471   2.813
65790W        W32331  31.742   9.776   0.462
65791W        W32332  43.033   3.446  13.113
65792W        W32333  30.530  10.907   0.774
65793W        W32334  37.365  15.199  11.554
65794W        W32335  33.920  17.721   0.804
65795W        W32336  10.128  39.873  12.687
65796W        W32337  34.175  20.584   2.724
65797W        W32338  16.832  19.793   1.213
65798W        W32339  13.802   7.545  13.078
65799W        W32340  32.215  39.441  12.425
65800W        W32341  14.113  12.780  11.494
65801W        W32342  23.108  19.553  14.362
65802W        W32343  31.890  24.687   1.362
65803W        W32344  42.661  21.681  10.507
65804W        W32345  30.103  32.876   0.462
65805W        W32346  13.712  29.991   3.642
65806W        W32347  42.191  21.700  10.809
65807W        W32348   0.793  19.816  13.000
65808W        W32349  30.086   4.623  11.616
65809W        W32350  28.351  12.095   0.823
65810W        W32351   0.516  12.073   1.444
65811W        W32352  28.246  30.013  14.050
65812W        W32353  33.962  25.444   0.312
65813W        W32354   1.744  38.385  14.408
65814W        W32355  13.391   1.527   0.798
65815W        W32356  10.323   1.434   2.909
65816W        W32357  38.032  27.061  14.910
65817W        W32358  22.201  38.957  10.722
65818W        W32359   6.124  10.535  10.835
65819W        W32360  20.667  29.670   0.908
65820W        W32361  37.059  12.121   1.811
65821W        W32362  11.793  23.453   2.736
65822W        W32363   4.892   8.818  13.865
65823W        W32364  26.996   6.005   3.726
65824W        W32365  40.740   7.304   1.142
65825W        W32366   0.940  32.909   1.344
65826W        W32367  36.986  17.654   3.684
65827W        W32368  12.077  16.915   0.552
65828W        W32369  10.876  27.957  13.443
65829W        W32370  10.134   2.984   0.944
65830W        W32371  34.515  17.856  14.316
65831W        W32372  38.527  38.823  12.445
65832W        W32373  34.890  26.428   3.720
65833W        W32374  11.037  11.024  11.587
65834W        W32375   0.157  29.537  14.920
65835W        W32376  40.276  28.732  11.406
65836W        W32377   7.836  20.530   2.710
65837W        W32378   6.814  34.894   4.169
65838W        W32379  35.563  15.254  12.525
65839W        W32380  19.283  30.636   1.228
65840W        W32381   3.462  37.772  12.012
65841W        W32382  21.701  30.507  12.040
65842W        W32383   6.754  36.495   4.210
65843W        W32384  19.140  43.674   1.449
65844W        W32385  43.834   5.267   1.035
65845W        W32386   4.613  40.366   4.608
65846W        W32387  19.749  31.179   2.849
65847W        W32388   0.890   1.974  12.631
65848W        W32389  28.627  25.970  12.375
65849W        W32390   7.031  43.690   0.235
65850W        W32391  10.437  28.452   0.366
65851W        W32392  44.411  27.072   4.684
65852W        W32393  19.493   6.300   3.836
65853W        W32394   6.292  17.652   0.868
65854W        W32395  13.231   3.517   4.577
65855W        W32396  24.493  34.944  14.127
65856W        W32397  32.815   8.788  10.881
65857W        W32398  19.442  29.537   0.294
65858W        W32399   0.915  30.896   9.808
65859W        W32400  19.533  33.960  13.570
65860W        W32401  17.733  22.163   0.086
65861W        W32402   8.727  18.584  14.677
65862W        W32403  38.441  35.477   4.114
65863W        W32404   7.243  43.219  12.650
65864W        W32405  30.942  23.546   2.162
65865W        W32406  10.776  13.475   4.446
65866W        W32407   7.907   4.283  10.652
65867W        W32408  28.917  36.694  12.346
65868W        W32409  36.934  36.313  10.323
65869W        W32410  34.590  18.058   1.229
65870W        W32411  13.146   6.951   3.282
65871W        W32412  25.398  19.920  11.486
65872W        W32413  38.565   8.700  14.798
65873W        W32414   6.252  43.313  14.959
65874W        W32415   1.240  32.941  14.287
65875W        W32416  26.608  38.342   1.199
65876W        W32417  15.167  28.360   0.679
65877W        W32418  35.456   9.774   3.714
65878W        W32419  18.736  26.560  14.416
65879W        W32420  30.564  25.489  13.427
65880W        W32421   0.812  36.840   4.156
65881W        W32422  23.603  40.663  11.903
65882W        W32423  19.029  38.565   1.339
65883W        W32424   1.908   9.448   4.752
65884W        W32425  34.001  24.940  14.437
65885W        W32426  34.034   0.828   0.986
65886W        W32427  15.669  37.598  10.652
65887W        W32428  36.415  33.460  13.308
65888W        W32429  17.908  10.260  11.595
65889W        W32430  39.451   9.176   4.083
65890W        W32431  39.053  12.285   4.214
65891W        W32432  44.943  43.922   1.376
65892W        W32433  42.738   3.854   1.190
65893W        W32434  31.735   7.878   4.176
65894W        W32435   0.780  42.389  10.721
65895W        W32436   4.938  25.493  14.533
65896W        W32437  18.381  33.430  14.007
65897W        W32438  14.482   5.226  13.153
65898W        W32439  14.679  30.460  13.387
65899W        W32440  25.467  19.353   2.173
65900W        W32441  18.498   0.484  11.687
65901W        W32442  19.474  10.668   0.847
65902W        W32443  15.267  13.868   0.693
65903W        W32444   3.526  26.713   1.231
65904W        W32445  31.017  36.101   2.710
65905W        W32446  38.795  39.875  10.985
65906W        W32447  23.388  20.440   2.273
65907W        W32448  41.404   1.299  11.001
65908W        W32449   2.955  17.764  12.777
65909W        W32450  43.247   0.713  13.381
65910W        W32451  29.590  40.611   0.605
65911W        W32452  29.311  27.471  12.038
65912W        W32453  12.022  31.700   4.059
65913W        W32454  22.009  11.303   1.153
65914W        W32455  34.990   4.146  13.127
65915W        W32456  42.741  22.016   0.394
65916W        W32457  19.626  12.278   1.985
65917W        W32458  16.229  33.190   2.723
65918W        W32459  12.678  10.705  14.017
65919W        W32460  21.622   4.467  14.931
65920W        W32461  27.511  17.441   2.250
65921W        W32462  28.612   6.893   3.731
65922W        W32463  22.577  13.099   4.091
65923W        W32464  20.190  21.559   0.438
65924W        W32465  40.589  31.557   3.629
65925W        W32466  25.207  36.069  13.495
65926W        W32467  39.924  38.798  10.991
65927W        W32468   9.852  35.948  12.534
65928W        W32469  29.389  32.599  12.552
65929W        W32470  22.892  38.928   3.139
65930W        W32471  33.455  23.572  13.546
65931W        W32472  28.887  31.943  12.978
65932W        W32473  17.003  40.405   3.264
65933W        W32474  25.459  25.874   3.360
65934W        W32475  28.446  42.405  14.430
65935W        W32476  37.093  42.012  12.390
65936W        W32477  33.415  43.278  14.891
65937W        W32478  27.637  21.005   3.616
65938W        W32479  14.085  21.057  12.557
65939W        W32480  38.829   5.752   4.977
65940W        W32481  39.332   9.406  13.288
65941W        W32482  27.225  11.936   9.519
65942W        W32483   2.672  25.690   2.227
65943W        W32484  38.959  23.523  13.538
65944W        W32485  38.880  41.869   4.359
65945W        W32486  42.767  14.638   3.136
65946W        W32487  25.241  33.997   2.736
65947W        W32488  43.809  19.398   4.109
65948W        W32489  44.255   6.672  13.368
65949W        W32490  16.101  36.096  14.904
65950W        W32491  31.150  12.633  12.925
65951W        W32492  23.442  43.992   2.171
65952W        W32493  44.913  23.183   0.829
65953W        W32494  14.740   0.705  15.000
65954W        W32495   4.985   1.763   1.954
65955W        W32496  12.251  15.815  10.238
65956W        W32497  33.056  22.497   2.367
65957W        W32498  40.496  38.076  12.058
65958W        W32499  26.525   7.908   2.413
65959W        W32500  13.343  15.790  11.053
65960W        W32501  26.208  13.718  11.555
65961W        W32502  35.395  24.924   3.232
65962W        W32503   2.360  24.187   2.703
65963W        W32504  28.034  39.875  12.964
65964W        W32505  28.941   5.470  10.735
65965W        W32506   9.903  17.148   2.811
65966W        W32507  38.444  31.485  11.306
65967W        W32508  33.948  31.662  13.122
65968W        W32509   9.452   2.693  14.367
65969W        W32510  32.961  15.407  14.825
65970W        W32511  42.359   1.411  13.322
65971W        W32512  11.136  43.684   1.437
65972W        W32513  44.282  35.998   3.867
65973W        W32514   9.835  32.517   3.281
65974W        W32515  24.242  23.950  13.879
65975W        W32516   2.758   5.400  10.998
65976W        W32517   9.862  21.299   4.068
65977W        W32518  41.117  38.964   4.835
65978W        W32519  22.537  34.577   0.875
65979W        W32520  25.052  16.375  14.728
65980W        W32521  37.871  19.550  11.183
65981W        W32522  24.168  44.317  14.521
65982W        W32523   7.749  42.394   5.021
65983W        W32524  31.082   4.248   0.183
65984W        W32525  12.904   8.895   3.422
65985W        W32526  22.966  25.157  12.548
65986W        W32527  35.440   8.716   4.582
65987W        W32528   4.526   5.254  12.876
65988W        W32529  13.133  13.285  12.926
65989W        W32530  40.922  11.833  14.260
65990W        W32531  34.505  28.886  11.605
65991W        W32532  11.647  39.368  12.331
65992W        W32533   2.512   8.332  10.690
65993W        W32534   5.388   5.917   4.514
65994W        W32535  25.530  31.120  10.574
65995W        W32536  33.471  34.829   3.803
65996W        W32537   4.916  34.345  12.328
65997W        W32538  27.767   3.863  13.484
65998W        W32539   7.898  27.969  11.152
65999W        W32540  30.544  25.051   3.527
66000W        W32541  38.794  40.525  12.520
66001W        W32542  31.118   5.349   4.711
66002W        W32543  29.654  26.443   3.758
66003W        W32544   0.227   5.926  10.899
66004W        W32545  25.622  39.835  12.630
66005W        W32546  16.040  43.018   1.951
66006W        W32547  44.328  26.127   9.946
66007W        W32548  19.517   2.817  14.459
66008W        W32549  35.085  41.485   4.439
66009W        W32550   3.858  41.769  10.517
66010W        W32551  21.074  30.424   4.627
66011W        W32552  23.555  20.676  11.862
66012W        W32553  28.909  11.776   3.097
66013W        W32554  44.135   4.971   3.240
66014W        W32555  30.593  14.066   4.174
66015W        W32556  42.510  13.108   5.256
66016W        W32557  38.429  23.464   1.986
66017W        W32558  43.401  18.633   1.680
66018W        W32559  13.853  44.916   0.248
66019W        W32560  15.737   9.722   4.707
66020W        W32561  32.141  16.142   2.244
66021W        W32562  36.692   5.715  13.204
66022W        W32563  35.944   1.834   4.873
66023W        W32564  43.443  41.724  12.170
66024W        W32565  16.044  16.814  12.019
66025W        W32566  42.623  39.321   1.104
66026W        W32567   8.101  40.625   0.507
66027W        W32568  31.022   5.721   3.853
66028W        W32569  30.141  43.581  13.612
66029W        W32570  18.147  14.101   1.282
66030W        W32571  41.400  44.454  12.868
66031W        W32572  35.040  44.756   4.038
66032W        W32573   5.855   8.888  10.709
66033W        W32574  11.143   6.931  12.830
66034W        W32575  44.890  43.058   3.967
66035W        W32576   3.238   7.547   4.516
66036W        W32577  24.428  29.791   3.333
66037W        W32578  13.187  32.414   1.936
66038W        W32579  17.815  27.798  12.131
66039W        W32580  35.863  12.653   0.701
66040W        W32581   2.352  27.396  11.245
66041W        W32582  27.535  24.343  14.367
66042W        W32583  39.725  42.777   4.202
66043W        W32584  35.102  32.887   3.478
66044W        W32585   4.574  40.879   3.353
66045W        W32586  25.085   0.325   2.822
66046W        W32587  12.902  40.561  13.095
66047W        W32588  12.452   7.846   4.057
66048W        W32589  25.133  33.096  12.815
66049W        W32590  24.466   6.293   1.885
66050W        W32591  43.350   8.366  14.573
66051W        W32592  19.182  36.599  11.080
66052W        W32593   7.458   2.422   2.636
66053W        W32594  40.447  29.972   0.663
66054W        W32595   6.656  28.479  13.344
66055W        W32596  26.964  42.800  13.516
66056W        W32597   5.152  11.323  13.358
66057W        W32598   3.800  27.731   1.336
66058W        W32599  16.142  15.345  13.351
66059W        W32600  28.033   0.389   3.304
66060W        W32601   4.847  37.964  13.406
66061W        W32602  20.267  37.099  13.997
66062W        W32603  38.888   1.436   0.739
66063W        W32604   9.285  32.424  12.479
66064W        W32605  36.031  21.784  14.473
66065W        W32606  29.635  21.203   3.354
66066W        W32607  18.721   3.068   1.404
66067W        W32608   1.836  25.537   1.778
66068W        W32609  30.163  19.228  11.988
66069W        W32610  18.760  32.970   0.618
66070W        W32611  41.578  38.275   1.734
66071W        W32612  44.715  21.242  11.506
66072W        W32613   3.622  18.862  11.667
66073W        W32614  29.195  22.624  13.340
66074W        W32615  44.640  24.747   4.500
66075W        W32616  23.762  27.115  14.405
66076W        W32617  14.389  27.945  12.041
66077W        W32618  28.979  37.937  13.143
66078W        W32619   8.362  13.085  13.841
66079W        W32620  37.466  30.539   1.463
66080W        W32621  15.051  41.199   1.168
66081W        W32622  23.961  41.058  12.634
66082W        W32623  31.247   7.070  12.052
66083W        W32624  25.087  15.294   0.711
66084W        W32625  34.007  31.201  12.877
66085W        W32626   9.301  12.704  14.488
66086W        W32627  38.488   5.481  13.670
66087W        W32628  10.335  15.177  12.084
66088W        W32629   7.623  30.407   4.298
66089W        W32630  39.839   3.366   1.816
66090W        W32631  34.627  44.802  11.610
66091W        W32632   0.910   0.046  11.645
66092W        W32633  34.932   5.253  14.889
66093W        W32634  18.681  18.235   3.684
66094W        W32635  10.739  42.783   4.136
66095W        W32636  21.527  11.017   2.271
66096W        W32637  19.068  16.765   3.227
66097W        W32638  29.165  23.848  11.821
66098W        W32639  31.261  13.913   4.641
66099W        W32640  43.242   3.387  11.159
66100W        W32641   1.181  38.378  11.639
66101W        W32642   9.756  27.649   3.192
66102W        W32643  41.436  25.823   3.676
66103W        W32644  42.956  36.284   1.341
66104W        W32645  38.195  11.187  11.610
66105W        W32646  42.890  15.818  13.337
66106W        W32647  20.507  41.889  11.533
66107W        W32648  33.734  16.765   2.954
66108W        W32649  15.707   3.933   2.683
66109W        W32650  39.384  27.125   0.755
66110W        W32651  33.521  25.487  10.665
66111W        W32652  18.774  34.244   2.411
66112W        W32653  38.731   6.340   2.651
66113W        W32654  41.191  25.619  11.913
66114W        W32655  28.133  12.625   2.175
66115W        W32656  35.597  15.617   2.810
66116W        W32657  25.474   5.175   4.530
66117W        W32658   1.414  43.790  14.444
66118W        W32659  42.840  30.515   1.469
66119W        W32660  41.042  12.739   3.553
66120W        W32661  26.510   6.617  12.960
66121W        W32662  25.109   0.793  14.375
66122W        W32663  31.089  43.453  12.133
66123W        W32664  29.742  44.047  10.270
66124W        W32665  17.006  26.039  11.689
66125W        W32666  12.285  31.281   0.650
66126W        W32667  16.517  16.861  13.960
66127W        W32668  39.903  19.621   2.884
66128W        W32669   2.443  25.485  12.557
66129W        W32670  39.862  34.535  13.160
66130W        W32671  42.859  27.201  13.200
66131W        W32672  21.025  11.867  12.515
66132W        W32673   0.979  23.538  10.950
66133W        W32674  16.621   7.200  14.580
66134W        W32675  29.047   7.086   0.250
66135W        W32676  42.792  14.588   1.708
66136W        W32677   7.191  29.683   1.639
66137W        W32678  38.911   7.495  10.468
66138W        W32679  20.504  39.035   1.275
66139W        W32680  42.949  12.665  12.053
66140W        W32681  20.564   7.910   4.378
66141W        W32682  25.415  34.649   2.188
66142W        W32683  39.608  27.098   4.259
66143W        W32684  19.648   0.422   0.442
66144W        W32685  13.693   1.530  14.394
66145W        W32686  26.624  40.501  14.438
66146W        W32687  16.835  18.924   0.153
66147W        W32688  39.906   8.279   0.710
66148W        W32689  19.677  28.005   2.674
66149W        W32690  26.244   0.341  12.935
66150W        W32691  42.551  33.561  11.229
66151W        W32692  31.915  40.507   4.152
66152W        W32693  20.771   4.840  13.424
66153W        W32694  25.971  24.066   1.346
66154W        W32695  19.271  39.728   0.659
66155W        W32696  23.709  39.885   4.242
66156W        W32697  26.034  13.601  13.817
66157W        W32698  14.227  20.161  13.634
66158W        W32699  25.194   3.689  10.837
66159W        W32700  27.476  36.900  14.116
66160W        W32701  39.401   5.315   0.958
66161W        W32702  38.098   9.160   3.573
66162W        W32703  26.925  24.011   0.277
66163W        W32704  13.650  37.917  11.992
66164W        W32705  39.767  36.822  14.059
66165W        W32706  36.055  38.344   3.051
66166W        W32707  30.449  15.718   0.540
66167W        W32708   4.654  25.466  10.820
66168W        W32709   3.408   8.502   4.840
66169W        W32710  18.534  28.290   1.755
66170W        W32711   3.448  18.799   0.632
66171W        W32712  19.015  21.114   1.886
66172W        W32713   8.648  19.066  14.081
66173W        W32714  25.168  14.507  11.534
66174W        W32715  13.232  15.519   2.708
66175W        W32716  34.540  40.286  14.845
66176W        W32717  42.556  19.240   1.115
66177W        W32718  13.609  41.327  10.689
66178W        W32719  27.594  25.545  10.454
66179W        W32720   5.380   7.777   2.421
66180W        W32721  24.273  14.752   4.658
66181W        W32722   8.051  18.084  11.168
66182W        W32723  20.700  24.106   1.348
66183W        W32724  10.662   4.205   9.810
66184W        W32725  10.556  31.233  13.826
66185W        W32726  41.660  24.316   1.506
66186W        W32727  10.197  14.809   3.088
66187W        W32728  31.520   3.868   4.145
66188W        W32729  29.471  37.810   2.354
66189W        W32730  14.824  18.737  10.630
66190W        W32731  43.511  40.761  13.665
66191W        W32732  28.507  19.855  12.991
66192W        W32733  35.090  37.915   0.856
66193W        W32734   9.935  34.442  11.184
66194W        W32735  18.765   5.436  14.954
66195W        W32736  40.157  25.363   1.827
66196W        W32737  12.351  14.564  13.074
66197W        W32738  17.358   2.200  11.639
66198W        W32739  20.493  31.359   2.431
66199W        W32740  13.321   4.208   1.860
66200W        W32741  16.151  24.019  13.459
66201W        W32742  16.141  17.648  13.997
66202W        W32743  27.594  36.176   2.486
66203W        W32744   5.393  24.003   0.355
66204W        W32745   3.616  36.372  11.138
66205W        W32746  19.164  32.780  10.682
66206W        W32747  39.475  27.318  12.558
66207W        W32748  37.756  41.042   1.837
66208W        W32749  33.845   2.254  13.471
66209W        W32750   4.208   9.660   2.863
66210W        W32751  32.381  39.271   4.845
66211W        W32752   9.889  24.659   2.803
66212W        W32753  25.087  40.520   1.305
66213W        W32754  30.441   6.888   1.571
66214W        W32755  17.253  12.379  14.369
66215W        W32756  38.585  19.134   4.947
66216W        W32757  17.507   7.754  11.599
66217W        W32758  40.533   6.990  12.023
66218W        W32759   6.687  33.875  13.918
66219W        W32760  37.024  36.217   3.211
66220W        W32761  41.612   4.747   3.068
66221W        W32762  20.658  43.764  11.519
66222W        W32763   5.856  37.319  10.116
66223W        W32764  27.655   1.924  12.414
66224W        W32765  13.836  13.359   0.153
66225W        W32766   6.974  13.032   1.921
66226W        W32767   7.354  44.927  13.895
66227W        W32768  17.551   5.481  13.431
66228W        W32769  19.711  37.061   2.642
66229W        W32770  31.005  38.351  14.666
66230W        W32771  24.497  14.096  14.041
66231W        W32772  41.443   1.466   4.104
66232W        W32773   3.438   2.721   3.215
66233W        W32774  19.004  32.624   4.521
66234W        W32775  40.010  34.138   3.383
66235W        W32776  41.897   5.967  13.640
66236W        W32777   6.675   4.805  12.630
66237W        W32778  14.030  21.255   3.523
66238W        W32779   7.574  20.048  13.405
66239W        W32780  12.325  13.113  11.596
66240W        W32781   9.150  44.728   1.919
66241W        W32782  26.222  44.787  13.417
66242W        W32783  35.549  13.120  14.423
66243W        W32784  25.957  12.934  13.831
66244W        W32785  20.054  10.143   1.200
66245W        W32786  10.148  13.084  14.399
66246W        W32787   1.742  19.426   4.143
66247W        W32788   9.825  43.858  10.668
66248W        W32789  44.780  31.971   3.357
66249W        W32790  14.300  42.810  11.625
66250W        W32791  36.746  18.629  12.011
66251W        W32792  29.960   8.988  12.259
66252W        W32793  12.091  22.208  11.425
66253W        W32794   2.293  26.143   4.091
66254W        W32795   0.927  26.756  10.974
66255W        W32796  29.365  26.236   1.192
66256W        W32797  14.080  30.949  12.223
66257W        W32798  32.426  30.933   4.174
66258W        W32799  31.912  23.286   2.937
66259W        W32800  27.875  15.818   2.419
66260W        W32801   8.253  23.055  13.332
66261W        W32802  12.531  28.852   0.885
66262W        W32803   0.328   6.375   4.886
66263W        W32804   4.263  20.604   1.871
66264W        W32805  23.633  23.157   1.120
66265W        W32806  16.704  39.307  13.065
66266W        W32807  11.283  42.933  14.109
66267W        W32808  21.066   7.815   0.927
66268W        W32809   5.276  18.277  11.843
66269W        W32810   7.933  30.950   3.099
66270W        W32811  12.143  41.988  13.840
66271W        W32812  18.018  12.334  10.273
66272W        W32813   9.931  19.963   0.777
66273W        W32814  24.220  41.999   0.730
66274W        W32815   4.723   2.348  13.527
66275W        W32816  38.401  40.121  11.671
66276W        W32817  19.863  25.047  14.692
66277W        W32818   3.382  28.946   2.022
66278W        W32819  23.009  37.459  12.977
66279W        W32820  29.037  28.983  12.504
66280W        W32821  19.780  14.342   0.028
66281W        W32822  24.747   1.265  11.191
66282W        W32823  37.810  19.874   4.115
66283W        W32824  37.963   1.287  10.596
66284W        W32825  30.969  34.633   0.673
66285W        W32826  31.928   1.477  14.954
66286W        W32827  25.237   1.925   1.301
66287W        W32828  23.032   3.619   2.521
66288W        W32829  35.176  30.443  14.484
66289W        W32830  10.466  14.797  11.067
66290W        W32831  11.854  31.786  11.645
66291W        W32832  28.278  26.889  10.112
66292W        W32833  31.909  24.773   3.212
66293W        W32834  43.209  30.699  10.924
66294W        W32835  19.235   6.782   2.717
66295W        W32836  33.518  33.285   4.459
66296W        W32837  12.623  37.195   3.140
66297W        W32838   0.387  10.062  13.388
66298W        W32839  18.583  41.905  14.082
66299W        W32840  40.250  37.594  14.328
66300W        W32841  39.934  18.619   1.765
66301W        W32842  20.446  13.840   5.202
66302W        W32843  41.446   2.000   2.341
66303W        W32844  20.959  21.890   0.818
66304W        W32845  25.779   9.108   4.118
66305W        W32846  38.516  16.756  10.371
66306W        W32847  32.531   7.268   2.649
66307W        W32848  27.123  11.660   2.888
66308W        W32849  12.343   0.741   1.846
66309W        W32850   6.914   0.980  10.260
66310W        W32851  11.458   4.088   2.874
66311W        W32852  30.732  38.148  13.534
66312W        W32853   6.415   7.809  10.952
66313W        W32854  28.404  39.150  11.864
66314W        W32855  30.981  20.267  10.778
66315W        W32856  41.805  22.633  10.621
66316W        W32857  42.322  10.675  13.814
66317W        W32858  32.944  28.417  11.117
66318W        W32859  30.448  32.611   0.768
66319W        W32860  13.041   2.284  13.544
66320W        W32861  38.662  40.092   2.746
66321W        W32862  26.995   0.026  11.503
66322W        W32863  27.845  30.520  13.060
66323W        W32864  40.014  28.635   2.317
66324W        W32865  14.273  35.283  13.848
66325W        W32866  19.624  25.978  10.594
66326W        W32867   2.434  11.379  11.637
66327W        W32868  31.437  11.929   2.246
66328W        W32869  27.541  20.940   2.321
66329W        W32870   9.202  33.434   1.130
66330W        W32871  18.799  11.326  10.662
66331W        W32872   3.589   8.715  11.579
66332W        W32873  30.513  20.731   4.305
66333W        W32874  33.988  13.307  10.793
66334W        W32875  17.736  36.297   1.894
66335W        W32876  36.323  44.236   3.689
66336W        W32877  20.909  29.543   5.039
66337W        W32878  32.130  11.415   1.190
66338W        W32879   1.423  36.677  12.834
66339W        W32880   9.670  29.484   2.842
66340W        W32881   2.398  20.341  13.725
66341W        W32882  24.270  12.097   0.443
66342W        W32883  33.586  25.015   2.694
66343W        W32884   2.299  37.695  14.203
66344W        W32885   0.898  17.108   1.492
66345W        W32886  31.515  11.226  13.058
66346W        W32887  29.915   3.994   1.924
66347W        W32888  37.180  15.495   4.960
66348W        W32889   8.940   2.517  14.339
66349W        W32890  17.362  37.208  14.069
66350W        W32891  33.326  18.118  12.477
66351W        W32892  35.137  28.932   4.083
66352W        W32893   9.666  35.342   4.190
66353W        W32894  20.937  17.643  11.462
66354W        W32895   5.203  42.469  13.749
66355W        W32896  21.041   2.202   2.191
66356W        W32897   2.346  35.485  14.082
66357W        W32898   7.276  20.194  10.374
66358W        W32899  20.961   9.283  10.674
66359W        W32900   9.736   9.606  13.057
66360W        W32901  23.181   1.658  13.447
66361W        W32902  33.047   4.083   2.113
66362W        W32903  22.992   7.512   4.574
66363W        W32904   8.254  11.212   1.846
66364W        W32905  37.324  32.560  11.154
66365W        W32906  39.001  20.241  11.209
66366W        W32907   2.247  11.641   3.138
66367W        W32908  40.584  28.460  11.110
66368W        W32909  22.974  39.837  10.657
66369W        W32910  43.795  17.655  11.361
66370W        W32911  33.814  30.595  12.492
66371W        W32912   0.439  15.761   4.320
66372W        W32913   7.055  42.687  10.307
66373W        W32914  42.594   1.006  13.028
66374W        W32915   6.558  11.002   1.887
66375W        W32916  25.535  39.010  14.059
66376W        W32917  26.362  34.693  11.965
66377W        W32918   1.401  23.034  11.018
66378W        W32919  26.998   7.185  13.982
66379W        W32920  40.229  17.560   0.026
66380W        W32921  13.782   4.490  11.717
66381W        W32922   5.290  34.091  11.589
66382W        W32923  32.776  37.519   3.847
66383W        W32924  43.020  21.511  14.840
66384W        W32925  10.070   9.165  12.485
66385W        W32926   6.904  41.454   4.314
66386W        W32927  37.802  25.143   0.188
66387W        W32928  34.448  11.424   1.132
66388W        W32929   9.638  10.384   4.156
66389W        W32930   2.740  41.352  11.992
66390W        W32931  38.015  15.705  10.638
66391W        W32932  36.843  15.212   2.827
66392W        W32933  21.230   2.588  11.214
66393W        W32934  24.287  26.931  11.122
66394W        W32935  32.114   8.637  12.330
66395W        W32936  37.371  11.651  11.437
66396W        W32937  37.312  40.072  12.571
66397W        W32938   7.165  32.103   4.162
66398W        W32939  16.111   4.141  10.506
66399W        W32940  18.959   1.120  11.958
66400W        W32941   7.901  15.755   0.620
66401W        W32942  11.891   7.493   3.661
66402W        W32943   9.906  30.675  14.995
66403W        W32944   6.496  30.510  12.932
66404W        W32945   5.742  22.888   3.802
66405W        W32946  33.985  42.458   3.513
66406W        W32947  33.369   9.213  13.448
66407W        W32948   2.388  32.923   4.162
66408W        W32949   0.453  23.483  13.408
66409W        W32950  42.255  42.416  13.785
66410W        W32951  33.330  43.282   4.628
66411W        W32952  22.235  39.408  14.813
66412W        W32953  22.049  20.244   4.276
66413W        W32954  20.206  44.615   3.188
66414W        W32955  14.578  27.410  11.013
66415W        W32956  32.528  40.773  14.917
66416W        W32957  44.055   1.751   1.478
66417W        W32958  31.520  37.039   4.666
66418W        W32959  37.879  23.581   3.304
66419W        W32960  40.354  43.122   1.869
66420W        W32961  20.316  20.807  13.476
66421W        W32962  34.693  11.209   0.727
66422W        W32963   1.124  44.677  11.308
66423W        W32964   4.413  28.363   4.302
66424W        W32965  18.048  22.366   0.474
66425W        W32966  28.549  25.689   2.912
66426W        W32967  38.944  37.433  13.441
66427W        W32968  29.095  38.903  13.816
66428W        W32969  32.226  19.234   2.669
66429W        W32970  14.374  25.241   3.714
66430W        W32971  38.292  43.487   1.889
66431W        W32972  22.069  42.568  11.122
66432W        W32973  16.782   9.683  11.474
66433W        W32974  43.890  43.983  11.658
66434W        W32975  28.938  10.245   1.476
66435W        W32976  35.217   3.290  12.943
66436W        W32977   2.679  42.338   0.419
66437W        W32978  29.563  23.026  12.642
66438W        W32979  35.502  11.178   3.664
66439W        W32980  32.924  40.843   3.241
66440W        W32981   4.093   5.504   3.765
66441W        W32982   4.839  14.104   2.266
66442W        W32983  23.567   0.134  14.735
66443W        W32984  41.876  13.489   2.844
66444W        W32985   0.564  44.002  12.948
66445W        W32986  10.410  18.079   3.566
66446W        W32987   1.486   1.730  11.507
66447W        W32988   7.945   6.972  11.111
66448W        W32989   9.344  44.620  12.778
66449W        W32990  40.522  44.738   3.081
66450W        W32991  41.617  26.155  12.588
66451W        W32992  36.890  10.407   1.767
66452W        W32993  20.262  42.822   0.583
66453W        W32994  43.319  28.679  10.713
66454W        W32995   7.941  36.607  14.431
66455W        W32996  36.779  35.608   1.290
66456W        W32997   0.361  26.200  13.413
66457W        W32998  32.689  42.133  12.076
66458W        W32999   2.696  38.868   3.144
66459W        W33000  15.588  18.812   2.292
66460W        W33001  13.155  30.220  12.383
66461W        W33002  41.254  32.141  14.463
66462W        W33003  21.013  18.333   2.179
66463W        W33004   3.206  41.625  11.875
66464W        W33005   9.951  19.507   1.923
66465W        W33006  16.561  38.355   3.224
66466W        W33007  17.280  30.430  10.800
66467W        W33008  27.968  10.906  11.118
66468W        W33009  42.967  15.555  13.770
66469W        W33010  31.316   8.967   2.834
66470W        W33011  17.147  29.541  14.501
66471W        W33012  34.103  42.575  14.017
66472W        W33013   0.353  26.120  11.540
66473W        W33014  22.516  16.399  11.617
66474W        W33015  40.776  14.718  13.443
66475W        W33016  22.278  21.244  14.370
66476W        W33017   7.337  10.808   0.336
66477W        W33018  13.353  18.316  13.287
66478W        W33019  27.161  35.598  10.723
66479W        W33020  30.020  37.421  12.398
66480W        W33021   0.319  20.188   2.139
66481W        W33022  20.280  21.198  14.906
66482W        W33023  23.091   2.017   4.696
66483W        W33024  14.113   0.456  13.734
66484W        W33025  11.387  43.985   4.788
66485W        W33026   4.846  42.695   3.163
66486W        W33027  38.732  11.891  12.081
66487W        W33028  11.140  21.470   1.935
66488W        W33029   4.210  33.684   1.852
66489W        W33030  23.769   5.958   0.046
66490W        W33031  23.631  38.185  14.483
66491W        W33032  29.918  27.193  12.440
66492W        W33033   6.149  33.623  11.113
66493W        W33034  23.093  22.002  11.174
66494W        W33035  11.123  23.461  13.411
66495W        W33036  17.327  24.550   2.714
66496W        W33037  36.047  30.002  12.086
66497W        W33038   0.418  27.501   4.650
66498W        W33039  29.057  39.588   1.809
66499W        W33040  35.978  29.341   2.786
66500W        W33041  29.849  18.970  10.607
66501W        W33042  35.904   4.886   3.911
66502W        W33043  21.470  37.604   2.278
66503W        W33044   5.581   5.889   1.267
66504W        W33045  41.873  18.087  11.197
66505W        W33046  29.656   8.458   2.244
66506W        W33047  17.330  37.639  14.923
66507W        W33048   1.199  11.837   4.213
66508W        W33049   2.725   3.539   0.991
66509W        W33050  39.972  15.113  14.995
66510W        W33051  35.387  33.071  14.040
66511W        W33052  37.391   0.745  12.519
66512W        W33053   4.179   4.771   1.018
66513W        W33054  16.582  24.124  14.560
66514W        W33055  26.038  41.519  11.092
66515W        W33056  44.386  25.786  14.390
66516W        W33057   8.146  16.399  14.837
66517W        W33058  31.828  32.527   2.930
66518W        W33059  36.717  37.060   3.340
66519W        W33060  41.913  37.660  12.084
66520W        W33061  14.774  41.405  13.546
66521W        W33062  43.548  17.219  11.138
66522W        W33063  26.418  38.815  12.244
66523W        W33064   8.147  44.572   1.286
66524W        W33065  23.538   0.238   3.812
66525W        W33066   4.944  35.426  11.627
66526W        W33067  20.570  24.953   1.899
66527W        W33068  28.626  44.805  10.995
66528W        W33069  22.057  12.609  11.007
66529W        W33070  16.118  40.036   4.087
66530W        W33071  11.331   0.964   3.395
66531W        W33072  40.019  32.423   0.909
66532W        W33073  37.447  39.382  11.959
66533W        W33074  22.479  30.229  10.091
66534W        W33075  26.259   6.899   5.479
66535W        W33076  39.593  15.358   3.607
66536W        W33077  19.616  10.118  14.889
66537W        W33078   9.250  23.239   4.101
66538W        W33079  16.591  37.206   4.161
66539W        W33080  20.037  18.906   0.365
66540W        W33081  24.813  15.387  13.929
66541W        W33082  12.740  41.280  14.789
66542W        W33083  33.317  20.496  12.816
66543W        W33084  38.630  37.671   0.951
66544W        W33085  30.007  20.494  11.537
66545W        W33086  24.157  33.049  14.801
66546W        W33087  42.097  34.533   1.899
66547W        W33088   7.114   0.022  12.203
66548W        W33089  35.987   2.835   0.638
66549W        W33090  30.078  37.324  13.530
66550W        W33091  15.017  32.425   4.885
66551W        W33092  24.543  36.621  13.878
66552W        W33093  38.899  32.809  12.730
66553W        W33094  19.777  26.248   2.279
66554W        W33095  25.721   7.626  14.856
66555W        W33096  19.122   9.676  11.175
66556W        W33097  39.467   1.327   1.944
66557W        W33098  27.611  27.988  13.226
66558W        W33099   8.167  14.719   1.867
66559W        W33100   7.264  22.325  14.853
66560W        W33101  35.458  18.309   0.526
66561W        W33102   2.760   5.383  13.282
66562W        W33103  35.318  21.177  13.515
66563W        W33104   0.247   1.297   1.881
66564W        W33105  36.043  25.620   1.638
66565W        W33106   4.498  12.666   2.450
66566W        W33107  25.400  19.106  10.683
66567W        W33108  22.681  27.912  12.451
66568W        W33109  42.398  22.398  11.245
66569W        W33110  34.203  18.155   0.883
66570W        W33111  17.690  21.660   4.119
66571W        W33112  38.069  32.237  14.435
66572W        W33113  29.538  38.903  12.615
66573W        W33114  20.048  35.441   4.616
66574W        W33115  28.635  27.392  13.828
66575W        W33116  23.681  25.430   3.718
66576W        W33117  23.061  10.830   3.096
66577W        W33118  37.457  21.131   2.368
66578W        W33119  34.527   6.888  11.515
66579W        W33120  19.047  16.573   2.230
66580W        W33121   7.922  41.397   2.698
66581W        W33122   3.703  30.470   2.794
66582W        W33123  13.107  19.239   4.432
66583W        W33124   0.840  22.588  10.582
66584W        W33125  15.830  40.973   1.393
66585W        W33126  44.446  37.081   1.772
66586W        W33127  18.064   1.797  14.524
66587W        W33128  12.385  23.511  14.533
66588W        W33129   4.370  40.137  14.939
66589W        W33130  11.957  11.665  12.982
66590W        W33131  34.423  30.113  14.522
66591W        W33132  34.166  11.250  10.673
66592W        W33133   0.064  10.809  12.971
66593W        W33134  28.671  30.956  11.152
66594W        W33135  35.422  41.528  11.340
66595W        W33136  13.362   3.465   3.863
66596W        W33137  38.388  42.943   2.627
66597W        W33138  31.437   3.170  14.976
66598W        W33139  42.094   4.746   3.252
66599W        W33140  33.587  16.942   4.638
66600W        W33141  26.794  37.777  14.820
66601W        W33142   3.555   1.954  11.389
66602W        W33143   5.696  28.409  12.616
66603W        W33144  19.514  14.209   1.449
66604W        W33145  30.628  10.576  12.002
66605W        W33146  21.676  24.898  12.095
66606W        W33147  13.366  19.809  14.029
66607W        W33148   9.394  36.610   1.793
66608W        W33149  28.564  14.862  11.580
66609W        W33150  21.773  28.220  14.726
66610W        W33151  19.594  17.168  12.717
66611W        W33152  41.339  15.135  14.198
66612W        W33153  20.938  19.521  13.395
66613W        W33154  10.669  31.617   4.881
66614W        W33155   2.771  23.716  11.927
66615W        W33156  24.197  14.344   1.288
66616W        W33157  10.111  35.961   0.973
66617W        W33158   3.076   8.584  10.209
66618W        W33159  36.543  24.678  14.954
66619W        W33160  20.577   0.887  12.134
66620W        W33161  13.750  21.011   5.028
66621W        W33162   1.253  20.152   2.188
66622W        W33163  41.460   8.469  13.995
66623W        W33164   8.771  24.407  11.638
66624W        W33165  35.214  40.425  13.799
66625W        W33166   4.389   7.181  14.222
66626W        W33167  16.841   6.304  13.099
66627W        W33168  22.117  40.889  12.245
66628W        W33169  33.347   2.579   1.800
66629W        W33170  33.343  16.928  11.273
66630W        W33171  35.505  22.988   2.282
66631W        W33172   9.408   7.012   0.421
66632W        W33173  35.364  22.221  14.234
66633W        W33174  27.153   0.936  11.975
66634W        W33175  19.642  34.142  11.115
66635W        W33176  43.882  10.315   0.359
66636W        W33177  16.597   9.709  11.948
66637W        W33178  41.353  31.193   2.444
66638W        W33179  34.551  38.402  11.573
66639W        W33180   1.294   1.555  14.980
66640W        W33181  41.261  33.530  11.537
66641W        W33182  38.633  29.449  12.165
66642W        W33183  44.919  11.404   2.639
66643W        W33184   1.032  14.874  11.381
66644W        W33185  39.992  18.428   3.654
66645W        W33186  10.156  37.903  13.437
66646W        W33187   5.509  33.045  10.547
66647W        W33188  28.654  18.176   1.723
66648W        W33189  18.196  36.426  12.132
66649W        W33190  35.388  38.020  10.671
66650W        W33191  20.285  11.598   1.923
66651W        W33192  15.201  14.579   3.580
66652W        W33193  42.634   9.944   1.354
66653W        W33194  35.826  38.467   0.936
66654W        W33195  11.025  35.109  11.997
66655W        W33196  19.524   4.735   4.640
66656W        W33197  21.576   5.825  12.167
66657W        W33198  28.811  35.608   2.927
66658W        W33199  20.706  16.788  12.365
66659W        W33200  37.471  40.370  11.004
66660W        W33201  34.969   6.351  14.817
66661W        W33202  28.860  36.449  11.530
66662W        W33203  21.363  21.599   3.751
66663W        W33204   6.811   4.253   1.407
66664W        W33205  35.996   2.268   1.286
66665W        W33206  42.417   5.511  14.527
66666W        W33207  16.744  26.209   2.109
66667W        W33208  23.713   2.388   1.368
66668W        W33209  39.699  28.694   2.834
66669W        W33210  28.003  25.587  14.725
66670W        W33211  15.662   0.982   1.243
66671W        W33212  41.484  30.959   4.723
66672W        W33213  43.284  34.206   3.568
66673W        W33214  21.747  36.105   0.130
66674W        W33215  36.501  39.293  13.034
66675W        W33216  19.296  21.132   0.043
66676W        W33217  19.528   7.684   1.773
66677W        W33218  41.502   4.240   3.701
66678W        W33219  39.040  10.124   4.923
66679W        W33220  18.481  17.342  13.991
66680W        W33221  17.532  42.942  13.745
66681W        W33222  23.214  17.283   3.310
66682W        W33223  34.474  21.850  11.598
66683W        W33224  37.931  37.918   2.844
66684W        W33225  42.380  24.331   4.123
66685W        W33226  15.019  31.214  11.924
66686W        W33227  40.013  16.711  14.057
66687W        W33228  37.804  43.581  12.629
66688W        W33229  20.875  32.288  14.721
66689W        W33230  25.494  27.598   1.789
66690W        W33231  25.566  44.830   0.222
66691W        W33232  19.656  15.219   2.797
66692W        W33233  16.646  44.239  12.652
66693W        W33234  33.094  23.344  14.378
66694W        W33235  22.219  40.563  13.344
66695W        W33236  41.339  11.289   1.309
66696W        W33237  40.675  25.241   1.744
66697W        W33238  37.935   1.065   1.808
66698W        W33239  14.352  24.598  11.162
66699W        W33240  24.628  39.093   4.797
66700W        W33241  16.308  42.814   1.540
66701W        W33242  23.247  34.124  12.921
66702W        W33243  31.374  15.677   0.906
66703W        W33244  36.476  28.618   0.912
66704W        W33245   7.760   9.706  14.619
66705W        W33246  42.272   4.955  10.776
66706W        W33247  16.774  38.015  14.273
66707W        W33248  30.137  27.320   0.933
66708W        W33249  33.348  31.594   4.274
66709W        W33250  21.420   9.732   4.041
66710W        W33251  34.140  20.019   0.352
66711W        W33252  40.246  13.590  14.418
66712W        W33253  25.917  23.493   4.544
66713W        W33254  36.997  10.747  11.165
66714W        W33255  25.669   1.578  11.068
66715W        W33256  27.222  32.126   3.179
66716W        W33257  30.348  34.005  10.579
66717W        W33258  17.022  12.281  14.822
66718W        W33259  13.620  18.470   3.018
66719W        W33260  31.687  17.841   4.546
66720W        W33261  39.284  12.304   2.815
66721W        W33262  41.895   3.785   2.270
66722W        W33263   9.657  15.386  10.536
66723W        W33264  22.457   3.751  14.862
66724W        W33265  41.961  23.747   2.193
66725W        W33266   4.161  25.616   1.843
66726W        W33267  30.572  38.014   3.902
66727W        W33268  14.327  28.367  13.018
66728W        W33269  35.633   1.464  13.549
66729W        W33270  15.993   2.725   3.229
66730W        W33271   9.865  13.430  13.484
66731W        W33272  16.812   4.734  13.371
66732W        W33273  27.108  36.678  13.553
66733W        W33274  33.302  26.897  14.902
66734W        W33275  41.843  35.608   3.226
66735W        W33276  28.915  28.584  10.710
66736W        W33277  24.069  27.027  13.300
66737W        W33278  11.361  11.827  12.180
66738W        W33279  20.783  34.034   4.984
66739W        W33280  18.119   5.708  13.898
66740W        W33281  41.570  30.856   1.546
66741W        W33282  38.877  18.608   0.326
66742W        W33283  14.115  17.440  14.937
66743W        W33284  31.209  36.141   1.158
66744W        W33285  11.672  41.010  10.066
66745W        W33286  30.922  25.241  14.293
66746W        W33287  26.748  25.344   0.430
66747W        W33288  19.667  31.092   2.354
66748W        W33289  27.466  38.647  10.730
66749W        W33290  23.169  25.222   1.638
66750W        W33291   0.780   7.865  10.563
66751W        W33292  36.032   9.411   0.722
66752W        W33293  31.055   3.230  12.546
66753W        W33294  11.119  23.652   3.689
66754W        W33295  29.892  26.566   2.431
66755W        W33296  23.938  14.781   1.324
66756W        W33297  26.103   4.948  11.629
66757W        W33298  36.941  28.740   1.742
66758W        W33299   6.703  14.525   1.865
66759W        W33300  33.488   6.172  11.202
66760W        W33301  12.080   3.878   3.603
66761W        W33302   7.297  18.725   2.735
66762W        W33303  42.450  22.693  13.554
66763W        W33304  41.005   2.779   4.157
66764W        W33305  23.189  31.178   3.746
66765W        W33306  10.187  44.233  12.000
66766W        W33307  27.038   2.883   2.937
66767W        W33308  21.967  10.368  11.842
66768W        W33309  15.491   2.687   1.239
66769W        W33310  32.607  31.093  14.938
66770W        W33311  11.843  42.527   3.534
66771W        W33312  32.965   8.948  12.880
66772W        W33313  30.636  29.625   2.664
66773W        W33314  32.412   7.666  14.323
66774W        W33315  26.445  25.967   4.062
66775W        W33316  18.769   5.706   1.343
66776W        W33317   3.385  16.747   0.809
66777W        W33318  38.778  40.276   4.905
66778W        W33319  36.050  15.002   3.259
66779W        W33320  12.803  17.229   1.654
66780W        W33321  30.578  15.088   4.032
66781W        W33322  34.983   9.214   3.224
66782W        W33323  30.238  19.300  11.497
66783W        W33324  37.924  39.109   4.519
66784W        W33325  29.613   8.956  14.192
66785W        W33326  42.479  34.071   3.689
66786W        W33327  23.756   5.899   2.356
66787W        W33328  17.489  41.609   1.433
66788W        W33329  39.488  41.743  13.394
66789W        W33330  27.366  37.805  10.536
66790W        W33331  21.179  11.133  13.072
66791W        W33332   3.146  11.123   1.214
66792W        W33333  26.431  32.499  14.852
66793W        W33334  32.075  34.929  13.431
66794W        W33335  25.635   0.215   3.325
66795W        W33336  24.740  13.288   3.169
66796W        W33337   5.378  15.500   0.472
66797W        W33338   7.267  17.454   4.900
66798W        W33339   2.727  29.366   4.313
66799W        W33340  26.745   5.855   1.434
66800W        W33341  30.606  22.075  10.996
66801W        W33342   6.270  44.826  12.864
66802W        W33343  24.323  41.133  11.636
66803W        W33344  37.865  31.934  12.437
66804W        W33345   3.907   8.407   4.116
66805W        W33346  18.624   1.523   2.584
66806W        W33347  22.065   8.869  14.812
66807W        W33348  34.972  43.384  11.697
66808W        W33349  31.748  19.609  10.429
66809W        W33350  24.574  20.268  12.560
66810W        W33351   9.321  35.809  11.659
66811W        W33352   5.289  39.093   0.229
66812W        W33353  15.270  16.179   3.208
66813W        W33354  30.533  22.134  12.448
66814W        W33355  28.939  10.360  14.928
66815W        W33356  27.763  29.708   1.480
66816W        W33357  44.884  36.794   4.370
66817W        W33358  34.458  42.483   3.746
66818W        W33359  36.856  18.107   0.310
66819W        W33360   8.339  21.776   4.540
66820W        W33361  24.223  16.898  10.430
66821W        W33362  28.755  29.801  12.813
66822W        W33363  31.870   2.193   0.847
66823W        W33364  11.818  30.887  11.975
66824W        W33365  39.449  10.919   3.274
66825W        W33366   9.735   5.751   0.011
66826W        W33367   4.838  10.863   2.955
66827W        W33368  26.024   7.774  12.102
66828W        W33369  14.004  30.855   1.268
66829W        W33370  19.149   3.554   0.258
66830W        W33371  20.683   8.828   0.489
66831W        W33372  40.297  17.567   0.606
66832W        W33373  43.997  17.094   0.495
66833W        W33374   1.485   4.802  13.354
66834W        W33375  12.129  19.003   1.814
66835W        W33376  28.082   9.425   0.525
66836W        W33377  30.234  17.656  14.535
66837W        W33378  24.705  19.519   1.729
66838W        W33379  25.819  14.394  14.988
66839W        W33380   9.140  37.447   3.358
66840W        W33381  34.322  39.944  14.501
66841W        W33382  42.188  27.122   2.747
66842W        W33383  30.391  34.982   3.236
66843W        W33384   0.810  18.963   2.372
66844W        W33385  36.365  22.683  11.695
66845W        W33386  19.350  26.024   2.516
66846W        W33387  24.826  30.013   3.568
66847W        W33388  22.784  40.946  11.107
66848W        W33389  28.842   9.158  11.998
66849W        W33390  31.744  37.240  11.173
66850W        W33391  38.149   3.127  10.155
66851W        W33392  38.567  33.946  14.682
66852W        W33393  28.145  43.401   1.009
66853W        W33394  30.164  16.300   1.213
66854W        W33395  26.548  28.456   2.230
66855W        W33396  33.157   7.358  10.407
66856W        W33397  38.190  42.979   4.255
66857W        W33398  15.086  15.381  12.869
66858W        W33399  36.598  29.385  13.387
66859W        W33400   8.297  40.302  12.549
66860W        W33401   3.683  31.101   1.274
66861W        W33402  19.220  11.295  10.979
66862W        W33403  41.509   7.122  12.081
66863W        W33404   5.848  40.725   4.567
66864W        W33405  34.985   2.563   2.574
66865W        W33406  11.706  19.215  13.485
66866W        W33407  25.501  14.299   1.672
66867W        W33408   2.845  42.058   1.597
66868W        W33409  15.794   4.932  13.485
66869W        W33410  39.499   2.824  12.307
66870W        W33411  27.413   4.675  14.905
66871W        W33412  24.499  41.667  13.279
66872W        W33413   8.762  40.820   2.411
66873W        W33414  42.458  38.823   1.867
66874W        W33415  19.837  27.455   2.773
66875W        W33416  35.425   0.728  14.846
66876W        W33417  20.093  29.104  14.012
66877W        W33418  31.942  29.492   1.304
66878W        W33419  21.819  43.398  14.814
66879W        W33420   4.728  41.069  10.720
66880W        W33421  44.411   6.694   3.213
66881W        W33422   4.896  34.609  14.867
66882W        W33423  42.497  32.868  14.770
66883W        W33424  32.624  41.623  13.831
66884W        W33425  32.709  13.911   1.794
66885W        W33426  28.579   6.229   3.233
66886W        W33427   4.413  23.057  12.611
66887W        W33428   2.290   7.646  14.085
66888W        W33429  19.789   3.455  11.095
66889W        W33430   0.972  24.053   4.139
66890W        W33431  15.573   1.092  11.160
66891W        W33432  15.249  44.580  12.568
66892W        W33433  15.568   8.699  12.946
66893W        W33434   6.957  12.519   4.287
66894W        W33435   3.621  17.263  14.291
66895W        W33436   1.472  18.252  10.542
66896W        W33437  36.876  17.238  14.298
66897W        W33438   8.301  28.176   4.398
66898W        W33439  16.958  33.455  12.087
66899W        W33440  17.067  32.480   3.365
66900W        W33441  24.098  24.032  14.977
66901W        W33442  43.380   2.407   3.728
66902W        W33443   9.856  33.088   4.116
66903W        W33444  18.874  18.877   1.463
66904W        W33445  37.643  14.842  13.174
66905W        W33446  38.388   4.788  10.527
66906W        W33447  11.728   9.658  10.648
66907W        W33448  18.112  42.532   2.711
66908W        W33449  17.006  38.460  11.517
66909W        W33450  33.593   8.646  10.524
66910W        W33451  26.181  19.134   0.245
66911W        W33452   3.509  39.467  11.015
66912W        W33453  40.530  13.664   4.077
66913W        W33454  15.153   7.304  12.738
66914W        W33455  34.602  29.061  13.459
66915W        W33456  22.434   0.024  11.522
66916W        W33457  12.206  34.444  11.101
66917W        W33458  32.062   5.186   3.702
66918W        W33459  26.258  16.159   1.912
66919W        W33460   4.373  42.471   0.333
66920W        W33461  37.901  39.011   0.868
66921W        W33462  22.420  17.630   2.369
66922W        W33463  40.586  30.262   5.047
66923W        W33464   5.257  43.427  14.725
66924W        W33465   2.358  22.398   4.057
66925W        W33466  10.154   2.308   4.095
66926W        W33467  10.895  29.594   4.103
66927W        W33468  17.549  33.782  14.711
66928W        W33469  17.064  41.917  14.816
66929W        W33470   0.189  18.735   4.551
66930W        W33471  24.694  39.965   3.237
66931W        W33472   8.341  40.865   4.208
66932W        W33473  14.142  24.701   2.394
66933W        W33474  27.484  16.279  13.955
66934W        W33475   6.268   0.077   2.446
66935W        W33476   7.852  14.063   1.211
66936W        W33477   7.869  23.551   2.698
66937W        W33478  34.930  27.083  14.780
66938W        W33479  27.683   5.231   4.749
66939W        W33480  35.629   3.320  13.927
66940W        W33481  16.533  40.022   1.283
66941W        W33482  18.506  15.026  11.671
66942W        W33483  23.084  35.911   4.601
66943W        W33484  31.778  39.762   3.672
66944W        W33485   2.447  44.586  14.548
66945W        W33486  33.937   8.985  10.691
66946W        W33487  32.956   8.943  11.853
66947W        W33488  11.758  17.652  13.488
66948W        W33489  21.034  18.237  14.896
66949W        W33490   3.008  20.736  14.516
66950W        W33491  29.184  44.870  13.522
66951W        W33492  25.051  30.512  12.463
66952W        W33493  10.982  35.684   4.173
66953W        W33494  14.500  34.871   1.096
66954W        W33495  33.582  10.288   4.998
66955W        W33496   7.724   0.694   0.975
66956W        W33497  35.164  28.893   0.870
66957W        W33498  34.546   2.293   0.115
66958W        W33499  28.162  23.176   3.781
66959W        W33500  38.776  44.482   2.484
66960W        W33501   1.923  15.296  11.642
66961W        W33502  35.793   0.388  10.680
66962W        W33503  32.606  38.237  14.404
66963W        W33504  27.625   0.210  10.412
66964W        W33505  18.772  40.481   2.800
66965W        W33506   8.716  25.950   1.883
66966W        W33507   5.298  24.244   3.961
66967W        W33508  15.039  34.646  14.926
66968W        W33509  17.718  16.528  12.728
66969W        W33510   0.920  43.783   0.882
66970W        W33511  37.841  22.265   1.204
66971W        W33512  20.716   8.341  11.195
66972W        W33513  23.549  18.791  12.069
66973W        W33514  16.770  36.523  14.599
66974W        W33515  13.270  21.230   3.716
66975W        W33516   0.931   4.894   4.647
66976W        W33517  39.882  29.485   4.645
66977W        W33518  36.412  30.000   0.078
66978W        W33519  13.576  15.783   1.260
66979W        W33520  15.441  35.881   3.567
66980W        W33521  19.737  44.290  12.430
66981W        W33522  10.315   3.786  11.181
66982W        W33523  29.986  37.165  12.987
66983W        W33524   4.942  39.428  14.768
66984W        W33525  17.208  11.763  12.103
66985W        W33526  36.438  37.928   1.411
66986W        W33527   6.584   5.138  14.343
66987W        W33528  32.329   9.368  10.460
66988W        W33529  13.090  37.710  11.417
66989W        W33530  21.541  32.663   1.702
66990W        W33531  30.505  10.427  13.388
66991W        W33532  17.122   0.040  12.017
66992W        W33533  25.652  17.207  11.542
66993W        W33534  16.831  12.387  12.996
66994W        W33535  30.788  18.427  11.141
66995W        W33536  12.357  30.622  10.233
66996W        W33537  15.539  19.150  14.870
66997W        W33538   2.493   9.836   4.685
66998W        W33539  21.627   0.213  14.294
66999W        W33540  28.841  29.861   0.761
67000W        W33541  23.388   3.776   5.198
67001W        W33542   9.807  31.390  14.447
67002W        W33543  35.978   2.928   9.765
67003W        W33544  11.376  29.885   3.234
67004W        W33545  35.059   0.584   3.629
67005W        W33546  21.044   9.324  13.392
67006W        W33547  19.096  19.714   3.631
67007W        W33548   6.026  24.615  13.264
67008W        W33549  26.299  25.631   4.440
67009W        W33550  15.841  36.072   3.325
67010W        W33551  28.473  26.618   3.243
67011W        W33552  16.447  11.046   1.858
67012W        W33553  26.707  17.177  11.080
67013W        W33554   2.262  23.589  12.602
67014W        W33555  31.018  38.883   0.911
67015W        W33556   2.373  11.246   0.448
67016W        W33557   8.820   7.412   1.266
67017W        W33558  33.202   5.822   1.492
67018W        W33559  15.642  42.240   0.912
67019W        W33560  42.990   1.930  12.992
67020W        W33561  16.783   5.343  12.679
67021W        W33562  41.039  29.578  12.504
67022W        W33563  38.802  31.117  10.289
67023W        W33564  44.856  32.118   0.943
67024W        W33565   6.065  36.046   1.388
67025W        W33566  24.736  44.214   3.250
67026W        W33567  18.117  32.962  13.957
67027W        W33568   9.630   9.464   0.838
67028W        W33569  20.794  21.280   3.623
67029W        W33570   4.885  10.251  11.747
67030W        W33571  19.772   7.876   2.804
67031W        W33572  22.978  29.118   1.817
67032W        W33573  31.513  11.125   1.774
67033W        W33574  24.832  37.426  12.152
67034W        W33575  19.768   8.317   4.090
67035W        W33576   8.681  35.943   1.754
67036W        W33577   8.407  23.133   1.475
67037W        W33578  11.753  33.627   1.951
67038W        W33579  27.547  13.767  14.975
67039W        W33580  23.510  18.783  11.135
67040W        W33581  36.820  15.322   3.678
67041W        W33582  40.589   3.454   1.886
67042W        W33583  37.804  33.634   0.080
67043W        W33584  19.981  15.735  14.912
67044W        W33585  25.296  28.957   2.412
67045W        W33586  41.441  26.848  11.037
67046W        W33587  36.422   8.517  12.314
67047W        W33588   3.020  29.619  12.384
67048W        W33589  41.276  32.396  14.010
67049W        W33590  35.536  12.663   1.902
67050W        W33591  29.201  33.545   2.752
67051W        W33592  31.595   8.381  11.915
67052W        W33593  35.965  27.420  11.999
67053W        W33594   2.668  30.987   0.221
67054W        W33595   3.114   3.938   2.714
67055W        W33596   2.782  43.539  13.760
67056W        W33597  13.265  18.194  14.259
67057W        W33598   2.645  31.576   0.814
67058W        W33599  20.729  12.825   0.540
67059W        W33600  36.667  42.197  12.572
67060W        W33601  27.262   1.820  12.005
67061W        W33602  41.115  37.433   1.914
67062W        W33603  30.371   2.395   0.913
67063W        W33604  14.690  30.184  10.253
67064W        W33605  22.583  22.072  13.409
67065W        W33606  26.574  11.032   1.252
67066W        W33607  37.460   1.268   0.221
67067W        W33608  15.681  20.999  11.630
67068W        W33609  20.091  21.592  11.656
67069W        W33610   3.029  30.625   4.538
67070W        W33611   5.880  11.305  14.100
67071W        W33612  41.897  39.652   0.963
67072W        W33613  36.645  32.360  14.495
67073W        W33614  27.650   2.342  14.929
67074W        W33615  20.597  32.642  13.480
67075W        W33616   5.433  11.694  11.198
67076W        W33617  14.891  41.677   4.110
67077W        W33618  24.664  30.521   1.448
67078W        W33619  39.745  20.154  13.174
67079W        W33620  42.256  16.566   3.642
67080W        W33621  34.937  14.057   0.875
67081W        W33622  41.598  16.066  13.867
67082W        W33623   2.160  32.605  14.499
67083W        W33624  13.880  12.731  10.643
67084W        W33625  20.821  10.965   1.210
67085W        W33626  44.010  43.516  12.594
67086W        W33627   8.432  36.033  11.482
67087W        W33628  29.512  26.419  12.635
67088W        W33629   6.447  13.652   4.317
67089W        W33630  17.833  44.542  10.440
67090W        W33631  32.976   3.843   2.892
67091W        W33632  31.719  14.140   5.521
67092W        W33633  10.766  13.696   1.797
67093W        W33634   1.133  12.393  10.461
67094W        W33635  30.485  37.741  14.791
67095W        W33636  17.804  27.053   1.752
67096W        W33637  12.890  18.462  13.101
67097W        W33638  18.312   3.473   1.024
67098W        W33639  10.946  14.576  10.601
67099W        W33640  37.601   9.885  12.516
67100W        W33641  30.909  17.997  10.745
67101W        W33642  28.705  38.804   3.311
67102W        W33643   4.140  26.984  14.617
67103W        W33644  10.873  28.976  13.461
67104W        W33645   9.689   4.689   4.672
67105W        W33646  15.791  29.378   4.186
67106W        W33647   1.918  43.620   2.855
67107W        W33648  20.958  23.163  10.616
67108W        W33649  13.444  30.674  11.126
67109W        W33650  35.464  26.568  12.929
67110W        W33651  17.316   4.011   1.765
67111W        W33652  15.709  20.700   0.149
67112W        W33653  36.207  12.413   3.383
67113W        W33654  36.331  29.142   3.775
67114W        W33655  43.239   0.058  12.529
67115W        W33656  44.424  35.177  11.187
67116W        W33657  10.814  41.568   0.799
67117W        W33658  28.440  34.078  14.486
67118W        W33659  39.583  11.412   4.953
67119W        W33660   6.863  33.631  12.197
67120W        W33661  22.152  14.993  14.549
67121W        W33662  19.733  33.497  11.838
67122W        W33663  41.730  41.386  14.370
67123W        W33664   7.736  18.676   3.129
67124W        W33665  13.671  31.870  14.703
67125W        W33666  32.798  42.831   1.664
67126W        W33667  41.932  22.895   3.372
67127W        W33668  18.516  18.691   2.788
67128W        W33669   0.702  39.682   1.773
67129W        W33670   2.119  13.780  10.788
67130W        W33671  24.086   4.376   2.158
67131W        W33672  18.242  42.889   1.737
67132W        W33673  26.534   6.205  13.751
67133W        W33674  18.102  17.572   2.200
67134W        W33675  10.664  10.482   3.235
67135W        W33676   9.845   9.204   3.038
67136W        W33677  23.057  13.027   0.285
67137W        W33678  43.272  29.673   3.236
67138W        W33679   2.685   2.289   0.486
67139W        W33680  32.318  19.082  12.490
67140W        W33681  27.711  29.013   3.190
67141W        W33682  11.690  38.377  10.942
67142W        W33683  17.923  14.986  14.260
67143W        W33684  28.081  25.013  12.496
67144W        W33685  15.769  31.570   1.706
67145W        W33686  12.651  25.074  14.775
67146W        W33687  44.509   0.132   0.868
67147W        W33688  39.523  43.855   0.523
67148W        W33689  40.783  31.603   0.903
67149W        W33690   7.372   3.629   3.304
67150W        W33691  39.783  24.735   0.458
67151W        W33692   4.774  29.941  14.982
67152W        W33693   3.518  42.408   3.770
67153W        W33694  35.491   6.825   5.039
67154W        W33695   8.990  40.903  11.686
67155W        W33696  14.629  39.055  11.130
67156W        W33697  43.772  39.267   2.598
67157W        W33698  42.745  15.073   3.797
67158W        W33699   6.156   7.297  13.520
67159W        W33700  21.621  30.168  14.969
67160W        W33701   9.881  17.204   3.762
67161W        W33702  37.261  15.283   5.422
67162W        W33703   6.703  30.336  12.481
67163W        W33704  30.656  35.392   0.429
67164W        W33705  41.945  31.297   4.718
67165W        W33706  29.512  28.927   0.445
67166W        W33707  27.550  14.201   0.716
67167W        W33708  39.078  34.382  11.599
67168W        W33709  30.163  44.480   2.378
67169W        W33710   4.201  12.582   2.861
67170W        W33711  41.862  20.085  11.109
67171W        W33712  44.730  30.598   2.743
67172W        W33713  40.766  11.579  12.526
67173W        W33714   2.955  26.195   4.503
67174W        W33715   7.819   0.848   1.449
67175W        W33716  33.017  35.863  13.906
67176W        W33717   3.152  37.501  10.719
67177W        W33718  24.470  14.939  11.026
67178W        W33719  22.275  43.054   0.814
67179W        W33720   9.608  13.067  14.261
67180W        W33721   1.431  24.448  11.091
67181W        W33722   5.627  14.112  13.885
67182W        W33723  43.543  42.321  12.235
67183W        W33724   0.768  11.159  12.195
67184W        W33725  13.385  26.970   3.320
67185W        W33726  23.978  44.585   1.448
67186W        W33727  17.249  33.320   2.366
67187W        W33728  30.876   5.391   1.097
67188W        W33729  40.879  23.239   3.390
67189W        W33730  22.342  15.005  14.063
67190W        W33731  35.834   5.284   0.344
67191W        W33732   9.149  28.314  10.879
67192W        W33733  31.088  10.529   4.186
67193W        W33734  36.910  24.579   1.963
67194W        W33735  24.830   3.395  10.591
67195W        W33736  38.717  12.645   2.342
67196W        W33737   3.760  13.172  13.020
67197W        W33738  27.057  43.022   2.201
67198W        W33739  34.576   9.397  13.787
67199W        W33740  39.195   0.281   4.992
67200W        W33741  42.282  23.809   4.195
67201W        W33742  27.458   4.909   1.775
67202W        W33743  42.409   1.848   2.632
67203W        W33744  29.969  29.864  14.455
67204W        W33745  33.882   4.375   4.925
67205W        W33746  10.619  10.946   2.311
67206W        W33747  36.920  43.941  13.999
67207W        W33748  29.468  39.540  12.020
67208W        W33749  41.915  41.473  13.896
67209W        W33750  21.354   2.384  12.503
67210W        W33751   9.058  36.842   0.266
67211W        W33752  40.108  24.529   0.823
67212W        W33753  40.433  11.906  10.286
67213W        W33754  19.212  27.184  13.833
67214W        W33755  12.652  23.370   0.694
67215W        W33756  36.528   0.260   3.655
67216W        W33757  15.542   9.888   3.855
67217W        W33758  12.360   6.273  14.530
67218W        W33759  26.409  43.546  12.099
67219W        W33760   5.624  42.403   3.310
67220W        W33761   9.856  17.891   0.413
67221W        W33762  24.421   8.336  10.535
67222W        W33763  21.468  30.424  14.563
67223W        W33764  32.006  10.749  12.954
67224W        W33765  35.942  15.867   1.019
67225W        W33766  36.395  14.119  11.132
67226W        W33767  19.103  39.410  11.628
67227W        W33768  12.935  43.072   2.661
67228W        W33769   3.729  23.111   1.762
67229W        W33770  12.903  28.560  12.756
67230W        W33771  19.932  25.585  11.359
67231W        W33772  36.644  24.481  11.484
67232W        W33773  21.673  15.187  14.469
67233W        W33774   5.096  14.643   0.733
67234W        W33775  23.992  32.618   1.660
67235W        W33776  27.255   7.468  11.204
67236W        W33777  21.645  18.242   0.058
67237W        W33778  23.216  16.661  10.675
67238W        W33779  14.756  16.121   3.254
67239W        W33780  41.030  39.115  14.868
67240W        W33781  40.561  36.789   0.438
67241W        W33782  28.869  32.054  10.683
67242W        W33783  20.820   7.338  12.305
67243W        W33784   6.415  15.520   4.375
67244W        W33785  21.390  29.251   4.086
67245W        W33786  13.721  11.233   4.832
67246W        W33787  26.034  17.240   4.746
67247W        W33788  25.717   7.217   0.422
67248W        W33789  42.339  10.382  14.311
67249W        W33790  18.134   3.022  10.721
67250W        W33791  41.999  21.791  13.529
67251W        W33792  11.699  25.269   4.536
67252W        W33793  27.349  27.654   1.487
67253W        W33794  20.676   4.116  10.185
67254W        W33795  27.819  24.845  11.620
67255W        W33796  16.531  13.680  13.279
67256W        W33797  23.495  38.994  10.312
67257W        W33798  38.885  13.357  13.889
67258W        W33799  22.784   8.115   1.555
67259W        W33800  19.687  12.826  14.811
67260W        W33801  24.515  30.893   3.681
67261W        W33802   8.089  11.618  14.375
67262W        W33803  13.737  23.699  11.115
67263W        W33804  19.630   1.460   0.367
67264W        W33805  22.034  36.900  10.974
67265W        W33806  26.019   2.229  12.646
67266W        W33807  42.527  33.799  13.044
67267W        W33808  41.991   0.968   2.644
67268W        W33809  44.059  23.184  10.761
67269W        W33810  22.099  17.376  12.106
67270W        W33811  39.483  41.284  14.788
67271W        W33812   7.254  38.495  13.816
67272W        W33813  26.106  33.927  11.593
67273W        W33814   5.728  29.331   3.409
67274W        W33815  20.579  43.314  14.795
67275W        W33816  13.247   1.637   1.740
67276W        W33817   6.111  34.899   5.183
67277W        W33818  33.959  34.414  12.929
67278W        W33819  33.533  41.230  11.175
67279W        W33820  21.662  23.966  13.076
67280W        W33821  37.520  15.560   0.826
67281W        W33822   1.465   1.197   2.263
67282W        W33823  35.370  41.009   0.944
67283W        W33824  31.612  40.885   4.748
67284W        W33825  39.578  19.359   1.338
67285W        W33826  42.882  41.946  12.811
67286W        W33827  37.894  32.040  11.481
67287W        W33828  23.119  12.810   1.644
67288W        W33829  27.537  19.133   3.640
67289W        W33830  20.593  23.058  11.168
67290W        W33831  39.091  20.158  14.533
67291W        W33832  44.937  28.307  12.490
67292W        W33833  27.749  17.748  10.642
67293W        W33834  38.065  31.565   1.434
67294W        W33835  26.650  40.337   4.053
67295W        W33836  33.886  10.606  14.903
67296W        W33837  19.083  20.444  13.280
67297W        W33838   1.701   1.107   2.717
67298W        W33839  35.011   0.737  13.473
67299W        W33840  25.423  22.157  11.063
67300W        W33841  39.826  44.975  11.016
67301W        W33842  18.959  22.104  11.093
67302W        W33843  36.393  30.427   4.778
67303W        W33844   2.411   3.703   2.223
67304W        W33845  36.724   2.296   2.728
67305W        W33846  21.015  21.706  11.607
67306W        W33847  39.867  39.729  13.239
67307W        W33848  18.051  38.739  14.901
67308W        W33849  41.892  23.644   0.849
67309W        W33850  27.107  36.481   4.150
67310W        W33851  22.701  20.970  14.422
67311W        W33852  18.029  24.307  10.827
67312W        W33853  31.120  39.926   1.031
67313W        W33854  30.143  32.771  13.188
67314W        W33855  27.074   7.238  12.616
67315W        W33856  38.221  10.179  10.768
67316W        W33857  29.444  23.606  13.718
67317W        W33858  34.167   7.481   0.894
67318W        W33859  15.086   1.930  14.444
67319W        W33860  24.655  18.261   2.327
67320W        W33861  11.914  28.929  10.617
67321W        W33862  44.700  40.314   1.509
67322W        W33863  25.567  38.774  13.553
67323W        W33864  24.222  43.325   2.279
67324W        W33865  10.700  32.340  12.618
67325W        W33866  19.678   5.589  14.715
67326W        W33867  19.070  16.099  14.857
67327W        W33868   1.506   2.793   0.800
67328W        W33869  23.377  15.724   1.260
67329W        W33870   0.189   7.236   4.363
67330W        W33871  31.232  14.596   3.550
67331W        W33872  22.694  15.354  11.009
67332W        W33873  20.700  20.801   1.857
67333W        W33874  15.638  24.492   0.383
67334W        W33875  11.575  27.035  10.708
67335W        W33876  31.681  37.993   4.196
67336W        W33877   5.304  37.134  12.040
67337W        W33878  18.626  20.542  14.958
67338W        W33879  43.214  41.291   4.280
67339W        W33880   5.776  41.210  12.541
67340W        W33881  28.716  37.446   1.222
67341W        W33882  11.068  44.492   4.641
67342W        W33883  18.043  11.362   2.665
67343W        W33884  23.242   0.136  12.496
67344W        W33885  13.370  27.762   1.799
67345W        W33886  20.951  31.954   0.921
67346W        W33887  41.517  11.426   2.553
67347W        W33888  13.014  32.106   0.383
67348W        W33889   4.983   6.807   0.362
67349W        W33890  43.297   0.824   1.991
67350W        W33891   1.358  31.116   0.041
67351W        W33892  26.913  23.921  11.682
67352W        W33893  39.598  11.768  10.408
67353W        W33894  35.804  23.569   0.850
67354W        W33895   2.281  30.640   0.377
67355W        W33896  32.984  35.041  13.444
67356W        W33897   1.199  23.603   4.318
67357W        W33898  26.160   6.699   5.003
67358W        W33899  13.116  33.479   3.580
67359W        W33900  11.771   7.473  14.796
67360W        W33901   4.062  42.897   1.566
67361W        W33902  13.050  43.912   2.692
67362W        W33903  27.228  42.217  12.538
67363W        W33904  36.833   7.135  14.554
67364W        W33905  12.145  31.110  11.085
67365W        W33906   0.606   2.088  13.959
67366W        W33907  18.781  36.466  12.615
67367W        W33908  42.932   0.579   5.220
67368W        W33909   8.661  33.562   3.190
67369W        W33910  33.119  12.151  10.623
67370W        W33911  29.212   0.256   1.301
67371W        W33912  15.977  34.609   9.769
67372W        W33913  38.221  43.565  13.805
67373W        W33914  28.575  19.080   4.429
67374W        W33915  37.948  30.172  13.571
67375W        W33916  39.438  25.749  13.944
67376W        W33917  17.301   3.206   1.401
67377W        W33918  20.680  31.579  13.391
67378W        W33919  12.821   6.448   2.929
67379W        W33920  25.705   6.744   3.709
67380W        W33921  42.758  13.215   2.214
67381W        W33922   0.915  38.918  11.156
67382W        W33923  31.385  34.392  13.935
67383W        W33924  17.330  15.805  11.666
67384W        W33925  42.814   5.891   1.308
67385W        W33926  34.829  27.710  11.556
67386W        W33927  11.099  34.361  12.175
67387W        W33928  27.155   6.455  11.121
67388W        W33929   9.969  26.359   3.831
67389W        W33930  23.339  21.878  12.021
67390W        W33931   8.771   1.522  10.716
67391W        W33932   4.573  21.384  14.964
67392W        W33933  18.132  40.510   4.243
67393W        W33934  31.419  35.610   3.770
67394W        W33935  23.509  26.960   4.618
67395W        W33936  28.790   6.663   0.384
67396W        W33937  30.458  16.212   0.330
67397W        W33938  40.320  22.730   5.003
67398W        W33939   3.590  11.113   3.590
67399W        W33940  26.217  29.108  14.579
67400W        W33941  19.713  16.730   1.062
67401W        W33942   8.650   2.704   1.874
67402W        W33943   8.388  38.367   4.257
67403W        W33944  41.080  20.529   1.971
67404W        W33945  38.644  32.188  11.027
67405W        W33946  28.717  12.929   5.263
67406W        W33947   2.851  43.757  14.235
67407W        W33948  26.548  23.920   3.280
67408W        W33949  40.461  38.451   1.300
67409W        W33950  35.880   8.029   1.077
67410W        W33951  15.014  37.944  11.148
67411W        W33952  34.905  37.770   2.212
67412W        W33953  24.697  42.123  13.124
67413W        W33954  18.968  22.311   2.804
67414W        W33955  14.652  24.624   2.595
67415W        W33956  38.071   8.379  11.210
67416W        W33957  15.978   3.654  10.424
67417W        W33958  14.839  16.251  14.981
67418W        W33959  22.738  10.289  10.347
67419W        W33960  39.480   8.637  12.041
67420W        W33961  16.222   4.629  12.060
67421W        W33962  22.942  37.855   0.011
67422W        W33963   5.011  32.941  13.423
67423W        W33964  33.378  38.068   0.246
67424W        W33965  27.001  11.179  12.390
67425W        W33966  35.206   1.523  13.868
67426W        W33967  13.755  14.600   1.893
67427W        W33968  44.916  42.769   1.884
67428W        W33969   5.188  13.352   3.346
67429W        W33970  21.422   0.234   4.095
67430W        W33971   4.288  43.091   2.926
67431W        W33972  17.564  18.301   2.221
67432W        W33973  14.367   5.765  13.053
67433W        W33974   1.207  20.255  14.457
67434W        W33975   5.877   7.828   2.650
67435W        W33976  37.141  33.276   1.464
67436W        W33977   2.393  40.285  14.355
67437W        W33978  14.100  32.126  14.950
67438W        W33979  16.154  16.329   2.672
67439W        W33980  42.099  14.679  12.168
67440W        W33981  41.556  26.899   1.921
67441W        W33982  43.974  17.813   0.703
67442W        W33983  19.211  11.743  11.554
67443W        W33984   5.760  38.420   0.014
67444W        W33985   2.645  24.645   9.843
67445W        W33986   7.438  23.359  13.018
67446W        W33987  19.840   1.524  11.258
67447W        W33988  44.551  11.508  11.051
67448W        W33989  11.129  11.431   3.332
67449W        W33990  37.845   9.662   4.512
67450W        W33991  43.745  10.630  14.011
67451W        W33992  40.815  40.161  11.700
67452W        W33993   6.526  22.959  12.055
67453W        W33994  25.079  41.047   0.389
67454W        W33995  36.044  12.922  13.760
67455W        W33996  43.688   3.894   4.252
67456W        W33997  20.185  23.010   0.718
67457W        W33998   7.377   6.818   2.392
67458W        W33999  35.652  28.557   2.872
67459W        W34000  28.775  28.095   4.519
67460W        W34001  13.665  36.670   1.881
67461W        W34002   0.077  17.655  14.994
67462W        W34003  34.207   7.229  13.507
67463W        W34004  30.703  12.303  11.083
67464W        W34005   0.256  14.634   3.754
67465W        W34006   4.988  28.060   4.532
67466W        W34007   9.522  10.567   4.630
67467W        W34008  44.831  43.749  13.088
67468W        W34009  16.048  27.834   2.652
67469W        W34010  13.260  14.820  13.926
67470W        W34011   2.448  43.881  10.985
67471W        W34012   0.598  33.966   2.815
67472W        W34013  36.354  39.815  13.480
67473W        W34014   8.678  33.556  10.722
67474W        W34015  41.291  26.534   0.996
67475W        W34016  18.245  19.358  11.116
67476W        W34017  17.544  25.141  14.071
67477W        W34018  16.984  43.261  13.219
67478W        W34019  22.712  24.627  13.328
67479W        W34020  44.684  30.821  13.794
67480W        W34021  19.190   0.701   1.308
67481W        W34022  11.956   9.437  14.190
67482W        W34023  13.083  35.342   1.304
67483W        W34024  43.062  41.525  13.477
67484W        W34025  25.230   8.287   1.497
67485W        W34026  25.681  38.118   3.226
67486W        W34027  36.508  21.344   4.428
67487W        W34028  26.125  42.337   3.798
67488W        W34029  35.683  24.565  11.977
67489W        W34030  15.604  29.012   1.950
67490W        W34031   4.827   3.293   0.674
67491W        W34032  43.782  35.594   4.175
67492W        W34033   8.195  30.029   0.893
67493W        W34034  43.979  37.557   1.402
67494W        W34035  28.670  35.417   2.433
67495W        W34036  43.096  19.482  12.845
67496W        W34037  19.497  44.076  13.477
67497W        W34038   6.988  29.003  14.977
67498W        W34039  42.532   3.466  13.682
67499W        W34040   2.987  10.257   3.104
67500W        W34041  23.511  35.517  14.821
67501W        W34042  44.508  30.812   4.369
67502W        W34043  17.826  15.128  13.025
67503W        W34044  37.405  19.436   3.321
67504W        W34045  31.670   9.345   2.822
67505W        W34046  38.956  23.892   2.495
67506W        W34047  31.817   3.764   3.658
67507W        W34048  26.028   6.625  14.333
67508W        W34049   2.258  32.065  10.296
67509W        W34050  23.455  16.816   3.160
67510W        W34051  44.286  36.596  13.418
67511W        W34052  44.330  43.821   4.292
67512W        W34053  30.234  29.253  13.043
67513W        W34054  26.673  32.832   1.081
67514W        W34055  42.534  35.306  14.763
67515W        W34056  32.649  15.728  14.468
67516W        W34057   3.732  36.234   4.715
67517W        W34058  12.961  42.264  14.023
67518W        W34059  31.605   5.662   4.519
67519W        W34060  38.889  23.241  13.987
67520W        W34061   1.618   6.043   4.095
67521W        W34062  40.570  11.912  12.097
67522W        W34063   0.835  26.611   2.509
67523W        W34064  12.645  31.583  14.743
67524W        W34065  13.324  25.914  14.944
67525W        W34066  32.607  16.640  14.486
67526W        W34067  33.154  36.907   0.798
67527W        W34068  17.274  20.750   3.254
67528W        W34069  15.167  44.269   0.442
67529W        W34070  21.038   0.781  12.340
67530W        W34071  22.104   4.346   4.462
67531W        W34072   4.272  21.089  12.544
67532W        W34073  37.101  23.136   4.226
67533W        W34074  26.884   1.450   1.877
67534W        W34075  15.710  39.317   0.980
67535W        W34076  32.528  26.069   3.910
67536W        W34077  23.943  19.609  12.339
67537W        W34078  34.062   7.077  10.496
67538W        W34079  29.440  21.149  10.368
67539W        W34080   7.950  12.097   0.459
67540W        W34081  27.475   5.174  14.890
67541W        W34082  38.411  35.052   3.189
67542W        W34083  35.964  41.445   4.061
67543W        W34084  41.937  16.231   1.176
67544W        W34085  16.619   2.750   0.682
67545W        W34086  37.828  42.772  13.967
67546W        W34087  29.700  11.252   2.310
67547W        W34088   4.973  39.932  14.962
67548W        W34089  16.736   6.782   1.640
67549W        W34090  36.366  25.152   4.560
67550W        W34091   0.265  40.847  12.004
67551W        W34092  16.721   1.434  12.532
67552W        W34093  34.354  31.970  13.047
67553W        W34094  41.491   6.417   3.841
67554W        W34095  25.646  25.122   0.158
67555W        W34096  26.984  29.209   2.621
67556W        W34097  33.950   3.433   1.310
67557W        W34098  34.343  40.805   4.097
67558W        W34099  16.222  16.824  10.673
67559W        W34100  13.739   3.743   3.606
67560W        W34101  24.714  13.536  11.468
67561W        W34102  19.928  26.033  11.072
67562W        W34103   9.322  41.985   3.579
67563W        W34104   4.393  34.015   4.811
67564W        W34105  14.101   1.937   1.901
67565W        W34106  15.804   5.524   4.119
67566W        W34107  12.885   5.061  11.823
67567W        W34108  12.649  15.173   1.913
67568W        W34109  43.307  40.757   9.874
67569W        W34110  13.616   6.327   1.449
67570W        W34111  44.750  44.736  14.956
67571W        W34112  16.257  11.923   3.328
67572W        W34113  11.648  17.016  10.937
67573W        W34114  24.686  27.369   2.830
67574W        W34115  40.024  32.181   2.770
67575W        W34116   2.743  30.350   0.822
67576W        W34117   6.868  39.994   1.978
67577W        W34118  39.595  20.428  11.978
67578W        W34119  21.872  26.814   4.229
67579W        W34120   3.896  30.703   0.031
67580W        W34121   3.998  31.845   3.308
67581W        W34122  10.770   9.672   2.839
67582W        W34123  31.408  27.118  11.072
67583W        W34124  31.030  15.074   3.338
67584W        W34125  35.400  17.103  12.972
67585W        W34126   6.476  24.079  11.642
67586W        W34127  40.800  34.417   3.353
67587W        W34128  36.060   0.466   0.411
67588W        W34129  38.102  35.086   1.354
67589W        W34130   0.488   1.376   4.202
67590W        W34131  17.850  27.976   4.241
67591W        W34132  16.660   3.812   1.442
67592W        W34133  12.555  18.628   1.448
67593W        W34134  20.024  20.767  10.790
67594W        W34135  10.870  29.405  14.296
67595W        W34136  40.282  28.005   3.612
67596W        W34137  14.680  32.653   3.017
67597W        W34138  10.257   1.377  14.431
67598W        W34139  19.578  24.481  11.671
67599W        W34140  20.581   6.901   0.287
67600W        W34141  31.927  22.540   4.588
67601W        W34142  19.271  33.511   4.261
67602W        W34143  27.473  22.232  11.898
67603W        W34144  10.681   6.910   4.633
67604W        W34145  33.132  27.651   0.914
67605W        W34146  20.005  24.054  12.503
67606W        W34147   9.923  41.881  14.719
67607W        W34148  29.069   5.520  13.971
67608W        W34149  31.906   6.182  12.435
67609W        W34150  36.625  13.166   2.315
67610W        W34151  21.119   4.108   2.571
67611W        W34152  44.564  31.108   2.773
67612W        W34153  15.817  42.869  13.566
67613W        W34154  12.358  40.900  14.861
67614W        W34155  34.824  43.191   4.231
67615W        W34156  42.797  35.954   3.315
67616W        W34157  16.929  36.932   0.316
67617W        W34158  22.651  44.269  13.564
67618W        W34159  27.586  25.278  14.945
67619W        W34160  15.349  11.080   1.015
67620W        W34161  12.353  36.404   2.634
67621W        W34162  11.135   1.309  10.732
67622W        W34163   3.853  27.232  13.798
67623W        W34164  29.189  35.442   2.612
67624W        W34165  11.202  29.645   4.538
67625W        W34166  39.400  36.897  10.609
67626W        W34167  33.933   1.048   2.668
67627W        W34168  16.294   5.777   0.013
67628W        W34169  10.863  20.549   2.273
67629W        W34170   8.737  25.728  14.460
67630W        W34171  44.217   2.207  11.640
67631W        W34172  19.920   2.756   4.188
67632W        W34173   5.873  15.702  12.835
67633W        W34174   6.240   6.263   0.601
67634W        W34175  17.723  13.499  12.601
67635W        W34176   8.542  11.922   4.669
67636W        W34177   3.213  27.048   3.084
67637W        W34178   3.283   4.460  11.490
67638W        W34179  29.153  36.606  11.117
67639W        W34180  30.265  42.006  13.126
67640W        W34181   4.455  22.559  12.216
67641W        W34182  27.043  19.163  13.436
67642W        W34183  41.404   0.425   1.520
67643W        W34184  42.301   0.675   1.900
67644W        W34185   1.218   7.615   3.167
67645W        W34186  36.884  15.601   0.213
67646W        W34187   2.959  21.104  12.448
67647W        W34188  14.098   0.800   2.118
67648W        W34189   6.693  31.994  12.839
67649W        W34190  17.701  36.630   4.793
67650W        W34191   9.535  22.255   0.399
67651W        W34192  28.146  38.339  11.871
67652W        W34193   7.409  36.259  10.523
67653W        W34194  26.176   3.207  12.443
67654W        W34195   3.985  44.743   1.319
67655W        W34196   3.430  11.866  11.831
67656W        W34197  43.757  32.588  13.501
67657W        W34198  30.903  44.253   3.650
67658W        W34199  37.763   1.942  14.486
67659W        W34200  44.463  10.628   4.626
67660W        W34201   8.596  18.318   4.392
67661W        W34202   5.974   2.045   2.623
67662W        W34203  30.369  20.016   0.274
67663W        W34204  44.724   7.200  10.945
67664W        W34205   8.212  10.133  11.186
67665W        W34206  33.034  41.329  12.052
67666W        W34207   2.004  27.510   2.841
67667W        W34208  31.961   1.149   3.793
67668W        W34209   1.287  23.184  13.785
67669W        W34210  37.877  39.697  13.825
67670W        W34211  14.122  25.422   3.147
67671W        W34212  34.319   9.632  13.411
67672W        W34213  26.636   2.432   0.716
67673W        W34214   5.466  31.621   2.267
67674W        W34215  17.176  25.812  11.270
67675W        W34216  40.540  11.531   3.568
67676W        W34217  27.932   7.018  13.078
67677W        W34218  22.761  24.382   1.938
67678W        W34219  40.890  19.330   1.436
67679W        W34220  36.063   4.504   1.814
67680W        W34221  40.526  25.982   1.423
67681W        W34222   0.142  42.454   0.871
67682W        W34223   6.174  39.262   0.333
67683W        W34224   1.955   5.914   1.302
67684W        W34225  25.826  41.489   3.840
67685W        W34226  34.929  31.976   1.688
67686W        W34227  42.774   2.875   3.142
67687W        W34228  14.277  43.212   1.372
67688W        W34229   6.883  26.101   3.865
67689W        W34230  43.256  17.258   0.987
67690W        W34231   9.359  17.084  14.690
67691W        W34232  22.036  12.339  14.955
67692W        W34233  26.962   3.558   3.617
67693W        W34234  11.692  35.065   3.335
67694W        W34235   0.144  38.646   3.517
67695W        W34236  40.993  32.089   0.798
67696W        W34237  25.653  36.160  12.552
67697W        W34238   3.184  31.898   3.508
67698W        W34239  38.461  18.461  11.651
67699W        W34240  32.590   9.012  11.270
67700W        W34241  27.820  35.296   5.108
67701W        W34242  20.539   3.655   9.986
67702W        W34243  34.449   5.520  12.613
67703W        W34244  28.440  11.272   1.207
67704W        W34245  33.686  13.401   3.254
67705W        W34246  15.811   6.032  10.911
67706W        W34247  24.918  28.429   4.120
67707W        W34248   6.117  38.338   3.202
67708W        W34249  38.761  41.823   1.175
67709W        W34250   9.653  20.464   4.468
67710W        W34251   9.413   6.670   2.185
67711W        W34252  40.599  15.847   5.051
67712W        W34253   0.822  11.134   2.407
67713W        W34254  44.429  26.495   0.918
67714W        W34255  29.892  42.836   4.179
67715W        W34256  42.482  30.286   3.965
67716W        W34257   9.551  43.401   2.282
67717W        W34258   8.737  30.971   1.227
67718W        W34259  43.700   5.213   0.529
67719W        W34260  29.287  36.146  13.607
67720W        W34261  34.945  39.808   3.852
67721W        W34262  25.975  10.369  12.868
67722W        W34263  26.687  25.043   4.693
67723W        W34264   5.138  23.642   3.355
67724W        W34265   6.796  21.873   3.729
67725W        W34266  28.087  19.477   5.047
67726W        W34267  37.529  27.845   1.325
67727W        W34268  40.966  30.191  13.972
67728W        W34269  14.328  10.778   1.887
67729W        W34270   8.659  41.620  14.363
67730W        W34271  16.560  27.860   2.770
67731W        W34272  22.816  19.122   2.340
67732W        W34273  33.492   9.453   3.199
67733W        W34274  31.739  11.806   4.058
67734W        W34275   7.990  16.340  10.824
67735W        W34276  24.836  34.025   3.809
67736W        W34277  29.921  21.947   1.427
67737W        W34278  13.625  43.308  12.074
67738W        W34279  29.351   8.205  13.161
67739W        W34280  16.734  12.892   0.335
67740W        W34281  14.699  41.781   2.761
67741W        W34282  15.715   8.361   2.565
67742W        W34283   7.671  36.801   5.455
67743W        W34284  10.597  30.710   1.189
67744W        W34285  13.340  26.561   3.649
67745W        W34286  38.066  18.215  11.433
67746W        W34287  38.011  27.368  11.452
67747W        W34288  30.243  13.225  13.557
67748W        W34289  42.898   4.807   0.352
67749W        W34290   1.231  35.874  11.497
67750W        W34291  28.826  41.981   1.932
67751W        W34292   6.458  32.697  13.822
67752W        W34293   1.525  22.671   3.782
67753W        W34294  24.987  37.076   4.159
67754W        W34295  24.809  21.445  12.049
67755W        W34296   1.406   0.287   2.688
67756W        W34297  33.050  15.108   0.238
67757W        W34298  12.254  34.440   2.732
67758W        W34299   0.112   1.272  14.293
67759W        W34300  21.458   4.514  11.708
67760W        W34301  39.932  28.463  14.065
67761W        W34302  32.126  23.197   0.320
67762W        W34303  32.121   8.899  11.414
67763W        W34304  19.369  38.468  13.151
67764W        W34305   7.301  25.670  11.131
67765W        W34306   2.192  15.719  14.422
67766W        W34307  34.578  28.092  14.434
67767W        W34308  22.548   2.654  12.987
67768W        W34309   1.832  31.979  10.626
67769W        W34310   0.933  35.484  11.708
67770W        W34311  16.813  41.985  12.876
67771W        W34312  13.844  25.583  11.078
67772W        W34313  20.552   1.314  11.431
67773W        W34314   9.414  33.577  14.583
67774W        W34315  23.515  29.168  12.942
67775W        W34316   9.927  10.249   3.728
67776W        W34317  34.022  43.758   2.186
67777W        W34318  27.116   2.750  12.404
67778W        W34319   3.304  12.948   2.384
67779W        W34320  17.130  36.497  12.035
67780W        W34321  31.019  13.718   2.172
67781W        W34322   6.055   4.808   4.530
67782W        W34323   5.396  25.671   2.635
67783W        W34324   7.105  13.792  12.679
67784W        W34325   6.921  30.525   0.045
67785W        W34326  22.260   8.942  10.557
67786W        W34327  28.312  26.230  11.222
67787W        W34328  33.951  34.643   4.223
67788W        W34329  21.095  23.522   2.325
67789W        W34330   8.838  17.277  11.740
67790W        W34331   5.561   1.071  10.771
67791W        W34332  34.151  28.190   3.253
67792W        W34333  14.265  20.773  10.426
67793W        W34334  33.485  43.799   3.832
67794W        W34335  42.302   0.537  11.818
67795W        W34336  37.534  15.597   1.800
67796W        W34337  30.451  14.648  12.001
67797W        W34338  34.356  35.999  12.828
67798W        W34339  28.515  10.531  10.467
67799W        W34340   4.299  33.683  12.425
67800W        W34341   0.997  16.642   1.256
67801W        W34342  20.777   1.837  12.592
67802W        W34343  13.765  28.962  10.726
67803W        W34344   9.853   7.807   5.013
67804W        W34345  22.168   4.582   4.920
67805W        W34346  18.302  17.756   0.187
67806W        W34347  31.004   1.018  12.060
67807W        W34348  22.564   2.020   2.278
67808W        W34349  40.124   6.343   2.378
67809W        W34350  16.736   5.744   3.730
67810W        W34351  39.875  24.572  11.679
67811W        W34352  43.438  13.717   2.162
67812W        W34353  19.175  38.435  11.739
67813W        W34354  13.845  39.753  14.831
67814W        W34355   7.319  16.119   3.174
67815W        W34356  31.079  18.139   3.424
67816W        W34357  34.650  23.984  12.054
67817W        W34358  41.470  21.532   0.530
67818W        W34359  11.265   5.324  10.402
67819W        W34360  37.899  18.632  14.986
67820W        W34361  21.315  44.313  10.318
67821W        W34362  27.197  21.991  11.479
67822W        W34363  18.574  36.829  11.147
67823W        W34364  10.908  30.519  12.012
67824W        W34365  25.801   5.834   9.849
67825W        W34366  27.958  32.501  12.726
67826W        W34367  43.733   0.287   1.464
67827W        W34368  14.723  10.576   3.271
67828W        W34369   8.861  21.496  12.817
67829W        W34370  30.941   0.529   0.713
67830W        W34371  29.684  43.942  14.508
67831W        W34372  44.844  42.897  13.354
67832W        W34373  20.481  32.647  11.277
67833W        W34374  42.585  12.618  12.420
67834W        W34375  40.039  11.758   2.676
67835W        W34376   0.379  15.221   0.397
67836W        W34377   2.458  11.376   4.200
67837W        W34378  40.323  29.421   2.515
67838W        W34379  34.375   7.292  13.025
67839W        W34380  29.628  23.452   4.560
67840W        W34381   9.242   8.973   3.060
67841W        W34382  34.543  26.697   1.412
67842W        W34383  25.152  23.726   2.182
67843W        W34384  41.451   2.477  11.144
67844W        W34385   2.355  33.953   0.705
67845W        W34386  21.140  37.897   4.786
67846W        W34387  26.737  13.462   5.096
67847W        W34388   3.274  14.593  14.003
67848W        W34389  19.224  23.793   2.251
67849W        W34390  18.948  40.619  13.966
67850W        W34391  17.697  17.732   4.510
67851W        W34392  23.855  39.122   9.957
67852W        W34393  34.916  32.462  13.374
67853W        W34394  35.541  25.421  11.001
67854W        W34395   9.400  26.500  10.854
67855W        W34396  12.857  17.784  11.196
67856W        W34397  38.811  27.866   2.313
67857W        W34398  40.909  34.138  14.486
67858W        W34399  14.445  26.876  12.919
67859W        W34400  33.033   7.703   1.083
67860W        W34401  24.698   3.324   3.847
67861W        W34402  43.514  27.625  11.515
67862W        W34403  28.690  44.837  14.471
67863W        W34404   3.509  29.379  12.523
67864W        W34405  34.027  23.112  11.347
67865W        W34406   2.168  32.137  13.934
67866W        W34407  26.621  23.970   4.155
67867W        W34408  18.547  11.979  10.989
67868W        W34409  34.407  36.661   3.722
67869W        W34410  25.033  11.966   3.256
67870W        W34411  14.377  14.399  11.247
67871W        W34412   7.892  44.551  11.807
67872W        W34413   5.868  42.939   2.156
67873W        W34414  37.285  41.729  11.914
67874W        W34415  29.101  23.182   0.775
67875W        W34416   8.127  23.149   1.960
67876W        W34417   1.699  38.531   1.893
67877W        W34418   7.187  21.062  11.429
67878W        W34419  22.153  15.351   5.056
67879W        W34420  41.953  10.276  14.742
67880W        W34421  10.145   1.920  12.408
67881W        W34422  16.040   8.826   1.860
67882W        W34423  24.187  35.527   4.481
67883W        W34424   4.821   2.456   3.080
67884W        W34425  37.487  40.045   0.265
67885W        W34426  29.136  35.136  11.212
67886W        W34427   5.808  25.696   2.311
67887W        W34428   8.905  30.434  14.182
67888W        W34429  12.256   9.860  10.694
67889W        W34430  33.564  28.509  13.982
67890W        W34431  42.399  36.628  12.133
67891W        W34432  41.287  36.599  13.338
67892W        W34433  38.164  10.429   3.042
67893W        W34434  18.058   3.787   3.648
67894W        W34435  32.347  11.832  13.598
67895W        W34436   3.895   7.123  10.672
67896W        W34437  21.579   8.153   2.192
67897W        W34438   0.524  44.379   1.808
67898W        W34439   7.261  18.334  11.631
67899W        W34440  14.301  30.101   2.302
67900W        W34441  23.118  32.489   2.743
67901W        W34442  27.618  43.705   2.266
67902W        W34443  35.045  29.098   2.689
67903W        W34444  10.674  19.890   1.101
67904W        W34445   4.752  26.167   0.676
67905W        W34446   2.497  25.232  13.002
67906W        W34447  25.243  31.974   0.938
67907W        W34448  26.529  42.520   1.778
67908W        W34449  44.913  15.839   0.868
67909W        W34450  16.734  29.939   0.095
67910W        W34451  22.905  44.718   2.802
67911W        W34452  13.736  27.266   0.450
67912W        W34453  33.598  28.127   4.184
67913W        W34454  31.397  16.632  13.265
67914W        W34455   1.837  11.558  13.847
67915W        W34456  39.780  17.293  11.646
67916W        W34457  32.016  42.347   4.728
67917W        W34458  43.970   3.639   4.596
67918W        W34459   1.336  25.539  12.073
67919W        W34460  26.953  25.791   0.273
67920W        W34461   8.399  37.471  14.532
67921W        W34462  17.259  23.322   4.576
67922W        W34463  12.337   2.777   3.103
67923W        W34464  14.336  43.604  11.141
67924W        W34465  37.977  17.240   0.260
67925W        W34466   5.723   9.919  10.612
67926W        W34467  30.388  12.786  13.333
67927W        W34468  32.510  15.315   1.731
67928W        W34469  25.121  20.045  12.644
67929W        W34470   6.415  35.806   3.658
67930W        W34471  35.725  34.228   1.963
67931W        W34472  40.820  23.840   1.800
67932W        W34473  41.503   7.040   0.378
67933W        W34474   6.639  25.657  13.307
67934W        W34475  23.503   1.305   3.792
67935W        W34476   1.452  36.433   2.596
67936W        W34477  16.249   0.923  14.509
67937W        W34478  33.886  28.806   4.617
67938W        W34479  20.789  18.078   3.955
67939W        W34480  13.795  10.020   1.415
67940W        W34481   8.172   4.834   1.301
67941W        W34482  44.201  27.644   4.438
67942W        W34483  42.998  23.990   3.930
67943W        W34484  14.085  15.199  11.839
67944W        W34485  33.454  43.664   2.637
67945W        W34486  33.847  23.512  12.066
67946W        W34487  15.667  40.529   0.355
67947W        W34488   6.448   3.542  14.841
67948W        W34489  10.475  42.214   2.022
67949W        W34490   9.052  26.586   3.582
67950W        W34491  39.982  21.704  14.737
67951W        W34492  13.801  41.301   1.219
67952W        W34493  41.957   1.510   3.579
67953W        W34494   9.418  19.333   2.145
67954W        W34495   2.794  23.510   0.431
67955W        W34496  22.401  33.440  13.611
67956W        W34497  12.216  11.877  11.072
67957W        W34498  32.621  22.741  12.833
67958W        W34499  44.375  23.170  14.356
67959W        W34500  24.754  12.644  11.611
67960W        W34501  43.673  12.361  13.903
67961W        W34502   6.094  32.665  12.823
67962W        W34503  37.969   6.256   0.436
67963W        W34504   3.836  24.929   1.526
67964W        W34505  38.860  38.726  12.842
67965W        W34506  35.582  33.083   3.590
67966W        W34507   3.281  28.117  11.157
67967W        W34508  18.638  23.520   2.668
67968W        W34509  40.901  16.502   3.715
67969W        W34510   5.158  34.961  11.576
67970W        W34511   6.715   5.413   4.516
67971W        W34512  28.701  42.440   3.885
67972W        W34513  42.087  37.415  10.606
67973W        W34514  16.653   0.478  14.363
67974W        W34515  34.559  21.286   3.205
67975W        W34516  42.342  14.669   0.918
67976W        W34517  37.882  42.397   2.155
67977W        W34518  30.860  44.499  14.969
67978W        W34519   5.173   1.470   0.254
67979W        W34520  26.123   6.424   3.682
67980W        W34521  43.427  19.286  11.099
67981W        W34522  41.330  39.655  12.418
67982W        W34523  14.214  29.447  11.131
67983W        W34524  44.887   9.117   1.437
67984W        W34525  14.811  30.460   0.789
67985W        W34526  22.199  10.243  12.778
67986W        W34527  37.654  36.857   0.144
67987W        W34528  33.588  41.194   3.687
67988W        W34529  13.519  17.084   0.920
67989W        W34530  27.941   9.427   1.041
67990W        W34531  21.628  37.565   4.499
67991W        W34532   6.855  28.207  10.712
67992W        W34533  10.791   4.912  14.787
67993W        W34534  34.503  31.614  11.697
67994W        W34535   7.704  20.686   4.162
67995W        W34536  36.208  13.206   5.134
67996W        W34537  24.577  40.451  12.942
67997W        W34538  10.227  29.197  11.865
67998W        W34539  38.662   7.731   2.940
67999W        W34540  15.806  25.605  14.316
68000W        W34541  17.118   5.455  14.047
68001W        W34542  14.871  10.082  14.321
68002W        W34543   6.113   2.911   1.235
68003W        W34544   9.440  26.779   2.514
68004W        W34545  21.028  40.939  14.812
68005W        W34546   1.401  13.900  12.604
68006W        W34547   1.919  43.714  14.363
68007W        W34548   1.909  28.071   0.887
68008W        W34549   9.538  41.293   2.568
68009W        W34550   4.181   4.587   0.529
68010W        W34551  36.059   9.903   3.332
68011W        W34552  43.933  19.099  12.306
68012W        W34553  39.404  23.267   4.501
68013W        W34554  26.208  33.765  14.690
68014W        W34555  20.061   7.291  11.574
68015W        W34556  44.976  24.377  14.892
68016W        W34557  13.387  14.090  11.123
68017W        W34558  37.361  30.468  12.403
68018W        W34559  11.653   5.384   0.219
68019W        W34560  42.147  13.918   2.715
68020W        W34561  18.779  27.719  12.661
68021W        W34562  37.855  22.711   3.427
68022W        W34563  14.743   7.707   4.336
68023W        W34564  35.375  17.917  12.274
68024W        W34565  29.953  36.584   0.679
68025W        W34566  39.353  42.870  11.148
68026W        W34567  39.310  42.459  11.976
68027W        W34568  28.205  28.100  12.401
68028W        W34569  24.137  36.291  13.983
68029W        W34570  16.105  16.207   0.943
68030W        W34571  35.797   0.815  11.550
68031W        W34572  26.545   9.224   0.793
68032W        W34573  37.832  34.506   4.637
68033W        W34574   9.170  35.719   2.398
68034W        W34575  12.378  29.080  13.037
68035W        W34576  31.619  41.765  13.348
68036W        W34577  36.964  19.492   4.217
68037W        W34578  28.747   1.735   2.471
68038W        W34579  27.048  16.829  14.263
68039W        W34580  34.530  32.015   4.144
68040W        W34581  24.034  27.395  10.770
68041W        W34582  38.339  22.052   0.375
68042W        W34583  35.361   4.380   4.288
68043W        W34584   2.372  29.401   2.640
68044W        W34585  15.983   1.315  10.945
68045W        W34586  20.682  22.193   4.771
68046W        W34587  31.965  16.112  12.452
68047W        W34588  21.044  28.082   1.985
68048W        W34589  42.419  42.420  14.764
68049W        W34590  33.521   6.226   4.103
68050W        W34591  31.952  23.373   2.199
68051W        W34592  20.036   4.870   4.594
68052W        W34593  10.043  35.816   1.467
68053W        W34594  12.429  18.676  12.979
68054W        W34595  17.117  11.005  14.895
68055W        W34596  23.078  30.398  13.497
68056W        W34597  29.421   7.707   0.475
68057W        W34598   8.758  43.293  13.550
68058W        W34599  42.525  35.039   1.437
68059W        W34600  39.339   3.645   2.748
68060W        W34601  25.201  30.978  12.376
68061W        W34602  17.716  24.886   2.666
68062W        W34603  24.671  15.244   1.459
68063W        W34604  21.969   4.502   2.762
68064W        W34605   5.673  16.761   0.237
68065W        W34606  34.894  36.512  10.715
68066W        W34607  17.223  44.330   2.629
68067W        W34608  10.139  17.820  10.580
68068W        W34609  43.856  18.796   0.830
68069W        W34610  44.924  36.389  13.481
68070W        W34611  13.702   6.482  11.459
68071W        W34612  34.577   2.332  11.690
68072W        W34613  17.245   9.739   2.966
68073W        W34614  21.407  12.423  14.296
68074W        W34615  30.543  24.665  11.019
68075W        W34616  42.523  44.742  12.044
68076W        W34617   0.302   4.324  14.664
68077W        W34618   0.507  36.669   2.302
68078W        W34619   6.054   6.394  12.255
68079W        W34620   1.271  26.302  13.546
68080W        W34621  19.229  29.962  13.214
68081W        W34622  16.072  37.106   3.328
68082W        W34623   2.090  31.077  11.928
68083W        W34624  14.619  39.376   1.846
68084W        W34625  38.308  11.705  10.653
68085W        W34626  15.564  13.728  13.501
68086W        W34627  30.339  14.278   0.458
68087W        W34628  17.620   8.727   1.755
68088W        W34629  20.043  28.291   3.997
68089W        W34630  42.354  27.409  13.237
68090W        W34631   5.187  27.468  12.658
68091W        W34632  32.419  23.808   4.450
68092W        W34633  42.039   7.407   2.278
68093W        W34634  12.277  16.620   4.559
68094W        W34635  42.780   5.518  14.085
68095W        W34636  30.890   7.159  10.560
68096W        W34637  31.013   9.403  13.053
68097W        W34638   8.663   7.211  10.690
68098W        W34639  34.262  29.716   1.201
68099W        W34640   8.325  38.365   1.756
68100W        W34641  22.819  43.304  14.816
68101W        W34642  40.077   1.678   3.595
68102W        W34643  35.336  38.103   0.132
68103W        W34644  12.483  31.921   4.140
68104W        W34645  28.646  31.539  10.657
68105W        W34646  36.937   7.798   3.606
68106W        W34647  41.226  19.971   3.672
68107W        W34648   4.057   3.728  12.871
68108W        W34649  40.487  25.553  12.950
68109W        W34650  15.660  23.021   3.286
68110W        W34651   2.596  33.023  11.017
68111W        W34652  21.440  43.486   1.680
68112W        W34653  32.615  30.716   0.289
68113W        W34654  25.600  39.409  10.834
68114W        W34655  22.651  14.593  10.847
68115W        W34656  31.676  44.940  11.021
68116W        W34657  23.608  21.703   1.083
68117W        W34658  44.659   9.595  14.312
68118W        W34659   8.531  16.261   3.792
68119W        W34660  12.736  36.411  10.728
68120W        W34661  17.767  39.341   1.400
68121W        W34662  42.520   3.490   0.106
68122W        W34663   6.297   9.262   2.610
68123W        W34664   6.756  42.265  14.198
68124W        W34665  34.359  36.621   1.198
68125W        W34666   5.590   3.543  10.401
68126W        W34667  26.148  14.405   4.798
68127W        W34668   6.370   1.901   4.331
68128W        W34669  26.699  33.458   0.493
68129W        W34670  23.687  41.161   3.783
68130W        W34671  20.968  40.311  12.093
68131W        W34672  39.711  20.998  12.416
68132W        W34673  36.812  41.149   4.061
68133W        W34674  12.805  44.404   2.645
68134W        W34675   2.698  13.666  13.529
68135W        W34676  16.920  11.939   0.381
68136W        W34677  30.140  34.665  11.167
68137W        W34678  30.180  31.971  12.542
68138W        W34679  40.757  12.696  14.921
68139W        W34680  36.216  36.344   3.725
68140W        W34681   0.985  34.184  14.944
68141W        W34682  36.846  17.267   1.458
68142W        W34683  15.364  39.410  11.896
68143W        W34684  27.642  23.744   4.215
68144W        W34685  27.056  31.674  11.583
68145W        W34686  43.988  10.345  12.377
68146W        W34687   8.324  27.921  12.913
68147W        W34688  30.735   8.655  12.078
68148W        W34689  15.367  16.308  12.915
68149W        W34690  13.613   7.818  13.497
68150W        W34691   0.863  33.968  14.463
68151W        W34692  17.287  28.677  14.976
68152W        W34693   9.883   7.762   2.740
68153W        W34694   1.409  30.594   3.208
68154W        W34695  12.291   3.191   1.747
68155W        W34696  30.753   4.234   2.389
68156W        W34697  25.517  19.077  13.223
68157W        W34698   3.416  42.424  12.479
68158W        W34699   0.767  24.904   4.474
68159W        W34700  10.647  40.794  10.730
68160W        W34701  40.921   8.359   0.839
68161W        W34702  31.643   0.854   1.038
68162W        W34703  10.788  33.917  14.340
68163W        W34704  14.286  13.628   0.384
68164W        W34705  11.784  17.002  10.407
68165W        W34706  16.593  33.138  11.096
68166W        W34707   7.416  36.878  14.603
68167W        W34708  30.003   4.817  10.699
68168W        W34709   6.272  25.507   0.217
68169W        W34710  43.609  43.235  12.785
68170W        W34711  27.544  40.071  13.112
68171W        W34712  10.918  24.608   2.748
68172W        W34713  34.483  16.498   1.998
68173W        W34714  43.346  25.185  10.255
68174W        W34715   0.044  23.599  13.103
68175W        W34716  10.147  28.042   3.311
68176W        W34717   4.161   3.571   0.053
68177W        W34718  21.769  44.988  11.185
68178W        W34719  28.294   8.848   3.664
68179W        W34720  39.608  29.262   4.231
68180W        W34721  33.856  23.951  11.594
68181W        W34722  38.801  15.889   0.857
68182W        W34723  11.573   2.292   1.418
68183W        W34724  22.295  21.653   4.947
68184W        W34725  16.128   6.407  11.637
68185W        W34726   7.092   0.706   0.205
68186W        W34727   6.453  43.912  13.356
68187W        W34728   4.075  31.574  12.127
68188W        W34729  39.002  41.626   1.927
68189W        W34730  26.099  40.337   4.065
68190W        W34731  12.112  18.142   4.797
68191W        W34732  37.316   7.791   0.238
68192W        W34733  17.592   6.408   4.178
68193W        W34734   7.203   5.354   4.104
68194W        W34735   1.410  35.351   0.578
68195W        W34736  28.901  31.200  11.618
68196W        W34737  29.011  24.726  11.124
68197W        W34738  34.186  39.619   3.142
68198W        W34739  44.800  39.306  10.406
68199W        W34740   9.607  21.352  13.971
68200W        W34741  32.950  29.867   3.215
68201W        W34742  32.430  31.204   2.205
68202W        W34743  12.690  40.716   1.740
68203W        W34744   0.015  29.426   1.756
68204W        W34745  13.143  22.254  14.033
68205W        W34746  11.540  17.566   1.918
68206W        W34747   4.702   3.859  14.523
68207W        W34748  10.217  10.771   0.711
68208W        W34749   1.178  36.902   1.135
68209W        W34750  16.349   8.863   3.182
68210W        W34751  37.595   0.014  13.761
68211W        W34752  35.857  19.773   1.025
68212W        W34753  14.288  25.502  14.167
68213W        W34754  34.069  34.980  14.969
68214W        W34755   7.198   1.564  13.682
68215W        W34756  41.861  14.770  12.618
68216W        W34757  35.921   4.207  14.342
68217W        W34758  21.092  24.486  12.521
68218W        W34759  16.242  32.482  13.540
68219W        W34760  28.174  37.315   3.598
68220W        W34761  13.549   1.831   4.613
68221W        W34762   2.361   5.695  13.021
68222W        W34763  39.799  21.694   1.064
68223W        W34764   1.218   0.978   1.835
68224W        W34765  35.897  34.473  13.959
68225W        W34766  37.804   9.894  10.870
68226W        W34767  40.911  36.870  13.595
68227W        W34768  13.015  13.841   0.979
68228W        W34769  42.025   8.649   3.412
68229W        W34770  27.901  38.445  14.423
68230W        W34771   9.734  19.771   1.295
68231W        W34772  39.040   6.129  10.765
68232W        W34773  31.928   8.287   2.764
68233W        W34774  41.713  32.050   0.335
68234W        W34775  26.445  40.477   4.942
68235W        W34776  38.533  14.991  12.111
68236W        W34777  41.771  43.261  13.904
68237W        W34778  21.458  32.474  11.597
68238W        W34779  20.567   0.761  12.628
68239W        W34780  37.315   7.878  11.182
68240W        W34781  34.111  42.090  12.266
68241W        W34782  30.560  25.468   1.288
68242W        W34783   6.108  13.663   4.739
68243W        W34784  14.151  27.513   3.180
68244W        W34785   6.299  16.571  14.481
68245W        W34786   4.760  37.130  12.957
68246W        W34787  10.542  30.079  14.056
68247W        W34788   9.752   7.176   2.043
68248W        W34789  33.064  44.409   1.168
68249W        W34790  10.423  36.976   3.626
68250W        W34791  26.234   7.184   0.268
68251W        W34792  20.726  21.145  10.758
68252W        W34793  27.720   4.195   0.650
68253W        W34794  11.090  13.674  12.082
68254W        W34795  14.229  26.577   4.088
68255W        W34796  34.099   7.164   3.207
68256W        W34797  20.024  21.036   0.415
68257W        W34798   9.837  25.307  14.267
68258W        W34799  41.288  25.066  11.282
68259W        W34800   9.734  37.604  12.208
68260W        W34801  15.840  22.055  13.422
68261W        W34802  40.590  20.301   3.190
68262W        W34803  22.724   1.466   0.349
68263W        W34804  16.224  16.077   4.081
68264W        W34805  13.432   7.433  11.730
68265W        W34806  11.204  41.986  14.043
68266W        W34807   1.123  42.419   1.966
68267W        W34808   7.097   6.313   3.506
68268W        W34809  24.414  24.032   0.424
68269W        W34810   9.217  34.235   2.238
68270W        W34811  11.618  39.268   2.826
68271W        W34812  38.990  11.244  10.449
68272W        W34813  16.074   9.895   3.943
68273W        W34814  19.047   6.288   2.645
68274W        W34815  24.769   1.255  13.453
68275W        W34816   3.009  29.818   4.186
68276W        W34817  15.559  21.634   0.518
68277W        W34818  19.559   1.274   3.232
68278W        W34819  24.443  40.376   4.134
68279W        W34820  20.469  22.473  11.987
68280W        W34821  27.198  22.712  13.919
68281W        W34822  39.534  35.915  12.991
68282W        W34823  31.387  26.786   0.750
68283W        W34824   6.338  25.621   1.597
68284W        W34825  33.180  42.698  13.066
68285W        W34826   6.547  23.739   2.278
68286W        W34827  23.077  37.670  13.929
68287W        W34828  11.720  41.982   1.822
68288W        W34829  15.842  15.291   2.260
68289W        W34830  19.509   1.265   4.118
68290W        W34831  33.435  17.584   2.794
68291W        W34832  41.836  16.030   2.948
68292W        W34833  28.234  36.276  13.897
68293W        W34834   2.387  18.813   4.552
68294W        W34835  38.012  13.291   0.995
68295W        W34836   2.924  33.414   3.768
68296W        W34837  27.555  36.510  14.489
68297W        W34838  40.913  13.303   2.151
68298W        W34839  41.713  40.432  12.036
68299W        W34840  28.554  21.826   4.778
68300W        W34841  24.072   6.786   3.862
68301W        W34842  11.904  17.677  11.183
68302W        W34843   7.846  43.027   1.884
68303W        W34844  41.812  43.389  11.036
68304W        W34845  30.807  30.051  11.530
68305W        W34846   2.280  20.761   4.682
68306W        W34847  29.305  19.946  11.669
68307W        W34848  35.173   0.170   4.904
68308W        W34849  36.914  36.187  12.463
68309W        W34850   3.964   6.396   3.709
68310W        W34851  10.767  27.662   3.322
68311W        W34852  10.624  38.647  14.881
68312W        W34853  28.899  21.574   3.701
68313W        W34854   6.480  25.254   2.468
68314W        W34855  30.957  27.585  13.793
68315W        W34856   7.971  39.456  12.122
68316W        W34857  38.927  38.065  14.958
68317W        W34858   3.620  17.262  10.454
68318W        W34859  12.247  10.679  11.533
68319W        W34860   9.270  35.466   3.876
68320W        W34861  42.802   7.777  13.296
68321W        W34862  12.673  15.177   0.820
68322W        W34863  32.635   4.277  13.394
68323W        W34864   2.466  44.021   1.216
68324W        W34865  22.450  43.015  10.189
68325W        W34866  17.702   8.497  10.508
68326W        W34867  40.816  14.301   0.405
68327W        W34868  35.868  27.199   1.213
68328W        W34869   4.217   2.890   1.694
68329W        W34870  12.839  10.139  10.784
68330W        W34871  31.080  14.645  12.546
68331W        W34872  28.519  44.864  13.072
68332W        W34873  13.586  24.106  12.037
68333W        W34874  19.140  15.080   2.353
68334W        W34875  35.899  33.549   1.642
68335W        W34876  37.978  38.302   4.137
68336W        W34877  36.366  26.953   3.903
68337W        W34878  16.075  37.325  14.371
68338W        W34879  34.749  18.315  12.819
68339W        W34880  44.190  18.278   3.670
68340W        W34881  19.350  23.528   4.149
68341W        W34882  19.549  22.887   3.594
68342W        W34883  31.980   3.974  14.874
68343W        W34884  14.451  12.225  14.267
68344W        W34885   1.907  36.162   2.870
68345W        W34886  13.243  36.438   1.674
68346W        W34887  26.166   3.964   0.415
68347W        W34888  24.687  20.246   0.049
68348W        W34889  41.010   4.355   2.809
68349W        W34890  17.472  25.064  13.108
68350W        W34891   4.186  31.464   1.944
68351W        W34892  13.688  15.805  12.854
68352W        W34893   5.729  32.052   2.198
68353W        W34894  19.159  14.363  11.981
68354W        W34895   0.369  21.087   2.695
68355W        W34896   2.874  18.487  13.491
68356W        W34897  41.788  12.279  11.894
68357W        W34898   3.313   6.655   4.278
68358W        W34899  35.579  16.186  13.119
68359W        W34900   3.304  43.254   4.945
68360W        W34901  23.517   8.126  10.666
68361W        W34902  20.187  42.550  14.809
68362W        W34903  25.985  28.686   3.579
68363W        W34904  38.816  42.994  10.294
68364W        W34905  32.654  13.754  13.541
68365W        W34906  38.844   6.082   4.600
68366W        W34907  19.991  28.266   3.413
68367W        W34908  19.293  41.869  12.996
68368W        W34909   4.338  31.100  10.013
68369W        W34910  19.621  41.809  10.664
68370W        W34911  44.976   0.171   1.430
68371W        W34912  43.777  23.126   0.316
68372W        W34913  21.261  40.573  13.427
68373W        W34914  10.078  26.012   0.546
68374W        W34915  14.363  26.951  11.075
68375W        W34916  26.504  15.326   3.226
68376W        W34917  29.171  20.544   4.580
68377W        W34918  11.680  33.176   1.744
68378W        W34919  30.409   8.645   0.203
68379W        W34920  11.404  43.330  14.775
68380W        W34921   7.269  22.207   0.401
68381W        W34922  35.890  33.920   2.764
68382W        W34923  12.814   2.126  12.915
68383W        W34924   6.179  10.163  12.151
68384W        W34925  38.994  19.210  14.930
68385W        W34926   1.814  19.668  10.842
68386W        W34927   6.898  15.128  13.559
68387W        W34928   3.865   2.391  14.773
68388W        W34929  14.930  40.918   3.734
68389W        W34930  29.103  42.498  13.669
68390W        W34931  11.242  30.562   4.381
68391W        W34932   8.706  14.963   4.155
68392W        W34933  21.194   1.856  14.922
68393W        W34934  16.347  31.095  11.633
68394W        W34935  15.346  38.258   3.586
68395W        W34936  42.878  18.544   2.863
68396W        W34937  37.518  18.948  12.939
68397W        W34938  18.548  39.806  10.730
68398W        W34939  28.844  43.663  13.006
68399W        W34940  24.636  17.240  13.273
68400W        W34941  21.689   5.870  13.099
68401W        W34942   8.129   0.436  12.846
68402W        W34943   8.879  27.587  11.870
68403W        W34944  44.653  39.962   3.271
68404W        W34945  40.070  43.448   3.585
68405W        W34946  14.052   6.365   3.238
68406W        W34947  24.061  22.698  10.152
68407W        W34948  32.574  23.289   0.004
68408W        W34949  32.257  11.621   4.511
68409W        W34950  19.082  28.065  14.420
68410W        W34951  27.716  42.960  10.977
68411W        W34952  28.539  35.608   1.445
68412W        W34953  13.777   9.088   1.453
68413W        W34954  33.734  22.679  10.655
68414W        W34955  20.556  33.503  12.444
68415W        W34956   3.147  14.376  14.445
68416W        W34957   9.911  15.087   3.425
68417W        W34958  22.848  38.720  12.442
68418W        W34959  16.290  20.174  11.701
68419W        W34960  30.992  27.694   2.346
68420W        W34961  32.192  24.488   3.662
68421W        W34962  24.540   1.449   1.669
68422W        W34963   1.474   4.359   2.406
68423W        W34964   3.300  42.829  13.760
68424W        W34965  17.281   4.990  11.131
68425W        W34966  28.952  15.207  11.707
68426W        W34967  29.893   8.374   5.001
68427W        W34968   9.312   4.290  13.021
68428W        W34969   0.497  23.016  10.552
68429W        W34970  16.283   5.271  11.435
68430W        W34971  38.535  13.899   0.313
68431W        W34972  12.894  37.095  14.875
68432W        W34973  34.409   7.960  12.927
68433W        W34974  30.233  33.541   2.688
68434W        W34975  20.127  20.667   3.736
68435W        W34976   9.609  40.072   3.747
68436W        W34977  32.332  37.207   2.641
68437W        W34978  40.410  38.785   3.647
68438W        W34979  24.579   6.370  13.135
68439W        W34980  15.167  42.443   4.622
68440W        W34981  14.025   9.476   1.683
68441W        W34982   6.997  37.577   1.368
68442W        W34983   6.845   3.237   9.844
68443W        W34984   5.394  22.732   2.023
68444W        W34985  21.869  18.043   1.288
68445W        W34986  11.961   4.750  11.512
68446W        W34987  44.412  26.232   2.111
68447W        W34988  23.544  18.354  14.553
68448W        W34989  32.792  10.728   1.944
68449W        W34990  11.218   6.352   4.047
68450W        W34991  12.754   5.327   2.373
68451W        W34992  22.040   4.235  11.068
68452W        W34993  18.642  41.909   3.256
68453W        W34994  14.834   2.876  10.783
68454W        W34995   1.311  28.147  12.550
68455W        W34996   0.676   8.632   0.982
68456W        W34997  14.186  12.050   0.950
68457W        W34998   8.428   9.675   4.244
68458W        W34999  27.030  37.947   4.436
68459W        W35000   5.914  10.054   1.007
68460W        W35001  16.210   7.482   0.884
68461W        W35002  33.849  40.916   0.806
68462W        W35003  16.595  41.173   1.884
68463W        W35004  22.507  17.029  12.988
68464W        W35005  18.501  34.852   1.813
68465W        W35006  44.414  32.923  12.974
68466W        W35007  26.919  36.633   4.608
68467W        W35008  26.460  10.232   5.096
68468W        W35009   0.531  18.154  14.753
68469W        W35010  33.867  35.905   4.596
68470W        W35011  24.188   6.099   0.406
68471W        W35012  34.233  13.901   4.220
68472W        W35013  30.887   9.232   2.992
68473W        W35014   4.169  24.781  13.426
68474W        W35015   5.720  15.869   4.670
68475W        W35016  38.511  24.589  14.908
68476W        W35017  30.598   1.356   4.268
68477W        W35018  43.276  38.910  14.032
68478W        W35019  33.790  16.829  12.592
68479W        W35020  40.944  16.287   0.328
68480W        W35021   1.818  33.561   0.400
68481W        W35022   9.796  13.733  11.757
68482W        W35023  20.326  32.541   4.254
68483W        W35024  33.395  26.738  10.594
68484W        W35025  41.068  26.781   4.456
68485W        W35026  28.066  44.104   1.440
68486W        W35027  18.238   6.833   1.461
68487W        W35028   9.848   6.157   1.877
68488W        W35029  34.991  27.828   2.385
68489W        W35030   8.212  42.419  11.620
68490W        W35031  14.913  40.293   0.839
68491W        W35032  37.520  21.584  13.243
68492W        W35033  17.048  33.782  11.323
68493W        W35034   0.350  15.661  10.185
68494W        W35035  38.000  18.752   3.281
68495W        W35036  33.346   8.720  13.630
68496W        W35037  29.921   8.258   0.931
68497W        W35038  13.580   5.293   4.569
68498W        W35039  35.536  42.965  13.489
68499W        W35040  44.779   3.811  14.892
68500W        W35041   6.658  30.287   3.312
68501W        W35042  21.341  27.882  12.473
68502W        W35043   6.379   6.365   2.855
68503W        W35044   2.755  39.511  13.488
68504W        W35045   2.985  36.124  12.994
68505W        W35046  24.572  16.789   4.633
68506W        W35047  31.866   1.732  14.013
68507W        W35048   1.417   1.897  12.858
68508W        W35049  30.739   3.300   5.072
68509W        W35050  22.561  41.375  10.621
68510W        W35051   9.871  20.545  11.116
68511W        W35052  16.105  15.427  12.358
68512W        W35053  32.052  15.148   0.852
68513W        W35054  17.855  21.273  13.491
68514W        W35055  23.528  16.599  11.990
68515W        W35056  34.891   8.634  14.035
68516W        W35057   9.341  44.247  14.229
68517W        W35058   6.376   2.929  10.666
68518W        W35059  10.654  43.850  11.154
68519W        W35060  23.743  13.954  11.285
68520W        W35061  13.247  43.315  10.938
68521W        W35062  10.368   9.749   1.181
68522W        W35063   7.693  34.312   1.086
68523W        W35064  17.592  15.322  14.480
68524W        W35065  17.293  32.894   3.112
68525W        W35066  12.303  14.837  11.226
68526W        W35067  14.615  17.340   3.642
68527W        W35068  18.769  24.089   4.427
68528W        W35069  44.013   5.134   5.018
68529W        W35070  44.917   5.877  13.306
68530W        W35071  29.650  12.166   2.766
68531W        W35072  31.156  29.595   2.537
68532W        W35073  13.873  37.946  12.449
68533W        W35074  21.066   0.246   3.233
68534W        W35075  34.599  13.766   1.509
68535W        W35076  39.049  35.623   1.364
68536W        W35077   7.454  44.083  12.209
68537W        W35078  18.676  32.106  10.123
68538W        W35079  21.237  30.372  10.670
68539W        W35080  40.769   9.908   4.171
68540W        W35081  21.928  13.635  10.032
68541W        W35082  23.514  29.007   2.645
68542W        W35083   4.324  20.901   1.174
68543W        W35084  14.124  17.757   1.895
68544W        W35085   4.216  40.648  14.971
68545W        W35086   3.640  42.519   2.990
68546W        W35087  41.848  28.916  13.477
68547W        W35088  28.866  34.383   2.354
68548W        W35089   4.552   3.373  14.668
68549W        W35090  25.021   0.317   3.714
68550W        W35091  30.959   1.588   5.445
68551W        W35092   9.141  37.465   2.354
68552W        W35093  10.752  24.084   1.095
68553W        W35094   5.219  38.507   3.097
68554W        W35095   7.875  43.855  13.103
68555W        W35096  20.869  40.100  11.654
68556W        W35097   0.836   4.887   2.725
68557W        W35098  39.970  16.346   5.446
68558W        W35099  28.355  25.425   3.298
68559W        W35100  27.545  12.702   3.435
68560W        W35101   7.980  43.790  13.635
68561W        W35102   1.114   4.644  11.470
68562W        W35103  10.882  14.412  14.525
68563W        W35104  29.721   9.770  10.392
68564W        W35105  18.317  38.525   2.378
68565W        W35106  25.262  43.685   0.757
68566W        W35107  25.649   7.245  10.528
68567W        W35108  10.759  44.766   3.288
68568W        W35109  13.530  40.382   1.942
68569W        W35110   6.651  36.744   2.818
68570W        W35111  25.786  35.026   1.978
68571W        W35112  29.215   3.206   4.091
68572W        W35113  30.630  11.110  11.975
68573W        W35114  43.330  19.141  11.593
68574W        W35115  34.133  33.938   4.391
68575W        W35116  36.065  26.213  13.679
68576W        W35117   9.316  19.624   0.141
68577W        W35118  28.945  13.373   1.267
68578W        W35119  22.551  31.204   3.165
68579W        W35120  13.427  22.060   3.118
68580W        W35121  18.172  33.359   1.390
68581W        W35122   3.447   0.665  10.694
68582W        W35123  15.814  29.542   3.255
68583W        W35124  20.138  10.865  14.472
68584W        W35125   2.767  14.010  12.596
68585W        W35126  36.311  11.654   1.675
68586W        W35127   7.765  12.870   4.274
68587W        W35128  38.890  37.556  10.177
68588W        W35129  13.592  42.483   2.899
68589W        W35130  16.685  17.004   4.034
68590W        W35131  44.816  23.637  11.493
68591W        W35132  44.267  39.781   2.915
68592W        W35133  10.915  40.160  13.292
68593W        W35134  19.796  44.757  14.422
68594W        W35135  19.690   0.281  14.522
68595W        W35136  38.572   2.958   1.680
68596W        W35137  27.177  15.022   1.238
68597W        W35138  17.781  26.075  14.971
68598W        W35139  29.579  38.204  14.937
68599W        W35140  39.000  11.634  11.742
68600W        W35141   7.777  27.386  12.361
68601W        W35142  20.921  27.958  13.937
68602W        W35143  16.906   9.314   2.924
68603W        W35144   5.242  12.525  12.116
68604W        W35145  11.369  39.447  13.483
68605W        W35146  13.170  42.766  12.603
68606W        W35147  26.441  18.494  12.405
68607W        W35148   8.136  32.503  13.460
68608W        W35149  28.755  16.880  11.809
68609W        W35150  26.579  28.782   0.160
68610W        W35151  30.186   8.432   3.245
68611W        W35152  25.607  38.881  11.588
68612W        W35153   3.307  15.660  13.191
68613W        W35154  11.620  39.284  10.407
68614W        W35155   8.906  33.625  14.532
68615W        W35156   1.173  10.204  10.429
68616W        W35157   0.894   5.245   0.990
68617W        W35158  43.377  24.831   1.210
68618W        W35159  17.754  36.384  12.653
68619W        W35160   5.945  29.673   1.819
68620W        W35161  22.965  43.739   2.262
68621W        W35162  33.474   5.608  14.809
68622W        W35163   3.975  27.676   0.438
68623W        W35164   0.615   1.660   4.662
68624W        W35165  41.308   5.770  14.763
68625W        W35166   5.922   5.396  12.967
68626W        W35167  11.425  14.790  10.742
68627W        W35168  29.506  17.596  13.784
68628W        W35169  44.278  13.953   3.348
68629W        W35170   2.560   6.206   5.044
68630W        W35171  44.827  42.926   0.184
68631W        W35172  19.922  32.958  14.821
68632W        W35173  18.103   7.018   4.894
68633W        W35174  38.884   0.355  12.159
68634W        W35175  38.487   8.830   0.914
68635W        W35176  32.991  33.994  11.419
68636W        W35177   4.700  24.131  12.657
68637W        W35178  36.571   4.248  13.020
68638W        W35179  19.811  11.552  11.933
68639W        W35180  23.137   2.642  10.135
68640W        W35181  25.707  22.538   0.044
68641W        W35182  32.578   0.675   1.420
68642W        W35183   5.358  12.840   3.344
68643W        W35184  18.793  23.026   2.509
68644W        W35185  21.042  38.992  13.546
68645W        W35186  22.268   3.085   4.828
68646W        W35187  10.814  34.566   0.057
68647W        W35188   1.114  29.566   3.177
68648W        W35189  25.665   5.284  12.780
68649W        W35190  29.954  32.593   3.431
68650W        W35191  40.291   8.217   2.129
68651W        W35192  24.406   0.384  12.563
68652W        W35193  16.531   1.960   0.154
68653W        W35194  31.200  39.255   0.590
68654W        W35195   5.803  29.752   4.353
68655W        W35196  23.649  12.234  13.211
68656W        W35197  35.786  35.852  13.839
68657W        W35198  44.426  23.565  13.950
68658W        W35199  25.938  41.437   3.295
68659W        W35200  23.445  28.301  12.722
68660W        W35201   7.927   6.107  12.011
68661W        W35202   2.269  18.139  11.095
68662W        W35203  14.990  32.629   1.201
68663W        W35204  25.022  22.980   2.753
68664W        W35205  26.786  24.572  12.448
68665W        W35206   5.431   5.744   2.225
68666W        W35207  44.713  37.048   0.839
68667W        W35208  30.884  30.139  13.547
68668W        W35209  17.123  14.793   0.259
68669W        W35210  12.991  15.496   4.043
68670W        W35211  38.724  22.085   4.293
68671W        W35212  43.941  21.371   2.657
68672W        W35213  23.986  26.537   2.408
68673W        W35214   7.103   3.789  12.108
68674W        W35215  37.354  34.417   3.311
68675W        W35216   1.986  37.124   2.020
68676W        W35217  28.326   7.390  11.384
68677W        W35218  17.349  21.354  13.528
68678W        W35219  19.193  19.956   2.516
68679W        W35220  42.314  11.057   4.506
68680W        W35221   0.851  17.136  14.080
68681W        W35222  27.247  12.545   2.456
68682W        W35223  32.901   1.602  12.947
68683W        W35224  18.852  25.782   0.697
68684W        W35225   1.392  30.454   9.918
68685W        W35226  17.606  15.706   0.747
68686W        W35227  32.617   3.483  11.717
68687W        W35228  20.518  36.548  14.827
68688W        W35229  31.423  14.779   4.439
68689W        W35230   9.307  35.359   0.637
68690W        W35231  19.537  39.045  13.143
68691W        W35232  44.658  31.622   5.309
68692W        W35233   4.605  43.971  12.258
68693W        W35234  23.361  43.406   4.363
68694W        W35235  44.728  19.650   1.062
68695W        W35236  31.345   6.729  14.007
68696W        W35237  25.331  21.642   1.062
68697W        W35238  27.791   9.898  10.247
68698W        W35239  37.552  28.522   3.730
68699W        W35240  15.576  42.249  10.744
68700W        W35241   5.690  28.585   5.030
68701W        W35242  36.413   4.809  14.198
68702W        W35243  44.941  12.667   1.591
68703W        W35244  31.119  20.826  10.688
68704W        W35245  26.140   0.705   1.746
68705W        W35246  35.110  32.569   1.140
68706W        W35247  28.850  30.986  14.742
68707W        W35248   9.483  26.515  11.697
68708W        W35249  27.982  13.107  10.250
68709W        W35250   7.891   4.650   2.614
68710W        W35251  24.398   6.423  12.118
68711W        W35252  43.844   4.164   2.766
68712W        W35253  31.414  30.445  10.392
68713W        W35254  30.546  32.157  11.052
68714W        W35255  39.650  23.954  12.475
68715W        W35256  20.329  38.879   3.681
68716W        W35257  22.159  15.513  14.451
68717W        W35258  11.700   0.199  14.433
68718W        W35259  30.947   4.646   3.844
68719W        W35260  28.250  16.680  11.858
68720W        W35261  30.731  36.387   2.381
68721W        W35262  33.683  14.697  13.549
68722W        W35263  43.464  20.088   2.670
68723W        W35264   1.324  44.049   0.675
68724W        W35265  11.723  13.988  10.232
68725W        W35266   8.602  40.325  14.350
68726W        W35267  35.034  16.150   4.069
68727W        W35268   2.687   3.343   5.331
68728W        W35269  35.301   7.037   2.623
68729W        W35270  16.876  40.054  11.965
68730W        W35271  16.041   4.475   1.082
68731W        W35272   6.763  25.604   1.885
68732W        W35273  26.609  15.809   5.060
68733W        W35274  27.393  31.086   2.567
68734W        W35275  14.841  15.580   2.703
68735W        W35276  40.727  39.944  12.568
68736W        W35277  17.629   9.891   0.810
68737W        W35278  20.518  16.710  12.838
68738W        W35279  34.385  43.753   2.841
68739W        W35280  29.399  42.562   3.268
68740W        W35281  39.036  14.386  13.978
68741W        W35282  39.450   8.926   2.306
68742W        W35283  34.245  41.096  10.609
68743W        W35284  22.741  35.323   3.971
68744W        W35285  26.145  32.881  10.670
68745W        W35286  17.745  44.935   2.162
68746W        W35287  39.008  34.044   1.413
68747W        W35288  29.990  17.003   3.473
68748W        W35289  23.479  31.648  14.341
68749W        W35290  23.230  13.302  14.879
68750W        W35291   8.885  36.847   3.411
68751W        W35292  25.195   4.400   0.141
68752W        W35293  33.908  37.683  11.317
68753W        W35294  36.206   3.355  10.615
68754W        W35295  33.063  30.137  14.949
68755W        W35296  43.897   0.865   0.802
68756W        W35297   0.853  41.842   4.841
68757W        W35298  18.117  39.853  14.991
68758W        W35299   2.797  41.070   3.241
68759W        W35300  24.035  39.558  13.361
68760W        W35301  36.790  10.797  13.059
68761W        W35302   7.874  37.412  11.589
68762W        W35303  25.102  38.536  11.638
68763W        W35304   3.219  37.053  12.463
68764W        W35305  22.607  30.508   0.277
68765W        W35306  18.762  33.873   2.058
68766W        W35307  12.623   6.727  13.125
68767W        W35308   0.172   4.399   0.804
68768W        W35309  38.479  16.957   0.003
68769W        W35310  27.547  36.458  13.367
68770W        W35311  17.578  20.782   4.537
68771W        W35312  41.910  18.798  11.624
68772W        W35313  39.017  25.031  14.035
68773W        W35314   4.047  41.346  10.732
68774W        W35315  28.965  10.824  12.929
68775W        W35316  31.153   6.312  11.065
68776W        W35317  25.261  33.253   0.246
68777W        W35318  26.088  12.938   2.248
68778W        W35319  24.121  36.920   2.778
68779W        W35320  18.355   7.948   4.438
68780W        W35321  11.200  13.690  13.803
68781W        W35322   1.436  11.829  14.962
68782W        W35323  44.585  26.040   1.128
68783W        W35324  35.534  10.128   4.111
68784W        W35325   8.892  31.515  14.025
68785W        W35326   1.883  15.655  10.358
68786W        W35327  30.730  26.154   4.340
68787W        W35328   4.022  31.206   4.182
68788W        W35329  28.369  34.518   2.378
68789W        W35330  15.087   0.802  11.878
68790W        W35331  40.754  28.481   1.785
68791W        W35332  44.771   3.819   2.209
68792W        W35333   0.698  41.665   4.052
68793W        W35334  22.414  14.035   5.475
68794W        W35335  22.248  13.320  11.663
68795W        W35336  28.193  30.614   0.461
68796W        W35337  40.237  19.427  11.612
68797W        W35338  14.767  35.641  12.829
68798W        W35339  44.672   8.343   1.966
68799W        W35340   1.719  33.669  14.885
68800W        W35341   7.974   6.176   3.594
68801W        W35342  16.538  22.704  12.444
68802W        W35343  43.935  12.057   3.634
68803W        W35344   8.705   5.155  12.498
68804W        W35345  10.639  42.902  10.534
68805W        W35346  42.749  43.860   3.425
68806W        W35347  43.042  35.423  14.676
68807W        W35348  36.853   3.455   4.492
68808W        W35349  31.365  18.018  12.916
68809W        W35350  29.223   4.290  12.255
68810W        W35351   7.310   0.897   1.620
68811W        W35352  21.988  31.997   0.819
68812W        W35353  35.927  40.070  12.854
68813W        W35354  44.621  32.940   2.380
68814W        W35355  42.463  29.113  14.865
68815W        W35356  44.139  28.397   2.755
68816W        W35357  12.196  42.472  10.815
68817W        W35358  21.920  16.295   3.387
68818W        W35359  30.029  11.642  10.531
68819W        W35360  18.103   6.872  12.816
68820W        W35361  28.551  33.904   3.093
68821W        W35362  36.827  19.617   1.456
68822W        W35363  28.597  22.029   3.764
68823W        W35364  28.164  34.443  14.107
68824W        W35365  34.389  29.427  12.909
68825W        W35366  12.937   7.195   0.882
68826W        W35367  11.058  19.267  12.302
68827W        W35368   9.810  25.078  14.751
68828W        W35369  13.813  32.476   0.891
68829W        W35370  37.869  35.001   4.812
68830W        W35371  30.070   2.215   4.634
68831W        W35372  37.800  15.956   3.198
68832W        W35373  31.997  21.036  12.946
68833W        W35374  21.569  12.120  12.482
68834W        W35375  24.644  22.053   4.629
68835W        W35376  28.223  18.505   1.697
68836W        W35377   9.706  29.781   0.372
68837W        W35378   1.819  13.667  12.420
68838W        W35379  24.200  39.435   3.230
68839W        W35380   2.332  41.474   2.233
68840W        W35381  33.089  22.100   1.894
68841W        W35382   4.140  28.600   3.909
68842W        W35383  32.837  42.367  12.512
68843W        W35384  14.849   5.453  13.431
68844W        W35385   5.110  14.787   3.713
68845W        W35386  34.914  29.838   3.922
68846W        W35387  33.105  13.842  12.584
68847W        W35388  38.610  22.974   1.874
68848W        W35389  40.196  37.953   1.908
68849W        W35390  16.958  22.249  12.980
68850W        W35391  20.213  35.858   0.372
68851W        W35392   6.191  16.781  14.018
68852W        W35393  37.318  34.587   2.733
68853W        W35394  33.971  25.491  10.418
68854W        W35395  21.626  38.029  14.009
68855W        W35396  15.849   3.429   3.773
68856W        W35397   8.522  21.975  11.113
68857W        W35398  40.719  29.170   4.890
68858W        W35399   4.990  11.028   3.762
68859W        W35400  13.267  28.015   0.292
68860W        W35401  21.621  40.621   1.369
68861W        W35402  42.339  21.131  13.875
68862W        W35403  19.356  10.839  11.146
68863W        W35404  30.740  33.010  10.607
68864W        W35405  41.810  25.620   3.216
68865W        W35406   7.762  39.005   3.280
68866W        W35407  25.469  40.714  12.068
68867W        W35408  38.620  12.770  11.519
68868W        W35409  14.810  16.525  11.693
68869W        W35410  43.026  34.667   2.241
68870W        W35411  18.295   9.311  13.291
68871W        W35412  12.762  42.022  12.986
68872W        W35413  38.846   0.900  10.889
68873W        W35414   7.849   5.153  11.955
68874W        W35415  38.369  14.210  13.976
68875W        W35416  42.241  31.483  14.836
68876W        W35417  20.984  42.835  11.685
68877W        W35418  20.117   2.792   1.305
68878W        W35419   5.044  40.539  10.075
68879W        W35420  31.473  23.588   3.718
68880W        W35421  37.553  12.624   1.286
68881W        W35422  42.228  44.474   1.503
68882W        W35423  23.700  39.389   2.295
68883W        W35424  10.335  10.779   1.213
68884W        W35425  16.272   3.142   2.985
68885W        W35426  38.315   5.408   3.805
68886W        W35427  33.445  38.335   3.582
68887W        W35428   6.071   7.213   1.220
68888W        W35429  41.425  17.125  11.395
68889W        W35430  17.069   0.718  11.429
68890W        W35431  11.796   0.386   2.811
68891W        W35432  40.562  10.640   0.277
68892W        W35433  21.189  36.921   4.232
68893W        W35434  17.010  18.178   4.412
68894W        W35435  21.275  13.163  13.935
68895W        W35436  31.138  42.419   3.845
68896W        W35437  36.291  19.361  11.981
68897W        W35438  43.402  15.254   3.242
68898W        W35439   1.796  19.680   2.430
68899W        W35440  18.590  16.744   2.421
68900W        W35441  19.725   0.942  10.606
68901W        W35442  25.079  28.155  12.983
68902W        W35443   1.819  18.869   0.840
68903W        W35444  29.900   0.337   2.977
68904W        W35445  12.408   2.737  13.736
68905W        W35446  44.425   6.360  10.774
68906W        W35447  28.681  40.615   0.877
68907W        W35448  11.621  22.220   1.986
68908W        W35449  12.737  39.492  11.089
68909W        W35450  23.355  26.849  12.719
68910W        W35451  41.461   9.360   4.461
68911W        W35452  34.973  30.911   2.959
68912W        W35453  41.084   5.702  13.483
68913W        W35454  24.368  12.849   4.956
68914W        W35455   1.757  19.605   4.620
68915W        W35456  34.156  30.734   2.458
68916W        W35457  21.650  32.606   3.440
68917W        W35458  32.687   9.758  10.534
68918W        W35459  18.978  44.489  11.116
68919W        W35460  25.943  40.882  12.091
68920W        W35461  28.483  28.920   3.499
68921W        W35462   5.826  18.683   2.721
68922W        W35463  39.450   9.384   4.559
68923W        W35464  33.743  41.359   2.242
68924W        W35465  21.375  43.604  12.057
68925W        W35466  18.454  16.324   4.114
68926W        W35467   9.160  15.125  11.560
68927W        W35468   3.965   6.689   5.155
68928W        W35469  32.665   4.938  13.072
68929W        W35470  20.725   4.980  11.945
68930W        W35471   1.771  22.997  14.512
68931W        W35472   5.376   7.762  10.775
68932W        W35473  31.195  12.349  10.905
68933W        W35474  27.487  40.462   1.839
68934W        W35475  23.934  35.401  12.436
68935W        W35476  35.641   9.271   5.001
68936W        W35477  42.461  29.022   1.155
68937W        W35478  20.573  42.634   1.843
68938W        W35479  13.602  33.943  11.105
68939W        W35480   6.793   0.368   3.653
68940W        W35481   9.246  11.709   2.740
68941W        W35482  31.982  30.504   1.290
68942W        W35483  35.038  21.399  10.226
68943W        W35484   2.283  32.068  14.854
68944W        W35485  15.116  43.897  10.924
68945W        W35486  42.309  40.404  14.777
68946W        W35487  29.141  13.609   2.961
68947W        W35488  19.749   0.294  13.638
68948W        W35489  20.572  44.685   4.468
68949W        W35490  15.173   4.854   3.361
68950W        W35491   1.789   1.152   1.099
68951W        W35492  24.259  17.321   3.741
68952W        W35493  14.511   4.915   1.486
68953W        W35494  23.065  33.054  10.645
68954W        W35495  19.633  18.176   1.638
68955W        W35496  40.918  43.045  11.931
68956W        W35497  18.644  11.466   2.225
68957W        W35498   8.212   2.094   2.390
68958W        W35499   9.968  36.560   3.268
68959W        W35500  43.752  11.755  13.035
68960W        W35501  24.063  24.298   3.654
68961W        W35502   0.419   4.477  12.555
68962W        W35503  27.665  15.639   3.716
68963W        W35504  14.696  25.131  12.890
68964W        W35505  36.584   6.184   0.046
68965W        W35506  27.163  18.512   4.693
68966W        W35507  34.550   9.726  12.174
68967W        W35508  19.056  34.397   1.619
68968W        W35509  14.341  28.945   2.790
68969W        W35510  43.861  19.897  11.148
68970W        W35511  24.747  23.823  12.990
68971W        W35512  23.131  33.830  12.012
68972W        W35513  21.513  20.946  14.291
68973W        W35514   4.502  20.150  13.925
68974W        W35515   4.864   0.355  14.498
68975W        W35516  11.680  23.056   4.781
68976W        W35517  31.615  21.470   3.848
68977W        W35518  21.311  30.098   3.684
68978W        W35519  22.979  17.329   1.858
68979W        W35520  40.432   0.022  11.505
68980W        W35521   9.268  20.528  14.075
68981W        W35522  33.902   1.745  11.685
68982W        W35523  16.165  23.891  12.556
68983W        W35524  18.098  27.155   0.943
68984W        W35525  11.531   1.853   2.059
68985W        W35526   3.713  22.973   3.235
68986W        W35527  23.484  25.148  12.499
68987W        W35528  40.493  25.983   4.680
68988W        W35529  25.065  30.522  13.931
68989W        W35530  35.154  35.043  13.104
68990W        W35531   3.945   3.900   5.362
68991W        W35532  36.781   1.807   2.305
68992W        W35533  18.775  42.755   3.606
68993W        W35534  20.611  12.218   4.023
68994W        W35535  29.660   9.658   4.651
68995W        W35536  23.188  31.174   2.169
68996W        W35537   9.768  34.910   4.441
68997W        W35538  36.394   8.780   1.354
68998W        W35539  12.335   9.338  11.999
68999W        W35540  23.242   1.569  11.014
69000W        W35541  11.382  13.825  10.622
69001W        W35542   4.265  21.609   4.321
69002W        W35543   2.355  34.068  14.666
69003W        W35544   8.740  20.998   1.310
69004W        W35545  20.082   1.409  14.979
69005W        W35546  26.536  36.384   2.807
69006W        W35547  41.535  39.789   1.814
69007W        W35548  40.832   0.930  12.634
69008W        W35549  14.726   1.784   0.034
69009W        W35550  12.415  40.750  12.752
69010W        W35551  34.411  28.599  11.036
69011W        W35552  37.113  16.751  14.801
69012W        W35553   3.066  26.003   0.586
69013W        W35554  35.433  17.258   0.525
69014W        W35555  39.817  21.834   3.782
69015W        W35556   6.901   4.253  11.981
69016W        W35557   8.123   8.846  12.632
69017W        W35558  35.835  20.826  11.906
69018W        W35559   7.571   2.343   0.805
69019W        W35560  19.686  37.919   1.118
69020W        W35561  25.619  22.664  12.007
69021W        W35562  14.386  28.551   4.994
69022W        W35563  34.322  32.047  10.523
69023W        W35564  42.400   6.817  10.851
69024W        W35565  39.028  18.843  13.989
69025W        W35566  10.997  12.718  11.474
69026W        W35567   7.270  31.887  13.499
69027W        W35568  12.841  39.247   3.223
69028W        W35569  30.513  37.361  13.823
69029W        W35570  36.896  38.261   0.227
69030W        W35571   4.607   4.681  14.560
69031W        W35572  17.314  23.552  10.586
69032W        W35573  41.475  11.303   4.673
69033W        W35574  16.083   0.477   1.171
69034W        W35575  11.183   1.442  12.537
69035W        W35576   6.308  28.430   0.880
69036W        W35577  32.325  17.213  13.947
69037W        W35578  20.623  20.486  11.517
69038W        W35579  44.417  26.634   3.319
69039W        W35580  27.651  21.901  13.850
69040W        W35581   1.877  18.605   3.153
69041W        W35582  40.918  40.498  10.960
69042W        W35583  37.913   0.526   4.482
69043W        W35584  15.822   3.405  11.974
69044W        W35585  40.861  19.100  11.755
69045W        W35586  31.823  23.352  10.457
69046W        W35587  11.607  37.558   4.079
69047W        W35588  14.834   9.744   1.382
69048W        W35589  17.916  29.069   2.743
69049W        W35590  40.167  19.495  13.981
69050W        W35591  36.321   4.373  13.442
69051W        W35592  41.564   1.260   2.809
69052W        W35593  26.323   9.784   3.347
69053W        W35594  26.923   7.141  14.509
69054W        W35595  40.084  11.220   2.809
69055W        W35596  11.617   8.270   0.917
69056W        W35597  12.411  33.757  12.182
69057W        W35598   5.178  32.709   4.076
69058W        W35599  40.794   5.257   3.097
69059W        W35600  44.406  11.797  13.728
69060W        W35601  17.010  13.685   3.972
69061W        W35602   5.951  11.478  13.613
69062W        W35603   6.961  19.317   2.367
69063W        W35604   6.993   1.916   4.366
69064W        W35605  34.471  34.629  14.991
69065W        W35606   8.142  30.599  13.809
69066W        W35607  35.659  28.049   4.073
69067W        W35608  25.608  35.029  12.546
69068W        W35609  29.112  32.194  12.068
69069W        W35610  42.149  13.718  11.350
69070W        W35611  12.119  33.018  10.975
69071W        W35612  31.598  30.542   4.401
69072W        W35613   7.526  37.363   1.271
69073W        W35614  44.720  13.562  11.921
69074W        W35615  16.687  29.100  11.579
69075W        W35616  34.892  13.780   0.262
69076W        W35617  15.278  11.754  14.705
69077W        W35618  31.079  15.209   1.985
69078W        W35619  30.292  31.984   1.791
69079W        W35620  33.675  31.060   0.734
69080W        W35621   3.437   1.331   3.599
69081W        W35622  44.863  41.987   0.804
69082W        W35623  41.585   4.738   0.506
69083W        W35624  25.698  37.754   2.163
69084W        W35625  35.991   4.602   1.298
69085W        W35626  30.281   7.332  11.886
69086W        W35627  20.504  31.116   0.621
69087W        W35628  38.673  17.557   3.237
69088W        W35629  44.477   5.728  13.557
69089W        W35630   1.338   2.911  10.281
69090W        W35631   6.146   4.181  12.072
69091W        W35632  39.078  29.758  12.105
69092W        W35633   5.816  43.401   0.290
69093W        W35634  33.673  22.349   4.116
69094W        W35635  27.851  33.475   5.143
69095W        W35636   9.965  12.127  14.339
69096W        W35637  36.931   0.327   3.353
69097W        W35638  30.709  38.472   1.451
69098W        W35639  22.949  30.265  11.187
69099W        W35640   8.140  31.946  12.148
69100W        W35641  42.013  13.113  11.605
69101W        W35642  37.371   2.267   3.999
69102W        W35643  44.515  33.987   0.346
69103W        W35644   2.845   8.719   0.047
69104W        W35645  42.375  39.032   0.283
69105W        W35646  18.153   9.338   2.198
69106W        W35647  11.616  17.502   3.067
69107W        W35648  28.281   1.144  12.602
69108W        W35649  26.694  33.008   4.211
69109W        W35650  25.671  11.262  14.699
69110W        W35651  32.566  36.371  14.675
69111W        W35652   2.682  36.538   4.676
69112W        W35653  26.172  42.472  13.814
69113W        W35654  38.167  37.402  10.587
69114W        W35655  28.610  12.905  12.894
69115W        W35656  17.269  30.599  12.248
69116W        W35657   5.439  28.163  14.919
69117W        W35658  34.469  41.132   3.279
69118W        W35659  18.479   3.757  14.073
69119W        W35660  44.531  29.484   1.956
69120W        W35661  11.273  29.740   0.481
69121W        W35662  31.901   4.705   3.732
69122W        W35663   9.923  14.721  14.881
69123W        W35664  15.166  43.665  11.561
69124W        W35665  44.940   2.232   2.891
69125W        W35666   8.406  23.946   0.735
69126W        W35667  34.645   8.421  10.727
69127W        W35668  39.085  17.686  12.316
69128W        W35669   6.706  13.789   1.812
69129W        W35670  27.380  23.965   2.683
69130W        W35671  15.271  34.662  14.054
69131W        W35672   9.720  20.282   1.341
69132W        W35673   1.002  32.395  13.613
69133W        W35674   9.765  27.220   1.744
69134W        W35675  12.837   7.952   4.384
69135W        W35676  42.813  31.601   3.536
69136W        W35677  14.089  26.239  13.497
69137W        W35678  41.733  38.474  14.981
69138W        W35679  17.019   6.769  12.962
69139W        W35680  12.196  39.910  10.537
69140W        W35681  19.052  32.784  14.808
69141W        W35682  18.280  44.823   3.598
69142W        W35683   5.056  13.354   0.958
69143W        W35684  21.803  22.658  13.459
69144W        W35685  28.702  44.068   4.456
69145W        W35686   1.727  23.998   0.403
69146W        W35687   8.314  24.997   1.981
69147W        W35688  35.820   0.412  11.907
69148W        W35689   0.749  34.979   4.431
69149W        W35690  20.061  25.105   3.598
69150W        W35691  35.544  41.259   4.325
69151W        W35692  29.900  31.051  12.501
69152W        W35693  31.458  42.785  12.552
69153W        W35694  41.284   3.380   4.168
69154W        W35695  24.618   0.877  11.557
69155W        W35696  14.720   7.748   1.133
69156W        W35697   2.488  37.272  13.627
69157W        W35698   4.025  19.625   0.860
69158W        W35699  30.879   8.713   2.788
69159W        W35700  28.490  24.138   4.251
69160W        W35701  31.587  24.652  11.466
69161W        W35702  38.778  25.596  10.991
69162W        W35703   1.046  28.467   2.305
69163W        W35704  15.845   7.799   4.857
69164W        W35705   1.251   8.976  12.881
69165W        W35706  31.868   0.319  11.817
69166W        W35707  41.929  22.490  11.092
69167W        W35708   2.823   5.925  12.991
69168W        W35709  34.109   6.142   1.725
69169W        W35710  40.919  27.345  12.497
69170W        W35711  13.277  27.655  14.320
69171W        W35712  38.966  34.405  13.632
69172W        W35713  42.307   3.139  12.733
69173W        W35714  41.339  11.561   0.871
69174W        W35715  43.775  18.216  10.759
69175W        W35716  19.296  34.114  14.435
69176W        W35717  40.120  40.385   4.565
69177W        W35718  34.396   3.290   2.706
69178W        W35719  42.481  13.144  14.850
69179W        W35720  13.183   4.295  12.511
69180W        W35721  19.141  23.278   4.562
69181W        W35722  23.211  25.016  14.721
69182W        W35723  43.391  29.422  12.497
69183W        W35724  20.502  12.016  13.458
69184W        W35725   4.806  19.325   1.396
69185W        W35726  10.666  30.074  12.088
69186W        W35727  19.114  14.316  14.255
69187W        W35728  41.292  19.144   1.880
69188W        W35729  21.394  36.778  11.495
69189W        W35730   6.737  26.181  10.670
69190W        W35731  15.776  44.054   2.715
69191W        W35732  29.567  33.447   0.311
69192W        W35733  31.479  44.771   3.513
69193W        W35734   6.326  28.179  10.691
69194W        W35735  33.138  44.878  11.475
69195W        W35736   2.157  41.332   4.141
69196W        W35737  14.388  42.752   2.987
69197W        W35738   8.103  30.805  12.405
69198W        W35739  17.051  37.343   2.407
69199W        W35740  30.013   9.022  10.672
69200W        W35741   8.790  27.993   2.210
69201W        W35742  23.459   1.292   4.663
69202W        W35743  28.277  22.084  11.122
69203W        W35744  25.089  21.377   0.680
69204W        W35745  27.761  10.380  14.588
69205W        W35746  36.816  19.586  11.156
69206W        W35747   4.884  44.957  12.921
69207W        W35748  20.291  44.069  14.381
69208W        W35749  24.593   0.276   1.735
69209W        W35750  18.436  39.907   4.111
69210W        W35751  40.622  42.945   2.293
69211W        W35752  24.289  35.509   0.502
69212W        W35753  33.351   8.696   2.719
69213W        W35754  35.931   4.116   5.035
69214W        W35755  38.801  18.053  10.352
69215W        W35756  23.133  11.220  14.513
69216W        W35757  35.056  24.199  10.665
69217W        W35758  37.112  11.100  12.003
69218W        W35759  42.771  11.302  14.439
69219W        W35760  43.736  25.152  14.108
69220W        W35761  22.443  31.244  10.422
69221W        W35762  20.428  18.859   0.757
69222W        W35763  20.489  18.519  11.311
69223W        W35764  38.843  27.389   1.180
69224W        W35765  41.581  34.822   3.673
69225W        W35766   9.362  42.472  10.665
69226W        W35767   4.416   7.944   3.725
69227W        W35768  44.139  24.745   4.667
69228W        W35769  24.585  22.636   0.297
69229W        W35770  22.587  15.715   1.764
69230W        W35771  44.037  37.483   3.393
69231W        W35772  16.682  15.128   2.508
69232W        W35773  22.001  17.581   1.871
69233W        W35774   7.373  44.808  12.632
69234W        W35775  30.437  37.503  10.594
69235W        W35776  16.203   9.773   1.400
69236W        W35777  37.102   6.770   2.546
69237W        W35778  37.966  40.390  14.247
69238W        W35779  25.067  36.092   0.175
69239W        W35780  36.409  17.893   0.475
69240W        W35781  15.318  34.319   4.800
69241W        W35782  14.298  10.295  10.901
69242W        W35783  26.994  42.479   0.325
69243W        W35784  35.907  34.390   3.803
69244W        W35785  33.663  17.279   0.778
69245W        W35786  21.776  38.334  14.481
69246W        W35787  20.369   1.840   1.703
69247W        W35788   8.727  11.685  13.823
69248W        W35789  32.466  38.755  14.433
69249W        W35790  34.573  40.121   4.006
69250W        W35791   4.096  25.992   3.649
69251W        W35792  37.141  11.814   5.026
69252W        W35793  18.806  27.532  14.366
69253W        W35794   4.643  30.581  14.496
69254W        W35795   2.315   4.709   2.413
69255W        W35796  18.480  23.729   1.737
69256W        W35797  41.358  22.587  14.571
69257W        W35798  18.823  42.421   3.208
69258W        W35799  42.466  43.876  13.632
69259W        W35800  24.619   0.777   0.468
69260W        W35801  32.891  42.245  13.027
69261W        W35802  26.627  21.731  13.999
69262W        W35803  41.711   0.035  12.658
69263W        W35804  15.845  42.248  12.388
69264W        W35805  18.685  21.608   1.288
69265W        W35806  23.641  30.945   2.652
69266W        W35807  10.883  13.893   4.028
69267W        W35808  24.283  17.095  12.910
69268W        W35809   6.453  14.422  14.011
69269W        W35810   8.248  13.832  11.635
69270W        W35811  18.186  24.719  11.490
69271W        W35812  27.627   7.270   1.310
69272W        W35813   4.369   1.754  11.994
69273W        W35814  30.935   0.855   0.310
69274W        W35815  32.575   6.069   3.640
69275W        W35816  14.614  28.535  13.442
69276W        W35817   4.237  20.624  11.236
69277W        W35818   0.716  38.251  10.966
69278W        W35819  18.276   5.719   1.184
69279W        W35820  34.133   2.867  11.319
69280W        W35821  30.202  28.190  10.760
69281W        W35822  26.924  41.406  14.108
69282W        W35823   9.344   8.066   3.942
69283W        W35824  44.766  27.622  13.441
69284W        W35825  31.077  35.106   0.474
69285W        W35826  25.881  38.002  13.991
69286W        W35827   7.774  43.916  14.537
69287W        W35828   8.619  17.696  12.429
69288W        W35829  32.584  32.467  10.673
69289W        W35830   4.518  10.674  13.194
69290W        W35831   1.873  32.342   1.307
69291W        W35832   9.668  19.255  12.172
69292W        W35833  40.859  14.305  11.961
69293W        W35834  40.826  15.794   4.223
69294W        W35835  28.334  26.984   2.686
69295W        W35836   1.838  32.371  10.282
69296W        W35837  26.456  27.338   4.788
69297W        W35838  20.559  16.736   0.188
69298W        W35839  18.227  31.501   1.890
69299W        W35840  14.692  30.467  13.918
69300W        W35841  44.363   7.174   1.896
69301W        W35842  15.546  10.155   1.620
69302W        W35843  33.935  31.057   1.196
69303W        W35844   7.439  27.814   2.283
69304W        W35845  16.445  34.023   4.080
69305W        W35846  36.014  16.177   1.431
69306W        W35847  30.976  27.473   1.851
69307W        W35848  10.385  44.278   1.881
69308W        W35849  39.271  36.798  13.911
69309W        W35850  28.091  10.320   2.367
69310W        W35851  44.513  39.871  12.597
69311W        W35852   9.692  35.624  10.745
69312W        W35853   2.374   3.774   1.345
69313W        W35854  26.666  37.703   3.200
69314W        W35855   0.515  42.645  11.533
69315W        W35856  42.367  17.811   1.369
69316W        W35857   9.651  17.818  11.493
69317W        W35858  20.323  11.912  13.987
69318W        W35859  42.916  16.266  12.484
69319W        W35860  21.654  18.250  12.439
69320W        W35861   8.275  27.363  10.727
69321W        W35862   3.776  19.131   4.713
69322W        W35863  25.978   9.717  14.455
69323W        W35864  31.904   0.409  10.821
69324W        W35865  44.967  44.973   0.401
69325W        W35866  37.514  21.626   0.886
69326W        W35867  42.977  40.103   4.151
69327W        W35868  24.780  43.318   1.437
69328W        W35869  41.879   2.985  13.953
69329W        W35870   5.606   4.776   1.182
69330W        W35871  10.693  32.302   1.343
69331W        W35872  20.215  26.528  11.821
69332W        W35873  14.730  33.558   3.485
69333W        W35874  27.419  17.251   0.821
69334W        W35875   6.191  32.789  14.319
69335W        W35876  37.474  38.241  11.183
69336W        W35877  22.073  41.036  13.587
69337W        W35878  17.041  44.416   5.146
69338W        W35879  32.584  14.702   3.438
69339W        W35880  39.550  11.241   0.917
69340W        W35881  32.709  32.480  12.830
69341W        W35882  35.081  40.490   4.583
69342W        W35883  25.306   7.755  11.115
69343W        W35884  41.931   4.978   4.557
69344W        W35885   1.981   1.985   2.597
69345W        W35886  12.912  38.555  13.761
69346W        W35887  31.489   7.346  13.654
69347W        W35888   4.945   5.675  14.757
69348W        W35889  10.398  24.125  10.860
69349W        W35890  22.574   6.456   2.836
69350W        W35891  31.677  36.745  12.035
69351W        W35892  20.579  35.047   0.884
69352W        W35893  33.048   6.413  11.338
69353W        W35894  33.514  35.766  14.854
69354W        W35895  44.259  26.986  14.874
69355W        W35896  19.614  41.416  13.656
69356W        W35897   0.891  14.044   0.330
69357W        W35898  39.836  42.425  14.436
69358W        W35899  36.047  38.536   0.436
69359W        W35900   9.161  13.599   0.056
69360W        W35901  44.793   4.727   4.296
69361W        W35902  21.049  41.382  10.427
69362W        W35903  41.146   1.658  13.077
69363W        W35904  17.562  23.074   1.575
69364W        W35905  10.849  43.759  14.797
69365W        W35906   0.851  37.282  11.929
69366W        W35907  43.239   9.705  10.535
69367W        W35908  38.379   8.187   2.818
69368W        W35909   3.408   0.948   1.278
69369W        W35910  15.771  33.362  12.640
69370W        W35911  36.138  36.754   3.237
69371W        W35912  35.952  35.146   3.343
69372W        W35913  17.609  24.550  11.578
69373W        W35914  34.105   0.147  11.241
69374W        W35915   8.871  42.705   2.371
69375W        W35916  32.584  22.083   1.740
69376W        W35917  31.937   5.394   1.889
69377W        W35918  16.144  15.821   4.521
69378W        W35919  30.555  42.387   0.258
69379W        W35920   8.482  39.576  14.384
69380W        W35921  29.461  11.894  14.936
69381W        W35922  18.011  11.733  14.458
69382W        W35923  38.065  16.319  11.145
69383W        W35924  17.027  39.680  12.918
69384W        W35925  33.406  25.977   0.697
69385W        W35926  32.711   5.420  13.639
69386W        W35927  44.256   6.725  10.419
69387W        W35928  37.117   5.402   3.170
69388W        W35929  42.547  31.960   4.194
69389W        W35930  40.267  35.667  10.972
69390W        W35931   3.447  39.257   3.246
69391W        W35932  15.665  20.926   4.623
69392W        W35933   9.474   5.134  11.998
69393W        W35934  26.567  44.750  11.637
69394W        W35935  12.379  40.870   4.039
69395W        W35936   9.898  12.020   3.677
69396W        W35937  37.082  26.086   1.279
69397W        W35938  24.083  20.226  11.866
69398W        W35939  35.102  35.296   3.205
69399W        W35940  28.897  28.614   4.615
69400W        W35941   3.229  12.358  14.013
69401W        W35942  11.765   5.532  10.076
69402W        W35943  40.013  34.945   0.768
69403W        W35944  17.509  24.058   1.559
69404W        W35945  41.070   9.704   2.325
69405W        W35946  29.441   8.955  13.700
69406W        W35947  31.675   4.836  14.768
69407W        W35948  41.557  16.050  13.334
69408W        W35949  11.097  11.564  13.658
69409W        W35950  41.854   7.477   0.768
69410W        W35951  21.470   4.431   2.710
69411W        W35952  43.286  39.440  11.537
69412W        W35953   5.278  40.531   3.474
69413W        W35954  37.521  28.705   0.243
69414W        W35955   9.860  41.383   2.118
69415W        W35956  20.610  20.640   0.796
69416W        W35957  25.996  37.277   3.255
69417W        W35958   6.260  21.948  12.145
69418W        W35959  35.435   5.220   0.652
69419W        W35960  43.998  21.891   4.508
69420W        W35961   9.307   9.709  11.900
69421W        W35962  34.168  21.062  11.900
69422W        W35963   7.778  40.733  12.229
69423W        W35964  39.907  22.197  11.126
69424W        W35965   5.114  19.790   4.732
69425W        W35966  18.044  18.243  14.446
69426W        W35967  42.920  34.100  11.609
69427W        W35968  29.069  15.137   1.716
69428W        W35969  28.419  36.542  12.130
69429W        W35970  27.095   9.161   4.300
69430W        W35971   1.389  15.727   4.198
69431W        W35972  41.714  37.938  11.559
69432W        W35973  20.163  24.527   1.811
69433W        W35974  11.764  21.506   3.853
69434W        W35975  31.649  41.847   0.783
69435W        W35976  42.720  28.658  14.400
69436W        W35977   4.606  18.836  12.448
69437W        W35978  42.616  14.169  14.698
69438W        W35979   8.805   1.576  14.593
69439W        W35980  10.768  31.851  14.524
69440W        W35981  32.901   6.739   1.325
69441W        W35982  12.333  20.627   1.037
69442W        W35983  29.347  30.056   3.696
69443W        W35984  17.011  44.802   2.698
69444W        W35985  28.149  35.960   1.668
69445W        W35986  23.256  20.688  10.746
69446W        W35987  40.001  16.308  14.463
69447W        W35988  31.501   4.430  14.053
69448W        W35989  31.993   9.640   0.011
69449W        W35990   8.616  33.920  12.439
69450W        W35991  29.649  40.734   2.474
69451W        W35992  26.858  34.355  12.570
69452W        W35993  19.177  23.477   1.820
69453W        W35994   2.337  20.122  13.251
69454W        W35995  29.032  27.639  12.501
69455W        W35996  42.962  29.185  13.498
69456W        W35997  16.547  12.081  13.935
69457W        W35998   9.625   7.350  13.465
69458W        W35999  23.500  20.842   4.793
69459W        W36000   7.085   5.887   1.519
69460W        W36001   4.242  16.545  14.484
69461W        W36002  44.160   9.593  14.403
69462W        W36003  20.618  30.131   0.650
69463W        W36004  40.335  13.417  13.056
69464W        W36005  18.080   3.934  12.279
69465W        W36006  25.202  28.856   0.261
69466W        W36007  13.281  24.532  11.247
69467W        W36008  35.283  23.611   0.817
69468W        W36009   5.720  28.236   4.178
69469W        W36010  26.119  44.301  14.814
69470W        W36011  39.344  29.637   0.993
69471W        W36012   7.669   7.061   9.869
69472W        W36013  40.406  38.049  14.046
69473W        W36014   1.485  16.659   1.406
69474W        W36015  34.679   6.228  11.053
69475W        W36016  31.495  25.020   2.341
69476W        W36017  31.657   2.772  13.348
69477W        W36018   0.660   0.661  13.873
69478W        W36019  19.966   3.483   3.805
69479W        W36020  21.245  40.506  11.652
69480W        W36021  36.359  28.389  13.577
69481W        W36022  15.745  38.486   3.354
69482W        W36023  31.043  23.759  12.086
69483W        W36024  13.281   0.807  13.892
69484W        W36025   0.895   1.460  11.336
69485W        W36026  36.542   9.328   2.797
69486W        W36027   6.718  44.773   4.458
69487W        W36028  30.389  34.155  12.903
69488W        W36029   8.690  40.874   1.367
69489W        W36030  19.734  25.579  14.701
69490W        W36031  30.883   5.327   4.211
69491W        W36032  16.571  16.437   3.200
69492W        W36033  20.192  14.635  14.129
69493W        W36034  37.869   8.182  14.389
69494W        W36035   0.976   2.389   3.262
69495W        W36036  20.686  22.788   0.739
69496W        W36037  23.232  40.284   4.939
69497W        W36038  39.469  42.783   3.294
69498W        W36039  22.048  15.897   0.472
69499W        W36040  34.115   4.721   3.629
69500W        W36041  14.125  14.451   0.994
69501W        W36042  32.006  33.829   3.550
69502W        W36043  34.808   4.892  10.996
69503W        W36044   2.903  32.293  13.094
69504W        W36045  23.774  18.749   0.266
69505W        W36046   5.902  11.662  14.912
69506W        W36047  25.165  16.890  14.605
69507W        W36048  32.611  42.882   2.149
69508W        W36049  44.900  30.177   4.389
69509W        W36050   9.692  19.194  12.677
69510W        W36051  20.390  43.025  12.541
69511W        W36052  42.450   2.322   3.599
69512W        W36053  41.095   1.497   2.682
69513W        W36054  36.646  20.437   1.782
69514W        W36055   2.784  33.314   2.399
69515W        W36056  40.318  21.608   0.923
69516W        W36057  35.852  41.511  10.710
69517W        W36058   1.423   5.703  13.232
69518W        W36059   8.704  13.702  10.346
69519W        W36060  11.889  33.543   1.441
69520W        W36061  26.090  25.189   4.208
69521W        W36062  29.587  18.596   3.564
69522W        W36063   4.834   4.835  11.089
69523W        W36064  44.697  12.049   0.450
69524W        W36065  32.926   6.087   0.542
69525W        W36066  27.950   6.758   4.619
69526W        W36067  39.402   2.025   1.785
69527W        W36068  39.542  37.289   4.610
69528W        W36069  33.136  30.711  11.181
69529W        W36070  18.382  40.734  14.056
69530W        W36071   8.856  40.239   4.799
69531W        W36072  11.671   8.350   0.046
69532W        W36073  10.954   8.603   1.237
69533W        W36074  11.395   2.730  13.389
69534W        W36075   8.634  44.924   2.810
69535W        W36076  26.629  11.775   0.250
69536W        W36077   4.659  25.982  10.727
69537W        W36078   6.507  20.544   2.711
69538W        W36079  14.777  42.757  11.786
69539W        W36080  42.917  43.002   3.392
69540W        W36081   9.954  28.571   2.057
69541W        W36082  13.058  14.177   4.222
69542W        W36083  40.634   1.645   2.837
69543W        W36084  31.425  32.905  13.954
69544W        W36085  17.297  38.289  11.898
69545W        W36086  27.541   3.717  13.013
69546W        W36087   0.359  30.131   1.406
69547W        W36088  43.624   0.528  12.543
69548W        W36089  23.664  18.850  14.416
69549W        W36090  44.445  39.567  13.449
69550W        W36091  31.300   8.953   4.965
69551W        W36092  25.515   2.484   4.028
69552W        W36093   5.624  28.819   1.628
69553W        W36094  20.764   8.897  13.907
69554W        W36095   8.135   2.742  14.787
69555W        W36096   8.210  30.470  10.683
69556W        W36097   8.658  17.959   2.746
69557W        W36098  34.406   4.325  14.470
69558W        W36099  23.111   3.367   3.277
69559W        W36100   2.967  37.935   0.809
69560W        W36101  20.793  24.232   2.789
69561W        W36102  44.426  21.572   2.588
69562W        W36103  25.593  21.800  14.094
69563W        W36104  15.749  10.574   3.162
69564W        W36105   2.669  12.214  14.567
69565W        W36106  18.633   5.971  14.041
69566W        W36107  18.710  23.446  12.881
69567W        W36108  16.566   6.228   0.143
69568W        W36109   0.911  17.621   2.649
69569W        W36110  36.471  34.532   3.361
69570W        W36111  28.676  24.026   0.780
69571W        W36112  32.554  18.667  12.662
69572W        W36113  11.670  15.752  12.404
69573W        W36114  35.999  23.259   2.233
69574W        W36115   6.283  12.155   3.036
69575W        W36116  30.662   8.846  14.772
69576W        W36117  16.339   1.417  10.579
69577W        W36118  43.604  22.202  13.592
69578W        W36119   0.101  38.360   3.092
69579W        W36120  37.406  16.786  13.829
69580W        W36121  17.110   6.801   2.015
69581W        W36122  19.554  27.069   4.642
69582W        W36123  28.858  39.646  13.498
69583W        W36124   1.067  34.166   2.636
69584W        W36125   8.962  36.379  12.112
69585W        W36126  32.943  44.559  13.051
69586W        W36127   9.849   4.303  10.778
69587W        W36128  30.123  26.693   0.487
69588W        W36129  41.569  19.095   4.499
69589W        W36130   1.262  37.347  11.580
69590W        W36131  12.392  30.028   3.105
69591W        W36132  34.821  25.841   1.399
69592W        W36133  29.626  20.479   4.176
69593W        W36134  42.319  37.522   2.655
69594W        W36135  37.248  32.982  14.433
69595W        W36136  34.691  33.355   2.612
69596W        W36137  22.124  38.902  11.980
69597W        W36138  44.172  41.894   2.552
69598W        W36139  24.156  28.358   0.683
69599W        W36140   3.394  11.415  13.932
69600W        W36141  35.381   4.056  12.403
69601W        W36142  25.234   5.349  14.057
69602W        W36143   5.482   8.093  11.750
69603W        W36144   8.642  31.566  14.484
69604W        W36145  13.383  27.127   2.513
69605W        W36146  24.362  33.057   3.185
69606W        W36147  44.266   3.360   2.698
69607W        W36148  28.998  15.581   2.013
69608W        W36149  28.025  39.354  13.060
69609W        W36150   8.160  32.700   3.148
69610W        W36151  36.548  44.701   0.215
69611W        W36152  33.683  42.864   1.927
69612W        W36153  24.629   4.118   5.022
69613W        W36154  25.503  17.854  14.052
69614W        W36155  21.012  12.382  12.585
69615W        W36156  35.532  27.255   4.611
69616W        W36157   4.135  23.249  10.836
69617W        W36158   3.807   3.745   0.397
69618W        W36159  32.264  40.498  11.544
69619W        W36160  24.010  35.305   4.021
69620W        W36161  31.443  21.585   0.492
69621W        W36162  31.407   2.613   4.694
69622W        W36163  17.655  44.466   2.893
69623W        W36164  42.918  44.324   1.237
69624W        W36165   0.057   6.885  12.075
69625W        W36166  30.618  14.253  10.494
69626W        W36167  18.049   4.991  10.708
69627W        W36168  34.453   4.214  10.678
69628W        W36169  40.209  31.688  13.538
69629W        W36170  44.500  34.110  13.992
69630W        W36171  32.864   0.209   1.885
69631W        W36172  17.665  11.241  13.382
69632W        W36173  16.694  43.158   2.380
69633W        W36174  11.739  12.015   1.360
69634W        W36175   7.338  10.858   3.278
69635W        W36176  41.712  43.560   1.714
69636W        W36177  32.985  10.884   4.629
69637W        W36178   0.072  42.416  13.995
69638W        W36179  22.061  31.620   0.480
69639W        W36180  29.396  10.330  11.116
69640W        W36181  25.132  26.047  14.812
69641W        W36182  19.031  21.155   3.216
69642W        W36183  44.045  42.468  12.607
69643W        W36184   7.869   2.743   0.432
69644W        W36185  26.539  13.187  12.677
69645W        W36186  10.334  18.604  12.414
69646W        W36187  20.763   4.994   1.645
69647W        W36188  26.988  19.641   1.068
69648W        W36189  24.402  15.864   1.569
69649W        W36190  16.253  35.099   2.441
69650W        W36191  28.726   7.769   2.826
69651W        W36192  40.422   1.736   1.911
69652W        W36193   7.988  16.933   3.581
69653W        W36194  25.296   2.816  11.081
69654W        W36195  30.617  12.125   2.720
69655W        W36196  36.885  33.416  13.108
69656W        W36197  26.670  25.224  11.115
69657W        W36198   8.480  20.383  13.522
69658W        W36199  24.660  30.502  12.092
69659W        W36200  35.919  14.253  14.054
69660W        W36201  12.042  39.570  11.984
69661W        W36202  14.213  20.273  10.653
69662W        W36203  38.552  17.373   1.372
69663W        W36204  12.670  27.242  13.592
69664W        W36205  35.625  20.235   4.761
69665W        W36206   8.906   2.614  13.298
69666W        W36207  34.935  12.210  10.728
69667W        W36208  35.929   6.304   2.226
69668W        W36209  29.710  10.039  10.828
69669W        W36210  19.052  40.435  14.772
69670W        W36211  34.531  43.072  10.937
69671W        W36212   3.423  18.158  11.043
69672W        W36213   8.146  12.145  14.673
69673W        W36214  26.999   4.195   4.782
69674W        W36215  38.221  13.285   1.885
69675W        W36216  30.429   1.396   1.536
69676W        W36217   7.280  33.061   0.492
69677W        W36218   2.214  36.373  14.431
69678W        W36219  42.057  18.197   3.698
69679W        W36220  27.827  28.021  13.702
69680W        W36221  33.061  11.178  13.413
69681W        W36222  30.916  28.915   1.708
69682W        W36223  39.377  40.323  12.670
69683W        W36224  43.542  20.698  10.778
69684W        W36225  12.046  18.117   2.185
69685W        W36226   0.917  32.839   3.079
69686W        W36227  38.936  28.827  10.765
69687W        W36228   7.877  41.976  12.975
69688W        W36229  43.497   5.992   0.644
69689W        W36230  27.969  31.476  13.866
69690W        W36231  25.468  20.147   4.187
69691W        W36232  39.823  20.020  14.050
69692W        W36233   6.897  41.393   0.479
69693W        W36234  32.532   2.430   0.293
69694W        W36235   3.369   9.157  10.985
69695W        W36236   4.355  31.984  13.850
69696W        W36237  33.259   9.620  11.729
69697W        W36238   1.281  25.054  12.959
69698W        W36239   1.885  40.330   3.270
69699W        W36240  44.120  40.442  14.201
69700W        W36241  39.625  20.878  13.965
69701W        W36242  10.491   0.361  12.631
69702W        W36243  22.427  16.154  10.644
69703W        W36244  26.028  27.609   0.172
69704W        W36245  10.217  30.286   0.883
69705W        W36246  17.817  44.537   1.844
69706W        W36247   8.868   2.296   4.047
69707W        W36248   3.008  41.316  10.690
69708W        W36249   4.643  25.189   1.211
69709W        W36250  37.615  18.244   0.559
69710W        W36251  38.564  32.433   0.953
69711W        W36252  15.154  25.581   0.326
69712W        W36253  32.891  38.597   1.822
69713W        W36254  15.918  26.225  11.645
69714W        W36255  43.187  10.623  13.257
69715W        W36256   3.198  21.692   0.390
69716W        W36257   0.451  18.465  14.354
69717W        W36258  27.759  13.797   0.478
69718W        W36259   4.320  14.217  10.757
69719W        W36260  43.820  25.014   3.827
69720W        W36261   1.210  18.058   4.590
69721W        W36262  41.310  31.497  12.514
69722W        W36263  16.482   0.891  11.653
69723W        W36264  11.844  24.257   3.018
69724W        W36265  41.881  20.159   4.288
69725W        W36266  20.119  10.363   3.099
69726W        W36267  12.326  14.415   3.059
69727W        W36268  15.326  39.367  11.279
69728W        W36269  44.045   6.212  14.131
69729W        W36270  11.275  32.895   4.115
69730W        W36271  39.349  10.947   4.944
69731W        W36272  12.830  17.604   0.368
69732W        W36273   1.364  31.571   3.645
69733W        W36274   0.170   2.427  10.638
69734W        W36275  36.941  37.006  10.922
69735W        W36276  38.414  32.069  10.560
69736W        W36277  13.809  14.300   3.826
69737W        W36278  24.056  41.445  13.108
69738W        W36279  26.275  22.470   3.464
69739W        W36280   4.670   1.333   9.610
69740W        W36281   4.787  30.888  11.727
69741W        W36282  43.937  27.011  10.803
69742W        W36283  33.530  41.542   4.349
69743W        W36284  23.922  15.959  10.365
69744W        W36285  29.562  14.195  11.164
69745W        W36286  37.698   4.748  13.538
69746W        W36287  17.640  26.443  13.766
69747W        W36288  18.950  44.189   4.126
69748W        W36289  39.734  41.031   4.511
69749W        W36290  23.188  43.968  10.785
69750W        W36291  29.923  23.148  10.741
69751W        W36292  39.627  40.472   4.366
69752W        W36293  32.516   0.956   1.838
69753W        W36294  33.565   7.687  10.373
69754W        W36295   4.382  28.050  13.709
69755W        W36296  38.526  44.863  13.372
69756W        W36297  23.793  31.520   4.864
69757W        W36298  17.274  18.134   5.592
69758W        W36299  39.935  24.981  11.354
69759W        W36300  33.557  23.990   4.833
69760W        W36301  13.339   0.548   0.775
69761W        W36302  19.174  38.344  12.620
69762W        W36303  34.863  28.341  10.141
69763W        W36304  26.579  18.295   2.600
69764W        W36305   6.904  14.730  11.887
69765W        W36306  14.502  43.510   1.744
69766W        W36307   5.108   8.857   4.343
69767W        W36308  41.822  44.447  12.024
69768W        W36309  16.123  36.478  13.830
69769W        W36310   5.684  20.842   1.154
69770W        W36311  14.376   4.679  13.797
69771W        W36312  21.541  19.698  12.192
69772W        W36313  43.688  10.551  11.568
69773W        W36314  14.275  33.819  14.264
69774W        W36315  32.571  21.299   3.147
69775W        W36316  26.797  10.221  10.074
69776W        W36317   4.807  13.614   0.420
69777W        W36318  28.915  24.317  11.905
69778W        W36319  23.190   8.364   0.845
69779W        W36320   8.302  44.547  13.618
69780W        W36321  17.663   1.272   3.723
69781W        W36322  12.402  22.664   2.259
69782W        W36323   4.954  36.491   4.573
69783W        W36324  13.901  41.452   3.771
69784W        W36325   7.600  36.733   4.553
69785W        W36326  35.374  14.837  11.608
69786W        W36327   1.166   6.766  14.876
69787W        W36328  36.908   2.634  11.354
69788W        W36329  38.861   3.263  14.871
69789W        W36330  11.690  42.583  12.968
69790W        W36331  21.224  11.852   4.608
69791W        W36332  26.544  29.605   4.875
69792W        W36333  22.624  15.523  11.923
69793W        W36334   2.276  43.838  10.507
69794W        W36335  12.295   9.656   2.683
69795W        W36336  30.603  30.792   3.619
69796W        W36337  11.187  31.556   0.867
69797W        W36338   3.789  42.688  13.418
69798W        W36339  18.023   2.416   1.817
69799W        W36340   5.215  30.063   0.766
69800W        W36341  19.443   2.954  11.733
69801W        W36342  25.975  24.747  10.718
69802W        W36343  30.447  42.290  11.230
69803W        W36344   1.952   4.545  14.384
69804W        W36345  37.028  16.745   3.536
69805W        W36346  37.104  41.550  13.630
69806W        W36347  23.980  28.881  12.016
69807W        W36348  18.542  17.685   2.889
69808W        W36349  17.256  22.269  12.204
69809W        W36350   9.722  23.187  10.612
69810W        W36351  32.717   1.450   0.395
69811W        W36352  41.936   2.663  11.174
69812W        W36353  43.946  33.369   2.535
69813W        W36354   2.338  33.409   0.568
69814W        W36355  20.356  37.570  12.410
69815W        W36356  41.070  39.744   2.031
69816W        W36357  30.498  34.852   4.582
69817W        W36358  28.534  40.831  13.491
69818W        W36359   9.718  35.030   3.247
69819W        W36360  17.979  10.574  12.019
69820W        W36361  10.277   4.497   3.854
69821W        W36362  12.904   8.747  14.871
69822W        W36363  33.425  21.445   5.295
69823W        W36364  31.521  21.991   3.776
69824W        W36365  31.338   2.395  14.531
69825W        W36366  20.779   0.932   4.747
69826W        W36367  11.861  11.948  14.023
69827W        W36368   5.280  10.688  11.189
69828W        W36369  14.109  39.032  11.152
69829W        W36370   7.743  22.286  12.087
69830W        W36371   4.376  40.326  11.520
69831W        W36372  30.919  17.208   9.971
69832W        W36373  28.678  37.078  13.256
69833W        W36374  37.844  13.758  11.257
69834W        W36375  26.055  10.582  12.391
69835W        W36376  11.210   3.733  11.886
69836W        W36377  44.400  29.358   2.486
69837W        W36378   9.296  18.812   1.423
69838W        W36379   5.211   5.709  13.980
69839W        W36380  23.062  13.221   1.952
69840W        W36381  28.219  17.087   1.282
69841W        W36382  20.113  32.345   1.848
69842W        W36383  27.713   6.692  14.207
69843W        W36384  11.733  38.622  11.961
69844W        W36385  30.605  37.904  11.512
69845W        W36386  26.991  15.738   1.906
69846W        W36387  25.496   3.667  14.739
69847W        W36388  37.292   3.567   0.716
69848W        W36389  13.566  27.466   4.031
69849W        W36390  38.941  25.902   3.117
69850W        W36391   5.681  30.198   4.912
69851W        W36392  13.844   9.897  12.525
69852W        W36393  12.819  42.542  11.403
69853W        W36394  14.536  28.139   2.303
69854W        W36395   1.443  44.551   0.771
69855W        W36396  16.727  16.070   4.198
69856W        W36397  43.907   8.352   1.835
69857W        W36398  22.081  29.234   2.694
69858W        W36399  32.582   4.212  10.624
69859W        W36400  22.559  30.194   1.265
69860W        W36401  18.610  25.842  13.862
69861W        W36402   7.262  44.963   1.620
69862W        W36403  43.239   9.282   1.097
69863W        W36404  43.977  24.662  11.550
69864W        W36405   4.124  41.643   3.760
69865W        W36406  30.046  18.548   4.855
69866W        W36407   3.953  32.628   4.406
69867W        W36408  43.344  24.937   3.649
69868W        W36409   9.007   3.322   4.181
69869W        W36410  23.014   3.420  14.508
69870W        W36411   8.907  27.014   1.718
69871W        W36412  23.232  30.690   2.836
69872W        W36413  25.608  28.688   1.402
69873W        W36414  40.997  24.645   4.019
69874W        W36415  38.855  17.194   3.700
69875W        W36416  18.531  28.206   0.282
69876W        W36417   7.287   4.138   3.331
69877W        W36418  33.669  42.338  13.920
69878W        W36419   0.179   3.591  12.500
69879W        W36420  33.667  42.772  12.831
69880W        W36421  22.384  22.642  10.684
69881W        W36422  21.758  17.697  14.480
69882W        W36423  12.229  13.104   0.001
69883W        W36424  17.959  28.528  10.574
69884W        W36425  11.169  18.328   2.058
69885W        W36426  33.626   3.270   3.199
69886W        W36427   8.266  38.530  12.176
69887W        W36428  10.134  13.742  14.802
69888W        W36429  11.667  40.041  12.856
69889W        W36430  28.051  21.305   1.455
69890W        W36431  42.773  23.548   1.911
69891W        W36432  21.787   8.215   0.843
69892W        W36433  17.174  12.708   2.608
69893W        W36434  12.583   3.427  12.560
69894W        W36435  37.733  10.344  10.590
69895W        W36436   1.314  43.455   2.949
69896W        W36437  35.073  12.183   0.845
69897W        W36438  35.117   1.542  11.060
69898W        W36439  13.236   2.048  10.233
69899W        W36440  21.872  25.685  14.096
69900W        W36441  30.055  24.407  13.028
69901W        W36442  21.666  15.077  13.439
69902W        W36443  28.966  32.722  10.868
69903W        W36444   2.368  44.414   0.680
69904W        W36445  34.398   6.125  10.242
69905W        W36446  39.321   6.197   4.406
69906W        W36447  43.902  23.487  14.964
69907W        W36448  20.607   3.235  14.438
69908W        W36449  38.190  44.232   2.148
69909W        W36450  40.961  10.955   3.455
69910W        W36451  22.307  40.814  11.719
69911W        W36452  35.501  21.730  14.439
69912W        W36453  43.780  29.661   3.180
69913W        W36454  25.697  20.725  10.890
69914W        W36455   6.894  37.036  13.673
69915W        W36456  25.161   5.128  13.517
69916W        W36457  11.763  43.335  12.476
69917W        W36458  29.992   9.401   1.377
69918W        W36459  24.338  12.782  11.879
69919W        W36460   6.755  19.258   3.746
69920W        W36461   2.388   9.030   3.247
69921W        W36462  19.970   7.387   2.856
69922W        W36463   1.863  17.616   0.353
69923W        W36464   3.600  42.560  14.964
69924W        W36465  41.483  30.164   4.135
69925W        W36466  24.946  26.235  11.588
69926W        W36467   8.632   0.315  12.089
69927W        W36468  43.923  16.623   3.338
69928W        W36469  25.235   0.912  11.507
69929W        W36470  36.340   6.805   1.809
69930W        W36471  15.179  18.960   1.958
69931W        W36472  28.718  18.298  11.026
69932W        W36473  43.824  40.448  10.637
69933W        W36474   2.405  40.429   1.585
69934W        W36475   3.316  23.516   4.625
69935W        W36476  29.438  33.943   0.280
69936W        W36477  34.496  34.857   2.715
69937W        W36478  31.191  20.071  14.905
69938W        W36479  33.291  20.093  13.587
69939W        W36480  29.701   6.726   2.718
69940W        W36481  35.342  12.766  11.517
69941W        W36482   0.050  11.727   0.686
69942W        W36483  32.745  21.280   1.003
69943W        W36484  31.013  29.199   4.839
69944W        W36485  35.901  20.763   2.333
69945W        W36486   8.659  18.541   4.931
69946W        W36487   7.400   5.926   3.675
69947W        W36488  40.378   1.951  13.421
69948W        W36489  35.304  20.055   4.416
69949W        W36490   3.803   5.505   4.209
69950W        W36491  10.299   7.350   1.204
69951W        W36492  25.190   5.697   2.112
69952W        W36493  26.336   1.413   4.842
69953W        W36494   6.263  24.580  14.620
69954W        W36495  31.649  18.146   0.576
69955W        W36496  23.634   0.964   0.367
69956W        W36497  42.918  17.932   4.625
69957W        W36498  13.681  27.401  14.066
69958W        W36499  21.023  35.616   4.859
69959W        W36500  29.272  25.186   3.292
69960W        W36501  13.026  40.063  12.940
69961W        W36502  38.992  34.636   1.184
69962W        W36503  41.331  15.112  14.692
69963W        W36504  14.894  35.423  14.236
69964W        W36505  14.669  37.607  14.470
69965W        W36506  17.786  18.551  10.884
69966W        W36507  26.775  32.583   0.252
69967W        W36508  41.464  14.014   2.170
69968W        W36509  37.625  33.968   3.312
69969W        W36510   9.816  42.393   1.406
69970W        W36511  35.250  30.866  13.765
69971W        W36512  41.606  35.957  11.636
69972W        W36513  21.357   2.778   4.834
69973W        W36514  10.082  18.852   0.137
69974W        W36515  12.703   9.215   1.812
69975W        W36516   4.321   1.900   1.913
69976W        W36517  34.428  37.658   3.661
69977W        W36518   6.294  32.982   3.753
69978W        W36519  35.094  32.485   2.219
69979W        W36520   9.170   5.094   1.245
69980W        W36521  33.615  25.049  10.265
69981W        W36522  30.956  11.314  10.182
69982W        W36523  12.920  17.283   2.159
69983W        W36524  36.788  18.725   2.929
69984W        W36525  44.854  20.727   4.601
69985W        W36526  26.934  31.696   3.274
69986W        W36527  40.473   6.358  14.525
69987W        W36528  27.220  23.011  11.486
69988W        W36529  18.716  22.557  12.686
69989W        W36530  10.774  27.224   2.216
69990W        W36531  23.582  42.466  14.347
69991W        W36532   3.474  28.091   3.625
69992W        W36533  15.127  12.969   2.362
69993W        W36534  37.065  23.537  14.524
69994W        W36535  27.988  15.692   0.958
69995W        W36536  29.587  20.881  11.502
69996W        W36537   8.776   4.851   2.635
69997W        W36538   4.371  41.066   2.631
69998W        W36539  16.310  37.391   4.564
69999W        W36540  12.785  19.172  14.431
70000W        W36541  36.513  31.853  13.512
70001W        W36542  28.321  11.525  13.066
70002W        W36543  24.918  35.698  14.857
70003W        W36544  44.697  25.568  11.069
70004W        W36545   6.634  19.137  14.995
70005W        W36546  18.117  42.970  14.610
70006W        W36547  31.047  30.106   4.637
70007W        W36548  15.629   9.917  14.038
70008W        W36549  21.613  13.064   1.573
70009W        W36550  41.425  42.020  10.667
70010W        W36551  42.966  38.532  11.193
70011W        W36552  14.845  26.974  10.876
70012W        W36553   6.946  44.480   2.343
70013W        W36554   5.835   1.615  11.513
70014W        W36555  17.652  38.847  10.682
70015W        W36556  17.604  30.612   0.374
70016W        W36557   3.302  24.709  11.585
70017W        W36558  32.240  24.084   0.270
70018W        W36559   3.856   1.380  14.962
70019W        W36560   6.771  35.871   2.738
70020W        W36561  41.108  11.621   4.474
70021W        W36562  18.158  13.246   1.920
70022W        W36563  19.500  43.782  11.582
70023W        W36564  43.783  21.723  12.953
70024W        W36565  35.060  37.424  12.165
70025W        W36566  37.525  44.981   1.203
70026W        W36567  13.269  26.485  12.155
70027W        W36568  30.018  40.323  13.876
70028W        W36569   2.967  18.204  11.340
70029W        W36570  10.932  20.722   0.859
70030W        W36571   9.708  35.281  13.974
70031W        W36572  33.739  17.355  12.444
70032W        W36573  23.076  36.533   3.742
70033W        W36574   7.171  36.506  10.920
70034W        W36575   7.670  19.070  12.968
70035W        W36576  28.488   0.831  10.710
70036W        W36577  32.961  34.624  13.166
70037W        W36578   8.249  19.285  14.353
70038W        W36579  32.651   5.000   0.084
70039W        W36580  39.239  22.530   2.363
70040W        W36581  26.996  43.357  10.737
70041W        W36582  33.616  18.719  11.583
70042W        W36583  43.370  34.462  10.726
70043W        W36584  16.661  43.191   0.842
70044W        W36585  24.129  27.007  12.353
70045W        W36586  16.390  17.124   1.995
70046W        W36587  11.694   9.195  13.353
70047W        W36588  39.879   0.651  12.524
70048W        W36589   7.168  13.201  10.772
70049W        W36590  15.761   9.841  13.522
70050W        W36591  36.797  21.073  10.459
70051W        W36592  36.952  26.012  14.735
70052W        W36593   9.939  25.716   4.231
70053W        W36594  32.252  25.976   0.023
70054W        W36595   6.313  43.174  11.636
70055W        W36596  10.302   4.573  14.346
70056W        W36597  20.593  44.829   1.675
70057W        W36598  26.951  36.880   0.817
70058W        W36599  11.617  24.609  13.770
70059W        W36600   8.789  30.406  12.586
70060W        W36601  30.923   2.488  11.425
70061W        W36602  12.342   6.736  11.862
70062W        W36603  19.097  19.420   0.247
70063W        W36604  40.022  39.640  11.206
70064W        W36605  16.509   8.396  12.998
70065W        W36606  41.963  14.354   3.295
70066W        W36607  25.427  37.782   3.850
70067W        W36608   3.166   7.338  14.191
70068W        W36609  37.665   9.595  12.088
70069W        W36610  37.273  17.341  10.750
70070W        W36611  21.554  16.061   4.253
70071W        W36612  26.388   5.851  10.691
70072W        W36613  33.531  13.270   3.719
70073W        W36614  27.833  41.393  11.985
70074W        W36615  42.435   4.776  11.998
70075W        W36616  31.485   4.862  13.735
70076W        W36617  44.885  28.146   0.199
70077W        W36618  18.885   7.632   3.160
70078W        W36619  33.721   4.313   3.367
70079W        W36620  23.975  33.470   9.960
70080W        W36621  12.266  23.678   4.196
70081W        W36622  32.487  15.162   1.218
70082W        W36623  43.416  32.451   4.836
70083W        W36624   8.340   2.394   4.544
70084W        W36625   6.461   2.963  13.454
70085W        W36626  32.625   7.677  10.687
70086W        W36627  15.454  34.166  13.815
70087W        W36628  39.138  31.092   3.742
70088W        W36629  40.170   0.764   5.164
70089W        W36630  38.557  12.914   5.433
70090W        W36631   6.806  18.527  10.691
70091W        W36632  11.715  11.783  11.130
70092W        W36633  28.939  33.538  12.036
70093W        W36634  39.049  32.330  12.879
70094W        W36635  24.219  20.619  13.767
70095W        W36636  20.715  18.048   3.444
70096W        W36637   0.284  40.408  12.334
70097W        W36638  38.832  20.157   4.966
70098W        W36639  39.934  40.322  12.019
70099W        W36640   6.318  22.750  10.287
70100W        W36641  43.235  28.932   0.292
70101W        W36642  20.997   8.974   4.928
70102W        W36643  37.531   3.698   4.540
70103W        W36644  22.575  28.413  12.424
70104W        W36645  26.007  12.872   1.513
70105W        W36646  15.422  28.088   4.119
70106W        W36647  10.743  22.725   2.855
70107W        W36648  34.802  31.945  12.092
70108W        W36649  10.161  42.228  11.103
70109W        W36650  29.064  23.507   2.185
70110W        W36651  13.868  27.248  14.940
70111W        W36652  30.223  34.807   2.425
70112W        W36653  24.980  10.643  13.040
70113W        W36654  17.788   7.258  12.993
70114W        W36655  17.074  21.540  11.708
70115W        W36656  10.966   5.686  13.180
70116W        W36657  30.782  25.447   2.682
70117W        W36658   7.283   5.742  13.593
70118W        W36659  17.238  23.203   4.061
70119W        W36660   3.147  12.483   1.288
70120W        W36661  42.440  11.200  11.864
70121W        W36662  26.635   2.499  10.804
70122W        W36663   5.316  27.215   4.672
70123W        W36664   8.238  37.108  12.585
70124W        W36665  42.899  10.001   0.737
70125W        W36666  20.714  31.260   0.172
70126W        W36667   2.895  25.528  11.480
70127W        W36668  12.120  32.484  10.498
70128W        W36669  15.136  32.147   1.391
70129W        W36670  37.630  10.594  12.115
70130W        W36671   0.315   9.151   1.725
70131W        W36672  24.177  22.001  11.947
70132W        W36673  27.266  37.644  13.966
70133W        W36674   7.092  36.141   2.424
70134W        W36675   1.390  41.754   3.711
70135W        W36676  30.129  18.882   1.788
70136W        W36677  33.680  36.949  13.459
70137W        W36678   6.909  14.917   2.954
70138W        W36679  18.912   0.609  11.964
70139W        W36680  35.518  24.044   1.907
70140W        W36681   5.317  39.606   3.152
70141W        W36682   3.265  38.381   0.915
70142W        W36683   8.884  10.198  11.657
70143W        W36684  13.736  42.559   4.573
70144W        W36685  25.714  21.799   1.726
70145W        W36686  38.667  20.728  11.626
70146W        W36687  17.725   5.448   3.208
70147W        W36688  37.490  35.943   3.211
70148W        W36689  37.505  15.034   0.847
70149W        W36690  18.261  34.048   2.234
70150W        W36691  27.238  17.811   2.724
70151W        W36692  28.576  23.466   2.901
70152W        W36693   6.406  34.791  10.730
70153W        W36694   9.653  33.863  11.095
70154W        W36695  41.760   2.659  14.350
70155W        W36696  37.387  17.597  12.409
70156W        W36697   7.452  28.433  12.047
70157W        W36698  18.184  35.007  12.532
70158W        W36699  33.913  23.594  11.161
70159W        W36700  25.961   3.908  12.987
70160W        W36701  35.397  23.488  14.921
70161W        W36702  16.639   0.890  13.449
70162W        W36703  15.220  33.612   3.645
70163W        W36704  30.676   5.617   4.567
70164W        W36705  14.724  40.365  12.494
70165W        W36706  12.876   3.719   1.440
70166W        W36707  44.161  39.417   1.963
70167W        W36708  31.587   1.759  10.673
70168W        W36709  13.231  10.864   3.151
70169W        W36710   2.493   1.700  11.722
70170W        W36711  13.623  23.769   0.561
70171W        W36712  31.321   9.843   5.263
70172W        W36713  32.978   8.236  14.342
70173W        W36714  22.586  19.716   1.457
70174W        W36715   5.145  40.343  13.859
70175W        W36716  29.577  39.814  10.733
70176W        W36717   6.637  40.886  14.234
70177W        W36718   0.200   2.019   3.298
70178W        W36719  18.217   7.512   2.249
70179W        W36720  40.274  15.478   4.952
70180W        W36721  22.548  21.066  13.374
70181W        W36722  40.022  28.929   0.812
70182W        W36723  36.395  36.398   0.424
70183W        W36724   8.063  22.872   3.320
70184W        W36725  32.971  29.488   4.145
70185W        W36726  44.355  37.322  11.686
70186W        W36727   7.972  26.520  12.443
70187W        W36728  20.996  20.943   2.296
70188W        W36729  11.813  31.648  12.638
70189W        W36730  27.624  38.166   0.974
70190W        W36731  24.189  20.236   0.839
70191W        W36732  40.814  27.288   0.924
70192W        W36733  30.271  17.137   4.615
70193W        W36734  10.172  28.475   4.067
70194W        W36735  37.836  30.260  12.439
70195W        W36736  24.851   9.752   5.271
70196W        W36737  42.089  26.996   3.307
70197W        W36738   2.370  33.964   9.986
70198W        W36739   8.626  31.382  12.680
70199W        W36740  10.685  41.068   1.533
70200W        W36741  34.010  23.151  14.849
70201W        W36742   0.044  16.790   0.591
70202W        W36743  10.412  32.524   0.008
70203W        W36744  20.149   1.530  11.682
70204W        W36745  39.667  37.149   4.134
70205W        W36746  32.569   3.473  10.749
70206W        W36747  27.084  29.978   3.718
70207W        W36748  27.382   6.933   4.385
70208W        W36749  13.578  25.444  11.515
70209W        W36750   9.129  16.874  12.083
70210W        W36751  17.720  30.974  12.928
70211W        W36752  16.056   4.392   3.177
70212W        W36753  24.237  31.632   0.267
70213W        W36754  12.817  35.006  13.427
70214W        W36755   9.333  22.787   3.442
70215W        W36756   5.631   8.735  11.171
70216W        W36757  42.953   3.083   3.663
70217W        W36758  40.479  20.437   0.209
70218W        W36759  21.944  14.344  12.561
70219W        W36760  23.513  26.942   1.777
70220W        W36761   2.165  32.667   0.430
70221W        W36762  16.855  14.994   1.003
70222W        W36763  31.591  38.107  11.536
70223W        W36764  21.703  38.734  10.702
70224W        W36765  25.453  21.804  14.594
70225W        W36766  39.010  27.504  12.441
70226W        W36767   3.492  26.196   0.376
70227W        W36768  13.566   9.845  11.118
70228W        W36769  28.356  16.629  10.934
70229W        W36770  26.597   7.688   0.049
70230W        W36771  44.816  33.543  11.102
70231W        W36772  20.231   7.829  12.220
70232W        W36773  37.122  26.527  10.677
70233W        W36774  21.108  21.932  13.370
70234W        W36775  14.130   6.742  11.592
70235W        W36776  44.485  34.551   3.576
70236W        W36777  10.891  38.021  14.204
70237W        W36778  25.710  15.251   4.432
70238W        W36779  13.882  20.073   4.159
70239W        W36780  24.418   9.664   3.885
70240W        W36781  18.098  12.192  14.251
70241W        W36782  31.959  30.083   3.659
70242W        W36783  42.014  39.844   2.622
70243W        W36784  28.076  17.614   4.743
70244W        W36785  28.073  17.270  12.497
70245W        W36786  40.360  42.971  10.728
70246W        W36787   5.735   1.888   3.952
70247W        W36788   1.934  37.894   4.687
70248W        W36789  37.839   4.048  10.593
70249W        W36790  14.118  32.661  13.558
70250W        W36791  19.647  43.528   2.781
70251W        W36792  37.995   7.724   1.334
70252W        W36793  30.345  36.975   0.801
70253W        W36794   3.749  23.227   4.559
70254W        W36795  13.321  12.435  13.482
70255W        W36796  17.874  37.256  12.056
70256W        W36797  21.778   4.803   2.408
70257W        W36798  42.012  40.080   0.645
70258W        W36799  16.614  29.965  10.323
70259W        W36800  25.416  13.778  10.974
70260W        W36801  39.004  17.719  11.804
70261W        W36802   6.428  14.015  14.400
70262W        W36803  20.814   3.843   0.907
70263W        W36804   2.406  43.634  14.512
70264W        W36805  19.951   7.308   1.235
70265W        W36806  41.480  11.255  10.480
70266W        W36807   1.896   2.418  11.829
70267W        W36808   5.561  43.736   1.459
70268W        W36809  12.358  24.692  13.490
70269W        W36810   9.766  37.281  13.072
70270W        W36811  11.581  19.968  12.857
70271W        W36812  35.986  20.093   1.777
70272W        W36813   0.471  38.012  14.695
70273W        W36814  10.266  20.057   2.784
70274W        W36815  29.625  39.406   4.807
70275W        W36816  16.326  13.885  10.860
70276W        W36817  23.082  10.290  14.459
70277W        W36818   5.200  44.213   3.811
70278W        W36819  23.174  13.483  13.994
70279W        W36820  32.916  19.003  13.362
70280W        W36821  43.534   4.346   1.739
70281W        W36822  27.731  14.099   4.683
70282W        W36823   4.611   7.953   0.720
70283W        W36824  39.456  40.064  11.725
70284W        W36825  19.663  41.018  11.166
70285W        W36826  29.609  15.059   0.474
70286W        W36827  33.020  41.982  14.936
70287W        W36828  31.233  11.925   4.137
70288W        W36829  28.834  12.834  14.194
70289W        W36830  17.410  21.303  11.309
70290W        W36831  22.107  10.792   2.862
70291W        W36832   6.272  17.297  13.930
70292W        W36833  28.107  21.046  11.123
70293W        W36834  21.096  37.822   2.613
70294W        W36835  23.578  23.166  13.478
70295W        W36836  13.586  28.219   1.649
70296W        W36837  15.289  31.100  12.865
70297W        W36838  12.218  21.074   2.982
70298W        W36839  27.555  32.762   0.445
70299W        W36840   4.252  22.483   2.206
70300W        W36841  30.866  18.119  13.483
70301W        W36842  10.554  34.030   0.018
70302W        W36843  31.398  10.298   1.325
70303W        W36844  27.791   8.674  10.665
70304W        W36845  17.019  35.886   4.062
70305W        W36846  20.058   0.671  12.726
70306W        W36847   3.995  17.045   4.887
70307W        W36848  26.612  42.209   3.148
70308W        W36849   8.292   3.403   0.558
70309W        W36850  20.526   6.506   4.200
70310W        W36851  41.399  24.080   1.947
70311W        W36852  33.668   6.067  14.928
70312W        W36853  39.809  16.181  13.028
70313W        W36854  28.505   5.400  11.423
70314W        W36855  27.812   0.332   0.839
70315W        W36856   6.737  31.128   1.302
70316W        W36857   4.481   1.044   3.163
70317W        W36858  11.377  34.499  14.859
70318W        W36859   4.100  30.672  10.225
70319W        W36860   2.713  14.039   1.778
70320W        W36861  30.348  14.769   1.870
70321W        W36862  24.266  33.541  11.104
70322W        W36863  20.714  27.793   3.702
70323W        W36864   3.335   2.587   2.199
70324W        W36865  12.712  13.137   0.818
70325W        W36866   5.276  16.182  14.856
70326W        W36867  21.658  27.676  14.986
70327W        W36868  12.711   9.399   4.414
70328W        W36869  24.777   7.619   2.646
70329W        W36870  30.576   3.903  12.558
70330W        W36871   8.839  31.473   3.402
70331W        W36872  26.141  24.472  11.126
70332W        W36873  11.019  29.334   0.983
70333W        W36874   1.001  43.459  14.460
70334W        W36875  11.362  30.657   0.304
70335W        W36876  41.476  15.004  13.215
70336W        W36877  37.643  25.966   1.999
70337W        W36878   3.837   5.703   4.970
70338W        W36879  16.987  25.215   1.371
70339W        W36880  33.355   0.306  14.824
70340W        W36881  29.627  19.628  12.584
70341W        W36882   2.777  36.413  12.210
70342W        W36883  29.014  28.898  14.217
70343W        W36884   5.798   0.040  13.024
70344W        W36885  41.337  29.159  11.971
70345W        W36886   1.355   0.705   1.372
70346W        W36887  33.110  17.578  14.020
70347W        W36888   6.812  26.701  14.845
70348W        W36889   8.345  29.757   2.768
70349W        W36890  42.542  14.106   1.810
70350W        W36891   4.894  28.445  10.469
70351W        W36892  33.059  41.564   4.111
70352W        W36893  31.445   9.176  13.974
70353W        W36894  14.310  33.864  10.502
70354W        W36895   7.706  13.004   0.297
70355W        W36896  29.794  15.210  13.544
70356W        W36897  16.682   1.813  10.690
70357W        W36898  13.597  43.785   0.912
70358W        W36899  40.571  26.209  11.966
70359W        W36900  28.546   4.770   0.184
70360W        W36901   6.212  38.245  13.472
70361W        W36902   2.016  20.547   3.400
70362W        W36903  38.056  25.979   3.277
70363W        W36904  28.179  17.777   4.264
70364W        W36905  39.340  10.752  14.788
70365W        W36906  38.396   1.816  12.937
70366W        W36907   4.869  24.009   3.089
70367W        W36908   9.217   3.516  12.613
70368W        W36909  10.023   4.929   3.722
70369W        W36910  18.582  29.703  12.008
70370W        W36911  22.768  26.448   1.260
70371W        W36912  41.276   0.637   4.655
70372W        W36913  42.932  30.653  12.932
70373W        W36914   0.578   4.827  10.758
70374W        W36915  37.926  40.980   0.453
70375W        W36916  41.738  20.257   0.798
70376W        W36917   2.857   7.379   4.813
70377W        W36918  39.731  30.147  14.494
70378W        W36919  42.843  14.520   0.057
70379W        W36920  27.819  29.083   4.068
70380W        W36921   7.251  24.735  10.260
70381W        W36922   5.578  12.881  12.002
70382W        W36923  29.008   9.092   2.682
70383W        W36924  30.718   5.473  12.808
70384W        W36925  15.095   9.908  12.893
70385W        W36926   4.300  27.127   1.507
70386W        W36927  14.168  10.483  10.448
70387W        W36928  11.747  41.964   2.708
70388W        W36929   3.899   4.712  13.863
70389W        W36930   1.064  41.795  13.633
70390W        W36931  10.577  30.021   4.308
70391W        W36932  12.549  24.215   0.003
70392W        W36933  37.580  11.376   2.950
70393W        W36934  43.492   9.721   0.389
70394W        W36935  32.318  15.083   2.185
70395W        W36936  17.194  22.535  11.547
70396W        W36937  39.374  27.988   4.828
70397W        W36938  26.967  24.902  11.413
70398W        W36939  24.982   2.210  12.543
70399W        W36940  19.285   8.100  12.623
70400W        W36941  36.644  15.603   4.095
70401W        W36942  13.362  14.844  12.959
70402W        W36943  14.248  43.967   1.736
70403W        W36944  22.637  36.367  11.573
70404W        W36945  22.487  23.935   1.959
70405W        W36946  20.908  21.449  13.343
70406W        W36947   7.449   7.301  12.285
70407W        W36948  12.761  21.430   0.722
70408W        W36949   2.785   6.779   2.245
70409W        W36950  21.228  17.171  11.744
70410W        W36951  37.348  17.248  14.535
70411W        W36952  14.697  19.162   3.659
70412W        W36953  31.502  42.709  14.725
70413W        W36954  29.072  40.307   2.337
70414W        W36955  19.773  41.576   4.166
70415W        W36956  18.556   9.294  14.186
70416W        W36957  15.784  10.728  12.968
70417W        W36958   7.941  14.272   1.688
70418W        W36959   5.829  33.738  14.414
70419W        W36960  14.286  32.685   0.795
70420W        W36961  19.177   6.837   5.190
70421W        W36962  14.666   6.885   1.707
70422W        W36963  30.424   2.969   2.405
70423W        W36964  29.576  44.247  13.528
70424W        W36965  20.974  38.837  11.200
70425W        W36966   9.674  10.031  12.180
70426W        W36967  32.050  18.439  13.891
70427W        W36968  21.030  29.295   2.055
70428W        W36969  12.592  38.028   0.379
70429W        W36970  34.430  20.186  10.623
70430W        W36971  22.334  37.860   2.204
70431W        W36972   8.585  28.365  14.969
70432W        W36973  36.068  17.637  14.429
70433W        W36974  18.644  42.578  12.914
70434W        W36975  33.026  36.871   1.316
70435W        W36976   2.910   6.296  13.839
70436W        W36977  21.126   0.707  13.617
70437W        W36978  25.320   5.207   3.692
70438W        W36979   4.176   8.332   0.863
70439W        W36980   5.712   0.803  11.180
70440W        W36981   8.161  43.882   4.120
70441W        W36982  32.715  44.286   3.299
70442W        W36983   3.856   5.943  11.242
70443W        W36984  23.396  20.834  13.619
70444W        W36985  20.390  17.652  11.434
70445W        W36986  29.734  33.629   2.678
70446W        W36987  43.933  23.934  11.112
70447W        W36988   2.501  31.136  14.752
70448W        W36989  33.097  34.593   1.321
70449W        W36990  30.783   1.696   0.358
70450W        W36991  32.364   3.863   1.365
70451W        W36992  34.173  36.835   1.661
70452W        W36993  31.230  21.273  14.552
70453W        W36994  31.529  12.408   0.434
70454W        W36995  24.164  43.029  12.109
70455W        W36996  26.198  20.271   3.702
70456W        W36997   3.574  40.404  10.764
70457W        W36998  28.432  44.783  14.895
70458W        W36999  34.459  23.104   1.058
70459W        W37000  43.442   4.388   3.456
70460W        W37001  31.978  29.056  12.421
70461W        W37002  40.976  35.658  14.116
70462W        W37003  28.596   1.998   3.373
70463W        W37004  15.743   7.321  11.550
70464W        W37005   0.494  23.493  10.789
70465W        W37006  43.443  36.803   2.431
70466W        W37007  18.442   6.445   1.748
70467W        W37008  10.072  26.177  11.124
70468W        W37009  38.883   0.189  13.631
70469W        W37010  44.800   1.767   2.726
70470W        W37011  32.047   1.053  14.686
70471W        W37012   1.501  22.112   4.670
70472W        W37013  34.415  18.848   0.180
70473W        W37014   0.869  12.246   2.963
70474W        W37015  27.100  33.995   0.291
70475W        W37016   3.877  28.252   1.250
70476W        W37017  12.860   8.126   3.851
70477W        W37018  27.046  10.798   2.652
70478W        W37019  23.682   1.486   0.510
70479W        W37020  12.336  30.620  11.978
70480W        W37021   1.431  33.839   3.274
70481W        W37022  20.135  40.481   2.251
70482W        W37023  25.697  15.120   1.523
70483W        W37024  40.501  15.464   5.446
70484W        W37025  39.909  13.075   3.092
70485W        W37026  25.147  32.430  10.721
70486W        W37027   8.174  22.659  12.493
70487W        W37028   0.000   1.769   1.843
70488W        W37029  14.305   9.857  10.632
70489W        W37030  38.653   7.527  12.090
70490W        W37031  36.818  39.556   2.998
70491W        W37032  36.347  28.695  14.434
70492W        W37033  16.486  20.087  12.741
70493W        W37034  44.394   0.666  10.307
70494W        W37035  24.186  21.742   1.840
70495W        W37036  34.896  38.899  13.139
70496W        W37037   1.833  22.172  12.532
70497W        W37038  22.680   3.514   3.061
70498W        W37039   4.773  13.268   4.272
70499W        W37040  38.319  37.270  14.669
70500W        W37041  34.585  23.696  12.496
70501W        W37042  30.805  20.558  12.057
70502W        W37043  32.907  21.097  14.039
70503W        W37044  16.930   3.877   4.277
70504W        W37045  23.207  14.121  11.118
70505W        W37046  32.941  43.534  14.956
70506W        W37047   3.266  39.591   4.512
70507W        W37048   0.344  42.025  13.446
70508W        W37049  20.900  42.791   2.282
70509W        W37050  18.480  43.102   0.786
70510W        W37051  38.436  39.862   1.821
70511W        W37052  40.288  25.677   3.240
70512W        W37053  28.663   9.149  11.085
70513W        W37054   3.961  11.124  13.758
70514W        W37055  44.597  13.934  10.096
70515W        W37056   0.364  41.406   3.770
70516W        W37057   2.253   5.955  14.389
70517W        W37058  17.210   1.925   2.837
70518W        W37059  22.007  26.323  12.952
70519W        W37060  34.491  12.283   4.705
70520W        W37061  24.623   4.813   2.638
70521W        W37062  13.294  37.396  14.775
70522W        W37063  34.008  26.128  14.899
70523W        W37064   1.387  28.456   4.986
70524W        W37065   1.758  21.086  13.776
70525W        W37066  11.316   1.378  13.037
70526W        W37067  23.134  14.641  11.003
70527W        W37068   3.879  31.243  14.932
70528W        W37069   1.344  16.808   3.259
70529W        W37070  43.202  10.436  12.775
70530W        W37071  18.777  34.840   3.245
70531W        W37072  32.069   2.237   5.069
70532W        W37073  38.110  15.170   3.817
70533W        W37074   4.282  20.246   0.300
70534W        W37075  33.030   6.855   0.670
70535W        W37076  40.424  14.070   3.595
70536W        W37077  17.313  35.902  10.756
70537W        W37078  17.710  38.834   2.315
70538W        W37079  11.064  38.019   1.668
70539W        W37080  13.149   9.173  12.417
70540W        W37081   4.471   1.514   1.616
70541W        W37082  23.207  21.754   0.745
70542W        W37083  17.726  11.107   4.790
70543W        W37084  21.438  10.905   2.805
70544W        W37085   4.788  37.554   1.647
70545W        W37086  12.768  38.235   4.173
70546W        W37087  18.969  20.193   3.394
70547W        W37088  31.895  19.251   3.927
70548W        W37089  27.450   3.941  12.528
70549W        W37090  35.591  20.986  14.822
70550W        W37091  22.626   6.332  11.191
70551W        W37092  23.717  37.760  13.123
70552W        W37093  27.958  43.392  14.497
70553W        W37094  30.729  32.875   3.195
70554W        W37095  22.649   6.576  10.731
70555W        W37096  28.715  25.229  11.926
70556W        W37097  31.393  15.338  10.851
70557W        W37098   6.864  15.949  11.188
70558W        W37099  17.341  28.756   0.488
70559W        W37100  17.612   4.709  10.783
70560W        W37101  12.296  12.813   1.987
70561W        W37102  41.477  27.003   4.735
70562W        W37103  30.983   4.695   2.837
70563W        W37104  26.891  22.659  12.503
70564W        W37105  36.075  18.681   2.368
70565W        W37106  44.846  33.605   0.510
70566W        W37107  31.640  41.223  14.982
70567W        W37108  13.990  27.120  12.949
70568W        W37109   7.171  23.793  14.997
70569W        W37110  11.943  34.400   1.210
70570W        W37111  43.112  42.496  11.972
70571W        W37112  20.990  16.553  12.961
70572W        W37113  23.204  13.212  10.701
70573W        W37114   3.780  13.682  14.423
70574W        W37115  17.006  39.861   2.007
70575W        W37116   0.388  35.484   3.794
70576W        W37117   7.866  21.311  13.456
70577W        W37118  43.311  15.487   2.346
70578W        W37119  14.804  29.073  12.899
70579W        W37120  15.348   8.720  13.619
70580W        W37121  19.538  34.996   4.023
70581W        W37122  21.497  23.065  12.678
70582W        W37123  14.334   1.982   1.358
70583W        W37124  10.126  26.565  13.543
70584W        W37125  35.488  13.197  11.214
70585W        W37126  44.962  23.989   2.496
70586W        W37127   6.192   8.797   1.284
70587W        W37128  15.847   5.846   2.394
70588W        W37129   8.294  26.400  12.868
70589W        W37130   4.867  41.351   2.607
70590W        W37131  14.246  32.513  11.832
70591W        W37132  16.844  27.875   3.214
70592W        W37133  44.345   8.548  14.236
70593W        W37134  23.997   8.267  10.863
70594W        W37135  34.989  26.742   3.299
70595W        W37136  24.671  39.972  12.630
70596W        W37137   8.641  11.129  13.054
70597W        W37138   6.245  16.324  13.360
70598W        W37139  31.154  19.318   0.814
70599W        W37140  22.571  30.048  13.839
70600W        W37141  24.034  13.267  14.472
70601W        W37142   7.456   0.345  14.833
70602W        W37143   2.480   9.207  13.912
70603W        W37144   8.216  21.689  13.566
70604W        W37145   8.898   4.329  12.119
70605W        W37146  40.523  10.538  14.244
70606W        W37147  20.830  27.297   1.328
70607W        W37148  17.023  44.893  12.549
70608W        W37149  14.304  28.046   0.987
70609W        W37150  29.741  41.497   0.736
70610W        W37151  28.115  21.102  12.098
70611W        W37152  10.233  17.626   3.744
70612W        W37153  25.410  12.631   0.805
70613W        W37154  34.055  24.488  12.139
70614W        W37155  19.183  35.286  11.567
70615W        W37156  25.313  28.100   4.895
70616W        W37157  10.816  19.285  14.576
70617W        W37158   2.792  16.157   1.301
70618W        W37159  28.739  28.593  14.523
70619W        W37160  21.193  44.460  13.774
70620W        W37161  30.249  17.542  11.565
70621W        W37162  25.187  32.574  12.915
70622W        W37163  44.394  37.351  11.164
70623W        W37164  35.363  31.372  14.351
70624W        W37165  37.396   8.365  11.462
70625W        W37166  27.628  35.201   2.314
70626W        W37167   9.123  41.946   5.063
70627W        W37168  28.604   4.888  11.349
70628W        W37169  18.977  34.936   2.711
70629W        W37170  19.436  33.900   0.414
70630W        W37171  30.083  21.059   3.114
70631W        W37172   6.632  39.257  12.246
70632W        W37173  38.059   1.897   2.858
70633W        W37174  43.905   0.364   3.766
70634W        W37175   6.134   3.513  13.802
70635W        W37176  14.861  12.102  10.155
70636W        W37177  30.109  41.790   0.930
70637W        W37178  31.177  36.087   3.684
70638W        W37179  44.261   0.964   4.626
70639W        W37180   8.927   3.194  12.977
70640W        W37181  38.541  31.643  11.850
70641W        W37182   7.844  32.561   3.558
70642W        W37183  13.217  35.442   4.563
70643W        W37184  44.813  30.618  12.413
70644W        W37185  12.197  13.957   3.597
70645W        W37186  18.303  31.562   2.942
70646W        W37187  12.879  26.046   0.188
70647W        W37188   9.407   1.970  11.270
70648W        W37189  32.393  16.090  10.734
70649W        W37190  41.324  40.476   0.130
70650W        W37191  42.491   9.353  13.422
70651W        W37192  28.080  13.698  14.059
70652W        W37193  33.590  21.791  13.110
70653W        W37194  31.097  15.554  10.220
70654W        W37195  34.627   7.807  14.303
70655W        W37196  38.116  13.051  14.568
70656W        W37197  32.890  27.399   3.233
70657W        W37198  11.311   4.757  12.627
70658W        W37199  39.930  25.778  14.770
70659W        W37200  10.058  25.190   4.539
70660W        W37201  20.811  29.952  10.602
70661W        W37202   0.066   0.214  13.562
70662W        W37203   5.929  39.815   5.422
70663W        W37204   7.171  40.279  14.038
70664W        W37205  44.853  19.762   2.767
70665W        W37206  35.309   6.396  12.056
70666W        W37207   9.667  38.867   1.204
70667W        W37208  23.791  12.603   2.660
70668W        W37209  38.803  38.389  12.445
70669W        W37210  14.328  15.131   2.358
70670W        W37211  32.568  11.420   0.909
70671W        W37212  34.248  25.287   1.916
70672W        W37213  24.582   9.953  14.412
70673W        W37214  29.703  31.151  13.347
70674W        W37215  36.351   1.911   9.865
70675W        W37216  34.940  38.861   1.722
70676W        W37217  22.462  38.816  13.732
70677W        W37218  36.638  42.379   3.720
70678W        W37219  11.738  16.729   2.035
70679W        W37220  27.680  42.737  11.437
70680W        W37221  23.041  39.720  14.297
70681W        W37222  21.007   0.686  14.512
70682W        W37223  27.215  21.163   1.742
70683W        W37224  13.185  42.350  12.960
70684W        W37225  26.259  29.546   3.478
70685W        W37226  34.064  32.945   4.618
70686W        W37227  36.310  41.162  11.583
70687W        W37228  33.677  18.648   3.223
70688W        W37229  24.542  38.389   0.421
70689W        W37230   3.458  44.891  13.238
70690W        W37231  27.996   2.958   2.752
70691W        W37232  31.523  32.225  11.900
70692W        W37233  34.162   3.915  12.066
70693W        W37234  25.197   5.536   1.225
70694W        W37235  41.599  22.203   3.277
70695W        W37236  44.123  11.717  12.232
70696W        W37237  27.538   2.177  11.105
70697W        W37238  39.007  12.798  10.691
70698W        W37239  41.990  12.882  14.962
70699W        W37240  18.851  30.003   3.831
70700W        W37241  41.423  41.970   3.452
70701W        W37242  29.599  21.111  12.378
70702W        W37243  20.213   7.755   3.610
70703W        W37244   2.830  34.799  14.324
70704W        W37245   0.433  22.208  12.898
70705W        W37246  36.559  40.505  10.506
70706W        W37247  34.081  32.141   0.216
70707W        W37248  25.244  36.651  12.657
70708W        W37249  16.584  15.801   1.406
70709W        W37250  13.323  36.821  11.547
70710W        W37251  37.236  16.089   0.856
70711W        W37252  35.567  36.877   1.795
70712W        W37253  40.789  32.043  14.270
70713W        W37254  39.763  44.486   3.368
70714W        W37255  21.459  16.643   4.634
70715W        W37256  40.783  39.357   2.244
70716W        W37257  10.782  13.344  13.118
70717W        W37258  18.055  37.529   4.153
70718W        W37259  24.198  39.652  11.837
70719W        W37260  11.198  42.723  12.256
70720W        W37261  38.906  10.848  11.588
70721W        W37262  36.975   2.297  10.178
70722W        W37263  24.104   4.757  13.382
70723W        W37264   8.697  40.374   2.074
70724W        W37265   1.223  42.570  10.546
70725W        W37266  41.478  22.281   0.781
70726W        W37267  42.807  36.531   0.864
70727W        W37268  14.080  11.716  10.580
70728W        W37269   4.410   0.799  12.446
70729W        W37270   4.245  26.134   3.160
70730W        W37271  43.500  40.959   0.442
70731W        W37272  41.540  14.838   3.931
70732W        W37273  18.329  13.614   1.387
70733W        W37274   8.190  15.854  10.793
70734W        W37275  36.816  13.676  13.518
70735W        W37276   2.457  14.557   4.174
70736W        W37277   9.746  23.553  10.973
70737W        W37278  42.047  32.901  14.478
70738W        W37279   4.876  41.557  13.437
70739W        W37280  36.831  13.412   3.691
70740W        W37281  18.821  36.818  12.180
70741W        W37282  15.660  20.949  14.061
70742W        W37283  43.377  44.742  13.942
70743W        W37284  22.014  38.214  13.288
70744W        W37285  20.178  22.449  10.266
70745W        W37286  43.547  18.084   0.922
70746W        W37287  24.546  37.526   1.461
70747W        W37288   0.279  31.577  12.501
70748W        W37289  21.063  39.493  10.721
70749W        W37290  23.425   3.260  13.132
70750W        W37291  44.274   0.741   3.620
70751W        W37292  29.275  40.028  13.481
70752W        W37293  34.782  12.930  10.335
70753W        W37294   9.725   5.955  12.472
70754W        W37295  25.630  16.270  11.124
70755W        W37296  13.637   8.845  11.987
70756W        W37297  13.514  20.159  14.914
70757W        W37298   7.248  13.812   2.444
70758W        W37299  16.335  20.490  13.016
70759W        W37300  15.618   4.316   0.813
70760W        W37301  27.169  28.481  14.159
70761W        W37302  29.364  20.519   1.037
70762W        W37303   5.307  24.270   1.719
70763W        W37304   6.899  24.302  10.735
70764W        W37305  29.307  26.671  13.036
70765W        W37306   6.119   3.610  10.297
70766W        W37307   5.480  43.837   2.316
70767W        W37308  30.653  21.006  11.634
70768W        W37309  30.778  17.557  10.496
70769W        W37310  40.595  13.834   0.347
70770W        W37311  17.339   7.745   2.372
70771W        W37312  18.516  22.719  10.725
70772W        W37313  25.263  12.702  11.573
70773W        W37314  28.385  14.377   4.094
70774W        W37315  13.012  30.186  11.537
70775W        W37316  22.069  44.433  10.456
70776W        W37317  11.617  21.434   4.362
70777W        W37318   8.946  31.557   1.928
70778W        W37319  40.830  17.044  13.165
70779W        W37320  44.179  21.932   0.379
70780W        W37321   0.908  44.325  13.331
70781W        W37322  21.676  15.318   0.870
70782W        W37323   6.429   1.225  14.788
70783W        W37324  22.817  44.529   3.310
70784W        W37325  17.713   2.230   3.538
70785W        W37326  10.752  11.406   1.180
70786W        W37327  42.772  36.593   1.742
70787W        W37328  17.269  37.733  14.408
70788W        W37329  35.449  18.067  13.823
70789W        W37330  40.981  31.729   3.243
70790W        W37331   9.878  27.118   2.316
70791W        W37332  44.353  36.819   4.548
70792W        W37333  40.608  40.865   3.253
70793W        W37334  23.162   0.953  14.753
70794W        W37335   7.700  18.594  11.895
70795W        W37336  12.314  30.867   0.267
70796W        W37337  12.889   5.504  14.034
70797W        W37338  18.588  32.923  10.044
70798W        W37339   4.823  19.229  10.496
70799W        W37340   6.293  19.424   3.384
70800W        W37341  40.818  40.394   0.316
70801W        W37342  29.024   9.971  11.103
70802W        W37343  15.513   8.408  14.425
70803W        W37344  27.201  10.684  10.576
70804W        W37345  31.584  19.045  13.818
70805W        W37346  29.371  11.709  13.793
70806W        W37347  10.116  26.661  14.479
70807W        W37348  21.067  36.881   0.234
70808W        W37349  12.191  28.084  10.721
70809W        W37350  40.910  15.925   2.084
70810W        W37351  21.685  21.799  12.055
70811W        W37352  27.625  14.372  12.626
70812W        W37353  27.195   5.930   2.633
70813W        W37354  31.408  40.868  10.746
70814W        W37355  28.196  22.636   2.758
70815W        W37356   2.296   5.470  12.531
70816W        W37357  37.517  12.294  13.617
70817W        W37358   2.680  25.922   3.154
70818W        W37359  28.449  31.130   4.120
70819W        W37360  41.997  20.738  10.658
70820W        W37361  26.467   6.431   2.367
70821W        W37362  19.980  44.826  13.893
70822W        W37363  35.956   9.510   2.044
70823W        W37364  25.108  41.056   1.293
70824W        W37365   4.293  17.025  14.732
70825W        W37366  32.217  18.603   5.065
70826W        W37367  21.097  39.090   3.157
70827W        W37368  11.200   4.368  10.695
70828W        W37369  25.817  28.968   0.991
70829W        W37370  17.507  30.241  12.523
70830W        W37371  31.318  20.074   4.236
70831W        W37372  30.589   1.232   0.509
70832W        W37373  16.587  39.032  14.438
70833W        W37374   9.255   9.217   3.864
70834W        W37375  38.315   8.412  12.110
70835W        W37376  32.905  28.543   4.078
70836W        W37377  17.239  21.917   0.752
70837W        W37378   9.254   2.708   0.245
70838W        W37379  12.594  28.033   1.141
70839W        W37380  10.233  39.012   0.788
70840W        W37381  26.466  34.637  14.874
70841W        W37382  35.930   0.175   1.904
70842W        W37383  31.872  25.572   2.755
70843W        W37384  15.094  41.007  14.859
70844W        W37385  33.355  16.747   3.327
70845W        W37386  14.401   8.574  11.486
70846W        W37387  27.182  22.503  11.520
70847W        W37388   1.483   9.185   0.855
70848W        W37389  26.416  27.772  10.591
70849W        W37390  38.294   1.834  13.464
70850W        W37391  23.056  37.579  11.956
70851W        W37392  36.910  32.729   0.781
70852W        W37393   5.472  22.556   1.514
70853W        W37394  15.001  11.378  14.488
70854W        W37395   0.713   5.875  11.228
70855W        W37396  31.622  33.788  11.094
70856W        W37397  43.219  42.957  11.624
70857W        W37398  31.042  16.844   3.685
70858W        W37399  22.523   4.909  11.158
70859W        W37400  18.295  37.098   2.335
70860W        W37401  32.112  41.820   4.509
70861W        W37402  22.440  22.768   1.289
70862W        W37403  20.505  22.947   0.286
70863W        W37404  31.989  32.701   4.525
70864W        W37405  21.431  43.359   0.785
70865W        W37406  34.044  25.159   4.630
70866W        W37407  15.094  26.918   3.641
70867W        W37408  14.655  40.867  12.415
70868W        W37409  38.772  27.924  12.900
70869W        W37410  32.530  19.528   4.151
70870W        W37411  15.979  21.005   1.510
70871W        W37412  21.360  33.856  13.518
70872W        W37413  35.810  24.158   1.280
70873W        W37414  27.258   0.411  11.228
70874W        W37415  37.296  27.059   1.513
70875W        W37416  31.428  23.377   0.408
70876W        W37417  22.489  20.587   2.148
70877W        W37418  22.958  25.659   2.394
70878W        W37419   2.550  11.810  11.906
70879W        W37420   0.119  10.654   1.319
70880W        W37421   7.676  42.919  14.538
70881W        W37422  22.964  26.469   4.095
70882W        W37423   7.524  35.993  10.948
70883W        W37424  29.412  42.772  13.365
70884W        W37425  24.097  25.731   1.852
70885W        W37426  40.961  26.058   1.135
70886W        W37427   1.500  18.919  11.074
70887W        W37428  15.217  22.213  11.803
70888W        W37429   1.673  27.909   0.444
70889W        W37430  25.597  41.413  14.111
70890W        W37431   6.008   6.410  14.718
70891W        W37432  35.453   4.999  14.877
70892W        W37433  34.945  22.639   2.702
70893W        W37434  29.771  42.254  14.991
70894W        W37435  24.642  32.204  14.481
70895W        W37436  42.814  38.117   4.206
70896W        W37437  21.634  23.559   4.112
70897W        W37438  19.468  36.878   1.836
70898W        W37439   0.765   2.328   0.797
70899W        W37440  32.890  18.882   1.578
70900W        W37441  13.058  21.151   3.235
70901W        W37442  39.531  32.394  14.493
70902W        W37443   3.398  33.489  13.987
70903W        W37444  30.247   5.440  12.630
70904W        W37445  24.286  43.986  14.932
70905W        W37446   6.097  12.815  12.042
70906W        W37447  18.613  10.360   1.325
70907W        W37448  34.046   0.902   1.512
70908W        W37449  44.505   6.321  10.210
70909W        W37450  41.597  36.817  11.712
70910W        W37451   2.691  20.060  11.570
70911W        W37452  38.002  35.875   2.904
70912W        W37453  33.065   4.386  10.785
70913W        W37454  41.781  40.438   1.436
70914W        W37455   3.300   7.234   3.669
70915W        W37456   7.229  19.480   3.271
70916W        W37457  34.598  30.445  11.109
70917W        W37458  36.030  25.480   4.122
70918W        W37459  39.644  11.685  13.312
70919W        W37460   8.234  12.639   3.106
70920W        W37461  29.115  23.608   4.608
70921W        W37462  20.949  41.951   4.103
70922W        W37463  11.660   0.759  13.416
70923W        W37464  17.250  27.173   0.266
70924W        W37465  31.661  16.834   4.606
70925W        W37466   1.884   9.761   1.324
70926W        W37467  25.109  29.365   0.282
70927W        W37468  14.375  32.305  12.319
70928W        W37469   7.305   4.936  14.006
70929W        W37470  20.214  19.252  12.010
70930W        W37471  26.432  37.006   1.710
70931W        W37472   2.885   2.376  12.910
70932W        W37473  12.011   0.272   4.224
70933W        W37474  16.606  29.588   2.754
70934W        W37475  20.256  27.436   4.053
70935W        W37476  14.453  16.880  12.563
70936W        W37477  11.445  29.638   0.960
70937W        W37478  25.007  42.648  11.205
70938W        W37479  40.426  13.145   4.003
70939W        W37480  24.227  39.482   2.321
70940W        W37481  23.203  20.490  13.985
70941W        W37482   3.412  29.023  11.077
70942W        W37483  39.401  40.116   1.634
70943W        W37484   8.128  27.675  14.373
70944W        W37485  23.808   7.822  14.678
70945W        W37486   2.969  11.796  14.764
70946W        W37487  29.143  34.366   1.174
70947W        W37488  36.667  11.301   1.823
70948W        W37489  21.667  20.490  14.070
70949W        W37490  21.658   7.404  11.999
70950W        W37491  12.546  31.147  10.745
70951W        W37492   1.501   3.221   3.633
70952W        W37493   2.896  11.127  11.633
70953W        W37494   1.020  20.761  11.477
70954W        W37495  27.664  19.593   3.848
70955W        W37496  36.536  42.029   0.209
70956W        W37497  27.788  39.345   3.386
70957W        W37498  18.138  20.970   2.404
70958W        W37499  33.452  29.401  12.128
70959W        W37500  39.935  38.811   2.691
70960W        W37501  18.264  24.231   3.094
70961W        W37502  30.960  22.386  10.285
70962W        W37503  16.270  43.231   0.284
70963W        W37504  25.136  32.725   4.579
70964W        W37505  11.882  38.915  13.681
70965W        W37506  30.067  40.445   0.741
70966W        W37507  21.026   9.517   3.531
70967W        W37508  30.593  32.268   4.168
70968W        W37509  21.793  29.200  13.986
70969W        W37510  24.704  11.634  11.574
70970W        W37511   1.545   2.371  12.210
70971W        W37512  16.062   6.849  14.357
70972W        W37513  36.146  17.638   2.620
70973W        W37514  16.559   7.616   0.472
70974W        W37515  41.856  22.868   1.613
70975W        W37516   0.572  38.825   1.227
70976W        W37517  44.875  12.391  11.209
70977W        W37518   6.244  32.097   4.975
70978W        W37519  34.488  29.956   4.174
70979W        W37520   8.785   3.898  10.822
70980W        W37521   6.645  42.433   1.885
70981W        W37522   9.397  31.815   1.831
70982W        W37523  12.133  42.269   0.720
70983W        W37524  34.880  19.720   0.387
70984W        W37525  24.526  23.760   4.130
70985W        W37526  27.447  20.049  11.732
70986W        W37527  13.983   0.311  10.426
70987W        W37528  31.545  19.777   4.604
70988W        W37529   4.712  30.956  14.857
70989W        W37530  43.826  27.498  12.019
70990W        W37531  20.747  37.939   4.438
70991W        W37532  16.229  29.003  13.579
70992W        W37533   1.735  35.470   4.603
70993W        W37534  22.961  17.488   1.093
70994W        W37535  22.002  35.626  12.569
70995W        W37536  39.557   1.113   3.450
70996W        W37537  23.838   8.737   2.190
70997W        W37538  43.218   9.192  12.139
70998W        W37539   4.331  28.053  14.239
70999W        W37540   4.629  23.343   2.325
71000W        W37541  34.560  10.056  12.647
71001W        W37542   5.593  42.442  11.450
71002W        W37543   3.806  27.228   1.878
71003W        W37544  10.690  42.784  12.065
71004W        W37545  34.318  33.930   1.727
71005W        W37546  42.803  16.393   2.163
71006W        W37547  25.903  29.404   3.090
71007W        W37548  23.302  31.522   1.766
71008W        W37549  23.174  15.883  11.790
71009W        W37550   5.256  34.028   4.630
71010W        W37551  31.498  30.910   3.664
71011W        W37552  34.979   4.884   4.653
71012W        W37553  44.526  10.602   1.686
71013W        W37554  17.744   8.770  11.296
71014W        W37555  15.678  27.518  14.365
71015W        W37556   6.532  25.158  14.870
71016W        W37557  17.495  41.647   4.107
71017W        W37558  23.511  43.283   1.647
71018W        W37559  17.048  28.080   2.769
71019W        W37560  10.851  22.567   3.337
71020W        W37561   3.486  17.099   4.091
71021W        W37562   0.782   9.125   1.093
71022W        W37563   5.408   0.165   0.291
71023W        W37564  38.845  15.307   4.917
71024W        W37565  44.816   0.933  10.467
71025W        W37566  43.349  29.045   2.014
71026W        W37567  16.989  22.263   4.134
71027W        W37568  27.510  43.708  12.601
71028W        W37569  14.040  20.210   2.662
71029W        W37570   1.409  37.908   4.526
71030W        W37571   6.926   3.280   2.803
71031W        W37572   8.219  13.613   2.739
71032W        W37573   8.190   0.902  11.949
71033W        W37574  43.806  31.064  11.618
71034W        W37575  37.666  30.008   3.711
71035W        W37576  27.025  23.488  11.342
71036W        W37577  10.401  39.430  12.735
71037W        W37578   2.090  44.303  10.584
71038W        W37579  32.133  35.492  14.324
71039W        W37580  24.877  19.741  12.294
71040W        W37581  27.690  20.743  10.719
71041W        W37582   8.107  42.902   3.558
71042W        W37583   8.668  26.228  10.851
71043W        W37584  36.381   8.842  12.722
71044W        W37585  24.108  32.161   1.906
71045W        W37586  38.898  15.384  10.606
71046W        W37587  10.314   4.396   1.016
71047W        W37588  37.864  26.622  12.263
71048W        W37589  40.930  44.758  10.969
71049W        W37590   9.943  44.610   4.407
71050W        W37591   7.910  29.447  14.533
71051W        W37592  28.338   8.236   1.853
71052W        W37593   0.906  16.175   2.004
71053W        W37594  30.436  43.586  14.881
71054W        W37595  12.101  15.989   1.171
71055W        W37596   2.683   4.336  12.959
71056W        W37597  32.424  10.483   3.170
71057W        W37598   5.408  22.539   4.327
71058W        W37599  11.966  11.969  11.577
71059W        W37600  15.203   5.293   2.677
71060W        W37601   2.890   8.439  12.060
71061W        W37602  37.312  25.202   4.421
71062W        W37603   3.323  33.741   0.811
71063W        W37604   9.578  42.490  12.003
71064W        W37605  22.574  40.714   0.580
71065W        W37606  36.416  27.614  10.732
71066W        W37607  39.894  41.528   1.920
71067W        W37608  15.911  43.079  13.076
71068W        W37609  29.028  30.398   0.912
71069W        W37610  20.721  24.933   4.846
71070W        W37611  25.580   6.144   1.939
71071W        W37612  22.074  43.304  14.363
71072W        W37613  32.160  29.593   2.271
71073W        W37614  13.799   4.208  14.513
71074W        W37615  34.119  26.689  13.868
71075W        W37616  33.534   6.733   2.038
71076W        W37617  37.449   4.151   1.972
71077W        W37618  15.757  13.162  10.743
71078W        W37619  30.809  24.657   1.332
71079W        W37620   4.436  38.835   0.316
71080W        W37621  15.034  42.050  14.882
71081W        W37622   5.719  28.750   4.138
71082W        W37623   7.464  24.754   3.944
71083W        W37624  10.729  11.685   3.716
71084W        W37625   2.680  44.654  12.898
71085W        W37626   4.839  38.101  10.212
71086W        W37627  18.735  11.808  13.280
71087W        W37628  19.125  13.855   0.405
71088W        W37629  43.911  35.492  13.382
71089W        W37630  23.628   1.196   2.800
71090W        W37631  21.192   3.152   3.183
71091W        W37632  14.802  11.241   3.635
71092W        W37633  37.935  36.154   0.391
71093W        W37634  23.967   2.336  11.004
71094W        W37635  31.935   3.394   1.940
71095W        W37636  35.324  33.601  11.022
71096W        W37637   5.309  24.649  13.739
71097W        W37638   5.010  16.737  10.576
71098W        W37639   4.250  27.591  10.930
71099W        W37640  43.376  24.207  14.372
71100W        W37641  40.325  17.098   0.987
71101W        W37642  34.581  10.328  10.543
71102W        W37643  23.268  42.890   4.172
71103W        W37644  19.082  19.307  13.956
71104W        W37645  41.153  32.068  10.277
71105W        W37646  13.788  20.277   3.118
71106W        W37647  30.132  12.829  12.045
71107W        W37648  41.016  30.406   4.739
71108W        W37649  35.576  15.567  14.516
71109W        W37650  28.656  33.543   2.700
71110W        W37651  16.193  10.871  11.712
71111W        W37652  14.205  29.351   3.140
71112W        W37653  37.270   0.152   1.813
71113W        W37654   7.394  43.887  11.736
71114W        W37655  26.898  20.764   1.818
71115W        W37656  29.036   3.722   4.104
71116W        W37657  38.044  28.703   0.280
71117W        W37658  30.328  19.723   4.141
71118W        W37659   6.026  28.515   1.751
71119W        W37660  12.887  24.220   1.632
71120W        W37661   4.341  24.540   4.585
71121W        W37662  21.600  14.790   0.847
71122W        W37663  23.134  38.305  14.297
71123W        W37664   1.104  20.090   1.310
71124W        W37665  22.419  21.864   1.928
71125W        W37666  29.036  12.868   3.585
71126W        W37667  11.915  24.224   1.847
71127W        W37668   7.948   4.837   4.134
71128W        W37669  17.691  40.265  11.272
71129W        W37670  16.842  42.335   0.054
71130W        W37671  13.732  19.806  11.177
71131W        W37672  30.613  34.932  13.807
71132W        W37673  28.107  32.973  13.894
71133W        W37674  41.321  33.382  14.547
71134W        W37675  40.391  26.849   4.674
71135W        W37676   3.664  11.469  13.508
71136W        W37677   8.224  28.652  11.689
71137W        W37678  37.093   1.353   4.071
71138W        W37679   0.292   7.200   1.878
71139W        W37680  22.789  34.403  11.286
71140W        W37681   0.371  39.450  13.498
71141W        W37682  28.431  24.060   0.336
71142W        W37683  15.713   9.635   2.961
71143W        W37684   5.545  38.606   5.316
71144W        W37685  33.591   5.894  14.401
71145W        W37686  10.405  32.940   2.565
71146W        W37687  43.657  15.096   2.305
71147W        W37688  28.168  26.156   0.495
71148W        W37689   5.341  39.388   4.699
71149W        W37690  33.589  30.528   3.234
71150W        W37691   1.297  24.269   5.021
71151W        W37692  30.111  20.915  12.497
71152W        W37693  44.193  19.072   1.708
71153W        W37694  37.937   0.397  12.163
71154W        W37695  32.138  23.126  14.766
71155W        W37696  10.883  40.018   9.824
71156W        W37697  38.065  29.419  10.729
71157W        W37698   4.649  24.547  12.363
71158W        W37699  11.402  32.952  13.917
71159W        W37700  24.038  25.565  12.949
71160W        W37701  20.473  12.129   2.693
71161W        W37702  44.255   7.980   2.704
71162W        W37703  35.386   5.741   4.200
71163W        W37704  18.692   6.741   4.320
71164W        W37705   3.760  22.535  10.698
71165W        W37706  16.638  17.293  12.916
71166W        W37707  14.656  38.661   3.197
71167W        W37708   5.918  22.331   3.455
71168W        W37709  35.149   1.228   2.310
71169W        W37710  37.367   9.704   4.318
71170W        W37711  21.264   0.377   2.751
71171W        W37712  24.659   7.037  11.089
71172W        W37713  24.653  15.200  14.759
71173W        W37714   7.240  21.622   1.086
71174W        W37715  15.418  17.937  11.025
71175W        W37716  33.821  44.852  12.614
71176W        W37717  29.735  31.142  14.302
71177W        W37718  17.014  12.791   0.806
71178W        W37719  26.554  21.556   1.692
71179W        W37720  36.073  32.083  13.397
71180W        W37721  19.091  13.087  10.282
71181W        W37722  31.401  27.241  12.443
71182W        W37723  24.740  27.747  14.447
71183W        W37724  11.244  26.391   2.269
71184W        W37725  11.131   6.668   0.324
71185W        W37726   0.368   1.536   3.268
71186W        W37727  13.809   7.760   4.501
71187W        W37728  43.398  25.031   4.662
71188W        W37729  22.713  27.953  14.119
71189W        W37730  42.739  22.601   1.075
71190W        W37731  25.869  44.658   4.100
71191W        W37732  32.431  32.141  13.111
71192W        W37733  44.475  23.744   2.943
71193W        W37734   4.879  33.386  11.075
71194W        W37735  43.762  12.874  13.921
71195W        W37736  12.018  17.815  12.505
71196W        W37737  26.544  39.199   0.108
71197W        W37738  38.829  38.783  11.100
71198W        W37739  11.946   9.263  12.905
71199W        W37740  44.748  41.125   1.248
71200W        W37741  31.551  11.354   3.202
71201W        W37742  34.259  37.806  12.371
71202W        W37743  34.394  29.604  14.909
71203W        W37744  13.208  18.104  13.746
71204W        W37745   5.191   1.208  13.915
71205W        W37746  27.723  18.069  13.892
71206W        W37747  21.806  28.034  12.634
71207W        W37748   0.298  31.646  11.601
71208W        W37749  43.915  39.327   3.087
71209W        W37750  34.518  32.650  12.449
71210W        W37751   0.285   8.152  12.520
71211W        W37752   2.095   3.707  12.669
71212W        W37753  15.828  25.049  10.390
71213W        W37754  18.131  29.054  10.792
71214W        W37755   0.886   8.092  13.711
71215W        W37756  17.748  13.600  13.960
71216W        W37757  40.858  29.554  10.715
71217W        W37758  43.345  19.721  14.278
71218W        W37759  12.085  10.112  13.768
71219W        W37760  10.168   3.240  14.499
71220W        W37761   3.764  30.155   0.351
71221W        W37762  37.831  43.802   3.996
71222W        W37763  23.546  28.052   2.356
71223W        W37764  10.857  18.535  12.546
71224W        W37765  31.076  29.388  11.026
71225W        W37766  15.343  14.520  14.140
71226W        W37767   5.286  12.109   2.809
71227W        W37768  23.059  42.049   4.736
71228W        W37769   5.793   1.733  12.012
71229W        W37770   0.268  20.892   4.912
71230W        W37771  22.718  41.068   2.707
71231W        W37772  16.284  42.229  13.910
71232W        W37773  18.295  24.145   4.644
71233W        W37774  16.771   8.391  14.998
71234W        W37775  13.336   3.122  12.997
71235W        W37776  31.212  23.026   1.368
71236W        W37777   7.276  37.618   0.932
71237W        W37778  12.440  10.871  14.501
71238W        W37779  32.515  20.213   3.343
71239W        W37780   8.225  31.502   4.103
71240W        W37781  27.298  21.760  13.501
71241W        W37782  30.442  42.975   3.684
71242W        W37783  24.511  21.083  11.165
71243W        W37784  44.780  39.722   2.828
71244W        W37785  20.793  42.809   3.134
71245W        W37786   1.296  27.996  14.506
71246W        W37787  28.113   8.203  11.464
71247W        W37788  14.885  13.820   1.919
71248W        W37789  18.807   5.169  11.881
71249W        W37790  32.603  18.558   3.162
71250W        W37791  21.515  10.121   0.043
71251W        W37792   6.240  37.727   0.381
71252W        W37793  21.804  36.818  12.756
71253W        W37794  16.678  23.292   1.778
71254W        W37795   2.760   1.425   0.412
71255W        W37796  21.180  14.822   0.271
71256W        W37797  28.009   9.889   2.656
71257W        W37798  22.499  17.707  12.109
71258W        W37799  21.146  32.404  14.293
71259W        W37800  11.124  20.968  12.017
71260W        W37801  42.468  43.633  11.710
71261W        W37802   9.138  12.244   2.780
71262W        W37803  32.462  38.627  11.717
71263W        W37804  32.866  41.349   0.335
71264W        W37805  30.889  42.235  10.460
71265W        W37806  13.421  42.552   0.333
71266W        W37807  39.828  19.824  13.580
71267W        W37808  13.985  42.360  13.914
71268W        W37809   9.716  26.250   3.376
71269W        W37810  14.867  40.820  11.909
71270W        W37811   4.811   9.710   1.480
71271W        W37812  38.595  16.810   1.694
71272W        W37813  37.455  17.330   0.397
71273W        W37814  25.061  20.625  10.476
71274W        W37815  41.874  19.127   2.024
71275W        W37816  15.137  10.091   1.977
71276W        W37817  33.369  11.605   3.442
71277W        W37818  39.882  40.977   0.701
71278W        W37819  22.050  16.205  11.451
71279W        W37820  42.103  19.972   3.398
71280W        W37821  41.413   2.716  11.595
71281W        W37822  15.577  17.963  11.530
71282W        W37823  23.503  17.768  12.048
71283W        W37824  20.035  42.724  14.319
71284W        W37825  10.023   8.709  12.061
71285W        W37826   6.276  38.913   1.208
71286W        W37827   5.792  44.756  12.616
71287W        W37828   5.414  19.726   3.497
71288W        W37829  32.198  18.731   0.399
71289W        W37830  44.931  39.932   1.267
71290W        W37831   6.485  28.088   3.139
71291W        W37832  17.855  34.565   0.312
71292W        W37833  31.219   3.055  13.416
71293W        W37834  43.545   9.293  11.746
71294W        W37835   9.443  15.833  12.752
71295W        W37836   7.957   1.880   3.902
71296W        W37837  31.225  13.986   5.630
71297W        W37838  44.474  39.873   2.058
71298W        W37839   5.773  10.847   1.449
71299W        W37840  16.258  36.968   2.172
71300W        W37841   9.664   0.556   4.541
71301W        W37842  28.003  29.778   4.010
71302W        W37843  25.141  43.129   2.612
71303W        W37844   0.477   8.648   3.618
71304W        W37845  11.065  21.165  10.717
71305W        W37846  40.994  15.405  12.452
71306W        W37847  30.250  33.472   3.608
71307W        W37848  19.556  28.665   1.186
71308W        W37849  31.674  19.133  14.939
71309W        W37850  44.320  29.211   3.010
71310W        W37851  32.303  44.222   1.110
71311W        W37852   4.802  27.955   2.697
71312W        W37853  31.923   7.512   3.249
71313W        W37854  24.065  42.600  14.270
71314W        W37855  25.462  31.400  12.496
71315W        W37856   2.301   0.438   3.649
71316W        W37857  30.799  32.589  13.839
71317W        W37858  26.271   9.868  11.424
71318W        W37859  14.774  12.808   2.743
71319W        W37860  29.230  27.379  11.196
71320W        W37861  11.837  11.866  14.985
71321W        W37862  10.178  39.403  13.389
71322W        W37863  17.902  34.390   2.877
71323W        W37864  33.285  41.315  14.418
71324W        W37865  18.693   0.159  12.046
71325W        W37866  44.423  15.043   4.823
71326W        W37867  43.012  16.787  14.759
71327W        W37868  35.128   4.987  10.615
71328W        W37869  36.422  22.674   4.079
71329W        W37870   1.213  17.453  14.283
71330W        W37871   7.818   4.972  10.913
71331W        W37872   3.301  15.339  10.328
71332W        W37873  25.489  27.037   4.850
71333W        W37874   0.841  35.088   2.686
71334W        W37875  11.928  30.509   0.298
71335W        W37876   5.243  36.057  11.574
71336ION    NA+37877  22.040  39.085  12.888
71337ION    NA+37878  13.086  11.190   4.058
71338ION    NA+37879  38.341  42.062  14.859
71339ION    NA+37880  34.742  32.115  13.966
71340ION    NA+37881  38.779  20.473   2.688
71341ION    NA+37882  44.209   3.943   4.969
71342ION    NA+37883  31.015   9.452  13.919
71343ION    NA+37884  32.365   0.828  11.137
71344ION    NA+37885  38.499  31.454   4.669
71345ION    NA+37886  42.057   0.223   4.193
71346ION    NA+37887  18.809  23.363  11.896
71347ION    NA+37888  13.300  22.331  13.259
71348ION    NA+37889  18.037  42.735  11.088
71349ION    NA+37890  15.560  22.061  14.850
71350ION    NA+37891  40.929   6.254   3.441
71351ION    NA+37892   8.949  31.539  14.899
71352ION    NA+37893  32.307  35.865   2.017
71353ION    NA+37894   6.467  33.724   4.430
71354ION    NA+37895  12.726  20.653  14.596
71355ION    NA+37896  43.015  34.135   2.325
71356ION    NA+37897  16.818   9.125   0.548
71357ION    NA+37898   8.847   1.984  14.265
71358ION    NA+37899   4.282  14.152   4.490
71359ION    NA+37900  11.770  43.503   4.298
71360ION    NA+37901  34.427  43.344   2.468
71361ION    NA+37902  18.970  29.721   0.350
71362ION    NA+37903  33.517  28.085   1.656
71363ION    NA+37904  12.359  17.641  13.937
71364ION    NA+37905  42.452  23.115   3.116
71365ION    NA+37906  34.421  40.434   1.222
71366ION    NA+37907  40.664  24.410  11.084
71367ION    NA+37908  29.502   0.663  14.862
71368ION    NA+37909  10.168  12.696   9.818
71369ION    NA+37910  39.812   2.275  11.200
71370ION    NA+37911  30.887   2.479  14.776
71371ION    NA+37912  37.294  42.130   3.313
71372ION    NA+37913   4.705   6.578   1.366
71373ION    NA+37914  29.901  14.587  13.039
71374ION    NA+37915  23.486  39.842  10.762
71375ION    NA+37916   0.054  30.972   2.577
71376ION    NA+37917  30.562  38.597   0.933
71377ION    NA+37918  25.161  20.683   1.360
71378ION    NA+37919  17.433  39.847   4.085
71379ION    NA+37920  41.269  16.228  12.946
71380ION    NA+37921  44.474  25.194   1.215
71381ION    NA+37922  44.117  44.452  10.767
71382ION    NA+37923  40.127  35.913  12.406
71383ION    NA+37924   6.560  34.848   1.301
71384ION    NA+37925   7.664  21.552  13.874
71385ION    NA+37926  41.870  17.416   4.323
71386ION    NA+37927  15.099   3.919   3.307
71387ION    NA+37928  42.862  23.177  12.424
71388ION    NA+37929  27.590  23.287  11.689
71389ION    NA+37930   1.807   1.446   0.204
71390ION    NA+37931  28.475  24.774  14.985
71391ION    NA+37932  28.050  32.783  10.836
71392ION    NA+37933  37.001   5.983   0.856
71393ION    NA+37934  42.914   6.313   2.223
71394ION    NA+37935  38.924   0.866   9.621
71395ION    NA+37936  31.632  43.765  13.525
71396ION    NA+37937  21.637  44.780   2.415
71397ION    NA+37938  15.846  29.145   2.920
71398ION    NA+37939  44.081  13.637  12.303
71399ION    NA+37940  38.219  24.681   2.937
71400ION    NA+37941  19.463  29.556  14.398
71401ION    NA+37942  13.459   4.282  11.404
71402ION    NA+37943  23.107  36.215  11.775
71403ION    NA+37944  29.985  36.987  11.647
71404ION    NA+37945  19.584  18.703   0.131
71405ION    NA+37946   4.651  24.505  14.270
71406ION    NA+37947  38.923   4.983  11.289
71407ION    NA+37948  10.732  11.885  10.920
71408ION    NA+37949   8.233   3.599  14.567
71409ION    NA+37950  42.463  32.098  10.845
71410ION    NA+37951  19.079  26.969  14.401
71411ION    NA+37952  26.074  31.909   4.163
71412ION    NA+37953  36.012  43.433   4.399
71413ION    NA+37954   9.090   2.864   4.667
71414ION    NA+37955  32.496  22.227  12.659
71415ION    NA+37956  37.407   7.994  12.997
71416ION    NA+37957  15.622  12.611   0.425
71417ION    NA+37958  44.065  26.133   3.053
71418ION    NA+37959  22.965  28.768   1.305
71419ION    NA+37960  35.354  35.758  11.406
71420ION    NA+37961   1.344   9.805   1.544
71421ION    NA+37962  15.548  44.120  14.294
71422ION    NA+37963  20.415  22.964   3.321
71423ION    NA+37964  36.409  41.878   0.743
71424ION    NA+37965  31.008  40.191  14.037
71425ION    NA+37966  16.297  14.024   1.454
71426ION    NA+37967  13.089  12.757  11.785
71427ION    NA+37968  26.165  20.943   0.274
71428ION    NA+37969  27.468   2.487  14.378
71429ION    NA+37970  40.994   7.585   4.589
71430ION    NA+37971  38.455  20.672   0.138
71431ION    NA+37972  14.366  44.974   1.792
71432ION    NA+37973  44.146  39.418   5.499
71433ION    NA+37974   5.956   6.964  13.851
71434ION    NA+37975  26.305   2.189  14.667
71435ION    NA+37976  40.596  36.293   0.623
71436ION    NA+37977  44.801  21.819  12.684
71437ION    NA+37978  17.959  26.603   4.819
71438ION    NA+37979  43.244  39.302  12.711
71439ION    NA+37980  14.391   1.652   4.093
71440ION    NA+37981  20.690  15.381  12.346
71441ION    NA+37982  16.851  16.971   0.739
71442ION    NA+37983  38.584  22.144   3.409
71443ION    NA+37984  21.873  39.899  11.372
71444ION    NA+37985  13.693  16.392  12.793
71445ION    NA+37986  41.498   2.046  12.968
71446ION    NA+37987  29.710  12.311  13.591
71447ION    NA+37988  36.435  44.494   4.140
71448ION    NA+37989  24.631   4.168   3.724
71449ION    NA+37990  29.535  11.359  11.195
71450ION    NA+37991  44.921  10.919   2.817
71451ION    NA+37992  18.034   6.904  13.308
71452ION    NA+37993  19.128  39.388   2.646
71453ION    NA+37994  41.493   6.271  11.573
71454ION    NA+37995   8.840  37.328  12.896
71455ION    NA+37996   6.647  18.621   0.097
71456ION    NA+37997  11.674  12.913   0.348
71457ION    NA+37998  14.762  18.035  12.621
71458ION    NA+37999  10.692   2.393  11.739
71459ION    NA+38000  26.534  15.264   4.107
71460ION    NA+38001  19.946  16.307   5.474
71461ION    NA+38002  22.655  35.620   0.627
71462ION    NA+38003  14.209  40.502  12.473
71463ION    NA+38004  26.851  36.907  13.973
71464ION    NA+38005  21.337  22.670   4.682
71465ION    NA+38006  41.374  44.798   3.784
71466ION    NA+38007   4.701  11.725  12.356
71467ION    NA+38008  37.160  39.235   4.178
71468ION    NA+38009  41.336   4.774  14.442
71469ION    NA+38010  27.731   9.370   1.605
71470ION    NA+38011  25.024  38.982  10.269
71471ION    NA+38012  34.759  26.863  12.218
71472ION    NA+38013  31.834  40.362   2.642
71473ION    NA+38014  43.116  40.025   1.295
71474ION    NA+38015  37.036   1.863   4.034
71475ION    NA+38016   0.808  25.011   0.069
71476ION    NA+38017  35.407  34.180   2.343
71477ION    NA+38018   1.167  27.040   2.531
71478ION    NA+38019  36.118  29.172   0.303
71479ION    NA+38020  33.122   4.282  14.705
71480ION    NA+38021  18.805   8.410   1.701
71481ION    NA+38022  36.848  44.944  13.418
71482ION    NA+38023  28.011   0.421   2.220
71483ION    NA+38024  25.312  35.570   4.401
71484ION    NA+38025  34.336  44.463  10.691
71485ION    NA+38026  29.131  24.513   1.399
71486ION    NA+38027  15.285  36.638   2.801
71487ION    NA+38028  24.806  28.981   1.053
71488ION    NA+38029  34.396  35.470  12.588
71489ION    NA+38030   2.648  13.211  13.875
71490ION    NA+38031  14.341  34.814   3.122
71491ION    NA+38032  14.270   4.249   2.055
71492ION    NA+38033  25.693   9.971  11.695
71493ION    NA+38034   3.806  26.332   1.471
71494ION    NA+38035   4.161   3.681   4.551
71495ION    NA+38036  25.459  35.052  11.827
71496ION    NA+38037   1.998   3.339   3.638
71497ION    NA+38038  26.557   6.126   1.933
71498ION    NA+38039  22.958  21.577   4.681
71499ION    NA+38040  41.939  26.053   2.908
71500ION    NA+38041   2.292  43.929   2.442
71501ION    NA+38042   1.953  33.073   0.749
71502ION    NA+38043  18.286  41.532   0.772
71503ION    NA+38044  33.283   1.773   0.318
71504ION    NA+38045  19.276  14.790  12.958
71505ION    NA+38046  44.532  33.430  11.525
71506ION    NA+38047  16.329  20.675   1.366
71507ION    NA+38048  22.222  22.365  14.866
71508ION    NA+38049  44.364   3.755   1.608
71509ION    NA+38050  15.819  10.779   4.841
71510ION    NA+38051  33.188  40.890  11.564
71511ION    NA+38052  32.590   9.892  13.057
71512ION    NA+38053  19.849  36.931   4.099
71513ION    NA+38054  13.079  32.007   1.472
71514ION    NA+38055  13.139  36.086  13.944
71515ION    NA+38056  42.028  10.416  11.939
71516ION    NA+38057  43.546  32.774   0.810
71517ION    NA+38058   9.192  24.588   1.228
71518ION    NA+38059   1.657   2.637  12.650
71519ION    NA+38060  30.113   6.381  14.072
71520ION    NA+38061  23.905  34.395  14.308
71521ION    NA+38062  26.764   1.176   4.036
71522ION    NA+38063  28.763  37.054  12.756
71523ION    NA+38064  19.138  28.369   1.904
71524ION    NA+38065   8.621  39.898   2.289
71525ION    NA+38066   7.322  16.034   2.207
71526ION    NA+38067  26.665  12.451   2.105
71527ION    NA+38068  12.632  13.029  14.624
71528ION    NA+38069   1.989  11.840  11.879
71529ION    NA+38070  30.383  24.700  12.441
71530ION    NA+38071  20.927  28.168  14.645
71531ION    NA+38072   2.209  29.108   4.931
71532ION    NA+38073   4.207  38.596   2.128
71533ION    NA+38074   8.442  10.161  14.127
71534ION    NA+38075   3.951  35.030   2.897
71535ION    NA+38076  30.400  42.728   2.049
71536ION    NA+38077   5.319   6.940  12.987
71537ION    NA+38078  26.263  40.827   3.441
71538ION    NA+38079  33.061  24.909  13.913
71539ION    NA+38080  33.084  17.319   4.445
71540ION    NA+38081  11.103  10.560   0.243
71541ION    NA+38082   7.985   1.660   1.586
71542ION    NA+38083  14.642  10.265   4.282
71543ION    NA+38084  22.109  19.787   2.650
71544ION    NA+38085  30.218  25.254  13.101
71545ION    NA+38086   0.232  35.334  12.293
71546ION    NA+38087   5.232  29.557   3.648
71547ION    NA+38088  30.857  16.022  13.329
71548ION    NA+38089  40.281  14.756   2.086
71549ION    NA+38090  34.679  14.083   3.991
71550ION    NA+38091  37.413  26.055  13.203
71551ION    NA+38092  31.325   7.249   4.674
71552ION    NA+38093  22.957   4.891  13.768
71553ION    NA+38094  44.860  35.051  14.903
71554ION    NA+38095  21.580  34.401   3.582
71555ION    NA+38096  40.048  25.057  11.852
71556ION    NA+38097  23.004  31.110   4.510
71557ION    NA+38098  28.429  14.088   3.643
71558ION    NA+38099   3.191  18.310  14.791
71559ION    NA+38100  32.818   7.167   1.055
71560ION    NA+38101  19.538  29.124  10.983
71561ION    NA+38102  43.922   9.380  13.194
71562ION    NA+38103  29.796  43.120  11.807
71563ION    NA+38104   5.482  11.024   4.542
71564ION    NA+38105   7.757  22.993  12.560
71565ION    NA+38106  40.813  38.524   3.362
71566ION    NA+38107  44.424  42.599  13.335
71567ION    NA+38108  30.562  30.827  10.361
71568ION    NA+38109  32.018   4.182  14.040
71569ION    NA+38110   5.941  34.706   2.265
71570ION    NA+38111  25.207  23.528  11.631
71571ION    NA+38112  38.196   5.901  14.635
71572ION    NA+38113  43.882  23.227  12.559
71573ION    NA+38114   4.088  34.122   2.582
71574ION    NA+38115  15.005   3.122   4.149
71575ION    NA+38116  44.564  21.570  14.926
71576ION    NA+38117   4.838  25.460  12.087
71577ION    NA+38118  15.000  32.259  13.697
71578ION    NA+38119  12.433  32.455   0.853
71579ION    NA+38120   7.198  33.352  11.261
71580ION    NA+38121  23.078  32.883   0.877
71581ION    NA+38122   7.382   1.071  14.298
71582ION    NA+38123  39.798  29.751   4.176
71583ION    NA+38124  12.974  23.028  11.151
71584ION    NA+38125  26.707  30.784  14.618
71585ION    NA+38126  32.178  34.968  11.491
71586ION    NA+38127   7.316  40.654   4.677
71587ION    NA+38128  42.458  43.280   4.516
71588ION    NA+38129  16.328  18.566  13.870
71589ION    NA+38130  36.128  33.097   4.197
71590ION    NA+38131   4.354  13.149   3.950
71591ION    NA+38132  20.755  42.418  11.491
71592ION    NA+38133  14.400  35.102   1.566
71593ION    NA+38134  20.145  41.740  11.902
71594ION    NA+38135   0.396  34.476  11.232
71595ION    NA+38136  19.447  32.135   4.140
71596ION    NA+38137   5.519   9.560  11.440
71597ION    NA+38138  14.235   9.075  11.612
71598ION    NA+38139  42.371   5.502   4.777
71599ION    NA+38140   9.653  44.784   1.707
71600ION    NA+38141  44.031   6.937   1.571
71601ION    NA+38142  42.076  14.208  14.766
71602ION    NA+38143  14.507  14.377  11.754
71603ION    NA+38144   5.825  10.257  11.789
71604ION    NA+38145   7.234  36.499   4.023
71605ION    NA+38146   8.362   5.522  13.377
71606ION    NA+38147  35.545  31.682   0.924
71607ION    NA+38148  12.209  13.842  14.511
71608ION    NA+38149  20.916  27.788   1.527
71609ION    NA+38150   7.524  26.382   2.752
71610ION    NA+38151  43.585  20.966  14.430
71611ION    NA+38152  34.334  32.582  11.972
71612ION    NA+38153  13.541  24.673  12.529
71613ION    NA+38154  18.787  21.840  11.547
71614ION    NA+38155  29.027   7.310  13.249
71615ION    NA+38156  16.546  21.691  12.477
71616ION    NA+38157  44.910   4.766  13.465
71617ION    NA+38158  40.355  23.071  14.083
71618ION    NA+38159  15.872  15.294   0.545
71619ION    NA+38160  41.534  22.150  11.894
71620ION    NA+38161  15.632  15.292  12.599
71621ION    NA+38162  23.528  40.988   3.090
71622ION    NA+38163  13.542  14.104  11.603
71623ION    NA+38164  36.431  26.334   3.445
71624ION    NA+38165  10.337  13.360  12.337
71625ION    NA+38166  34.710   0.195   1.345
71626ION    NA+38167  23.528  30.417   0.288
71627ION    NA+38168   6.037  18.693   3.749
71628ION    NA+38169  44.038  15.079  11.664
71629ION    NA+38170  15.602  35.039  14.532
71630ION    NA+38171  33.653  28.285  14.490
71631ION    NA+38172   8.187  25.836   1.490
71632ION    NA+38173  22.301   8.495  12.966
71633ION    NA+38174  30.377  13.195   2.588
71634ION    NA+38175  22.251   6.444   0.419
71635ION    NA+38176   7.458  32.134   0.914
71636ION    NA+38177  35.201  30.291   3.433
71637ION    NA+38178  21.694  35.462   1.351
71638ION    NA+38179  14.778  41.908  10.910
71639ION    NA+38180  37.442  23.027  11.324
71640ION    NA+38181  12.744  20.596  12.426
71641ION    NA+38182  40.493  24.874   0.773
71642ION    NA+38183  29.009  28.383   2.417
71643ION    NA+38184   2.784  23.133  13.371
71644ION    NA+38185  32.739  20.045  12.464
71645ION    NA+38186  18.091  40.018   1.964
71646ION    NA+38187  29.875   6.035   3.533
71647ION    NA+38188  36.951  41.567  13.134
71648ION    NA+38189  36.423  10.463   0.585
71649ION    NA+38190  18.639  41.481  14.413
71650ION    NA+38191   4.007   8.283   3.626
71651ION    NA+38192  35.499  42.359  12.032
71652ION    NA+38193  42.739  18.125   2.173
71653ION    NA+38194   4.382  28.995   1.244
71654ION    NA+38195   6.847   2.028   3.454
71655ION    NA+38196   2.217  36.852  13.798
71656ION    NA+38197   5.248  27.175  14.460
71657ION    NA+38198  37.794  41.326  10.696
71658ION    NA+38199  19.533  44.473   3.598
71659ION    NA+38200  36.958   3.252  13.650
71660ION    NA+38201  14.858  18.926   4.410
71661ION    NA+38202  13.027   2.579  11.862
71662ION    NA+38203   1.984  43.067   3.482
71663ION    NA+38204  25.273  24.480  13.400
71664ION    NA+38205  13.366  11.011  12.566
71665ION    NA+38206  10.465  26.621   5.138
71666ION    NA+38207  42.735  28.313  11.230
71667ION    NA+38208  23.598  25.893   5.038
71668ION    NA+38209  14.369  31.871   1.841
71669ION    NA+38210  34.632   5.999   1.749
71670ION    NA+38211  41.963  23.367  11.403
71671ION    NA+38212  10.963  13.590   3.612
71672ION    NA+38213   2.297   4.319   0.336
71673ION    NA+38214   4.806  31.066   0.377
71674ION    NA+38215   9.839  30.749  13.675
71675ION    NA+38216  22.186   5.713  13.291
71676ION    NA+38217  41.970   7.515   3.231
71677ION    NA+38218  10.114  13.845   3.148
71678ION    NA+38219   9.671  33.237  14.293
71679ION    NA+38220  29.573  34.997   4.348
71680ION    NA+38221  26.540  17.950   0.087
71681ION    NA+38222  32.022  14.825   1.268
71682ION    NA+38223   8.853   4.880  10.523
71683ION    NA+38224  26.286  26.408  13.679
71684ION    NA+38225  21.612  30.183  12.963
71685ION    NA+38226   5.624  22.381   3.871
71686ION    NA+38227  32.987  18.063  14.312
71687ION    NA+38228  31.614  39.577   4.138
71688ION    NA+38229  38.873  41.315   0.115
71689ION    NA+38230  34.243  14.976   4.103
71690ION    NA+38231  20.136  16.188  11.383
71691ION    NA+38232  14.885  42.060   3.177
71692ION    NA+38233  31.660  29.240  12.830
71693ION    NA+38234  17.598  10.436   0.789
71694ION    NA+38235  17.281  43.790   1.251
71695ION    NA+38236  38.308  40.406   1.385
71696ION    NA+38237  17.406   9.367  12.970
71697ION    NA+38238  19.957  44.329  11.949
71698ION    NA+38239  33.724   5.769   2.100
71699ION    NA+38240  20.662  22.870  14.300
71700ION    NA+38241  38.545  42.689  10.642
71701ION    NA+38242  16.367  23.505   3.134
71702ION    NA+38243   8.483  16.762  14.290
71703ION    NA+38244  18.111  21.074   1.897
71704ION    NA+38245  20.182   5.246   1.229
71705ION    NA+38246   0.952  43.320   0.315
71706ION    NA+38247   6.321  35.187  12.439
71707ION    NA+38248   4.824   4.276   5.371
71708ION    NA+38249   6.994   3.041  13.367
71709ION    NA+38250  35.597  17.884  12.755
71710ION    NA+38251  19.885  40.299  11.837
71711ION    NA+38252   3.491  22.657   1.787
71712ION    NA+38253  23.770  18.784  11.593
71713ION    NA+38254  28.740  16.152  12.205
71714ION    NA+38255  36.804  36.058  10.810
71715ION    NA+38256  28.527  18.957  14.483
71716ION    NA+38257   6.349  21.904  10.113
71717ION    NA+38258   6.167  13.738  12.051
71718ION    NA+38259  30.975   8.143  11.164
71719ION    NA+38260  15.446  17.117  14.584
71720ION    NA+38261  15.598   0.331   0.209
71721ION    NA+38262  17.499  34.837  13.868
71722ION    NA+38263   1.417  43.668   1.128
71723ION    NA+38264  14.198   0.152   3.190
71724ION    NA+38265   6.673  43.482  11.881
71725ION    NA+38266  34.494   8.643  12.026
71726ION    NA+38267  11.806  30.682   5.221
71727ION    NA+38268  21.979  26.574   3.801
71728ION    NA+38269   0.478  20.994  10.637
71729ION    NA+38270  35.330   0.576  11.775
71730ION    NA+38271  39.338  32.840   4.085
71731ION    NA+38272   1.346  14.578   4.266
71732ION    NA+38273  31.096   0.197   4.116
71733ION    NA+38274  26.608  33.157  10.744
71734ION    NA+38275  20.484  37.704   4.043
71735ION    NA+38276  20.127  33.551   3.406
71736ION    NA+38277  22.477  12.260  11.060
71737ION    NA+38278  29.800  23.929   3.245
71738ION    NA+38279  40.670  23.345  14.991
71739ION    NA+38280  18.102  42.402   4.654
71740ION    NA+38281  14.093  12.391  11.138
71741ION    NA+38282  21.205   7.479   3.619
71742ION    NA+38283  31.712   6.530   3.287
71743ION    NA+38284  19.481  32.932   2.862
71744ION    NA+38285   3.626  28.983  10.607
71745ION    NA+38286  10.766  23.801   0.208
71746ION    NA+38287  23.457  32.704  12.520
71747ION    NA+38288  16.390  24.112   3.684
71748ION    NA+38289  22.126  22.047  10.966
71749ION    NA+38290   2.387  42.229   1.386
71750ION    NA+38291  39.176  32.317  11.245
71751ION    NA+38292   5.732   3.219   0.478
71752ION    NA+38293  27.899  44.319   0.579
71753ION    NA+38294  15.920  14.344  12.463
71754ION    NA+38295  26.601  39.002   0.559
71755ION    NA+38296  32.407  15.477  11.209
71756ION    NA+38297  26.103  29.883   3.090
71757ION    NA+38298  30.690  21.100   0.819
71758ION    NA+38299  42.710  10.451  10.292
71759ION    NA+38300  40.164   7.719   4.350
71760ION    NA+38301   4.411   9.054  13.020
71761ION    NA+38302  39.140  42.478   1.828
71762ION    NA+38303  11.103  23.405  12.250
71763ION    NA+38304  40.708   0.198  11.123
71764ION    NA+38305  12.038  22.624   0.923
71765ION    NA+38306  28.120  21.883   3.434
71766ION    NA+38307   3.216  43.216  10.987
71767ION    NA+38308  35.618  35.711   4.113
71768ION    NA+38309  16.542  10.202   0.346
71769ION    NA+38310  34.805  22.687   3.242
71770ION    NA+38311  30.120   4.379  12.066
71771ION    NA+38312   4.574   8.084  12.836
71772ION    NA+38313  33.563  41.856  11.581
71773ION    NA+38314  10.086   1.494  14.916
71774ION    NA+38315  28.895  16.813  12.705
71775ION    NA+38316  19.174  16.047   2.855
71776ION    NA+38317  13.206  32.409  13.299
71777ION    NA+38318  42.790  24.100  14.425
71778ION    NA+38319  15.706  25.019  14.091
71779ION    NA+38320   5.608  32.246  13.494
71780ION    NA+38321  15.576  31.972  12.932
71781ION    NA+38322  19.836  14.908  10.250
71782ION    NA+38323  16.708  15.077  14.481
71783ION    NA+38324  28.721  25.967  13.832
71784ION    NA+38325  37.828  21.196   3.710
71785ION    NA+38326  28.182  15.695  10.632
71786ION    NA+38327  20.813  16.172  14.436
71787ION    NA+38328  27.643   9.541   2.495
71788ION    NA+38329   4.878  43.957   2.738
71789ION    NA+38330  43.202  16.116   0.696
71790ION    NA+38331  20.642   0.905  13.543
71791ION    NA+38332  11.628  34.028  11.591
71792ION    NA+38333  37.268  31.944   1.877
71793ION    NA+38334   9.696  41.702  12.423
71794ION    NA+38335  15.600  25.160  11.880
71795ION    NA+38336  10.046  20.355   4.126
71796ION    NA+38337   4.489  28.486  10.802
71797ION    NA+38338  31.448  16.228  10.631
71798ION    NA+38339   6.771  30.903   1.937
71799ION    NA+38340  30.636  20.131  12.562
71800ION    NA+38341  32.303  16.767  11.618
71801ION    NA+38342  30.991  25.588  13.800
71802ION    NA+38343  29.191   9.269  11.613
71803ION    NA+38344  17.773  44.036   2.608
71804ION    NA+38345  35.056  18.301  11.600
71805ION    NA+38346   8.889  37.895   3.533
71806ION    NA+38347  10.890  25.552  12.937
71807ION    NA+38348  10.198  31.850  11.947
71808ION    NA+38349  37.098   1.225   1.474
71809ION    NA+38350  37.540  11.617   2.051
71810ION    NA+38351  34.467  27.338   2.072
71811ION    NA+38352  20.012   0.483   1.808
71812ION    NA+38353   4.250  10.235   1.184
71813ION    NA+38354  39.569  42.635  14.834
71814ION    NA+38355  24.705   1.004   4.926
71815ION    NA+38356  10.848  38.118   2.712
71816ION    NA+38357  32.000  25.931   3.665
71817ION    NA+38358  43.152  42.237  13.591
71818ION    NA+38359   7.056  42.905  10.797
71819ION    NA+38360   1.616   6.447  12.022
71820ION    NA+38361  28.472  18.617  11.333
71821ION    NA+38362  26.909  13.774  14.555
71822ION    NA+38363  37.406  10.190  12.989
71823ION    NA+38364  36.810  17.029  11.609
71824ION    NA+38365  19.728  32.164  11.577
71825ION    NA+38366  26.997  40.203  11.513
71826ION    NA+38367  20.193  11.842   1.234
71827ION    NA+38368  13.384   5.473  14.138
71828ION    NA+38369   3.365  16.637   4.331
71829ION    NA+38370   3.047  42.197   3.692
71830ION    NA+38371  25.425   3.866  13.008
71831ION    NA+38372  26.672  16.198  11.090
71832ION    NA+38373  32.197  43.092   0.392
71833ION    NA+38374  23.052  21.753  10.726
71834ION    NA+38375  40.504  32.701   2.042
71835ION    NA+38376  41.860  19.070   2.544
71836ION    NA+38377  11.894   5.353   4.567
71837ION    NA+38378   4.357  33.295   3.076
71838ION    NA+38379  37.229  22.837  12.283
71839ION    NA+38380   5.567  33.848   1.914
71840ION    NA+38381   0.834  17.719  11.505
71841ION    NA+38382  24.925  25.537   0.410
71842ION    NA+38383  13.145  19.312  13.912
71843ION    NA+38384   2.381   7.347  10.767
71844ION    NA+38385  23.674  11.101   3.710
71845ION    NA+38386  19.322  25.047   4.044
71846ION    NA+38387  41.780  29.157   5.217
71847ION    NA+38388  35.527  42.859  10.164
71848ION    NA+38389  37.696  27.314   1.304
71849ION    NA+38390  15.840  42.221  13.240
71850ION    NA+38391  11.261  19.812  10.582
71851ION    NA+38392  30.445  32.013  12.993
71852ION    NA+38393  35.808  32.726  11.050
71853ION    NA+38394   1.821  31.079  14.333
71854ION    NA+38395  44.745  16.687  10.777
71855ION    NA+38396  34.195  36.804   4.673
71856ION    NA+38397   9.759  34.432  12.735
71857ION    NA+38398  35.919  13.743   3.796
71858ION    NA+38399  18.340  32.131  14.330
71859ION    NA+38400   9.192  21.910   3.230
71860ION    NA+38401   9.998  36.671   0.397
71861ION    NA+38402  14.058  37.998   4.042
71862ION    NA+38403  39.357   8.056   4.116
71863ION    NA+38404  13.216   5.047   0.026
71864ION    NA+38405   7.214  44.354  13.490
71865ION    NA+38406  43.492  22.034  11.420
71866ION    NA+38407  10.200  20.043   1.431
71867ION    NA+38408  34.118  29.225   1.760
71868ION    NA+38409  24.461  29.151  10.700
71869ION    NA+38410  25.038  35.874  12.697
71870ION    NA+38411  30.125  18.570  14.361
71871ION    NA+38412  11.887  12.365  13.694
71872ION    NA+38413   0.084   5.578   2.576
71873ION    NA+38414   7.238  29.389  14.707
71874ION    NA+38415   8.726  12.825  11.360
71875ION    NA+38416   7.533  11.359  13.566
71876ION    NA+38417  33.382  43.832  13.838
71877ION    NA+38418  22.686  10.249   1.520
71878ION    NA+38419  16.245  42.566  12.508
71879ION    NA+38420  15.131   1.411  14.283
71880ION    NA+38421   7.360  34.414  14.839
71881ION    NA+38422  30.433  19.976   1.974
71882ION    NA+38423  20.656  29.464  10.740
71883ION    NA+38424  39.463   4.080  10.897
71884ION    NA+38425  12.725  11.741   3.432
71885ION    NA+38426  38.009  44.452  12.535
71886ION    NA+38427  42.494   8.916   3.319
71887ION    NA+38428  13.055   2.185   1.110
71888ION    NA+38429  30.908   8.390  14.818
71889ION    NA+38430  38.331  12.508  14.652
71890ION    NA+38431   1.321  30.062  13.319
71891ION    NA+38432  43.552  29.285   2.913
71892ION    NA+38433  13.225  44.000  10.597
71893ION    NA+38434  34.079  37.849   0.593
71894ION    NA+38435  29.866  21.347   5.149
71895ION    NA+38436  44.503   6.486   2.201
71896ION    NA+38437  33.021   0.700   1.727
71897ION    NA+38438  24.649  10.404   0.344
71898ION    NA+38439  40.839  24.734  14.085
71899ION    NA+38440  29.670  15.725  11.293
71900ION    NA+38441  13.812  38.763  12.591
71901ION    NA+38442  21.515   8.463   3.122
71902ION    NA+38443  22.446   7.263   1.337
71903ION    NA+38444  11.199  22.834  14.992
71904ION    NA+38445  26.547  31.652  14.749
71905ION    NA+38446  27.122  16.055  13.649
71906ION    NA+38447  30.350   8.720  11.421
71907ION    NA+38448  12.795  21.441   3.654
71908ION    NA+38449  16.986  17.530  12.575
71909ION    NA+38450  43.545   7.783  14.029
71910ION    NA+38451  16.836  19.085  12.031
71911ION    NA+38452  33.030  25.065  12.791
71912ION    NA+38453  10.518  11.910  11.782
71913ION    NA+38454   6.914   5.949   1.034
71914ION    NA+38455  18.113   3.959  10.671
71915ION    NA+38456  31.078   7.867   2.248
71916ION    NA+38457   4.418  25.864   0.340
71917ION    NA+38458   7.180  16.585   0.603
71918ION    NA+38459  25.063  34.632  14.944
71919ION    NA+38460   0.086  14.633  11.215
71920ION    NA+38461  24.243  34.896   4.244
71921ION    NA+38462   0.910  19.207   1.268
71922ION    NA+38463  30.105  15.200   1.727
71923ION    NA+38464  43.550  27.882  10.257
71924ION    NA+38465  14.059  26.088   4.292
71925ION    NA+38466  30.060   6.904   3.422
71926ION    NA+38467  24.236  23.952  12.924
71927ION    NA+38468  39.339  38.536   3.318
71928ION    NA+38469  35.451  20.960  11.061
71929ION    NA+38470  12.433   7.793  13.999
71930ION    NA+38471  11.484   5.024  12.189
71931ION    NA+38472   3.644  42.030   3.164
71932ION    NA+38473  40.214  17.453   2.421
71933ION    NA+38474  36.166  23.719   5.260
71934ION    NA+38475  39.507  16.112  14.409
71935ION    NA+38476   4.866  13.441  14.495
71936ION    NA+38477  10.405  43.026   5.218
71937ION    NA+38478  25.596  37.984  12.094
71938ION    NA+38479  35.661  34.906   4.436
71939ION    NA+38480  20.520  33.726  13.719
71940ION    NA+38481  30.030   1.946  14.774
71941ION    NA+38482   6.290  26.497  12.608
71942ION    NA+38483  31.177  39.294  14.051
71943ION    NA+38484   9.963  37.054  14.474
71944ION    NA+38485  27.859  17.572   0.132
71945ION    NA+38486   4.819  20.781   1.268
71946ION    NA+38487  23.640  40.723   0.032
71947ION    NA+38488  21.478  18.056   0.976
71948ION    NA+38489  36.089  23.059   0.899
71949ION    NA+38490  24.991  40.183  11.039
71950ION    NA+38491  36.054  24.953  14.105
71951ION    NA+38492  16.943  12.764   2.151
71952ION    NA+38493  36.131  28.221  11.850
71953ION    NA+38494  12.688  35.364   2.259
71954ION    NA+38495  42.422  33.804  11.746
71955ION    NA+38496  20.539   2.890   4.758
71956ION    NA+38497  23.770   9.610  13.499
71957ION    NA+38498   1.319  36.696  12.316
71958ION    NA+38499  32.749  18.839   0.428
71959ION    NA+38500  39.495  14.209  12.593
71960ION    NA+38501   4.339  17.371   4.116
71961ION    NA+38502  12.750   1.721  14.739
71962ION    NA+38503  32.975  15.091   1.414
71963ION    NA+38504   7.705  36.275   2.380
71964ION    NA+38505  44.645  41.741   2.706
71965ION    NA+38506  16.822   5.687  13.075
71966ION    NA+38507   6.879  44.927   0.168
71967ION    NA+38508   1.661  25.493   4.531
71968ION    NA+38509  28.205  11.381  11.206
71969ION    NA+38510  17.912  11.877   2.637
71970ION    NA+38511  37.351  38.023  14.185
71971ION    NA+38512  20.206   8.729   2.637
71972ION    NA+38513  30.948  18.553   3.129
71973ION    NA+38514  14.607  15.032   0.607
71974ION    NA+38515   7.383  21.930  10.630
71975ION    NA+38516  19.065  15.634   0.087
71976ION    NA+38517   4.706  11.646   5.262
71977ION    NA+38518  33.934  30.958  11.412
71978ION    NA+38519  43.405   7.079  14.465
71979ION    NA+38520  43.159   8.115   0.178
71980ION    NA+38521  35.516  10.834   5.073
71981ION    NA+38522   3.103   4.288   4.616
71982ION    NA+38523  20.728  41.949  14.209
71983ION    NA+38524  34.126  11.933  12.416
71984ION    NA+38525  13.872  38.173  14.478
71985ION    NA+38526  36.418  34.032  10.583
71986ION    NA+38527  16.807  35.048   3.729
71987ION    NA+38528  35.548  29.473  13.637
71988ION    NA+38529  37.351   0.552   1.028
71989ION    NA+38530  11.195   9.942   1.754
71990ION    NA+38531  44.809  35.614   1.748
71991ION    NA+38532  32.763  25.897  11.031
71992ION    NA+38533  44.261  10.422   1.288
71993ION    NA+38534  32.194  41.001  11.535
71994ION    NA+38535  40.315  20.694  10.667
71995ION    NA+38536  20.259  19.722   4.688
71996ION    NA+38537   8.319  10.786  13.333
71997ION    NA+38538  36.794  10.883  12.533
71998ION    NA+38539  27.443  41.623   3.048
71999ION    NA+38540  13.823  38.292  11.667
72000ION    NA+38541  25.588  34.583  11.074
72001ION    NA+38542  10.427  27.441   2.576
72002ION    NA+38543  41.360   3.369   3.087
72003ION    NA+38544  26.474   0.227   3.055
72004ION    NA+38545  21.857  15.177  11.454
72005ION    NA+38546  17.266   8.368  12.468
72006ION    NA+38547  31.042  36.711   4.505
72007ION    NA+38548   8.693  18.736   2.091
72008ION    NA+38549   4.351  21.598   2.436
72009ION    NA+38550  39.309  25.499   2.113
72010ION    NA+38551  17.268  13.339  13.159
72011ION    NA+38552   7.885   9.729   3.744
72012ION    NA+38553  28.326  17.353   0.841
72013ION    NA+38554  21.524  13.185   1.067
72014ION    NA+38555  32.372  43.045   9.772
72015ION    NA+38556   0.725  37.786  13.170
72016ION    NA+38557   0.007  41.090   3.562
72017ION    NA+38558  38.073  22.771   0.006
72018ION    NA+38559  14.080  13.392  11.114
72019ION    NA+38560  31.815  14.709   5.462
72020ION    NA+38561  26.017  18.902  11.824
72021ION    NA+38562  21.394  23.427  13.908
72022ION    NA+38563   9.415  22.756   3.977
72023ION    NA+38564  33.709  34.417  12.472
72024ION    NA+38565  26.451  21.351   4.073
72025ION    NA+38566  44.381  43.972   1.541
72026ION    NA+38567   4.806   7.908   4.096
72027ION    NA+38568  44.784  15.170   2.543
72028ION    NA+38569  39.557  25.693  11.553
72029ION    NA+38570   5.331  16.413  12.054
72030ION    NA+38571  12.750  16.582   0.741
72031ION    NA+38572  28.514  35.521  14.438
72032ION    NA+38573  28.523  18.675  10.270
72033ION    NA+38574  13.530   1.534   4.174
72034ION    NA+38575  19.648  38.318  11.506
72035ION    NA+38576  22.218   2.132   1.858
72036ION    NA+38577  20.151  23.271   2.156
72037ION    NA+38578  35.148   3.755   0.806
72038ION    NA+38579  27.392  38.703  12.548
72039ION    NA+38580  30.683  22.819  10.280
72040ION    NA+38581  44.492   1.724  11.023
72041ION    NA+38582  27.596   9.403  14.427
72042ION    NA+38583  38.853  17.733  14.874
72043ION    NA+38584   0.550   3.715   5.213
72044ION    NA+38585  11.680  14.636   3.100
72045ION    NA+38586  29.615  13.547  11.972
72046ION    NA+38587  44.804  15.464  10.736
72047ION    NA+38588  13.621  27.920  12.410
72048ION    NA+38589  33.871  23.538   2.294
72049ION    NA+38590   5.292  19.328  12.975
72050ION    NA+38591   7.907  15.068   1.394
72051ION    NA+38592  34.313  34.804   0.979
72052ION    NA+38593   4.373  41.328   0.196
72053ION    NA+38594  29.963  23.173   0.771
72054ION    NA+38595  34.800  31.527   0.275
72055ION    NA+38596  29.396  34.342   2.286
72056ION    NA+38597  17.286   5.940  14.829
72057ION    NA+38598  39.823  24.243   3.377
72058ION    NA+38599   1.522  27.520   4.399
72059ION    NA+38600  34.569  29.915   4.669
72060ION    NA+38601   5.185  15.727   3.643
72061ION    NA+38602  21.319  18.722   5.184
72062ION    NA+38603  15.334  39.953   0.792
72063ION    NA+38604  40.764  33.540  10.686
72064ION    NA+38605  35.860  11.653   1.930
72065ION    NA+38606   8.128  20.859   2.962
72066ION    NA+38607  35.595  36.758  12.179
72067ION    NA+38608  12.089  19.564  11.124
72068ION    NA+38609   9.083  15.512   2.458
72069ION    NA+38610  27.102  43.571   1.285
72070ION    NA+38611  31.942  35.140   1.585
72071ION    NA+38612  44.142  27.265  12.749
72072ION    NA+38613  28.904  24.436  13.135
72073ION    NA+38614  37.553  11.015   4.569
72074ION    NA+38615  10.577   3.352  11.314
72075ION    NA+38616  16.228  11.201   1.000
72076ION    NA+38617  33.918  24.521  13.481
72077ION    NA+38618  20.071  37.565  13.862
72078ION    NA+38619  12.040  32.145  12.699
72079ION    NA+38620  35.785  21.411   3.693
72080ION    NA+38621  21.318  28.996   9.752
72081ION    NA+38622  25.830   9.580  10.751
72082ION    NA+38623  11.850   8.002   3.428
72083ION    NA+38624  40.904  22.254   4.666
72084ION    NA+38625  26.449  19.698   2.340
72085ION    NA+38626   7.117   5.265  10.579
72086ION    NA+38627  20.969  35.852   3.184
72087ION    NA+38628  41.973   0.603  11.151
72088ION    NA+38629  37.422  31.420  11.091
72089ION    NA+38630  15.090  13.076   3.577
72090ION    NA+38631  19.685  22.423   1.680
72091ION    NA+38632  35.443  32.361  12.498
72092ION    NA+38633   7.076  15.298  14.415
72093ION    NA+38634  19.817  26.763   4.983
72094ION    NA+38635   6.780  19.828  14.120
72095ION    NA+38636  38.537  33.356  11.997
72096ION    NA+38637  17.003  20.567  13.819
72097ION    NA+38638  28.985  21.337  11.088
72098ION    NA+38639  33.579   5.767  10.225
72099ION    NA+38640  38.842   3.505   2.675
72100ION    NA+38641  15.617  41.922   1.326
72101ION    NA+38642  15.642  18.293   0.331
72102ION    NA+38643   1.022   9.594   2.477
72103ION    NA+38644  24.274  30.787  11.427
72104ION    NA+38645  23.724  41.279   4.296
72105ION    NA+38646  32.172  16.246   4.113
72106ION    NA+38647  15.205   2.332   2.072
72107ION    NA+38648  24.735  31.230   3.316
72108ION    NA+38649  19.603  36.120  11.311
72109ION    NA+38650  22.390   8.585   4.214
72110ION    NA+38651   6.898  23.029   2.677
72111ION    NA+38652  41.872   1.164   3.209
72112ION    NA+38653  34.904   3.561  11.723
72113ION    NA+38654  22.091   7.154  12.091
72114ION    NA+38655  25.411   7.920  12.640
72115ION    NA+38656  16.213  32.665   0.995
72116ION    NA+38657   2.100  39.262  14.537
72117ION    NA+38658  31.838   8.406  12.690
72118ION    NA+38659   7.374  37.206   4.716
72119ION    NA+38660  23.000  20.065   0.293
72120ION    NA+38661  25.469  30.867  11.038
72121ION    NA+38662  16.300  36.483   1.358
72122ION    NA+38663   3.287  31.370   1.559
72123ION    NA+38664  43.824  40.682   3.237
72124ION    NA+38665  17.519   7.209  11.629
72125ION    NA+38666   8.536  33.163   5.124
72126ION    NA+38667  33.758  10.368   3.573
72127ION    NA+38668  21.720  22.771   2.335
72128ION    NA+38669   9.644  36.885  12.499
72129ION    NA+38670  10.307  28.106  12.069
72130ION    NA+38671  17.735  30.994   3.346
72131ION    NA+38672  19.835  34.800   1.861
72132ION    NA+38673  37.535  32.473   4.276
72133ION    NA+38674  37.398   5.132  11.943
72134ION    NA+38675   0.602  43.453   1.678
72135ION    NA+38676  34.355  25.184  14.133
72136ION    NA+38677  18.674  26.714   1.824
72137ION    NA+38678  23.475  12.302  11.108
72138ION    NA+38679  37.859   5.246  13.461
72139ION    NA+38680   4.001  30.473   4.668
72140ION    NA+38681  31.714   7.778   0.805
72141ION    NA+38682  30.233  32.119  14.903
72142ION    NA+38683   6.878  15.645   4.189
72143ION    NA+38684  18.561  26.572  13.384
72144ION    NA+38685  26.927  14.510  13.878
72145ION    NA+38686  15.274   5.168   1.159
72146ION    NA+38687  25.100  37.628   2.877
72147ION    NA+38688   6.946   0.716  13.470
72148ION    NA+38689  35.825  31.292   4.185
72149ION    NA+38690   6.273  30.072  14.864
72150ION    NA+38691  20.435  38.542   1.468
72151ION    NA+38692  44.954   3.839   9.623
72152ION    NA+38693  38.416  39.507  10.925
72153ION    NA+38694   5.482   4.508   0.744
72154ION    NA+38695   4.344  29.071   3.783
72155ION    NA+38696  34.608  10.552   2.063
72156ION    NA+38697  39.337  40.469  13.171
72157ION    NA+38698   1.676  16.013   2.575
72158ION    NA+38699  36.000  14.180  13.545
72159ION    NA+38700  44.734  18.652   1.052
72160ION    NA+38701  27.024  22.462  12.020
72161ION    NA+38702  44.423  39.276  10.973
72162ION    NA+38703  14.772  36.805   4.147
72163ION    NA+38704  43.095  35.142   2.425
72164ION    NA+38705   5.519   0.678   1.179
72165ION    NA+38706  23.145  29.622   2.814
72166ION    NA+38707  15.938  42.398  14.285
72167ION    NA+38708   8.449  17.488   2.942
72168ION    NA+38709  17.777  21.070   3.572
72169ION    NA+38710  44.208   2.399   9.923
72170ION    NA+38711   8.028  41.992  10.491
72171ION    NA+38712  14.033   2.841   1.694
72172ION    NA+38713   0.571  33.650   1.034
72173ION    NA+38714  30.026  25.303   0.014
72174ION    NA+38715  18.066  21.947  10.749
72175ION    NA+38716  17.309  23.589   0.951
72176ION    NA+38717  31.111  34.704  12.613
72177ION    NA+38718  22.655  18.232  11.262
72178ION    NA+38719  12.326  36.779   3.260
72179ION    NA+38720  11.496   1.581  13.954
72180ION    NA+38721  39.477  39.345  14.895
72181ION    NA+38722  31.133  14.944  11.092
72182ION    NA+38723   3.471   5.846  11.562
72183ION    NA+38724  25.659   6.844   1.506
72184ION    NA+38725  28.535  11.867   1.266
72185ION    NA+38726  22.985   6.933   5.292
72186ION    NA+38727   5.976   8.611  11.543
72187ION    NA+38728  37.903   2.773   2.421
72188ION    NA+38729   2.873  27.961   4.195
72189ION    NA+38730  25.223  18.580  12.624
72190ION    NA+38731  12.440   2.261   1.727
72191ION    NA+38732  39.163  44.598   2.171
72192ION    NA+38733  14.307  14.514  13.575
72193ION    NA+38734  44.831  32.104   0.352
72194ION    NA+38735  24.569   1.859   4.439
72195ION    NA+38736  39.404  34.834   2.302
72196ION    NA+38737  22.171  11.931  12.999
72197ION    NA+38738   4.392  18.795  14.344
72198ION    NA+38739  20.301  29.319   1.973
72199ION    NA+38740  41.548   1.712   0.969
72200ION    NA+38741  22.111   5.194   3.739
72201ION    NA+38742  13.755  35.011   4.306
72202ION    NA+38743  18.600  30.408  14.416
72203ION    NA+38744  10.151  38.841  12.435
72204ION    NA+38745   9.917  12.408  11.170
72205ION    NA+38746  17.188  29.466   2.358
72206ION    NA+38747  29.645  17.172  11.065
72207ION    NA+38748   3.292   5.475   1.932
72208ION    NA+38749   8.679  12.042   2.553
72209ION    NA+38750  41.306  25.286   2.803
72210ION    NA+38751  43.514  28.334   2.603
72211ION    NA+38752  43.114   3.820  12.763
72212ION    NA+38753  41.550  33.883   3.661
72213ION    NA+38754  39.785  28.388   4.139
72214ION    NA+38755  29.218  16.931   1.002
72215ION    NA+38756  36.861   0.477   1.751
72216ION    NA+38757  41.336  26.743   0.507
72217ION    NA+38758  19.880  31.128  11.776
72218ION    NA+38759  39.982  37.685  13.863
72219ION    NA+38760  36.800  27.612  13.988
72220ION    NA+38761  43.427  32.741   1.486
72221ION    NA+38762   8.078  14.341   5.223
72222ION    NA+38763  43.523  13.801  14.355
72223ION    NA+38764  39.510  29.172  11.908
72224ION    NA+38765  31.188   2.701  11.868
72225ION    NA+38766   0.816  18.497   2.129
72226ION    NA+38767  29.444  44.214  11.158
72227ION    NA+38768  28.949  30.535  11.157
72228ION    NA+38769  23.665   1.914  14.066
72229ION    NA+38770  29.683  31.675  10.808
72230ION    NA+38771   2.684  37.428  12.160
72231ION    NA+38772  20.570  23.311   0.898
72232ION    NA+38773  10.205  19.778   3.294
72233ION    NA+38774  22.835   7.796  13.441
72234ION    NA+38775  17.665  10.611  14.069
72235ION    NA+38776   0.487   1.153  13.515
72236ION    NA+38777   1.847   0.094  10.633
72237ION    NA+38778   1.736  31.179   0.451
72238ION    NA+38779   9.809   7.295   4.475
72239ION    NA+38780   2.832  26.388   3.260
72240ION    NA+38781  23.930  10.892  14.772
72241ION    NA+38782   7.450  17.226   1.418
72242ION    NA+38783  40.811  34.736   4.624
72243ION    NA+38784  12.688   4.404  14.014
72244ION    NA+38785   4.866  41.317  14.326
72245ION    NA+38786  37.638  41.543   4.371
72246ION    NA+38787  29.053  11.897  12.427
72247ION    NA+38788  31.502  19.583  11.083
72248ION    NA+38789  36.682  21.934   3.609
72249ION    NA+38790  10.803  25.535   1.400
72250ION    NA+38791  29.254  26.819   1.599
72251ION    NA+38792  28.865  42.303  14.093
72252ION    NA+38793  31.974  44.460  10.746
72253ION    NA+38794   5.031  43.752   1.357
72254ION    NA+38795  36.534  38.678   1.841
72255ION    NA+38796  25.958  18.918   0.831
72256ION    NA+38797   1.721  11.257  14.265
72257ION    NA+38798  27.360  30.388  13.237
72258ION    NA+38799  41.439  39.836  13.866
72259ION    NA+38800  15.995   4.266  10.995
72260ION    NA+38801   0.628  41.910   2.787
72261ION    NA+38802   4.483  34.142   1.737
72262ION    NA+38803   3.401  14.963   0.470
72263ION    NA+38804  13.981   8.330  10.232
72264ION    NA+38805  20.102  24.298  14.251
72265ION    NA+38806  21.969   9.875  12.124
72266ION    NA+38807  36.145  43.916   3.224
72267ION    NA+38808  41.490   7.444  13.006
72268ION    NA+38809  41.757  17.101  12.610
72269ION    NA+38810  27.542  29.486   3.299
72270ION    NA+38811  21.239  35.350   0.434
72271ION    NA+38812  12.244  10.459   3.110
72272ION    NA+38813  16.786  43.976   0.398
72273ION    NA+38814   8.243  41.032   4.686
72274ION    NA+38815  39.709  34.087  13.381
72275ION    NA+38816   2.904  41.433   0.471
72276ION    NA+38817  23.078  38.182  13.821
72277ION    NA+38818  12.233  25.208   4.393
72278ION    NA+38819   4.952  15.979   1.066
72279ION    NA+38820  17.078  34.641  11.178
72280ION    NA+38821  12.288  15.631   0.840
72281ION    NA+38822  20.614   3.914   4.565
72282ION    NA+38823  11.207  39.558   2.677
72283ION    NA+38824  15.335  15.562   2.540
72284ION    NA+38825  28.429   5.660   4.202
72285ION    NA+38826  23.238   2.952  14.626
72286ION    NA+38827  41.650  22.176   3.898
72287ION    NA+38828  32.067  28.333  12.947
72288ION    NA+38829  21.029  44.756   0.780
72289ION    NA+38830   6.497  29.530   0.863
72290ION    NA+38831  37.308  40.774   3.756
72291ION    NA+38832   7.457  41.510   3.343
72292ION    NA+38833   1.196   6.241   3.828
72293ION    NA+38834   3.514  23.434  10.296
72294ION    NA+38835  25.355  39.283  11.282
72295ION    NA+38836  12.430  38.686  10.862
72296ION    NA+38837  39.919  43.471  11.111
72297ION    NA+38838  42.864  13.320  12.914
72298ION    NA+38839  32.870  22.034  14.447
72299ION    NA+38840   1.793  35.948   0.121
72300ION    NA+38841  33.575  26.303  11.451
72301ION    NA+38842   5.567  34.610   1.266
72302ION    NA+38843   9.921  14.655   4.302
72303ION    NA+38844  40.542  29.094   4.047
72304ION    NA+38845  16.671  29.232  10.654
72305ION    NA+38846  10.736   5.467   2.585
72306ION    NA+38847  43.404  41.724   0.714
72307ION    NA+38848  26.228   2.803   0.785
72308ION    NA+38849  13.750  43.508   3.055
72309ION    NA+38850  42.752  26.059   2.326
72310ION    NA+38851   0.577  11.390   0.078
72311ION    NA+38852  20.679  23.957   4.114
72312ION    NA+38853  15.402  14.325   4.027
72313ION    NA+38854  14.765  10.054   2.347
72314ION    NA+38855  20.244   7.898  12.729
72315ION    NA+38856  39.566   5.595  13.496
72316ION    NA+38857  15.434  27.254   1.830
72317ION    NA+38858  26.535   2.782   3.084
72318ION    NA+38859  38.402  15.703   3.904
72319ION    NA+38860   8.463  28.283  11.947
72320ION    NA+38861  13.062  10.728   1.344
72321ION    NA+38862  11.151  31.466   1.414
72322ION    NA+38863  23.546   8.470  13.099
72323ION    NA+38864  14.914   6.439   9.803
72324ION    NA+38865   5.465  39.226   1.035
72325ION    NA+38866  35.043  39.292  11.450
72326ION    NA+38867  10.481  21.349   2.864
72327ION    NA+38868   2.938  32.529  14.149
72328ION    NA+38869  38.312  27.927   2.420
72329ION    NA+38870   8.179  11.145   0.048
72330ION    NA+38871  18.157  28.425  11.071
72331ION    NA+38872   0.697   3.140   1.639
72332ION    NA+38873   8.403  28.832   0.065
72333ION    NA+38874  41.812  29.164   0.291
72334ION    NA+38875  25.864   5.811  10.716
72335ION    NA+38876  17.807  28.875   1.285
72336ION    NA+38877  40.015  29.404   0.642
72337ION    NA+38878  29.002  40.118   1.825
72338ION    NA+38879  34.665  24.999   1.763
72339ION    NA+38880  21.325   6.712   4.921
72340ION    NA+38881  15.974  35.633   3.676
72341ION    NA+38882  32.106  10.017  12.281
72342ION    NA+38883   6.800  18.503   2.543
72343ION    NA+38884  33.603  39.282  10.536
72344ION    NA+38885  28.825  30.723   3.636
72345ION    NA+38886   6.255  43.947   0.733
72346ION    NA+38887   2.402   0.054  14.768
72347ION    NA+38888  11.622  16.583   3.436
72348ION    NA+38889  26.672   7.832   2.895
72349ION    NA+38890  36.847  20.731  11.975
72350ION    NA+38891  39.727  37.693   4.085
72351ION    NA+38892  10.988  27.290  10.839
72352ION    NA+38893  27.525  27.671  14.388
72353ION    NA+38894  13.471  36.721  10.697
72354ION    NA+38895  16.134  12.177   2.188
72355ION    NA+38896  15.136  36.896  10.699
72356ION    NA+38897  21.589  15.383  10.112
72357ION    NA+38898  31.979  18.110  14.761
72358ION    NA+38899  39.784  22.184  14.732
72359ION    NA+38900  18.342  40.196   9.793
72360ION    NA+38901   5.547  12.245   1.200
72361ION    NA+38902  14.904   7.194  11.293
72362ION    NA+38903  17.776   3.928  13.536
72363ION    NA+38904  33.116  42.426   4.046
72364ION    NA+38905   8.373   7.491  11.352
72365ION    NA+38906  40.766  10.888   1.644
72366ION    NA+38907  10.458  28.551   4.482
72367ION    NA+38908  23.576  21.732  11.578
72368ION    NA+38909  31.468   9.612  12.972
72369ION    NA+38910  22.001   9.322   2.194
72370ION    NA+38911  19.121   0.618   3.348
72371ION    NA+38912  14.422  11.701  12.405
72372ION    NA+38913  20.283  30.444   1.236
72373ION    NA+38914  44.451  10.716   3.691
72374ION    NA+38915  43.168   1.031   3.799
72375ION    NA+38916  42.078  15.079  11.652
72376ION    NA+38917  19.691  20.552  14.048
72377ION    NA+38918  10.411  14.601   5.171
72378ION    NA+38919  21.557  10.379   1.511
72379ION    NA+38920  14.093   3.385  14.475
72380ION    NA+38921  39.331  20.615   4.186
72381ION    NA+38922  22.329   8.878   0.598
72382ION    NA+38923  20.440   6.530  11.841
72383ION    NA+38924  12.106  42.023   2.332
72384ION    NA+38925  41.841  13.225  12.119
72385ION    NA+38926  24.082   7.947  12.437
72386ION    NA+38927  44.885  29.023   0.651
72387ION    NA+38928  16.006   6.531   3.112
72388ION    NA+38929   9.336   5.397  13.567
72389ION    NA+38930   2.405  13.255   0.301
72390ION    NA+38931   8.002  11.341  10.797
72391ION    NA+38932  30.672  31.773   0.627
72392ION    NA+38933  30.835  39.493   3.517
72393ION    NA+38934  28.963  33.262  10.749
72394ION    NA+38935  26.420  19.165  10.881
72395ION    NA+38936  22.167   3.500   4.119
72396ION    NA+38937  36.570  30.503   1.299
72397ION    NA+38938  25.056   7.761   4.136
72398ION    NA+38939  37.498  42.979   2.642
72399ION    NA+38940  33.150   9.320   1.688
72400ION    NA+38941  16.337  35.759   2.047
72401ION    NA+38942  29.435  18.846   5.315
72402ION    NA+38943  24.486   6.717   2.196
72403ION    NA+38944  27.109   6.971   0.165
72404ION    NA+38945  39.922  43.242   1.186
72405ION    NA+38946  31.774  28.414   1.481
72406ION    NA+38947  15.552  14.504  11.021
72407ION    NA+38948  17.847  43.372  13.020
72408ION    NA+38949   1.176   8.625   1.868
72409ION    NA+38950  42.137   1.869   4.453
72410ION    NA+38951  22.288  43.941   2.789
72411ION    NA+38952  24.716   0.812  12.430
72412ION    NA+38953  38.257  36.486  13.992
72413ION    NA+38954  26.542   3.341  13.337
72414ION    NA+38955  43.773  15.827   4.197
72415ION    NA+38956  28.895  39.473   4.016
72416ION    NA+38957  38.237  17.603   2.041
72417ION    NA+38958  25.147  42.575  12.094
72418ION    NA+38959  16.497  18.332   2.197
72419ION    NA+38960   8.377  33.016  10.629
72420ION    NA+38961  41.276  41.935   2.937
72421ION    NA+38962   2.982  40.808   2.828
72422ION    NA+38963   4.798  20.920  13.511
72423ION    NA+38964   7.947  38.192  10.934
72424ION    NA+38965   2.857  26.963   4.078
72425ION    NA+38966   2.418  23.296  11.589
72426ION    NA+38967  31.738  20.819  13.358
72427ION    NA+38968  36.920  27.465   2.386
72428ION    NA+38969  29.593  17.888   0.945
72429ION    NA+38970  34.602  44.876   0.283
72430ION    NA+38971  24.877  41.221   0.851
72431ION    NA+38972  12.173  29.979   1.137
72432ION    NA+38973  10.888  33.689  14.785
72433ION    NA+38974   2.650  42.067  11.037
72434ION    NA+38975  20.053  23.404  10.418
72435ION    NA+38976  32.937  41.107   2.151
72436ION    NA+38977  41.584   0.723   1.110
72437ION    NA+38978  27.212  11.097  13.387
72438ION    NA+38979  40.281  21.853  12.017
72439ION    NA+38980  21.494  19.822   0.984
72440ION    NA+38981   1.415  19.432  11.859
72441ION    NA+38982  21.126  21.754   1.692
72442ION    NA+38983  23.895  13.032  13.589
72443ION    NA+38984  43.444  27.438   2.165
72444ION    NA+38985   9.214  15.265   0.810
72445ION    NA+38986  18.252  39.273   0.771
72446ION    NA+38987  27.568   9.759   3.535
72447ION    NA+38988  30.172  15.730   3.861
72448ION    NA+38989  44.051  38.995  11.858
72449ION    NA+38990   4.716  41.181  11.720
72450ION    NA+38991   9.310  10.237  12.575
72451ION    NA+38992  17.147  37.176   5.188
72452ION    NA+38993  41.527  10.726   1.142
72453ION    NA+38994  12.695  27.442  12.552
72454ION    NA+38995  30.366  27.442  14.591
72455ION    NA+38996  20.943  29.615  12.201
72456ION    NA+38997  20.998  32.614   5.318
72457ION    NA+38998  43.067   9.655   3.769
72458ION    NA+38999  27.216  26.614  10.685
72459ION    NA+39000   2.861  17.143   1.350
72460ION    NA+39001  41.519   8.838  11.124
72461ION    NA+39002  19.226  34.849   4.469
72462ION    NA+39003   3.341  29.819   0.394
72463ION    NA+39004  36.493  12.746  10.687
72464ION    NA+39005  43.529  38.475  13.916
72465ION    NA+39006   1.634  14.003  12.049
72466ION    NA+39007   7.929  43.996   0.395
72467ION    NA+39008   8.185  22.008   3.111
72468ION    NA+39009   5.347  37.995   3.625
72469ION    NA+39010  13.723   8.297   0.700
72470ION    NA+39011  33.583  23.847   3.807
72471ION    NA+39012  29.457  13.688   0.646
72472ION    NA+39013  39.180  11.586   1.713
72473ION    NA+39014  18.541  12.852   1.235
72474ION    NA+39015  25.259  13.801   2.710
72475ION    NA+39016  30.365  36.499  13.861
72476ION    NA+39017   0.246   1.244   4.630
72477ION    NA+39018  33.605  21.062   0.173
72478ION    NA+39019  33.365   8.580   3.650
72479ION    NA+39020  13.146   7.741   4.019
72480ION    NA+39021   9.409   1.683   4.475
72481ION    NA+39022  26.462  38.724   1.514
72482ION    NA+39023  27.899   1.730  11.282
72483ION    NA+39024  33.987   7.376   0.383
72484ION    NA+39025   3.869  17.094   0.244
72485ION    NA+39026  15.567   8.786   4.500
72486ION    NA+39027   6.699  39.351   2.809
72487ION    NA+39028  10.748   4.119  13.830
72488ION    NA+39029  31.885  28.576  14.831
72489ION    NA+39030   8.576  20.356   3.564
72490ION    NA+39031  21.448   7.257   0.229
72491ION    NA+39032   5.448  18.341  12.981
72492ION    NA+39033  10.223  11.210  12.433
72493ION    NA+39034   2.455   0.937  10.568
72494ION    NA+39035   8.883   1.805  12.984
72495ION    NA+39036  31.686  39.330   2.279
72496ION    NA+39037   4.743  16.668   0.504
72497ION    NA+39038  36.663  32.608  11.555
72498ION    NA+39039  29.875  38.621  13.751
72499ION    NA+39040  24.401  24.720  13.826
72500ION    NA+39041  14.288   7.347  14.661
72501ION    NA+39042  35.767  36.591   3.915
72502ION    NA+39043  23.187  42.085  13.012
72503ION    NA+39044  16.150   7.938  11.962
72504ION    NA+39045   2.454  31.581  13.245
72505ION    NA+39046   9.723  18.389  11.451
72506ION    NA+39047   2.744  21.111  14.813
72507ION    NA+39048  16.869  43.590   2.140
72508ION    NA+39049  42.363  12.891   1.236
72509ION    NA+39050  31.614  15.592   5.498
72510ION    NA+39051   2.284  14.781   0.002
72511ION    NA+39052   4.937  44.707  11.962
72512ION    NA+39053  13.387  10.105  12.626
72513ION    NA+39054  22.051   8.801  12.255
72514ION    NA+39055  16.746   6.139  12.290
72515ION    NA+39056  12.736  39.018  11.780
72516ION    NA+39057  38.088  26.030  13.711
72517ION    NA+39058  39.285  37.811  13.483
72518ION    NA+39059   8.427  42.001   2.498
72519ION    NA+39060  13.255  19.520   1.092
72520ION    NA+39061  40.471  32.500   4.449
72521ION    NA+39062  16.991  18.069  13.309
72522ION    NA+39063  10.884  42.869  14.917
72523ION    NA+39064  23.067  14.704  11.503
72524ION    NA+39065  42.275   2.323  10.963
72525ION    NA+39066  30.859  14.861  12.959
72526ION    NA+39067  15.920  33.588   9.858
72527ION    NA+39068  20.694  34.583   4.044
72528ION    NA+39069  24.011  14.934  11.266
72529ION    NA+39070  36.763  20.609   4.625
72530ION    NA+39071   3.400  38.250   3.067
72531ION    NA+39072  32.978  32.754   2.895
72532ION    NA+39073  22.030  20.357  10.289
72533ION    NA+39074  39.369  36.142   0.932
72534ION    NA+39075  39.863   1.752   1.326
72535ION    NA+39076  36.650  10.055  11.614
72536ION    NA+39077   0.395  37.014   4.389
72537ION    NA+39078  22.052  12.854  14.852
72538ION    NA+39079  34.869   0.577   2.622
72539ION    NA+39080  26.736  21.696  12.764
72540ION    NA+39081  36.198  39.213  11.958
72541ION    NA+39082  40.618  38.214   1.750
72542ION    NA+39083   6.276  25.571   2.110
72543ION    NA+39084  43.416  12.143   3.079
72544ION    NA+39085  19.348  26.485  12.410
72545ION    NA+39086  26.332  35.886  13.211
72546ION    NA+39087  35.770  42.797  11.164
72547ION    NA+39088  20.100  13.500   4.117
72548ION    NA+39089   8.355  37.054   2.511
72549ION    NA+39090  10.594   8.249   2.792
72550ION    NA+39091   5.092  23.600  11.035
72551ION    NA+39092  19.906  17.264  10.794
72552ION    NA+39093  19.975   9.901   2.869
72553ION    NA+39094   2.234   8.126   0.724
72554ION    NA+39095   7.990  23.175   4.762
72555ION    NA+39096  30.262  43.622  12.414
72556ION    NA+39097  29.538  11.609  14.483
72557ION    NA+39098  30.611   3.499  12.190
72558ION    NA+39099  11.799  40.687  11.595
72559ION    NA+39100  40.265  28.842  10.917
72560ION    NA+39101  34.166   1.711   0.868
72561ION    NA+39102  14.009   2.220   5.024
72562ION    NA+39103   8.913  16.354   2.534
72563ION    NA+39104   8.415   1.115   2.112
72564ION    NA+39105   8.321  21.597  13.078
72565ION    NA+39106  31.756  30.093   4.129
72566ION    NA+39107   6.531  14.178  14.872
72567ION    NA+39108   7.628   0.576  12.891
72568ION    NA+39109  39.739  25.427   0.409
72569ION    NA+39110  24.136   8.751  10.731
72570ION    NA+39111  25.156  13.019   3.325
72571ION    NA+39112  31.427  30.910  13.087
72572ION    NA+39113  37.192  36.103   0.084
72573ION    NA+39114  22.106  13.844   3.478
72574ION    NA+39115  40.124   4.903  13.556
72575ION    NA+39116  12.107  21.556   1.784
72576ION    NA+39117   2.415  20.764   3.152
72577ION    NA+39118   5.934  19.497  14.171
72578ION    NA+39119  34.378   8.888  14.734
72579ION    NA+39120   3.902  17.367  11.831
72580ION    NA+39121   2.542  24.390  14.961
72581ION    NA+39122  22.124  40.754   0.294
72582ION    NA+39123  14.634  41.549   1.301
72583ION    NA+39124  14.272   5.236   1.896
72584ION    NA+39125  12.807  19.664  14.785
72585ION    NA+39126   5.658  36.264   3.815
72586ION    NA+39127  39.447  39.946   3.164
72587ION    NA+39128   3.660  16.074  11.767
72588ION    NA+39129   2.183  24.204  12.049
72589ION    NA+39130  44.068  31.703   2.793
72590ION    NA+39131  25.215  19.531   1.737
72591ION    NA+39132  17.750   1.024   9.784
72592ION    NA+39133  22.560  13.338   4.814
72593ION    NA+39134   8.376  25.354  13.813
72594ION    NA+39135  44.346  28.017   4.063
72595ION    NA+39136  44.777  41.442  14.335
72596ION    NA+39137  31.327   8.195  13.384
72597ION    NA+39138  27.399  15.537  14.335
72598ION    NA+39139  25.447   9.587   4.116
72599ION    NA+39140  29.047   1.853   1.616
72600ION    NA+39141   3.784  14.236   3.568
72601ION    NA+39142  31.226   4.374   2.524
72602ION    NA+39143   1.285  13.060  13.572
72603ION    NA+39144  38.595  36.774  11.601
72604ION    NA+39145  38.654  33.660  13.009
72605ION    NA+39146  16.102  34.996   4.436
72606ION    NA+39147   6.662  31.656   1.287
72607ION    NA+39148   9.119  26.742   4.662
72608ION    NA+39149  24.439  43.803   3.158
72609ION    NA+39150  11.652  20.128   0.124
72610ION    NA+39151   9.010   8.543   4.174
72611ION    NA+39152  42.641  11.958  14.179
72612ION    NA+39153  12.660  37.909  11.619
72613ION    NA+39154  26.330   8.132  10.751
72614ION    NA+39155  27.689  28.972  13.464
72615ION    NA+39156  16.629  38.415   4.459
72616ION    NA+39157  21.662  28.713   0.942
72617ION    NA+39158  11.287  20.693   1.250
72618ION    NA+39159  34.748  41.292   3.709
72619ION    NA+39160  27.912  24.482  13.020
72620ION    NA+39161   7.588  13.225  13.375
72621ION    NA+39162  21.626  12.709   5.325
72622ION    NA+39163   7.227   9.121  14.613
72623ION    NA+39164  43.050   3.683   2.630
72624ION    NA+39165  18.495  14.048   1.675
72625ION    NA+39166   3.345   1.070  12.399
72626ION    NA+39167  32.903  16.801  10.705
72627ION    NA+39168  22.191  43.535   0.313
72628ION    NA+39169   7.940   8.673   0.608
72629ION    NA+39170  19.376   2.807   2.839
72630ION    NA+39171  10.146  10.506  11.418
72631ION    NA+39172  12.859   8.313   0.176
72632ION    NA+39173  15.580  33.776   4.925
72633ION    NA+39174  37.758  11.595  13.537
72634ION    NA+39175   3.345  24.585   3.624
72635ION    NA+39176   0.468  29.846  13.475
72636ION    NA+39177  16.995  43.508  12.758
72637ION    NA+39178  42.124  38.503  14.600
72638ION    NA+39179  35.302  29.431  11.406
72639ION    NA+39180  17.060   4.425  12.119
72640ION    NA+39181  38.643  41.437   4.134
72641ION    NA+39182  42.217  24.210  12.453
72642ION    NA+39183  38.254  10.800  13.965
72643ION    NA+39184  37.024   7.140  11.522
72644ION    NA+39185  31.116  23.563   0.765
72645ION    NA+39186   6.018  10.062  11.018
72646ION    NA+39187  31.316   1.830  12.342
72647ION    NA+39188  25.567  36.374   3.864
72648ION    NA+39189   0.843  11.273   1.035
72649ION    NA+39190  28.866  10.877  14.150
72650ION    NA+39191  40.893  32.221   3.056
72651ION    NA+39192  26.003  36.039   1.273
72652ION    NA+39193  29.561  19.655   1.602
72653ION    NA+39194   9.694  29.834  10.832
72654ION    NA+39195  13.183  13.499   3.336
72655ION    NA+39196   5.474  33.181  13.165
72656ION    NA+39197  21.519  19.545   4.232
72657ION    NA+39198  17.592  40.730  11.013
72658ION    NA+39199  39.652  38.730  13.582
72659ION    NA+39200  38.372  24.112   4.578
72660ION    NA+39201  38.890   1.530   3.168
72661ION    NA+39202  14.779  27.800   1.308
72662ION    NA+39203   6.263   6.200  11.815
72663ION    NA+39204  21.578   8.298  12.777
72664ION    NA+39205  28.784  19.784   0.575
72665ION    NA+39206  13.210  13.118   1.413
72666ION    NA+39207   1.794  27.293   3.267
72667ION    NA+39208  11.843  43.545   2.950
72668ION    NA+39209  20.957  27.969  12.916
72669ION    NA+39210  27.436  12.984  14.870
72670ION    NA+39211  26.404   4.781  12.027
72671ION    NA+39212  28.567   5.354  13.948
72672ION    NA+39213  38.869  18.171  11.609
72673ION    NA+39214  38.541  43.978   4.574
72674ION    NA+39215   6.854  18.676   1.074
72675ION    NA+39216   3.648  14.363  12.100
72676ION    NA+39217  37.699  26.430   1.113
72677ION    NA+39218   8.937  32.408  11.194
72678ION    NA+39219   9.073   8.867  13.056
72679ION    NA+39220  38.037  18.198   0.261
72680ION    NA+39221  35.447  19.566   1.259
72681ION    NA+39222  43.502  32.166  13.736
72682ION    NA+39223  28.720  29.339   2.366
72683ION    NA+39224  41.551  27.210   1.428
72684ION    NA+39225  11.000   8.609   4.941
72685ION    NA+39226  12.788   2.688  13.372
72686ION    NA+39227   9.992  13.955  13.486
72687ION    NA+39228  32.429  43.915  12.829
72688ION    NA+39229   6.218  41.551   2.785
72689ION    NA+39230  13.598  15.769  13.403
72690ION    NA+39231  21.603  30.415   5.234
72691ION    NA+39232  20.191  42.667   3.291
72692ION    NA+39233   6.088  25.303  11.908
72693ION    NA+39234   0.035  43.732  11.132
72694ION    NA+39235  35.413  19.708   4.804
72695ION    NA+39236   1.624  15.762  13.491
72696ION    NA+39237  12.523  22.624  11.948
72697ION    NA+39238  33.704  41.260   2.775
72698ION    NA+39239   1.192   8.874   4.523
72699ION    NA+39240   5.018   7.828  11.752
72700ION    NA+39241  27.140  26.730   4.823
72701ION    NA+39242   0.023  30.795   0.620
72702ION    NA+39243   0.364   1.430  10.597
72703ION    NA+39244   4.128   0.859   5.037
72704ION    NA+39245  24.142  38.083   0.272
72705ION    NA+39246  33.159  14.805  13.601
72706ION    NA+39247  13.174  41.865   2.759
72707ION    NA+39248  39.863  19.524  12.082
72708ION    NA+39249  27.649  31.447  13.073
72709ION    NA+39250  25.771  12.767  12.340
72710ION    NA+39251  10.101  31.820  14.358
72711ION    NA+39252   1.248  42.351   3.844
72712ION    NA+39253  30.933  32.706   0.876
72713ION    NA+39254  33.095  21.193  12.084
72714ION    NA+39255  38.223   6.853   4.104
72715ION    NA+39256  12.199  44.281  13.348
72716ION    NA+39257  27.312  26.481  11.923
72717ION    NA+39258  11.595  23.089  13.546
72718ION    NA+39259  37.388  18.994   1.175
72719ION    NA+39260  39.262   7.287  11.244
72720ION    NA+39261  21.025  16.316   2.223
72721ION    NA+39262  39.789  28.020   2.392
72722ION    NA+39263  30.443  25.963  10.839
72723ION    NA+39264   5.884  32.482   0.468
72724ION    NA+39265  28.476  15.780   1.901
72725ION    NA+39266  15.785  11.218   2.355
72726ION    NA+39267   1.467  21.177   3.732
72727ION    NA+39268  33.589  28.447  12.402
72728ION    NA+39269  33.653   0.331   0.248
72729ION    NA+39270   1.641  38.731   4.236
72730ION    NA+39271  27.756  43.515   4.147
72731ION    NA+39272  26.898  37.410   0.864
72732ION    NA+39273   4.063  21.415  13.326
72733ION    NA+39274  13.579   9.790   2.579
72734ION    NA+39275  28.571  22.323  11.724
72735ION    NA+39276   6.073  32.014   1.804
72736ION    NA+39277  39.965  44.615   2.875
72737ION    NA+39278  39.586   7.530   0.433
72738ION    NA+39279   8.627   0.680   3.733
72739ION    NA+39280  32.352  12.966   0.846
72740ION    NA+39281  17.322   2.420   2.229
72741ION    NA+39282  34.068  42.805   5.178
72742ION    NA+39283  23.272   2.612   5.515
72743ION    NA+39284  34.912  18.486   2.765
72744ION    NA+39285  38.426  18.556   2.279
72745ION    NA+39286  16.541  26.965  11.239
72746ION    NA+39287  21.838  44.401   9.902
72747ION    NA+39288  15.963  13.249  13.828
72748ION    NA+39289  22.014  12.961   3.236
72749ION    NA+39290  37.797  11.794   3.413
72750ION    NA+39291   2.951  42.384   2.902
72751ION    NA+39292  39.821  23.841   1.931
72752ION    NA+39293   4.281  42.229   1.150
72753ION    NA+39294  17.700  22.763  11.690
72754ION    NA+39295   6.005   9.821   1.491
72755ION    NA+39296  20.720   7.190  13.387
72756ION    NA+39297  26.690  32.171   2.244
72757ION    NA+39298  44.964  23.185  13.428
72758ION    NA+39299  24.069  30.582  13.865
72759ION    NA+39300  39.035  10.662  13.017
72760ION    NA+39301   2.033  18.595   4.188
72761ION    NA+39302  16.666  41.594   0.524
72762ION    NA+39303  39.480  38.172  14.394
72763ION    NA+39304  42.082  31.672   0.329
72764ION    NA+39305  24.792  24.286  14.466
72765ION    NA+39306  31.690  23.799   4.131
72766ION    NA+39307  18.083  16.650  12.379
72767ION    NA+39308   7.131  12.104   4.545
72768ION    NA+39309  15.556  21.511   2.734
72769ION    NA+39310  13.329   9.727   5.185
72770ION    NA+39311  24.835   3.087  14.975
72771ION    NA+39312  44.670  43.108   1.563
72772ION    NA+39313  22.110  29.187   3.602
72773ION    NA+39314  30.311  33.610  10.904
72774ION    NA+39315  11.489  11.375   4.644
72775ION    NA+39316  35.634  22.658   0.237
72776ION    NA+39317  40.209  17.940   4.316
72777ION    NA+39318  11.699  33.832   4.853
72778ION    NA+39319  19.167   8.876  14.930
72779ION    NA+39320  27.197  13.069   0.837
72780ION    NA+39321  24.525  27.577   0.444
72781ION    NA+39322  21.544  23.142  10.833
72782ION    NA+39323  39.475   3.964   3.299
72783ION    NA+39324  26.158  27.984  11.502
72784ION    NA+39325  37.604  21.332   5.193
72785ION    NA+39326  14.894  29.189   1.505
72786ION    NA+39327   8.750  34.124  13.615
72787ION    NA+39328  14.490  21.222   3.275
72788ION    NA+39329  27.513  37.866   2.371
72789ION    NA+39330   1.617  19.047  13.988
72790ION    NA+39331  21.581  33.677   4.306
72791ION    NA+39332  22.559  26.895   4.546
72792ION    NA+39333  35.731   7.094  11.771
72793ION    NA+39334   3.194  19.304  14.899
72794ION    NA+39335  30.382   5.206  13.092
72795ION    NA+39336   5.652   0.190  13.488
72796ION    NA+39337   8.729  13.510   0.380
72797ION    NA+39338  13.169   6.471   5.183
72798ION    NA+39339  33.327   4.516   3.099
72799ION    NA+39340   9.830  25.293   1.567
72800ION    NA+39341  11.315  22.732   4.074
72801ION    NA+39342  17.230  22.420  14.483
72802ION    NA+39343  31.906   6.979  13.109
72803ION    NA+39344   8.478  25.156   3.332
72804ION    NA+39345  28.681  33.226  13.938
72805ION    NA+39346  16.508  35.386   2.837
72806ION    NA+39347  14.123   4.453   3.216
72807ION    NA+39348  19.258  34.606   0.182
72808ION    NA+39349  39.620  37.654   0.631
72809ION    NA+39350  42.996  38.571   3.286
72810ION    NA+39351  31.022  10.785   3.731
72811ION    NA+39352  26.595  35.542   3.793
72812ION    NA+39353   5.455  24.038  13.071
72813ION    NA+39354  30.624  28.047  10.235
72814ION    NA+39355   3.436  42.055  11.696
72815ION    NA+39356  17.656  21.966   9.760
72816ION    NA+39357  24.678  33.540   2.178
72817ION    NA+39358  43.490  12.956   1.412
72818ION    NA+39359   0.965  34.445   0.846
72819ION    NA+39360  32.937   0.846  13.843
72820ION    NA+39361  10.525  32.786  14.553
72821ION    NA+39362   4.161  34.931   0.953
72822ION    NA+39363  38.012  38.820  11.590
72823ION    NA+39364   0.472  15.142   3.392
72824ION    NA+39365  10.322   5.820  13.592
72825ION    NA+39366  24.088   5.791  12.970
72826ION    NA+39367  34.661   0.749  10.630
72827ION    NA+39368  14.531  25.086  14.377
72828ION    NA+39369  22.276  41.640   0.130
72829ION    NA+39370  42.941  28.171  14.376
72830ION    NA+39371  18.974  20.127   4.815
72831ION    NA+39372  33.824  21.825   2.760
72832ION    NA+39373  21.203  23.982   1.421
72833ION    NA+39374  19.287  25.554  10.543
72834ION    NA+39375  13.393  21.031   2.829
72835ION    NA+39376   5.214  43.974  11.053
72836ION    NA+39377  39.853  26.365   4.068
72837ION    NA+39378   6.955  15.449  11.167
72838ION    NA+39379  41.448  25.857  14.460
72839ION    NA+39380  44.908  13.002  12.540
72840ION    NA+39381   2.280   9.001  11.213
72841ION    NA+39382  37.901   2.341   5.265
72842ION    NA+39383  43.159   7.192   1.613
72843ION    NA+39384  31.572   3.744  12.060
72844ION    NA+39385  41.081   9.134   3.638
72845ION    NA+39386  36.278  34.038   3.847
72846ION    NA+39387  42.446  29.675   2.311
72847ION    NA+39388  38.278  39.507  14.331
72848ION    NA+39389  31.616  22.050   0.705
72849ION    NA+39390  18.636  12.144   1.775
72850ION    NA+39391  30.520   3.684   5.347
72851ION    NA+39392  40.467   6.289   0.556
72852ION    NA+39393  31.051   5.260  14.260
72853ION    NA+39394   2.327  39.951  12.300
72854ION    NA+39395  40.394   4.606   4.337
72855ION    NA+39396  24.464  18.741   4.262
72856ION    NA+39397  38.335  41.148  14.451
72857ION    NA+39398  38.443  28.759  12.888
72858ION    NA+39399   7.795   1.142   2.755
72859ION    NA+39400  39.452  36.785   4.400
72860ION    NA+39401  11.169  37.607  10.135
72861ION    NA+39402  37.619  26.176  11.467
72862ION    NA+39403   3.770   3.676   9.906
72863ION    NA+39404  30.471  27.970  13.337
72864ION    NA+39405   7.411  25.118   1.980
72865ION    NA+39406   1.356  16.480  14.394
72866ION    NA+39407  26.785  12.255   2.985
72867ION    NA+39408  24.963  21.103   2.020
72868ION    NA+39409  22.190  39.817   1.387
72869ION    NA+39410  34.572   1.068  11.576
72870ION    NA+39411  10.620  14.269   4.261
72871ION    NA+39412  24.101  23.448   4.015
72872ION    NA+39413   0.417  22.171   4.478
72873ION    NA+39414  33.621   0.183  12.236
72874ION    NA+39415   6.027   3.647  11.168
72875ION    NA+39416   5.142  26.954   2.793
72876ION    NA+39417  38.927  24.814   0.939
72877ION    NA+39418  20.574   0.949   1.279
72878ION    NA+39419  33.459  37.988  11.933
72879ION    NA+39420  28.836  13.914   2.045
72880ION    NA+39421  12.232   2.904  12.079
72881ION    NA+39422  33.958  13.051   3.969
72882ION    NA+39423  43.571  34.392   3.116
72883ION    NA+39424  17.687  36.414  13.993
72884ION    NA+39425  25.275   2.959   2.789
72885ION    NA+39426  26.693  38.749   3.766
72886ION    NA+39427  37.146   2.262  13.398
72887ION    NA+39428  42.385  41.604  13.048
72888ION    NA+39429  40.558   0.076   4.060
72889ION    NA+39430  34.656  11.701   2.925
72890ION    NA+39431  15.462   8.034   1.084
72891ION    NA+39432  22.566  24.399   4.546
72892ION    NA+39433   0.545  10.387   1.392
72893ION    NA+39434  35.009   9.112  13.812
72894ION    NA+39435   9.851  41.677  14.172
72895ION    NA+39436  30.371  35.327  11.313
72896ION    NA+39437  37.188  10.041   3.959
72897ION    NA+39438  31.570  28.906   2.217
72898ION    NA+39439  20.763  16.310   0.427
72899ION    NA+39440   9.310  12.845   3.690
72900ION    NA+39441  40.745  17.762  13.711
72901ION    NA+39442  14.356  20.292   4.562
72902ION    NA+39443  33.142  43.316   1.888
72903ION    NA+39444  19.503  27.112   3.738
72904ION    NA+39445  19.650  18.766   1.127
72905ION    NA+39446  17.558  27.188   2.622
72906ION    NA+39447  12.857  42.519  10.619
72907ION    NA+39448   4.007   1.835  13.531
72908ION    NA+39449  12.480  13.021   3.648
72909ION    NA+39450  32.807  37.418  10.382
72910ION    NA+39451  40.671   6.352   2.386
72911ION    NA+39452  18.198  31.841   1.345
72912ION    NA+39453  30.057  25.691   3.387
72913ION    NA+39454  29.957  27.572   0.494
72914ION    NA+39455  39.320   1.320   0.472
72915ION    NA+39456  15.534  14.378   0.762
72916ION    NA+39457  40.854  39.780  12.034
72917ION    NA+39458  19.836  35.398  13.407
72918ION    NA+39459   6.642  32.206   2.015
72919ION    NA+39460  11.187  23.742   1.011
72920ION    NA+39461  15.818  19.582  13.003
72921ION    NA+39462  40.863  18.476   4.299
72922ION    NA+39463   0.049   4.707  10.790
72923ION    NA+39464   2.267  27.419  14.794
72924ION    NA+39465  21.490  28.284  13.786
72925ION    NA+39466  17.894  25.176   0.084
72926ION    NA+39467  10.998  38.936  14.652
72927ION    NA+39468   9.656  29.689   4.331
72928ION    NA+39469  43.337   0.244   4.238
72929ION    NA+39470  12.098  30.798   0.754
72930ION    NA+39471  17.448  37.561  13.193
72931ION    NA+39472  41.306   9.103   1.397
72932ION    NA+39473  38.633  12.136   2.181
72933ION    NA+39474   1.226  23.940  12.881
72934ION    NA+39475  30.129  30.834  13.410
72935ION    NA+39476  22.632  44.035  11.048
72936ION    NA+39477   9.870  44.894   3.131
72937ION    NA+39478   3.693  42.845  10.359
72938ION    NA+39479   3.565  23.870   1.341
72939ION    NA+39480  36.705  12.926   2.779
72940ION    NA+39481  30.984   2.858  10.622
72941ION    NA+39482  15.061  11.100  13.793
72942ION    NA+39483   3.434  28.076   1.457
72943ION    NA+39484  42.815  31.396  11.523
72944ION    NA+39485  28.309  26.490   1.837
72945ION    NA+39486  23.728  21.468   1.934
72946ION    NA+39487   0.693  17.284  14.538
72947ION    NA+39488  12.102  32.487   3.655
72948ION    NA+39489  21.184  38.404   4.883
72949ION    NA+39490  33.594  22.281  11.222
72950ION    NA+39491  40.401   3.979  14.432
72951ION    NA+39492   8.826  11.082   2.213
72952ION    NA+39493  11.278  26.615  11.287
72953ION    NA+39494   6.594  38.089  12.459
72954ION    NA+39495  18.595  24.579   2.641
72955ION    NA+39496  37.843  21.506  14.908
72956ION    NA+39497  14.131  28.228   1.938
72957ION    NA+39498  34.294   6.282  10.724
72958ION    NA+39499  40.650  39.091  11.439
72959ION    NA+39500  28.132  40.092  11.599
72960ION    NA+39501  27.963   6.019  12.929
72961ION    NA+39502  20.389  27.893   3.279
72962ION    NA+39503  26.023   0.702  13.578
72963ION    NA+39504  43.040  15.480   0.736
72964ION    NA+39505  19.371  33.082  12.577
72965ION    NA+39506  44.970   5.407   9.896
72966ION    NA+39507  25.786  22.696   3.338
72967ION    NA+39508   1.233   8.331   2.823
72968ION    NA+39509  31.948  24.121   0.704
72969ION    NA+39510  32.145  43.897   3.354
72970ION    NA+39511  20.179  31.963  12.447
72971ION    NA+39512  40.828  23.591   1.356
72972ION    NA+39513  33.870  43.031  14.940
72973ION    NA+39514  15.096  44.712  14.762
72974ION    NA+39515   0.411   8.260  10.557
72975ION    NA+39516  16.407  17.586   1.757
72976ION    NA+39517  40.651  26.144  10.266
72977ION    NA+39518  32.023  38.861  10.875
72978ION    NA+39519  17.055  22.755  12.492
72979ION    NA+39520   1.452  30.180   4.124
72980ION    NA+39521  41.509  23.082   2.615
72981ION    NA+39522  12.546  33.085  11.811
72982ION    NA+39523   0.302   0.956   2.678
72983ION    NA+39524   8.579  26.338  13.757
72984ION    NA+39525  11.814   1.468  11.746
72985ION    NA+39526  18.320   3.664  11.919
72986ION    NA+39527  38.557  38.552  14.441
72987ION    NA+39528  27.784  32.487  14.731
72988ION    NA+39529  27.536  38.950   3.184
72989ION    NA+39530  32.597  10.318   1.175
72990ION    NA+39531  19.237  12.082   0.548
72991ION    NA+39532   3.646  31.499  11.365
72992ION    NA+39533  35.388  42.654  13.069
72993ION    NA+39534  12.827  42.587   3.855
72994ION    NA+39535  38.275  15.325  11.189
72995ION    NA+39536   4.704  15.608  12.949
72996ION    NA+39537   1.899  24.026   2.497
72997ION    NA+39538   6.613  31.453  14.323
72998ION    NA+39539  10.527  25.778   0.470
72999ION    NA+39540  27.161   8.042   0.176
73000ION    NA+39541  30.240  30.715  12.294
73001ION    NA+39542   0.135   7.764   1.552
73002ION    NA+39543  29.394  14.165   1.362
73003ION    NA+39544  38.953   6.538   4.819
73004ION    NA+39545  18.400   3.044   4.782
73005ION    NA+39546   3.361  37.324  12.889
73006ION    NA+39547  41.163   3.006   1.706
73007ION    NA+39548  43.612  26.051   1.804
73008ION    NA+39549  10.042  40.719   0.406
73009ION    NA+39550  37.383  43.956   2.822
73010ION    NA+39551  27.565  38.514   4.600
73011ION    NA+39552  44.817   1.064   0.218
73012ION    NA+39553   4.409  11.381  10.640
73013ION    NA+39554  32.811  19.730  13.901
73014ION    NA+39555   9.006  26.702  12.412
73015ION    NA+39556   7.205  44.948  10.883
73016ION    NA+39557   9.056  10.666  11.708
73017ION    NA+39558  11.485   4.649   2.570
73018ION    NA+39559  25.239  32.308  12.480
73019ION    NA+39560  23.922  17.075  12.120
73020ION    NA+39561  39.406  25.225  13.760
73021ION    NA+39562  32.291   4.364   3.038
73022ION    NA+39563  31.275  18.297  11.161
73023ION    NA+39564  34.269   6.829   2.835
73024ION    NA+39565   8.155  42.974   2.754
73025ION    NA+39566   2.183  16.179  12.775
73026ION    NA+39567  31.943  19.443  12.529
73027ION    NA+39568  12.430   1.204   3.226
73028ION    NA+39569   9.212  29.169  13.778
73029ION    NA+39570  14.978  10.476  12.126
73030ION    NA+39571  39.818  30.900  13.422
73031ION    NA+39572  18.362  34.680   0.307
73032ION    NA+39573  41.012  42.788   5.074
73033ION    NA+39574   1.723  25.431   1.272
73034ION    NA+39575  22.967  42.799   2.340
73035ION    NA+39576  44.859  44.334   3.178
73036ION    NA+39577  15.046   7.156  12.195
73037ION    NA+39578  12.785   4.970  13.195
73038ION    NA+39579   8.567  22.333  12.447
73039ION    NA+39580  10.592  35.357  12.145
73040ION    NA+39581  25.080  11.767   9.903
73041ION    NA+39582  16.866  16.589  11.659
73042ION    NA+39583  31.314  20.623  12.015
73043ION    NA+39584  42.867   2.825   4.469
73044ION    NA+39585  19.974  43.854   4.250
73045ION    NA+39586  32.818  30.836  13.040
73046ION    NA+39587   0.066  17.916   3.700
73047ION    NA+39588  32.028  31.647  13.816
73048ION    NA+39589  19.140   3.736  12.487
73049ION    NA+39590  25.807   0.658   5.141
73050ION    NA+39591   3.930   0.273   2.125
73051ION    NA+39592  39.790  13.659   0.815
73052ION    NA+39593   5.156  18.936   3.010
73053ION    NA+39594  42.713  34.678   3.543
73054ION    NA+39595  11.967   9.047   1.334
73055ION    NA+39596   9.465  39.159   2.380
73056ION    NA+39597  20.591  18.322   4.357
73057ION    NA+39598  44.734  40.702  14.854
73058ION    NA+39599  18.693  44.358  12.422
73059ION    NA+39600  37.617  12.559  11.799
73060ION    NA+39601  26.656  26.162   2.337
73061ION    NA+39602  14.370  44.197   3.433
73062ION    NA+39603  36.224  44.578   1.401
73063ION    NA+39604  26.518  10.654  14.559
73064ION    NA+39605   9.977  15.193  13.386
73065ION    NA+39606  20.969  36.871  11.137
73066ION    NA+39607  11.387  35.026  13.470
73067ION    NA+39608   7.156  35.630  10.960
73068ION    NA+39609  27.090  22.450   3.771
73069ION    NA+39610  24.876  21.434   1.261
73070ION    NA+39611   5.011  36.566   0.267
73071ION    NA+39612  32.644   9.792  14.469
73072ION    NA+39613   0.021  40.596   4.433
73073ION    NA+39614  23.178  24.959  10.898
73074ION    NA+39615  19.360  42.713   2.645
73075ION    NA+39616  18.157  25.332   4.513
73076ION    NA+39617  38.847  28.002  12.373
73077ION    NA+39618  27.434  23.375   3.929
73078ION    NA+39619  43.405  38.868   1.728
73079ION    NA+39620  29.623  42.080  14.539
73080ION    NA+39621  33.507  21.283  12.990
73081ION    NA+39622  36.519  35.022  10.680
73082ION    NA+39623  20.309  28.774   2.812
73083ION    NA+39624   1.231   0.393   3.625
73084ION    NA+39625   1.553  40.118   2.682
73085ION    NA+39626   5.300   1.600   4.060
73086ION    NA+39627  15.174  13.477   1.005
73087ION    NA+39628  28.491   3.488  11.417
73088ION    NA+39629  25.634   5.161   0.753
73089ION    NA+39630  40.624   3.470   2.419
73090ION    NA+39631  15.687  31.958   0.522
73091ION    NA+39632  44.964   3.284  11.627
73092ION    NA+39633  33.653  37.888  13.512
73093ION    NA+39634  19.270   3.382  11.050
73094ION    NA+39635   0.777  41.040  12.089
73095ION    NA+39636  37.354  37.310   3.934
73096ION    NA+39637  44.804  19.271   0.269
73097ION    NA+39638  31.125  28.730   3.172
73098ION    NA+39639  13.557  18.288  10.794
73099ION    NA+39640   7.209   1.657  14.951
73100ION    NA+39641   8.347   4.587  14.466
73101ION    NA+39642   7.391   9.689  11.122
73102ION    NA+39643  30.127  25.162  11.786
73103ION    NA+39644  12.121  23.080  14.430
73104ION    NA+39645   2.315  41.341   3.349
73105ION    NA+39646  13.774   9.039  12.768
73106ION    NA+39647  29.512   2.382  10.201
73107ION    NA+39648   2.820  29.134   0.091
73108ION    NA+39649  31.633   8.799  11.552
73109ION    NA+39650  16.918  23.513   3.773
73110ION    NA+39651  31.085  43.091   0.790
73111ION    NA+39652  12.344  26.602   1.208
73112ION    NA+39653  22.592  36.080  13.368
73113ION    NA+39654  16.562  15.976   0.925
73114ION    NA+39655  28.862  40.134  12.722
73115ION    NA+39656  11.687  19.272  12.066
73116ION    NA+39657  20.537  32.833   1.172
73117ION    NA+39658   5.065  40.401   1.428
73118ION    NA+39659  18.302  37.705  13.717
73119ION    NA+39660  35.209  40.506  10.230
73120ION    NA+39661  42.756  26.285   4.929
73121ION    NA+39662  23.610  24.711  12.746
73122ION    NA+39663   3.806   6.360   3.190
73123ION    NA+39664  32.397  22.051   2.644
73124ION    NA+39665  36.129  41.780   2.605
73125ION    NA+39666  33.560  44.520   0.948
73126ION    NA+39667   4.948   0.660  14.043
73127ION    NA+39668  16.511  11.673  10.758
73128ION    NA+39669   2.081  30.467   4.707
73129ION    NA+39670   9.006  36.367  12.675
73130ION    NA+39671  29.058  33.137  11.736
73131ION    NA+39672  39.817  21.246  11.335
73132ION    NA+39673  22.121  14.764   2.604
73133ION    NA+39674  27.828  40.183   2.625
73134ION    NA+39675  14.057   7.760  11.192
73135ION    NA+39676  33.606  24.764  11.992
73136ION    NA+39677  25.799  36.476  11.812
73137ION    NA+39678   8.112  17.443   3.924
73138ION    NA+39679  21.618  29.749   4.032
73139ION    NA+39680  33.044  22.755  13.714
73140ION    NA+39681  39.018  17.744   0.860
73141ION    NA+39682  40.877  39.059   0.360
73142ION    NA+39683  42.098  11.825   4.428
73143ION    NA+39684  29.100   3.750  14.555
73144ION    NA+39685  17.753  44.852   1.345
73145ION    NA+39686  33.917   1.558  11.144
73146ION    NA+39687  17.222  29.364  13.448
73147ION    NA+39688  14.341  35.909   0.259
73148ION    NA+39689  27.645  32.847  12.944
73149ION    NA+39690  29.001  16.745  13.949
73150ION    NA+39691  14.161  22.107   0.924
73151ION    NA+39692  21.783  10.640   2.492
73152ION    NA+39693  36.463  37.147   1.916
73153ION    NA+39694  44.784   0.081   3.872
73154ION    NA+39695  37.430  37.888  10.762
73155ION    NA+39696  17.412  10.071  14.871
73156ION    NA+39697  20.285  22.624  11.155
73157ION    NA+39698  13.965  19.222   4.069
73158ION    NA+39699   4.297  25.207   2.607
73159ION    NA+39700  17.075  30.606   1.606
73160ION    NA+39701   4.865   8.915   1.914
73161ION    CL-39702  28.426  21.932  11.890
73162ION    CL-39703  31.152  13.703  13.598
73163ION    CL-39704  15.798  37.758  14.702
73164ION    CL-39705  17.256   3.302   0.390
73165ION    CL-39706  34.331  16.821   1.019
73166ION    CL-39707  22.094  12.139  12.611
73167ION    CL-39708   9.695   1.445   4.226
73168ION    CL-39709  10.269  20.942  13.497
73169ION    CL-39710  25.706   7.009   1.081
73170ION    CL-39711  39.384  27.083   2.793
73171ION    CL-39712   7.273   0.386   4.935
73172ION    CL-39713  25.039  30.907   3.316
73173ION    CL-39714  35.359  17.535  12.612
73174ION    CL-39715  10.559  44.823   0.451
73175ION    CL-39716  29.184   9.353   2.276
73176ION    CL-39717  31.673  43.326  13.604
73177ION    CL-39718   9.132   8.785  13.501
73178ION    CL-39719  44.258  23.342   2.007
73179ION    CL-39720  18.987   6.406  11.926
73180ION    CL-39721   9.004  13.357   1.620
73181ION    CL-39722  35.932  25.954   2.461
73182ION    CL-39723  12.384  33.930   2.740
73183ION    CL-39724  21.550  38.585   0.656
73184ION    CL-39725  16.405  35.644   2.480
73185ION    CL-39726  26.168  19.088  11.248
73186ION    CL-39727  12.621  30.627  10.688
73187ION    CL-39728  42.894  39.002   3.223
73188ION    CL-39729   2.410  33.421  13.700
73189ION    CL-39730  38.840  31.494   4.375
73190ION    CL-39731  18.516  41.689  12.309
73191ION    CL-39732  15.613  27.559   2.928
73192ION    CL-39733  18.401  34.409  10.826
73193ION    CL-39734  14.726   1.690  10.787
73194ION    CL-39735  23.163  29.941   1.451
73195ION    CL-39736  33.041  36.256   0.405
73196ION    CL-39737  41.167  21.667  10.978
73197ION    CL-39738  30.771  32.350   1.093
73198ION    CL-39739  21.964   8.546  12.644
73199ION    CL-39740   4.283   7.335   2.382
73200ION    CL-39741  11.298  26.524  14.424
73201ION    CL-39742  17.438  43.490  12.858
73202ION    CL-39743  28.099   0.861  11.901
73203ION    CL-39744  18.570  39.082   0.520
73204ION    CL-39745  38.596  41.423  14.762
73205ION    CL-39746  42.440  23.227  13.814
73206ION    CL-39747   9.111  26.456  12.054
73207ION    CL-39748   7.901  44.064  11.675
73208ION    CL-39749   4.185  34.535  14.355
73209ION    CL-39750   0.420  29.855  11.174
73210ION    CL-39751   3.176  21.770   4.276
73211ION    CL-39752  17.920  11.726  12.675
73212ION    CL-39753  12.324  38.920  10.489
73213ION    CL-39754  16.875  27.086  13.497
73214ION    CL-39755   4.364   2.394   1.743
73215ION    CL-39756   7.707  17.349   3.740
73216ION    CL-39757  12.175  32.784   3.977
73217ION    CL-39758  29.914  18.151  13.609
73218ION    CL-39759  25.115  28.012   1.998
73219ION    CL-39760  34.360  19.589   2.155
73220ION    CL-39761   0.218  12.725  12.707
73221ION    CL-39762  35.420  12.626   4.480
73222ION    CL-39763  20.660  19.500  10.459
73223ION    CL-39764  33.270  16.969   4.229
73224ION    CL-39765  39.307   4.954  11.835
73225ION    CL-39766   9.673  16.109   9.839
73226ION    CL-39767  23.203  41.265   2.953
73227ION    CL-39768  36.079  28.325  12.290
73228ION    CL-39769  33.377  35.859   2.955
73229ION    CL-39770  38.036   1.045  11.529
73230ION    CL-39771  19.812   1.673   4.053
73231ION    CL-39772   3.773  15.174  13.846
73232ION    CL-39773  26.923  20.175  11.705
73233ION    CL-39774  12.990  36.098   4.995
73234ION    CL-39775  39.627   9.655   0.561
73235ION    CL-39776  17.541   9.236   1.698
73236ION    CL-39777  20.701  10.989  13.360
73237ION    CL-39778  35.957  26.396  10.631
73238ION    CL-39779  44.457  39.156  14.727
73239ION    CL-39780  16.484  17.874   2.104
73240ION    CL-39781  23.194  43.339  13.898
73241ION    CL-39782  32.342  24.128  10.722
73242ION    CL-39783  41.498  43.928  13.618
73243ION    CL-39784  11.663  15.306   1.676
73244ION    CL-39785  12.985  31.669   1.195
73245ION    CL-39786   5.831  21.742  13.933
73246ION    CL-39787  29.195   2.042   1.225
73247ION    CL-39788  30.366  24.821  11.994
73248ION    CL-39789  36.238  40.914  11.141
73249ION    CL-39790  19.041  11.826   0.857
73250ION    CL-39791  18.481   6.865  13.327
73251ION    CL-39792  22.223  15.568   3.769
73252ION    CL-39793   1.447  20.731  14.562
73253ION    CL-39794  25.761  17.327   3.062
73254ION    CL-39795   5.884  35.132  12.505
73255ION    CL-39796  25.715   6.939  13.914
73256ION    CL-39797   5.796  34.876   4.105
73257ION    CL-39798  17.549   2.602   1.887
73258ION    CL-39799  10.747   1.499   1.517
73259ION    CL-39800  25.575   6.673   1.921
73260ION    CL-39801  28.069   1.632  12.624
73261ION    CL-39802  22.196  41.199   0.222
73262ION    CL-39803  28.276  43.101   2.765
73263ION    CL-39804  23.933  13.594   0.252
73264ION    CL-39805  28.130  28.008  13.234
73265ION    CL-39806  14.755  35.340   1.730
73266ION    CL-39807  32.367   9.970  12.667
73267ION    CL-39808  15.818   8.773  13.413
73268ION    CL-39809  21.794  42.123  11.162
73269ION    CL-39810   2.791   8.708   3.301
73270ION    CL-39811   2.703  13.497  12.616
73271ION    CL-39812  34.907  20.570   3.240
73272ION    CL-39813  36.161  21.740   5.003
73273ION    CL-39814  26.609  12.619  12.872
73274ION    CL-39815  13.559  26.630  14.453
73275ION    CL-39816   7.380  32.260  13.826
73276ION    CL-39817  18.250   3.789   3.156
73277ION    CL-39818  14.279  14.730   0.569
73278ION    CL-39819  25.000  21.082   1.551
73279ION    CL-39820  44.487  16.141  14.514
73280ION    CL-39821  27.534  29.689  11.358
73281ION    CL-39822  11.560  40.320  11.511
73282ION    CL-39823  36.155   6.292  11.163
73283ION    CL-39824  24.562  19.076   3.969
73284ION    CL-39825   6.027  41.858  12.180
73285ION    CL-39826  30.920  27.590   0.943
73286ION    CL-39827  43.177  32.770   1.107
73287ION    CL-39828  39.534  32.055  11.167
73288ION    CL-39829  41.329  17.671   1.843
73289ION    CL-39830  28.183  15.810   5.047
73290ION    CL-39831   2.294  11.165   2.848
73291ION    CL-39832  23.983  30.260  13.568
73292ION    CL-39833  10.529  11.953  11.325
73293ION    CL-39834  42.794   3.010   0.846
73294ION    CL-39835  27.190   2.949   1.704
73295ION    CL-39836  26.721   4.690   4.870
73296ION    CL-39837  19.018  35.523  12.489
73297ION    CL-39838  22.440  18.180  14.377
73298ION    CL-39839  35.698  43.452   4.080
73299ION    CL-39840   3.441   9.403  12.600
73300ION    CL-39841  40.323   9.350   1.309
73301ION    CL-39842   4.888  40.506   3.148
73302ION    CL-39843  40.614  10.801   4.266
73303ION    CL-39844  38.706  44.255   4.253
73304ION    CL-39845  35.134   0.720   2.294
73305ION    CL-39846   2.717   6.948   3.809
73306ION    CL-39847  14.966   7.210  11.748
73307ION    CL-39848   3.272  32.028   0.724
73308ION    CL-39849  23.625   1.850  13.626
73309ION    CL-39850   2.617  35.296   4.586
73310ION    CL-39851  11.086  33.937  12.523
73311ION    CL-39852  38.688  31.433  14.004
73312ION    CL-39853  43.064  34.372   1.177
73313ION    CL-39854  28.865   1.641   1.977
73314ION    CL-39855  35.777  17.246   2.817
73315ION    CL-39856  15.833  24.402  11.042
73316ION    CL-39857   1.416  18.317  14.742
73317ION    CL-39858  20.116  13.241   0.653
73318ION    CL-39859  23.599  21.111   1.699
73319ION    CL-39860  36.908  42.013   3.505
73320ION    CL-39861  39.791  25.435  11.870
73321ION    CL-39862  37.172   8.111  12.634
73322ION    CL-39863  28.049  44.350  12.300
73323ION    CL-39864  12.582  27.022   3.786
73324ION    CL-39865   0.810  34.552   3.412
73325ION    CL-39866  39.939  22.765  10.071
73326ION    CL-39867  23.724  18.442  12.864
73327ION    CL-39868  12.662  15.675   3.599
73328ION    CL-39869  33.841  37.792   0.209
73329ION    CL-39870  31.110  39.745  14.061
73330ION    CL-39871   7.280  21.179  11.964
73331ION    CL-39872  12.091  37.842   2.782
73332ION    CL-39873  25.206  23.441  11.193
73333ION    CL-39874   6.816  36.014   0.233
73334ION    CL-39875  33.851  36.837  11.637
73335ION    CL-39876  24.491  36.603  14.813
73336ION    CL-39877  44.483  18.336   1.238
73337ION    CL-39878  36.313  14.358   0.185
73338ION    CL-39879  29.581   9.877  13.701
73339ION    CL-39880  15.626   7.205  14.214
73340ION    CL-39881  38.998  39.874   3.152
73341ION    CL-39882  32.843  12.569  12.104
73342ION    CL-39883  20.842   6.658  11.667
73343ION    CL-39884  34.421  37.939   0.882
73344ION    CL-39885  19.274   9.159  13.493
73345ION    CL-39886   8.383   5.919  14.658
73346ION    CL-39887  16.289  20.904   0.972
73347ION    CL-39888   9.679  36.995  14.823
73348ION    CL-39889  27.174  28.332   2.251
73349ION    CL-39890  24.406  24.878  11.973
73350ION    CL-39891   9.544   6.370   4.984
73351ION    CL-39892  39.099  16.659  10.423
73352ION    CL-39893  34.043  29.909   2.834
73353ION    CL-39894  22.213  26.585   4.518
73354ION    CL-39895  19.130   8.167  13.567
73355ION    CL-39896  44.551  43.549   1.555
73356ION    CL-39897   5.742  20.777   5.058
73357ION    CL-39898  31.089  20.994  11.920
73358ION    CL-39899  13.597  13.310   1.294
73359ION    CL-39900  26.904   7.185   9.966
73360ION    CL-39901  34.746   8.908  12.299
73361ION    CL-39902  17.975   9.952   4.162
73362ION    CL-39903  14.270  11.931   3.363
73363ION    CL-39904  40.677  32.695   4.806
73364ION    CL-39905  22.589  26.857   5.011
73365ION    CL-39906   1.508  39.763   2.412
73366ION    CL-39907   4.207  33.556  13.563
73367ION    CL-39908  15.096  40.964  10.577
73368ION    CL-39909  13.875  42.627  11.403
73369ION    CL-39910  22.550  43.593  11.061
73370ION    CL-39911  12.603  10.714   2.987
73371ION    CL-39912  21.380  41.356  13.960
73372ION    CL-39913  23.931  44.301   2.285
73373ION    CL-39914   1.944  35.553  10.429
73374ION    CL-39915  38.994  11.900   1.988
73375ION    CL-39916  31.735  31.710  14.151
73376ION    CL-39917   2.249   7.639   3.258
73377ION    CL-39918  15.437   4.776   1.019
73378ION    CL-39919  32.702  43.614  11.662
73379ION    CL-39920  37.402  33.351  13.869
73380ION    CL-39921   3.842  43.781   2.247
73381ION    CL-39922   4.446  44.815  10.569
73382ION    CL-39923   1.580  25.248   4.919
73383ION    CL-39924  41.088  19.003  12.202
73384ION    CL-39925  31.086  26.261  13.022
73385ION    CL-39926  38.533   3.824   2.722
73386ION    CL-39927  29.438  41.450   0.326
73387ION    CL-39928  42.075  22.226   4.034
73388ION    CL-39929  14.687  19.196  11.739
73389ION    CL-39930  39.108   1.157  12.897
73390ION    CL-39931  11.322  44.525   2.696
73391ION    CL-39932  29.926   6.470   3.404
73392ION    CL-39933   7.979  42.020  10.934
73393ION    CL-39934  27.901  13.606   4.616
73394ION    CL-39935   5.260   7.831  12.130
73395ION    CL-39936   7.046  20.180  14.234
73396ION    CL-39937   8.147  35.427  13.390
73397ION    CL-39938   0.022  31.633  12.049
73398ION    CL-39939  17.487   4.575   2.342
73399ION    CL-39940   4.607  41.866   4.560
73400ION    CL-39941  30.167  32.704   2.957
73401ION    CL-39942   3.550   5.574   2.282
73402ION    CL-39943  43.102  18.245  14.018
73403ION    CL-39944  31.903  12.857  14.347
73404ION    CL-39945   6.101  33.474   4.560
73405ION    CL-39946  44.348   7.674  13.021
73406ION    CL-39947  35.951   7.229  14.378
73407ION    CL-39948  35.980   2.925   3.183
73408ION    CL-39949  15.177   2.981   4.546
73409ION    CL-39950  30.714   7.168  12.784
73410ION    CL-39951  19.146  28.619   1.523
73411ION    CL-39952  13.851  28.573   1.951
73412ION    CL-39953  36.088  15.679  13.661
73413ION    CL-39954  27.859  37.109  14.959
73414ION    CL-39955  43.953   2.748  12.578
73415ION    CL-39956  31.299  37.337   0.819
73416ION    CL-39957  24.681  30.965  14.839
73417ION    CL-39958   4.859   8.489   2.051
73418ION    CL-39959  21.810  31.831  12.072
73419ION    CL-39960   2.661  13.518   0.047
73420ION    CL-39961  29.323  39.579   3.945
73421ION    CL-39962  36.756  13.603   0.789
73422ION    CL-39963   5.775   9.959  11.421
73423ION    CL-39964  26.380  35.817   1.181
73424ION    CL-39965  43.522  22.265  14.420
73425ION    CL-39966  32.405  11.565   4.994
73426ION    CL-39967   1.407   5.041  11.838
73427ION    CL-39968  15.219  44.307  14.568
73428ION    CL-39969   0.572  40.840  12.431
73429ION    CL-39970  27.198   6.535   0.112
73430ION    CL-39971  12.823   7.476   4.179
73431ION    CL-39972  44.366  25.142  14.794
73432ION    CL-39973  40.923  32.781  11.918
73433ION    CL-39974  18.699   0.752   3.261
73434ION    CL-39975   7.827   2.062   1.744
73435ION    CL-39976  21.510  16.054   1.345
73436ION    CL-39977  35.090  15.588   2.661
73437ION    CL-39978  26.612  31.204  14.777
73438ION    CL-39979  40.637  17.644  13.294
73439ION    CL-39980  42.608  29.591   1.896
73440ION    CL-39981   1.211   8.658   4.127
73441ION    CL-39982   4.625  42.043  12.926
73442ION    CL-39983   7.630   6.512  11.966
73443ION    CL-39984   8.060  20.237  11.505
73444ION    CL-39985  25.927  28.938  12.446
73445ION    CL-39986  25.871   2.288  14.712
73446ION    CL-39987  35.756  34.571   0.127
73447ION    CL-39988  18.269  35.416  14.815
73448ION    CL-39989  22.737  19.201   1.392
73449ION    CL-39990  23.177  39.921   4.133
73450ION    CL-39991  16.573   8.442  14.030
73451ION    CL-39992  20.031   8.291  14.514
73452ION    CL-39993  18.496  44.170   0.831
73453ION    CL-39994  12.850  11.449   3.759
73454ION    CL-39995  43.776   1.922   4.607
73455ION    CL-39996  44.751   7.113   0.589
73456ION    CL-39997  19.898   7.581  11.132
73457ION    CL-39998  17.054   8.412   3.363
73458ION    CL-39999  44.922  12.857   4.953
73459ION    CL-40000  38.487  37.063  12.360
73460ION    CL-40001  37.987  43.574  11.176
73461ION    CL-40002  13.867   7.277  14.790
73462ION    CL-40003  28.617  19.416   0.768
73463ION    CL-40004  42.901  32.999  13.259
73464ION    CL-40005  25.316  36.670   4.084
73465ION    CL-40006  38.071  42.112  12.044
73466ION    CL-40007  38.267  23.037   0.308
73467ION    CL-40008  23.994  42.226  13.840
73468ION    CL-40009  20.268  35.294  13.413
73469ION    CL-40010  28.298  18.593  11.743
73470ION    CL-40011  24.058  36.355  11.085
73471ION    CL-40012  25.211  12.721   5.060
73472ION    CL-40013  22.436   8.898   0.163
73473ION    CL-40014  22.043  34.152   2.651
73474ION    CL-40015  35.441  14.031  11.982
73475ION    CL-40016  25.595  17.811   2.203
73476ION    CL-40017   7.377  42.024  12.244
73477ION    CL-40018  39.091  31.685   2.247
73478ION    CL-40019  26.752  22.989   1.863
73479ION    CL-40020   7.057  10.809   1.985
73480ION    CL-40021  37.714   3.791   3.295
73481ION    CL-40022  22.653  33.618   3.245
73482ION    CL-40023  40.678  35.945   0.358
73483ION    CL-40024  38.267  12.405   2.236
73484ION    CL-40025  27.659   9.470   2.045
73485ION    CL-40026   2.524   2.960  14.792
73486ION    CL-40027   9.648  17.600   0.815
73487ION    CL-40028   0.419  28.067  10.748
73488ION    CL-40029  39.601  37.957  13.807
73489ION    CL-40030  19.153  34.646   4.080
73490ION    CL-40031  20.035  21.118   4.124
73491ION    CL-40032  14.322  22.810   4.017
73492ION    CL-40033  41.706   4.288  11.163
73493ION    CL-40034  11.131  26.870  10.941
73494ION    CL-40035  33.984  25.412  14.229
73495ION    CL-40036   2.399  38.932  10.634
73496ION    CL-40037  44.645  23.823   4.949
73497ION    CL-40038  27.741  42.448  12.559
73498ION    CL-40039   3.230  42.232   3.251
73499ION    CL-40040  42.610  43.692   4.617
73500ION    CL-40041   2.115  24.258  14.966
73501ION    CL-40042  33.427   9.278  10.693
73502ION    CL-40043   9.586  16.287  11.343
73503ION    CL-40044  30.414  23.502  11.571
73504ION    CL-40045  25.323  41.187   0.824
73505ION    CL-40046  21.324  27.962   1.587
73506ION    CL-40047  34.195  10.346   3.668
73507ION    CL-40048  24.995   3.117  10.133
73508ION    CL-40049  18.928   3.100  10.995
73509ION    CL-40050   0.301  14.308  11.439
73510ION    CL-40051  41.840  21.876  11.714
73511ION    CL-40052  19.184  19.552  11.702
73512ION    CL-40053  38.365  15.379   4.220
73513ION    CL-40054  44.406   8.797   2.154
73514ION    CL-40055   3.757  15.960  11.346
73515ION    CL-40056  43.501   7.520  14.413
73516ION    CL-40057   2.042  11.611   4.014
73517ION    CL-40058  43.323  42.612  13.768
73518ION    CL-40059  38.851   3.246   0.811
73519ION    CL-40060  11.587  39.015  13.235
73520ION    CL-40061  28.844   6.338  14.544
73521ION    CL-40062  29.403  44.855   4.437
73522ION    CL-40063   5.702  14.827   3.202
73523ION    CL-40064  24.913  20.381   4.181
73524ION    CL-40065  21.139   4.098   2.063
73525ION    CL-40066   8.845   3.249   4.644
73526ION    CL-40067  23.791  25.836   0.362
73527ION    CL-40068   5.170  13.303   2.402
73528ION    CL-40069  11.213  39.045  14.275
73529ION    CL-40070  17.534  10.621  13.642
73530ION    CL-40071  18.717  25.538  11.915
73531ION    CL-40072  39.035   9.278   1.274
73532ION    CL-40073   3.183  23.637   1.299
73533ION    CL-40074   5.868   0.742   0.898
73534ION    CL-40075   0.606  20.652  14.027
73535ION    CL-40076  32.052   5.369   1.006
73536ION    CL-40077   0.516  18.339   2.421
73537ION    CL-40078  12.278  11.061  14.033
73538ION    CL-40079  19.647  26.206  12.589
73539ION    CL-40080  17.726  22.583   1.390
73540ION    CL-40081  17.772  16.244   2.340
73541ION    CL-40082  38.370  26.468  12.259
73542ION    CL-40083  12.209  27.201   2.872
73543ION    CL-40084  37.523  11.831  13.836
73544ION    CL-40085  40.465  31.426   4.926
73545ION    CL-40086  33.166  36.759   1.844
73546ION    CL-40087  32.723  35.890   2.200
73547ION    CL-40088  17.206   1.388   3.527
73548ION    CL-40089   9.213  36.770  12.611
73549ION    CL-40090  11.436  23.559   1.348
73550ION    CL-40091  32.180  41.137  11.112
73551ION    CL-40092   5.841  39.588   0.058
73552ION    CL-40093  40.797  17.201   0.808
73553ION    CL-40094  43.008   2.500   2.803
73554ION    CL-40095  41.397  35.704   3.523
73555ION    CL-40096   4.017  34.594   2.782
73556ION    CL-40097  23.072  33.488  14.628
73557ION    CL-40098  17.249  19.802   3.192
73558ION    CL-40099  35.366  16.564  12.851
73559ION    CL-40100  27.026  18.145   2.389
73560ION    CL-40101  29.112  24.221  12.776
73561ION    CL-40102  16.976  17.790  12.947
73562ION    CL-40103  15.769  10.894   4.398
73563ION    CL-40104   2.863  20.262  14.006
73564ION    CL-40105  42.581   3.973  13.738
73565ION    CL-40106  39.771  29.983   4.559
73566ION    CL-40107  19.234  18.464   2.372
73567ION    CL-40108  15.229  24.441   5.073
73568ION    CL-40109  17.115  27.137   2.602
73569ION    CL-40110   2.413  42.017   5.029
73570ION    CL-40111  16.338  13.622   3.400
73571ION    CL-40112  21.428  18.246   1.383
73572ION    CL-40113  16.688   4.940   2.819
73573ION    CL-40114   9.080   8.968   4.290
73574ION    CL-40115  32.053  13.161   0.577
73575ION    CL-40116  18.683  18.872   4.714
73576ION    CL-40117  21.573   2.483   3.463
73577ION    CL-40118  20.914  37.802   3.964
73578ION    CL-40119   6.988  16.320   0.297
73579ION    CL-40120  22.356  37.660  12.522
73580ION    CL-40121   8.647   5.051   1.207
73581ION    CL-40122  41.512  36.367   2.254
73582ION    CL-40123  11.924  10.214   3.319
73583ION    CL-40124  18.587   6.218  10.660
73584ION    CL-40125  33.449   4.132   2.904
73585ION    CL-40126  31.377  14.575  10.973
73586ION    CL-40127  42.413  34.878   3.273
73587ION    CL-40128   7.983  10.164   3.707
73588ION    CL-40129  27.867   2.679  14.330
73589ION    CL-40130  13.313   7.013   0.580
73590ION    CL-40131  30.308  24.870  12.873
73591ION    CL-40132  10.900  18.600   4.160
73592ION    CL-40133  35.988  32.404   3.161
73593ION    CL-40134  43.483  22.236   0.419
73594ION    CL-40135   1.305  35.523   4.237
73595ION    CL-40136  43.513   7.650  13.591
73596ION    CL-40137   9.787   7.168   3.140
73597ION    CL-40138  10.547  33.581   0.966
73598ION    CL-40139  33.302  18.294  14.530
73599ION    CL-40140  18.283  37.797   3.788
73600ION    CL-40141  35.383   7.113   0.192
73601ION    CL-40142  14.727  13.333   3.634
73602ION    CL-40143  25.619  42.056   1.881
73603ION    CL-40144  41.960  43.720  11.538
73604ION    CL-40145  38.795  20.542   9.968
73605ION    CL-40146  42.878  30.363   0.957
73606ION    CL-40147  22.356  35.712   3.909
73607ION    CL-40148  16.428  26.670   1.320
73608ION    CL-40149  23.992  42.603   3.664
73609ION    CL-40150  12.095  30.363   0.886
73610ION    CL-40151  36.570  17.474  14.808
73611ION    CL-40152  41.506  11.401  12.958
73612ION    CL-40153   9.821  31.525   1.744
73613ION    CL-40154  11.119  43.285  12.852
73614ION    CL-40155  27.663   3.512   3.219
73615ION    CL-40156  22.005  10.307   2.688
73616ION    CL-40157  23.159  16.075  14.284
73617ION    CL-40158  35.550   3.517  14.434
73618ION    CL-40159  17.187  19.502  10.781
73619ION    CL-40160   4.654   0.048  14.907
73620ION    CL-40161  12.495  19.586  11.322
73621ION    CL-40162  37.735  26.859   1.262
73622ION    CL-40163   5.070  39.409   1.143
73623ION    CL-40164  38.069   9.057   2.742
73624ION    CL-40165  39.767  10.146   4.284
73625ION    CL-40166   4.960   6.680   1.719
73626ION    CL-40167  10.971   7.581  13.590
73627ION    CL-40168  12.836   2.249   1.502
73628ION    CL-40169  39.320  36.144   3.027
73629ION    CL-40170  43.847  23.268  13.974
73630ION    CL-40171   1.112  17.392  11.658
73631ION    CL-40172  42.191  29.818  11.135
73632ION    CL-40173  42.220  12.034  11.673
73633ION    CL-40174  14.452  36.337   0.318
73634ION    CL-40175  18.257  25.582  13.040
73635ION    CL-40176  20.573  17.952   4.635
73636ION    CL-40177  33.983  22.468  11.339
73637ION    CL-40178   3.915  36.982   2.237
73638ION    CL-40179  21.286   3.333  10.922
73639ION    CL-40180   9.913   8.261   0.372
73640ION    CL-40181  42.446  41.503  11.728
73641ION    CL-40182  15.532  37.520   3.312
73642ION    CL-40183   2.194   9.329   3.811
73643ION    CL-40184   7.030  36.011  10.762
73644ION    CL-40185   5.023  43.573  11.097
73645ION    CL-40186  43.941  16.178   3.978
73646ION    CL-40187  11.795   3.977   0.661
73647ION    CL-40188   0.340  16.325   1.203
73648ION    CL-40189  39.362  33.417   2.789
73649ION    CL-40190  27.835  17.310   5.080
73650ION    CL-40191   8.616  41.826   1.204
73651ION    CL-40192  26.330  40.395  14.862
73652ION    CL-40193   5.497  11.224   1.770
73653ION    CL-40194  38.127  30.099  12.040
73654ION    CL-40195   6.299  38.466  12.408
73655ION    CL-40196  23.938  23.678  12.737
73656ION    CL-40197  26.091  39.339  14.949
73657ION    CL-40198  43.508   2.513   0.201
73658ION    CL-40199  39.530  28.496   1.482
73659ION    CL-40200  38.232  36.973  11.398
73660ION    CL-40201   2.606  44.154   2.219
73661ION    CL-40202  25.131   3.355   0.194
73662ION    CL-40203  18.624   9.642  11.037
73663ION    CL-40204  15.855  29.502   0.794
73664ION    CL-40205   4.428  41.441  11.500
73665ION    CL-40206  40.539  22.484   4.535
73666ION    CL-40207  41.038  23.476  14.773
73667ION    CL-40208  16.319   2.291  12.642
73668ION    CL-40209  16.312  20.624   1.820
73669ION    CL-40210  23.136  32.442   2.205
73670ION    CL-40211  10.439   2.820   3.313
73671ION    CL-40212  44.031  26.159  11.257
73672ION    CL-40213  21.830  19.775   2.300
73673ION    CL-40214  23.766  25.637  12.097
73674ION    CL-40215  31.880  34.170  13.841
73675ION    CL-40216  37.563  39.049   4.141
73676ION    CL-40217  23.311  36.126  14.868
73677ION    CL-40218  12.483   0.109   1.432
73678ION    CL-40219  15.171  25.953   3.604
73679ION    CL-40220  42.251  11.875   4.011
73680ION    CL-40221  30.088   4.191  14.338
73681ION    CL-40222  16.559  23.702   3.527
73682ION    CL-40223   3.379  25.947  14.936
73683ION    CL-40224  30.202  36.917  13.850
73684ION    CL-40225   4.040  36.046   2.566
73685ION    CL-40226  44.254  29.563  14.001
73686ION    CL-40227  19.523  36.830   0.616
73687ION    CL-40228  22.850  35.353   0.324
73688ION    CL-40229  39.068  10.119  10.924
73689ION    CL-40230  27.519  31.873  12.973
73690ION    CL-40231  13.518   5.296  10.274
73691ION    CL-40232  26.578  36.660  14.226
73692ION    CL-40233  36.259  39.643  12.070
73693ION    CL-40234  13.975   1.639   4.293
73694ION    CL-40235  10.598  32.321   4.262
73695ION    CL-40236  19.942  19.107  13.941
73696ION    CL-40237  24.641  30.800   9.876
73697ION    CL-40238  27.473  32.432   0.049
73698ION    CL-40239  32.164  17.095   2.473
73699ION    CL-40240  34.830  10.581  11.768
73700ION    CL-40241  30.001  41.295   4.224
73701ION    CL-40242  31.514   8.254  12.971
73702ION    CL-40243  18.459  22.133  12.890
73703ION    CL-40244  43.164  28.443  11.167
73704ION    CL-40245  24.099   8.334  12.216
73705ION    CL-40246  10.512  35.045  11.819
73706ION    CL-40247  13.961  17.044  10.499
73707ION    CL-40248   8.427   3.066   1.545
73708ION    CL-40249  13.586   6.656  12.935
73709ION    CL-40250  20.766  38.967  12.667
73710ION    CL-40251   7.176  33.259  13.931
73711ION    CL-40252  32.407  17.541   0.889
73712ION    CL-40253  14.205   2.390  13.111
73713ION    CL-40254  44.889  21.388  12.773
73714ION    CL-40255  34.656  21.524   5.094
73715ION    CL-40256  25.179   5.631  13.611
73716ION    CL-40257   0.364  36.580   4.290
73717ION    CL-40258  14.822  16.590   2.389
73718ION    CL-40259  40.294  12.168   4.599
73719ION    CL-40260  39.012  42.903   1.874
73720ION    CL-40261  14.871  13.237   1.222
73721ION    CL-40262  11.776  28.536   1.931
73722ION    CL-40263   9.877   5.872  11.532
73723ION    CL-40264   2.218  31.894   1.705
73724ION    CL-40265  37.691   0.326   0.823
73725ION    CL-40266   8.348  32.686  13.906
73726ION    CL-40267  34.304  43.719  12.741
73727ION    CL-40268  22.467  24.356   4.985
73728ION    CL-40269  19.116  42.445  11.982
73729ION    CL-40270  27.452  39.990   2.477
73730ION    CL-40271  22.685  34.729   3.672
73731ION    CL-40272  39.024  25.208  13.531
73732ION    CL-40273  18.424  29.058  13.007
73733ION    CL-40274  16.031   7.245   1.344
73734ION    CL-40275  27.078   9.840  12.784
73735ION    CL-40276   1.071   6.653   3.945
73736ION    CL-40277  40.612   7.600   4.337
73737ION    CL-40278  28.275  39.688  11.731
73738ION    CL-40279   1.570  18.809  13.602
73739ION    CL-40280  28.442  18.633  14.185
73740ION    CL-40281   9.741  23.179  13.389
73741ION    CL-40282  22.502   0.328   1.268
73742ION    CL-40283  12.840  43.937   3.221
73743ION    CL-40284  27.693  30.065  13.259
73744ION    CL-40285  22.008  14.930  11.113
73745ION    CL-40286   8.715  29.659   1.433
73746ION    CL-40287  44.440  42.900  12.995
73747ION    CL-40288  28.758  16.390  12.594
73748ION    CL-40289   3.479  25.276  12.096
73749ION    CL-40290  23.934  12.485  12.170
73750ION    CL-40291  43.807  18.343  11.960
73751ION    CL-40292  21.123  44.778   4.523
73752ION    CL-40293  30.604  22.132  11.533
73753ION    CL-40294  35.318  26.152   1.697
73754ION    CL-40295   9.669  12.708  10.957
73755ION    CL-40296  20.253   0.708   1.494
73756ION    CL-40297  17.788  11.675   4.937
73757ION    CL-40298  41.101  40.078  12.277
73758ION    CL-40299   4.515  37.593  14.888
73759ION    CL-40300  31.614  30.037   4.552
73760ION    CL-40301  20.748  44.349  14.428
73761ION    CL-40302  13.165  11.112  11.273
73762ION    CL-40303  29.473  18.319   0.921
73763ION    CL-40304  44.808  18.724   4.918
73764ION    CL-40305  28.214  10.936   3.782
73765ION    CL-40306  34.339  41.622  14.250
73766ION    CL-40307  27.684  28.115  10.736
73767ION    CL-40308  10.442  19.158   0.387
73768ION    CL-40309  20.985  39.610  11.620
73769ION    CL-40310  11.561   5.008  14.747
73770ION    CL-40311  28.712   1.051  11.133
73771ION    CL-40312  32.211  22.396   2.424
73772ION    CL-40313  27.762  31.062  13.289
73773ION    CL-40314  11.641  35.955   0.490
73774ION    CL-40315  18.611  19.281  13.714
73775ION    CL-40316  41.022  30.265  11.238
73776ION    CL-40317  34.797  37.012   2.601
73777ION    CL-40318  13.611   4.681  11.262
73778ION    CL-40319  10.013  34.313   0.543
73779ION    CL-40320  22.178  18.771  12.955
73780ION    CL-40321  24.534  20.777  14.737
73781ION    CL-40322  12.623  24.101  10.816
73782ION    CL-40323   1.626   2.795  14.384
73783ION    CL-40324   3.849  26.034   1.799
73784ION    CL-40325  35.873  39.486  13.511
73785ION    CL-40326  19.490  42.607   5.019
73786ION    CL-40327  15.146  39.205   2.166
73787ION    CL-40328  37.650  34.360  11.437
73788ION    CL-40329  22.830   8.249   2.043
73789ION    CL-40330  28.446   3.278   2.643
73790ION    CL-40331  24.126  16.570   3.820
73791ION    CL-40332   1.734  30.330   4.447
73792ION    CL-40333  14.671   0.852   4.900
73793ION    CL-40334  18.779   5.328   4.822
73794ION    CL-40335   1.835  43.500  13.375
73795ION    CL-40336  44.496  32.217   0.078
73796ION    CL-40337  19.654  18.951   1.534
73797ION    CL-40338  10.765   5.863  13.603
73798ION    CL-40339  10.619   3.702   3.749
73799ION    CL-40340  15.848  33.687   0.747
73800ION    CL-40341  22.800   0.464   4.825
73801ION    CL-40342  34.042   4.964  12.038
73802ION    CL-40343  15.587  25.278  11.455
73803ION    CL-40344  24.168  23.066   3.790
73804ION    CL-40345   0.434   7.286   3.425
73805ION    CL-40346  27.401  33.482  14.392
73806ION    CL-40347  12.292   1.055   3.625
73807ION    CL-40348   7.331  15.366  11.411
73808ION    CL-40349  31.850  10.157  11.933
73809ION    CL-40350  31.396  40.280   2.593
73810ION    CL-40351  30.925  43.453  14.255
73811ION    CL-40352  44.882   8.128   3.350
73812ION    CL-40353  18.543  12.454   1.455
73813ION    CL-40354  26.881  26.401  11.845
73814ION    CL-40355  36.788  16.272   1.795
73815ION    CL-40356   4.218  10.007  14.845
73816ION    CL-40357  28.419  15.722  10.248
73817ION    CL-40358  36.291   0.879  13.331
73818ION    CL-40359  18.676  18.589   3.260
73819ION    CL-40360  36.993  28.778  14.739
73820ION    CL-40361  27.867   8.977   0.381
73821ION    CL-40362  30.602  13.449   2.285
73822ION    CL-40363   4.036  43.050   5.032
73823ION    CL-40364  21.638  32.748   4.899
73824ION    CL-40365  40.086  25.564   0.656
73825ION    CL-40366  26.842  33.826   0.866
73826ION    CL-40367   3.815  44.755  14.410
73827ION    CL-40368  42.565  40.462   4.134
73828ION    CL-40369  26.429  36.996   2.220
73829ION    CL-40370  10.193  18.225   4.940
73830ION    CL-40371   6.450  41.912  14.906
73831ION    CL-40372  33.235  16.664   0.118
73832ION    CL-40373  12.946  33.332   0.599
73833ION    CL-40374  18.732  24.702  13.037
73834ION    CL-40375  14.171   1.543  11.606
73835ION    CL-40376  11.060   1.675  13.999
73836ION    CL-40377  23.960  23.466  11.649
73837ION    CL-40378  34.370  27.225   2.496
73838ION    CL-40379  11.500  12.498  13.489
73839ION    CL-40380  25.706  16.219   3.892
73840ION    CL-40381  10.940  23.856   0.628
73841ION    CL-40382  26.861  23.063   0.725
73842ION    CL-40383  43.808  35.844   1.671
73843ION    CL-40384  36.499  42.996  13.892
73844ION    CL-40385  14.272  29.710  14.866
73845ION    CL-40386  33.886  23.992  10.788
73846ION    CL-40387  38.183   3.612  12.342
73847ION    CL-40388  34.823  30.469   3.240
73848ION    CL-40389  36.390  11.761   0.715
73849ION    CL-40390  19.848  36.426  13.316
73850ION    CL-40391   4.757  36.621  12.945
73851ION    CL-40392  11.334   1.767  14.956
73852ION    CL-40393   4.122  23.241  14.940
73853ION    CL-40394  37.068   0.754   1.425
73854ION    CL-40395  35.136  40.482  10.679
73855ION    CL-40396  43.418   0.256  13.842
73856ION    CL-40397  10.924  36.919   4.581
73857ION    CL-40398  28.377   2.731   4.052
73858ION    CL-40399  31.436  17.882  11.211
73859ION    CL-40400   0.433  13.794   3.434
73860ION    CL-40401  36.232  11.520   2.162
73861ION    CL-40402  27.383  35.502   1.890
73862ION    CL-40403   5.064  29.749   9.400
73863ION    CL-40404  28.548  12.150   2.562
73864ION    CL-40405  33.936  17.056   3.363
73865ION    CL-40406  10.678  32.608  13.060
73866ION    CL-40407  27.051   7.980   3.077
73867ION    CL-40408  10.716  24.477  10.687
73868ION    CL-40409   4.235  34.132   2.117
73869ION    CL-40410   3.428  22.675   5.221
73870ION    CL-40411   2.514  22.730  14.293
73871ION    CL-40412  37.333  12.133   0.322
73872ION    CL-40413  14.893  11.460  13.995
73873ION    CL-40414  40.054  22.278   3.631
73874ION    CL-40415  36.884  37.841   0.572
73875ION    CL-40416  26.061  25.505  12.624
73876ION    CL-40417   6.376  19.601  14.158
73877ION    CL-40418  30.407  31.917   0.268
73878ION    CL-40419  24.883  43.731  14.336
73879ION    CL-40420  17.599   7.789   3.997
73880ION    CL-40421  33.904   4.240   0.933
73881ION    CL-40422  41.149  26.120  14.258
73882ION    CL-40423  29.481   4.999   4.795
73883ION    CL-40424  31.234  15.812  13.211
73884ION    CL-40425  40.266   4.890   0.843
73885ION    CL-40426   0.465  32.613   3.083
73886ION    CL-40427   6.266  27.311  11.191
73887ION    CL-40428  42.486  34.238  11.849
73888ION    CL-40429  32.875   2.456  14.481
73889ION    CL-40430  28.036  23.055  13.665
73890ION    CL-40431   1.895  29.039   4.607
73891ION    CL-40432  10.776   0.932   0.594
73892ION    CL-40433  33.354  19.017  12.497
73893ION    CL-40434  21.471  33.531  11.148
73894ION    CL-40435  40.928  44.855   3.914
73895ION    CL-40436  27.385  43.763   4.153
73896ION    CL-40437  44.094  14.808  10.338
73897ION    CL-40438  40.923   2.163  12.136
73898ION    CL-40439   9.205   9.257   0.570
73899ION    CL-40440   8.469  33.060   3.398
73900ION    CL-40441   8.205  44.194   2.982
73901ION    CL-40442   8.660  12.762  11.799
73902ION    CL-40443  28.412   0.057   4.056
73903ION    CL-40444  24.655  44.368   0.565
73904ION    CL-40445  42.749  30.653  12.363
73905ION    CL-40446  39.585  42.811  13.514
73906ION    CL-40447   6.120   7.691   1.700
73907ION    CL-40448  12.548  19.115  12.570
73908ION    CL-40449  38.478  43.984  10.407
73909ION    CL-40450  10.345  21.435   3.283
73910ION    CL-40451   6.010  22.182   3.987
73911ION    CL-40452  13.030  42.222  11.751
73912ION    CL-40453  12.593  34.543   3.881
73913ION    CL-40454  26.029  34.807  13.866
73914ION    CL-40455  41.970  17.788  13.443
73915ION    CL-40456  35.111   0.077   3.646
73916ION    CL-40457  24.855   6.575  13.554
73917ION    CL-40458  25.023   9.448   4.077
73918ION    CL-40459  36.501  13.097  10.963
73919ION    CL-40460  16.041  42.436  12.893
73920ION    CL-40461  22.614  11.742   3.629
73921ION    CL-40462  22.542   6.877  13.730
73922ION    CL-40463   8.427   5.052   3.952
73923ION    CL-40464   1.698  15.604   2.391
73924ION    CL-40465   5.774   5.379   1.972
73925ION    CL-40466  23.003  16.502   1.640
73926ION    CL-40467   6.623   6.457   4.766
73927ION    CL-40468  24.743  27.641   3.720
73928ION    CL-40469   9.557  44.398   1.915
73929ION    CL-40470  24.517  21.742  13.559
73930ION    CL-40471  25.833   1.104  13.521
73931ION    CL-40472  32.382  24.106   0.819
73932ION    CL-40473   7.348   1.046   2.729
73933ION    CL-40474  28.438  31.671  13.973
73934ION    CL-40475  13.405  26.709   5.365
73935ION    CL-40476  30.132  24.187  13.582
73936ION    CL-40477  32.082  11.635  14.006
73937ION    CL-40478  13.067  32.756  13.039
73938ION    CL-40479   3.290  19.714  12.616
73939ION    CL-40480   3.990  27.159  13.308
73940ION    CL-40481  12.596  33.202  11.383
73941ION    CL-40482  10.908   6.385   0.725
73942ION    CL-40483  43.604  32.629   0.366
73943ION    CL-40484   6.996   2.022   0.125
73944ION    CL-40485  43.450  34.187  12.982
73945ION    CL-40486  19.033   0.989   1.757
73946ION    CL-40487  42.547  32.173   4.796
73947ION    CL-40488  19.787   6.209   4.780
73948ION    CL-40489  26.499  28.127   5.095
73949ION    CL-40490  18.691  31.486  11.891
73950ION    CL-40491  34.543  11.699   0.563
73951ION    CL-40492  19.097  39.794   2.828
73952ION    CL-40493  28.684  25.093   0.215
73953ION    CL-40494  19.633  42.891  10.790
73954ION    CL-40495  21.665  10.771  13.762
73955ION    CL-40496  26.484   7.812  10.443
73956ION    CL-40497  34.663  31.686  13.863
73957ION    CL-40498  11.242  42.255   0.775
73958ION    CL-40499  23.233  28.825  11.091
73959ION    CL-40500  43.226  41.799   5.029
73960ION    CL-40501  28.960  39.396  13.972
73961ION    CL-40502  40.567  18.174   4.478
73962ION    CL-40503  12.626  25.941   2.686
73963ION    CL-40504  24.720  24.505  14.071
73964ION    CL-40505  35.597  21.283  13.935
73965ION    CL-40506  41.511  18.744  13.071
73966ION    CL-40507  14.278  13.096   0.404
73967ION    CL-40508  16.681   1.652   4.336
73968ION    CL-40509   0.242  43.869  10.760
73969ION    CL-40510  12.445  38.837  12.754
73970ION    CL-40511  30.929  31.419   0.764
73971ION    CL-40512  37.844  18.778   4.163
73972ION    CL-40513   9.244  37.527   1.794
73973ION    CL-40514  19.372  16.415   3.017
73974ION    CL-40515  30.064  12.947   2.803
73975ION    CL-40516   1.191  40.320   3.653
73976ION    CL-40517  37.413  29.305   4.674
73977ION    CL-40518  42.019  38.366  13.154
73978ION    CL-40519  39.470   5.650  14.764
73979ION    CL-40520  42.828  21.430   2.815
73980ION    CL-40521  24.100  33.029   4.010
73981ION    CL-40522  29.528  21.314  14.858
73982ION    CL-40523  12.238  37.269   1.260
73983ION    CL-40524  42.829  17.789   1.890
73984ION    CL-40525  30.768   4.885   9.971
73985ION    CL-40526  25.064  18.057  11.529
73986ION    CL-40527  31.278  23.632   4.191
73987ION    CL-40528  44.082  27.950   3.711
73988ION    CL-40529  28.042   2.186   2.287
73989ION    CL-40530  14.332  32.693  12.664
73990ION    CL-40531  39.117  44.162   2.270
73991ION    CL-40532   3.980  18.995  12.531
73992ION    CL-40533  16.863  10.042  10.425
73993ION    CL-40534  20.021  10.473  14.172
73994ION    CL-40535  35.672   9.925  12.812
73995ION    CL-40536   8.357  15.078  12.053
73996ION    CL-40537  39.324  44.152   0.906
73997ION    CL-40538   7.021  44.981  10.469
73998ION    CL-40539   2.206  35.734  11.715
73999ION    CL-40540  44.400  10.986  11.086
74000ION    CL-40541  17.751   2.397  11.361
74001ION    CL-40542   7.580   5.318   0.423
74002ION    CL-40543   0.900   2.600  10.216
74003ION    CL-40544  38.497   9.905  11.983
74004ION    CL-40545  23.943   3.692   1.817
74005ION    CL-40546  43.789   9.274  14.589
74006ION    CL-40547  19.000  30.578   1.783
74007ION    CL-40548   8.679  17.489   2.558
74008ION    CL-40549   1.826   7.513   2.361
74009ION    CL-40550  24.624  28.681   1.328
74010ION    CL-40551  13.463  44.713  14.957
74011ION    CL-40552  14.856  32.540  11.619
74012ION    CL-40553  25.032  40.027   0.330
74013ION    CL-40554  24.249   6.352   3.137
74014ION    CL-40555  10.718  35.752  12.340
74015ION    CL-40556  13.679  38.536  14.282
74016ION    CL-40557   4.683  27.551  11.201
74017ION    CL-40558  34.898  18.142   2.480
74018ION    CL-40559   2.738  36.910   4.163
74019ION    CL-40560  37.223  36.083  10.962
74020ION    CL-40561  19.586  43.408   1.390
74021ION    CL-40562  16.756  41.567   0.088
74022ION    CL-40563  39.728  23.097  11.544
74023ION    CL-40564   8.444  37.214  13.071
74024ION    CL-40565  42.902  37.599   1.921
74025ION    CL-40566   1.785  23.967   4.016
74026ION    CL-40567  40.260  23.868   4.219
74027ION    CL-40568  30.200   3.354   5.114
74028ION    CL-40569  14.084  32.317  14.480
74029ION    CL-40570   9.428   4.449   1.043
74030ION    CL-40571  40.257   7.482   1.246
74031ION    CL-40572   3.120  23.622  10.391
74032ION    CL-40573  39.903  39.924   3.186
74033ION    CL-40574   6.787  29.268  11.426
74034ION    CL-40575   3.431  44.129   4.032
74035ION    CL-40576  18.033  25.077   4.875
74036ION    CL-40577  28.171  21.475   3.248
74037ION    CL-40578  42.584  16.504  14.861
74038ION    CL-40579  44.679  42.424  10.827
74039ION    CL-40580   9.983   1.902   0.071
74040ION    CL-40581  21.150  26.814   3.117
74041ION    CL-40582  29.111   2.696   3.157
74042ION    CL-40583   3.977  19.764  11.891
74043ION    CL-40584   9.388   8.964   2.566
74044ION    CL-40585   8.872  34.373   5.101
74045ION    CL-40586  16.465   4.070   3.259
74046ION    CL-40587  18.393   9.906   1.601
74047ION    CL-40588  23.133  28.633   4.099
74048ION    CL-40589  19.500   6.649   0.696
74049ION    CL-40590  13.090   5.763  11.048
74050ION    CL-40591  14.883  17.281   1.669
74051ION    CL-40592   6.509  31.923   1.642
74052ION    CL-40593  35.548  35.358   4.428
74053ION    CL-40594  15.289  25.969  13.515
74054ION    CL-40595  22.953  15.398  12.698
74055ION    CL-40596  40.499  42.942  13.020
74056ION    CL-40597  44.315  44.820  10.922
74057ION    CL-40598  26.642  14.792   0.448
74058ION    CL-40599   3.377  38.089   3.483
74059ION    CL-40600  18.654  21.853  13.928
74060ION    CL-40601   9.174   7.878   2.789
74061ION    CL-40602  39.337  39.096   1.421
74062ION    CL-40603  16.541  15.012   4.470
74063ION    CL-40604  34.097  17.733  13.966
74064ION    CL-40605   1.740  19.326  14.327
74065ION    CL-40606  37.949   9.393   5.107
74066ION    CL-40607  32.785  34.202  13.416
74067ION    CL-40608  34.512  27.558  14.519
74068ION    CL-40609  26.216  28.134  14.449
74069ION    CL-40610   6.021  37.568  12.748
74070ION    CL-40611  12.379   0.961   0.920
74071ION    CL-40612   0.196  29.856  13.841
74072ION    CL-40613  40.080   6.185   0.362
74073ION    CL-40614  17.490   5.061   0.359
74074ION    CL-40615  34.931   0.763  11.647
74075ION    CL-40616  44.456   1.770  11.465
74076ION    CL-40617   0.567  18.010  11.277
74077ION    CL-40618   0.238  32.552  14.294
74078ION    CL-40619  32.869  35.271   0.219
74079ION    CL-40620  14.148  26.411   5.027
74080ION    CL-40621  31.677  28.649   1.858
74081ION    CL-40622  15.565  40.928  13.088
74082ION    CL-40623   0.823  22.695  11.483
74083ION    CL-40624  21.806  19.730   1.292
74084ION    CL-40625   4.358   9.832   4.545
74085ION    CL-40626  40.619  20.632   1.781
74086ION    CL-40627  34.783  41.631   4.001
74087ION    CL-40628  42.351  27.127  12.042
74088ION    CL-40629  22.088  20.711   5.010
74089ION    CL-40630  29.717  25.345  11.724
74090ION    CL-40631  40.573  43.585  13.782
74091ION    CL-40632  40.549  29.131  13.073
74092ION    CL-40633   7.732  41.324   3.655
74093ION    CL-40634  19.305  41.594   3.443
74094ION    CL-40635  17.549  42.789   2.276
74095ION    CL-40636   4.633  19.169  14.276
74096ION    CL-40637   2.382  40.420   4.085
74097ION    CL-40638  28.711  35.117  14.427
74098ION    CL-40639  38.281   7.150   1.326
74099ION    CL-40640  21.493  19.983  12.634
74100ION    CL-40641  14.111  31.118  14.981
74101ION    CL-40642  24.714   2.786  14.657
74102ION    CL-40643   1.978  39.700  12.178
74103ION    CL-40644  40.198   8.735  11.523
74104ION    CL-40645  15.353  18.139   1.876
74105ION    CL-40646  21.874  40.132   1.369
74106ION    CL-40647  42.298  35.028  14.328
74107ION    CL-40648  14.673   3.363  10.972
74108ION    CL-40649  18.806  34.627   0.225
74109ION    CL-40650  39.920  24.601   3.628
74110ION    CL-40651  33.807   7.800   2.010
74111ION    CL-40652  11.392   3.372  13.059
74112ION    CL-40653   4.443  21.180  13.406
74113ION    CL-40654  13.253  23.365  11.244
74114ION    CL-40655  27.276  10.055   3.704
74115ION    CL-40656  25.310  14.539   4.533
74116ION    CL-40657  15.153   7.799   0.861
74117ION    CL-40658  32.337  26.067   3.404
74118ION    CL-40659  14.793  17.847   2.740
74119ION    CL-40660  38.393   9.509  13.576
74120ION    CL-40661  12.688  23.658   1.656
74121ION    CL-40662  33.816  28.564  14.803
74122ION    CL-40663  26.488  16.626   1.863
74123ION    CL-40664   6.455  23.086   2.664
74124ION    CL-40665  20.573  33.141   0.851
74125ION    CL-40666  14.300   5.380   4.153
74126ION    CL-40667  29.531  14.027   0.939
74127ION    CL-40668  30.916  22.102   2.379
74128ION    CL-40669   4.164  14.170   9.985
74129ION    CL-40670   0.674  38.208   0.142
74130ION    CL-40671  42.999  31.517  11.911
74131ION    CL-40672  43.900  28.630   0.668
74132ION    CL-40673  40.443  18.724   1.678
74133ION    CL-40674  30.352   2.242   2.688
74134ION    CL-40675  14.281  35.330  10.625
74135ION    CL-40676   4.022  12.555  13.800
74136ION    CL-40677  15.339  19.632  14.846
74137ION    CL-40678   7.280   1.445  14.538
74138ION    CL-40679  33.271  33.551   4.822
74139ION    CL-40680   4.495   5.252   2.346
74140ION    CL-40681   7.414   4.868   4.093
74141ION    CL-40682  38.283   4.329   1.793
74142ION    CL-40683  16.443  18.787   2.192
74143ION    CL-40684  14.075   6.423   2.354
74144ION    CL-40685   4.815  16.309   0.778
74145ION    CL-40686  17.563  35.045   2.693
74146ION    CL-40687  33.555  10.328  11.693
74147ION    CL-40688  43.507  42.057  10.717
74148ION    CL-40689  29.486   2.463  10.665
74149ION    CL-40690   3.136   1.865  14.816
74150ION    CL-40691   6.894  38.050  12.823
74151ION    CL-40692  24.976   7.666  14.431
74152ION    CL-40693  20.222  15.214  13.516
74153ION    CL-40694  30.463  31.783   3.331
74154ION    CL-40695  25.710  43.961  14.850
74155ION    CL-40696  38.683  24.548  10.224
74156ION    CL-40697  43.461  43.390  14.459
74157ION    CL-40698  34.485  17.406  13.104
74158ION    CL-40699  30.818  31.938  11.579
74159ION    CL-40700   6.390   3.827   2.146
74160ION    CL-40701  42.335  34.102   0.548
74161ION    CL-40702  12.644  19.544   2.304
74162ION    CL-40703  19.180  11.237  10.297
74163ION    CL-40704  37.908  16.137   0.305
74164ION    CL-40705  10.064   0.213   2.883
74165ION    CL-40706  31.605  10.585   0.895
74166ION    CL-40707  13.141  40.421   0.016
74167ION    CL-40708  26.044   4.043   3.736
74168ION    CL-40709  33.514  31.611   4.900
74169ION    CL-40710  31.460  14.185  14.418
74170ION    CL-40711   3.548  42.952  10.793
74171ION    CL-40712   5.075   0.616   1.263
74172ION    CL-40713  29.250  43.057   3.287
74173ION    CL-40714  15.354  31.404   3.313
74174ION    CL-40715  39.388  10.032  14.665
74175ION    CL-40716  28.755  10.100   3.681
74176ION    CL-40717  43.420  21.010  14.014
74177ION    CL-40718  15.932  13.697   5.293
74178ION    CL-40719   8.372   7.557  11.793
74179ION    CL-40720  39.842  41.414  13.886
74180ION    CL-40721  39.278   5.648   3.761
74181ION    CL-40722  40.838  16.219  13.059
74182ION    CL-40723  16.798   5.952  12.706
74183ION    CL-40724  34.043  13.141   3.541
74184ION    CL-40725   2.338   3.161  11.242
74185ION    CL-40726  20.924  42.280  14.434
74186ION    CL-40727  25.708  42.645   0.031
74187ION    CL-40728  41.161   6.054  10.635
74188ION    CL-40729   6.951  20.652   0.110
74189ION    CL-40730  18.817  16.952  13.820
74190ION    CL-40731   7.289  43.881   4.108
74191ION    CL-40732  38.964  27.096  11.750
74192ION    CL-40733  44.087  13.967  12.605
74193ION    CL-40734  30.239  34.021  11.099
74194ION    CL-40735  32.037  35.532   1.821
74195ION    CL-40736  14.771  10.171  10.729
74196ION    CL-40737  27.972  20.080   1.606
74197ION    CL-40738  40.179  33.785   0.971
74198ION    CL-40739   0.207  23.466  11.219
74199ION    CL-40740  28.404  11.036  11.408
74200ION    CL-40741   2.933  26.367  14.047
74201ION    CL-40742  18.906  12.647  10.609
74202ION    CL-40743  11.483  23.312  12.014
74203ION    CL-40744  20.632  26.292   1.386
74204ION    CL-40745   4.944  41.122  13.152
74205ION    CL-40746  32.911  26.070   0.847
74206ION    CL-40747  23.001   9.742  11.371
74207ION    CL-40748   3.085  29.466   0.257
74208ION    CL-40749  13.873  37.818   3.677
74209ION    CL-40750  12.402  10.228   0.343
74210ION    CL-40751  29.972  20.034   4.910
74211ION    CL-40752  33.900  34.653  10.182
74212ION    CL-40753  10.415  40.762   0.650
74213ION    CL-40754  26.937  18.010  14.891
74214ION    CL-40755   9.366   9.387  11.486
74215ION    CL-40756  26.804  31.745   2.312
74216ION    CL-40757  39.728   7.868   4.297
74217ION    CL-40758  32.541   1.457  12.252
74218ION    CL-40759  14.231  18.533   0.688
74219ION    CL-40760  10.127  41.879   5.344
74220ION    CL-40761  14.912  40.056   4.950
74221ION    CL-40762  40.320  10.904   1.751
74222ION    CL-40763  15.427  36.869   2.449
74223ION    CL-40764  29.999  43.398  12.123
74224ION    CL-40765   0.167  11.511   0.210
74225ION    CL-40766   0.687   4.580   1.727
74226ION    CL-40767  26.495  35.763  13.611
74227ION    CL-40768  22.440  22.632  14.569
74228ION    CL-40769  32.794   0.690  11.126
74229ION    CL-40770   4.311  38.024   5.044
74230ION    CL-40771  27.277  15.804  13.991
74231ION    CL-40772   2.443  12.163   1.975
74232ION    CL-40773  16.785  26.023   4.377
74233ION    CL-40774  36.924  36.420   0.247
74234ION    CL-40775  14.972  41.954  10.500
74235ION    CL-40776  26.717  26.440  13.566
74236ION    CL-40777  14.053  34.898   1.353
74237ION    CL-40778  39.421   5.962  13.271
74238ION    CL-40779  24.077  13.094  13.185
74239ION    CL-40780  10.422  17.701   9.846
74240ION    CL-40781  30.423  31.011  12.578
74241ION    CL-40782  28.096  35.562   1.191
74242ION    CL-40783   2.443  19.761  12.020
74243ION    CL-40784  44.852  35.149  12.441
74244ION    CL-40785   0.257  33.832   2.441
74245ION    CL-40786  34.728  18.547  13.868
74246ION    CL-40787  37.632  12.442  12.232
74247ION    CL-40788  26.363  12.655   1.831
74248ION    CL-40789  41.286  40.242  10.080
74249ION    CL-40790   6.880  42.892   4.749
74250ION    CL-40791  31.518  27.468   3.525
74251ION    CL-40792  44.227  37.064  12.504
74252ION    CL-40793  22.974   9.380  14.471
74253ION    CL-40794  38.121   5.515  14.869
74254ION    CL-40795   1.516  38.309   3.198
74255ION    CL-40796  21.052  40.075  10.738
74256ION    CL-40797  28.000  17.490   0.553
74257ION    CL-40798  23.963  40.975   4.540
74258ION    CL-40799  35.248  33.940   1.988
74259ION    CL-40800  18.445  37.442  13.386
74260ION    CL-40801  24.079  23.092   2.781
74261ION    CL-40802  28.211  12.340   9.718
74262ION    CL-40803  15.331   0.041  14.987
74263ION    CL-40804  15.921  38.733  14.936
74264ION    CL-40805  37.103   4.151  13.035
74265ION    CL-40806  15.298  26.950  10.618
74266ION    CL-40807  14.098  24.182   1.356
74267ION    CL-40808  13.149   1.564   3.924
74268ION    CL-40809  23.856  32.508  12.626
74269ION    CL-40810  44.658   1.688  12.575
74270ION    CL-40811  28.879  30.281   3.678
74271ION    CL-40812   1.265   6.175  11.958
74272ION    CL-40813   3.762   0.541   2.441
74273ION    CL-40814   9.442  15.226   2.489
74274ION    CL-40815  24.696   0.177   2.320
74275ION    CL-40816  41.488   2.715  13.751
74276ION    CL-40817  23.025  39.554   2.303
74277ION    CL-40818  43.025  11.766  11.124
74278ION    CL-40819  35.856  44.773   1.568
74279ION    CL-40820   4.409  28.907  13.675
74280ION    CL-40821  41.012  24.632   5.036
74281ION    CL-40822  30.948  15.356  11.152
74282ION    CL-40823  38.487  20.286   2.404
74283ION    CL-40824   5.203  40.536  12.384
74284ION    CL-40825  38.486  25.303   9.932
74285ION    CL-40826  18.243  28.196  14.012
74286ION    CL-40827   8.926  20.463  10.405
74287ION    CL-40828  36.311   6.313   4.867
74288ION    CL-40829  21.472  17.940  12.045
74289ION    CL-40830  44.098  32.150   2.784
74290ION    CL-40831  26.074  40.420  13.896
74291ION    CL-40832   0.250   5.415  14.354
74292ION    CL-40833  37.992  22.161   1.733
74293ION    CL-40834  23.040  32.880  12.451
74294ION    CL-40835  11.249  16.570   1.251
74295ION    CL-40836  18.766   8.998   0.090
74296ION    CL-40837   5.203  23.878   4.350
74297ION    CL-40838  23.504  16.559  11.094
74298ION    CL-40839  38.658  17.725  14.472
74299ION    CL-40840  40.075  37.421   4.155
74300ION    CL-40841   6.330  36.878   0.364
74301ION    CL-40842  31.125  20.188   0.648
74302ION    CL-40843  32.531  38.608   0.342
74303ION    CL-40844   1.614   9.596   1.831
74304ION    CL-40845  26.358  17.130  13.407
74305ION    CL-40846  37.806  24.832   3.008
74306ION    CL-40847  33.416   8.381  14.915
74307ION    CL-40848  23.635  34.963   2.880
74308ION    CL-40849  38.147   5.528  13.256
74309ION    CL-40850   4.094  10.355   1.595
74310ION    CL-40851  36.241  27.992  11.475
74311ION    CL-40852  36.756  22.359  10.976
74312ION    CL-40853  34.603  12.914  14.323
74313ION    CL-40854  35.387  12.615   0.877
74314ION    CL-40855  22.044  13.399   3.411
74315ION    CL-40856  34.144  23.531  11.637
74316ION    CL-40857  29.264  42.229  14.302
74317ION    CL-40858  41.879  11.109  14.172
74318ION    CL-40859   2.868   7.853  13.538
74319ION    CL-40860  32.756  19.080  10.366
74320ION    CL-40861  38.971  36.522  11.673
74321ION    CL-40862   9.175  22.314   1.414
74322ION    CL-40863  20.591  29.392  12.032
74323ION    CL-40864   7.254   3.405  13.392
74324ION    CL-40865  30.284  33.182  10.748
74325ION    CL-40866  37.106  33.818  12.078
74326ION    CL-40867  14.748  43.545   1.261
74327ION    CL-40868  28.338  15.536   2.284
74328ION    CL-40869  11.143  11.720   2.229
74329ION    CL-40870  29.063   7.426   4.470
74330ION    CL-40871   0.591  23.484   1.924
74331ION    CL-40872  38.841   7.409  11.154
74332ION    CL-40873  38.927   8.142   2.181
74333ION    CL-40874  27.089   0.961   0.710
74334ION    CL-40875  35.435  34.409   2.732
74335ION    CL-40876   8.667  21.005  11.217
74336ION    CL-40877  34.232   1.371  11.423
74337ION    CL-40878  21.708   9.353   1.856
74338ION    CL-40879  28.339  24.535  13.169
74339ION    CL-40880  37.791  29.158  12.001
74340ION    CL-40881  29.107  14.087   1.724
74341ION    CL-40882  23.730  27.478   3.749
74342ION    CL-40883   0.219  40.045   2.638
74343ION    CL-40884  12.275  12.130  13.759
74344ION    CL-40885   9.880  29.919  10.399
74345ION    CL-40886  31.658  35.008  14.769
74346ION    CL-40887   0.952  24.134  13.175
74347ION    CL-40888  24.637  40.401  14.474
74348ION    CL-40889   1.252   4.594   2.828
74349ION    CL-40890  36.265  24.552   0.952
74350ION    CL-40891  14.655  26.054  12.746
74351ION    CL-40892  38.452  15.906   3.502
74352ION    CL-40893  11.538   5.171   4.352
74353ION    CL-40894   6.135  30.019  11.530
74354ION    CL-40895  44.923   1.461   0.039
74355ION    CL-40896  43.542  25.273  12.445
74356ION    CL-40897  12.834  39.841  13.414
74357ION    CL-40898   1.295  36.273  12.169
74358ION    CL-40899  26.585   9.749  13.673
74359ION    CL-40900  11.570  34.893   2.838
74360ION    CL-40901  29.194  24.554  13.488
74361ION    CL-40902  40.521  18.409   0.326
74362ION    CL-40903   2.246  43.418   0.496
74363ION    CL-40904  25.968  24.217  10.709
74364ION    CL-40905  22.975   2.853   2.418
74365ION    CL-40906   3.476   8.677   2.573
74366ION    CL-40907  30.436  22.584   1.646
74367ION    CL-40908  19.525  40.722   2.410
74368ION    CL-40909  21.366  37.402  14.448
74369ION    CL-40910  22.278  23.477   1.740
74370ION    CL-40911  33.878  27.751   3.239
74371ION    CL-40912   2.558  41.079  13.377
74372ION    CL-40913   6.226  12.156  13.002
74373ION    CL-40914   2.099  37.253  13.962
74374ION    CL-40915  11.173   4.782  10.131
74375ION    CL-40916   7.593   8.479  11.861
74376ION    CL-40917  35.774  34.983   5.002
74377ION    CL-40918  17.932  44.168   4.308
74378ION    CL-40919  36.687  10.365  11.296
74379ION    CL-40920  13.907   4.235  13.157
74380ION    CL-40921   0.342   7.396   1.403
74381ION    CL-40922  17.747   3.580   2.273
74382ION    CL-40923  10.862  10.196   1.914
74383ION    CL-40924   4.083  15.032  11.163
74384ION    CL-40925  40.584  14.195   4.064
74385ION    CL-40926  35.510  14.996   0.995
74386ION    CL-40927   6.284   1.740  13.919
74387ION    CL-40928  18.861   3.975  12.743
74388ION    CL-40929  25.197  42.376  14.214
74389ION    CL-40930  35.514  37.458  14.992
74390ION    CL-40931  34.059  32.445  12.295
74391ION    CL-40932  24.533   8.795  13.959
74392ION    CL-40933   2.115   1.208   1.515
74393ION    CL-40934  22.523  11.202  11.690
74394ION    CL-40935  35.413  14.064   0.645
74395ION    CL-40936  14.955   2.129   1.760
74396ION    CL-40937  13.279  28.643  14.540
74397ION    CL-40938  19.311  20.643   3.309
74398ION    CL-40939  43.700   1.407  12.641
74399ION    CL-40940  40.577  29.533  12.030
74400ION    CL-40941   1.464  38.324   4.197
74401ION    CL-40942  41.278  34.000  12.619
74402ION    CL-40943  11.180  11.942   3.204
74403ION    CL-40944  13.849  22.691   4.890
74404ION    CL-40945  38.959  35.373  11.569
74405ION    CL-40946  32.041   0.054  14.989
74406ION    CL-40947  12.601   2.649  12.004
74407ION    CL-40948  10.548  26.227   0.465
74408ION    CL-40949  13.610  17.191  11.632
74409ION    CL-40950  34.447   1.948  13.922
74410ION    CL-40951  17.039  32.921   2.135
74411ION    CL-40952   3.509  12.713  12.032
74412ION    CL-40953  11.439   4.145   4.110
74413ION    CL-40954  23.787  16.165   0.065
74414ION    CL-40955  13.714  20.519   0.485
74415ION    CL-40956  23.167  32.556   1.170
74416ION    CL-40957   7.115  29.034  14.463
74417ION    CL-40958  34.723  37.525  11.362
74418ION    CL-40959  17.319  40.142  12.917
74419ION    CL-40960  23.229  18.294   0.002
74420ION    CL-40961  35.513  20.689  12.345
74421ION    CL-40962   4.428  32.587  11.481
74422ION    CL-40963  13.998  37.872  14.796
74423ION    CL-40964   1.601  15.808   9.951
74424ION    CL-40965  32.548  41.059   1.935
74425ION    CL-40966  26.776  12.305   2.535
74426ION    CL-40967   2.418  33.744  11.179
74427ION    CL-40968  20.753   0.463   2.877
74428ION    CL-40969  19.252  28.214   2.320
74429ION    CL-40970   2.796  35.055  11.079
74430ION    CL-40971  13.383  10.556  12.569
74431ION    CL-40972   6.609  13.729  12.119
74432ION    CL-40973  30.731  18.171   3.046
74433ION    CL-40974  13.093  35.097  11.118
74434ION    CL-40975  32.212  31.945   3.498
74435ION    CL-40976  21.118  13.778   4.565
74436ION    CL-40977   4.706  13.850  14.417
74437ION    CL-40978   8.897  24.490   5.151
74438ION    CL-40979  32.339  33.192   0.799
74439ION    CL-40980   4.806  19.633  10.842
74440ION    CL-40981  42.397  31.355   0.302
74441ION    CL-40982   6.411  38.200  10.986
74442ION    CL-40983  43.167  38.184   4.583
74443ION    CL-40984  42.734  27.592  12.892
74444ION    CL-40985  25.611  21.795   2.661
74445ION    CL-40986   6.295  16.702   1.921
74446ION    CL-40987  27.113  28.713  12.226
74447ION    CL-40988  22.373  42.791  13.449
74448ION    CL-40989  24.568  29.363   4.518
74449ION    CL-40990  13.422   0.424   1.291
74450ION    CL-40991  10.789  34.438  10.409
74451ION    CL-40992  24.457  18.379   4.568
74452ION    CL-40993  34.620   3.750  11.434
74453ION    CL-40994  27.091  42.343  13.728
74454ION    CL-40995  30.515  19.721  12.440
74455ION    CL-40996  23.121  12.703   1.151
74456ION    CL-40997   1.817   1.334  11.433
74457ION    CL-40998  13.469  32.314  13.659
74458ION    CL-40999   7.210  41.756   3.054
74459ION    CL-41000  43.033  15.793   0.403
74460ION    CL-41001   2.268   9.447  11.213
74461ION    CL-41002  40.495   4.241   4.587
74462ION    CL-41003  27.206   6.207  10.681
74463ION    CL-41004   0.222   9.430  11.199
74464ION    CL-41005   3.144  15.535   2.020
74465ION    CL-41006  40.001  18.373  10.733
74466ION    CL-41007  12.130  15.861  12.185
74467ION    CL-41008  27.112  13.179  10.481
74468ION    CL-41009  34.525  38.580   4.591
74469ION    CL-41010  19.004  32.191   4.172
74470ION    CL-41011   0.302  39.921   0.301
74471ION    CL-41012   2.316  19.518   2.391
74472ION    CL-41013   1.184  23.697  11.485
74473ION    CL-41014  30.405  26.986  12.369
74474ION    CL-41015  35.181  26.605   2.816
74475ION    CL-41016  23.154   0.379   2.038
74476ION    CL-41017  17.975   3.914  11.787
74477ION    CL-41018   6.212  14.673  12.441
74478ION    CL-41019  12.532  23.103   3.227
74479ION    CL-41020  15.349  16.546   3.822
74480ION    CL-41021  16.995  25.578  11.939
74481ION    CL-41022  15.162  23.054  11.425
74482ION    CL-41023   5.657  36.692   3.951
74483ION    CL-41024  18.190   4.301   1.381
74484ION    CL-41025  44.356   6.013  12.546
74485ION    CL-41026  17.484  25.028   1.468
74486ION    CL-41027  29.423   6.259   2.015
74487ION    CL-41028  44.714  37.374   2.139
74488ION    CL-41029  15.574  30.013  13.165
74489ION    CL-41030  25.877  27.409   4.782
74490ION    CL-41031  39.817  33.408  11.859
74491ION    CL-41032  14.806  42.048   0.389
74492ION    CL-41033  32.050  11.456  11.063
74493ION    CL-41034  10.724  23.557  12.456
74494ION    CL-41035  30.824  40.746  12.488
74495ION    CL-41036  16.353  39.668   3.364
74496ION    CL-41037   1.533   3.072  12.610
74497ION    CL-41038   0.668  21.799   4.629
74498ION    CL-41039  30.656  14.508   2.683
74499ION    CL-41040  31.691  32.077   0.457
74500ION    CL-41041  13.603  15.704   2.153
74501ION    CL-41042  25.192  29.565  12.832
74502ION    CL-41043   6.210  32.295   2.139
74503ION    CL-41044  22.334  10.855   0.428
74504ION    CL-41045  36.355  26.773   3.420
74505ION    CL-41046   7.676  13.768  12.113
74506ION    CL-41047  41.221   6.005   3.674
74507ION    CL-41048  40.472  39.274   4.211
74508ION    CL-41049   9.484  29.712  11.221
74509ION    CL-41050  26.919  21.311  12.629
74510ION    CL-41051  30.670   5.415   2.705
74511ION    CL-41052  30.411  34.008  14.829
74512ION    CL-41053  16.242  35.468  11.163
74513ION    CL-41054  22.400   7.012  12.378
74514ION    CL-41055   4.862  18.868   2.680
74515ION    CL-41056  27.873  41.543   2.943
74516ION    CL-41057  31.402  22.956  11.982
74517ION    CL-41058  17.995   9.322   3.384
74518ION    CL-41059   6.708  37.832  12.071
74519ION    CL-41060   3.810  31.816  11.636
74520ION    CL-41061   1.377   3.811  14.799
74521ION    CL-41062  25.922   9.259  13.079
74522ION    CL-41063  18.525  40.907   2.515
74523ION    CL-41064   0.887  29.933  13.296
74524ION    CL-41065  40.127  43.638   1.210
74525ION    CL-41066  24.652  38.028  12.942
74526ION    CL-41067   2.236  40.044   0.583
74527ION    CL-41068  34.758   7.873   1.711
74528ION    CL-41069  17.978  33.262   5.480
74529ION    CL-41070  10.708  42.651   2.224
74530ION    CL-41071   5.340  17.903   4.628
74531ION    CL-41072  20.246   9.877  10.754
74532ION    CL-41073   9.973  41.258  14.062
74533ION    CL-41074  37.846  25.992  13.328
74534ION    CL-41075  32.772  10.766  11.122
74535ION    CL-41076  41.767   2.723  12.019
74536ION    CL-41077  18.934  19.054  10.616
74537ION    CL-41078  25.615  34.837  11.455
74538ION    CL-41079  36.114  36.985  11.104
74539ION    CL-41080  17.687  12.311  11.116
74540ION    CL-41081   5.401  17.912  13.100
74541ION    CL-41082   3.075   3.382   1.357
74542ION    CL-41083   4.231  33.696   2.893
74543ION    CL-41084  22.035  22.025   0.112
74544ION    CL-41085  16.108   7.767  13.378
74545ION    CL-41086  35.680   3.504  12.854
74546ION    CL-41087  23.765  12.630  11.195
74547ION    CL-41088  31.985  38.049   0.966
74548ION    CL-41089  21.100   7.234  13.616
74549ION    CL-41090  40.199  32.831  12.606
74550ION    CL-41091  44.015   9.828   0.411
74551ION    CL-41092  18.659  36.290   3.081
74552ION    CL-41093   5.667  33.129  12.761
74553ION    CL-41094   6.778   3.965   0.973
74554ION    CL-41095  26.582  25.522   4.876
74555ION    CL-41096   5.612  18.596   5.296
74556ION    CL-41097  17.421  40.667  11.419
74557ION    CL-41098  35.565  23.036  10.301
74558ION    CL-41099   4.924  39.639  11.415
74559ION    CL-41100  25.279  16.172   0.694
74560ION    CL-41101  22.376  16.827  11.179
74561ION    CL-41102  24.800  28.609  12.405
74562ION    CL-41103   3.031  27.974   1.616
74563ION    CL-41104   9.043   9.017  12.627
74564ION    CL-41105  32.365  29.382   2.708
74565ION    CL-41106  14.605  23.864  11.241
74566ION    CL-41107   4.921  41.669   2.172
74567ION    CL-41108  13.954  28.142  12.211
74568ION    CL-41109  25.146  25.220   3.311
74569ION    CL-41110   6.214   7.435   2.670
74570ION    CL-41111  20.393  38.871   1.771
74571ION    CL-41112  12.211  30.436   5.267
74572ION    CL-41113  15.326  23.468  12.334
74573ION    CL-41114  10.557  31.759  11.693
74574ION    CL-41115  24.208  28.753  13.198
74575ION    CL-41116   7.434   7.265   2.104
74576ION    CL-41117  30.647   8.451  11.207
74577ION    CL-41118  42.321  14.475   0.024
74578ION    CL-41119  20.803  25.740  13.359
74579ION    CL-41120  36.178  27.374   5.120
74580ION    CL-41121  25.882   4.932   0.461
74581ION    CL-41122  40.357  10.043  14.313
74582ION    CL-41123  13.333  29.981   4.590
74583ION    CL-41124  19.980  39.901  11.656
74584ION    CL-41125  40.283  20.807  13.293
74585ION    CL-41126  41.594  34.512   1.801
74586ION    CL-41127   4.154  40.425  12.372
74587ION    CL-41128  44.304  42.350  13.697
74588ION    CL-41129  28.355  14.875   4.740
74589ION    CL-41130  23.712  31.221   2.211
74590ION    CL-41131  29.065  29.607   2.472
74591ION    CL-41132  42.109   0.182  11.065
74592ION    CL-41133   1.836  23.731   2.829
74593ION    CL-41134   1.812   2.219  12.740
74594ION    CL-41135   3.277  33.112   0.005
74595ION    CL-41136  34.223   8.415  11.736
74596ION    CL-41137  42.687  10.954  10.087
74597ION    CL-41138  18.130  21.839   2.596
74598ION    CL-41139  33.153   0.286   4.196
74599ION    CL-41140  14.065  42.737   1.320
74600ION    CL-41141  36.144  34.134   3.427
74601ION    CL-41142  34.931  18.527  11.965
74602ION    CL-41143  33.440   3.151  13.350
74603ION    CL-41144  38.899  15.233   2.464
74604ION    CL-41145  43.788  32.850   1.224
74605ION    CL-41146   4.156  38.941  14.495
74606ION    CL-41147  37.505   5.184  13.739
74607ION    CL-41148  41.139  42.328   2.774
74608ION    CL-41149   2.885   3.076  13.866
74609ION    CL-41150  44.710  41.084  14.606
74610ION    CL-41151  24.783  29.057   2.445
74611ION    CL-41152  31.684  37.249   2.647
74612ION    CL-41153  23.968  22.087   3.071
74613ION    CL-41154   7.334   3.371   1.556
74614ION    CL-41155  15.287  21.797  14.612
74615ION    CL-41156   3.173  12.902   2.932
74616ION    CL-41157   8.228  28.556  12.211
74617ION    CL-41158   0.992  18.883  11.036
74618ION    CL-41159  30.801   9.775   2.556
74619ION    CL-41160  42.563  16.277  13.888
74620ION    CL-41161   0.406   8.928  12.044
74621ION    CL-41162  34.979   1.134   3.679
74622ION    CL-41163   3.605  19.758  13.564
74623ION    CL-41164  13.128  41.238  11.589
74624ION    CL-41165   8.824  20.019   5.185
74625ION    CL-41166  35.704  36.159   4.034
74626ION    CL-41167  35.020  17.720  14.351
74627ION    CL-41168  31.154  32.581   3.064
74628ION    CL-41169  10.932   7.333   0.406
74629ION    CL-41170  42.793  43.472  13.720
74630ION    CL-41171   5.966  26.712  12.828
74631ION    CL-41172   8.260   1.305   1.715
74632ION    CL-41173  19.613  25.328   3.854
74633ION    CL-41174   6.023  25.212   2.190
74634ION    CL-41175  43.259   0.643   4.029
74635ION    CL-41176   3.382  25.625  13.028
74636ION    CL-41177  29.017  36.089  10.869
74637ION    CL-41178  10.892  16.010  10.531
74638ION    CL-41179  19.376  19.142  12.899
74639ION    CL-41180  32.539  29.107   4.869
74640ION    CL-41181   5.444   1.953  14.418
74641ION    CL-41182  12.864   1.455   5.025
74642ION    CL-41183  38.544  10.017   0.364
74643ION    CL-41184   0.223  22.450   4.173
74644ION    CL-41185  20.101  43.801   2.901
74645ION    CL-41186  31.854  34.761   1.345
74646ION    CL-41187  36.124  10.721   0.795
74647ION    CL-41188  13.592  12.189   0.366
74648ION    CL-41189   7.838  18.977  14.248
74649ION    CL-41190  44.290  25.749   3.009
74650ION    CL-41191   1.158   6.044  10.972
74651ION    CL-41192   1.281  12.674  13.346
74652ION    CL-41193  14.585   8.918  11.848
74653ION    CL-41194  18.738  21.422  11.395
74654ION    CL-41195   8.691  33.682  13.581
74655ION    CL-41196  12.202  17.623   4.738
74656ION    CL-41197  11.602  27.431   3.634
74657ION    CL-41198  10.093  14.680   0.775
74658ION    CL-41199  21.890  28.472  13.711
74659ION    CL-41200  12.403  29.882   1.518
74660ION    CL-41201  35.096   1.984  12.147
74661ION    CL-41202   7.282  35.497  14.327
74662ION    CL-41203   1.656  39.253  14.479
74663ION    CL-41204  12.379  17.971  14.236
74664ION    CL-41205  41.677   3.819   0.922
74665ION    CL-41206   2.344  19.641  13.046
74666ION    CL-41207   5.675  41.327  11.075
74667ION    CL-41208  27.613  19.744  13.016
74668ION    CL-41209  43.390   3.566   2.364
74669ION    CL-41210  10.288  33.381   3.384
74670ION    CL-41211  33.673  26.735  11.506
74671ION    CL-41212  11.708   4.427   1.575
74672ION    CL-41213  23.960  10.925   4.005
74673ION    CL-41214   9.835  21.469  10.248
74674ION    CL-41215   7.136  30.449  11.696
74675ION    CL-41216  21.871  29.380   3.939
74676ION    CL-41217  16.829  39.398   1.788
74677ION    CL-41218  17.361  20.836  13.807
74678ION    CL-41219  20.634  25.225   3.800
74679ION    CL-41220  24.995  32.096  12.790
74680ION    CL-41221  17.750  36.527   1.073
74681ION    CL-41222  28.571  32.466   1.932
74682ION    CL-41223   0.581  43.081   0.389
74683ION    CL-41224  33.549   0.619  12.312
74684ION    CL-41225  35.854  22.797   0.610
74685ION    CL-41226  24.480  32.901  10.713
74686ION    CL-41227  19.261  13.571  10.294
74687ION    CL-41228  27.462   5.692  14.009
74688ION    CL-41229  43.150   0.559  12.779
74689ION    CL-41230  12.365  13.411  14.593
74690ION    CL-41231  13.037  20.691  14.279
74691ION    CL-41232  27.559  28.156   3.720
74692ION    CL-41233  23.372  10.937  12.733
74693ION    CL-41234  17.484  30.776   1.542
74694ION    CL-41235  22.282  41.007  10.980
74695ION    CL-41236  23.208  32.091  11.536
74696ION    CL-41237  11.315   9.748  11.594
74697ION    CL-41238  26.352  21.129   4.454
74698ION    CL-41239   9.392  18.501  11.168
74699ION    CL-41240   6.979  24.661   9.828
74700ION    CL-41241   9.539  16.170  14.222
74701ION    CL-41242  32.618  15.224  11.510
74702ION    CL-41243   4.661  40.315   1.253
74703ION    CL-41244  10.732  39.066  11.535
74704ION    CL-41245   6.284  32.038  11.973
74705ION    CL-41246  40.606  24.961  13.779
74706ION    CL-41247   7.787   3.503   0.673
74707ION    CL-41248  17.981  12.409   4.594
74708ION    CL-41249  18.094  38.067   0.341
74709ION    CL-41250  24.872  19.835  14.784
74710ION    CL-41251   1.164  34.138   4.694
74711ION    CL-41252   8.890  20.637   4.682
74712ION    CL-41253  11.147  44.306   4.145
74713ION    CL-41254  16.569  10.309   2.640
74714ION    CL-41255   3.426  18.788   3.589
74715ION    CL-41256  18.290  13.632  11.459
74716ION    CL-41257  19.859  23.602  10.044
74717ION    CL-41258  30.073  41.892  12.635
74718ION    CL-41259   1.988   3.708   3.391
74719ION    CL-41260  18.991  11.268   5.369
74720ION    CL-41261   6.818  12.022   4.234
74721ION    CL-41262  28.112  23.566   2.703
74722ION    CL-41263  24.134   5.837  12.529
74723ION    CL-41264   2.155  38.044  11.079
74724ION    CL-41265  17.299  30.693  12.756
74725ION    CL-41266  36.051  11.870   3.156
74726ION    CL-41267  24.122  22.693  12.754
74727ION    CL-41268  17.176  10.243   4.809
74728ION    CL-41269  38.023  40.906  14.222
74729ION    CL-41270   8.833  15.912   2.449
74730ION    CL-41271  23.611  20.199  11.643
74731ION    CL-41272  31.438  44.025   4.544
74732ION    CL-41273  15.906   0.487   2.144
74733ION    CL-41274  30.538  36.943   0.304
74734ION    CL-41275  23.397   4.968  13.804
74735ION    CL-41276  39.652  26.598   0.866
74736ION    CL-41277  39.360  16.058   2.138
74737ION    CL-41278   1.836  42.872  12.094
74738ION    CL-41279  32.844   6.220   1.386
74739ION    CL-41280  34.389  36.794  10.767
74740ION    CL-41281   4.628  12.336  11.545
74741ION    CL-41282  44.348   6.672   1.816
74742ION    CL-41283  44.427   0.288   4.044
74743ION    CL-41284  12.929  12.683  14.624
74744ION    CL-41285   0.809  40.012   1.159
74745ION    CL-41286  39.253  10.413   1.530
74746ION    CL-41287  23.682  19.433  12.737
74747ION    CL-41288  26.047  19.051  13.369
74748ION    CL-41289  16.489  16.393  11.522
74749ION    CL-41290  27.507   1.381  13.412
74750ION    CL-41291  37.810  11.494  12.496
74751ION    CL-41292  39.925  13.319   0.563
74752ION    CL-41293  31.471   8.182   3.465
74753ION    CL-41294  17.663  39.691  14.777
74754ION    CL-41295  12.642  29.980  12.393
74755ION    CL-41296  36.057  18.323  14.935
74756ION    CL-41297  36.496  18.618  13.235
74757ION    CL-41298  29.209   6.351  11.120
74758ION    CL-41299  21.671  38.217  10.671
74759ION    CL-41300   0.905  44.349  11.628
74760ION    CL-41301  36.056  38.301  13.985
74761ION    CL-41302  34.418   1.340   0.852
74762ION    CL-41303  43.833  12.337  10.455
74763ION    CL-41304  17.265  22.046   3.707
74764ION    CL-41305  25.971  44.869  12.956
74765ION    CL-41306  26.910  25.434  12.098
74766ION    CL-41307  15.023  32.200  14.138
74767ION    CL-41308  44.288  31.366  12.932
74768ION    CL-41309  35.063  34.438  12.897
74769ION    CL-41310  41.027  11.674  12.082
74770ION    CL-41311   9.027  21.710   3.592
74771ION    CL-41312  43.153  15.806   1.035
74772ION    CL-41313  39.766   5.183  13.603
74773ION    CL-41314  33.082   3.466   1.512
74774ION    CL-41315   5.421  30.564  13.305
74775ION    CL-41316  14.772   6.427   0.832
74776ION    CL-41317   8.209   1.120   2.529
74777ION    CL-41318  15.070   2.551  13.870
74778ION    CL-41319  16.410  44.302   4.346
74779ION    CL-41320  15.294  28.991   1.478
74780ION    CL-41321  12.922  22.217  13.048
74781ION    CL-41322  29.305  11.588   2.169
74782ION    CL-41323  40.264   8.721   9.703
74783ION    CL-41324  43.889  13.608  10.462
74784ION    CL-41325  28.183  38.900  14.360
74785ION    CL-41326  44.049  27.143  12.331
74786ION    CL-41327  26.941  35.826  11.598
74787ION    CL-41328   4.815  11.868   2.646
74788ION    CL-41329  28.508   3.414  11.859
74789ION    CL-41330  26.050   6.333   4.598
74790ION    CL-41331   6.907  33.864   4.417
74791ION    CL-41332  27.115  14.864   1.709
74792ION    CL-41333   7.312   0.665  13.206
74793ION    CL-41334  12.827  13.281   3.516
74794ION    CL-41335  30.919  42.446  10.928
74795ION    CL-41336  30.139  44.243   0.284
74796ION    CL-41337  35.634  30.216   3.563
74797ION    CL-41338  12.308   9.629  11.558
74798ION    CL-41339  15.079  11.644   3.876
74799ION    CL-41340  20.112   5.147   0.799
74800ION    CL-41341  34.539  15.288   3.973
74801ION    CL-41342  15.775  44.212  13.907
74802ION    CL-41343  22.325  37.351  13.472
74803ION    CL-41344  15.550  26.830   1.772
74804ION    CL-41345  38.611  17.357   2.081
74805ION    CL-41346  38.639  19.316   4.445
74806ION    CL-41347  16.356  26.981   3.265
74807ION    CL-41348  36.872  14.210   2.288
74808ION    CL-41349  28.730  12.187   4.387
74809ION    CL-41350  32.217  10.929   3.342
74810ION    CL-41351  16.923  27.068  11.454
74811ION    CL-41352  10.092   4.603  11.130
74812ION    CL-41353   9.429  14.262  14.474
74813ION    CL-41354  31.152  33.885   3.803
74814ION    CL-41355  40.703  39.388  11.780
74815ION    CL-41356  41.774  44.986   3.928
74816ION    CL-41357  28.236  15.812   1.500
74817ION    CL-41358   8.348  41.823  12.806
74818ION    CL-41359  26.608  25.196   3.686
74819ION    CL-41360  26.898  27.354   2.875
74820ION    CL-41361  30.343  16.999   5.389
74821ION    CL-41362  38.246   6.313  14.443
74822ION    CL-41363  40.884  40.728   2.196
74823ION    CL-41364  44.921  23.220   3.609
74824ION    CL-41365  26.268  38.876   3.700
74825ION    CL-41366  35.445   1.927   2.519
74826ION    CL-41367  13.375  29.979  13.107
74827ION    CL-41368  10.313  14.509   4.499
74828ION    CL-41369  10.140  39.272  12.314
74829ION    CL-41370  22.361  28.561  11.979
74830ION    CL-41371  37.890  24.223  14.401
74831ION    CL-41372  23.107  27.262  13.117
74832ION    CL-41373  32.180  30.186  11.947
74833ION    CL-41374  14.281  24.726  14.456
74834ION    CL-41375  35.666  32.865  11.450
74835ION    CL-41376  38.743  14.702  14.857
74836ION    CL-41377  26.072   8.388  11.024
74837ION    CL-41378  22.249  16.348  12.048
74838ION    CL-41379  37.338   9.951   2.787
74839ION    CL-41380  19.659  11.409  12.398
74840ION    CL-41381   1.084  24.684   0.195
74841ION    CL-41382  32.158  44.978  13.560
74842ION    CL-41383  42.365  29.974   2.644
74843ION    CL-41384  24.278   0.690   3.070
74844ION    CL-41385  12.227  14.294  14.446
74845ION    CL-41386  35.052  35.790   9.975
74846ION    CL-41387  42.994   9.301  12.619
74847ION    CL-41388  40.743  40.276   1.315
74848ION    CL-41389   3.671  12.648   2.103
74849ION    CL-41390  18.529  16.356  14.570
74850ION    CL-41391  31.499  32.604  14.629
74851ION    CL-41392  14.157  26.003  10.236
74852ION    CL-41393  40.638  20.391  10.726
74853ION    CL-41394  44.654  28.070  13.703
74854ION    CL-41395   0.880   9.857  14.474
74855ION    CL-41396  19.677  34.687   2.270
74856ION    CL-41397  13.111  36.707  10.961
74857ION    CL-41398  28.237  23.801  14.300
74858ION    CL-41399  22.985  29.971  13.206
74859ION    CL-41400  23.727   9.320  11.973
74860ION    CL-41401   3.400  23.239   2.858
74861ION    CL-41402  29.466   4.962   5.351
74862ION    CL-41403  12.550  33.610  13.428
74863ION    CL-41404  16.083   7.788  12.379
74864ION    CL-41405  11.198   9.414  13.352
74865ION    CL-41406  24.618  18.726   1.130
74866ION    CL-41407  20.696   7.662   2.355
74867ION    CL-41408   5.273  27.338  14.043
74868ION    CL-41409   0.820  34.026   0.959
74869ION    CL-41410  26.923  30.528  13.193
74870ION    CL-41411   2.810  42.841  12.509
74871ION    CL-41412  35.368  16.297  14.080
74872ION    CL-41413  19.707  44.238  14.385
74873ION    CL-41414  29.569  42.776  11.624
74874ION    CL-41415   8.506  17.406   4.144
74875ION    CL-41416   8.381  20.445   0.033
74876ION    CL-41417  15.477  14.306  12.439
74877ION    CL-41418  13.606  16.167  13.180
74878ION    CL-41419  28.379   8.409   4.996
74879ION    CL-41420  41.857  17.466   4.777
74880ION    CL-41421  39.859  14.744   1.932
74881ION    CL-41422  30.287  27.252  14.193
74882ION    CL-41423  39.876  29.366   1.066
74883ION    CL-41424  27.896  20.319  11.524
74884ION    CL-41425  42.859  10.015  10.379
74885ION    CL-41426  21.789  30.453   0.351
74886ION    CL-41427   8.865  12.378   2.323
74887ION    CL-41428  35.071  29.770  11.229
74888ION    CL-41429  11.067   4.944  12.050
74889ION    CL-41430  37.127  34.135   2.929
74890ION    CL-41431  29.679  11.298   4.677
74891ION    CL-41432  20.006   6.490  11.982
74892ION    CL-41433  28.364  36.793   0.840
74893ION    CL-41434   6.579  15.251  11.006
74894ION    CL-41435   1.020  37.912  10.737
74895ION    CL-41436  11.067  37.729   2.693
74896ION    CL-41437  42.424  43.910   0.087
74897ION    CL-41438  23.612  39.345   0.325
74898ION    CL-41439  42.534  11.770  14.571
74899ION    CL-41440  40.277  19.962  13.828
74900ION    CL-41441   2.402  28.808   9.981
74901ION    CL-41442   7.102  27.588   2.664
74902ION    CL-41443  36.196  16.689  13.605
74903ION    CL-41444   2.442  15.853  12.610
74904ION    CL-41445  41.466  29.997  12.187
74905ION    CL-41446  37.074  39.228   0.184
74906ION    CL-41447  25.543  19.345  14.193
74907ION    CL-41448  29.488  42.482   4.275
74908ION    CL-41449   3.584   9.518   5.018
74909ION    CL-41450   0.125  18.313   3.903
74910ION    CL-41451  22.484  26.301  14.612
74911ION    CL-41452   7.913  22.157   2.788
74912ION    CL-41453   7.753  26.766   2.697
74913ION    CL-41454  30.131  11.289   3.632
74914ION    CL-41455  25.650  12.090   4.882
74915ION    CL-41456   8.245   6.695   4.686
74916ION    CL-41457   8.321  20.631   3.307
74917ION    CL-41458   0.673  23.931   3.209
74918ION    CL-41459   3.932  19.053  10.785
74919ION    CL-41460  17.765  20.756   0.368
74920ION    CL-41461  39.044  32.699  13.232
74921ION    CL-41462  14.541   6.430   4.900
74922ION    CL-41463  29.143  36.530   2.341
74923ION    CL-41464  30.004  30.628   1.843
74924ION    CL-41465  34.354  16.414  13.091
74925ION    CL-41466  27.194  29.489   3.584
74926ION    CL-41467  15.583  19.972   4.234
74927ION    CL-41468  21.704  32.440   0.766
74928ION    CL-41469  41.193  35.442   2.580
74929ION    CL-41470   0.056   0.760  12.444
74930ION    CL-41471   4.558  10.164   0.857
74931ION    CL-41472   6.635  44.894  14.793
74932ION    CL-41473  10.717  40.535  12.979
74933ION    CL-41474  13.776  29.000   9.946
74934ION    CL-41475  22.561   3.930  10.183
74935ION    CL-41476  11.923   6.204   0.473
74936ION    CL-41477  24.056   8.169   0.290
74937ION    CL-41478  28.053  28.071   0.971
74938ION    CL-41479  43.598   7.119   1.507
74939ION    CL-41480  34.552  16.206   0.225
74940ION    CL-41481  23.425  27.897  10.772
74941ION    CL-41482  31.839  39.144  11.168
74942ION    CL-41483  36.636  13.225   4.823
74943ION    CL-41484  26.183   1.074  11.616
74944ION    CL-41485  19.560  20.309  14.401
74945ION    CL-41486  22.183  38.611  11.569
74946ION    CL-41487  40.165  17.751   2.750
74947ION    CL-41488  11.284   0.514   2.514
74948ION    CL-41489  37.106  15.181   2.390
74949ION    CL-41490  41.171  10.811   1.412
74950ION    CL-41491  13.636  27.002   3.770
74951ION    CL-41492  12.728  24.290  12.004
74952ION    CL-41493   3.721  34.956   0.866
74953ION    CL-41494  42.298  28.421  11.187
74954ION    CL-41495  33.710  33.644  13.478
74955ION    CL-41496  28.858  16.058   1.888
74956ION    CL-41497  27.181   3.441   4.092
74957ION    CL-41498  36.378  19.554  12.903
74958ION    CL-41499   2.870  43.513  11.007
74959ION    CL-41500  35.416  11.693   1.843
74960ION    CL-41501  23.972  12.648   9.961
74961ION    CL-41502  43.699  42.404   2.347
74962ION    CL-41503   2.449  14.934   2.414
74963ION    CL-41504  35.195  29.900  12.400
74964ION    CL-41505  22.115  12.516   3.240
74965ION    CL-41506  17.784   0.287   1.448
74966ION    CL-41507   2.311  34.191  12.067
74967ION    CL-41508  32.524  33.344  13.859
74968ION    CL-41509  23.827   8.228   1.970
74969ION    CL-41510  12.885  36.834   4.495
74970ION    CL-41511   2.206  11.987  12.240
74971ION    CL-41512  19.944  34.706   1.429
74972ION    CL-41513  27.378  10.780  13.116
74973ION    CL-41514   5.322  39.054   3.147
74974ION    CL-41515  20.117   4.917   2.657
74975ION    CL-41516  21.672   7.643   0.268
74976ION    CL-41517  42.654   9.574   0.545
74977ION    CL-41518  44.470  39.687  11.145
74978ION    CL-41519  35.496  35.390   0.756
74979ION    CL-41520   3.161  10.335  14.655
74980ION    CL-41521   2.331  18.550   3.857
74981ION    CL-41522  18.273  34.631  12.982
74982ION    CL-41523  20.724  12.943  13.474
74983ION    CL-41524  16.660  32.646   1.009
74984ION    CL-41525  39.631  17.224   9.955
74985ION    CL-41526  37.695  30.198   4.977
  45.00000  45.00000  15.00000
